 Entering Gaussian System, Link 0=g16
 Initial command:
 /apps/easybuild-2022/easybuild/software/Compiler/NVHPC/22.11-CUDA-11.7.0/Gaussian/g16c01-CUDA-11.7.0/g16/l1.exe "/tmp/Gau-45517.inp" -scrdir="/tmp/"
 Entering Link 1 = /apps/easybuild-2022/easybuild/software/Compiler/NVHPC/22.11-CUDA-11.7.0/Gaussian/g16c01-CUDA-11.7.0/g16/l1.exe PID=     45518.
  
 Copyright (c) 1988-2019, Gaussian, Inc.  All Rights Reserved.
  
 This is part of the Gaussian(R) 16 program.  It is based on
 the Gaussian(R) 09 system (copyright 2009, Gaussian, Inc.),
 the Gaussian(R) 03 system (copyright 2003, Gaussian, Inc.),
 the Gaussian(R) 98 system (copyright 1998, Gaussian, Inc.),
 the Gaussian(R) 94 system (copyright 1995, Gaussian, Inc.),
 the Gaussian 92(TM) system (copyright 1992, Gaussian, Inc.),
 the Gaussian 90(TM) system (copyright 1990, Gaussian, Inc.),
 the Gaussian 88(TM) system (copyright 1988, Gaussian, Inc.),
 the Gaussian 86(TM) system (copyright 1986, Carnegie Mellon
 University), and the Gaussian 82(TM) system (copyright 1983,
 Carnegie Mellon University). Gaussian is a federally registered
 trademark of Gaussian, Inc.
  
 This software contains proprietary and confidential information,
 including trade secrets, belonging to Gaussian, Inc.
  
 This software is provided under written license and may be
 used, copied, transmitted, or stored only in accord with that
 written license.
  
 The following legend is applicable only to US Government
 contracts under FAR:
  
                    RESTRICTED RIGHTS LEGEND
  
 Use, reproduction and disclosure by the US Government is
 subject to restrictions as set forth in subparagraphs (a)
 and (c) of the Commercial Computer Software - Restricted
 Rights clause in FAR 52.227-19.
  
 Gaussian, Inc.
 340 Quinnipiac St., Bldg. 40, Wallingford CT 06492
  
  
 ---------------------------------------------------------------
 Warning -- This program may not be used in any manner that
 competes with the business of Gaussian, Inc. or will provide
 assistance to any competitor of Gaussian, Inc.  The licensee
 of this program is prohibited from giving any competitor of
 Gaussian, Inc. access to this program.  By using this program,
 the user acknowledges that Gaussian, Inc. is engaged in the
 business of creating and licensing software in the field of
 computational chemistry and represents and warrants to the
 licensee that it is not a competitor of Gaussian, Inc. and that
 it will not use this program in any manner prohibited above.
 ---------------------------------------------------------------
  

 Cite this work as:
 Gaussian 16, Revision C.01,
 M. J. Frisch, G. W. Trucks, H. B. Schlegel, G. E. Scuseria, 
 M. A. Robb, J. R. Cheeseman, G. Scalmani, V. Barone, 
 G. A. Petersson, H. Nakatsuji, X. Li, M. Caricato, A. V. Marenich, 
 J. Bloino, B. G. Janesko, R. Gomperts, B. Mennucci, H. P. Hratchian, 
 J. V. Ortiz, A. F. Izmaylov, J. L. Sonnenberg, D. Williams-Young, 
 F. Ding, F. Lipparini, F. Egidi, J. Goings, B. Peng, A. Petrone, 
 T. Henderson, D. Ranasinghe, V. G. Zakrzewski, J. Gao, N. Rega, 
 G. Zheng, W. Liang, M. Hada, M. Ehara, K. Toyota, R. Fukuda, 
 J. Hasegawa, M. Ishida, T. Nakajima, Y. Honda, O. Kitao, H. Nakai, 
 T. Vreven, K. Throssell, J. A. Montgomery, Jr., J. E. Peralta, 
 F. Ogliaro, M. J. Bearpark, J. J. Heyd, E. N. Brothers, K. N. Kudin, 
 V. N. Staroverov, T. A. Keith, R. Kobayashi, J. Normand, 
 K. Raghavachari, A. P. Rendell, J. C. Burant, S. S. Iyengar, 
 J. Tomasi, M. Cossi, J. M. Millam, M. Klene, C. Adamo, R. Cammi, 
 J. W. Ochterski, R. L. Martin, K. Morokuma, O. Farkas, 
 J. B. Foresman, and D. J. Fox, Gaussian, Inc., Wallingford CT, 2019.
 
 ******************************************
 Gaussian 16:  ES64L-G16RevC.01  3-Jul-2019
                23-May-2025 
 ******************************************
 %mem=28GB
 %chk=1312673532570400000002_well
 %nprocshared=8
 Will use up to    8 processors via shared memory.
 ----------------------------------------------------------------------
 #P wb97xd/6-311++G(d,p) Symm(None) scf(xqc) pop(None) freq opt(CalcFC,
  Tight)
 ----------------------------------------------------------------------
 1/7=10,10=4,18=20,19=15,26=3,38=1/1,3;
 2/9=110,12=2,15=3,17=6,18=5,40=1/2;
 3/5=4,6=6,7=1111,11=2,25=1,30=1,71=2,74=-58,140=1/1,2,3;
 4//1;
 5/5=2,8=3,13=1,38=5/2,8;
 8/6=4,10=90,11=11/1;
 11/6=1,8=1,9=11,15=111,16=1,31=1/1,2,10;
 10/6=1,13=1,31=1/2;
 7/10=1,25=1,30=1/1,2,3,16;
 1/7=10,10=4,18=20,19=15,26=3/3(2);
 2/9=110,15=3/2;
 99//99;
 2/9=110,15=3/2;
 3/5=4,6=6,7=1111,11=2,25=1,30=1,71=1,74=-58/1,2,3;
 4/5=5,16=3,69=1/1;
 5/5=2,8=3,13=1,38=5/2,8;
 7/30=1/1,2,3,16;
 1/7=10,18=20,19=15,26=3/3(-5);
 2/9=110,15=3/2;
 99/9=1/99;
 Leave Link    1 at Fri May 23 02:04:48 2025, MaxMem=  3758096384 cpu:               0.1 elap:               0.1
 (Enter /apps/easybuild-2022/easybuild/software/Compiler/NVHPC/22.11-CUDA-11.7.0/Gaussian/g16c01-CUDA-11.7.0/g16/l101.exe)
 ------------------------------
 Gaussian input prepared by ASE
 ------------------------------
 Symbolic Z-matrix:
 Charge =  0 Multiplicity = 2
 C                    -0.05847  -0.05126  -0.03811 
 F                    -0.38595  -1.29657  -0.38119 
 F                    -0.5193    0.79943  -0.95394 
 S                     1.81726   0.04084  -0.04661 
 O                     2.28256  -0.51307   1.19466 
 O                     2.23201  -0.42284  -1.33088 
 O                     2.03185   1.62701  -0.03671 
 H                     2.06699   1.95727   0.87083 
 
 ITRead=  0  0  0  0  0  0  0  0
 MicOpt= -1 -1 -1 -1 -1 -1 -1 -1
 NAtoms=      8 NQM=        8 NQMF=       0 NMMI=      0 NMMIF=      0
                NMic=       0 NMicF=      0.
                    Isotopes and Nuclear Properties:
 (Nuclear quadrupole moments (NQMom) in fm**2, nuclear magnetic moments (NMagM)
  in nuclear magnetons)

  Atom         1           2           3           4           5           6           7           8
 IAtWgt=          12          19          19          32          16          16          16           1
 AtmWgt=  12.0000000  18.9984032  18.9984032  31.9720718  15.9949146  15.9949146  15.9949146   1.0078250
 NucSpn=           0           1           1           0           0           0           0           1
 AtZEff=  -0.0000000  -0.0000000  -0.0000000  -0.0000000  -0.0000000  -0.0000000  -0.0000000  -0.0000000
 NQMom=    0.0000000   0.0000000   0.0000000   0.0000000   0.0000000   0.0000000   0.0000000   0.0000000
 NMagM=    0.0000000   2.6288670   2.6288670   0.0000000   0.0000000   0.0000000   0.0000000   2.7928460
 AtZNuc=   6.0000000   9.0000000   9.0000000  16.0000000   8.0000000   8.0000000   8.0000000   1.0000000
 Leave Link  101 at Fri May 23 02:04:48 2025, MaxMem=  3758096384 cpu:               0.3 elap:               0.2
 (Enter /apps/easybuild-2022/easybuild/software/Compiler/NVHPC/22.11-CUDA-11.7.0/Gaussian/g16c01-CUDA-11.7.0/g16/l103.exe)

 GradGradGradGradGradGradGradGradGradGradGradGradGradGradGradGradGradGrad
 Berny optimization.
 Initialization pass.
                           ----------------------------
                           !    Initial Parameters    !
                           ! (Angstroms and Degrees)  !
 --------------------------                            --------------------------
 ! Name  Definition              Value          Derivative Info.                !
 --------------------------------------------------------------------------------
 ! R1    R(1,2)                  1.3326         calculate D2E/DX2 analytically  !
 ! R2    R(1,3)                  1.3322         calculate D2E/DX2 analytically  !
 ! R3    R(1,4)                  1.878          calculate D2E/DX2 analytically  !
 ! R4    R(4,5)                  1.4367         calculate D2E/DX2 analytically  !
 ! R5    R(4,6)                  1.427          calculate D2E/DX2 analytically  !
 ! R6    R(4,7)                  1.6006         calculate D2E/DX2 analytically  !
 ! R7    R(7,8)                  0.9664         calculate D2E/DX2 analytically  !
 ! A1    A(2,1,3)              109.557          calculate D2E/DX2 analytically  !
 ! A2    A(2,1,4)              106.8649         calculate D2E/DX2 analytically  !
 ! A3    A(3,1,4)              108.1239         calculate D2E/DX2 analytically  !
 ! A4    A(1,4,5)              107.4974         calculate D2E/DX2 analytically  !
 ! A5    A(1,4,6)              106.1663         calculate D2E/DX2 analytically  !
 ! A6    A(1,4,7)              100.5135         calculate D2E/DX2 analytically  !
 ! A7    A(5,4,6)              123.928          calculate D2E/DX2 analytically  !
 ! A8    A(5,4,7)              109.469          calculate D2E/DX2 analytically  !
 ! A9    A(6,4,7)              106.7737         calculate D2E/DX2 analytically  !
 ! A10   A(4,7,8)              110.4466         calculate D2E/DX2 analytically  !
 ! D1    D(2,1,4,5)            -80.827          calculate D2E/DX2 analytically  !
 ! D2    D(2,1,4,6)             53.6571         calculate D2E/DX2 analytically  !
 ! D3    D(2,1,4,7)            164.7206         calculate D2E/DX2 analytically  !
 ! D4    D(3,1,4,5)            161.3156         calculate D2E/DX2 analytically  !
 ! D5    D(3,1,4,6)            -64.2004         calculate D2E/DX2 analytically  !
 ! D6    D(3,1,4,7)             46.8631         calculate D2E/DX2 analytically  !
 ! D7    D(1,4,7,8)             89.0722         calculate D2E/DX2 analytically  !
 ! D8    D(5,4,7,8)            -23.8789         calculate D2E/DX2 analytically  !
 ! D9    D(6,4,7,8)           -160.3363         calculate D2E/DX2 analytically  !
 --------------------------------------------------------------------------------
 Trust Radius=3.00D-01 FncErr=1.00D-07 GrdErr=1.00D-06 EigMax=2.50D+02 EigMin=1.00D-04
 Number of steps in this run=     36 maximum allowed number of steps=    100.
 GradGradGradGradGradGradGradGradGradGradGradGradGradGradGradGradGradGrad

 Leave Link  103 at Fri May 23 02:04:48 2025, MaxMem=  3758096384 cpu:               0.1 elap:               0.0
 (Enter /apps/easybuild-2022/easybuild/software/Compiler/NVHPC/22.11-CUDA-11.7.0/Gaussian/g16c01-CUDA-11.7.0/g16/l202.exe)
                          Input orientation:                          
 ---------------------------------------------------------------------
 Center     Atomic      Atomic             Coordinates (Angstroms)
 Number     Number       Type             X           Y           Z
 ---------------------------------------------------------------------
      1          6           0       -0.058467   -0.051255   -0.038113
      2          9           0       -0.385948   -1.296568   -0.381185
      3          9           0       -0.519296    0.799425   -0.953941
      4         16           0        1.817262    0.040839   -0.046608
      5          8           0        2.282562   -0.513068    1.194661
      6          8           0        2.232011   -0.422843   -1.330877
      7          8           0        2.031849    1.627007   -0.036712
      8          1           0        2.066986    1.957273    0.870832
 ---------------------------------------------------------------------
                    Distance matrix (angstroms):
                    1          2          3          4          5
     1  C    0.000000
     2  F    1.332571   0.000000
     3  F    1.332201   2.176929   0.000000
     4  S    1.878008   2.598987   2.618818   0.000000
     5  O    2.685781   3.196578   3.766900   1.436686   0.000000
     6  O    2.656239   2.918736   3.034091   1.427012   2.527655
     7  O    2.680669   3.809422   2.834527   1.600648   2.481745
     8  H    3.062338   4.262853   3.370351   2.139340   2.500784
                    6          7          8
     6  O    0.000000
     7  O    2.432450   0.000000
     8  H    3.246492   0.966409   0.000000
 Symmetry turned off by external request.
 Stoichiometry    CHF2O3S
 Rotational constants (GHZ):           3.4398188           2.0294605           1.7207932
 Leave Link  202 at Fri May 23 02:04:48 2025, MaxMem=  3758096384 cpu:               0.0 elap:               0.0
 (Enter /apps/easybuild-2022/easybuild/software/Compiler/NVHPC/22.11-CUDA-11.7.0/Gaussian/g16c01-CUDA-11.7.0/g16/l301.exe)
 Standard basis: 6-311++G(d,p) (5D, 7F)
 Ernie: Thresh=  0.10000D-02 Tol=  0.10000D-05 Strict=F.
   169 basis functions,   275 primitive gaussians,   176 cartesian basis functions
    33 alpha electrons       32 beta electrons
       nuclear repulsion energy       440.4358201719 Hartrees.
 IExCor= 4639 DFT=T Ex+Corr=wB97XD ExCW=0 ScaHFX=  1.000000
 ScaDFX=  1.000000  1.000000  1.000000  1.000000 ScalE2=  1.000000  1.000000
 IRadAn=      5 IRanWt=     -1 IRanGd=            0 ICorTp=0 IEmpDi=121
 HFx  wShort=  0.000000 wLong=  0.200000 cFull=  0.222036 cShort=  0.000000 cLong=  0.777964
 DFx  wShort=  0.000000 wLong=  0.200000 cFull=  0.000000 cShort=  0.000000 cLong=  1.000000
 NAtoms=    8 NActive=    8 NUniq=    8 SFac= 1.00D+00 NAtFMM=   60 NAOKFM=F Big=F
 Integral buffers will be    131072 words long.
 Raffenetti 2 integral format.
 Two-electron integral symmetry is turned off.
 R6Disp:  Grimme-D2 Dispersion energy=       -0.0021164112 Hartrees.
 Nuclear repulsion after empirical dispersion term =      440.4337037606 Hartrees.
 Leave Link  301 at Fri May 23 02:04:48 2025, MaxMem=  3758096384 cpu:               0.1 elap:               0.1
 (Enter /apps/easybuild-2022/easybuild/software/Compiler/NVHPC/22.11-CUDA-11.7.0/Gaussian/g16c01-CUDA-11.7.0/g16/l302.exe)
 NPDir=0 NMtPBC=     1 NCelOv=     1 NCel=       1 NClECP=     1 NCelD=      1
         NCelK=      1 NCelE2=     1 NClLst=     1 CellRange=     0.0.
 One-electron integrals computed using PRISM.
 NBasis=   169 RedAO= T EigKep=  2.19D-04  NBF=   169
 NBsUse=   169 1.00D-06 EigRej= -1.00D+00 NBFU=   169
 Precomputing XC quadrature grid using
 IXCGrd= 4 IRadAn=           5 IRanWt=          -1 IRanGd=           0 AccXCQ= 0.00D+00.
 Generated NRdTot=       0 NPtTot=           0 NUsed=           0 NTot=          32
 NSgBfM=   176   176   176   176   176 MxSgAt=     8 MxSgA2=     8.
 Leave Link  302 at Fri May 23 02:04:49 2025, MaxMem=  3758096384 cpu:               0.5 elap:               0.1
 (Enter /apps/easybuild-2022/easybuild/software/Compiler/NVHPC/22.11-CUDA-11.7.0/Gaussian/g16c01-CUDA-11.7.0/g16/l303.exe)
 DipDrv:  MaxL=1.
 Leave Link  303 at Fri May 23 02:04:49 2025, MaxMem=  3758096384 cpu:               0.1 elap:               0.1
 (Enter /apps/easybuild-2022/easybuild/software/Compiler/NVHPC/22.11-CUDA-11.7.0/Gaussian/g16c01-CUDA-11.7.0/g16/l401.exe)
 ExpMin= 3.60D-02 ExpMax= 9.34D+04 ExpMxC= 3.17D+03 IAcc=3 IRadAn=         5 AccDes= 0.00D+00
 Harris functional with IExCor= 4639 and IRadAn=       5 diagonalized for initial guess.
 HarFok:  IExCor= 4639 AccDes= 0.00D+00 IRadAn=         5 IDoV= 1 UseB2=F ITyADJ=14
 ICtDFT=  3500011 ScaDFX=  1.000000  1.000000  1.000000  1.000000
 FoFCou: FMM=F IPFlag=           0 FMFlag=      100000 FMFlg1=           0
         NFxFlg=           0 DoJE=T BraDBF=F KetDBF=T FulRan=T
         wScrn=  0.000000 ICntrl=       500 IOpCl=  0 I1Cent=   200000004 NGrid=           0
         NMat0=    1 NMatS0=      1 NMatT0=    0 NMatD0=    1 NMtDS0=    0 NMtDT0=    0
 Symmetry not used in FoFCou.
 Harris En= -839.995027342547    
 JPrj=0 DoOrth=F DoCkMO=F.
 Initial guess <Sx>= 0.0000 <Sy>= 0.0000 <Sz>= 0.5000 <S**2>= 0.7500 S= 0.5000
 Leave Link  401 at Fri May 23 02:04:49 2025, MaxMem=  3758096384 cpu:               1.4 elap:               0.3
 (Enter /apps/easybuild-2022/easybuild/software/Compiler/NVHPC/22.11-CUDA-11.7.0/Gaussian/g16c01-CUDA-11.7.0/g16/l502.exe)
 Keep R1 and R2 ints in memory in canonical form, NReq=423234435.
 FoFCou: FMM=F IPFlag=           0 FMFlag=           0 FMFlg1=           0
         NFxFlg=           0 DoJE=F BraDBF=F KetDBF=F FulRan=T
         wScrn=  0.000000 ICntrl=       600 IOpCl=  0 I1Cent=           0 NGrid=           0
         NMat0=    1 NMatS0=  14365 NMatT0=    0 NMatD0=    1 NMtDS0=    0 NMtDT0=    0
 Symmetry not used in FoFCou.
 Two-electron integral symmetry not used.
 UHF open shell SCF:
 Using DIIS extrapolation, IDIIS=  1040.
 NGot=  3758096384 LenX=  3345296366 LenY=  3345264949
 Requested convergence on RMS density matrix=1.00D-08 within  32 cycles.
 Requested convergence on MAX density matrix=1.00D-06.
 Requested convergence on             energy=1.00D-06.
 No special actions if energy rises.

 Cycle   1  Pass 1  IDiag  1:
 E= -861.605572759630    
 DIIS: error= 1.04D-01 at cycle   1 NSaved=   1.
 NSaved= 1 IEnMin= 1 EnMin= -861.605572759630     IErMin= 1 ErrMin= 1.04D-01
 ErrMax= 1.04D-01  0.00D+00 EMaxC= 1.00D-01 BMatC= 9.90D+00 BMatP= 9.90D+00
 IDIUse=3 WtCom= 0.00D+00 WtEn= 1.00D+00
 Coeff-Com:  0.100D+01
 Coeff-En:   0.100D+01
 Coeff:      0.100D+01
 Gap=     0.533 Goal=   None    Shift=    0.000
 Gap=     0.363 Goal=   None    Shift=    0.000
 GapD=    0.363 DampG=1.000 DampE=0.250 DampFc=0.2500 IDamp=-1.
 Damping current iteration by 2.50D-01
 RMSDP=8.59D-03 MaxDP=3.22D-01              OVMax= 1.77D-01

 Cycle   2  Pass 1  IDiag  1:
 E= -861.770490821797     Delta-E=       -0.164918062167 Rises=F Damp=T
 DIIS: error= 7.42D-02 at cycle   2 NSaved=   2.
 NSaved= 2 IEnMin= 2 EnMin= -861.770490821797     IErMin= 2 ErrMin= 7.42D-02
 ErrMax= 7.42D-02  0.00D+00 EMaxC= 1.00D-01 BMatC= 4.46D+00 BMatP= 9.90D+00
 IDIUse=3 WtCom= 2.58D-01 WtEn= 7.42D-01
 Coeff-Com: -0.177D+01 0.277D+01
 Coeff-En:   0.000D+00 0.100D+01
 Coeff:     -0.458D+00 0.146D+01
 Gap=     0.476 Goal=   None    Shift=    0.000
 Gap=     0.324 Goal=   None    Shift=    0.000
 RMSDP=4.62D-03 MaxDP=1.35D-01 DE=-1.65D-01 OVMax= 7.30D-02

 Cycle   3  Pass 1  IDiag  1:
 E= -862.079648953948     Delta-E=       -0.309158132151 Rises=F Damp=F
 DIIS: error= 1.53D-02 at cycle   3 NSaved=   3.
 NSaved= 3 IEnMin= 3 EnMin= -862.079648953948     IErMin= 3 ErrMin= 1.53D-02
 ErrMax= 1.53D-02  0.00D+00 EMaxC= 1.00D-01 BMatC= 2.39D-01 BMatP= 4.46D+00
 IDIUse=3 WtCom= 8.47D-01 WtEn= 1.53D-01
 Coeff-Com:  0.557D+00-0.639D+00 0.108D+01
 Coeff-En:   0.000D+00 0.000D+00 0.100D+01
 Coeff:      0.471D+00-0.541D+00 0.107D+01
 Gap=     0.429 Goal=   None    Shift=    0.000
 Gap=     0.343 Goal=   None    Shift=    0.000
 RMSDP=1.48D-03 MaxDP=4.36D-02 DE=-3.09D-01 OVMax= 2.76D-02

 Cycle   4  Pass 1  IDiag  1:
 E= -862.098900309899     Delta-E=       -0.019251355950 Rises=F Damp=F
 DIIS: error= 5.05D-03 at cycle   4 NSaved=   4.
 NSaved= 4 IEnMin= 4 EnMin= -862.098900309899     IErMin= 4 ErrMin= 5.05D-03
 ErrMax= 5.05D-03  0.00D+00 EMaxC= 1.00D-01 BMatC= 3.55D-02 BMatP= 2.39D-01
 IDIUse=3 WtCom= 9.50D-01 WtEn= 5.05D-02
 Coeff-Com:  0.326D+00-0.419D+00 0.483D+00 0.610D+00
 Coeff-En:   0.000D+00 0.000D+00 0.000D+00 0.100D+01
 Coeff:      0.309D+00-0.398D+00 0.459D+00 0.630D+00
 Gap=     0.407 Goal=   None    Shift=    0.000
 Gap=     0.361 Goal=   None    Shift=    0.000
 RMSDP=9.97D-04 MaxDP=5.02D-02 DE=-1.93D-02 OVMax= 2.14D-02

 Cycle   5  Pass 1  IDiag  1:
 E= -862.103892750892     Delta-E=       -0.004992440993 Rises=F Damp=F
 DIIS: error= 2.12D-03 at cycle   5 NSaved=   5.
 NSaved= 5 IEnMin= 5 EnMin= -862.103892750892     IErMin= 5 ErrMin= 2.12D-03
 ErrMax= 2.12D-03  0.00D+00 EMaxC= 1.00D-01 BMatC= 4.60D-03 BMatP= 3.55D-02
 IDIUse=3 WtCom= 9.79D-01 WtEn= 2.12D-02
 Coeff-Com:  0.120D+00-0.161D+00 0.148D+00 0.319D+00 0.575D+00
 Coeff-En:   0.000D+00 0.000D+00 0.000D+00 0.000D+00 0.100D+01
 Coeff:      0.117D+00-0.157D+00 0.144D+00 0.312D+00 0.584D+00
 Gap=     0.410 Goal=   None    Shift=    0.000
 Gap=     0.356 Goal=   None    Shift=    0.000
 RMSDP=2.46D-04 MaxDP=1.04D-02 DE=-4.99D-03 OVMax= 8.15D-03

 Cycle   6  Pass 1  IDiag  1:
 E= -862.104659094670     Delta-E=       -0.000766343778 Rises=F Damp=F
 DIIS: error= 5.43D-04 at cycle   6 NSaved=   6.
 NSaved= 6 IEnMin= 6 EnMin= -862.104659094670     IErMin= 6 ErrMin= 5.43D-04
 ErrMax= 5.43D-04  0.00D+00 EMaxC= 1.00D-01 BMatC= 1.72D-04 BMatP= 4.60D-03
 IDIUse=3 WtCom= 9.95D-01 WtEn= 5.43D-03
 Coeff-Com: -0.223D-01 0.286D-01-0.343D-01-0.244D-01 0.103D+00 0.949D+00
 Coeff-En:   0.000D+00 0.000D+00 0.000D+00 0.000D+00 0.000D+00 0.100D+01
 Coeff:     -0.222D-01 0.285D-01-0.341D-01-0.242D-01 0.103D+00 0.949D+00
 Gap=     0.409 Goal=   None    Shift=    0.000
 Gap=     0.357 Goal=   None    Shift=    0.000
 RMSDP=1.17D-04 MaxDP=3.41D-03 DE=-7.66D-04 OVMax= 7.18D-03

 Cycle   7  Pass 1  IDiag  1:
 E= -862.104765647028     Delta-E=       -0.000106552358 Rises=F Damp=F
 DIIS: error= 2.06D-04 at cycle   7 NSaved=   7.
 NSaved= 7 IEnMin= 7 EnMin= -862.104765647028     IErMin= 7 ErrMin= 2.06D-04
 ErrMax= 2.06D-04  0.00D+00 EMaxC= 1.00D-01 BMatC= 2.72D-05 BMatP= 1.72D-04
 IDIUse=3 WtCom= 9.98D-01 WtEn= 2.06D-03
 Coeff-Com: -0.185D-01 0.247D-01-0.219D-01-0.445D-01-0.978D-01 0.604D-01
 Coeff-Com:  0.110D+01
 Coeff-En:   0.000D+00 0.000D+00 0.000D+00 0.000D+00 0.000D+00 0.000D+00
 Coeff-En:   0.100D+01
 Coeff:     -0.184D-01 0.247D-01-0.218D-01-0.444D-01-0.976D-01 0.602D-01
 Coeff:      0.110D+01
 Gap=     0.410 Goal=   None    Shift=    0.000
 Gap=     0.357 Goal=   None    Shift=    0.000
 RMSDP=6.46D-05 MaxDP=1.93D-03 DE=-1.07D-04 OVMax= 5.48D-03

 Cycle   8  Pass 1  IDiag  1:
 E= -862.104794436005     Delta-E=       -0.000028788977 Rises=F Damp=F
 DIIS: error= 1.03D-04 at cycle   8 NSaved=   8.
 NSaved= 8 IEnMin= 8 EnMin= -862.104794436005     IErMin= 8 ErrMin= 1.03D-04
 ErrMax= 1.03D-04  0.00D+00 EMaxC= 1.00D-01 BMatC= 6.69D-06 BMatP= 2.72D-05
 IDIUse=3 WtCom= 9.99D-01 WtEn= 1.03D-03
 Coeff-Com: -0.305D-02 0.417D-02-0.324D-02-0.120D-01-0.499D-01-0.108D+00
 Coeff-Com:  0.341D+00 0.831D+00
 Coeff-En:   0.000D+00 0.000D+00 0.000D+00 0.000D+00 0.000D+00 0.000D+00
 Coeff-En:   0.000D+00 0.100D+01
 Coeff:     -0.304D-02 0.416D-02-0.324D-02-0.120D-01-0.498D-01-0.108D+00
 Coeff:      0.340D+00 0.831D+00
 Gap=     0.410 Goal=   None    Shift=    0.000
 Gap=     0.357 Goal=   None    Shift=    0.000
 RMSDP=2.71D-05 MaxDP=7.13D-04 DE=-2.88D-05 OVMax= 2.18D-03

 Cycle   9  Pass 1  IDiag  1:
 E= -862.104799088455     Delta-E=       -0.000004652450 Rises=F Damp=F
 DIIS: error= 6.05D-05 at cycle   9 NSaved=   9.
 NSaved= 9 IEnMin= 9 EnMin= -862.104799088455     IErMin= 9 ErrMin= 6.05D-05
 ErrMax= 6.05D-05  0.00D+00 EMaxC= 1.00D-01 BMatC= 2.66D-06 BMatP= 6.69D-06
 IDIUse=1 WtCom= 1.00D+00 WtEn= 0.00D+00
 Coeff-Com:  0.364D-02-0.484D-02 0.439D-02 0.581D-02 0.117D-04-0.766D-01
 Coeff-Com: -0.122D+00 0.458D+00 0.732D+00
 Coeff:      0.364D-02-0.484D-02 0.439D-02 0.581D-02 0.117D-04-0.766D-01
 Coeff:     -0.122D+00 0.458D+00 0.732D+00
 Gap=     0.410 Goal=   None    Shift=    0.000
 Gap=     0.357 Goal=   None    Shift=    0.000
 RMSDP=1.31D-05 MaxDP=2.87D-04 DE=-4.65D-06 OVMax= 1.34D-03

 Cycle  10  Pass 1  IDiag  1:
 E= -862.104800461670     Delta-E=       -0.000001373215 Rises=F Damp=F
 DIIS: error= 2.02D-05 at cycle  10 NSaved=  10.
 NSaved=10 IEnMin=10 EnMin= -862.104800461670     IErMin=10 ErrMin= 2.02D-05
 ErrMax= 2.02D-05  0.00D+00 EMaxC= 1.00D-01 BMatC= 3.38D-07 BMatP= 2.66D-06
 IDIUse=1 WtCom= 1.00D+00 WtEn= 0.00D+00
 Coeff-Com:  0.175D-02-0.234D-02 0.217D-02 0.400D-02 0.846D-02-0.797D-02
 Coeff-Com: -0.831D-01-0.109D-01 0.223D+00 0.865D+00
 Coeff:      0.175D-02-0.234D-02 0.217D-02 0.400D-02 0.846D-02-0.797D-02
 Coeff:     -0.831D-01-0.109D-01 0.223D+00 0.865D+00
 Gap=     0.410 Goal=   None    Shift=    0.000
 Gap=     0.357 Goal=   None    Shift=    0.000
 RMSDP=6.16D-06 MaxDP=2.12D-04 DE=-1.37D-06 OVMax= 5.40D-04

 Cycle  11  Pass 1  IDiag  1:
 E= -862.104800702276     Delta-E=       -0.000000240606 Rises=F Damp=F
 DIIS: error= 1.25D-05 at cycle  11 NSaved=  11.
 NSaved=11 IEnMin=11 EnMin= -862.104800702276     IErMin=11 ErrMin= 1.25D-05
 ErrMax= 1.25D-05  0.00D+00 EMaxC= 1.00D-01 BMatC= 1.16D-07 BMatP= 3.38D-07
 IDIUse=1 WtCom= 1.00D+00 WtEn= 0.00D+00
 Coeff-Com: -0.280D-03 0.376D-03-0.254D-03 0.203D-03 0.405D-02 0.179D-01
 Coeff-Com: -0.326D-02-0.141D+00-0.978D-01 0.413D+00 0.807D+00
 Coeff:     -0.280D-03 0.376D-03-0.254D-03 0.203D-03 0.405D-02 0.179D-01
 Coeff:     -0.326D-02-0.141D+00-0.978D-01 0.413D+00 0.807D+00
 Gap=     0.410 Goal=   None    Shift=    0.000
 Gap=     0.357 Goal=   None    Shift=    0.000
 RMSDP=3.50D-06 MaxDP=9.36D-05 DE=-2.41D-07 OVMax= 2.84D-04

 Cycle  12  Pass 1  IDiag  1:
 E= -862.104800770495     Delta-E=       -0.000000068219 Rises=F Damp=F
 DIIS: error= 4.64D-06 at cycle  12 NSaved=  12.
 NSaved=12 IEnMin=12 EnMin= -862.104800770495     IErMin=12 ErrMin= 4.64D-06
 ErrMax= 4.64D-06  0.00D+00 EMaxC= 1.00D-01 BMatC= 1.90D-08 BMatP= 1.16D-07
 IDIUse=1 WtCom= 1.00D+00 WtEn= 0.00D+00
 Coeff-Com: -0.463D-03 0.620D-03-0.516D-03-0.616D-03 0.273D-03 0.887D-02
 Coeff-Com:  0.120D-01-0.586D-01-0.759D-01 0.167D-01 0.316D+00 0.781D+00
 Coeff:     -0.463D-03 0.620D-03-0.516D-03-0.616D-03 0.273D-03 0.887D-02
 Coeff:      0.120D-01-0.586D-01-0.759D-01 0.167D-01 0.316D+00 0.781D+00
 Gap=     0.410 Goal=   None    Shift=    0.000
 Gap=     0.357 Goal=   None    Shift=    0.000
 RMSDP=1.46D-06 MaxDP=4.68D-05 DE=-6.82D-08 OVMax= 9.43D-05

 Cycle  13  Pass 1  IDiag  1:
 E= -862.104800780762     Delta-E=       -0.000000010267 Rises=F Damp=F
 DIIS: error= 1.77D-06 at cycle  13 NSaved=  13.
 NSaved=13 IEnMin=13 EnMin= -862.104800780762     IErMin=13 ErrMin= 1.77D-06
 ErrMax= 1.77D-06  0.00D+00 EMaxC= 1.00D-01 BMatC= 3.13D-09 BMatP= 1.90D-08
 IDIUse=1 WtCom= 1.00D+00 WtEn= 0.00D+00
 Coeff-Com: -0.614D-04 0.808D-04-0.688D-04-0.184D-03-0.984D-03-0.240D-02
 Coeff-Com:  0.485D-02 0.197D-01 0.394D-02-0.106D+00-0.116D+00 0.261D+00
 Coeff-Com:  0.936D+00
 Coeff:     -0.614D-04 0.808D-04-0.688D-04-0.184D-03-0.984D-03-0.240D-02
 Coeff:      0.485D-02 0.197D-01 0.394D-02-0.106D+00-0.116D+00 0.261D+00
 Coeff:      0.936D+00
 Gap=     0.410 Goal=   None    Shift=    0.000
 Gap=     0.357 Goal=   None    Shift=    0.000
 RMSDP=6.74D-07 MaxDP=1.85D-05 DE=-1.03D-08 OVMax= 4.19D-05

 Cycle  14  Pass 1  IDiag  1:
 E= -862.104800782624     Delta-E=       -0.000000001863 Rises=F Damp=F
 DIIS: error= 5.98D-07 at cycle  14 NSaved=  14.
 NSaved=14 IEnMin=14 EnMin= -862.104800782624     IErMin=14 ErrMin= 5.98D-07
 ErrMax= 5.98D-07  0.00D+00 EMaxC= 1.00D-01 BMatC= 1.50D-10 BMatP= 3.13D-09
 IDIUse=1 WtCom= 1.00D+00 WtEn= 0.00D+00
 Coeff-Com:  0.175D-04-0.239D-04 0.140D-04 0.580D-04 0.160D-03 0.780D-04
 Coeff-Com: -0.161D-02-0.296D-03 0.376D-02 0.199D-01 0.150D-01-0.114D+00
 Coeff-Com: -0.295D+00 0.137D+01
 Coeff:      0.175D-04-0.239D-04 0.140D-04 0.580D-04 0.160D-03 0.780D-04
 Coeff:     -0.161D-02-0.296D-03 0.376D-02 0.199D-01 0.150D-01-0.114D+00
 Coeff:     -0.295D+00 0.137D+01
 Gap=     0.410 Goal=   None    Shift=    0.000
 Gap=     0.357 Goal=   None    Shift=    0.000
 RMSDP=2.34D-07 MaxDP=1.05D-05 DE=-1.86D-09 OVMax= 1.08D-05

 Cycle  15  Pass 1  IDiag  1:
 E= -862.104800782782     Delta-E=       -0.000000000157 Rises=F Damp=F
 DIIS: error= 1.38D-07 at cycle  15 NSaved=  15.
 NSaved=15 IEnMin=15 EnMin= -862.104800782782     IErMin=15 ErrMin= 1.38D-07
 ErrMax= 1.38D-07  0.00D+00 EMaxC= 1.00D-01 BMatC= 1.88D-11 BMatP= 1.50D-10
 IDIUse=1 WtCom= 1.00D+00 WtEn= 0.00D+00
 Coeff-Com:  0.108D-04-0.144D-04 0.127D-04 0.339D-04 0.111D-03 0.118D-03
 Coeff-Com: -0.812D-03-0.126D-02 0.936D-03 0.120D-01 0.112D-01-0.478D-01
 Coeff-Com: -0.137D+00 0.360D+00 0.802D+00
 Coeff:      0.108D-04-0.144D-04 0.127D-04 0.339D-04 0.111D-03 0.118D-03
 Coeff:     -0.812D-03-0.126D-02 0.936D-03 0.120D-01 0.112D-01-0.478D-01
 Coeff:     -0.137D+00 0.360D+00 0.802D+00
 Gap=     0.410 Goal=   None    Shift=    0.000
 Gap=     0.357 Goal=   None    Shift=    0.000
 RMSDP=5.11D-08 MaxDP=1.69D-06 DE=-1.57D-10 OVMax= 2.01D-06

 Cycle  16  Pass 1  IDiag  1:
 E= -862.104800782777     Delta-E=        0.000000000005 Rises=F Damp=F
 DIIS: error= 8.04D-08 at cycle  16 NSaved=  16.
 NSaved=16 IEnMin=15 EnMin= -862.104800782782     IErMin=16 ErrMin= 8.04D-08
 ErrMax= 8.04D-08  0.00D+00 EMaxC= 1.00D-01 BMatC= 7.23D-12 BMatP= 1.88D-11
 IDIUse=1 WtCom= 1.00D+00 WtEn= 0.00D+00
 Coeff-Com:  0.211D-05-0.264D-05 0.465D-05 0.521D-05 0.201D-04 0.158D-04
 Coeff-Com: -0.769D-04-0.295D-03-0.123D-03 0.796D-03 0.313D-03 0.193D-02
 Coeff-Com:  0.740D-02-0.124D+00 0.384D+00 0.731D+00
 Coeff:      0.211D-05-0.264D-05 0.465D-05 0.521D-05 0.201D-04 0.158D-04
 Coeff:     -0.769D-04-0.295D-03-0.123D-03 0.796D-03 0.313D-03 0.193D-02
 Coeff:      0.740D-02-0.124D+00 0.384D+00 0.731D+00
 Gap=     0.410 Goal=   None    Shift=    0.000
 Gap=     0.357 Goal=   None    Shift=    0.000
 RMSDP=2.36D-08 MaxDP=9.87D-07 DE= 4.55D-12 OVMax= 8.92D-07

 Cycle  17  Pass 1  IDiag  1:
 E= -862.104800782790     Delta-E=       -0.000000000013 Rises=F Damp=F
 DIIS: error= 2.27D-08 at cycle  17 NSaved=  17.
 NSaved=17 IEnMin=17 EnMin= -862.104800782790     IErMin=17 ErrMin= 2.27D-08
 ErrMax= 2.27D-08  0.00D+00 EMaxC= 1.00D-01 BMatC= 3.72D-13 BMatP= 7.23D-12
 IDIUse=1 WtCom= 1.00D+00 WtEn= 0.00D+00
 Coeff-Com: -0.606D-06 0.835D-06-0.492D-06-0.351D-05-0.105D-04-0.158D-04
 Coeff-Com:  0.927D-04 0.147D-03-0.129D-03-0.143D-02-0.160D-02 0.676D-02
 Coeff-Com:  0.204D-01-0.687D-01-0.710D-01 0.803D-01 0.104D+01
 Coeff:     -0.606D-06 0.835D-06-0.492D-06-0.351D-05-0.105D-04-0.158D-04
 Coeff:      0.927D-04 0.147D-03-0.129D-03-0.143D-02-0.160D-02 0.676D-02
 Coeff:      0.204D-01-0.687D-01-0.710D-01 0.803D-01 0.104D+01
 Gap=     0.410 Goal=   None    Shift=    0.000
 Gap=     0.357 Goal=   None    Shift=    0.000
 RMSDP=1.21D-08 MaxDP=4.79D-07 DE=-1.25D-11 OVMax= 4.33D-07

 Cycle  18  Pass 1  IDiag  1:
 E= -862.104800782784     Delta-E=        0.000000000006 Rises=F Damp=F
 DIIS: error= 8.17D-09 at cycle  18 NSaved=  18.
 NSaved=18 IEnMin=17 EnMin= -862.104800782790     IErMin=18 ErrMin= 8.17D-09
 ErrMax= 8.17D-09  0.00D+00 EMaxC= 1.00D-01 BMatC= 3.87D-14 BMatP= 3.72D-13
 IDIUse=1 WtCom= 1.00D+00 WtEn= 0.00D+00
 Coeff-Com: -0.148D-06 0.170D-06-0.564D-06-0.228D-06-0.114D-05 0.374D-05
 Coeff-Com: -0.362D-05-0.766D-05 0.233D-04 0.118D-03 0.386D-03-0.121D-02
 Coeff-Com: -0.487D-02 0.247D-01-0.272D-01-0.727D-01-0.211D+00 0.129D+01
 Coeff:     -0.148D-06 0.170D-06-0.564D-06-0.228D-06-0.114D-05 0.374D-05
 Coeff:     -0.362D-05-0.766D-05 0.233D-04 0.118D-03 0.386D-03-0.121D-02
 Coeff:     -0.487D-02 0.247D-01-0.272D-01-0.727D-01-0.211D+00 0.129D+01
 Gap=     0.410 Goal=   None    Shift=    0.000
 Gap=     0.357 Goal=   None    Shift=    0.000
 RMSDP=4.31D-09 MaxDP=1.80D-07 DE= 5.68D-12 OVMax= 1.64D-07

 SCF Done:  E(UwB97XD) =  -862.104800783     A.U. after   18 cycles
            NFock= 18  Conv=0.43D-08     -V/T= 2.0019
 <Sx>= 0.0000 <Sy>= 0.0000 <Sz>= 0.5000 <S**2>= 0.7531 S= 0.5015
 <L.S>=  0.00000000000    
 KE= 8.604687826257D+02 PE=-2.925095974501D+03 EE= 7.620886873314D+02
 Annihilation of the first spin contaminant:
 S**2 before annihilation     0.7531,   after     0.7500
 Leave Link  502 at Fri May 23 02:04:57 2025, MaxMem=  3758096384 cpu:              41.5 elap:               8.1
 (Enter /apps/easybuild-2022/easybuild/software/Compiler/NVHPC/22.11-CUDA-11.7.0/Gaussian/g16c01-CUDA-11.7.0/g16/l508.exe)
 QCSCF skips out because SCF is already converged.
 Leave Link  508 at Fri May 23 02:04:57 2025, MaxMem=  3758096384 cpu:               0.0 elap:               0.0
 (Enter /apps/easybuild-2022/easybuild/software/Compiler/NVHPC/22.11-CUDA-11.7.0/Gaussian/g16c01-CUDA-11.7.0/g16/l801.exe)
 DoSCS=F DFT=T ScalE2(SS,OS)=  1.000000  1.000000
 Range of M.O.s used for correlation:     1   169
 NBasis=   169 NAE=    33 NBE=    32 NFC=     0 NFV=     0
 NROrb=    169 NOA=    33 NOB=    32 NVA=   136 NVB=   137

 **** Warning!!: The largest alpha MO coefficient is  0.19507582D+02


 **** Warning!!: The largest beta MO coefficient is  0.18452234D+02

 Leave Link  801 at Fri May 23 02:04:57 2025, MaxMem=  3758096384 cpu:               0.1 elap:               0.0
 (Enter /apps/easybuild-2022/easybuild/software/Compiler/NVHPC/22.11-CUDA-11.7.0/Gaussian/g16c01-CUDA-11.7.0/g16/l1101.exe)
 Using compressed storage, NAtomX=     8.
 Will process      9 centers per pass.
 R6Disp: Adding Grimme-D2 dispersion energy 1st derivatives to the gradient.
 Leave Link 1101 at Fri May 23 02:04:57 2025, MaxMem=  3758096384 cpu:               0.5 elap:               0.1
 (Enter /apps/easybuild-2022/easybuild/software/Compiler/NVHPC/22.11-CUDA-11.7.0/Gaussian/g16c01-CUDA-11.7.0/g16/l1102.exe)
 Symmetrizing basis deriv contribution to polar:
 IMax=3 JMax=2 DiffMx= 0.00D+00
 Leave Link 1102 at Fri May 23 02:04:57 2025, MaxMem=  3758096384 cpu:               0.1 elap:               0.0
 (Enter /apps/easybuild-2022/easybuild/software/Compiler/NVHPC/22.11-CUDA-11.7.0/Gaussian/g16c01-CUDA-11.7.0/g16/l1110.exe)
 Forming Gx(P) for the SCF density, NAtomX=     8.
 Integral derivatives from FoFJK, PRISM(SPDF).
 Do as many integral derivatives as possible in FoFJK.
 G2DrvN: MDV=    3758095424.
 G2DrvN: will do     9 centers at a time, making    1 passes.
 Calling FoFCou, ICntrl=  3107 FMM=F I1Cent=   0 AccDes= 0.00D+00.
 FoFJK:  IHMeth= 1 ICntrl=    3107 DoSepK=T KAlg= 0 I1Cent=           0 FoldK=F
 IRaf=         1 NMat=       1 IRICut=       1 DoRegI=T DoRafI=F ISym2E= 0 IDoP0=0 IntGTp=1.
 FoFCou: FMM=F IPFlag=           0 FMFlag=      100000 FMFlg1=           0
         NFxFlg=           0 DoJE=F BraDBF=F KetDBF=F FulRan=T
         wScrn=  0.000000 ICntrl=      3507 IOpCl=  0 I1Cent=           0 NGrid=           0
         NMat0=    1 NMatS0=      1 NMatT0=    0 NMatD0=    1 NMtDS0=    0 NMtDT0=    0
 Symmetry not used in FoFCou.
 End of G2Drv F.D. properties file   721 does not exist.
 End of G2Drv F.D. properties file   722 does not exist.
 End of G2Drv F.D. properties file   788 does not exist.
 Leave Link 1110 at Fri May 23 02:05:03 2025, MaxMem=  3758096384 cpu:              41.6 elap:               5.3
 (Enter /apps/easybuild-2022/easybuild/software/Compiler/NVHPC/22.11-CUDA-11.7.0/Gaussian/g16c01-CUDA-11.7.0/g16/l1002.exe)
 Minotr:  UHF open shell wavefunction.
          IDoAtm=11111111
          Direct CPHF calculation.
          Differentiating once with respect to nuclear coordinates.
          Requested convergence is 1.0D-08 RMS, and 1.0D-07 maximum.
          Secondary convergence is 1.0D-12 RMS, and 1.0D-12 maximum.
          NewPWx=T KeepS1=F KeepF1=F KeepIn=T MapXYZ=F SortEE=F KeepMc=T.
         2469 words used for storage of precomputed grid.
 Keep R1 and R2 ints in memory in canonical form, NReq=423214518.
 FoFCou: FMM=F IPFlag=           0 FMFlag=           0 FMFlg1=           0
         NFxFlg=           0 DoJE=F BraDBF=F KetDBF=F FulRan=T
         wScrn=  0.000000 ICntrl=       600 IOpCl=  0 I1Cent=           0 NGrid=           0
         NMat0=    1 NMatS0=  14365 NMatT0=    0 NMatD0=    1 NMtDS0=    0 NMtDT0=    0
 Symmetry not used in FoFCou.
 Two-electron integral symmetry not used.
          MDV=    3758096384 using IRadAn=       1.
          Solving linear equations simultaneously, MaxMat=       0.
          There are    27 degrees of freedom in the 1st order CPHF.  IDoFFX=6 NUNeed=     0.
     21 vectors produced by pass  0 Test12= 3.29D-14 3.70D-09 XBig12= 5.40D-01 8.08D-02.
 AX will form    21 AO Fock derivatives at one time.
     21 vectors produced by pass  1 Test12= 3.29D-14 3.70D-09 XBig12= 2.84D-02 4.67D-02.
     21 vectors produced by pass  2 Test12= 3.29D-14 3.70D-09 XBig12= 3.62D-03 1.20D-02.
     21 vectors produced by pass  3 Test12= 3.29D-14 3.70D-09 XBig12= 1.39D-04 5.03D-03.
     21 vectors produced by pass  4 Test12= 3.29D-14 3.70D-09 XBig12= 3.43D-06 7.22D-04.
     21 vectors produced by pass  5 Test12= 3.29D-14 3.70D-09 XBig12= 5.69D-08 5.54D-05.
     21 vectors produced by pass  6 Test12= 3.29D-14 3.70D-09 XBig12= 7.30D-10 3.73D-06.
     21 vectors produced by pass  7 Test12= 3.29D-14 3.70D-09 XBig12= 8.23D-12 3.96D-07.
     12 vectors produced by pass  8 Test12= 3.29D-14 3.70D-09 XBig12= 1.02D-13 3.65D-08.
 InvSVY:  IOpt=1 It=  1 EMax= 1.55D-15
 Solved reduced A of dimension   180 with    21 vectors.
 End of Minotr F.D. properties file   721 does not exist.
 End of Minotr F.D. properties file   722 does not exist.
 End of Minotr F.D. properties file   788 does not exist.
 Leave Link 1002 at Fri May 23 02:05:14 2025, MaxMem=  3758096384 cpu:              84.4 elap:              11.0
 (Enter /apps/easybuild-2022/easybuild/software/Compiler/NVHPC/22.11-CUDA-11.7.0/Gaussian/g16c01-CUDA-11.7.0/g16/l701.exe)
 ... and contract with generalized density number  0.
 Compute integral second derivatives.
 R6Disp: Adding Grimme-D2 dispersion energy 2nd derivatives to the Hessian.
 Leave Link  701 at Fri May 23 02:05:14 2025, MaxMem=  3758096384 cpu:               0.5 elap:               0.2
 (Enter /apps/easybuild-2022/easybuild/software/Compiler/NVHPC/22.11-CUDA-11.7.0/Gaussian/g16c01-CUDA-11.7.0/g16/l702.exe)
 L702 exits ... SP integral derivatives will be done elsewhere.
 Leave Link  702 at Fri May 23 02:05:14 2025, MaxMem=  3758096384 cpu:               0.1 elap:               0.1
 (Enter /apps/easybuild-2022/easybuild/software/Compiler/NVHPC/22.11-CUDA-11.7.0/Gaussian/g16c01-CUDA-11.7.0/g16/l703.exe)
 Integral derivatives from FoFJK, PRISM(SPDF).
 Compute integral second derivatives, UseDBF=F ICtDFT=           0.
 Calling FoFJK, ICntrl=    100127 FMM=F ISym2X=0 I1Cent= 0 IOpClX= 1 NMat=1 NMatS=1 NMatT=0.
 FoFJK:  IHMeth= 1 ICntrl=  100127 DoSepK=T KAlg= 0 I1Cent=           0 FoldK=F
 IRaf=         1 NMat=       1 IRICut=       1 DoRegI=T DoRafI=F ISym2E= 0 IDoP0=0 IntGTp=1.
 FoFCou: FMM=F IPFlag=           0 FMFlag=      100000 FMFlg1=         800
         NFxFlg=           0 DoJE=F BraDBF=F KetDBF=F FulRan=T
         wScrn=  0.000000 ICntrl=    100527 IOpCl=  0 I1Cent=           0 NGrid=           0
         NMat0=    1 NMatS0=      1 NMatT0=    0 NMatD0=    1 NMtDS0=    0 NMtDT0=    0
 Symmetry not used in FoFCou.
 Leave Link  703 at Fri May 23 02:05:25 2025, MaxMem=  3758096384 cpu:              84.7 elap:              11.0
 (Enter /apps/easybuild-2022/easybuild/software/Compiler/NVHPC/22.11-CUDA-11.7.0/Gaussian/g16c01-CUDA-11.7.0/g16/l716.exe)
 Dipole        =-4.99946448D-01 9.29160572D-01 7.59471270D-01
 Polarizability= 0.00000000D+00 0.00000000D+00 0.00000000D+00
                 0.00000000D+00 0.00000000D+00 0.00000000D+00
 -------------------------------------------------------------------
 Center     Atomic                   Forces (Hartrees/Bohr)
 Number     Number              X              Y              Z
 -------------------------------------------------------------------
      1        6           0.011716610   -0.006983514   -0.033216653
      2        9          -0.003700177    0.013686547    0.011273387
      3        9          -0.004074318   -0.006571447    0.014285206
      4       16          -0.009038049   -0.000924999    0.011216892
      5        8           0.001302162    0.000768042   -0.000852203
      6        8           0.003763823   -0.000624794   -0.003774022
      7        8          -0.000566926    0.001227319    0.001538362
      8        1           0.000596875   -0.000577154   -0.000470969
 -------------------------------------------------------------------
 Cartesian Forces:  Max     0.033216653 RMS     0.009413256
 Force constants in Cartesian coordinates: 
                1             2             3             4             5 
      1  0.280068D+00
      2  0.197178D-01  0.431238D+00
      3  0.117839D+00 -0.185105D-01  0.345264D+00
      4 -0.813156D-01 -0.621951D-01 -0.291880D-01  0.819558D-01
      5 -0.741365D-01 -0.259503D+00 -0.767961D-01  0.839964D-01  0.346901D+00
      6 -0.519995D-01 -0.849326D-01 -0.894863D-01  0.357302D-01  0.551164D-01
      7 -0.948441D-01  0.477183D-01 -0.719471D-01  0.148200D-01  0.455399D-02
      8  0.477620D-01 -0.132664D+00  0.100935D+00  0.121243D-01 -0.721201D-01
      9 -0.976522D-01  0.104662D+00 -0.198643D+00  0.753678D-02  0.240005D-01
     10 -0.119672D+00 -0.122429D-01 -0.368722D-01 -0.361224D-02  0.366592D-02
     11  0.592587D-03 -0.220472D-01 -0.123299D-01 -0.340259D-01 -0.253413D-01
     12  0.366420D-01 -0.460350D-02 -0.471504D-01 -0.133133D-01 -0.320193D-02
     13  0.133452D-01  0.142545D-01 -0.152519D-01 -0.414727D-02 -0.629095D-02
     14 -0.428937D-02  0.162588D-03  0.531223D-02  0.442425D-02  0.611497D-02
     15  0.791930D-02  0.100760D-01 -0.279954D-04 -0.222584D-02 -0.630380D-02
     16 -0.548153D-02  0.107761D-01  0.336690D-01  0.802355D-03 -0.546041D-02
     17 -0.155233D-02 -0.122174D-02 -0.716249D-02  0.152512D-02  0.664782D-02
     18 -0.822262D-02 -0.758497D-02 -0.161286D-01  0.109525D-03  0.695169D-02
     19  0.875249D-02 -0.154583D-01  0.117478D-02 -0.813077D-02 -0.674704D-02
     20  0.139533D-01 -0.153523D-01  0.783775D-02 -0.644879D-02 -0.327066D-02
     21 -0.362232D-02 -0.648052D-04  0.700972D-02  0.103165D-03 -0.920140D-03
     22 -0.852004D-03 -0.257041D-02  0.576581D-03 -0.372208D-03  0.418640D-03
     23 -0.204745D-02 -0.612943D-03  0.714045D-03  0.599761D-03  0.571571D-03
     24 -0.903557D-03  0.958275D-03 -0.836763D-03  0.124750D-02  0.115334D-02
                6             7             8             9            10 
      6  0.613527D-01
      7  0.954339D-02  0.102622D+00
      8  0.325720D-01 -0.717015D-01  0.208719D+00
      9  0.211465D-01  0.945705D-01 -0.139658D+00  0.178298D+00
     10  0.155386D-01 -0.840147D-02  0.561606D-02  0.118528D-01  0.500010D+00
     11 -0.639971D-02  0.237803D-01 -0.136039D-01  0.199649D-01 -0.870080D-01
     12  0.339344D-02 -0.335407D-01  0.110655D-01 -0.842821D-02  0.814971D-02
     13 -0.187214D-02 -0.123126D-01  0.419204D-02 -0.737713D-02 -0.156711D+00
     14  0.139447D-02  0.101911D-02  0.993851D-03 -0.628852D-03  0.691247D-01
     15 -0.176004D-02 -0.429473D-02  0.123689D-02 -0.171007D-02 -0.157491D+00
     16 -0.450741D-02  0.580103D-04  0.272099D-02 -0.712916D-02 -0.140971D+00
     17  0.329921D-02 -0.186588D-02  0.143989D-02 -0.289608D-03  0.561921D-01
     18  0.493763D-02  0.407596D-02 -0.465541D-02  0.886337D-02  0.159458D+00
     19 -0.273509D-02 -0.168554D-02 -0.125261D-02 -0.121193D-02 -0.715018D-01
     20 -0.139362D-02 -0.480251D-02  0.760759D-02 -0.849046D-02 -0.321788D-01
     21 -0.114882D-03  0.135003D-02 -0.150434D-02 -0.367095D-04 -0.210506D-02
     22  0.301991D-03 -0.256304D-03  0.538734D-03 -0.589686D-03  0.859191D-03
     23  0.343876D-03  0.129817D-02 -0.372691D-03  0.439096D-03 -0.316911D-02
     24  0.531051D-03  0.242636D-03  0.804759D-05  0.510420D-03  0.146904D-02
               11            12            13            14            15 
     11  0.613953D+00
     12  0.581013D-02  0.120299D+01
     13  0.730241D-01 -0.165252D+00  0.124394D+00
     14 -0.165378D+00  0.180239D+00 -0.834756D-01  0.158343D+00
     15  0.178874D+00 -0.498117D+00  0.175496D+00 -0.208401D+00  0.517627D+00
     16  0.598305D-01  0.169273D+00  0.212703D-01  0.683738D-03 -0.163016D-01
     17 -0.134036D+00 -0.165383D+00  0.284394D-04  0.144198D-01  0.162174D-01
     18 -0.166452D+00 -0.563102D+00  0.138445D-01 -0.150365D-01 -0.175985D-01
     19 -0.324265D-01 -0.121579D-03  0.166508D-01  0.121300D-01 -0.149788D-02
     20 -0.231377D+00  0.173095D-01 -0.219219D-02 -0.208556D-01  0.539409D-02
     21 -0.157605D-01 -0.917479D-01  0.971631D-03  0.329380D-01  0.505429D-02
     22 -0.376709D-02 -0.183723D-02 -0.249018D-02  0.383176D-03 -0.160413D-02
     23 -0.221698D-01 -0.412356D-01  0.459740D-03  0.619933D-02  0.290628D-02
     24 -0.370667D-02  0.215939D-02 -0.558525D-03  0.418243D-02 -0.346732D-02
               16            17            18            19            20 
     16  0.110720D+00
     17 -0.645096D-01  0.132613D+00
     18 -0.172476D+00  0.192450D+00  0.585577D+00
     19  0.118375D-01  0.782550D-02  0.229153D-02  0.489044D-01
     20 -0.360380D-02 -0.138607D-01 -0.561525D-02  0.459632D-01  0.359286D+00
     21 -0.201010D-02 -0.422997D-01 -0.646064D-02  0.205690D-01  0.153354D+00
     22  0.176363D-02  0.235673D-02  0.919006D-03 -0.482703D-02 -0.106904D-01
     23 -0.437474D-03 -0.600226D-02 -0.570305D-04 -0.100343D-01 -0.821768D-01
     24 -0.518070D-03  0.316878D-02  0.391151D-02 -0.184688D-01 -0.168396D+00
               21            22            23            24 
     21  0.552875D+00
     22 -0.152563D-01  0.617490D-02
     23 -0.125742D+00  0.133306D-01  0.104564D+00
     24 -0.466579D+00  0.174898D-01  0.162631D+00  0.463771D+00
 FormGI is forming the generalized inverse of G from B-inverse, IUseBI=4.
 Force constants in internal coordinates: 
                1             2             3             4             5 
      1  0.381591D+00
      2  0.597922D-01  0.380908D+00
      3  0.166484D-01  0.175033D-01  0.142416D+00
      4  0.111096D-01  0.655150D-02 -0.656810D-04  0.680832D+00
      5  0.112033D-01  0.107148D-01 -0.303632D-02 -0.528655D-03  0.712732D+00
      6  0.535004D-02  0.114474D-01 -0.145048D-02  0.116998D-01  0.100223D-01
      7 -0.171887D-02 -0.711379D-03 -0.538026D-03 -0.451179D-02 -0.374866D-02
      8  0.139897D-01  0.146228D-01 -0.117557D-01 -0.532319D-02 -0.785436D-03
      9  0.361760D-01 -0.239889D-01  0.287954D-01  0.337778D-02 -0.676858D-02
     10 -0.233330D-01  0.348614D-01  0.356755D-01  0.134486D-01 -0.162528D-02
     11 -0.346900D-04  0.167406D-01  0.172866D-03  0.106384D-01 -0.833885D-02
     12 -0.163722D-02  0.266269D-02  0.482747D-02 -0.105176D-01  0.701060D-02
     13  0.181835D-01 -0.697294D-02  0.781980D-02 -0.110079D-01 -0.855416D-02
     14 -0.514555D-02 -0.371768D-02 -0.389540D-02  0.247899D-02  0.466876D-02
     15 -0.323894D-02 -0.427090D-02 -0.293075D-02  0.129803D-01 -0.827223D-02
     16 -0.270104D-02 -0.502025D-02 -0.309593D-02 -0.822782D-02  0.108211D-01
     17 -0.420252D-03 -0.120943D-02  0.111088D-02  0.295172D-02  0.569968D-02
     18  0.152305D-01  0.829155D-02  0.119631D-01  0.494742D-02 -0.983531D-02
     19  0.748315D-02  0.174915D-01  0.106487D-01  0.806941D-02 -0.478409D-02
     20  0.109884D-01  0.101994D-01  0.117721D-01 -0.834224D-02  0.588114D-02
     21 -0.831564D-02 -0.141041D-01 -0.793939D-02  0.245586D-02 -0.448612D-02
     22 -0.160630D-01 -0.490415D-02 -0.925378D-02  0.557786D-02  0.565103D-03
     23 -0.125578D-01 -0.121963D-01 -0.813036D-02 -0.108338D-01  0.112303D-01
     24  0.750748D-03  0.567176D-02 -0.659544D-03  0.852765D-02 -0.869923D-02
     25 -0.648250D-02 -0.830739D-02 -0.343987D-02 -0.282669D-02  0.747939D-02
     26  0.524768D-02  0.427867D-02  0.670067D-02 -0.981031D-02 -0.103847D-02
                6             7             8             9            10 
      6  0.305434D+00
      7  0.240910D-02  0.527128D+00
      8 -0.369663D-02  0.107630D-02  0.104400D+00
      9  0.129085D-01 -0.195025D-02 -0.876592D-01  0.210265D+00
     10 -0.220583D-02 -0.677205D-03 -0.904194D-01  0.212779D-01  0.217071D+00
     11 -0.104698D-01  0.211047D-02 -0.704840D-02 -0.222512D-02  0.260936D-01
     12 -0.122653D-01  0.136157D-02  0.637616D-02 -0.139012D-01 -0.140636D-01
     13  0.173301D-01 -0.149709D-02 -0.111968D-01  0.324017D-01 -0.111402D-02
     14 -0.419873D-02  0.852668D-03  0.176721D-02  0.340700D-03 -0.271194D-02
     15  0.109635D-02 -0.535049D-02  0.396315D-02 -0.330980D-02 -0.670840D-02
     16  0.127798D-01  0.219800D-02  0.309328D-02 -0.582703D-02 -0.128688D-02
     17  0.431634D-01  0.177769D-01  0.988166D-03  0.361418D-03 -0.375922D-02
     18  0.958598D-02 -0.321394D-02  0.125013D-01  0.174460D-01  0.849908D-02
     19 -0.121524D-01  0.368907D-03  0.143315D-01  0.618516D-02  0.135190D-01
     20  0.454627D-02  0.260773D-02  0.153937D-01  0.791892D-02  0.732819D-02
     21  0.820874D-02 -0.309138D-02 -0.166980D-01 -0.233880D-02 -0.881144D-02
     22 -0.135297D-01  0.491474D-03 -0.148677D-01 -0.135997D-01 -0.379147D-02
     23  0.316903D-02  0.273030D-02 -0.138055D-01 -0.118659D-01 -0.998233D-02
     24 -0.427286D-03 -0.340750D-03 -0.524658D-02  0.587187D-02  0.142067D-01
     25  0.287042D-02 -0.127082D-03  0.641491D-02 -0.546491D-02 -0.120759D-01
     26 -0.302604D-02  0.124146D-02 -0.171959D-02  0.159805D-02 -0.195845D-02
               11            12            13            14            15 
     11  0.982265D-01
     12  0.686489D-03  0.969945D-01
     13 -0.235465D-01 -0.197355D-01  0.180752D+00
     14 -0.341558D-01 -0.335795D-01  0.997598D-02  0.657266D-01
     15 -0.332370D-01 -0.510664D-02 -0.542525D-01 -0.914568D-02  0.916504D-01
     16 -0.545590D-02 -0.340617D-01 -0.498493D-01 -0.949584D-02 -0.449815D-02
     17 -0.760693D-03 -0.302973D-02  0.387252D-02  0.115948D-02 -0.158975D-01
     18 -0.108034D-01 -0.178760D-01  0.118461D-01 -0.172211D-01  0.343218D-01
     19  0.166548D-01  0.104565D-01 -0.668561D-02  0.173754D-01 -0.479606D-02
     20  0.194260D-02 -0.397396D-02  0.209439D-02  0.443300D-03 -0.319999D-01
     21 -0.148245D-01 -0.107191D-01  0.835478D-02 -0.180737D-01  0.348939D-01
     22  0.126337D-01  0.176135D-01 -0.101769D-01  0.165228D-01 -0.422394D-02
     23 -0.207853D-02  0.318294D-02 -0.139689D-02 -0.409314D-03 -0.314278D-01
     24  0.310814D-01 -0.314648D-01  0.368146D-02 -0.632339D-04  0.578692D-03
     25 -0.561020D-01 -0.213108D-01 -0.345505D-01  0.366973D-01  0.306143D-01
     26  0.209066D-01  0.559089D-01  0.374470D-01 -0.357116D-01 -0.276395D-01
               16            17            18            19            20 
     16  0.908145D-01
     17  0.155456D-01  0.142410D+00
     18  0.400547D-02 -0.506578D-02  0.419122D-01
     19 -0.367055D-01 -0.633963D-02 -0.675219D-03  0.409065D-01
     20  0.323382D-01  0.110894D-01  0.265249D-02  0.171870D-02  0.364201D-01
     21  0.413532D-02 -0.447618D-02  0.136239D-01 -0.277249D-01 -0.233679D-01
     22 -0.365756D-01 -0.575003D-02 -0.289636D-01  0.138568D-01 -0.243017D-01
     23  0.324681D-01  0.116790D-01 -0.256359D-01 -0.253310D-01  0.103998D-01
     24 -0.364817D-02 -0.110070D-02  0.700449D-02  0.631493D-02 -0.601235D-02
     25  0.270823D-01  0.354202D-02  0.154127D-02 -0.751674D-02  0.208811D-02
     26 -0.320106D-01  0.195643D-02 -0.659063D-02  0.365924D-02  0.549921D-03
               21            22            23            24            25 
     21  0.389779D-01
     22 -0.237086D-02  0.404496D-01
     23  0.198619D-02  0.229107D-02  0.380218D-01
     24  0.270911D-02  0.201955D-02 -0.103077D-01  0.244658D-01
     25  0.315239D-02 -0.590561D-02  0.369924D-02 -0.121670D-01  0.557415D-01
     26 -0.441284D-02  0.583703D-02  0.272771D-02 -0.952198D-02 -0.404915D-01
               26 
     26  0.561104D-01
 Leave Link  716 at Fri May 23 02:05:25 2025, MaxMem=  3758096384 cpu:               0.1 elap:               0.1
 (Enter /apps/easybuild-2022/easybuild/software/Compiler/NVHPC/22.11-CUDA-11.7.0/Gaussian/g16c01-CUDA-11.7.0/g16/l103.exe)

 GradGradGradGradGradGradGradGradGradGradGradGradGradGradGradGradGradGrad
 Berny optimization.
 Red2BG is reusing G-inverse.
 Internal  Forces:  Max     0.019827427 RMS     0.007373896
 Search for a local minimum.
 Step number   1 out of a maximum of   36
 All quantities printed in internal units (Hartrees-Bohrs-Radians)
 RMS Force = .73739D-02 SwitMx=.10000D-02 MixMth= 1
 Mixed Optimization -- RFO/linear search
 Second derivative matrix not updated -- analytic derivatives used.
 ITU=  0
     Eigenvalues ---    0.00199   0.00348   0.08283   0.11300   0.12529
     Eigenvalues ---    0.13508   0.14397   0.15988   0.17994   0.20044
     Eigenvalues ---    0.25898   0.32288   0.33884   0.35473   0.45254
     Eigenvalues ---    0.52817   0.68473   0.71558
 RFO step:  Lambda=-8.11647619D-03 EMin= 1.99070759D-03
 Linear search not attempted -- first point.
 Iteration  1 RMS(Cart)=  0.06914468 RMS(Int)=  0.00675630
 Iteration  2 RMS(Cart)=  0.00620051 RMS(Int)=  0.00307883
 Iteration  3 RMS(Cart)=  0.00002768 RMS(Int)=  0.00307877
 Iteration  4 RMS(Cart)=  0.00000030 RMS(Int)=  0.00307877
 ITry= 1 IFail=0 DXMaxC= 2.00D-01 DCOld= 1.00D+10 DXMaxT= 3.00D-01 DXLimC= 3.00D+00 Rises=F
 Variable       Old X    -DE/DX   Delta X   Delta X   Delta X     New X
                                 (Linear)    (Quad)   (Total)
    R1        2.51820  -0.01478   0.00000  -0.04271  -0.04271   2.47548
    R2        2.51750  -0.01261   0.00000  -0.04098  -0.04098   2.47652
    R3        3.54892  -0.00398   0.00000  -0.08783  -0.08783   3.46109
    R4        2.71494  -0.00061   0.00000  -0.00105  -0.00105   2.71389
    R5        2.69666   0.00469   0.00000   0.00873   0.00873   2.70540
    R6        3.02479   0.00066   0.00000   0.00422   0.00422   3.02901
    R7        1.82625  -0.00062   0.00000  -0.00131  -0.00131   1.82493
    A1        1.91213  -0.00538   0.00000   0.03952   0.02866   1.94079
    A2        1.86514   0.01694   0.00000   0.08433   0.07771   1.94286
    A3        1.88712   0.01983   0.00000   0.09891   0.09247   1.97959
    A4        1.87618   0.00190   0.00000  -0.01209  -0.01230   1.86388
    A5        1.85295   0.00333   0.00000   0.04555   0.04553   1.89848
    A6        1.75429  -0.00165   0.00000  -0.02009  -0.02014   1.73416
    A7        2.16295  -0.00149   0.00000  -0.00964  -0.00976   2.15319
    A8        1.91059  -0.00153   0.00000  -0.00623  -0.00647   1.90412
    A9        1.86355  -0.00051   0.00000   0.00099   0.00116   1.86471
   A10        1.92766  -0.00054   0.00000  -0.00509  -0.00509   1.92257
    D1       -1.41070   0.00602   0.00000   0.13169   0.13443  -1.27627
    D2        0.93649   0.00791   0.00000   0.14389   0.14669   1.08318
    D3        2.87492   0.00776   0.00000   0.15142   0.15392   3.02884
    D4        2.81549  -0.00690   0.00000  -0.01038  -0.01300   2.80249
    D5       -1.12051  -0.00500   0.00000   0.00182  -0.00074  -1.12124
    D6        0.81792  -0.00515   0.00000   0.00935   0.00650   0.82441
    D7        1.55460  -0.00029   0.00000   0.00907   0.00914   1.56374
    D8       -0.41677  -0.00111   0.00000   0.03407   0.03400  -0.38276
    D9       -2.79840   0.00253   0.00000   0.05115   0.05115  -2.74725
         Item               Value     Threshold  Converged?
 Maximum Force            0.019827     0.000015     NO 
 RMS     Force            0.007374     0.000010     NO 
 Maximum Displacement     0.200036     0.000060     NO 
 RMS     Displacement     0.068827     0.000040     NO 
 Predicted change in Energy=-4.449561D-03
 Lowest energy point so far.  Saving SCF results.
 GradGradGradGradGradGradGradGradGradGradGradGradGradGradGradGradGradGrad

 Leave Link  103 at Fri May 23 02:05:25 2025, MaxMem=  3758096384 cpu:               0.1 elap:               0.1
 (Enter /apps/easybuild-2022/easybuild/software/Compiler/NVHPC/22.11-CUDA-11.7.0/Gaussian/g16c01-CUDA-11.7.0/g16/l202.exe)
                          Input orientation:                          
 ---------------------------------------------------------------------
 Center     Atomic      Atomic             Coordinates (Angstroms)
 Number     Number       Type             X           Y           Z
 ---------------------------------------------------------------------
      1          6           0       -0.005622   -0.039130   -0.096238
      2          9           0       -0.429632   -1.265572   -0.275330
      3          9           0       -0.552274    0.782012   -0.958993
      4         16           0        1.824244    0.036696   -0.077615
      5          8           0        2.250262   -0.529044    1.171750
      6          8           0        2.316507   -0.400858   -1.348756
      7          8           0        2.018750    1.626919   -0.026692
      8          1           0        2.044723    1.929788    0.889931
 ---------------------------------------------------------------------
                    Distance matrix (angstroms):
                    1          2          3          4          5
     1  C    0.000000
     2  F    1.309969   0.000000
     3  F    1.310515   2.162183   0.000000
     4  S    1.831531   2.610546   2.642000   0.000000
     5  O    2.633784   3.133424   3.756746   1.436128   0.000000
     6  O    2.663068   3.072662   3.127460   1.431634   2.524632
     7  O    2.622715   3.797749   2.862380   1.602883   2.477506
     8  H    3.008834   4.206019   3.388260   2.137418   2.483450
                    6          7          8
     6  O    0.000000
     7  O    2.438933   0.000000
     8  H    3.243069   0.965713   0.000000
 Symmetry turned off by external request.
 Stoichiometry    CHF2O3S
 Rotational constants (GHZ):           3.4349783           2.0104402           1.7164258
 Leave Link  202 at Fri May 23 02:05:25 2025, MaxMem=  3758096384 cpu:               0.1 elap:               0.0
 (Enter /apps/easybuild-2022/easybuild/software/Compiler/NVHPC/22.11-CUDA-11.7.0/Gaussian/g16c01-CUDA-11.7.0/g16/l301.exe)
 Standard basis: 6-311++G(d,p) (5D, 7F)
 Ernie: Thresh=  0.10000D-02 Tol=  0.10000D-05 Strict=F.
   169 basis functions,   275 primitive gaussians,   176 cartesian basis functions
    33 alpha electrons       32 beta electrons
       nuclear repulsion energy       440.9610017236 Hartrees.
 IExCor= 4639 DFT=T Ex+Corr=wB97XD ExCW=0 ScaHFX=  1.000000
 ScaDFX=  1.000000  1.000000  1.000000  1.000000 ScalE2=  1.000000  1.000000
 IRadAn=      5 IRanWt=     -1 IRanGd=            0 ICorTp=0 IEmpDi=121
 HFx  wShort=  0.000000 wLong=  0.200000 cFull=  0.222036 cShort=  0.000000 cLong=  0.777964
 DFx  wShort=  0.000000 wLong=  0.200000 cFull=  0.000000 cShort=  0.000000 cLong=  1.000000
 NAtoms=    8 NActive=    8 NUniq=    8 SFac= 1.00D+00 NAtFMM=   60 NAOKFM=F Big=F
 Integral buffers will be    131072 words long.
 Raffenetti 2 integral format.
 Two-electron integral symmetry is turned off.
 R6Disp:  Grimme-D2 Dispersion energy=       -0.0021173237 Hartrees.
 Nuclear repulsion after empirical dispersion term =      440.9588843999 Hartrees.
 Leave Link  301 at Fri May 23 02:05:25 2025, MaxMem=  3758096384 cpu:               0.1 elap:               0.1
 (Enter /apps/easybuild-2022/easybuild/software/Compiler/NVHPC/22.11-CUDA-11.7.0/Gaussian/g16c01-CUDA-11.7.0/g16/l302.exe)
 NPDir=0 NMtPBC=     1 NCelOv=     1 NCel=       1 NClECP=     1 NCelD=      1
         NCelK=      1 NCelE2=     1 NClLst=     1 CellRange=     0.0.
 One-electron integrals computed using PRISM.
 NBasis=   169 RedAO= T EigKep=  2.15D-04  NBF=   169
 NBsUse=   169 1.00D-06 EigRej= -1.00D+00 NBFU=   169
 Precomputing XC quadrature grid using
 IXCGrd= 4 IRadAn=           5 IRanWt=          -1 IRanGd=           0 AccXCQ= 0.00D+00.
 Generated NRdTot=       0 NPtTot=           0 NUsed=           0 NTot=          32
 NSgBfM=   176   176   176   176   176 MxSgAt=     8 MxSgA2=     8.
 Leave Link  302 at Fri May 23 02:05:25 2025, MaxMem=  3758096384 cpu:               0.5 elap:               0.2
 (Enter /apps/easybuild-2022/easybuild/software/Compiler/NVHPC/22.11-CUDA-11.7.0/Gaussian/g16c01-CUDA-11.7.0/g16/l303.exe)
 DipDrv:  MaxL=1.
 Leave Link  303 at Fri May 23 02:05:25 2025, MaxMem=  3758096384 cpu:               0.1 elap:               0.1
 (Enter /apps/easybuild-2022/easybuild/software/Compiler/NVHPC/22.11-CUDA-11.7.0/Gaussian/g16c01-CUDA-11.7.0/g16/l401.exe)
 Initial guess from the checkpoint file:  "1312673532570400000002_well.chk"
 B after Tr=     0.002886    0.012043    0.008130
         Rot=    0.999989    0.003575   -0.002809    0.001117 Ang=   0.54 deg.
 Guess basis will be translated and rotated to current coordinates.
 JPrj=2 DoOrth=T DoCkMO=T.
 Initial guess <Sx>= 0.0000 <Sy>= 0.0000 <Sz>= 0.5000 <S**2>= 0.7531 S= 0.5015
 Generating alternative initial guess.
 ExpMin= 3.60D-02 ExpMax= 9.34D+04 ExpMxC= 3.17D+03 IAcc=3 IRadAn=         5 AccDes= 0.00D+00
 Harris functional with IExCor= 4639 and IRadAn=       5 diagonalized for initial guess.
 HarFok:  IExCor= 4639 AccDes= 0.00D+00 IRadAn=         5 IDoV= 1 UseB2=F ITyADJ=14
 ICtDFT=  3500011 ScaDFX=  1.000000  1.000000  1.000000  1.000000
 FoFCou: FMM=F IPFlag=           0 FMFlag=      100000 FMFlg1=           0
         NFxFlg=           0 DoJE=T BraDBF=F KetDBF=T FulRan=T
         wScrn=  0.000000 ICntrl=       500 IOpCl=  0 I1Cent=   200000004 NGrid=           0
         NMat0=    1 NMatS0=      1 NMatT0=    0 NMatD0=    1 NMtDS0=    0 NMtDT0=    0
 Symmetry not used in FoFCou.
 Harris En= -839.988609722712    
 Leave Link  401 at Fri May 23 02:05:26 2025, MaxMem=  3758096384 cpu:               1.6 elap:               0.4
 (Enter /apps/easybuild-2022/easybuild/software/Compiler/NVHPC/22.11-CUDA-11.7.0/Gaussian/g16c01-CUDA-11.7.0/g16/l502.exe)
 Keep R1 and R2 ints in memory in canonical form, NReq=423234435.
 FoFCou: FMM=F IPFlag=           0 FMFlag=           0 FMFlg1=           0
         NFxFlg=           0 DoJE=F BraDBF=F KetDBF=F FulRan=T
         wScrn=  0.000000 ICntrl=       600 IOpCl=  0 I1Cent=           0 NGrid=           0
         NMat0=    1 NMatS0=  14365 NMatT0=    0 NMatD0=    1 NMtDS0=    0 NMtDT0=    0
 Symmetry not used in FoFCou.
 Two-electron integral symmetry not used.
 UHF open shell SCF:
 Using DIIS extrapolation, IDIIS=  1040.
 NGot=  3758096384 LenX=  3345296366 LenY=  3345264949
 Requested convergence on RMS density matrix=1.00D-08 within  32 cycles.
 Requested convergence on MAX density matrix=1.00D-06.
 Requested convergence on             energy=1.00D-06.
 No special actions if energy rises.

 Cycle   1  Pass 1  IDiag  1:
 E= -862.086587704353    
 DIIS: error= 6.01D-03 at cycle   1 NSaved=   1.
 NSaved= 1 IEnMin= 1 EnMin= -862.086587704353     IErMin= 1 ErrMin= 6.01D-03
 ErrMax= 6.01D-03  0.00D+00 EMaxC= 1.00D-01 BMatC= 5.55D-02 BMatP= 5.55D-02
 IDIUse=3 WtCom= 9.40D-01 WtEn= 6.01D-02
 Coeff-Com:  0.100D+01
 Coeff-En:   0.100D+01
 Coeff:      0.100D+01
 Gap=     0.626 Goal=   None    Shift=    0.000
 Gap=     0.672 Goal=   None    Shift=    0.000
 GapD=    0.626 DampG=2.000 DampE=1.000 DampFc=2.0000 IDamp=-1.
 RMSDP=1.38D-03 MaxDP=3.23D-02              OVMax= 4.00D-02

 Cycle   2  Pass 1  IDiag  1:
 E= -862.107616502303     Delta-E=       -0.021028797949 Rises=F Damp=F
 DIIS: error= 1.76D-03 at cycle   2 NSaved=   2.
 NSaved= 2 IEnMin= 2 EnMin= -862.107616502303     IErMin= 2 ErrMin= 1.76D-03
 ErrMax= 1.76D-03  0.00D+00 EMaxC= 1.00D-01 BMatC= 3.38D-03 BMatP= 5.55D-02
 IDIUse=3 WtCom= 9.82D-01 WtEn= 1.76D-02
 Coeff-Com: -0.108D+00 0.111D+01
 Coeff-En:   0.000D+00 0.100D+01
 Coeff:     -0.106D+00 0.111D+01
 Gap=     0.393 Goal=   None    Shift=    0.000
 Gap=     0.380 Goal=   None    Shift=    0.000
 RMSDP=4.68D-04 MaxDP=1.08D-02 DE=-2.10D-02 OVMax= 2.10D-02

 Cycle   3  Pass 1  IDiag  1:
 E= -862.108858405851     Delta-E=       -0.001241903548 Rises=F Damp=F
 DIIS: error= 1.73D-03 at cycle   3 NSaved=   3.
 NSaved= 3 IEnMin= 3 EnMin= -862.108858405851     IErMin= 3 ErrMin= 1.73D-03
 ErrMax= 1.73D-03  0.00D+00 EMaxC= 1.00D-01 BMatC= 2.72D-03 BMatP= 3.38D-03
 IDIUse=3 WtCom= 9.83D-01 WtEn= 1.73D-02
 Coeff-Com: -0.102D+00 0.569D+00 0.532D+00
 Coeff-En:   0.000D+00 0.000D+00 0.100D+01
 Coeff:     -0.100D+00 0.559D+00 0.541D+00
 Gap=     0.398 Goal=   None    Shift=    0.000
 Gap=     0.373 Goal=   None    Shift=    0.000
 RMSDP=2.18D-04 MaxDP=8.14D-03 DE=-1.24D-03 OVMax= 6.35D-03

 Cycle   4  Pass 1  IDiag  1:
 E= -862.109352253897     Delta-E=       -0.000493848047 Rises=F Damp=F
 DIIS: error= 4.41D-04 at cycle   4 NSaved=   4.
 NSaved= 4 IEnMin= 4 EnMin= -862.109352253897     IErMin= 4 ErrMin= 4.41D-04
 ErrMax= 4.41D-04  0.00D+00 EMaxC= 1.00D-01 BMatC= 2.05D-04 BMatP= 2.72D-03
 IDIUse=3 WtCom= 9.96D-01 WtEn= 4.41D-03
 Coeff-Com: -0.218D-01 0.434D-01 0.199D+00 0.779D+00
 Coeff-En:   0.000D+00 0.000D+00 0.000D+00 0.100D+01
 Coeff:     -0.217D-01 0.432D-01 0.199D+00 0.780D+00
 Gap=     0.399 Goal=   None    Shift=    0.000
 Gap=     0.372 Goal=   None    Shift=    0.000
 RMSDP=8.58D-05 MaxDP=3.07D-03 DE=-4.94D-04 OVMax= 3.83D-03

 Cycle   5  Pass 1  IDiag  1:
 E= -862.109414610642     Delta-E=       -0.000062356744 Rises=F Damp=F
 DIIS: error= 2.22D-04 at cycle   5 NSaved=   5.
 NSaved= 5 IEnMin= 5 EnMin= -862.109414610642     IErMin= 5 ErrMin= 2.22D-04
 ErrMax= 2.22D-04  0.00D+00 EMaxC= 1.00D-01 BMatC= 4.03D-05 BMatP= 2.05D-04
 IDIUse=3 WtCom= 9.98D-01 WtEn= 2.22D-03
 Coeff-Com:  0.686D-02-0.709D-01-0.113D-02 0.320D+00 0.745D+00
 Coeff-En:   0.000D+00 0.000D+00 0.000D+00 0.000D+00 0.100D+01
 Coeff:      0.684D-02-0.707D-01-0.113D-02 0.320D+00 0.745D+00
 Gap=     0.399 Goal=   None    Shift=    0.000
 Gap=     0.372 Goal=   None    Shift=    0.000
 RMSDP=5.23D-05 MaxDP=1.40D-03 DE=-6.24D-05 OVMax= 3.04D-03

 Cycle   6  Pass 1  IDiag  1:
 E= -862.109431061702     Delta-E=       -0.000016451060 Rises=F Damp=F
 DIIS: error= 9.71D-05 at cycle   6 NSaved=   6.
 NSaved= 6 IEnMin= 6 EnMin= -862.109431061702     IErMin= 6 ErrMin= 9.71D-05
 ErrMax= 9.71D-05  0.00D+00 EMaxC= 1.00D-01 BMatC= 1.11D-05 BMatP= 4.03D-05
 IDIUse=1 WtCom= 1.00D+00 WtEn= 0.00D+00
 Coeff-Com:  0.679D-02-0.387D-01-0.402D-01-0.236D-01 0.359D+00 0.736D+00
 Coeff:      0.679D-02-0.387D-01-0.402D-01-0.236D-01 0.359D+00 0.736D+00
 Gap=     0.399 Goal=   None    Shift=    0.000
 Gap=     0.372 Goal=   None    Shift=    0.000
 RMSDP=2.71D-05 MaxDP=1.11D-03 DE=-1.65D-05 OVMax= 1.61D-03

 Cycle   7  Pass 1  IDiag  1:
 E= -862.109435633831     Delta-E=       -0.000004572129 Rises=F Damp=F
 DIIS: error= 5.03D-05 at cycle   7 NSaved=   7.
 NSaved= 7 IEnMin= 7 EnMin= -862.109435633831     IErMin= 7 ErrMin= 5.03D-05
 ErrMax= 5.03D-05  0.00D+00 EMaxC= 1.00D-01 BMatC= 1.28D-06 BMatP= 1.11D-05
 IDIUse=1 WtCom= 1.00D+00 WtEn= 0.00D+00
 Coeff-Com: -0.555D-04 0.824D-02-0.122D-01-0.914D-01-0.564D-01 0.192D+00
 Coeff-Com:  0.959D+00
 Coeff:     -0.555D-04 0.824D-02-0.122D-01-0.914D-01-0.564D-01 0.192D+00
 Coeff:      0.959D+00
 Gap=     0.399 Goal=   None    Shift=    0.000
 Gap=     0.372 Goal=   None    Shift=    0.000
 RMSDP=1.27D-05 MaxDP=3.97D-04 DE=-4.57D-06 OVMax= 1.10D-03

 Cycle   8  Pass 1  IDiag  1:
 E= -862.109436611803     Delta-E=       -0.000000977972 Rises=F Damp=F
 DIIS: error= 1.52D-05 at cycle   8 NSaved=   8.
 NSaved= 8 IEnMin= 8 EnMin= -862.109436611803     IErMin= 8 ErrMin= 1.52D-05
 ErrMax= 1.52D-05  0.00D+00 EMaxC= 1.00D-01 BMatC= 2.09D-07 BMatP= 1.28D-06
 IDIUse=1 WtCom= 1.00D+00 WtEn= 0.00D+00
 Coeff-Com: -0.932D-03 0.855D-02 0.969D-03-0.315D-01-0.665D-01-0.346D-01
 Coeff-Com:  0.323D+00 0.801D+00
 Coeff:     -0.932D-03 0.855D-02 0.969D-03-0.315D-01-0.665D-01-0.346D-01
 Coeff:      0.323D+00 0.801D+00
 Gap=     0.399 Goal=   None    Shift=    0.000
 Gap=     0.372 Goal=   None    Shift=    0.000
 RMSDP=4.80D-06 MaxDP=2.03D-04 DE=-9.78D-07 OVMax= 3.72D-04

 Cycle   9  Pass 1  IDiag  1:
 E= -862.109436730588     Delta-E=       -0.000000118785 Rises=F Damp=F
 DIIS: error= 7.28D-06 at cycle   9 NSaved=   9.
 NSaved= 9 IEnMin= 9 EnMin= -862.109436730588     IErMin= 9 ErrMin= 7.28D-06
 ErrMax= 7.28D-06  0.00D+00 EMaxC= 1.00D-01 BMatC= 5.62D-08 BMatP= 2.09D-07
 IDIUse=1 WtCom= 1.00D+00 WtEn= 0.00D+00
 Coeff-Com: -0.407D-03 0.268D-02 0.230D-02-0.291D-03-0.205D-01-0.458D-01
 Coeff-Com: -0.105D-01 0.365D+00 0.707D+00
 Coeff:     -0.407D-03 0.268D-02 0.230D-02-0.291D-03-0.205D-01-0.458D-01
 Coeff:     -0.105D-01 0.365D+00 0.707D+00
 Gap=     0.399 Goal=   None    Shift=    0.000
 Gap=     0.372 Goal=   None    Shift=    0.000
 RMSDP=1.98D-06 MaxDP=4.66D-05 DE=-1.19D-07 OVMax= 1.52D-04

 Cycle  10  Pass 1  IDiag  1:
 E= -862.109436755694     Delta-E=       -0.000000025105 Rises=F Damp=F
 DIIS: error= 3.88D-06 at cycle  10 NSaved=  10.
 NSaved=10 IEnMin=10 EnMin= -862.109436755694     IErMin=10 ErrMin= 3.88D-06
 ErrMax= 3.88D-06  0.00D+00 EMaxC= 1.00D-01 BMatC= 1.12D-08 BMatP= 5.62D-08
 IDIUse=1 WtCom= 1.00D+00 WtEn= 0.00D+00
 Coeff-Com:  0.117D-03-0.156D-02 0.454D-03 0.908D-02 0.125D-01-0.701D-02
 Coeff-Com: -0.970D-01-0.107D+00 0.266D+00 0.925D+00
 Coeff:      0.117D-03-0.156D-02 0.454D-03 0.908D-02 0.125D-01-0.701D-02
 Coeff:     -0.970D-01-0.107D+00 0.266D+00 0.925D+00
 Gap=     0.399 Goal=   None    Shift=    0.000
 Gap=     0.372 Goal=   None    Shift=    0.000
 RMSDP=1.58D-06 MaxDP=4.17D-05 DE=-2.51D-08 OVMax= 8.64D-05

 Cycle  11  Pass 1  IDiag  1:
 E= -862.109436763284     Delta-E=       -0.000000007591 Rises=F Damp=F
 DIIS: error= 1.38D-06 at cycle  11 NSaved=  11.
 NSaved=11 IEnMin=11 EnMin= -862.109436763284     IErMin=11 ErrMin= 1.38D-06
 ErrMax= 1.38D-06  0.00D+00 EMaxC= 1.00D-01 BMatC= 9.79D-10 BMatP= 1.12D-08
 IDIUse=1 WtCom= 1.00D+00 WtEn= 0.00D+00
 Coeff-Com:  0.914D-04-0.735D-03-0.345D-03 0.166D-02 0.616D-02 0.586D-02
 Coeff-Com: -0.117D-01-0.718D-01-0.737D-01 0.954D-01 0.105D+01
 Coeff:      0.914D-04-0.735D-03-0.345D-03 0.166D-02 0.616D-02 0.586D-02
 Coeff:     -0.117D-01-0.718D-01-0.737D-01 0.954D-01 0.105D+01
 Gap=     0.399 Goal=   None    Shift=    0.000
 Gap=     0.372 Goal=   None    Shift=    0.000
 RMSDP=6.14D-07 MaxDP=1.62D-05 DE=-7.59D-09 OVMax= 2.71D-05

 Cycle  12  Pass 1  IDiag  1:
 E= -862.109436764278     Delta-E=       -0.000000000994 Rises=F Damp=F
 DIIS: error= 3.91D-07 at cycle  12 NSaved=  12.
 NSaved=12 IEnMin=12 EnMin= -862.109436764278     IErMin=12 ErrMin= 3.91D-07
 ErrMax= 3.91D-07  0.00D+00 EMaxC= 1.00D-01 BMatC= 1.11D-10 BMatP= 9.79D-10
 IDIUse=1 WtCom= 1.00D+00 WtEn= 0.00D+00
 Coeff-Com: -0.363D-05 0.115D-03-0.595D-04-0.896D-03-0.975D-03 0.700D-03
 Coeff-Com:  0.104D-01 0.669D-02-0.399D-01-0.116D+00 0.122D+00 0.102D+01
 Coeff:     -0.363D-05 0.115D-03-0.595D-04-0.896D-03-0.975D-03 0.700D-03
 Coeff:      0.104D-01 0.669D-02-0.399D-01-0.116D+00 0.122D+00 0.102D+01
 Gap=     0.399 Goal=   None    Shift=    0.000
 Gap=     0.372 Goal=   None    Shift=    0.000
 RMSDP=1.81D-07 MaxDP=4.33D-06 DE=-9.94D-10 OVMax= 8.36D-06

 Cycle  13  Pass 1  IDiag  1:
 E= -862.109436764382     Delta-E=       -0.000000000103 Rises=F Damp=F
 DIIS: error= 1.21D-07 at cycle  13 NSaved=  13.
 NSaved=13 IEnMin=13 EnMin= -862.109436764382     IErMin=13 ErrMin= 1.21D-07
 ErrMax= 1.21D-07  0.00D+00 EMaxC= 1.00D-01 BMatC= 2.09D-11 BMatP= 1.11D-10
 IDIUse=1 WtCom= 1.00D+00 WtEn= 0.00D+00
 Coeff-Com: -0.840D-05 0.956D-04 0.121D-05-0.440D-03-0.809D-03-0.172D-03
 Coeff-Com:  0.445D-02 0.733D-02-0.588D-02-0.429D-01-0.524D-01 0.323D+00
 Coeff-Com:  0.768D+00
 Coeff:     -0.840D-05 0.956D-04 0.121D-05-0.440D-03-0.809D-03-0.172D-03
 Coeff:      0.445D-02 0.733D-02-0.588D-02-0.429D-01-0.524D-01 0.323D+00
 Coeff:      0.768D+00
 Gap=     0.399 Goal=   None    Shift=    0.000
 Gap=     0.372 Goal=   None    Shift=    0.000
 RMSDP=4.14D-08 MaxDP=1.68D-06 DE=-1.03D-10 OVMax= 1.82D-06

 Cycle  14  Pass 1  IDiag  1:
 E= -862.109436764393     Delta-E=       -0.000000000011 Rises=F Damp=F
 DIIS: error= 7.42D-08 at cycle  14 NSaved=  14.
 NSaved=14 IEnMin=14 EnMin= -862.109436764393     IErMin=14 ErrMin= 7.42D-08
 ErrMax= 7.42D-08  0.00D+00 EMaxC= 1.00D-01 BMatC= 5.08D-12 BMatP= 2.09D-11
 IDIUse=1 WtCom= 1.00D+00 WtEn= 0.00D+00
 Coeff-Com: -0.207D-05 0.402D-05 0.132D-04 0.691D-04-0.480D-04-0.221D-03
 Coeff-Com: -0.948D-03 0.776D-03 0.843D-02 0.146D-01-0.526D-01-0.151D+00
 Coeff-Com:  0.288D+00 0.893D+00
 Coeff:     -0.207D-05 0.402D-05 0.132D-04 0.691D-04-0.480D-04-0.221D-03
 Coeff:     -0.948D-03 0.776D-03 0.843D-02 0.146D-01-0.526D-01-0.151D+00
 Coeff:      0.288D+00 0.893D+00
 Gap=     0.399 Goal=   None    Shift=    0.000
 Gap=     0.372 Goal=   None    Shift=    0.000
 RMSDP=3.00D-08 MaxDP=1.54D-06 DE=-1.09D-11 OVMax= 1.32D-06

 Cycle  15  Pass 1  IDiag  1:
 E= -862.109436764397     Delta-E=       -0.000000000004 Rises=F Damp=F
 DIIS: error= 2.08D-08 at cycle  15 NSaved=  15.
 NSaved=15 IEnMin=15 EnMin= -862.109436764397     IErMin=15 ErrMin= 2.08D-08
 ErrMax= 2.08D-08  0.00D+00 EMaxC= 1.00D-01 BMatC= 3.34D-13 BMatP= 5.08D-12
 IDIUse=1 WtCom= 1.00D+00 WtEn= 0.00D+00
 Coeff-Com:  0.101D-05-0.118D-04 0.985D-06 0.566D-04 0.115D-03 0.254D-04
 Coeff-Com: -0.626D-03-0.104D-02 0.672D-03 0.576D-02 0.104D-01-0.476D-01
 Coeff-Com: -0.118D+00 0.190D-02 0.115D+01
 Coeff:      0.101D-05-0.118D-04 0.985D-06 0.566D-04 0.115D-03 0.254D-04
 Coeff:     -0.626D-03-0.104D-02 0.672D-03 0.576D-02 0.104D-01-0.476D-01
 Coeff:     -0.118D+00 0.190D-02 0.115D+01
 Gap=     0.399 Goal=   None    Shift=    0.000
 Gap=     0.372 Goal=   None    Shift=    0.000
 RMSDP=1.34D-08 MaxDP=7.45D-07 DE=-4.09D-12 OVMax= 4.81D-07

 Cycle  16  Pass 1  IDiag  1:
 E= -862.109436764386     Delta-E=        0.000000000011 Rises=F Damp=F
 DIIS: error= 5.41D-09 at cycle  16 NSaved=  16.
 NSaved=16 IEnMin=15 EnMin= -862.109436764397     IErMin=16 ErrMin= 5.41D-09
 ErrMax= 5.41D-09  0.00D+00 EMaxC= 1.00D-01 BMatC= 2.11D-14 BMatP= 3.34D-13
 IDIUse=1 WtCom= 1.00D+00 WtEn= 0.00D+00
 Coeff-Com:  0.788D-07 0.561D-06-0.822D-06-0.893D-05-0.104D-05 0.177D-04
 Coeff-Com:  0.122D-03-0.766D-04-0.716D-03-0.134D-02 0.404D-02 0.134D-01
 Coeff-Com: -0.186D-01-0.650D-01-0.656D-01 0.113D+01
 Coeff:      0.788D-07 0.561D-06-0.822D-06-0.893D-05-0.104D-05 0.177D-04
 Coeff:      0.122D-03-0.766D-04-0.716D-03-0.134D-02 0.404D-02 0.134D-01
 Coeff:     -0.186D-01-0.650D-01-0.656D-01 0.113D+01
 Gap=     0.399 Goal=   None    Shift=    0.000
 Gap=     0.372 Goal=   None    Shift=    0.000
 RMSDP=3.36D-09 MaxDP=1.53D-07 DE= 1.07D-11 OVMax= 1.01D-07

 SCF Done:  E(UwB97XD) =  -862.109436764     A.U. after   16 cycles
            NFock= 16  Conv=0.34D-08     -V/T= 2.0018
 <Sx>= 0.0000 <Sy>= 0.0000 <Sz>= 0.5000 <S**2>= 0.7531 S= 0.5016
 <L.S>=  0.00000000000    
 KE= 8.605554518151D+02 PE=-2.926093547335D+03 EE= 7.624697743557D+02
 Annihilation of the first spin contaminant:
 S**2 before annihilation     0.7531,   after     0.7500
 Leave Link  502 at Fri May 23 02:05:34 2025, MaxMem=  3758096384 cpu:              39.7 elap:               8.1
 (Enter /apps/easybuild-2022/easybuild/software/Compiler/NVHPC/22.11-CUDA-11.7.0/Gaussian/g16c01-CUDA-11.7.0/g16/l508.exe)
 QCSCF skips out because SCF is already converged.
 Leave Link  508 at Fri May 23 02:05:34 2025, MaxMem=  3758096384 cpu:               0.1 elap:               0.0
 (Enter /apps/easybuild-2022/easybuild/software/Compiler/NVHPC/22.11-CUDA-11.7.0/Gaussian/g16c01-CUDA-11.7.0/g16/l701.exe)
 ... and contract with generalized density number  0.
 Compute integral first derivatives.
 R6Disp: Adding Grimme-D2 dispersion energy 1st derivatives to the gradient.
 Leave Link  701 at Fri May 23 02:05:34 2025, MaxMem=  3758096384 cpu:               0.4 elap:               0.2
 (Enter /apps/easybuild-2022/easybuild/software/Compiler/NVHPC/22.11-CUDA-11.7.0/Gaussian/g16c01-CUDA-11.7.0/g16/l702.exe)
 L702 exits ... SP integral derivatives will be done elsewhere.
 Leave Link  702 at Fri May 23 02:05:34 2025, MaxMem=  3758096384 cpu:               0.1 elap:               0.1
 (Enter /apps/easybuild-2022/easybuild/software/Compiler/NVHPC/22.11-CUDA-11.7.0/Gaussian/g16c01-CUDA-11.7.0/g16/l703.exe)
 Integral derivatives from FoFJK, PRISM(SPDF).
 Compute integral first derivatives, UseDBF=F ICtDFT=           0.
 Calling FoFJK, ICntrl=      2127 FMM=F ISym2X=0 I1Cent= 0 IOpClX= 1 NMat=1 NMatS=1 NMatT=0.
 FoFJK:  IHMeth= 1 ICntrl=    2127 DoSepK=T KAlg= 0 I1Cent=           0 FoldK=F
 IRaf=         1 NMat=       1 IRICut=       1 DoRegI=T DoRafI=F ISym2E= 0 IDoP0=0 IntGTp=1.
 FoFCou: FMM=F IPFlag=           0 FMFlag=      100000 FMFlg1=         800
         NFxFlg=           0 DoJE=F BraDBF=F KetDBF=F FulRan=T
         wScrn=  0.000000 ICntrl=      2527 IOpCl=  0 I1Cent=           0 NGrid=           0
         NMat0=    1 NMatS0=      1 NMatT0=    0 NMatD0=    1 NMtDS0=    0 NMtDT0=    0
 Symmetry not used in FoFCou.
 Leave Link  703 at Fri May 23 02:05:36 2025, MaxMem=  3758096384 cpu:              10.7 elap:               2.0
 (Enter /apps/easybuild-2022/easybuild/software/Compiler/NVHPC/22.11-CUDA-11.7.0/Gaussian/g16c01-CUDA-11.7.0/g16/l716.exe)
 Dipole        =-5.61330283D-01 8.79377106D-01 6.90433228D-01
 -------------------------------------------------------------------
 Center     Atomic                   Forces (Hartrees/Bohr)
 Number     Number              X              Y              Z
 -------------------------------------------------------------------
      1        6           0.002894366   -0.000328967   -0.004399455
      2        9          -0.002142163   -0.001994302    0.002802014
      3        9          -0.002316927    0.001994866   -0.000189589
      4       16           0.000786797    0.000182004    0.001408327
      5        8           0.000235841   -0.000552614    0.000010096
      6        8           0.000598988    0.000691437    0.000069519
      7        8          -0.000431794    0.000145499    0.000288148
      8        1           0.000374892   -0.000137922    0.000010940
 -------------------------------------------------------------------
 Cartesian Forces:  Max     0.004399455 RMS     0.001553631
 Leave Link  716 at Fri May 23 02:05:36 2025, MaxMem=  3758096384 cpu:               0.1 elap:               0.1
 (Enter /apps/easybuild-2022/easybuild/software/Compiler/NVHPC/22.11-CUDA-11.7.0/Gaussian/g16c01-CUDA-11.7.0/g16/l103.exe)

 GradGradGradGradGradGradGradGradGradGradGradGradGradGradGradGradGradGrad
 Berny optimization.
 Using GEDIIS/GDIIS optimizer.
 FormGI is forming the generalized inverse of G from B-inverse, IUseBI=4.
 Internal  Forces:  Max     0.003187857 RMS     0.001507821
 Search for a local minimum.
 Step number   2 out of a maximum of   36
 All quantities printed in internal units (Hartrees-Bohrs-Radians)
 RMS Force = .15078D-02 SwitMx=.10000D-02 MixMth= 1
 Mixed Optimization -- RFO/linear search
 Update second derivatives using D2CorX and points    1    2
 DE= -4.64D-03 DEPred=-4.45D-03 R= 1.04D+00
 TightC=F SS=  1.41D+00  RLast= 3.11D-01 DXNew= 5.0454D-01 9.3370D-01
 Trust test= 1.04D+00 RLast= 3.11D-01 DXMaxT set to 5.05D-01
 ITU=  1  0
 Use linear search instead of GDIIS.
     Eigenvalues ---    0.00198   0.00349   0.07568   0.11296   0.12432
     Eigenvalues ---    0.13499   0.14421   0.15955   0.17966   0.20023
     Eigenvalues ---    0.25733   0.31569   0.32943   0.35447   0.47836
     Eigenvalues ---    0.52816   0.68492   0.71576
 RFO step:  Lambda=-1.16991531D-03 EMin= 1.97777993D-03
 Quartic linear search produced a step of  0.22681.
 Iteration  1 RMS(Cart)=  0.10586246 RMS(Int)=  0.02301212
 Iteration  2 RMS(Cart)=  0.02428570 RMS(Int)=  0.00104932
 Iteration  3 RMS(Cart)=  0.00056093 RMS(Int)=  0.00086269
 Iteration  4 RMS(Cart)=  0.00000031 RMS(Int)=  0.00086269
 ITry= 1 IFail=0 DXMaxC= 3.98D-01 DCOld= 1.00D+10 DXMaxT= 5.05D-01 DXLimC= 3.00D+00 Rises=F
 Variable       Old X    -DE/DX   Delta X   Delta X   Delta X     New X
                                 (Linear)    (Quad)   (Total)
    R1        2.47548   0.00218  -0.00969   0.01404   0.00435   2.47983
    R2        2.47652   0.00234  -0.00929   0.00833  -0.00097   2.47555
    R3        3.46109   0.00159  -0.01992  -0.00023  -0.02016   3.44094
    R4        2.71389   0.00030  -0.00024   0.00012  -0.00012   2.71377
    R5        2.70540  -0.00007   0.00198  -0.00132   0.00067   2.70606
    R6        3.02901   0.00001   0.00096   0.00002   0.00098   3.02999
    R7        1.82493  -0.00003  -0.00030   0.00032   0.00002   1.82495
    A1        1.94079  -0.00088   0.00650   0.00675   0.01025   1.95104
    A2        1.94286   0.00319   0.01763   0.00282   0.01851   1.96137
    A3        1.97959   0.00299   0.02097  -0.00230   0.01678   1.99637
    A4        1.86388   0.00012  -0.00279  -0.00628  -0.00913   1.85476
    A5        1.89848   0.00086   0.01033   0.00585   0.01619   1.91467
    A6        1.73416  -0.00028  -0.00457  -0.00602  -0.01060   1.72356
    A7        2.15319  -0.00034  -0.00221   0.00145  -0.00078   2.15242
    A8        1.90412  -0.00002  -0.00147   0.00329   0.00170   1.90582
    A9        1.86471  -0.00034   0.00026   0.00005   0.00039   1.86511
   A10        1.92257  -0.00015  -0.00115  -0.00291  -0.00406   1.91851
    D1       -1.27627   0.00244   0.03049   0.22748   0.25872  -1.01755
    D2        1.08318   0.00276   0.03327   0.22895   0.26297   1.34615
    D3        3.02884   0.00253   0.03491   0.22824   0.26376  -2.99059
    D4        2.80249  -0.00139  -0.00295   0.21787   0.21426   3.01675
    D5       -1.12124  -0.00107  -0.00017   0.21934   0.21851  -0.90273
    D6        0.82441  -0.00130   0.00147   0.21863   0.21930   1.04372
    D7        1.56374  -0.00001   0.00207   0.03097   0.03306   1.59680
    D8       -0.38276  -0.00003   0.00771   0.03950   0.04719  -0.33557
[...]
     23 -0.734519D-02 -0.889414D-02 -0.117430D-01 -0.115976D-01  0.105270D-01
     24 -0.407864D-02  0.577029D-02  0.291889D-02  0.100363D-01 -0.878482D-02
     25 -0.412745D-02 -0.848669D-02 -0.649647D-02 -0.398037D-02  0.799822D-02
     26  0.791391D-02  0.324423D-02  0.526881D-02 -0.100473D-01 -0.171357D-02
                6             7             8             9            10 
      6  0.304229D+00
      7  0.234872D-02  0.529486D+00
      8 -0.622829D-02  0.116591D-02  0.130897D+00
      9  0.118661D-01 -0.160298D-02 -0.914032D-01  0.158827D+00
     10  0.599675D-03 -0.396907D-03 -0.896153D-01 -0.140084D-01  0.161366D+00
     11 -0.106438D-01  0.183829D-02 -0.763263D-02 -0.670523D-02  0.220874D-01
     12 -0.136544D-01  0.137177D-02  0.803669D-02 -0.958593D-02 -0.127769D-01
     13  0.245634D-01 -0.185540D-02 -0.126594D-01  0.310286D-01 -0.498775D-02
     14 -0.402130D-02  0.798995D-03  0.212542D-02  0.274846D-03 -0.242177D-02
     15  0.345343D-04 -0.528880D-02  0.402371D-02 -0.452073D-02 -0.284365D-02
     16  0.106241D-01  0.238946D-02  0.271539D-02 -0.291902D-02 -0.121137D-03
     17  0.432492D-01  0.177599D-01  0.648418D-03  0.195070D-02 -0.264529D-02
     18  0.116637D-01 -0.327683D-02  0.721119D-02  0.819224D-02  0.354275D-02
     19 -0.132483D-01  0.382322D-03  0.101260D-01 -0.455576D-02  0.836285D-02
     20  0.536563D-02  0.261324D-02  0.990397D-02  0.321045D-02  0.209140D-02
     21  0.880590D-02 -0.306316D-02 -0.107962D-01  0.227578D-02 -0.519675D-02
     22 -0.161061D-01  0.595988D-03 -0.788137D-02 -0.104722D-01 -0.376648D-03
     23  0.250784D-02  0.282690D-02 -0.810343D-02 -0.270601D-02 -0.664810D-02
     24 -0.662088D-04 -0.331165D-03 -0.619774D-02  0.226151D-02  0.124989D-01
     25  0.106796D-02  0.985194D-05  0.644325D-02 -0.236504D-02 -0.879738D-02
     26 -0.212637D-02  0.114771D-02 -0.160365D-02  0.308222D-02 -0.333314D-02
               11            12            13            14            15 
     11  0.996764D-01
     12 -0.294853D-02  0.890356D-01
     13 -0.243188D-01 -0.142760D-01  0.186764D+00
     14 -0.384279D-01 -0.324237D-01  0.960939D-02  0.674215D-01
     15 -0.305052D-01 -0.633949D-02 -0.501880D-01 -0.835111D-02  0.900686D-01
     16 -0.323402D-02 -0.295914D-01 -0.638661D-01 -0.905454D-02 -0.338024D-02
     17 -0.137961D-02 -0.203953D-02  0.412443D-02  0.113231D-02 -0.163676D-01
     18 -0.120718D-01 -0.174720D-01  0.121275D-01 -0.162779D-01  0.364932D-01
     19  0.165662D-01  0.766500D-02 -0.643660D-02  0.158758D-01 -0.469645D-02
     20  0.117482D-02 -0.432174D-02  0.231736D-02  0.270196D-03 -0.328922D-01
     21 -0.154090D-01 -0.795534D-02  0.557193D-02 -0.173369D-01  0.376528D-01
     22  0.132290D-01  0.171817D-01 -0.129922D-01  0.148168D-01 -0.353692D-02
     23 -0.216241D-02  0.519492D-02 -0.423823D-02 -0.788795D-03 -0.317327D-01
     24  0.333091D-01 -0.300731D-01  0.229950D-02 -0.180249D-02  0.925715D-03
     25 -0.567918D-01 -0.188210D-01 -0.363849D-01  0.387826D-01  0.293862D-01
     26  0.196725D-01  0.520541D-01  0.404790D-01 -0.359206D-01 -0.265080D-01
               16            17            18            19            20 
     16  0.946317D-01
     17  0.149495D-01  0.144501D+00
     18  0.424811D-02 -0.488583D-02  0.398909D-01
     19 -0.338830D-01 -0.613471D-02 -0.548373D-02  0.352789D-01
     20  0.331731D-01  0.116405D-01 -0.672227D-03 -0.277368D-02  0.336651D-01
     21  0.321525D-02 -0.519488D-02  0.183315D-01 -0.236482D-01 -0.200171D-01
     22 -0.349158D-01 -0.644375D-02 -0.270431D-01  0.171144D-01 -0.221185D-01
     23  0.321402D-01  0.113314D-01 -0.222316D-01 -0.209381D-01  0.143203D-01
     24 -0.413705D-02 -0.183656D-02  0.599930D-02  0.715714D-02 -0.556811D-02
     25  0.278656D-01  0.274928D-02  0.326281D-02 -0.689891D-02  0.187441D-02
     26 -0.328089D-01  0.202780D-02 -0.695022D-02  0.283129D-02  0.565793D-03
               21            22            23            24            25 
     21  0.366606D-01
     22 -0.531914D-02  0.388384D-01
     23 -0.168802D-02 -0.394517D-03  0.348639D-01
     24  0.105999D-02  0.221784D-02 -0.105074D-01  0.245256D-01
     25  0.446655D-02 -0.569517D-02  0.307815D-02 -0.133538D-01  0.560226D-01
     26 -0.443373D-02  0.534778D-02  0.308228D-02 -0.842136D-02 -0.396027D-01
               26 
     26  0.539766D-01
 Leave Link  716 at Fri May 23 02:06:54 2025, MaxMem=  3758096384 cpu:               0.1 elap:               0.1
 (Enter /apps/easybuild-2022/easybuild/software/Compiler/NVHPC/22.11-CUDA-11.7.0/Gaussian/g16c01-CUDA-11.7.0/g16/l103.exe)

 GradGradGradGradGradGradGradGradGradGradGradGradGradGradGradGradGradGrad
 Berny optimization.
 Red2BG is reusing G-inverse.
 Internal  Forces:  Max     0.000000900 RMS     0.000000272
 Search for a local minimum.
 Step number   1 out of a maximum of    2
 All quantities printed in internal units (Hartrees-Bohrs-Radians)
 Second derivative matrix not updated -- analytic derivatives used.
 ITU=  0
     Eigenvalues ---    0.00218   0.00351   0.05725   0.11300   0.12302
     Eigenvalues ---    0.13175   0.15513   0.16409   0.17614   0.20582
     Eigenvalues ---    0.25325   0.29834   0.33317   0.40216   0.51244
     Eigenvalues ---    0.53054   0.68508   0.70146
 Angle between quadratic step and forces=  58.26 degrees.
 Linear search not attempted -- first point.
 Iteration  1 RMS(Cart)=  0.00000281 RMS(Int)=  0.00000000
 Iteration  2 RMS(Cart)=  0.00000000 RMS(Int)=  0.00000000
 ITry= 1 IFail=0 DXMaxC= 5.80D-06 DCOld= 1.00D+10 DXMaxT= 3.00D-01 DXLimC= 3.00D+00 Rises=F
 Variable       Old X    -DE/DX   Delta X   Delta X   Delta X     New X
                                 (Linear)    (Quad)   (Total)
    R1        2.47696   0.00000   0.00000   0.00000   0.00000   2.47697
    R2        2.47658  -0.00000   0.00000  -0.00000  -0.00000   2.47658
    R3        3.45126  -0.00000   0.00000  -0.00000  -0.00000   3.45126
    R4        2.71398  -0.00000   0.00000  -0.00000  -0.00000   2.71398
    R5        2.70494   0.00000   0.00000   0.00000   0.00000   2.70494
    R6        3.03034  -0.00000   0.00000  -0.00000  -0.00000   3.03034
    R7        1.82495  -0.00000   0.00000  -0.00000  -0.00000   1.82495
    A1        1.95269  -0.00000   0.00000   0.00000   0.00000   1.95269
    A2        1.97613   0.00000   0.00000   0.00000   0.00000   1.97613
    A3        1.99837  -0.00000   0.00000   0.00000   0.00000   1.99837
    A4        1.85334  -0.00000   0.00000  -0.00000  -0.00000   1.85334
    A5        1.91928  -0.00000   0.00000  -0.00000  -0.00000   1.91928
    A6        1.72387   0.00000   0.00000   0.00000   0.00000   1.72387
    A7        2.15716   0.00000   0.00000   0.00000   0.00000   2.15716
    A8        1.90555   0.00000   0.00000   0.00000   0.00000   1.90555
    A9        1.85632   0.00000   0.00000   0.00000   0.00000   1.85632
   A10        1.92063   0.00000   0.00000   0.00000   0.00000   1.92063
    D1       -0.94138   0.00000   0.00000   0.00001   0.00001  -0.94137
    D2        1.43108  -0.00000   0.00000   0.00000   0.00000   1.43108
    D3       -2.91382   0.00000   0.00000   0.00000   0.00000  -2.91382
    D4        3.07497   0.00000   0.00000   0.00000   0.00000   3.07498
    D5       -0.83576  -0.00000   0.00000   0.00000   0.00000  -0.83576
    D6        1.10252  -0.00000   0.00000   0.00000   0.00000   1.10253
    D7        1.55292   0.00000   0.00000   0.00000   0.00000   1.55292
    D8       -0.37795   0.00000   0.00000   0.00000   0.00000  -0.37795
    D9       -2.74207  -0.00000   0.00000   0.00000   0.00000  -2.74207
         Item               Value     Threshold  Converged?
 Maximum Force            0.000001     0.000015     YES
 RMS     Force            0.000000     0.000010     YES
 Maximum Displacement     0.000006     0.000060     YES
 RMS     Displacement     0.000003     0.000040     YES
 Predicted change in Energy=-3.997902D-12
 Optimization completed.
    -- Stationary point found.
                           ----------------------------
                           !   Optimized Parameters   !
                           ! (Angstroms and Degrees)  !
 --------------------------                            --------------------------
 ! Name  Definition              Value          Derivative Info.                !
 --------------------------------------------------------------------------------
 ! R1    R(1,2)                  1.3108         -DE/DX =    0.0                 !
 ! R2    R(1,3)                  1.3106         -DE/DX =    0.0                 !
 ! R3    R(1,4)                  1.8263         -DE/DX =    0.0                 !
 ! R4    R(4,5)                  1.4362         -DE/DX =    0.0                 !
 ! R5    R(4,6)                  1.4314         -DE/DX =    0.0                 !
 ! R6    R(4,7)                  1.6036         -DE/DX =    0.0                 !
 ! R7    R(7,8)                  0.9657         -DE/DX =    0.0                 !
 ! A1    A(2,1,3)              111.8807         -DE/DX =    0.0                 !
 ! A2    A(2,1,4)              113.2239         -DE/DX =    0.0                 !
 ! A3    A(3,1,4)              114.498          -DE/DX =    0.0                 !
 ! A4    A(1,4,5)              106.1888         -DE/DX =    0.0                 !
 ! A5    A(1,4,6)              109.9669         -DE/DX =    0.0                 !
 ! A6    A(1,4,7)               98.7705         -DE/DX =    0.0                 !
 ! A7    A(5,4,6)              123.5963         -DE/DX =    0.0                 !
 ! A8    A(5,4,7)              109.1799         -DE/DX =    0.0                 !
 ! A9    A(6,4,7)              106.3594         -DE/DX =    0.0                 !
 ! A10   A(4,7,8)              110.0437         -DE/DX =    0.0                 !
 ! D1    D(2,1,4,5)            -53.9368         -DE/DX =    0.0                 !
 ! D2    D(2,1,4,6)             81.9947         -DE/DX =    0.0                 !
 ! D3    D(2,1,4,7)           -166.9497         -DE/DX =    0.0                 !
 ! D4    D(3,1,4,5)            176.1829         -DE/DX =    0.0                 !
 ! D5    D(3,1,4,6)            -47.8855         -DE/DX =    0.0                 !
 ! D6    D(3,1,4,7)             63.17           -DE/DX =    0.0                 !
 ! D7    D(1,4,7,8)             88.9759         -DE/DX =    0.0                 !
 ! D8    D(5,4,7,8)            -21.655          -DE/DX =    0.0                 !
 ! D9    D(6,4,7,8)           -157.1089         -DE/DX =    0.0                 !
 --------------------------------------------------------------------------------
 GradGradGradGradGradGradGradGradGradGradGradGradGradGradGradGradGradGrad

 Leave Link  103 at Fri May 23 02:06:54 2025, MaxMem=  3758096384 cpu:               0.1 elap:               0.0
 (Enter /apps/easybuild-2022/easybuild/software/Compiler/NVHPC/22.11-CUDA-11.7.0/Gaussian/g16c01-CUDA-11.7.0/g16/l9999.exe)

 ----------------------------------------------------------------------

 Electric dipole moment (input orientation):
 (Debye = 10**-18 statcoulomb cm , SI units = C m)
                  (au)            (Debye)         (10**-30 SI)
   Tot        0.123194D+01      0.313127D+01      0.104448D+02
   x         -0.561727D+00     -0.142777D+01     -0.476252D+01
   y          0.831960D+00      0.211463D+01      0.705365D+01
   z          0.714124D+00      0.181512D+01      0.605460D+01

 Dipole polarizability, Alpha (input orientation).
 (esu units = cm**3 , SI units = C**2 m**2 J**-1)
 Alpha(0;0):
               (au)            (10**-24 esu)      (10**-40 SI)
   iso        0.422692D+02      0.626365D+01      0.696925D+01
   aniso      0.408592D+01      0.605470D+00      0.673677D+00
   xx         0.442187D+02      0.655254D+01      0.729068D+01
   yx         0.506198D+00      0.750109D-01      0.834608D-01
   yy         0.402546D+02      0.596512D+01      0.663709D+01
   zx         0.679775D+00      0.100732D+00      0.112080D+00
   zy        -0.956510D+00     -0.141740D+00     -0.157707D+00
   zz         0.423342D+02      0.627328D+01      0.697997D+01

 ----------------------------------------------------------------------

 Dipole orientation:
     6         -0.11551308          0.20445603         -0.15174765
     9         -1.23747642         -1.78473098         -1.11074835
     9         -1.64961358          2.14212638          0.00774761
    16          2.92127048          0.90179261         -1.63595093
     8          4.38125165         -1.38074936         -1.48064598
     8          2.53273893          2.27665215         -3.93280176
     8          3.97605460          2.89776321          0.38556001
     1          4.89319431          2.02890508          1.70251719

 Electric dipole moment (dipole orientation):
 (Debye = 10**-18 statcoulomb cm , SI units = C m)
                  (au)            (Debye)         (10**-30 SI)
   Tot        0.123194D+01      0.313127D+01      0.104448D+02
   x          0.000000D+00      0.000000D+00      0.000000D+00
   y          0.000000D+00      0.000000D+00      0.000000D+00
   z          0.123194D+01      0.313127D+01      0.104448D+02

 Dipole polarizability, Alpha (dipole orientation).
 (esu units = cm**3 , SI units = C**2 m**2 J**-1)
 Alpha(0;0):
               (au)            (10**-24 esu)      (10**-40 SI)
   iso        0.422692D+02      0.626365D+01      0.696925D+01
   aniso      0.408592D+01      0.605470D+00      0.673677D+00
   xx         0.442159D+02      0.655213D+01      0.729022D+01
   yx        -0.159966D+00     -0.237045D-01     -0.263748D-01
   yy         0.422340D+02      0.625843D+01      0.696345D+01
   zx        -0.969854D+00     -0.143717D+00     -0.159907D+00
   zy        -0.935983D+00     -0.138698D+00     -0.154323D+00
   zz         0.403576D+02      0.598038D+01      0.665407D+01

 ----------------------------------------------------------------------
 Unable to Open any file for archive entry.
 1\1\GINC-SPARTAN-BM163\Freq\UwB97XD\6-311++G(d,p)\C1H1F2O3S1\AKHALILOV
 \23-May-2025\0\\#P Geom=AllCheck Guess=TCheck SCRF=Check GenChk UwB97X
 D/6-311++G(d,p) Freq\\Gaussian input prepared by ASE\\0,2\C,0.00462377
 56,0.0108118021,-0.1474868287\F,-0.4847464783,-1.1963666363,-0.0015084
 607\F,-0.5389476477,0.6388998049,-1.1611839991\S,1.8301704458,0.056137
 4447,-0.1192303634\O,2.2281492116,-0.5969062164,1.0963939456\O,2.34765
 58486,-0.2872650126,-1.4088712751\O,2.0329972708,1.6386461467,0.042083
 9084\H,2.0470565737,1.8768526668,0.977860073\\Version=ES64L-G16RevC.01
 \HF=-862.1103259\S2=0.753206\S2-1=0.\S2A=0.750007\RMSD=2.584e-09\RMSF=
 2.079e-06\ZeroPoint=0.0346642\Thermal=0.0416998\ETot=-862.0686261\HTot
 =-862.0676819\GTot=-862.1083261\Dipole=-0.5617271,0.83196,0.7141244\Di
 poleDeriv=0.9918641,0.2152663,0.3445523,0.3500168,1.1609417,-0.4808642
 ,0.5012642,-0.4818359,0.6362415,-0.4942512,-0.3510405,0.0190125,-0.531
 6308,-0.8570703,0.2199497,-0.0977451,0.0308292,-0.1458185,-0.5681522,0
 .1712523,-0.3233055,0.1501173,-0.3688783,0.2419573,-0.546976,0.418112,
 -0.5884838,1.8059252,-0.0651746,-0.0096093,0.1081302,2.2988882,0.09062
 16,0.1847725,0.0684332,2.2690217,-0.6902278,0.0939962,-0.1685681,0.095
 0157,-0.7149942,0.138966,-0.2750664,0.2741278,-0.9927296,-0.8153597,0.
 0482609,0.1673101,0.0474976,-0.5483805,-0.0731217,0.2835276,-0.149781,
 -0.9680443,-0.5836306,-0.1234869,-0.0606578,-0.2235641,-1.3133926,-0.2
 016133,-0.089185,-0.2785054,-0.502593,0.3538322,0.0109263,0.0312658,0.
 0044174,0.3428861,0.0641046,0.0394082,0.11862,0.2924059\Polar=44.21872
 13,0.5061984,40.2546361,0.6797745,-0.9565096,42.3341938\PG=Unknown\NIm
 ag=0\\0.37126662,0.08886026,0.46771349,0.14509628,-0.10959538,0.360676
 04,-0.11422176,-0.11889757,-0.00663114,0.11163264,-0.13757848,-0.31805
 186,0.01111153,0.14024477,0.37811234,-0.02087123,0.01053639,-0.0478853
 3,-0.00042192,-0.06489660,0.04856523,-0.12317090,0.04719062,-0.1150200
 8,0.01807598,0.00474728,0.01204106,0.12251669,0.04145891,-0.10163542,0
 .10294974,0.01333543,-0.05102184,0.05106729,-0.06633858,0.15347752,-0.
 14120895,0.10569141,-0.25533292,0.00740093,0.04458356,-0.00619163,0.13
 510011,-0.16022307,0.26114773,-0.14922883,-0.02324390,-0.03570248,-0.0
 0024533,0.01144572,0.01175620,-0.00295672,0.00746491,0.01490773,0.5303
 0931,0.00370423,-0.03288941,-0.01636750,-0.03633503,-0.01768403,0.0063
 6559,0.01945346,-0.00705467,0.01759381,-0.08031242,0.60203891,0.017716
 54,-0.01450242,-0.04623384,-0.00036438,0.01177847,0.00337786,-0.033798
 37,0.00957245,-0.00894893,-0.04077299,-0.06387355,1.17697135,0.0093727
 6,0.01492058,-0.01881863,-0.00256031,-0.00327035,-0.00020045,-0.012065
 09,0.00260290,-0.00675960,-0.13871152,0.07443068,-0.13945607,0.1092595
 8,-0.00422636,-0.00220895,0.00918734,0.00381303,0.00646143,-0.00169095
 ,0.00200756,0.00102014,-0.00030150,0.06907588,-0.19591622,0.20875479,-
 0.08482154,0.19561779,0.00843315,0.01364319,-0.00490171,-0.00232316,-0
 .00813581,0.00058419,-0.00487272,0.00123688,-0.00096466,-0.13260160,0.
 20899065,-0.48020084,0.14722920,-0.24029541,0.49777066,0.00040194,0.01
 406872,0.03210945,-0.00316897,-0.01012821,-0.00188697,-0.00023118,0.00
 087893,-0.00838224,-0.16938598,0.05311481,0.20213902,0.02061866,0.0032
 6361,-0.01449088,0.13745092,-0.00265121,0.00419815,-0.00140448,0.00447
 504,0.00378380,-0.00123278,-0.00154397,0.00095781,-0.00090531,0.047569
 10,-0.10661316,-0.11370871,-0.00225018,0.01412801,0.01821693,-0.057985
 53,0.10026932,-0.01034829,-0.00406300,-0.01215237,0.00358695,0.0060663
 9,0.00058855,0.00500518,-0.00393271,0.00990460,0.18797978,-0.11739375,
 -0.55056631,0.01714109,-0.01217165,-0.01705790,-0.20884258,0.13898268,
 0.57649911,0.00548986,-0.02035151,-0.00087072,-0.00871705,-0.00602313,
 -0.00069889,-0.00189703,0.00043769,-0.00104336,-0.07023104,-0.03088679
 ,-0.00379037,0.01643381,0.01052728,0.00020495,0.01266491,0.00987981,0.
 00430921,0.05009125,0.01183416,-0.01586516,0.00345611,-0.00678579,-0.0
 0193251,-0.00036536,-0.00668328,0.00437682,-0.00708318,-0.02943257,-0.
 22429395,0.00536471,-0.00200513,-0.02467359,0.00258323,-0.00325420,-0.
 01035607,-0.00623575,0.04241583,0.32997856,0.00261518,-0.00274383,0.00
 605076,-0.00283337,-0.00182685,0.00092344,0.00104682,-0.00056796,-0.00
 007156,-0.00722729,-0.02932029,-0.09232109,0.00137449,0.03149867,0.007
 69411,0.00031647,-0.04223250,-0.01138033,0.01031517,0.13056018,0.58370
 303,0.00009031,-0.00254720,-0.00016268,-0.00079521,0.00056239,0.000282
 20,-0.00027176,0.00015982,-0.00001462,0.00045011,-0.00316894,-0.001673
 38,-0.00234789,0.00036055,-0.00157894,0.00164971,0.00250694,0.00116865
 ,-0.00383472,-0.00608902,-0.00560748,0.00505944,-0.00140150,-0.0012608
 4,0.00066264,0.00015012,0.00033267,0.00021642,0.00116690,-0.00012036,0
 .00064428,-0.00256671,-0.01758747,-0.04338573,0.00039303,0.00557139,0.
 00376034,0.00004187,-0.00636787,-0.00125221,-0.00599918,-0.05723409,-0
 .08536742,0.00821547,0.07666655,-0.00143268,0.00103364,-0.00022064,0.0
 0158608,0.00131932,0.00003768,0.00049800,-0.00010262,0.00045738,0.0016
 6064,-0.00599497,-0.00207820,-0.00051003,0.00501870,-0.00292384,-0.000
 96227,0.00228418,0.00416464,-0.00842599,-0.12827994,-0.49459836,0.0075
 8624,0.12472169,0.49516134\\-0.00000050,-0.00000012,-0.00000151,0.,0.0
 0000096,-0.00000538,0.00000146,0.00000245,-0.00000211,0.,-0.00000085,0
 .00000013,-0.00000168,-0.00000241,0.00000006,0.00000195,0.00000247,0.0
 0000083,0.00000002,-0.00000023,0.00000367,-0.00000123,-0.00000226,0.00
 000431\\\@
 The archive entry for this job was punched.


 THE TRULY SUCCESSFUL PERFORMANCE OF RESEARCHES IN
 INORGANIC CHEMISTRY IS POSSIBLE ONLY TO ONE WHO IS NOT
 ONLY A THEORETICAL CHEMIST, BUT ALSO AN ACCOMPLISHED
 ANALYST AND, MOREOVER, NOT MERELY A PRACTICALLY TRAINED,
 MECHANICAL WORKER, BUT A THINKING CREATIVE ARTIST.
   --  CLEMENS WINKLER, BER. 33, 1697(1900)
 Job cpu time:       0 days  0 hours  4 minutes  9.5 seconds.
 Elapsed time:       0 days  0 hours  0 minutes 36.7 seconds.
 File lengths (MBytes):  RWF=     61 Int=      0 D2E=      0 Chk=      4 Scr=      1
 Normal termination of Gaussian 16 at Fri May 23 02:06:54 2025.
done
