 Entering Gaussian System, Link 0=g16
 Initial command:
 /apps/easybuild-2022/easybuild/software/Compiler/NVHPC/22.11-CUDA-11.7.0/Gaussian/g16c01-CUDA-11.7.0/g16/l1.exe "/tmp/Gau-238061.inp" -scrdir="/tmp/"
 Entering Link 1 = /apps/easybuild-2022/easybuild/software/Compiler/NVHPC/22.11-CUDA-11.7.0/Gaussian/g16c01-CUDA-11.7.0/g16/l1.exe PID=    238062.
  
 Copyright (c) 1988-2019, Gaussian, Inc.  All Rights Reserved.
  
 This is part of the Gaussian(R) 16 program.  It is based on
 the Gaussian(R) 09 system (copyright 2009, Gaussian, Inc.),
 the Gaussian(R) 03 system (copyright 2003, Gaussian, Inc.),
 the Gaussian(R) 98 system (copyright 1998, Gaussian, Inc.),
 the Gaussian(R) 94 system (copyright 1995, Gaussian, Inc.),
 the Gaussian 92(TM) system (copyright 1992, Gaussian, Inc.),
 the Gaussian 90(TM) system (copyright 1990, Gaussian, Inc.),
 the Gaussian 88(TM) system (copyright 1988, Gaussian, Inc.),
 the Gaussian 86(TM) system (copyright 1986, Carnegie Mellon
 University), and the Gaussian 82(TM) system (copyright 1983,
 Carnegie Mellon University). Gaussian is a federally registered
 trademark of Gaussian, Inc.
  
 This software contains proprietary and confidential information,
 including trade secrets, belonging to Gaussian, Inc.
  
 This software is provided under written license and may be
 used, copied, transmitted, or stored only in accord with that
 written license.
  
 The following legend is applicable only to US Government
 contracts under FAR:
  
                    RESTRICTED RIGHTS LEGEND
  
 Use, reproduction and disclosure by the US Government is
 subject to restrictions as set forth in subparagraphs (a)
 and (c) of the Commercial Computer Software - Restricted
 Rights clause in FAR 52.227-19.
  
 Gaussian, Inc.
 340 Quinnipiac St., Bldg. 40, Wallingford CT 06492
  
  
 ---------------------------------------------------------------
 Warning -- This program may not be used in any manner that
 competes with the business of Gaussian, Inc. or will provide
 assistance to any competitor of Gaussian, Inc.  The licensee
 of this program is prohibited from giving any competitor of
 Gaussian, Inc. access to this program.  By using this program,
 the user acknowledges that Gaussian, Inc. is engaged in the
 business of creating and licensing software in the field of
 computational chemistry and represents and warrants to the
 licensee that it is not a competitor of Gaussian, Inc. and that
 it will not use this program in any manner prohibited above.
 ---------------------------------------------------------------
  

 Cite this work as:
 Gaussian 16, Revision C.01,
 M. J. Frisch, G. W. Trucks, H. B. Schlegel, G. E. Scuseria, 
 M. A. Robb, J. R. Cheeseman, G. Scalmani, V. Barone, 
 G. A. Petersson, H. Nakatsuji, X. Li, M. Caricato, A. V. Marenich, 
 J. Bloino, B. G. Janesko, R. Gomperts, B. Mennucci, H. P. Hratchian, 
 J. V. Ortiz, A. F. Izmaylov, J. L. Sonnenberg, D. Williams-Young, 
 F. Ding, F. Lipparini, F. Egidi, J. Goings, B. Peng, A. Petrone, 
 T. Henderson, D. Ranasinghe, V. G. Zakrzewski, J. Gao, N. Rega, 
 G. Zheng, W. Liang, M. Hada, M. Ehara, K. Toyota, R. Fukuda, 
 J. Hasegawa, M. Ishida, T. Nakajima, Y. Honda, O. Kitao, H. Nakai, 
 T. Vreven, K. Throssell, J. A. Montgomery, Jr., J. E. Peralta, 
 F. Ogliaro, M. J. Bearpark, J. J. Heyd, E. N. Brothers, K. N. Kudin, 
 V. N. Staroverov, T. A. Keith, R. Kobayashi, J. Normand, 
 K. Raghavachari, A. P. Rendell, J. C. Burant, S. S. Iyengar, 
 J. Tomasi, M. Cossi, J. M. Millam, M. Klene, C. Adamo, R. Cammi, 
 J. W. Ochterski, R. L. Martin, K. Morokuma, O. Farkas, 
 J. B. Foresman, and D. J. Fox, Gaussian, Inc., Wallingford CT, 2019.
 
 ******************************************
 Gaussian 16:  ES64L-G16RevC.01  3-Jul-2019
                23-May-2025 
 ******************************************
 %mem=28GB
 %chk=1833195415772100000002_well
 %nprocshared=8
 Will use up to    8 processors via shared memory.
 ----------------------------------------------------------------------
 #P wb97xd/6-311++G(d,p) Symm(None) scf(xqc) pop(None) freq opt(CalcFC,
  Tight)
 ----------------------------------------------------------------------
 1/7=10,10=4,18=20,19=15,26=3,38=1/1,3;
 2/9=110,12=2,15=3,17=6,18=5,40=1/2;
 3/5=4,6=6,7=1111,11=2,25=1,30=1,71=2,74=-58,140=1/1,2,3;
 4//1;
 5/5=2,8=3,13=1,38=5/2,8;
 8/6=4,10=90,11=11/1;
 11/6=1,8=1,9=11,15=111,16=1,31=1/1,2,10;
 10/6=1,13=1,31=1/2;
 7/10=1,25=1,30=1/1,2,3,16;
 1/7=10,10=4,18=20,19=15,26=3/3(2);
 2/9=110,15=3/2;
 99//99;
 2/9=110,15=3/2;
 3/5=4,6=6,7=1111,11=2,25=1,30=1,71=1,74=-58/1,2,3;
 4/5=5,16=3,69=1/1;
 5/5=2,8=3,13=1,38=5/2,8;
 7/30=1/1,2,3,16;
 1/7=10,18=20,19=15,26=3/3(-5);
 2/9=110,15=3/2;
 99/9=1/99;
 Leave Link    1 at Fri May 23 02:05:54 2025, MaxMem=  3758096384 cpu:               0.1 elap:               0.0
 (Enter /apps/easybuild-2022/easybuild/software/Compiler/NVHPC/22.11-CUDA-11.7.0/Gaussian/g16c01-CUDA-11.7.0/g16/l101.exe)
 ------------------------------
 Gaussian input prepared by ASE
 ------------------------------
 Symbolic Z-matrix:
 Charge =  0 Multiplicity = 2
 C                    -0.70902   0.28058   1.33623 
 C                    -0.05847  -0.05126  -0.03811 
 F                    -0.38595  -1.29657  -0.38119 
 F                    -0.5193    0.79943  -0.95394 
 S                     1.81726   0.04084  -0.04661 
 O                     2.28256  -0.51307   1.19466 
 O                     2.23201  -0.42284  -1.33088 
 F                    -0.49221  -0.68577   2.20934 
 F                    -0.1993    1.42319   1.81639 
 F                    -2.01601   0.43922   1.17827 
 
 ITRead=  0  0  0  0  0  0  0  0  0  0
 MicOpt= -1 -1 -1 -1 -1 -1 -1 -1 -1 -1
 NAtoms=     10 NQM=       10 NQMF=       0 NMMI=      0 NMMIF=      0
                NMic=       0 NMicF=      0.
                    Isotopes and Nuclear Properties:
 (Nuclear quadrupole moments (NQMom) in fm**2, nuclear magnetic moments (NMagM)
  in nuclear magnetons)

  Atom         1           2           3           4           5           6           7           8           9          10
 IAtWgt=          12          12          19          19          32          16          16          19          19          19
 AtmWgt=  12.0000000  12.0000000  18.9984032  18.9984032  31.9720718  15.9949146  15.9949146  18.9984032  18.9984032  18.9984032
 NucSpn=           0           0           1           1           0           0           0           1           1           1
 AtZEff=  -0.0000000  -0.0000000  -0.0000000  -0.0000000  -0.0000000  -0.0000000  -0.0000000  -0.0000000  -0.0000000  -0.0000000
 NQMom=    0.0000000   0.0000000   0.0000000   0.0000000   0.0000000   0.0000000   0.0000000   0.0000000   0.0000000   0.0000000
 NMagM=    0.0000000   0.0000000   2.6288670   2.6288670   0.0000000   0.0000000   0.0000000   2.6288670   2.6288670   2.6288670
 AtZNuc=   6.0000000   6.0000000   9.0000000   9.0000000  16.0000000   8.0000000   8.0000000   9.0000000   9.0000000   9.0000000
 Leave Link  101 at Fri May 23 02:05:54 2025, MaxMem=  3758096384 cpu:               0.2 elap:               0.2
 (Enter /apps/easybuild-2022/easybuild/software/Compiler/NVHPC/22.11-CUDA-11.7.0/Gaussian/g16c01-CUDA-11.7.0/g16/l103.exe)

 GradGradGradGradGradGradGradGradGradGradGradGradGradGradGradGradGradGrad
 Berny optimization.
 Initialization pass.
                           ----------------------------
                           !    Initial Parameters    !
                           ! (Angstroms and Degrees)  !
 --------------------------                            --------------------------
 ! Name  Definition              Value          Derivative Info.                !
 --------------------------------------------------------------------------------
 ! R1    R(1,2)                  1.5563         calculate D2E/DX2 analytically  !
 ! R2    R(1,8)                  1.3203         calculate D2E/DX2 analytically  !
 ! R3    R(1,9)                  1.3401         calculate D2E/DX2 analytically  !
 ! R4    R(1,10)                 1.326          calculate D2E/DX2 analytically  !
 ! R5    R(2,3)                  1.3326         calculate D2E/DX2 analytically  !
 ! R6    R(2,4)                  1.3322         calculate D2E/DX2 analytically  !
 ! R7    R(2,5)                  1.878          calculate D2E/DX2 analytically  !
 ! R8    R(5,6)                  1.4367         calculate D2E/DX2 analytically  !
 ! R9    R(5,7)                  1.427          calculate D2E/DX2 analytically  !
 ! A1    A(2,1,8)              111.0558         calculate D2E/DX2 analytically  !
 ! A2    A(2,1,9)              109.8283         calculate D2E/DX2 analytically  !
 ! A3    A(2,1,10)             109.4094         calculate D2E/DX2 analytically  !
 ! A4    A(8,1,9)              108.9446         calculate D2E/DX2 analytically  !
 ! A5    A(8,1,10)             109.1591         calculate D2E/DX2 analytically  !
 ! A6    A(9,1,10)             108.3955         calculate D2E/DX2 analytically  !
 ! A7    A(1,2,3)              108.8976         calculate D2E/DX2 analytically  !
 ! A8    A(1,2,4)              109.046          calculate D2E/DX2 analytically  !
 ! A9    A(1,2,5)              114.2698         calculate D2E/DX2 analytically  !
 ! A10   A(3,2,4)              109.557          calculate D2E/DX2 analytically  !
 ! A11   A(3,2,5)              106.8649         calculate D2E/DX2 analytically  !
 ! A12   A(4,2,5)              108.1239         calculate D2E/DX2 analytically  !
 ! A13   A(2,5,6)              107.4974         calculate D2E/DX2 analytically  !
 ! A14   A(2,5,7)              106.1663         calculate D2E/DX2 analytically  !
 ! A15   A(6,5,7)              123.928          calculate D2E/DX2 analytically  !
 ! D1    D(8,1,2,3)             48.0911         calculate D2E/DX2 analytically  !
 ! D2    D(8,1,2,4)            167.5953         calculate D2E/DX2 analytically  !
 ! D3    D(8,1,2,5)            -71.297          calculate D2E/DX2 analytically  !
 ! D4    D(9,1,2,3)            168.6632         calculate D2E/DX2 analytically  !
 ! D5    D(9,1,2,4)            -71.8326         calculate D2E/DX2 analytically  !
 ! D6    D(9,1,2,5)             49.2751         calculate D2E/DX2 analytically  !
 ! D7    D(10,1,2,3)           -72.4734         calculate D2E/DX2 analytically  !
 ! D8    D(10,1,2,4)            47.0308         calculate D2E/DX2 analytically  !
 ! D9    D(10,1,2,5)           168.1385         calculate D2E/DX2 analytically  !
 ! D10   D(1,2,5,6)             39.6992         calculate D2E/DX2 analytically  !
 ! D11   D(1,2,5,7)            174.1832         calculate D2E/DX2 analytically  !
 ! D12   D(3,2,5,6)            -80.827          calculate D2E/DX2 analytically  !
 ! D13   D(3,2,5,7)             53.6571         calculate D2E/DX2 analytically  !
 ! D14   D(4,2,5,6)            161.3156         calculate D2E/DX2 analytically  !
 ! D15   D(4,2,5,7)            -64.2004         calculate D2E/DX2 analytically  !
 --------------------------------------------------------------------------------
 Trust Radius=3.00D-01 FncErr=1.00D-07 GrdErr=1.00D-06 EigMax=2.50D+02 EigMin=1.00D-04
 Number of steps in this run=     49 maximum allowed number of steps=    100.
 GradGradGradGradGradGradGradGradGradGradGradGradGradGradGradGradGradGrad

 Leave Link  103 at Fri May 23 02:05:54 2025, MaxMem=  3758096384 cpu:               0.0 elap:               0.0
 (Enter /apps/easybuild-2022/easybuild/software/Compiler/NVHPC/22.11-CUDA-11.7.0/Gaussian/g16c01-CUDA-11.7.0/g16/l202.exe)
                          Input orientation:                          
 ---------------------------------------------------------------------
 Center     Atomic      Atomic             Coordinates (Angstroms)
 Number     Number       Type             X           Y           Z
 ---------------------------------------------------------------------
      1          6           0       -0.709015    0.280581    1.336234
      2          6           0       -0.058467   -0.051255   -0.038113
      3          9           0       -0.385948   -1.296568   -0.381185
      4          9           0       -0.519296    0.799425   -0.953941
      5         16           0        1.817262    0.040839   -0.046608
      6          8           0        2.282562   -0.513068    1.194661
      7          8           0        2.232011   -0.422843   -1.330877
      8          9           0       -0.492209   -0.685765    2.209339
      9          9           0       -0.199297    1.423189    1.816388
     10          9           0       -2.016015    0.439216    1.178273
 ---------------------------------------------------------------------
                    Distance matrix (angstroms):
                    1          2          3          4          5
     1  C    0.000000
     2  C    1.556328   0.000000
     3  F    2.353996   1.332571   0.000000
     4  F    2.355864   1.332201   2.176929   0.000000
     5  S    2.889949   1.878008   2.598987   2.618818   0.000000
     6  O    3.098299   2.685781   3.196578   3.766900   1.436686
     7  O    4.032111   2.656239   2.918736   3.034091   1.427012
     8  F    1.320281   2.375242   2.663679   3.494691   3.309215
     9  F    1.340117   2.373393   3.501606   2.857657   3.073785
    10  F    1.326034   2.356300   2.846397   2.629877   4.043890
                    6          7          8          9         10
     6  O    0.000000
     7  O    2.527655   0.000000
     8  F    2.959519   4.474777   0.000000
     9  F    3.208623   4.384560   2.165155   0.000000
    10  F    4.402826   5.008463   2.156540   2.162373   0.000000
 Symmetry turned off by external request.
 Stoichiometry    C2F5O2S
 Rotational constants (GHZ):           1.8874182           0.9839234           0.8498424
 Leave Link  202 at Fri May 23 02:05:54 2025, MaxMem=  3758096384 cpu:               0.1 elap:               0.0
 (Enter /apps/easybuild-2022/easybuild/software/Compiler/NVHPC/22.11-CUDA-11.7.0/Gaussian/g16c01-CUDA-11.7.0/g16/l301.exe)
 Standard basis: 6-311++G(d,p) (5D, 7F)
 Ernie: Thresh=  0.10000D-02 Tol=  0.10000D-05 Strict=F.
   228 basis functions,   374 primitive gaussians,   238 cartesian basis functions
    45 alpha electrons       44 beta electrons
       nuclear repulsion energy       763.3533789421 Hartrees.
 IExCor= 4639 DFT=T Ex+Corr=wB97XD ExCW=0 ScaHFX=  1.000000
 ScaDFX=  1.000000  1.000000  1.000000  1.000000 ScalE2=  1.000000  1.000000
 IRadAn=      5 IRanWt=     -1 IRanGd=            0 ICorTp=0 IEmpDi=121
 HFx  wShort=  0.000000 wLong=  0.200000 cFull=  0.222036 cShort=  0.000000 cLong=  0.777964
 DFx  wShort=  0.000000 wLong=  0.200000 cFull=  0.000000 cShort=  0.000000 cLong=  1.000000
 NAtoms=   10 NActive=   10 NUniq=   10 SFac= 1.00D+00 NAtFMM=   60 NAOKFM=F Big=F
 Integral buffers will be    131072 words long.
 Raffenetti 2 integral format.
 Two-electron integral symmetry is turned off.
 R6Disp:  Grimme-D2 Dispersion energy=       -0.0040205671 Hartrees.
 Nuclear repulsion after empirical dispersion term =      763.3493583749 Hartrees.
 Leave Link  301 at Fri May 23 02:05:55 2025, MaxMem=  3758096384 cpu:               0.1 elap:               0.1
 (Enter /apps/easybuild-2022/easybuild/software/Compiler/NVHPC/22.11-CUDA-11.7.0/Gaussian/g16c01-CUDA-11.7.0/g16/l302.exe)
 NPDir=0 NMtPBC=     1 NCelOv=     1 NCel=       1 NClECP=     1 NCelD=      1
         NCelK=      1 NCelE2=     1 NClLst=     1 CellRange=     0.0.
 One-electron integrals computed using PRISM.
 NBasis=   228 RedAO= T EigKep=  8.12D-05  NBF=   228
 NBsUse=   228 1.00D-06 EigRej= -1.00D+00 NBFU=   228
 Precomputing XC quadrature grid using
 IXCGrd= 4 IRadAn=           5 IRanWt=          -1 IRanGd=           0 AccXCQ= 0.00D+00.
 Generated NRdTot=       0 NPtTot=           0 NUsed=           0 NTot=          32
 NSgBfM=   238   238   238   238   238 MxSgAt=    10 MxSgA2=    10.
 Leave Link  302 at Fri May 23 02:05:55 2025, MaxMem=  3758096384 cpu:               0.5 elap:               0.1
 (Enter /apps/easybuild-2022/easybuild/software/Compiler/NVHPC/22.11-CUDA-11.7.0/Gaussian/g16c01-CUDA-11.7.0/g16/l303.exe)
 DipDrv:  MaxL=1.
 Leave Link  303 at Fri May 23 02:05:55 2025, MaxMem=  3758096384 cpu:               0.1 elap:               0.0
 (Enter /apps/easybuild-2022/easybuild/software/Compiler/NVHPC/22.11-CUDA-11.7.0/Gaussian/g16c01-CUDA-11.7.0/g16/l401.exe)
 ExpMin= 4.05D-02 ExpMax= 9.34D+04 ExpMxC= 3.17D+03 IAcc=3 IRadAn=         5 AccDes= 0.00D+00
 Harris functional with IExCor= 4639 and IRadAn=       5 diagonalized for initial guess.
 HarFok:  IExCor= 4639 AccDes= 0.00D+00 IRadAn=         5 IDoV= 1 UseB2=F ITyADJ=14
 ICtDFT=  3500011 ScaDFX=  1.000000  1.000000  1.000000  1.000000
 FoFCou: FMM=F IPFlag=           0 FMFlag=      100000 FMFlg1=           0
         NFxFlg=           0 DoJE=T BraDBF=F KetDBF=T FulRan=T
         wScrn=  0.000000 ICntrl=       500 IOpCl=  0 I1Cent=   200000004 NGrid=           0
         NMat0=    1 NMatS0=      1 NMatT0=    0 NMatD0=    1 NMtDS0=    0 NMtDT0=    0
 Symmetry not used in FoFCou.
 Harris En= -1093.89277454993    
 JPrj=0 DoOrth=F DoCkMO=F.
 Initial guess <Sx>= 0.0000 <Sy>= 0.0000 <Sz>= 0.5000 <S**2>= 0.7500 S= 0.5000
 Leave Link  401 at Fri May 23 02:05:55 2025, MaxMem=  3758096384 cpu:               1.7 elap:               0.3
 (Enter /apps/easybuild-2022/easybuild/software/Compiler/NVHPC/22.11-CUDA-11.7.0/Gaussian/g16c01-CUDA-11.7.0/g16/l502.exe)
 Keep R1 and R2 ints in memory in canonical form, NReq=1377644284.
 FoFCou: FMM=F IPFlag=           0 FMFlag=           0 FMFlg1=           0
         NFxFlg=           0 DoJE=F BraDBF=F KetDBF=F FulRan=T
         wScrn=  0.000000 ICntrl=       600 IOpCl=  0 I1Cent=           0 NGrid=           0
         NMat0=    1 NMatS0=  26106 NMatT0=    0 NMatD0=    1 NMtDS0=    0 NMtDT0=    0
 Symmetry not used in FoFCou.
 Two-electron integral symmetry not used.
 UHF open shell SCF:
 Using DIIS extrapolation, IDIIS=  1040.
 NGot=  3758096384 LenX=  2394880612 LenY=  2394823527
 Requested convergence on RMS density matrix=1.00D-08 within  32 cycles.
 Requested convergence on MAX density matrix=1.00D-06.
 Requested convergence on             energy=1.00D-06.
 No special actions if energy rises.

 Cycle   1  Pass 1  IDiag  1:
 E= -1123.28967568958    
 DIIS: error= 1.24D-01 at cycle   1 NSaved=   1.
 NSaved= 1 IEnMin= 1 EnMin= -1123.28967568958     IErMin= 1 ErrMin= 1.24D-01
 ErrMax= 1.24D-01  0.00D+00 EMaxC= 1.00D-01 BMatC= 1.26D+01 BMatP= 1.26D+01
 IDIUse=3 WtCom= 0.00D+00 WtEn= 1.00D+00
 Coeff-Com:  0.100D+01
 Coeff-En:   0.100D+01
 Coeff:      0.100D+01
 Gap=     0.513 Goal=   None    Shift=    0.000
 Gap=     0.412 Goal=   None    Shift=    0.000
 GapD=    0.412 DampG=2.000 DampE=0.250 DampFc=0.5000 IDamp=-1.
 Damping current iteration by 5.00D-01
 RMSDP=1.22D-02 MaxDP=1.51D+00              OVMax= 2.37D-01

 Cycle   2  Pass 1  IDiag  1:
 E= -1123.64159813861     Delta-E=       -0.351922449033 Rises=F Damp=T
 DIIS: error= 5.38D-02 at cycle   2 NSaved=   2.
 NSaved= 2 IEnMin= 2 EnMin= -1123.64159813861     IErMin= 2 ErrMin= 5.38D-02
 ErrMax= 5.38D-02  0.00D+00 EMaxC= 1.00D-01 BMatC= 1.80D+00 BMatP= 1.26D+01
 IDIUse=3 WtCom= 4.62D-01 WtEn= 5.38D-01
 Coeff-Com: -0.400D+00 0.140D+01
 Coeff-En:   0.000D+00 0.100D+01
 Coeff:     -0.185D+00 0.119D+01
 Gap=     0.463 Goal=   None    Shift=    0.000
 Gap=     0.367 Goal=   None    Shift=    0.000
 RMSDP=5.68D-03 MaxDP=7.99D-01 DE=-3.52D-01 OVMax= 1.04D-01

 Cycle   3  Pass 1  IDiag  1:
 E= -1123.93611015345     Delta-E=       -0.294512014843 Rises=F Damp=F
 DIIS: error= 1.02D-02 at cycle   3 NSaved=   3.
 NSaved= 3 IEnMin= 3 EnMin= -1123.93611015345     IErMin= 3 ErrMin= 1.02D-02
 ErrMax= 1.02D-02  0.00D+00 EMaxC= 1.00D-01 BMatC= 1.85D-01 BMatP= 1.80D+00
 IDIUse=3 WtCom= 8.98D-01 WtEn= 1.02D-01
 Coeff-Com: -0.139D+00 0.415D+00 0.724D+00
 Coeff-En:   0.000D+00 0.000D+00 0.100D+01
 Coeff:     -0.125D+00 0.373D+00 0.752D+00
 Gap=     0.416 Goal=   None    Shift=    0.000
 Gap=     0.337 Goal=   None    Shift=    0.000
 RMSDP=1.38D-03 MaxDP=5.76D-02 DE=-2.95D-01 OVMax= 5.01D-02

 Cycle   4  Pass 1  IDiag  1:
 E= -1123.95729106421     Delta-E=       -0.021180910758 Rises=F Damp=F
 DIIS: error= 6.72D-03 at cycle   4 NSaved=   4.
 NSaved= 4 IEnMin= 4 EnMin= -1123.95729106421     IErMin= 4 ErrMin= 6.72D-03
 ErrMax= 6.72D-03  0.00D+00 EMaxC= 1.00D-01 BMatC= 4.92D-02 BMatP= 1.85D-01
 IDIUse=3 WtCom= 9.33D-01 WtEn= 6.72D-02
 Coeff-Com: -0.204D-01 0.531D-01 0.354D+00 0.613D+00
 Coeff-En:   0.000D+00 0.000D+00 0.197D+00 0.803D+00
 Coeff:     -0.191D-01 0.495D-01 0.344D+00 0.626D+00
 Gap=     0.417 Goal=   None    Shift=    0.000
 Gap=     0.337 Goal=   None    Shift=    0.000
 RMSDP=7.14D-04 MaxDP=4.21D-02 DE=-2.12D-02 OVMax= 2.05D-02

 Cycle   5  Pass 1  IDiag  1:
 E= -1123.96510181015     Delta-E=       -0.007810745938 Rises=F Damp=F
 DIIS: error= 1.95D-03 at cycle   5 NSaved=   5.
 NSaved= 5 IEnMin= 5 EnMin= -1123.96510181015     IErMin= 5 ErrMin= 1.95D-03
 ErrMax= 1.95D-03  0.00D+00 EMaxC= 1.00D-01 BMatC= 2.67D-03 BMatP= 4.92D-02
 IDIUse=3 WtCom= 9.81D-01 WtEn= 1.95D-02
 Coeff-Com: -0.229D-02 0.446D-02 0.143D+00 0.318D+00 0.537D+00
 Coeff-En:   0.000D+00 0.000D+00 0.000D+00 0.000D+00 0.100D+01
 Coeff:     -0.225D-02 0.438D-02 0.140D+00 0.311D+00 0.546D+00
 Gap=     0.415 Goal=   None    Shift=    0.000
 Gap=     0.335 Goal=   None    Shift=    0.000
 RMSDP=1.46D-04 MaxDP=8.13D-03 DE=-7.81D-03 OVMax= 7.09D-03

 Cycle   6  Pass 1  IDiag  1:
 E= -1123.96556015822     Delta-E=       -0.000458348068 Rises=F Damp=F
 DIIS: error= 5.11D-04 at cycle   6 NSaved=   6.
 NSaved= 6 IEnMin= 6 EnMin= -1123.96556015822     IErMin= 6 ErrMin= 5.11D-04
 ErrMax= 5.11D-04  0.00D+00 EMaxC= 1.00D-01 BMatC= 1.68D-04 BMatP= 2.67D-03
 IDIUse=3 WtCom= 9.95D-01 WtEn= 5.11D-03
 Coeff-Com:  0.371D-02-0.945D-02-0.259D-01-0.274D-01 0.143D+00 0.916D+00
 Coeff-En:   0.000D+00 0.000D+00 0.000D+00 0.000D+00 0.000D+00 0.100D+01
 Coeff:      0.369D-02-0.940D-02-0.258D-01-0.273D-01 0.142D+00 0.916D+00
 Gap=     0.417 Goal=   None    Shift=    0.000
 Gap=     0.335 Goal=   None    Shift=    0.000
 RMSDP=1.17D-04 MaxDP=9.06D-03 DE=-4.58D-04 OVMax= 8.07D-03

 Cycle   7  Pass 1  IDiag  1:
 E= -1123.96565373716     Delta-E=       -0.000093578944 Rises=F Damp=F
 DIIS: error= 2.76D-04 at cycle   7 NSaved=   7.
 NSaved= 7 IEnMin= 7 EnMin= -1123.96565373716     IErMin= 7 ErrMin= 2.76D-04
 ErrMax= 2.76D-04  0.00D+00 EMaxC= 1.00D-01 BMatC= 4.74D-05 BMatP= 1.68D-04
 IDIUse=3 WtCom= 9.97D-01 WtEn= 2.76D-03
 Coeff-Com:  0.209D-02-0.493D-02-0.320D-01-0.592D-01-0.218D-01 0.393D+00
 Coeff-Com:  0.722D+00
 Coeff-En:   0.000D+00 0.000D+00 0.000D+00 0.000D+00 0.000D+00 0.000D+00
 Coeff-En:   0.100D+01
 Coeff:      0.209D-02-0.491D-02-0.319D-01-0.590D-01-0.217D-01 0.392D+00
 Coeff:      0.723D+00
 Gap=     0.417 Goal=   None    Shift=    0.000
 Gap=     0.335 Goal=   None    Shift=    0.000
 RMSDP=5.56D-05 MaxDP=3.53D-03 DE=-9.36D-05 OVMax= 4.74D-03

 Cycle   8  Pass 1  IDiag  1:
 E= -1123.96567725869     Delta-E=       -0.000023521531 Rises=F Damp=F
 DIIS: error= 1.80D-04 at cycle   8 NSaved=   8.
 NSaved= 8 IEnMin= 8 EnMin= -1123.96567725869     IErMin= 8 ErrMin= 1.80D-04
 ErrMax= 1.80D-04  0.00D+00 EMaxC= 1.00D-01 BMatC= 2.01D-05 BMatP= 4.74D-05
 IDIUse=3 WtCom= 9.98D-01 WtEn= 1.80D-03
 Coeff-Com:  0.388D-03-0.731D-03-0.126D-01-0.292D-01-0.453D-01 0.998D-03
 Coeff-Com:  0.442D+00 0.645D+00
 Coeff-En:   0.000D+00 0.000D+00 0.000D+00 0.000D+00 0.000D+00 0.000D+00
 Coeff-En:   0.000D+00 0.100D+01
 Coeff:      0.387D-03-0.730D-03-0.126D-01-0.291D-01-0.453D-01 0.996D-03
 Coeff:      0.441D+00 0.645D+00
 Gap=     0.417 Goal=   None    Shift=    0.000
 Gap=     0.335 Goal=   None    Shift=    0.000
 RMSDP=2.59D-05 MaxDP=1.32D-03 DE=-2.35D-05 OVMax= 3.24D-03

 Cycle   9  Pass 1  IDiag  1:
 E= -1123.96568726719     Delta-E=       -0.000010008493 Rises=F Damp=F
 DIIS: error= 6.57D-05 at cycle   9 NSaved=   9.
 NSaved= 9 IEnMin= 9 EnMin= -1123.96568726719     IErMin= 9 ErrMin= 6.57D-05
 ErrMax= 6.57D-05  0.00D+00 EMaxC= 1.00D-01 BMatC= 3.11D-06 BMatP= 2.01D-05
 IDIUse=1 WtCom= 1.00D+00 WtEn= 0.00D+00
 Coeff-Com: -0.699D-03 0.165D-02 0.890D-02 0.144D-01 0.652D-02-0.146D+00
 Coeff-Com: -0.160D+00 0.142D+00 0.113D+01
 Coeff:     -0.699D-03 0.165D-02 0.890D-02 0.144D-01 0.652D-02-0.146D+00
 Coeff:     -0.160D+00 0.142D+00 0.113D+01
 Gap=     0.417 Goal=   None    Shift=    0.000
 Gap=     0.335 Goal=   None    Shift=    0.000
 RMSDP=2.22D-05 MaxDP=1.16D-03 DE=-1.00D-05 OVMax= 3.11D-03

 Cycle  10  Pass 1  IDiag  1:
 E= -1123.96569142921     Delta-E=       -0.000004162021 Rises=F Damp=F
 DIIS: error= 3.28D-05 at cycle  10 NSaved=  10.
 NSaved=10 IEnMin=10 EnMin= -1123.96569142921     IErMin=10 ErrMin= 3.28D-05
 ErrMax= 3.28D-05  0.00D+00 EMaxC= 1.00D-01 BMatC= 5.42D-07 BMatP= 3.11D-06
 IDIUse=1 WtCom= 1.00D+00 WtEn= 0.00D+00
 Coeff-Com: -0.211D-03 0.466D-03 0.496D-02 0.102D-01 0.132D-01-0.372D-01
 Coeff-Com: -0.139D+00-0.103D+00 0.311D+00 0.939D+00
 Coeff:     -0.211D-03 0.466D-03 0.496D-02 0.102D-01 0.132D-01-0.372D-01
 Coeff:     -0.139D+00-0.103D+00 0.311D+00 0.939D+00
 Gap=     0.417 Goal=   None    Shift=    0.000
 Gap=     0.335 Goal=   None    Shift=    0.000
 RMSDP=9.45D-06 MaxDP=3.60D-04 DE=-4.16D-06 OVMax= 1.41D-03

 Cycle  11  Pass 1  IDiag  1:
 E= -1123.96569220364     Delta-E=       -0.000000774434 Rises=F Damp=F
 DIIS: error= 1.33D-05 at cycle  11 NSaved=  11.
 NSaved=11 IEnMin=11 EnMin= -1123.96569220364     IErMin=11 ErrMin= 1.33D-05
 ErrMax= 1.33D-05  0.00D+00 EMaxC= 1.00D-01 BMatC= 1.21D-07 BMatP= 5.42D-07
 IDIUse=1 WtCom= 1.00D+00 WtEn= 0.00D+00
 Coeff-Com:  0.153D-03-0.357D-03-0.151D-02-0.213D-02-0.127D-02 0.290D-01
 Coeff-Com:  0.298D-01-0.437D-01-0.239D+00 0.143D+00 0.109D+01
 Coeff:      0.153D-03-0.357D-03-0.151D-02-0.213D-02-0.127D-02 0.290D-01
 Coeff:      0.298D-01-0.437D-01-0.239D+00 0.143D+00 0.109D+01
 Gap=     0.417 Goal=   None    Shift=    0.000
 Gap=     0.335 Goal=   None    Shift=    0.000
 RMSDP=4.73D-06 MaxDP=1.75D-04 DE=-7.74D-07 OVMax= 6.19D-04

 Cycle  12  Pass 1  IDiag  1:
 E= -1123.96569236125     Delta-E=       -0.000000157611 Rises=F Damp=F
 DIIS: error= 5.18D-06 at cycle  12 NSaved=  12.
 NSaved=12 IEnMin=12 EnMin= -1123.96569236125     IErMin=12 ErrMin= 5.18D-06
 ErrMax= 5.18D-06  0.00D+00 EMaxC= 1.00D-01 BMatC= 3.24D-08 BMatP= 1.21D-07
 IDIUse=1 WtCom= 1.00D+00 WtEn= 0.00D+00
 Coeff-Com:  0.102D-03-0.234D-03-0.162D-02-0.299D-02-0.372D-02 0.191D-01
 Coeff-Com:  0.435D-01 0.362D-02-0.171D+00-0.147D+00 0.460D+00 0.800D+00
 Coeff:      0.102D-03-0.234D-03-0.162D-02-0.299D-02-0.372D-02 0.191D-01
 Coeff:      0.435D-01 0.362D-02-0.171D+00-0.147D+00 0.460D+00 0.800D+00
 Gap=     0.417 Goal=   None    Shift=    0.000
 Gap=     0.335 Goal=   None    Shift=    0.000
 RMSDP=1.85D-06 MaxDP=6.99D-05 DE=-1.58D-07 OVMax= 2.28D-04

 Cycle  13  Pass 1  IDiag  1:
 E= -1123.96569238520     Delta-E=       -0.000000023944 Rises=F Damp=F
 DIIS: error= 1.16D-06 at cycle  13 NSaved=  13.
 NSaved=13 IEnMin=13 EnMin= -1123.96569238520     IErMin=13 ErrMin= 1.16D-06
 ErrMax= 1.16D-06  0.00D+00 EMaxC= 1.00D-01 BMatC= 3.15D-09 BMatP= 3.24D-08
 IDIUse=1 WtCom= 1.00D+00 WtEn= 0.00D+00
 Coeff-Com: -0.695D-05 0.169D-04-0.363D-04-0.184D-03-0.385D-03-0.113D-02
 Coeff-Com:  0.254D-02 0.719D-02 0.110D-01-0.519D-01-0.946D-01 0.167D+00
 Coeff-Com:  0.961D+00
 Coeff:     -0.695D-05 0.169D-04-0.363D-04-0.184D-03-0.385D-03-0.113D-02
 Coeff:      0.254D-02 0.719D-02 0.110D-01-0.519D-01-0.946D-01 0.167D+00
 Coeff:      0.961D+00
 Gap=     0.417 Goal=   None    Shift=    0.000
 Gap=     0.335 Goal=   None    Shift=    0.000
 RMSDP=5.54D-07 MaxDP=2.31D-05 DE=-2.39D-08 OVMax= 5.84D-05

 Cycle  14  Pass 1  IDiag  1:
 E= -1123.96569238771     Delta-E=       -0.000000002514 Rises=F Damp=F
 DIIS: error= 4.87D-07 at cycle  14 NSaved=  14.
 NSaved=14 IEnMin=14 EnMin= -1123.96569238771     IErMin=14 ErrMin= 4.87D-07
 ErrMax= 4.87D-07  0.00D+00 EMaxC= 1.00D-01 BMatC= 5.10D-10 BMatP= 3.15D-09
 IDIUse=1 WtCom= 1.00D+00 WtEn= 0.00D+00
 Coeff-Com: -0.174D-04 0.397D-04 0.224D-03 0.395D-03 0.444D-03-0.293D-02
 Coeff-Com: -0.577D-02 0.680D-03 0.278D-01 0.902D-02-0.906D-01-0.722D-01
 Coeff-Com:  0.228D+00 0.905D+00
 Coeff:     -0.174D-04 0.397D-04 0.224D-03 0.395D-03 0.444D-03-0.293D-02
 Coeff:     -0.577D-02 0.680D-03 0.278D-01 0.902D-02-0.906D-01-0.722D-01
 Coeff:      0.228D+00 0.905D+00
 Gap=     0.417 Goal=   None    Shift=    0.000
 Gap=     0.335 Goal=   None    Shift=    0.000
 RMSDP=2.10D-07 MaxDP=9.91D-06 DE=-2.51D-09 OVMax= 1.58D-05

 Cycle  15  Pass 1  IDiag  1:
 E= -1123.96569238810     Delta-E=       -0.000000000387 Rises=F Damp=F
 DIIS: error= 2.60D-07 at cycle  15 NSaved=  15.
 NSaved=15 IEnMin=15 EnMin= -1123.96569238810     IErMin=15 ErrMin= 2.60D-07
 ErrMax= 2.60D-07  0.00D+00 EMaxC= 1.00D-01 BMatC= 1.21D-10 BMatP= 5.10D-10
 IDIUse=1 WtCom= 1.00D+00 WtEn= 0.00D+00
 Coeff-Com: -0.536D-05 0.119D-04 0.844D-04 0.178D-03 0.200D-03-0.841D-03
 Coeff-Com: -0.237D-02-0.115D-02 0.774D-02 0.131D-01-0.146D-01-0.590D-01
 Coeff-Com: -0.922D-01 0.308D+00 0.840D+00
 Coeff:     -0.536D-05 0.119D-04 0.844D-04 0.178D-03 0.200D-03-0.841D-03
 Coeff:     -0.237D-02-0.115D-02 0.774D-02 0.131D-01-0.146D-01-0.590D-01
 Coeff:     -0.922D-01 0.308D+00 0.840D+00
 Gap=     0.417 Goal=   None    Shift=    0.000
 Gap=     0.335 Goal=   None    Shift=    0.000
 RMSDP=8.70D-08 MaxDP=3.76D-06 DE=-3.87D-10 OVMax= 5.30D-06

 Cycle  16  Pass 1  IDiag  1:
 E= -1123.96569238816     Delta-E=       -0.000000000064 Rises=F Damp=F
 DIIS: error= 1.18D-07 at cycle  16 NSaved=  16.
 NSaved=16 IEnMin=16 EnMin= -1123.96569238816     IErMin=16 ErrMin= 1.18D-07
 ErrMax= 1.18D-07  0.00D+00 EMaxC= 1.00D-01 BMatC= 2.10D-11 BMatP= 1.21D-10
 IDIUse=1 WtCom= 1.00D+00 WtEn= 0.00D+00
 Coeff-Com:  0.273D-06-0.728D-06 0.267D-05 0.187D-04 0.168D-04 0.528D-04
 Coeff-Com: -0.996D-04-0.610D-03-0.800D-03 0.435D-02 0.716D-02-0.155D-01
 Coeff-Com: -0.711D-01-0.797D-02 0.333D+00 0.752D+00
 Coeff:      0.273D-06-0.728D-06 0.267D-05 0.187D-04 0.168D-04 0.528D-04
 Coeff:     -0.996D-04-0.610D-03-0.800D-03 0.435D-02 0.716D-02-0.155D-01
 Coeff:     -0.711D-01-0.797D-02 0.333D+00 0.752D+00
 Gap=     0.417 Goal=   None    Shift=    0.000
 Gap=     0.335 Goal=   None    Shift=    0.000
 RMSDP=3.07D-08 MaxDP=1.14D-06 DE=-6.37D-11 OVMax= 2.01D-06

 Cycle  17  Pass 1  IDiag  1:
 E= -1123.96569238817     Delta-E=       -0.000000000010 Rises=F Damp=F
 DIIS: error= 6.56D-08 at cycle  17 NSaved=  17.
 NSaved=17 IEnMin=17 EnMin= -1123.96569238817     IErMin=17 ErrMin= 6.56D-08
 ErrMax= 6.56D-08  0.00D+00 EMaxC= 1.00D-01 BMatC= 2.47D-12 BMatP= 2.10D-11
 IDIUse=1 WtCom= 1.00D+00 WtEn= 0.00D+00
 Coeff-Com:  0.948D-06-0.209D-05-0.130D-04-0.262D-04-0.258D-04 0.127D-03
 Coeff-Com:  0.394D-03 0.648D-04-0.131D-02-0.157D-02 0.298D-02 0.768D-02
 Coeff-Com:  0.829D-02-0.509D-01-0.109D+00 0.632D-01 0.108D+01
 Coeff:      0.948D-06-0.209D-05-0.130D-04-0.262D-04-0.258D-04 0.127D-03
 Coeff:      0.394D-03 0.648D-04-0.131D-02-0.157D-02 0.298D-02 0.768D-02
 Coeff:      0.829D-02-0.509D-01-0.109D+00 0.632D-01 0.108D+01
 Gap=     0.417 Goal=   None    Shift=    0.000
 Gap=     0.335 Goal=   None    Shift=    0.000
 RMSDP=1.86D-08 MaxDP=9.25D-07 DE=-9.55D-12 OVMax= 1.74D-06

 Cycle  18  Pass 1  IDiag  1:
 E= -1123.96569238818     Delta-E=       -0.000000000006 Rises=F Damp=F
 DIIS: error= 3.80D-08 at cycle  18 NSaved=  18.
 NSaved=18 IEnMin=18 EnMin= -1123.96569238818     IErMin=18 ErrMin= 3.80D-08
 ErrMax= 3.80D-08  0.00D+00 EMaxC= 1.00D-01 BMatC= 5.43D-13 BMatP= 2.47D-12
 IDIUse=1 WtCom= 1.00D+00 WtEn= 0.00D+00
 Coeff-Com: -0.114D-06 0.270D-06 0.452D-06-0.186D-05-0.172D-05-0.174D-04
 Coeff-Com:  0.205D-04 0.635D-04 0.223D-03-0.756D-03-0.137D-02 0.253D-02
 Coeff-Com:  0.127D-01 0.284D-02-0.537D-01-0.125D+00-0.210D-01 0.118D+01
 Coeff:     -0.114D-06 0.270D-06 0.452D-06-0.186D-05-0.172D-05-0.174D-04
 Coeff:      0.205D-04 0.635D-04 0.223D-03-0.756D-03-0.137D-02 0.253D-02
 Coeff:      0.127D-01 0.284D-02-0.537D-01-0.125D+00-0.210D-01 0.118D+01
 Gap=     0.417 Goal=   None    Shift=    0.000
 Gap=     0.335 Goal=   None    Shift=    0.000
 RMSDP=1.03D-08 MaxDP=3.85D-07 DE=-5.91D-12 OVMax= 1.18D-06

 Cycle  19  Pass 1  IDiag  1:
 E= -1123.96569238819     Delta-E=       -0.000000000016 Rises=F Damp=F
 DIIS: error= 1.74D-08 at cycle  19 NSaved=  19.
 NSaved=19 IEnMin=19 EnMin= -1123.96569238819     IErMin=19 ErrMin= 1.74D-08
 ErrMax= 1.74D-08  0.00D+00 EMaxC= 1.00D-01 BMatC= 2.09D-13 BMatP= 5.43D-13
 IDIUse=1 WtCom= 1.00D+00 WtEn= 0.00D+00
 Coeff-Com: -0.237D-06 0.527D-06 0.272D-05 0.467D-05 0.400D-05-0.313D-04
 Coeff-Com: -0.657D-04-0.866D-05 0.356D-03 0.629D-04-0.105D-02-0.789D-03
 Coeff-Com:  0.244D-02 0.117D-01 0.568D-02-0.589D-01-0.258D+00 0.452D+00
 Coeff-Com:  0.847D+00
 Coeff:     -0.237D-06 0.527D-06 0.272D-05 0.467D-05 0.400D-05-0.313D-04
 Coeff:     -0.657D-04-0.866D-05 0.356D-03 0.629D-04-0.105D-02-0.789D-03
 Coeff:      0.244D-02 0.117D-01 0.568D-02-0.589D-01-0.258D+00 0.452D+00
 Coeff:      0.847D+00
 Gap=     0.417 Goal=   None    Shift=    0.000
 Gap=     0.335 Goal=   None    Shift=    0.000
 RMSDP=4.93D-09 MaxDP=1.84D-07 DE=-1.59D-11 OVMax= 6.19D-07

 SCF Done:  E(UwB97XD) =  -1123.96569239     A.U. after   19 cycles
            NFock= 19  Conv=0.49D-08     -V/T= 2.0018
 <Sx>= 0.0000 <Sy>= 0.0000 <Sz>= 0.5000 <S**2>= 0.7556 S= 0.5028
 <L.S>=  0.00000000000    
 KE= 1.122000575873D+03 PE=-4.194848211824D+03 EE= 1.185532585188D+03
 Annihilation of the first spin contaminant:
 S**2 before annihilation     0.7556,   after     0.7500
 Leave Link  502 at Fri May 23 02:06:16 2025, MaxMem=  3758096384 cpu:              86.8 elap:              20.4
 (Enter /apps/easybuild-2022/easybuild/software/Compiler/NVHPC/22.11-CUDA-11.7.0/Gaussian/g16c01-CUDA-11.7.0/g16/l508.exe)
 QCSCF skips out because SCF is already converged.
 Leave Link  508 at Fri May 23 02:06:16 2025, MaxMem=  3758096384 cpu:               0.1 elap:               0.0
 (Enter /apps/easybuild-2022/easybuild/software/Compiler/NVHPC/22.11-CUDA-11.7.0/Gaussian/g16c01-CUDA-11.7.0/g16/l801.exe)
 DoSCS=F DFT=T ScalE2(SS,OS)=  1.000000  1.000000
 Range of M.O.s used for correlation:     1   228
 NBasis=   228 NAE=    45 NBE=    44 NFC=     0 NFV=     0
 NROrb=    228 NOA=    45 NOB=    44 NVA=   183 NVB=   184

 **** Warning!!: The largest alpha MO coefficient is  0.38146433D+02


 **** Warning!!: The largest beta MO coefficient is  0.38822838D+02

 Leave Link  801 at Fri May 23 02:06:16 2025, MaxMem=  3758096384 cpu:               0.1 elap:               0.0
 (Enter /apps/easybuild-2022/easybuild/software/Compiler/NVHPC/22.11-CUDA-11.7.0/Gaussian/g16c01-CUDA-11.7.0/g16/l1101.exe)
 Using compressed storage, NAtomX=    10.
 Will process     11 centers per pass.
 R6Disp: Adding Grimme-D2 dispersion energy 1st derivatives to the gradient.
 Leave Link 1101 at Fri May 23 02:06:16 2025, MaxMem=  3758096384 cpu:               0.8 elap:               0.2
 (Enter /apps/easybuild-2022/easybuild/software/Compiler/NVHPC/22.11-CUDA-11.7.0/Gaussian/g16c01-CUDA-11.7.0/g16/l1102.exe)
 Symmetrizing basis deriv contribution to polar:
 IMax=3 JMax=2 DiffMx= 0.00D+00
 Leave Link 1102 at Fri May 23 02:06:16 2025, MaxMem=  3758096384 cpu:               0.1 elap:               0.0
 (Enter /apps/easybuild-2022/easybuild/software/Compiler/NVHPC/22.11-CUDA-11.7.0/Gaussian/g16c01-CUDA-11.7.0/g16/l1110.exe)
 Forming Gx(P) for the SCF density, NAtomX=    10.
 Integral derivatives from FoFJK, PRISM(SPDF).
 Do as many integral derivatives as possible in FoFJK.
 G2DrvN: MDV=    3758095218.
 G2DrvN: will do    11 centers at a time, making    1 passes.
 Calling FoFCou, ICntrl=  3107 FMM=F I1Cent=   0 AccDes= 0.00D+00.
 FoFJK:  IHMeth= 1 ICntrl=    3107 DoSepK=T KAlg= 0 I1Cent=           0 FoldK=F
 IRaf=         1 NMat=       1 IRICut=       1 DoRegI=T DoRafI=F ISym2E= 0 IDoP0=0 IntGTp=1.
 FoFCou: FMM=F IPFlag=           0 FMFlag=      100000 FMFlg1=           0
         NFxFlg=           0 DoJE=F BraDBF=F KetDBF=F FulRan=T
         wScrn=  0.000000 ICntrl=      3507 IOpCl=  0 I1Cent=           0 NGrid=           0
         NMat0=    1 NMatS0=      1 NMatT0=    0 NMatD0=    1 NMtDS0=    0 NMtDT0=    0
 Symmetry not used in FoFCou.
 End of G2Drv F.D. properties file   721 does not exist.
 End of G2Drv F.D. properties file   722 does not exist.
 End of G2Drv F.D. properties file   788 does not exist.
 Leave Link 1110 at Fri May 23 02:06:29 2025, MaxMem=  3758096384 cpu:              99.9 elap:              12.7
 (Enter /apps/easybuild-2022/easybuild/software/Compiler/NVHPC/22.11-CUDA-11.7.0/Gaussian/g16c01-CUDA-11.7.0/g16/l1002.exe)
 Minotr:  UHF open shell wavefunction.
          IDoAtm=1111111111
          Direct CPHF calculation.
          Differentiating once with respect to nuclear coordinates.
          Requested convergence is 1.0D-08 RMS, and 1.0D-07 maximum.
          Secondary convergence is 1.0D-12 RMS, and 1.0D-12 maximum.
          NewPWx=T KeepS1=F KeepF1=F KeepIn=T MapXYZ=F SortEE=F KeepMc=T.
         3093 words used for storage of precomputed grid.
 Keep R1 and R2 ints in memory in canonical form, NReq=1377626715.
 FoFCou: FMM=F IPFlag=           0 FMFlag=           0 FMFlg1=           0
         NFxFlg=           0 DoJE=F BraDBF=F KetDBF=F FulRan=T
         wScrn=  0.000000 ICntrl=       600 IOpCl=  0 I1Cent=           0 NGrid=           0
         NMat0=    1 NMatS0=  26106 NMatT0=    0 NMatD0=    1 NMtDS0=    0 NMtDT0=    0
 Symmetry not used in FoFCou.
 Two-electron integral symmetry not used.
          MDV=    3758096384 using IRadAn=       1.
          Solving linear equations simultaneously, MaxMat=       0.
          There are    33 degrees of freedom in the 1st order CPHF.  IDoFFX=6 NUNeed=     0.
     27 vectors produced by pass  0 Test12= 4.95D-14 3.03D-09 XBig12= 4.91D-01 2.34D-01.
 AX will form    27 AO Fock derivatives at one time.
     27 vectors produced by pass  1 Test12= 4.95D-14 3.03D-09 XBig12= 1.13D-01 5.58D-02.
     27 vectors produced by pass  2 Test12= 4.95D-14 3.03D-09 XBig12= 3.53D-03 1.67D-02.
     27 vectors produced by pass  3 Test12= 4.95D-14 3.03D-09 XBig12= 8.87D-05 2.63D-03.
     27 vectors produced by pass  4 Test12= 4.95D-14 3.03D-09 XBig12= 2.88D-06 2.97D-04.
     27 vectors produced by pass  5 Test12= 4.95D-14 3.03D-09 XBig12= 6.42D-08 4.24D-05.
     27 vectors produced by pass  6 Test12= 4.95D-14 3.03D-09 XBig12= 1.01D-09 6.47D-06.
     27 vectors produced by pass  7 Test12= 4.95D-14 3.03D-09 XBig12= 1.18D-11 4.37D-07.
     13 vectors produced by pass  8 Test12= 4.95D-14 3.03D-09 XBig12= 1.30D-13 4.19D-08.
      2 vectors produced by pass  9 Test12= 4.95D-14 3.03D-09 XBig12= 1.65D-15 4.93D-09.
 InvSVY:  IOpt=1 It=  1 EMax= 1.11D-15
 Solved reduced A of dimension   231 with    27 vectors.
 End of Minotr F.D. properties file   721 does not exist.
 End of Minotr F.D. properties file   722 does not exist.
 End of Minotr F.D. properties file   788 does not exist.
 Leave Link 1002 at Fri May 23 02:06:58 2025, MaxMem=  3758096384 cpu:             229.5 elap:              29.7
 (Enter /apps/easybuild-2022/easybuild/software/Compiler/NVHPC/22.11-CUDA-11.7.0/Gaussian/g16c01-CUDA-11.7.0/g16/l701.exe)
 ... and contract with generalized density number  0.
 Compute integral second derivatives.
 R6Disp: Adding Grimme-D2 dispersion energy 2nd derivatives to the Hessian.
 Leave Link  701 at Fri May 23 02:06:59 2025, MaxMem=  3758096384 cpu:               0.7 elap:               0.2
 (Enter /apps/easybuild-2022/easybuild/software/Compiler/NVHPC/22.11-CUDA-11.7.0/Gaussian/g16c01-CUDA-11.7.0/g16/l702.exe)
 L702 exits ... SP integral derivatives will be done elsewhere.
 Leave Link  702 at Fri May 23 02:06:59 2025, MaxMem=  3758096384 cpu:               0.1 elap:               0.0
 (Enter /apps/easybuild-2022/easybuild/software/Compiler/NVHPC/22.11-CUDA-11.7.0/Gaussian/g16c01-CUDA-11.7.0/g16/l703.exe)
 Integral derivatives from FoFJK, PRISM(SPDF).
 Compute integral second derivatives, UseDBF=F ICtDFT=           0.
 Calling FoFJK, ICntrl=    100127 FMM=F ISym2X=0 I1Cent= 0 IOpClX= 1 NMat=1 NMatS=1 NMatT=0.
 FoFJK:  IHMeth= 1 ICntrl=  100127 DoSepK=T KAlg= 0 I1Cent=           0 FoldK=F
 IRaf=         1 NMat=       1 IRICut=       1 DoRegI=T DoRafI=F ISym2E= 0 IDoP0=0 IntGTp=1.
 FoFCou: FMM=F IPFlag=           0 FMFlag=      100000 FMFlg1=         800
         NFxFlg=           0 DoJE=F BraDBF=F KetDBF=F FulRan=T
         wScrn=  0.000000 ICntrl=    100527 IOpCl=  0 I1Cent=           0 NGrid=           0
         NMat0=    1 NMatS0=      1 NMatT0=    0 NMatD0=    1 NMtDS0=    0 NMtDT0=    0
 Symmetry not used in FoFCou.
 Leave Link  703 at Fri May 23 02:07:27 2025, MaxMem=  3758096384 cpu:             214.7 elap:              27.9
 (Enter /apps/easybuild-2022/easybuild/software/Compiler/NVHPC/22.11-CUDA-11.7.0/Gaussian/g16c01-CUDA-11.7.0/g16/l716.exe)
 Dipole        =-4.37074450D-01 4.60710724D-01 4.07948823D-02
 Polarizability= 0.00000000D+00 0.00000000D+00 0.00000000D+00
                 0.00000000D+00 0.00000000D+00 0.00000000D+00
 -------------------------------------------------------------------
 Center     Atomic                   Forces (Hartrees/Bohr)
 Number     Number              X              Y              Z
 -------------------------------------------------------------------
      1        6           0.004446087    0.006785450    0.005279010
      2        6          -0.017342804   -0.007318783    0.001140389
      3        9          -0.002647169   -0.001200286   -0.001744456
      4        9           0.004129422   -0.000609854    0.000363648
      5       16          -0.000644656    0.039250611    0.011474522
      6        8           0.005896429   -0.014978967    0.022877582
      7        8           0.007759337   -0.016140457   -0.033770357
      8        9          -0.000003041   -0.001076349   -0.000819249
      9        9          -0.000940581   -0.003649573   -0.003599015
     10        9          -0.000653023   -0.001061792   -0.001202075
 -------------------------------------------------------------------
 Cartesian Forces:  Max     0.039250611 RMS     0.012147317
 Force constants in Cartesian coordinates: 
                1             2             3             4             5 
      1  0.553729D+00
      2 -0.142408D-01  0.549923D+00
      3 -0.165525D-01 -0.139969D-01  0.580548D+00
      4 -0.808400D-01  0.669345D-02  0.349952D-01  0.393534D+00
      5  0.163129D-01 -0.438072D-01 -0.280301D-01  0.755794D-03  0.504200D+00
      6  0.701212D-01 -0.252767D-01 -0.143566D+00  0.184040D-01  0.498580D-02
      7  0.381990D-02  0.562795D-02  0.286365D-02 -0.851083D-01 -0.717985D-01
      8 -0.159381D-01 -0.360014D-01 -0.610234D-02 -0.528807D-01 -0.259128D+00
      9 -0.174628D-01 -0.344848D-01 -0.496143D-02 -0.190742D-01 -0.723647D-01
     10 -0.748750D-03  0.595209D-03  0.402773D-02 -0.101795D+00  0.556247D-01
     11  0.628483D-02 -0.837643D-02  0.991607D-02  0.445167D-01 -0.141020D+00
     12 -0.257713D-01  0.377197D-01 -0.287169D-01 -0.566787D-01  0.928020D-01
     13 -0.137738D-01  0.194431D-02  0.169548D-01 -0.905197D-01 -0.357506D-01
     14  0.355516D-02  0.846361D-02 -0.725007D-02  0.166438D-01 -0.260112D-01
     15  0.273668D-01  0.106187D-02  0.150190D-01  0.164807D-01 -0.290234D-02
     16  0.324759D-02 -0.299951D-02 -0.181767D-02  0.687551D-02  0.195526D-01
     17  0.483399D-03 -0.357077D-02  0.583591D-02 -0.815618D-02  0.166697D-02
     18 -0.561263D-02 -0.136292D-03 -0.112392D-01 -0.474658D-02  0.768766D-02
     19 -0.323624D-02 -0.205611D-02 -0.955815D-02 -0.356737D-02  0.167395D-01
     20 -0.156810D-02 -0.835591D-03  0.340267D-02 -0.946693D-02  0.953169D-03
     21 -0.219637D-02  0.182815D-02  0.523175D-02  0.581226D-02 -0.533194D-02
     22 -0.796582D-01  0.186027D-01 -0.130921D-01  0.812777D-02 -0.703205D-02
     23  0.155525D-01 -0.179874D+00  0.116138D+00  0.343151D-02 -0.126127D-01
     24 -0.105132D-01  0.107953D+00 -0.207153D+00 -0.841680D-02  0.374657D-01
     25 -0.917166D-01 -0.450910D-01 -0.220587D-01  0.515022D-02  0.126027D-02
     26 -0.420625D-01 -0.206783D+00 -0.784080D-01 -0.158663D-01 -0.260351D-01
     27 -0.196337D-01 -0.747125D-01 -0.125107D+00 -0.163785D-01 -0.327951D-01
     28 -0.290823D+00  0.309239D-01  0.423779D-02 -0.518571D-01  0.433527D-02
     29  0.316208D-01 -0.791383D-01 -0.150509D-02  0.143289D-01  0.179393D-02
     30  0.254546D-03  0.448655D-04 -0.800547D-01  0.296027D-01 -0.151705D-02
                6             7             8             9            10 
      6  0.528663D+00
      7 -0.246987D-01  0.787585D-01
      8 -0.823838D-01  0.777277D-01  0.372283D+00
      9 -0.101506D+00  0.252011D-01  0.845847D-01  0.958090D-01
     10 -0.725679D-01  0.151903D-01  0.122759D-02  0.683426D-02  0.100969D+00
     11  0.101291D+00  0.133253D-01 -0.699937D-01  0.333927D-01 -0.727729D-01
     12 -0.207110D+00  0.376416D-02  0.184932D-01  0.157972D-01  0.820935D-01
     13 -0.191520D-03 -0.235262D-01 -0.163772D-01 -0.241959D-02 -0.758746D-02
     14  0.497792D-02 -0.394667D-01 -0.309160D-01 -0.987455D-02  0.178380D-01
     15 -0.217649D-01 -0.727706D-02 -0.555941D-02 -0.238601D-02 -0.259900D-01
     16 -0.180025D-01  0.715400D-03 -0.217703D-02  0.106579D-02 -0.119586D-01
     17 -0.106906D-03  0.591944D-02  0.737991D-02  0.131102D-02  0.126756D-02
     18 -0.621262D-02 -0.217883D-02 -0.533868D-02  0.153047D-02 -0.423712D-02
     19  0.284973D-01  0.389056D-02  0.136577D-02 -0.176356D-03 -0.121585D-02
     20 -0.646660D-02  0.480485D-02  0.838202D-02  0.396903D-02  0.164154D-03
     21 -0.230881D-01 -0.757061D-03  0.465895D-02  0.440419D-02  0.299949D-02
     22  0.309209D-02  0.580925D-03  0.144683D-02  0.120247D-02  0.453115D-03
     23  0.699811D-02  0.545482D-03  0.690697D-02 -0.139320D-02 -0.172444D-02
     24 -0.219596D-01  0.422325D-03 -0.169742D-02  0.295270D-04  0.287480D-02
     25  0.472167D-03  0.980757D-03  0.215754D-02  0.197385D-02  0.976940D-03
     26 -0.523664D-02  0.335632D-02 -0.210326D-02 -0.666687D-02  0.568109D-03
     27 -0.388539D-02  0.329104D-02 -0.653472D-02 -0.931721D-02  0.843917D-03
     28 -0.512615D-02  0.469823D-02  0.344759D-02  0.285548D-02  0.571688D-02
     29  0.121774D-02 -0.419106D-04  0.319038D-02  0.152678D-02 -0.278799D-02
     30  0.429254D-03 -0.630682D-03 -0.120422D-03  0.600280D-03  0.312132D-02
               11            12            13            14            15 
     11  0.212715D+00
     12 -0.152089D+00  0.237491D+00
     13  0.767251D-02 -0.444292D-02  0.343950D+00
     14 -0.147447D-02  0.745858D-02 -0.140089D+00  0.325958D+00
     15  0.920233D-02 -0.130417D-01 -0.273712D-02 -0.911971D-02  0.109365D+01
     16  0.288198D-02 -0.464175D-02 -0.113518D+00  0.787195D-01 -0.175488D+00
     17 -0.280318D-03  0.154113D-04  0.984033D-01 -0.147488D+00  0.224480D+00
     18  0.200932D-02 -0.322302D-05 -0.158710D+00  0.189854D+00 -0.494812D+00
     19  0.360284D-03 -0.169436D-02 -0.100094D+00  0.638910D-01  0.174711D+00
     20 -0.389798D-03  0.661076D-03  0.845025D-01 -0.123701D+00 -0.217146D+00
     21 -0.357743D-02  0.684626D-02  0.161232D+00 -0.179803D+00 -0.564957D+00
     22 -0.821351D-03  0.456034D-02 -0.103898D-02  0.786144D-03 -0.394813D-02
     23  0.169171D-02  0.175850D-02  0.220979D-02 -0.270062D-02  0.240686D-02
     24  0.848252D-03 -0.124459D-01 -0.431318D-02  0.191846D-02 -0.436856D-02
     25 -0.159986D-03  0.127647D-02 -0.238971D-03 -0.616950D-03 -0.383937D-02
     26  0.491824D-02 -0.491240D-02 -0.946195D-03 -0.146963D-02 -0.129423D-02
     27  0.111495D-02 -0.813211D-03 -0.186350D-02  0.102058D-02 -0.276112D-02
     28 -0.128732D-02  0.153459D-02  0.634714D-02 -0.126060D-02  0.721613D-03
     29  0.221045D-02 -0.190748D-02 -0.156915D-02 -0.659724D-03 -0.112959D-02
     30 -0.210868D-02  0.199687D-02 -0.350883D-02  0.818086D-03 -0.458229D-02
               16            17            18            19            20 
     16  0.104829D+00
     17 -0.933278D-01  0.116058D+00
     18  0.183889D+00 -0.212298D+00  0.518671D+00
     19  0.143116D-01 -0.512737D-02 -0.132358D-01  0.921536D-01
     20 -0.494506D-02  0.236434D-01  0.189702D-01 -0.759052D-01  0.909816D-01
     21  0.121951D-01 -0.154159D-01 -0.158654D-01 -0.184433D+00  0.198876D+00
     22 -0.275119D-02 -0.151253D-02  0.323385D-02  0.639486D-03  0.225848D-03
     23  0.356183D-03  0.232314D-02 -0.194002D-02 -0.109251D-02  0.752889D-03
     24  0.171084D-02 -0.185249D-02  0.332709D-02  0.237289D-02 -0.100733D-02
     25 -0.574969D-03  0.104602D-02  0.213716D-02  0.535226D-03  0.645470D-03
     26  0.146503D-02  0.171153D-03  0.756978D-03  0.790557D-03  0.220180D-03
     27  0.730384D-03 -0.760602D-03  0.214220D-02  0.984484D-03 -0.637112D-03
     28 -0.117630D-02  0.100413D-02 -0.539193D-03 -0.341741D-02  0.154241D-02
     29  0.474100D-03  0.971814D-04  0.435261D-03  0.103405D-02 -0.652828D-05
     30  0.358793D-03 -0.120849D-02  0.246127D-02  0.253271D-02 -0.622145D-03
               21            22            23            24            25 
     21  0.589824D+00
     22  0.787399D-03  0.922399D-01
     23  0.174581D-03 -0.427192D-01  0.274092D+00
     24 -0.655902D-03  0.429640D-01 -0.175118D+00  0.229701D+00
     25  0.594279D-03  0.119595D-01 -0.107027D-01  0.388993D-02  0.125813D+00
     26 -0.572706D-03 -0.144308D-01 -0.787538D-01  0.101629D-01  0.101261D+00
     27 -0.393781D-03  0.668687D-02  0.273619D-01  0.194575D-01  0.468755D-01
     28  0.376644D-02 -0.305523D-01  0.341434D-01 -0.309917D-01 -0.528854D-01
     29 -0.836860D-03  0.454545D-01 -0.118252D-01  0.213274D-01 -0.497994D-01
     30 -0.134579D-02 -0.454868D-01  0.236136D-01 -0.593217D-02 -0.313212D-01
               26            27            28            29            30 
     26  0.310893D+00
     27  0.961803D-01  0.114459D+00
     28 -0.341350D-01 -0.215364D-01  0.413949D+00
     29 -0.105783D-02 -0.102377D-01 -0.387138D-01  0.853956D-01
     30 -0.100093D-01  0.621935D-02  0.450775D-01 -0.889042D-02  0.802080D-01
 FormGI is forming the generalized inverse of G from B-inverse, IUseBI=4.
 Force constants in internal coordinates: 
                1             2             3             4             5 
      1  0.255868D+00
      2  0.173834D-01  0.438884D+00
      3  0.198245D-01  0.553904D-01  0.396120D+00
      4  0.195220D-01  0.568093D-01  0.554786D-01  0.424480D+00
      5  0.174171D-01  0.523660D-02  0.414327D-02  0.461859D-02  0.415828D+00
      6  0.165489D-01  0.439434D-02  0.524050D-02  0.469178D-02  0.517938D-01
      7  0.103794D-01 -0.177259D-02  0.928226D-03 -0.171443D-02  0.221489D-01
      8 -0.242652D-02  0.497625D-02  0.224392D-02  0.942427D-03  0.829943D-02
      9 -0.177230D-02  0.154241D-02  0.644771D-03  0.465430D-02  0.737264D-02
     10  0.177997D-01  0.124534D-01 -0.300257D-01 -0.290646D-01 -0.544396D-02
     11  0.129532D-01 -0.300556D-01  0.191316D-01 -0.284480D-01  0.159678D-01
     12  0.230631D-01 -0.304146D-01 -0.302270D-01  0.117920D-01 -0.255386D-02
     13 -0.168878D-01  0.218313D-01  0.193059D-01  0.377930D-02 -0.304585D-02
     14 -0.203580D-01  0.229535D-01  0.357012D-02  0.217613D-01 -0.156746D-02
     15 -0.178101D-01  0.357183D-02  0.195704D-01  0.216508D-01 -0.341451D-02
     16  0.100019D-01 -0.265272D-02  0.103154D-01 -0.283071D-02  0.168373D-01
     17  0.107203D-01  0.113088D-01  0.382386D-03 -0.694674D-02 -0.613536D-02
     18  0.822322D-02 -0.477325D-02 -0.219051D-02  0.102761D-01 -0.228676D-01
     19 -0.450835D-02 -0.139982D-02 -0.173298D-02 -0.276549D-03  0.694018D-02
     20 -0.111628D-01  0.115384D-02 -0.552850D-02 -0.102968D-02  0.755942D-02
     21 -0.142819D-01 -0.386775D-02 -0.146598D-02  0.727052D-03 -0.122194D-02
     22  0.529383D-02 -0.429065D-02  0.127424D-02  0.102604D-02 -0.363992D-02
     23 -0.257714D-02  0.487407D-02  0.246622D-02  0.378154D-02 -0.130306D-01
     24 -0.104622D-02 -0.133789D-02 -0.837423D-03 -0.238204D-02  0.380909D-03
     25 -0.115010D-02 -0.207458D-02 -0.187753D-01  0.194916D-01 -0.606485D-02
     26  0.560759D-02  0.132199D-02 -0.145583D-01  0.133962D-01  0.866601D-02
     27  0.642131D-03  0.142767D-02 -0.176449D-01  0.161666D-01 -0.128591D-01
     28 -0.222869D-02  0.134499D-01 -0.139090D-02 -0.133412D-01 -0.285314D-02
     29  0.452901D-02  0.168465D-01  0.282611D-02 -0.194367D-01  0.118777D-01
     30 -0.436457D-03  0.169521D-01 -0.260464D-03 -0.166662D-01 -0.964740D-02
     31 -0.221765D-02 -0.186830D-01  0.156920D-01  0.314444D-02  0.102735D-02
     32  0.454005D-02 -0.152864D-01  0.199091D-01 -0.295105D-02  0.157582D-01
     33 -0.425416D-03 -0.151808D-01  0.168225D-01 -0.180588D-03 -0.576692D-02
     34  0.233795D-03 -0.401610D-02  0.207354D-02  0.118553D-02  0.171836D-01
     35  0.823066D-03 -0.524516D-02  0.371452D-02  0.164340D-02  0.559340D-02
     36 -0.960005D-02  0.146225D-02 -0.567769D-02 -0.876278D-03  0.480566D-02
     37 -0.901078D-02  0.233182D-03 -0.403671D-02 -0.418403D-03 -0.678454D-02
     38  0.897209D-02  0.448591D-02  0.419248D-04 -0.381089D-03 -0.670672D-02
     39  0.956136D-02  0.325685D-02  0.168291D-02  0.767851D-04 -0.182969D-01
                6             7             8             9            10 
      6  0.415773D+00
      7  0.207759D-01  0.142695D+00
      8  0.557820D-02  0.117264D-01  0.682987D+00
      9  0.802572D-02  0.103272D-01  0.168307D-03  0.722300D+00
     10  0.161133D-01  0.452141D-02 -0.969154D-03  0.589727D-03  0.187474D+00
     11 -0.266075D-03 -0.349184D-03  0.751958D-03  0.839610D-03 -0.364046D-03
     12 -0.845350D-02 -0.265615D-02  0.555444D-02  0.450941D-02 -0.196882D-02
     13 -0.430872D-02 -0.398139D-03 -0.206389D-02 -0.100492D-02 -0.907489D-01
     14 -0.214202D-02 -0.144442D-02 -0.140689D-02 -0.258324D-02 -0.898846D-01
     15 -0.131990D-02  0.236361D-03 -0.194392D-02 -0.247725D-02 -0.979329D-02
     16 -0.605261D-02 -0.141931D-01 -0.167696D-02  0.437750D-03 -0.388493D-02
     17  0.172886D-01 -0.133143D-01 -0.357539D-02 -0.181541D-02  0.122681D-01
     18 -0.238622D-01  0.131954D-01 -0.541733D-02  0.107590D-01  0.289245D-02
     19  0.697414D-02  0.100860D-03  0.122143D-03 -0.500440D-03 -0.337528D-02
     20 -0.143829D-02  0.894123D-02  0.239979D-02 -0.613099D-02  0.136001D-02
     21  0.770520D-02  0.553454D-02  0.844008D-02 -0.308787D-02 -0.982426D-02
     22  0.184988D-01  0.307898D-02  0.260446D-01 -0.140228D-01  0.127196D-01
     23 -0.388456D-02  0.857141D-02 -0.125583D-01  0.253253D-01 -0.215439D-02
     24 -0.472935D-02  0.565163D-03  0.652993D-03  0.496019D-03 -0.375723D-02
     25 -0.132852D-01  0.733011D-02  0.200343D-02  0.419272D-03 -0.135281D-02
     26  0.176255D-02 -0.876509D-02 -0.943537D-03 -0.996874D-03 -0.510645D-03
     27  0.828009D-02 -0.251028D-02  0.364258D-02  0.956676D-03 -0.219627D-02
     28 -0.843970D-02  0.952323D-02 -0.709042D-03  0.971529D-04  0.600024D-02
     29  0.660802D-02 -0.657197D-02 -0.365601D-02 -0.131899D-02  0.684240D-02
     30  0.131256D-01 -0.317162D-03  0.930106D-03  0.634557D-03  0.515678D-02
     31 -0.153337D-01  0.799253D-02  0.734672D-03  0.309043D-03 -0.737101D-02
     32 -0.286028D-03 -0.810267D-02 -0.221230D-02 -0.110710D-02 -0.652885D-02
     33  0.623151D-02 -0.184786D-02  0.237382D-02  0.846447D-03 -0.821448D-02
     34 -0.131988D-01 -0.333675D-02 -0.514684D-02 -0.509630D-02 -0.592282D-02
     35 -0.878162D-02  0.581301D-02  0.520412D-02  0.389490D-02 -0.315193D-02
     36  0.101732D-01  0.101161D-03 -0.137390D-02 -0.798919D-02 -0.377380D-02
     37  0.145903D-01  0.925092D-02  0.897705D-02  0.100200D-02 -0.100291D-02
     38 -0.121160D-02 -0.761498D-02 -0.714406D-02 -0.255766D-02  0.452833D-02
     39  0.320553D-02  0.153478D-02  0.320689D-02  0.643354D-02  0.729921D-02
               11            12            13            14            15 
     11  0.184203D+00
     12  0.378676D-02  0.188636D+00
     13 -0.910944D-01 -0.105569D-01  0.122998D+00
     14 -0.104238D-01 -0.947089D-01  0.370759D-01  0.125660D+00
     15 -0.897883D-01 -0.891686D-01  0.364338D-01  0.367481D-01  0.120264D+00
     16  0.172341D-01 -0.733425D-02 -0.577861D-02  0.294433D-02 -0.322790D-02
     17 -0.374800D-02 -0.224015D-02 -0.397756D-02 -0.421023D-02  0.167021D-02
     18 -0.570258D-02  0.956172D-02  0.270258D-02 -0.596794D-02 -0.370149D-02
     19 -0.357365D-02  0.279903D-02  0.288672D-02  0.724222D-03  0.648622D-03
     20 -0.839280D-02  0.969152D-04  0.251928D-02  0.723969D-03  0.381887D-02
     21  0.395850D-02 -0.283301D-02  0.194434D-02  0.608219D-02  0.957193D-03
     22  0.636483D-03 -0.729642D-02 -0.159144D-02 -0.441766D-02 -0.343943D-03
     23 -0.248114D-02  0.107273D-01 -0.130543D-02 -0.227880D-02 -0.258911D-02
     24 -0.790666D-03 -0.136870D-02  0.136389D-02  0.288774D-02  0.183193D-02
     25 -0.721320D-02  0.734673D-02 -0.168818D-01  0.184163D-01 -0.213673D-03
     26 -0.357148D-02  0.508669D-02 -0.191401D-01  0.185528D-01 -0.350849D-03
     27 -0.507773D-02  0.624787D-02 -0.177337D-01  0.192633D-01 -0.389911D-03
     28  0.164360D-03 -0.463583D-02  0.182494D-01 -0.156388D-03 -0.202253D-01
     29  0.380608D-02 -0.689586D-02  0.159912D-01 -0.198426D-04 -0.203625D-01
     30  0.229983D-02 -0.573468D-02  0.173975D-01  0.690614D-03 -0.204016D-01
     31  0.352932D-02  0.305006D-02  0.159121D-02 -0.189329D-01  0.186406D-01
     32  0.717104D-02  0.790022D-03 -0.667030D-03 -0.187964D-01  0.185034D-01
     33  0.566479D-02  0.195120D-02  0.739327D-03 -0.180859D-01  0.184644D-01
     34  0.755611D-02 -0.217678D-02 -0.147334D-03  0.247355D-02 -0.170790D-02
     35  0.520519D-02 -0.134410D-02 -0.503584D-03  0.132138D-02 -0.150948D-02
     36 -0.472450D-02  0.108146D-02  0.368903D-02  0.194540D-02  0.196109D-02
     37 -0.707542D-02  0.191413D-02  0.333278D-02  0.793224D-03  0.215952D-02
     38  0.187307D-02 -0.788529D-03 -0.203320D-02 -0.242501D-02 -0.131848D-02
     39 -0.477850D-03  0.441436D-04 -0.238945D-02 -0.357718D-02 -0.112005D-02
               16            17            18            19            20 
     16  0.829818D-01
     17 -0.640031D-03  0.870885D-01
     18 -0.393583D-01 -0.459680D-01  0.139199D+00
     19 -0.262252D-01 -0.255469D-01  0.326127D-01  0.425903D-01
     20 -0.383634D-01  0.205690D-01 -0.424497D-01 -0.100859D-01  0.651169D-01
     21  0.198400D-01 -0.379848D-01 -0.445805D-01 -0.108005D-01  0.627456D-02
     22  0.369013D-02 -0.117597D-01  0.359764D-03 -0.167826D-02 -0.746204D-02
     23 -0.458633D-03 -0.308682D-02  0.167637D-01  0.344733D-02 -0.118330D-01
     24  0.330188D-03  0.589061D-02 -0.721352D-02 -0.271914D-03  0.531841D-02
     25 -0.117337D-01 -0.729576D-02  0.479127D-02 -0.102733D-01  0.180061D-01
     26  0.512994D-02  0.126656D-01 -0.602248D-02  0.107678D-01 -0.474481D-02
     27  0.363840D-02 -0.330159D-02 -0.323321D-02  0.102922D-03 -0.102111D-01
     28 -0.100981D-01 -0.681931D-02  0.627769D-02 -0.112014D-01  0.164969D-01
     29  0.676555D-02  0.131421D-01 -0.453606D-02  0.983972D-02 -0.625398D-02
     30  0.527400D-02 -0.282514D-02 -0.174679D-02 -0.825164D-03 -0.117202D-01
     31 -0.812521D-02 -0.838985D-02  0.412361D-02 -0.108612D-01  0.161745D-01
     32  0.873847D-02  0.115716D-01 -0.669013D-02  0.101798D-01 -0.657635D-02
     33  0.724693D-02 -0.439569D-02 -0.390087D-02 -0.485052D-03 -0.120426D-01
     34  0.204433D-01 -0.214158D-01  0.133273D-02 -0.847765D-03 -0.735256D-02
     35  0.231712D-01 -0.245991D-01  0.461200D-02  0.110230D-03 -0.145402D-01
     36 -0.327733D-01 -0.665446D-02 -0.530608D-02  0.191027D-01  0.214464D-01
     37 -0.300454D-01 -0.983771D-02 -0.202681D-02  0.200607D-01  0.142587D-01
     38  0.807346D-02  0.319681D-01  0.199146D-02 -0.198857D-01 -0.451179D-02
     39  0.108014D-01  0.287848D-01  0.527072D-02 -0.189277D-01 -0.116994D-01
               21            22            23            24            25 
     21  0.687024D-01
     22  0.169427D-01  0.173812D+00
     23 -0.511272D-02  0.477176D-02  0.179123D+00
     24 -0.398472D-02 -0.806293D-01 -0.811740D-01  0.104850D+00
     25  0.628154D-02 -0.382614D-02  0.482211D-03  0.318412D-03  0.319827D-01
     26 -0.174426D-01 -0.106023D-01  0.256786D-02  0.365190D-02  0.832274D-02
     27  0.130352D-01  0.282270D-02  0.503355D-02 -0.202295D-02  0.142878D-01
     28  0.497910D-02  0.282229D-02 -0.418143D-02 -0.924880D-03  0.522203D-02
     29 -0.187450D-01 -0.395382D-02 -0.209578D-02  0.240861D-02 -0.184379D-01
     30  0.117327D-01  0.947113D-02  0.369915D-03 -0.326625D-02 -0.124728D-01
     31  0.681072D-02 -0.163632D-02 -0.233452D-02  0.766283D-05  0.507711D-02
     32 -0.169134D-01 -0.841243D-02 -0.248875D-03  0.334115D-02 -0.185828D-01
     33  0.135643D-01  0.501252D-02  0.221682D-02 -0.233370D-02 -0.126177D-01
     34  0.806144D-02 -0.997740D-02 -0.157397D-01 -0.906981D-02  0.179373D-02
     35  0.114175D-01  0.155602D-01  0.147638D-01  0.734545D-02 -0.190940D-03
     36  0.621958D-02 -0.960562D-02 -0.172098D-01 -0.876352D-02  0.962298D-03
     37  0.957569D-02  0.159319D-01  0.132936D-01  0.765174D-02 -0.102237D-02
     38 -0.198943D-01 -0.124212D-01 -0.123354D-01 -0.921031D-02  0.209520D-03
     39 -0.165382D-01  0.131163D-01  0.181680D-01  0.720495D-02 -0.177515D-02
               26            27            28            29            30 
     26  0.318438D-01
     27  0.146169D-01  0.267982D-01
     28 -0.183154D-01 -0.126741D-01  0.320440D-01
     29  0.520572D-02 -0.123451D-01  0.850655D-02  0.321502D-01
     30 -0.120213D-01 -0.163764D-03  0.141478D-01  0.145993D-01  0.264568D-01
     31 -0.178083D-01 -0.124165D-01  0.463481D-02 -0.182506D-01 -0.128588D-01
     32  0.571277D-02 -0.120875D-01 -0.189026D-01  0.539297D-02 -0.124073D-01
     33 -0.115142D-01  0.938259D-04 -0.132613D-01 -0.121578D-01 -0.549805D-03
     34  0.229347D-03 -0.422552D-02  0.277006D-02  0.120568D-02 -0.324918D-02
     35 -0.858954D-03 -0.111573D-02  0.578263D-03 -0.897513D-04 -0.346530D-03
     36  0.823405D-03  0.361456D-03  0.208911D-04 -0.118002D-03 -0.579951D-03
     37 -0.264896D-03  0.347124D-02 -0.217091D-02 -0.141344D-02  0.232270D-02
     38 -0.279863D-03 -0.106742D-02  0.182814D-02  0.133875D-02  0.551196D-03
     39 -0.136816D-02  0.204236D-02 -0.363666D-03  0.433186D-04  0.345385D-02
               31            32            33            34            35 
     31  0.313680D-01
     32  0.848254D-02  0.327781D-01
     33  0.138743D-01  0.149778D-01  0.265859D-01
     34  0.390715D-02  0.234277D-02 -0.211210D-02  0.292040D-01
     35  0.104914D-02  0.381130D-03  0.124352D-03 -0.890772D-03  0.303025D-01
     36  0.231295D-03  0.924025D-04 -0.369546D-03  0.780625D-02 -0.227016D-01
     37 -0.262671D-02 -0.186923D-02  0.186690D-02 -0.222885D-01  0.849167D-02
     38  0.866069D-03  0.376686D-03 -0.410871D-03  0.854104D-02 -0.210082D-01
     39 -0.199194D-02 -0.158495D-02  0.182558D-02 -0.215537D-01  0.101851D-01
               36            37            38            39 
     36  0.372851D-01
     37  0.677720D-02  0.375573D-01
     38  0.314714D-03 -0.292346D-01  0.362744D-01
     39 -0.301932D-01  0.154559D-02  0.672509D-02  0.384639D-01
 Leave Link  716 at Fri May 23 02:07:27 2025, MaxMem=  3758096384 cpu:               0.1 elap:               0.1
 (Enter /apps/easybuild-2022/easybuild/software/Compiler/NVHPC/22.11-CUDA-11.7.0/Gaussian/g16c01-CUDA-11.7.0/g16/l103.exe)

 GradGradGradGradGradGradGradGradGradGradGradGradGradGradGradGradGradGrad
 Berny optimization.
 Red2BG is reusing G-inverse.
 Internal  Forces:  Max     0.037891288 RMS     0.008376202
 Search for a local minimum.
 Step number   1 out of a maximum of   49
 All quantities printed in internal units (Hartrees-Bohrs-Radians)
 RMS Force = .83762D-02 SwitMx=.10000D-02 MixMth= 1
 Mixed Optimization -- RFO/linear search
 Second derivative matrix not updated -- analytic derivatives used.
 ITU=  0
     Eigenvalues ---    0.00168   0.00432   0.04883   0.08441   0.09640
     Eigenvalues ---    0.10302   0.10782   0.12983   0.14833   0.16379
     Eigenvalues ---    0.18554   0.20389   0.23009   0.23594   0.24426
     Eigenvalues ---    0.27474   0.37079   0.37988   0.38478   0.39719
     Eigenvalues ---    0.48219   0.55923   0.68649   0.72529
 RFO step:  Lambda=-6.89942574D-03 EMin= 1.68193234D-03
 Linear search not attempted -- first point.
 Iteration  1 RMS(Cart)=  0.03136963 RMS(Int)=  0.00144023
 Iteration  2 RMS(Cart)=  0.00141675 RMS(Int)=  0.00062496
 Iteration  3 RMS(Cart)=  0.00000304 RMS(Int)=  0.00062495
 Iteration  4 RMS(Cart)=  0.00000001 RMS(Int)=  0.00062495
 ITry= 1 IFail=0 DXMaxC= 1.05D-01 DCOld= 1.00D+10 DXMaxT= 3.00D-01 DXLimC= 3.00D+00 Rises=F
 Variable       Old X    -DE/DX   Delta X   Delta X   Delta X     New X
                                 (Linear)    (Quad)   (Total)
    R1        2.94103  -0.00128   0.00000  -0.00740  -0.00740   2.93363
    R2        2.49497   0.00024   0.00000   0.00017   0.00017   2.49514
    R3        2.53245  -0.00476   0.00000  -0.01498  -0.01498   2.51748
    R4        2.50584   0.00066   0.00000   0.00542   0.00542   2.51126
    R5        2.51820   0.00222   0.00000  -0.01340  -0.01340   2.50479
    R6        2.51750  -0.00207   0.00000  -0.00694  -0.00694   2.51056
    R7        3.54892   0.01339   0.00000   0.10480   0.10480   3.65372
    R8        2.71494   0.02745   0.00000   0.04097   0.04097   2.75592
    R9        2.69666   0.03789   0.00000   0.05385   0.05385   2.75051
    A1        1.93829  -0.00103   0.00000  -0.00163  -0.00164   1.93665
    A2        1.91686  -0.00285   0.00000  -0.00989  -0.00990   1.90696
    A3        1.90955  -0.00166   0.00000  -0.00381  -0.00382   1.90573
    A4        1.90144   0.00244   0.00000   0.01065   0.01065   1.91209
    A5        1.90519   0.00096   0.00000  -0.00199  -0.00200   1.90318
    A6        1.89186   0.00225   0.00000   0.00698   0.00696   1.89881
    A7        1.90062   0.00097   0.00000   0.02628   0.02628   1.92691
    A8        1.90321   0.00333   0.00000   0.01404   0.01297   1.91618
    A9        1.99438  -0.00434   0.00000  -0.03248  -0.03264   1.96175
   A10        1.91213  -0.00104   0.00000   0.00505   0.00485   1.91698
   A11        1.86514   0.00376   0.00000   0.02075   0.02115   1.88629
   A12        1.88712  -0.00269   0.00000  -0.03288  -0.03306   1.85406
   A13        1.87618  -0.00764   0.00000  -0.02916  -0.03039   1.84580
   A14        1.85295  -0.00815   0.00000  -0.03895  -0.04021   1.81274
   A15        2.16295   0.00262   0.00000  -0.01897  -0.02154   2.14141
    D1        0.83935   0.00030   0.00000   0.00334   0.00316   0.84251
    D2        2.92509   0.00157   0.00000   0.03323   0.03341   2.95850
    D3       -1.24437  -0.00238   0.00000  -0.02073  -0.02072  -1.26509
    D4        2.94373   0.00080   0.00000   0.00908   0.00889   2.95262
    D5       -1.25372   0.00208   0.00000   0.03897   0.03914  -1.21458
    D6        0.86001  -0.00187   0.00000  -0.01499  -0.01499   0.84502
    D7       -1.26490   0.00084   0.00000   0.00935   0.00917  -1.25573
    D8        0.82084   0.00211   0.00000   0.03924   0.03942   0.86026
    D9        2.93457  -0.00184   0.00000  -0.01472  -0.01471   2.91986
   D10        0.69288   0.00491   0.00000   0.09293   0.09179   0.78467
   D11        3.04007  -0.00316   0.00000   0.01966   0.01996   3.06003
   D12       -1.41070   0.00372   0.00000   0.06535   0.06456  -1.34614
   D13        0.93649  -0.00434   0.00000  -0.00792  -0.00726   0.92923
   D14        2.81549   0.00433   0.00000   0.06539   0.06515   2.88064
   D15       -1.12051  -0.00373   0.00000  -0.00788  -0.00667  -1.12718
         Item               Value     Threshold  Converged?
 Maximum Force            0.037891     0.000015     NO 
 RMS     Force            0.008376     0.000010     NO 
 Maximum Displacement     0.104976     0.000060     NO 
 RMS     Displacement     0.031251     0.000040     NO 
 Predicted change in Energy=-3.606440D-03
 Lowest energy point so far.  Saving SCF results.
 GradGradGradGradGradGradGradGradGradGradGradGradGradGradGradGradGradGrad

 Leave Link  103 at Fri May 23 02:07:27 2025, MaxMem=  3758096384 cpu:               0.1 elap:               0.0
 (Enter /apps/easybuild-2022/easybuild/software/Compiler/NVHPC/22.11-CUDA-11.7.0/Gaussian/g16c01-CUDA-11.7.0/g16/l202.exe)
                          Input orientation:                          
 ---------------------------------------------------------------------
 Center     Atomic      Atomic             Coordinates (Angstroms)
 Number     Number       Type             X           Y           Z
 ---------------------------------------------------------------------
      1          6           0       -0.711999    0.284496    1.338608
      2          6           0       -0.083746   -0.066039   -0.037038
      3          9           0       -0.400862   -1.304298   -0.387817
      4          9           0       -0.514559    0.788002   -0.958995
      5         16           0        1.844237    0.078973   -0.024937
      6          8           0        2.282363   -0.568619    1.206124
      7          8           0        2.237714   -0.392730   -1.344472
      8          9           0       -0.482097   -0.671193    2.220187
      9          9           0       -0.194995    1.430743    1.778559
     10          9           0       -2.024470    0.434416    1.193952
 ---------------------------------------------------------------------
                    Distance matrix (angstroms):
                    1          2          3          4          5
     1  C    0.000000
     2  C    1.552411   0.000000
     3  F    2.366773   1.325478   0.000000
     4  F    2.360398   1.328529   2.171840   0.000000
     5  S    2.904452   1.933467   2.661878   2.634218   0.000000
     6  O    3.116338   2.719653   3.206488   3.788262   1.458369
     7  O    4.044547   2.684266   2.950971   3.019557   1.455507
     8  F    1.320371   2.370645   2.684977   3.498214   3.318909
     9  F    1.332191   2.355658   3.495141   2.830095   3.039464
    10  F    1.328902   2.352063   2.856785   2.653307   4.071723
                    6          7          8          9         10
     6  O    0.000000
     7  O    2.557043   0.000000
     8  F    2.946368   4.492405   0.000000
     9  F    3.234568   4.358491   2.166933   0.000000
    10  F    4.422108   5.029312   2.157416   2.163657   0.000000
 Symmetry turned off by external request.
 Stoichiometry    C2F5O2S
 Rotational constants (GHZ):           1.8653475           0.9779223           0.8453136
 Leave Link  202 at Fri May 23 02:07:27 2025, MaxMem=  3758096384 cpu:               0.1 elap:               0.0
 (Enter /apps/easybuild-2022/easybuild/software/Compiler/NVHPC/22.11-CUDA-11.7.0/Gaussian/g16c01-CUDA-11.7.0/g16/l301.exe)
 Standard basis: 6-311++G(d,p) (5D, 7F)
 Ernie: Thresh=  0.10000D-02 Tol=  0.10000D-05 Strict=F.
   228 basis functions,   374 primitive gaussians,   238 cartesian basis functions
    45 alpha electrons       44 beta electrons
       nuclear repulsion energy       759.5484324914 Hartrees.
 IExCor= 4639 DFT=T Ex+Corr=wB97XD ExCW=0 ScaHFX=  1.000000
 ScaDFX=  1.000000  1.000000  1.000000  1.000000 ScalE2=  1.000000  1.000000
 IRadAn=      5 IRanWt=     -1 IRanGd=            0 ICorTp=0 IEmpDi=121
 HFx  wShort=  0.000000 wLong=  0.200000 cFull=  0.222036 cShort=  0.000000 cLong=  0.777964
 DFx  wShort=  0.000000 wLong=  0.200000 cFull=  0.000000 cShort=  0.000000 cLong=  1.000000
 NAtoms=   10 NActive=   10 NUniq=   10 SFac= 1.00D+00 NAtFMM=   60 NAOKFM=F Big=F
 Integral buffers will be    131072 words long.
 Raffenetti 2 integral format.
 Two-electron integral symmetry is turned off.
 R6Disp:  Grimme-D2 Dispersion energy=       -0.0040466571 Hartrees.
 Nuclear repulsion after empirical dispersion term =      759.5443858343 Hartrees.
 Leave Link  301 at Fri May 23 02:07:27 2025, MaxMem=  3758096384 cpu:               0.1 elap:               0.1
 (Enter /apps/easybuild-2022/easybuild/software/Compiler/NVHPC/22.11-CUDA-11.7.0/Gaussian/g16c01-CUDA-11.7.0/g16/l302.exe)
 NPDir=0 NMtPBC=     1 NCelOv=     1 NCel=       1 NClECP=     1 NCelD=      1
         NCelK=      1 NCelE2=     1 NClLst=     1 CellRange=     0.0.
 One-electron integrals computed using PRISM.
 NBasis=   228 RedAO= T EigKep=  8.39D-05  NBF=   228
 NBsUse=   228 1.00D-06 EigRej= -1.00D+00 NBFU=   228
 Precomputing XC quadrature grid using
 IXCGrd= 4 IRadAn=           5 IRanWt=          -1 IRanGd=           0 AccXCQ= 0.00D+00.
 Generated NRdTot=       0 NPtTot=           0 NUsed=           0 NTot=          32
 NSgBfM=   238   238   238   238   238 MxSgAt=    10 MxSgA2=    10.
 Leave Link  302 at Fri May 23 02:07:27 2025, MaxMem=  3758096384 cpu:               0.7 elap:               0.2
 (Enter /apps/easybuild-2022/easybuild/software/Compiler/NVHPC/22.11-CUDA-11.7.0/Gaussian/g16c01-CUDA-11.7.0/g16/l303.exe)
 DipDrv:  MaxL=1.
 Leave Link  303 at Fri May 23 02:07:27 2025, MaxMem=  3758096384 cpu:               0.1 elap:               0.1
 (Enter /apps/easybuild-2022/easybuild/software/Compiler/NVHPC/22.11-CUDA-11.7.0/Gaussian/g16c01-CUDA-11.7.0/g16/l401.exe)
 Initial guess from the checkpoint file:  "1833195415772100000002_well.chk"
 B after Tr=     0.006722    0.005791    0.002357
         Rot=    0.999999   -0.000016    0.000578   -0.000955 Ang=  -0.13 deg.
 Guess basis will be translated and rotated to current coordinates.
 JPrj=2 DoOrth=T DoCkMO=T.
 Initial guess <Sx>= 0.0000 <Sy>= 0.0000 <Sz>= 0.5000 <S**2>= 0.7559 S= 0.5030
 Generating alternative initial guess.
 ExpMin= 4.05D-02 ExpMax= 9.34D+04 ExpMxC= 3.17D+03 IAcc=3 IRadAn=         5 AccDes= 0.00D+00
 Harris functional with IExCor= 4639 and IRadAn=       5 diagonalized for initial guess.
 HarFok:  IExCor= 4639 AccDes= 0.00D+00 IRadAn=         5 IDoV= 1 UseB2=F ITyADJ=14
 ICtDFT=  3500011 ScaDFX=  1.000000  1.000000  1.000000  1.000000
 FoFCou: FMM=F IPFlag=           0 FMFlag=      100000 FMFlg1=           0
         NFxFlg=           0 DoJE=T BraDBF=F KetDBF=T FulRan=T
         wScrn=  0.000000 ICntrl=       500 IOpCl=  0 I1Cent=   200000004 NGrid=           0
         NMat0=    1 NMatS0=      1 NMatT0=    0 NMatD0=    1 NMtDS0=    0 NMtDT0=    0
 Symmetry not used in FoFCou.
 Harris En= -1093.91284093398    
 Leave Link  401 at Fri May 23 02:07:28 2025, MaxMem=  3758096384 cpu:               2.0 elap:               0.4
 (Enter /apps/easybuild-2022/easybuild/software/Compiler/NVHPC/22.11-CUDA-11.7.0/Gaussian/g16c01-CUDA-11.7.0/g16/l502.exe)
 Keep R1 and R2 ints in memory in canonical form, NReq=1377644284.
 FoFCou: FMM=F IPFlag=           0 FMFlag=           0 FMFlg1=           0
         NFxFlg=           0 DoJE=F BraDBF=F KetDBF=F FulRan=T
         wScrn=  0.000000 ICntrl=       600 IOpCl=  0 I1Cent=           0 NGrid=           0
         NMat0=    1 NMatS0=  26106 NMatT0=    0 NMatD0=    1 NMtDS0=    0 NMtDT0=    0
 Symmetry not used in FoFCou.
 Two-electron integral symmetry not used.
 UHF open shell SCF:
 Using DIIS extrapolation, IDIIS=  1040.
 NGot=  3758096384 LenX=  2394880612 LenY=  2394823527
 Requested convergence on RMS density matrix=1.00D-08 within  32 cycles.
 Requested convergence on MAX density matrix=1.00D-06.
 Requested convergence on             energy=1.00D-06.
 No special actions if energy rises.

 Cycle   1  Pass 1  IDiag  1:
 E= -1123.96149709786    
 DIIS: error= 2.78D-03 at cycle   1 NSaved=   1.
 NSaved= 1 IEnMin= 1 EnMin= -1123.96149709786     IErMin= 1 ErrMin= 2.78D-03
 ErrMax= 2.78D-03  0.00D+00 EMaxC= 1.00D-01 BMatC= 2.00D-02 BMatP= 2.00D-02
 IDIUse=3 WtCom= 9.72D-01 WtEn= 2.78D-02
 Coeff-Com:  0.100D+01
 Coeff-En:   0.100D+01
 Coeff:      0.100D+01
 Gap=     0.720 Goal=   None    Shift=    0.000
 Gap=     0.773 Goal=   None    Shift=    0.000
 GapD=    0.720 DampG=2.000 DampE=1.000 DampFc=2.0000 IDamp=-1.
 RMSDP=9.35D-04 MaxDP=5.10D-02              OVMax= 2.50D-02

 Cycle   2  Pass 1  IDiag  1:
 E= -1123.96866060732     Delta-E=       -0.007163509460 Rises=F Damp=F
 DIIS: error= 1.03D-03 at cycle   2 NSaved=   2.
 NSaved= 2 IEnMin= 2 EnMin= -1123.96866060732     IErMin= 2 ErrMin= 1.03D-03
 ErrMax= 1.03D-03  0.00D+00 EMaxC= 1.00D-01 BMatC= 2.12D-03 BMatP= 2.00D-02
 IDIUse=3 WtCom= 9.90D-01 WtEn= 1.03D-02
 Coeff-Com:  0.611D-02 0.994D+00
 Coeff-En:   0.000D+00 0.100D+01
 Coeff:      0.605D-02 0.994D+00
 Gap=     0.420 Goal=   None    Shift=    0.000
 Gap=     0.317 Goal=   None    Shift=    0.000
 RMSDP=3.74D-04 MaxDP=2.58D-02 DE=-7.16D-03 OVMax= 1.56D-02

 Cycle   3  Pass 1  IDiag  1:
 E= -1123.96882029244     Delta-E=       -0.000159685117 Rises=F Damp=F
 DIIS: error= 1.48D-03 at cycle   3 NSaved=   3.
 NSaved= 3 IEnMin= 3 EnMin= -1123.96882029244     IErMin= 2 ErrMin= 1.03D-03
 ErrMax= 1.48D-03  0.00D+00 EMaxC= 1.00D-01 BMatC= 3.20D-03 BMatP= 2.12D-03
 IDIUse=3 WtCom= 2.06D-01 WtEn= 7.94D-01
 Coeff-Com: -0.945D-01 0.614D+00 0.480D+00
 Coeff-En:   0.000D+00 0.393D+00 0.607D+00
 Coeff:     -0.195D-01 0.438D+00 0.581D+00
 Gap=     0.419 Goal=   None    Shift=    0.000
 Gap=     0.316 Goal=   None    Shift=    0.000
 RMSDP=1.70D-04 MaxDP=7.67D-03 DE=-1.60D-04 OVMax= 1.33D-02

 Cycle   4  Pass 1  IDiag  1:
 E= -1123.96922817964     Delta-E=       -0.000407887205 Rises=F Damp=F
 DIIS: error= 9.84D-04 at cycle   4 NSaved=   4.
 NSaved= 4 IEnMin= 4 EnMin= -1123.96922817964     IErMin= 4 ErrMin= 9.84D-04
 ErrMax= 9.84D-04  0.00D+00 EMaxC= 1.00D-01 BMatC= 1.07D-03 BMatP= 2.12D-03
 IDIUse=3 WtCom= 9.90D-01 WtEn= 9.84D-03
 Coeff-Com: -0.417D-01 0.115D+00 0.389D+00 0.538D+00
 Coeff-En:   0.000D+00 0.000D+00 0.253D+00 0.747D+00
 Coeff:     -0.413D-01 0.114D+00 0.388D+00 0.540D+00
 Gap=     0.419 Goal=   None    Shift=    0.000
 Gap=     0.315 Goal=   None    Shift=    0.000
 RMSDP=9.06D-05 MaxDP=4.44D-03 DE=-4.08D-04 OVMax= 6.46D-03

 Cycle   5  Pass 1  IDiag  1:
 E= -1123.96943474724     Delta-E=       -0.000206567596 Rises=F Damp=F
 DIIS: error= 1.72D-04 at cycle   5 NSaved=   5.
 NSaved= 5 IEnMin= 5 EnMin= -1123.96943474724     IErMin= 5 ErrMin= 1.72D-04
 ErrMax= 1.72D-04  0.00D+00 EMaxC= 1.00D-01 BMatC= 3.74D-05 BMatP= 1.07D-03
 IDIUse=3 WtCom= 9.98D-01 WtEn= 1.72D-03
 Coeff-Com:  0.423D-02-0.101D+00 0.728D-01 0.264D+00 0.760D+00
 Coeff-En:   0.000D+00 0.000D+00 0.000D+00 0.000D+00 0.100D+01
 Coeff:      0.423D-02-0.101D+00 0.726D-01 0.263D+00 0.761D+00
 Gap=     0.419 Goal=   None    Shift=    0.000
 Gap=     0.315 Goal=   None    Shift=    0.000
 RMSDP=4.47D-05 MaxDP=2.72D-03 DE=-2.07D-04 OVMax= 4.28D-03

 Cycle   6  Pass 1  IDiag  1:
 E= -1123.96945498001     Delta-E=       -0.000020232773 Rises=F Damp=F
 DIIS: error= 1.03D-04 at cycle   6 NSaved=   6.
 NSaved= 6 IEnMin= 6 EnMin= -1123.96945498001     IErMin= 6 ErrMin= 1.03D-04
 ErrMax= 1.03D-04  0.00D+00 EMaxC= 1.00D-01 BMatC= 5.73D-06 BMatP= 3.74D-05
 IDIUse=3 WtCom= 9.99D-01 WtEn= 1.03D-03
 Coeff-Com:  0.860D-02-0.475D-01-0.532D-01-0.311D-01 0.179D+00 0.944D+00
 Coeff-En:   0.000D+00 0.000D+00 0.000D+00 0.000D+00 0.000D+00 0.100D+01
 Coeff:      0.859D-02-0.474D-01-0.532D-01-0.311D-01 0.179D+00 0.944D+00
 Gap=     0.419 Goal=   None    Shift=    0.000
 Gap=     0.315 Goal=   None    Shift=    0.000
 RMSDP=2.63D-05 MaxDP=1.44D-03 DE=-2.02D-05 OVMax= 3.34D-03

 Cycle   7  Pass 1  IDiag  1:
 E= -1123.96946286672     Delta-E=       -0.000007886710 Rises=F Damp=F
 DIIS: error= 6.76D-05 at cycle   7 NSaved=   7.
 NSaved= 7 IEnMin= 7 EnMin= -1123.96946286672     IErMin= 7 ErrMin= 6.76D-05
 ErrMax= 6.76D-05  0.00D+00 EMaxC= 1.00D-01 BMatC= 1.94D-06 BMatP= 5.73D-06
 IDIUse=1 WtCom= 1.00D+00 WtEn= 0.00D+00
 Coeff-Com:  0.169D-02 0.137D-01-0.384D-01-0.847D-01-0.184D+00 0.256D+00
 Coeff-Com:  0.104D+01
 Coeff:      0.169D-02 0.137D-01-0.384D-01-0.847D-01-0.184D+00 0.256D+00
 Coeff:      0.104D+01
 Gap=     0.419 Goal=   None    Shift=    0.000
 Gap=     0.315 Goal=   None    Shift=    0.000
 RMSDP=1.90D-05 MaxDP=8.88D-04 DE=-7.89D-06 OVMax= 2.94D-03

 Cycle   8  Pass 1  IDiag  1:
 E= -1123.96946630453     Delta-E=       -0.000003437808 Rises=F Damp=F
 DIIS: error= 3.34D-05 at cycle   8 NSaved=   8.
 NSaved= 8 IEnMin= 8 EnMin= -1123.96946630453     IErMin= 8 ErrMin= 3.34D-05
 ErrMax= 3.34D-05  0.00D+00 EMaxC= 1.00D-01 BMatC= 8.58D-07 BMatP= 1.94D-06
 IDIUse=1 WtCom= 1.00D+00 WtEn= 0.00D+00
[...]
 (Enter /apps/easybuild-2022/easybuild/software/Compiler/NVHPC/22.11-CUDA-11.7.0/Gaussian/g16c01-CUDA-11.7.0/g16/l103.exe)

 GradGradGradGradGradGradGradGradGradGradGradGradGradGradGradGradGradGrad
 Berny optimization.
 Red2BG is reusing G-inverse.
 Internal  Forces:  Max     0.000001094 RMS     0.000000187
 Search for a local minimum.
 Step number   1 out of a maximum of    2
 All quantities printed in internal units (Hartrees-Bohrs-Radians)
 Second derivative matrix not updated -- analytic derivatives used.
 ITU=  0
     Eigenvalues ---    0.00152   0.00325   0.04974   0.06602   0.09698
     Eigenvalues ---    0.10176   0.10480   0.11568   0.13635   0.14360
     Eigenvalues ---    0.17103   0.19827   0.23012   0.23581   0.24361
     Eigenvalues ---    0.27352   0.38063   0.38584   0.39138   0.40067
     Eigenvalues ---    0.48887   0.55970   0.58928   0.59899
 Angle between quadratic step and forces=  82.43 degrees.
 Linear search not attempted -- first point.
 Iteration  1 RMS(Cart)=  0.00000805 RMS(Int)=  0.00000000
 Iteration  2 RMS(Cart)=  0.00000000 RMS(Int)=  0.00000000
 ITry= 1 IFail=0 DXMaxC= 3.08D-05 DCOld= 1.00D+10 DXMaxT= 3.00D-01 DXLimC= 3.00D+00 Rises=F
 Variable       Old X    -DE/DX   Delta X   Delta X   Delta X     New X
                                 (Linear)    (Quad)   (Total)
    R1        2.93225  -0.00000   0.00000  -0.00000  -0.00000   2.93225
    R2        2.49545   0.00000   0.00000   0.00000   0.00000   2.49545
    R3        2.51798  -0.00000   0.00000  -0.00000  -0.00000   2.51798
    R4        2.51103   0.00000   0.00000  -0.00000  -0.00000   2.51103
    R5        2.50324  -0.00000   0.00000  -0.00000  -0.00000   2.50324
    R6        2.50665  -0.00000   0.00000   0.00000   0.00000   2.50665
    R7        3.68360  -0.00000   0.00000  -0.00000  -0.00000   3.68360
    R8        2.75911   0.00000   0.00000   0.00000   0.00000   2.75912
    R9        2.75718  -0.00000   0.00000  -0.00000  -0.00000   2.75718
    A1        1.93657  -0.00000   0.00000  -0.00000  -0.00000   1.93657
    A2        1.90612   0.00000   0.00000   0.00000   0.00000   1.90612
    A3        1.90719   0.00000   0.00000  -0.00000  -0.00000   1.90719
    A4        1.91043   0.00000   0.00000  -0.00000  -0.00000   1.91043
    A5        1.90346   0.00000   0.00000   0.00000   0.00000   1.90346
    A6        1.89971  -0.00000   0.00000   0.00000   0.00000   1.89971
    A7        1.93049  -0.00000   0.00000  -0.00000  -0.00000   1.93049
    A8        1.92007  -0.00000   0.00000  -0.00000  -0.00000   1.92007
    A9        1.95313   0.00000   0.00000   0.00000   0.00000   1.95313
   A10        1.92061   0.00000   0.00000   0.00000   0.00000   1.92061
   A11        1.88822   0.00000   0.00000   0.00000   0.00000   1.88822
   A12        1.84946   0.00000   0.00000  -0.00000  -0.00000   1.84945
   A13        1.83883   0.00000   0.00000  -0.00000  -0.00000   1.83883
   A14        1.80919   0.00000   0.00000   0.00000   0.00000   1.80920
   A15        2.13593  -0.00000   0.00000   0.00000   0.00000   2.13593
    D1        0.85171   0.00000   0.00000   0.00001   0.00001   0.85171
    D2        2.97715   0.00000   0.00000   0.00001   0.00001   2.97716
    D3       -1.25501  -0.00000   0.00000   0.00001   0.00001  -1.25501
    D4        2.95914   0.00000   0.00000   0.00001   0.00001   2.95914
    D5       -1.19860  -0.00000   0.00000   0.00001   0.00001  -1.19860
    D6        0.85242  -0.00000   0.00000   0.00001   0.00001   0.85242
    D7       -1.24776   0.00000   0.00000   0.00001   0.00001  -1.24776
    D8        0.87768   0.00000   0.00000   0.00001   0.00001   0.87769
    D9        2.92870  -0.00000   0.00000   0.00001   0.00001   2.92871
   D10        0.92253   0.00000   0.00000   0.00001   0.00001   0.92255
   D11       -3.09761   0.00000   0.00000   0.00001   0.00001  -3.09760
   D12       -1.20857   0.00000   0.00000   0.00001   0.00001  -1.20855
   D13        1.05447   0.00000   0.00000   0.00001   0.00001   1.05449
   D14        3.01542  -0.00000   0.00000   0.00001   0.00001   3.01543
   D15       -1.00473   0.00000   0.00000   0.00001   0.00001  -1.00471
         Item               Value     Threshold  Converged?
 Maximum Force            0.000001     0.000015     YES
 RMS     Force            0.000000     0.000010     YES
 Maximum Displacement     0.000031     0.000060     YES
 RMS     Displacement     0.000008     0.000040     YES
 Predicted change in Energy=-2.844269D-12
 Optimization completed.
    -- Stationary point found.
                           ----------------------------
                           !   Optimized Parameters   !
                           ! (Angstroms and Degrees)  !
 --------------------------                            --------------------------
 ! Name  Definition              Value          Derivative Info.                !
 --------------------------------------------------------------------------------
 ! R1    R(1,2)                  1.5517         -DE/DX =    0.0                 !
 ! R2    R(1,8)                  1.3205         -DE/DX =    0.0                 !
 ! R3    R(1,9)                  1.3325         -DE/DX =    0.0                 !
 ! R4    R(1,10)                 1.3288         -DE/DX =    0.0                 !
 ! R5    R(2,3)                  1.3247         -DE/DX =    0.0                 !
 ! R6    R(2,4)                  1.3265         -DE/DX =    0.0                 !
 ! R7    R(2,5)                  1.9493         -DE/DX =    0.0                 !
 ! R8    R(5,6)                  1.4601         -DE/DX =    0.0                 !
 ! R9    R(5,7)                  1.459          -DE/DX =    0.0                 !
 ! A1    A(2,1,8)              110.9571         -DE/DX =    0.0                 !
 ! A2    A(2,1,9)              109.2124         -DE/DX =    0.0                 !
 ! A3    A(2,1,10)             109.2738         -DE/DX =    0.0                 !
 ! A4    A(8,1,9)              109.4593         -DE/DX =    0.0                 !
 ! A5    A(8,1,10)             109.0602         -DE/DX =    0.0                 !
 ! A6    A(9,1,10)             108.8455         -DE/DX =    0.0                 !
 ! A7    A(1,2,3)              110.609          -DE/DX =    0.0                 !
 ! A8    A(1,2,4)              110.0119         -DE/DX =    0.0                 !
 ! A9    A(1,2,5)              111.9062         -DE/DX =    0.0                 !
 ! A10   A(3,2,4)              110.0429         -DE/DX =    0.0                 !
 ! A11   A(3,2,5)              108.1872         -DE/DX =    0.0                 !
 ! A12   A(4,2,5)              105.966          -DE/DX =    0.0                 !
 ! A13   A(2,5,6)              105.3571         -DE/DX =    0.0                 !
 ! A14   A(2,5,7)              103.6592         -DE/DX =    0.0                 !
 ! A15   A(6,5,7)              122.3798         -DE/DX =    0.0                 !
 ! D1    D(8,1,2,3)             48.7991         -DE/DX =    0.0                 !
 ! D2    D(8,1,2,4)            170.5782         -DE/DX =    0.0                 !
 ! D3    D(8,1,2,5)            -71.9069         -DE/DX =    0.0                 !
 ! D4    D(9,1,2,3)            169.546          -DE/DX =    0.0                 !
 ! D5    D(9,1,2,4)            -68.6749         -DE/DX =    0.0                 !
 ! D6    D(9,1,2,5)             48.8399         -DE/DX =    0.0                 !
 ! D7    D(10,1,2,3)           -71.4916         -DE/DX =    0.0                 !
 ! D8    D(10,1,2,4)            50.2875         -DE/DX =    0.0                 !
 ! D9    D(10,1,2,5)           167.8024         -DE/DX =    0.0                 !
 ! D10   D(1,2,5,6)             52.8573         -DE/DX =    0.0                 !
 ! D11   D(1,2,5,7)           -177.4802         -DE/DX =    0.0                 !
 ! D12   D(3,2,5,6)            -69.2457         -DE/DX =    0.0                 !
 ! D13   D(3,2,5,7)             60.4168         -DE/DX =    0.0                 !
 ! D14   D(4,2,5,6)            172.7709         -DE/DX =    0.0                 !
 ! D15   D(4,2,5,7)            -57.5665         -DE/DX =    0.0                 !
 --------------------------------------------------------------------------------
 GradGradGradGradGradGradGradGradGradGradGradGradGradGradGradGradGradGrad

 Leave Link  103 at Fri May 23 02:10:44 2025, MaxMem=  3758096384 cpu:               0.1 elap:               0.0
 (Enter /apps/easybuild-2022/easybuild/software/Compiler/NVHPC/22.11-CUDA-11.7.0/Gaussian/g16c01-CUDA-11.7.0/g16/l9999.exe)

 ----------------------------------------------------------------------

 Electric dipole moment (input orientation):
 (Debye = 10**-18 statcoulomb cm , SI units = C m)
                  (au)            (Debye)         (10**-30 SI)
   Tot        0.751697D+00      0.191062D+01      0.637315D+01
   x         -0.510983D+00     -0.129879D+01     -0.433230D+01
   y          0.532619D+00      0.135378D+01      0.451573D+01
   z          0.142344D+00      0.361802D+00      0.120684D+01

 Dipole polarizability, Alpha (input orientation).
 (esu units = cm**3 , SI units = C**2 m**2 J**-1)
 Alpha(0;0):
               (au)            (10**-24 esu)      (10**-40 SI)
   iso        0.546287D+02      0.809514D+01      0.900706D+01
   aniso      0.178847D+02      0.265024D+01      0.294879D+01
   xx         0.615129D+02      0.911527D+01      0.101421D+02
   yx        -0.293549D+01     -0.434994D+00     -0.483997D+00
   yy         0.440137D+02      0.652216D+01      0.725688D+01
   zx        -0.227709D+01     -0.337429D+00     -0.375441D+00
   zy        -0.241342D+01     -0.357633D+00     -0.397920D+00
   zz         0.583595D+02      0.864799D+01      0.962218D+01

 ----------------------------------------------------------------------

 Dipole orientation:
     6          1.11571308         -2.01352751          1.80927121
     6         -0.19721436         -0.12400309         -0.00841580
     9         -1.92216640         -1.29114479         -1.39712398
     9         -1.25993403          1.72963457          1.30228885
    16          2.20803212          1.49259907         -2.28224177
     8          3.59486015         -0.57604612         -3.46972868
     8          0.65460471          3.25147998         -3.72973119
     9          1.85483178         -4.06016778          0.58770478
     9          3.11244688         -0.89847114          2.86281338
     9         -0.49294236         -2.67550090          3.62015484

 Electric dipole moment (dipole orientation):
 (Debye = 10**-18 statcoulomb cm , SI units = C m)
                  (au)            (Debye)         (10**-30 SI)
   Tot        0.751697D+00      0.191062D+01      0.637315D+01
   x          0.000000D+00      0.000000D+00      0.000000D+00
   y          0.000000D+00      0.000000D+00      0.000000D+00
   z          0.751697D+00      0.191062D+01      0.637315D+01

 Dipole polarizability, Alpha (dipole orientation).
 (esu units = cm**3 , SI units = C**2 m**2 J**-1)
 Alpha(0;0):
               (au)            (10**-24 esu)      (10**-40 SI)
   iso        0.546287D+02      0.809514D+01      0.900706D+01
   aniso      0.178847D+02      0.265024D+01      0.294879D+01
   xx         0.525102D+02      0.778121D+01      0.865777D+01
   yx        -0.399095D+01     -0.591397D+00     -0.658018D+00
   yy         0.559952D+02      0.829763D+01      0.923235D+01
   zx        -0.644989D+01     -0.955774D+00     -0.106344D+01
   zy        -0.675514D+01     -0.100101D+01     -0.111377D+01
   zz         0.553807D+02      0.820658D+01      0.913105D+01

 ----------------------------------------------------------------------
 Unable to Open any file for archive entry.
 1\1\GINC-SPARTAN-BM166\Freq\UwB97XD\6-311++G(d,p)\C2F5O2S1\AKHALILOV\2
 3-May-2025\0\\#P Geom=AllCheck Guess=TCheck SCRF=Check GenChk UwB97XD/
 6-311++G(d,p) Freq\\Gaussian input prepared by ASE\\0,2\C,-0.721308552
 3,0.3017448798,1.3376204138\C,-0.0873615373,-0.0833392035,-0.025290232
 1\F,-0.3960968621,-1.3306108105,-0.3473272926\F,-0.5054886328,0.747216
 4321,-0.9712543551\S,1.855312232,0.0738947225,0.0059262561\O,2.2879145
 133,-0.7067534044,1.1614433341\O,2.2502733099,-0.2638738271,-1.3574158
 838\F,-0.4813181716,-0.6237569618,2.2484775007\F,-0.2152256206,1.46566
 08487,1.7433664733\F,-2.0351126784,0.4335683243,1.1886247856\\Version=
 ES64L-G16RevC.01\HF=-1123.9696428\S2=0.757571\S2-1=0.\S2A=0.750043\RMS
 D=2.986e-09\RMSF=1.701e-06\ZeroPoint=0.0347095\Thermal=0.0442773\ETot=
 -1123.9253655\HTot=-1123.9244213\GTot=-1123.97199\Dipole=-0.5109831,0.
 5326186,0.1423438\DipoleDeriv=1.6705529,0.0284794,0.063407,-0.0995175,
 1.6368481,-0.0309767,-0.3806284,-0.0215055,1.4333456,1.2460923,-0.0259
 814,0.1548743,0.1215795,1.3430199,-0.1075926,0.6200332,-0.1403839,0.88
 88819,-0.4955467,-0.1541531,-0.0195794,-0.4146988,-0.7812576,-0.105127
 1,-0.1099962,-0.2050239,-0.3029874,-0.5139921,0.1720696,-0.147171,0.28
 24916,-0.4979463,0.2152573,-0.3294409,0.3278525,-0.5726419,0.9979871,-
 0.0915303,-0.0982068,-0.4423714,0.7074041,-0.0847789,-0.0985727,-0.093
 9851,1.2915826,-0.5463768,0.0670215,-0.0985039,0.3031594,-0.4280531,0.
 2170032,-0.2150328,0.024524,-0.6352415,-0.5500625,0.0180627,0.1447341,
 0.2046576,-0.3665951,-0.1500762,0.3389396,0.0659319,-0.7413065,-0.3040
 509,0.0530886,0.0090545,0.0560938,-0.5525361,0.2422883,0.0353989,0.318
 2543,-0.6265544,-0.3861699,-0.1524801,-0.0068953,-0.1511378,-0.7699575
 ,-0.1748724,0.0063046,-0.2462791,-0.3926402,-1.1184333,0.085423,-0.001
 7135,0.1397436,-0.2909263,-0.0211249,0.1329946,-0.0293851,-0.3424382\P
 olar=61.5128583,-2.9354879,44.0137332,-2.2770856,-2.4134247,58.3595191
 \PG=Unknown\NImag=0\\0.54929590,-0.00707951,0.56129485,-0.01556905,-0.
 00753341,0.58265799,-0.07674941,0.01127060,0.03963874,0.33697767,0.019
 76930,-0.04683841,-0.03112492,-0.00388623,0.53178198,0.07043270,-0.030
 62057,-0.14517473,0.01443928,0.00505960,0.54401804,0.00368996,0.005891
 19,0.00227387,-0.08095334,-0.07180128,-0.02306739,0.07111028,-0.016593
 70,-0.03550349,-0.00493107,-0.04957494,-0.27897237,-0.08315748,0.07365
 422,0.38923401,-0.01720318,-0.03299562,-0.00203188,-0.01631488,-0.0733
 1399,-0.10186322,0.02284911,0.08067849,0.09382255,-0.00023581,-0.00087
 383,0.00427897,-0.09312150,0.05368009,-0.07233220,0.01440898,-0.000259
 72,0.00636387,0.09349765,0.00532769,-0.00689979,0.00957972,0.03968144,
 -0.14251852,0.10575128,0.01287901,-0.06942014,0.03619568,-0.06679620,0
 .21095064,-0.02581034,0.03678666,-0.02964002,-0.05508271,0.09878055,-0
 .22231839,0.00337475,0.02015522,0.01517764,0.08110166,-0.15765128,0.25
 439331,-0.01701657,-0.00037578,0.01184137,-0.04361796,-0.02992308,-0.0
 0111181,-0.01931458,-0.01391014,-0.00176161,-0.01088499,0.00941149,-0.
 00621924,0.27225062,0.00156994,0.00749057,-0.01019511,0.02002445,-0.02
 100077,0.00392013,-0.03409666,-0.02893155,-0.00756045,0.01312320,0.001
 27057,0.00593596,-0.12181475,0.33235591,0.02417811,0.00021964,0.012012
 92,0.01587144,-0.00626446,-0.01406984,-0.00832354,-0.00493898,-0.00306
 925,-0.02339630,0.00868358,-0.01419959,-0.01378307,-0.09661881,0.87599
 629,0.00331650,-0.00298728,-0.00098790,0.00383474,0.01943919,-0.014215
 46,0.00148139,-0.00100424,0.00096397,-0.01103613,0.00244562,-0.0048731
 3,-0.09794590,0.08582164,-0.12498912,0.09127975,0.00066066,-0.00254690
 ,0.00721240,-0.00802589,-0.00361197,0.00151920,0.00521496,0.00871133,0
 .00081593,0.00348342,-0.00138364,0.00116946,0.10123717,-0.20291406,0.2
 3062331,-0.09930494,0.17975017,-0.00434117,0.00029747,-0.00950663,-0.0
 0842889,0.00900963,-0.00656879,-0.00044991,-0.00408473,0.00157860,-0.0
 0468757,0.00235462,-0.00056150,-0.10658301,0.19780035,-0.35931273,0.13
 231810,-0.22743107,0.38640175,-0.00286068,-0.00171813,-0.00813372,-0.0
 0634167,0.01396870,0.02642788,0.00335275,0.00056410,-0.00080723,0.0002
 0568,-0.00085384,-0.00004468,-0.08932362,0.03540067,0.13608874,0.01296
 167,-0.00374568,-0.01143735,0.08430939,-0.00089671,-0.00075907,0.00343
 873,-0.00993789,-0.00021515,-0.00474099,0.00445226,0.00729840,0.002846
 77,0.00073707,-0.00061814,0.00050190,0.05444848,-0.08382144,-0.1321098
 5,-0.00642915,0.01963120,0.02304424,-0.04428158,0.05761014,-0.00160500
 ,0.00234583,0.00563297,0.00829393,-0.00357332,-0.02586833,0.00023746,0
 .00467316,0.00465226,0.00173088,-0.00332655,0.00722938,0.12395870,-0.0
 9876611,-0.48766614,0.00943022,-0.00903847,-0.01886418,-0.14711885,0.1
 0935217,0.51763146,-0.08011727,0.02041169,-0.01722957,0.00777089,-0.00
 627895,0.00307440,0.00042380,0.00147141,0.00120558,0.00043944,-0.00066
 131,0.00438350,-0.00063175,0.00134578,-0.00361709,-0.00242445,-0.00137
 863,0.00284556,0.00063821,0.00001915,0.00071863,0.09396691,0.01756066,
 -0.16946827,0.11313946,0.00377478,-0.01033545,0.00713723,0.00031186,0.
 00649961,-0.00093171,-0.00166345,0.00188535,0.00102854,0.00183540,-0.0
 0298130,0.00201367,0.00051121,0.00243786,-0.00179592,-0.00088354,0.000
 74381,0.00006312,-0.04483334,0.25622139,-0.01437410,0.10573886,-0.2170
 0590,-0.01152312,0.03748571,-0.02459874,0.00059498,-0.00215657,0.00030
 423,0.00367365,0.00006717,-0.01235546,-0.00280601,0.00290344,-0.003716
 72,0.00153430,-0.00238982,0.00306339,0.00189674,-0.00109528,-0.0006694
 6,0.04877485,-0.17585540,0.24439254,-0.09354219,-0.05234493,-0.0220603
 5,0.00366434,0.00101478,0.00093263,0.00129246,0.00220466,0.00180711,0.
 00111460,-0.00014553,0.00136067,0.00104760,0.00011967,-0.00247343,-0.0
 0036967,0.00052872,0.00128828,0.00022235,0.00057883,0.00048020,0.01238
 818,-0.00908218,0.00448516,0.12645907,-0.04891919,-0.22828716,-0.07760
 121,-0.01789305,-0.03033318,-0.00573431,0.00361487,-0.00215280,-0.0072
 6483,0.00087374,0.00474159,-0.00468801,0.00021443,-0.00102481,-0.00064
 036,0.00104905,0.00004892,0.00043404,0.00058875,0.00015260,-0.00077897
 ,-0.01311742,-0.07628114,0.01505369,0.10886202,0.33577740,-0.01914586,
 -0.07346351,-0.11732490,-0.01582759,-0.03412444,-0.00391027,0.00311167
 ,-0.00629030,-0.00901512,0.00085189,0.00042478,-0.00030739,-0.00115856
 ,0.00111769,-0.00222827,0.00056712,-0.00094412,0.00168943,0.00083350,-
 0.00058356,-0.00054116,0.00733181,0.03241042,0.01736692,0.04172237,0.0
 9038707,0.10638042,-0.28578044,0.02780600,0.00594764,-0.05146377,0.004
 01748,-0.00458002,0.00450830,0.00344834,0.00289726,0.00561208,-0.00128
 839,0.00180952,0.00543714,-0.00149395,0.00044424,-0.00109791,0.0013302
 0,-0.00052404,-0.00316409,0.00130955,0.00387383,-0.03245397,0.03246859
 ,-0.03225644,-0.05227676,-0.03527320,-0.01828634,0.41067941,0.02860086
 ,-0.07848233,-0.00198460,0.01456673,0.00204384,0.00086591,-0.00012044,
 0.00323700,0.00152974,-0.00230432,0.00199209,-0.00201900,-0.00112322,-
 0.00044312,-0.00096774,0.00045890,-0.00012292,0.00037136,0.00096055,-0
 .00002236,-0.00095087,0.04302162,-0.00872186,0.02024821,-0.05173605,-0
 .00264142,-0.00893403,-0.03232461,0.08316108,0.00343789,-0.00077534,-0
 .07961983,0.02893380,-0.00193437,0.00035427,-0.00060101,0.00005227,0.0
 0044418,0.00241516,-0.00207902,0.00258201,-0.00237676,0.00146290,-0.00
 374668,0.00025190,-0.00153682,0.00208065,0.00229497,-0.00065413,-0.001
 53679,-0.04748767,0.02279060,-0.00678080,-0.02754264,-0.00916713,0.007
 89035,0.04067436,-0.00815897,0.07833264\\0.00000002,-0.00000072,0.0000
 0025,-0.00000005,0.00000158,-0.00000033,-0.00000113,0.00000227,-0.0000
 0298,0.00000168,0.00000376,0.00000104,0.00000080,-0.00000155,0.0000020
 5,-0.00000156,-0.00000330,-0.00000119,0.00000058,0.00000106,0.00000039
 ,-0.00000172,-0.00000257,-0.00000163,0.00000121,-0.00000191,0.00000270
 ,0.00000018,0.00000139,-0.00000030\\\@
 The archive entry for this job was punched.


 ACCORDING TO HEN3RY, LIFE IS MUCH LIKE A SEWER........
 YOU GET OUT OF IT JUST WHAT YOU PUT INTO IT...........
                         TOM LEHRER - (THE 3 IS SILENT)
 Job cpu time:       0 days  0 hours 10 minutes 12.5 seconds.
 Elapsed time:       0 days  0 hours  1 minutes 20.2 seconds.
 File lengths (MBytes):  RWF=    130 Int=      0 D2E=      0 Chk=      6 Scr=      1
 Normal termination of Gaussian 16 at Fri May 23 02:10:44 2025.
done
