 Entering Gaussian System, Link 0=g16
 Initial command:
 /apps/easybuild-2022/easybuild/software/Compiler/NVHPC/22.11-CUDA-11.7.0/Gaussian/g16c01-CUDA-11.7.0/g16/l1.exe "/tmp/Gau-77294.inp" -scrdir="/tmp/"
 Entering Link 1 = /apps/easybuild-2022/easybuild/software/Compiler/NVHPC/22.11-CUDA-11.7.0/Gaussian/g16c01-CUDA-11.7.0/g16/l1.exe PID=     77297.
  
 Copyright (c) 1988-2019, Gaussian, Inc.  All Rights Reserved.
  
 This is part of the Gaussian(R) 16 program.  It is based on
 the Gaussian(R) 09 system (copyright 2009, Gaussian, Inc.),
 the Gaussian(R) 03 system (copyright 2003, Gaussian, Inc.),
 the Gaussian(R) 98 system (copyright 1998, Gaussian, Inc.),
 the Gaussian(R) 94 system (copyright 1995, Gaussian, Inc.),
 the Gaussian 92(TM) system (copyright 1992, Gaussian, Inc.),
 the Gaussian 90(TM) system (copyright 1990, Gaussian, Inc.),
 the Gaussian 88(TM) system (copyright 1988, Gaussian, Inc.),
 the Gaussian 86(TM) system (copyright 1986, Carnegie Mellon
 University), and the Gaussian 82(TM) system (copyright 1983,
 Carnegie Mellon University). Gaussian is a federally registered
 trademark of Gaussian, Inc.
  
 This software contains proprietary and confidential information,
 including trade secrets, belonging to Gaussian, Inc.
  
 This software is provided under written license and may be
 used, copied, transmitted, or stored only in accord with that
 written license.
  
 The following legend is applicable only to US Government
 contracts under FAR:
  
                    RESTRICTED RIGHTS LEGEND
  
 Use, reproduction and disclosure by the US Government is
 subject to restrictions as set forth in subparagraphs (a)
 and (c) of the Commercial Computer Software - Restricted
 Rights clause in FAR 52.227-19.
  
 Gaussian, Inc.
 340 Quinnipiac St., Bldg. 40, Wallingford CT 06492
  
  
 ---------------------------------------------------------------
 Warning -- This program may not be used in any manner that
 competes with the business of Gaussian, Inc. or will provide
 assistance to any competitor of Gaussian, Inc.  The licensee
 of this program is prohibited from giving any competitor of
 Gaussian, Inc. access to this program.  By using this program,
 the user acknowledges that Gaussian, Inc. is engaged in the
 business of creating and licensing software in the field of
 computational chemistry and represents and warrants to the
 licensee that it is not a competitor of Gaussian, Inc. and that
 it will not use this program in any manner prohibited above.
 ---------------------------------------------------------------
  

 Cite this work as:
 Gaussian 16, Revision C.01,
 M. J. Frisch, G. W. Trucks, H. B. Schlegel, G. E. Scuseria, 
 M. A. Robb, J. R. Cheeseman, G. Scalmani, V. Barone, 
 G. A. Petersson, H. Nakatsuji, X. Li, M. Caricato, A. V. Marenich, 
 J. Bloino, B. G. Janesko, R. Gomperts, B. Mennucci, H. P. Hratchian, 
 J. V. Ortiz, A. F. Izmaylov, J. L. Sonnenberg, D. Williams-Young, 
 F. Ding, F. Lipparini, F. Egidi, J. Goings, B. Peng, A. Petrone, 
 T. Henderson, D. Ranasinghe, V. G. Zakrzewski, J. Gao, N. Rega, 
 G. Zheng, W. Liang, M. Hada, M. Ehara, K. Toyota, R. Fukuda, 
 J. Hasegawa, M. Ishida, T. Nakajima, Y. Honda, O. Kitao, H. Nakai, 
 T. Vreven, K. Throssell, J. A. Montgomery, Jr., J. E. Peralta, 
 F. Ogliaro, M. J. Bearpark, J. J. Heyd, E. N. Brothers, K. N. Kudin, 
 V. N. Staroverov, T. A. Keith, R. Kobayashi, J. Normand, 
 K. Raghavachari, A. P. Rendell, J. C. Burant, S. S. Iyengar, 
 J. Tomasi, M. Cossi, J. M. Millam, M. Klene, C. Adamo, R. Cammi, 
 J. W. Ochterski, R. L. Martin, K. Morokuma, O. Farkas, 
 J. B. Foresman, and D. J. Fox, Gaussian, Inc., Wallingford CT, 2019.
 
 ******************************************
 Gaussian 16:  ES64L-G16RevC.01  3-Jul-2019
                23-May-2025 
 ******************************************
 %mem=28GB
 %chk=2003846667223680600001_r12_insertion_R_1_2_3_IRC_R_prod
 %nprocshared=8
 Will use up to    8 processors via shared memory.
 ----------------------------------------------------------------------
 #P wb97xd/6-311++G(d,p) Symm(None) scf(xqc) pop(None) freq opt(CalcFC)
 ----------------------------------------------------------------------
 1/10=4,18=20,19=15,26=3,38=1/1,3;
 2/9=110,12=2,15=3,17=6,18=5,40=1/2;
 3/5=4,6=6,7=1111,11=2,25=1,30=1,71=2,74=-58,140=1/1,2,3;
 4//1;
 5/5=2,8=3,13=1,38=5/2,8;
 8/6=4,10=90,11=11/1;
 11/6=1,8=1,9=11,15=111,16=1,31=1/1,2,10;
 10/6=1,13=1,31=1/2;
 7/10=1,25=1,30=1/1,2,3,16;
 1/10=4,18=20,19=15,26=3/3(2);
 2/9=110,15=3/2;
 99//99;
 2/9=110,15=3/2;
 3/5=4,6=6,7=1111,11=2,25=1,30=1,71=1,74=-58/1,2,3;
 4/5=5,16=3,69=1/1;
 5/5=2,8=3,13=1,38=5/2,8;
 7/30=1/1,2,3,16;
 1/18=20,19=15,26=3/3(-5);
 2/9=110,15=3/2;
 99/9=1/99;
 Leave Link    1 at Fri May 23 04:07:09 2025, MaxMem=  3758096384 cpu:               0.1 elap:               0.1
 (Enter /apps/easybuild-2022/easybuild/software/Compiler/NVHPC/22.11-CUDA-11.7.0/Gaussian/g16c01-CUDA-11.7.0/g16/l101.exe)
 ------------------------------
 Gaussian input prepared by ASE
 ------------------------------
 Symbolic Z-matrix:
 Charge =  0 Multiplicity = 1
 C                    -1.32874  -0.59819  -0.22308 
 C                    -0.37746   0.4498    0.37461 
 F                    -1.13044  -0.5844   -1.53886 
 F                    -0.70631   1.64379  -0.13292 
 S                     1.44966   0.14029   0.04278 
 O                     2.09249   1.14237   0.8453 
 O                     1.67216  -1.26599   0.15327 
 O                     1.67523   0.50736  -1.49977 
 F                    -1.10975  -1.80594   0.26394 
 F                    -0.50816   0.46593   1.69857 
 F                    -2.58672  -0.26166   0.04791 
 H                     1.87683   1.4483   -1.59034 
 
 ITRead=  0  0  0  0  0  0  0  0  0  0  0  0
 MicOpt= -1 -1 -1 -1 -1 -1 -1 -1 -1 -1 -1 -1
 NAtoms=     12 NQM=       12 NQMF=       0 NMMI=      0 NMMIF=      0
                NMic=       0 NMicF=      0.
                    Isotopes and Nuclear Properties:
 (Nuclear quadrupole moments (NQMom) in fm**2, nuclear magnetic moments (NMagM)
  in nuclear magnetons)

  Atom         1           2           3           4           5           6           7           8           9          10
 IAtWgt=          12          12          19          19          32          16          16          16          19          19
 AtmWgt=  12.0000000  12.0000000  18.9984032  18.9984032  31.9720718  15.9949146  15.9949146  15.9949146  18.9984032  18.9984032
 NucSpn=           0           0           1           1           0           0           0           0           1           1
 AtZEff=  -0.0000000  -0.0000000  -0.0000000  -0.0000000  -0.0000000  -0.0000000  -0.0000000  -0.0000000  -0.0000000  -0.0000000
 NQMom=    0.0000000   0.0000000   0.0000000   0.0000000   0.0000000   0.0000000   0.0000000   0.0000000   0.0000000   0.0000000
 NMagM=    0.0000000   0.0000000   2.6288670   2.6288670   0.0000000   0.0000000   0.0000000   0.0000000   2.6288670   2.6288670
 AtZNuc=   6.0000000   6.0000000   9.0000000   9.0000000  16.0000000   8.0000000   8.0000000   8.0000000   9.0000000   9.0000000

  Atom        11          12
 IAtWgt=          19           1
 AtmWgt=  18.9984032   1.0078250
 NucSpn=           1           1
 AtZEff=  -0.0000000  -0.0000000
 NQMom=    0.0000000   0.0000000
 NMagM=    2.6288670   2.7928460
 AtZNuc=   9.0000000   1.0000000
 Leave Link  101 at Fri May 23 04:07:09 2025, MaxMem=  3758096384 cpu:               0.2 elap:               0.2
 (Enter /apps/easybuild-2022/easybuild/software/Compiler/NVHPC/22.11-CUDA-11.7.0/Gaussian/g16c01-CUDA-11.7.0/g16/l103.exe)

 GradGradGradGradGradGradGradGradGradGradGradGradGradGradGradGradGradGrad
 Berny optimization.
 Initialization pass.
                           ----------------------------
                           !    Initial Parameters    !
                           ! (Angstroms and Degrees)  !
 --------------------------                            --------------------------
 ! Name  Definition              Value          Derivative Info.                !
 --------------------------------------------------------------------------------
 ! R1    R(1,2)                  1.5364         calculate D2E/DX2 analytically  !
 ! R2    R(1,3)                  1.3307         calculate D2E/DX2 analytically  !
 ! R3    R(1,9)                  1.3205         calculate D2E/DX2 analytically  !
 ! R4    R(1,11)                 1.3301         calculate D2E/DX2 analytically  !
 ! R5    R(2,4)                  1.3384         calculate D2E/DX2 analytically  !
 ! R6    R(2,5)                  1.8826         calculate D2E/DX2 analytically  !
 ! R7    R(2,10)                 1.3305         calculate D2E/DX2 analytically  !
 ! R8    R(5,6)                  1.4358         calculate D2E/DX2 analytically  !
 ! R9    R(5,7)                  1.4281         calculate D2E/DX2 analytically  !
 ! R10   R(5,8)                  1.6016         calculate D2E/DX2 analytically  !
 ! R11   R(8,12)                 0.9665         calculate D2E/DX2 analytically  !
 ! A1    A(2,1,3)              106.5783         calculate D2E/DX2 analytically  !
 ! A2    A(2,1,9)              112.1918         calculate D2E/DX2 analytically  !
 ! A3    A(2,1,11)             109.497          calculate D2E/DX2 analytically  !
 ! A4    A(3,1,9)              110.4522         calculate D2E/DX2 analytically  !
 ! A5    A(3,1,11)             109.8624         calculate D2E/DX2 analytically  !
 ! A6    A(9,1,11)             108.2465         calculate D2E/DX2 analytically  !
 ! A7    A(1,2,4)              107.991          calculate D2E/DX2 analytically  !
 ! A8    A(1,2,5)              114.8475         calculate D2E/DX2 analytically  !
 ! A9    A(1,2,10)             109.5458         calculate D2E/DX2 analytically  !
 ! A10   A(4,2,5)              108.5589         calculate D2E/DX2 analytically  !
 ! A11   A(4,2,10)             110.0229         calculate D2E/DX2 analytically  !
 ! A12   A(5,2,10)             105.8264         calculate D2E/DX2 analytically  !
 ! A13   A(2,5,6)              102.7831         calculate D2E/DX2 analytically  !
 ! A14   A(2,5,7)              107.4259         calculate D2E/DX2 analytically  !
 ! A15   A(2,5,8)              105.5913         calculate D2E/DX2 analytically  !
 ! A16   A(6,5,7)              125.0499         calculate D2E/DX2 analytically  !
 ! A17   A(6,5,8)              108.3805         calculate D2E/DX2 analytically  !
 ! A18   A(7,5,8)              106.1571         calculate D2E/DX2 analytically  !
 ! A19   A(5,8,12)             110.0444         calculate D2E/DX2 analytically  !
 ! D1    D(3,1,2,4)             61.4469         calculate D2E/DX2 analytically  !
 ! D2    D(3,1,2,5)            -59.8289         calculate D2E/DX2 analytically  !
 ! D3    D(3,1,2,10)          -178.7315         calculate D2E/DX2 analytically  !
 ! D4    D(9,1,2,4)           -177.5431         calculate D2E/DX2 analytically  !
 ! D5    D(9,1,2,5)             61.1811         calculate D2E/DX2 analytically  !
 ! D6    D(9,1,2,10)           -57.7215         calculate D2E/DX2 analytically  !
 ! D7    D(11,1,2,4)           -57.3342         calculate D2E/DX2 analytically  !
 ! D8    D(11,1,2,5)          -178.6101         calculate D2E/DX2 analytically  !
 ! D9    D(11,1,2,10)           62.4874         calculate D2E/DX2 analytically  !
 ! D10   D(1,2,5,6)           -172.7002         calculate D2E/DX2 analytically  !
 ! D11   D(1,2,5,7)            -39.1945         calculate D2E/DX2 analytically  !
 ! D12   D(1,2,5,8)             73.7839         calculate D2E/DX2 analytically  !
 ! D13   D(4,2,5,6)             66.3346         calculate D2E/DX2 analytically  !
 ! D14   D(4,2,5,7)           -160.1597         calculate D2E/DX2 analytically  !
 ! D15   D(4,2,5,8)            -47.1813         calculate D2E/DX2 analytically  !
 ! D16   D(10,2,5,6)           -51.7373         calculate D2E/DX2 analytically  !
 ! D17   D(10,2,5,7)            81.7684         calculate D2E/DX2 analytically  !
 ! D18   D(10,2,5,8)          -165.2532         calculate D2E/DX2 analytically  !
 ! D19   D(2,5,8,12)            87.8959         calculate D2E/DX2 analytically  !
 ! D20   D(6,5,8,12)           -21.6634         calculate D2E/DX2 analytically  !
 ! D21   D(7,5,8,12)          -158.2418         calculate D2E/DX2 analytically  !
 --------------------------------------------------------------------------------
 Trust Radius=3.00D-01 FncErr=1.00D-07 GrdErr=1.00D-06 EigMax=2.50D+02 EigMin=1.00D-04
 Number of steps in this run=     61 maximum allowed number of steps=    100.
 GradGradGradGradGradGradGradGradGradGradGradGradGradGradGradGradGradGrad

 Leave Link  103 at Fri May 23 04:07:09 2025, MaxMem=  3758096384 cpu:               0.1 elap:               0.0
 (Enter /apps/easybuild-2022/easybuild/software/Compiler/NVHPC/22.11-CUDA-11.7.0/Gaussian/g16c01-CUDA-11.7.0/g16/l202.exe)
                          Input orientation:                          
 ---------------------------------------------------------------------
 Center     Atomic      Atomic             Coordinates (Angstroms)
 Number     Number       Type             X           Y           Z
 ---------------------------------------------------------------------
      1          6           0       -1.328739   -0.598185   -0.223077
      2          6           0       -0.377461    0.449803    0.374611
      3          9           0       -1.130437   -0.584399   -1.538864
      4          9           0       -0.706305    1.643792   -0.132917
      5         16           0        1.449661    0.140293    0.042776
      6          8           0        2.092489    1.142366    0.845296
      7          8           0        1.672162   -1.265991    0.153268
      8          8           0        1.675230    0.507362   -1.499771
      9          9           0       -1.109748   -1.805935    0.263935
     10          9           0       -0.508156    0.465927    1.698571
     11          9           0       -2.586718   -0.261658    0.047908
     12          1           0        1.876831    1.448298   -1.590343
 ---------------------------------------------------------------------
                    Distance matrix (angstroms):
                    1          2          3          4          5
     1  C    0.000000
     2  C    1.536372   0.000000
     3  F    1.330718   2.301724   0.000000
     4  F    2.328522   1.338407   2.668597   0.000000
     5  S    2.887133   1.882627   3.111859   2.634306   0.000000
     6  O    3.984437   2.608034   4.364996   3.006921   1.435763
     7  O    3.097258   2.682144   3.344015   3.769064   1.428058
     8  O    3.446159   2.780317   3.010853   2.971779   1.601584
     9  F    1.320529   2.374205   2.177765   3.495837   3.222932
    10  F    2.344871   1.330493   3.459972   2.186545   2.584713
    11  F    1.330111   2.343870   2.177788   2.683168   4.056346
    12  H    4.041434   3.152756   3.630175   2.972356   2.135516
                    6          7          8          9         10
     6  O    0.000000
     7  O    2.540819   0.000000
     8  O    2.465091   2.424320   0.000000
     9  F    4.391444   2.835985   4.027171   0.000000
    10  F    2.819398   3.184539   3.872762   2.753443   0.000000
    11  F    4.949959   4.376967   4.599011   2.147766   2.752179
    12  H    2.464232   3.232558   0.966544   4.790411   4.179733
                   11         12
    11  F    0.000000
    12  H    5.052829   0.000000
 Symmetry turned off by external request.
 Stoichiometry    C2HF5O3S
 Rotational constants (GHZ):           1.5762187           0.8397985           0.7878530
 Leave Link  202 at Fri May 23 04:07:09 2025, MaxMem=  3758096384 cpu:               0.1 elap:               0.0
 (Enter /apps/easybuild-2022/easybuild/software/Compiler/NVHPC/22.11-CUDA-11.7.0/Gaussian/g16c01-CUDA-11.7.0/g16/l301.exe)
 Standard basis: 6-311++G(d,p) (5D, 7F)
 Ernie: Thresh=  0.10000D-02 Tol=  0.10000D-05 Strict=F.
   257 basis functions,   419 primitive gaussians,   268 cartesian basis functions
    49 alpha electrons       49 beta electrons
       nuclear repulsion energy       924.9205844867 Hartrees.
 IExCor= 4639 DFT=T Ex+Corr=wB97XD ExCW=0 ScaHFX=  1.000000
 ScaDFX=  1.000000  1.000000  1.000000  1.000000 ScalE2=  1.000000  1.000000
 IRadAn=      5 IRanWt=     -1 IRanGd=            0 ICorTp=0 IEmpDi=121
 HFx  wShort=  0.000000 wLong=  0.200000 cFull=  0.222036 cShort=  0.000000 cLong=  0.777964
 DFx  wShort=  0.000000 wLong=  0.200000 cFull=  0.000000 cShort=  0.000000 cLong=  1.000000
 NAtoms=   12 NActive=   12 NUniq=   12 SFac= 1.00D+00 NAtFMM=   60 NAOKFM=F Big=F
 Integral buffers will be    131072 words long.
 Raffenetti 2 integral format.
 Two-electron integral symmetry is turned off.
 R6Disp:  Grimme-D2 Dispersion energy=       -0.0055722022 Hartrees.
 Nuclear repulsion after empirical dispersion term =      924.9150122845 Hartrees.
 Leave Link  301 at Fri May 23 04:07:09 2025, MaxMem=  3758096384 cpu:               0.1 elap:               0.0
 (Enter /apps/easybuild-2022/easybuild/software/Compiler/NVHPC/22.11-CUDA-11.7.0/Gaussian/g16c01-CUDA-11.7.0/g16/l302.exe)
 NPDir=0 NMtPBC=     1 NCelOv=     1 NCel=       1 NClECP=     1 NCelD=      1
         NCelK=      1 NCelE2=     1 NClLst=     1 CellRange=     0.0.
 One-electron integrals computed using PRISM.
 NBasis=   257 RedAO= T EigKep=  6.58D-05  NBF=   257
 NBsUse=   257 1.00D-06 EigRej= -1.00D+00 NBFU=   257
 Precomputing XC quadrature grid using
 IXCGrd= 4 IRadAn=           5 IRanWt=          -1 IRanGd=           0 AccXCQ= 0.00D+00.
 Generated NRdTot=       0 NPtTot=           0 NUsed=           0 NTot=          32
 NSgBfM=   268   268   268   268   268 MxSgAt=    12 MxSgA2=    12.
 Leave Link  302 at Fri May 23 04:07:09 2025, MaxMem=  3758096384 cpu:               0.6 elap:               0.2
 (Enter /apps/easybuild-2022/easybuild/software/Compiler/NVHPC/22.11-CUDA-11.7.0/Gaussian/g16c01-CUDA-11.7.0/g16/l303.exe)
 DipDrv:  MaxL=1.
 Leave Link  303 at Fri May 23 04:07:09 2025, MaxMem=  3758096384 cpu:               0.1 elap:               0.0
 (Enter /apps/easybuild-2022/easybuild/software/Compiler/NVHPC/22.11-CUDA-11.7.0/Gaussian/g16c01-CUDA-11.7.0/g16/l401.exe)
 ExpMin= 3.60D-02 ExpMax= 9.34D+04 ExpMxC= 3.17D+03 IAcc=3 IRadAn=         5 AccDes= 0.00D+00
 Harris functional with IExCor= 4639 and IRadAn=       5 diagonalized for initial guess.
 HarFok:  IExCor= 4639 AccDes= 0.00D+00 IRadAn=         5 IDoV= 1 UseB2=F ITyADJ=14
 ICtDFT=  3500011 ScaDFX=  1.000000  1.000000  1.000000  1.000000
 FoFCou: FMM=F IPFlag=           0 FMFlag=      100000 FMFlg1=           0
         NFxFlg=           0 DoJE=T BraDBF=F KetDBF=T FulRan=T
         wScrn=  0.000000 ICntrl=       500 IOpCl=  0 I1Cent=   200000004 NGrid=           0
         NMat0=    1 NMatS0=      1 NMatT0=    0 NMatD0=    1 NMtDS0=    0 NMtDT0=    0
 Symmetry not used in FoFCou.
 Harris En= -1167.10019952910    
 JPrj=0 DoOrth=F DoCkMO=F.
 Leave Link  401 at Fri May 23 04:07:10 2025, MaxMem=  3758096384 cpu:               2.7 elap:               0.4
 (Enter /apps/easybuild-2022/easybuild/software/Compiler/NVHPC/22.11-CUDA-11.7.0/Gaussian/g16c01-CUDA-11.7.0/g16/l502.exe)
 Keep R1 ints in memory in canonical form, NReq=1117474609.
 FoFCou: FMM=F IPFlag=           0 FMFlag=           0 FMFlg1=           0
         NFxFlg=           0 DoJE=F BraDBF=F KetDBF=F FulRan=T
         wScrn=  0.000000 ICntrl=       600 IOpCl=  0 I1Cent=           0 NGrid=           0
         NMat0=    1 NMatS0=  33153 NMatT0=    0 NMatD0=    1 NMtDS0=    0 NMtDT0=    0
 Symmetry not used in FoFCou.
 Two-electron integral symmetry not used.
 Closed shell SCF:
 Using DIIS extrapolation, IDIIS=  1040.
 NGot=  3758096384 LenX=  2658793876 LenY=  2658721611
 Requested convergence on RMS density matrix=1.00D-08 within  32 cycles.
 Requested convergence on MAX density matrix=1.00D-06.
 Requested convergence on             energy=1.00D-06.
 No special actions if energy rises.

 Cycle   1  Pass 1  IDiag  1:
 E= -1199.14521877460    
 DIIS: error= 1.06D-01 at cycle   1 NSaved=   1.
 NSaved= 1 IEnMin= 1 EnMin= -1199.14521877460     IErMin= 1 ErrMin= 1.06D-01
 ErrMax= 1.06D-01  0.00D+00 EMaxC= 1.00D-01 BMatC= 3.34D+00 BMatP= 3.34D+00
 IDIUse=3 WtCom= 0.00D+00 WtEn= 1.00D+00
 Coeff-Com:  0.100D+01
 Coeff-En:   0.100D+01
 Coeff:      0.100D+01
 Gap=     0.663 Goal=   None    Shift=    0.000
 GapD=    0.663 DampG=2.000 DampE=0.250 DampFc=0.5000 IDamp=-1.
 Damping current iteration by 5.00D-01
 RMSDP=7.86D-03 MaxDP=3.78D-01              OVMax= 1.78D-01

 Cycle   2  Pass 1  IDiag  1:
 E= -1199.49459130036     Delta-E=       -0.349372525756 Rises=F Damp=T
 DIIS: error= 4.58D-02 at cycle   2 NSaved=   2.
 NSaved= 2 IEnMin= 2 EnMin= -1199.49459130036     IErMin= 2 ErrMin= 4.58D-02
 ErrMax= 4.58D-02  0.00D+00 EMaxC= 1.00D-01 BMatC= 4.80D-01 BMatP= 3.34D+00
 IDIUse=3 WtCom= 5.42D-01 WtEn= 4.58D-01
 Coeff-Com: -0.395D+00 0.140D+01
 Coeff-En:   0.000D+00 0.100D+01
 Coeff:     -0.214D+00 0.121D+01
 Gap=     0.550 Goal=   None    Shift=    0.000
 RMSDP=2.51D-03 MaxDP=1.19D-01 DE=-3.49D-01 OVMax= 9.79D-02

 Cycle   3  Pass 1  IDiag  1:
 E= -1199.78026209894     Delta-E=       -0.285670798586 Rises=F Damp=F
 DIIS: error= 9.42D-03 at cycle   3 NSaved=   3.
 NSaved= 3 IEnMin= 3 EnMin= -1199.78026209894     IErMin= 3 ErrMin= 9.42D-03
 ErrMax= 9.42D-03  0.00D+00 EMaxC= 1.00D-01 BMatC= 7.00D-02 BMatP= 4.80D-01
 IDIUse=3 WtCom= 9.06D-01 WtEn= 9.42D-02
 Coeff-Com: -0.172D+00 0.486D+00 0.686D+00
 Coeff-En:   0.000D+00 0.000D+00 0.100D+01
 Coeff:     -0.156D+00 0.440D+00 0.716D+00
 Gap=     0.463 Goal=   None    Shift=    0.000
 RMSDP=2.57D-03 MaxDP=1.60D-01 DE=-2.86D-01 OVMax= 5.73D-02

 Cycle   4  Pass 1  IDiag  1:
 E= -1199.81368055921     Delta-E=       -0.033418460269 Rises=F Damp=F
 DIIS: error= 4.69D-03 at cycle   4 NSaved=   4.
 NSaved= 4 IEnMin= 4 EnMin= -1199.81368055921     IErMin= 4 ErrMin= 4.69D-03
 ErrMax= 4.69D-03  0.00D+00 EMaxC= 1.00D-01 BMatC= 1.51D-02 BMatP= 7.00D-02
 IDIUse=3 WtCom= 9.53D-01 WtEn= 4.69D-02
 Coeff-Com: -0.405D-01 0.971D-01 0.349D+00 0.595D+00
 Coeff-En:   0.000D+00 0.000D+00 0.172D+00 0.828D+00
 Coeff:     -0.386D-01 0.926D-01 0.340D+00 0.606D+00
 Gap=     0.475 Goal=   None    Shift=    0.000
 RMSDP=1.10D-03 MaxDP=7.30D-02 DE=-3.34D-02 OVMax= 2.13D-02

 Cycle   5  Pass 1  IDiag  1:
 E= -1199.82304799069     Delta-E=       -0.009367431483 Rises=F Damp=F
 DIIS: error= 1.15D-03 at cycle   5 NSaved=   5.
 NSaved= 5 IEnMin= 5 EnMin= -1199.82304799069     IErMin= 5 ErrMin= 1.15D-03
 ErrMax= 1.15D-03  0.00D+00 EMaxC= 1.00D-01 BMatC= 8.03D-04 BMatP= 1.51D-02
 IDIUse=3 WtCom= 9.88D-01 WtEn= 1.15D-02
 Coeff-Com: -0.112D-01 0.240D-01 0.145D+00 0.320D+00 0.522D+00
 Coeff-En:   0.000D+00 0.000D+00 0.000D+00 0.000D+00 0.100D+01
 Coeff:     -0.110D-01 0.238D-01 0.144D+00 0.317D+00 0.527D+00
 Gap=     0.467 Goal=   None    Shift=    0.000
 RMSDP=1.72D-04 MaxDP=8.85D-03 DE=-9.37D-03 OVMax= 4.05D-03

 Cycle   6  Pass 1  IDiag  1:
 E= -1199.82352414927     Delta-E=       -0.000476158571 Rises=F Damp=F
 DIIS: error= 1.84D-04 at cycle   6 NSaved=   6.
 NSaved= 6 IEnMin= 6 EnMin= -1199.82352414927     IErMin= 6 ErrMin= 1.84D-04
 ErrMax= 1.84D-04  0.00D+00 EMaxC= 1.00D-01 BMatC= 1.58D-05 BMatP= 8.03D-04
 IDIUse=3 WtCom= 9.98D-01 WtEn= 1.84D-03
 Coeff-Com:  0.188D-02-0.494D-02 0.422D-03 0.243D-01 0.127D+00 0.852D+00
 Coeff-En:   0.000D+00 0.000D+00 0.000D+00 0.000D+00 0.000D+00 0.100D+01
 Coeff:      0.187D-02-0.493D-02 0.421D-03 0.243D-01 0.126D+00 0.852D+00
 Gap=     0.466 Goal=   None    Shift=    0.000
 RMSDP=3.78D-05 MaxDP=1.73D-03 DE=-4.76D-04 OVMax= 8.95D-04

 Cycle   7  Pass 1  IDiag  1:
 E= -1199.82353963410     Delta-E=       -0.000015484839 Rises=F Damp=F
 DIIS: error= 3.93D-05 at cycle   7 NSaved=   7.
 NSaved= 7 IEnMin= 7 EnMin= -1199.82353963410     IErMin= 7 ErrMin= 3.93D-05
 ErrMax= 3.93D-05  0.00D+00 EMaxC= 1.00D-01 BMatC= 1.00D-06 BMatP= 1.58D-05
 IDIUse=1 WtCom= 1.00D+00 WtEn= 0.00D+00
 Coeff-Com:  0.129D-02-0.286D-02-0.117D-01-0.218D-01-0.331D-01 0.130D+00
 Coeff-Com:  0.938D+00
 Coeff:      0.129D-02-0.286D-02-0.117D-01-0.218D-01-0.331D-01 0.130D+00
 Coeff:      0.938D+00
 Gap=     0.466 Goal=   None    Shift=    0.000
 RMSDP=1.17D-05 MaxDP=5.53D-04 DE=-1.55D-05 OVMax= 3.30D-04

 Cycle   8  Pass 1  IDiag  1:
 E= -1199.82354059099     Delta-E=       -0.000000956884 Rises=F Damp=F
 DIIS: error= 1.92D-05 at cycle   8 NSaved=   8.
 NSaved= 8 IEnMin= 8 EnMin= -1199.82354059099     IErMin= 8 ErrMin= 1.92D-05
 ErrMax= 1.92D-05  0.00D+00 EMaxC= 1.00D-01 BMatC= 2.12D-07 BMatP= 1.00D-06
 IDIUse=1 WtCom= 1.00D+00 WtEn= 0.00D+00
 Coeff-Com:  0.600D-03-0.131D-02-0.598D-02-0.119D-01-0.204D-01 0.440D-01
 Coeff-Com:  0.478D+00 0.517D+00
 Coeff:      0.600D-03-0.131D-02-0.598D-02-0.119D-01-0.204D-01 0.440D-01
 Coeff:      0.478D+00 0.517D+00
 Gap=     0.466 Goal=   None    Shift=    0.000
 RMSDP=3.06D-06 MaxDP=1.54D-04 DE=-9.57D-07 OVMax= 8.96D-05

 Cycle   9  Pass 1  IDiag  1:
 E= -1199.82354072810     Delta-E=       -0.000000137110 Rises=F Damp=F
 DIIS: error= 4.30D-06 at cycle   9 NSaved=   9.
 NSaved= 9 IEnMin= 9 EnMin= -1199.82354072810     IErMin= 9 ErrMin= 4.30D-06
 ErrMax= 4.30D-06  0.00D+00 EMaxC= 1.00D-01 BMatC= 1.23D-08 BMatP= 2.12D-07
 IDIUse=1 WtCom= 1.00D+00 WtEn= 0.00D+00
 Coeff-Com: -0.202D-04 0.537D-04-0.278D-04-0.463D-03-0.101D-02-0.559D-02
 Coeff-Com: -0.516D-02 0.160D+00 0.852D+00
 Coeff:     -0.202D-04 0.537D-04-0.278D-04-0.463D-03-0.101D-02-0.559D-02
 Coeff:     -0.516D-02 0.160D+00 0.852D+00
 Gap=     0.466 Goal=   None    Shift=    0.000
 RMSDP=2.06D-06 MaxDP=1.49D-04 DE=-1.37D-07 OVMax= 4.27D-05

 Cycle  10  Pass 1  IDiag  1:
 E= -1199.82354074000     Delta-E=       -0.000000011902 Rises=F Damp=F
 DIIS: error= 2.62D-06 at cycle  10 NSaved=  10.
 NSaved=10 IEnMin=10 EnMin= -1199.82354074000     IErMin=10 ErrMin= 2.62D-06
 ErrMax= 2.62D-06  0.00D+00 EMaxC= 1.00D-01 BMatC= 3.64D-09 BMatP= 1.23D-08
 IDIUse=1 WtCom= 1.00D+00 WtEn= 0.00D+00
 Coeff-Com: -0.732D-04 0.164D-03 0.564D-03 0.917D-03 0.137D-02-0.765D-02
 Coeff-Com: -0.503D-01 0.304D-01 0.446D+00 0.579D+00
 Coeff:     -0.732D-04 0.164D-03 0.564D-03 0.917D-03 0.137D-02-0.765D-02
 Coeff:     -0.503D-01 0.304D-01 0.446D+00 0.579D+00
 Gap=     0.466 Goal=   None    Shift=    0.000
 RMSDP=4.90D-07 MaxDP=2.47D-05 DE=-1.19D-08 OVMax= 1.36D-05

 Cycle  11  Pass 1  IDiag  1:
 E= -1199.82354074282     Delta-E=       -0.000000002822 Rises=F Damp=F
 DIIS: error= 7.05D-07 at cycle  11 NSaved=  11.
 NSaved=11 IEnMin=11 EnMin= -1199.82354074282     IErMin=11 ErrMin= 7.05D-07
 ErrMax= 7.05D-07  0.00D+00 EMaxC= 1.00D-01 BMatC= 2.42D-10 BMatP= 3.64D-09
 IDIUse=1 WtCom= 1.00D+00 WtEn= 0.00D+00
 Coeff-Com: -0.206D-04 0.445D-04 0.170D-03 0.375D-03 0.614D-03-0.116D-02
 Coeff-Com: -0.157D-01-0.164D-01 0.568D-02 0.188D+00 0.838D+00
 Coeff:     -0.206D-04 0.445D-04 0.170D-03 0.375D-03 0.614D-03-0.116D-02
 Coeff:     -0.157D-01-0.164D-01 0.568D-02 0.188D+00 0.838D+00
 Gap=     0.466 Goal=   None    Shift=    0.000
 RMSDP=2.55D-07 MaxDP=1.79D-05 DE=-2.82D-09 OVMax= 5.63D-06

 Cycle  12  Pass 1  IDiag  1:
 E= -1199.82354074302     Delta-E=       -0.000000000198 Rises=F Damp=F
 DIIS: error= 1.53D-07 at cycle  12 NSaved=  12.
 NSaved=12 IEnMin=12 EnMin= -1199.82354074302     IErMin=12 ErrMin= 1.53D-07
 ErrMax= 1.53D-07  0.00D+00 EMaxC= 1.00D-01 BMatC= 1.65D-11 BMatP= 2.42D-10
 IDIUse=1 WtCom= 1.00D+00 WtEn= 0.00D+00
 Coeff-Com: -0.108D-06-0.130D-06 0.319D-05 0.395D-04 0.815D-04 0.215D-03
 Coeff-Com: -0.124D-02-0.785D-02-0.327D-01 0.167D-01 0.274D+00 0.750D+00
 Coeff:     -0.108D-06-0.130D-06 0.319D-05 0.395D-04 0.815D-04 0.215D-03
 Coeff:     -0.124D-02-0.785D-02-0.327D-01 0.167D-01 0.274D+00 0.750D+00
 Gap=     0.466 Goal=   None    Shift=    0.000
 RMSDP=4.50D-08 MaxDP=1.80D-06 DE=-1.98D-10 OVMax= 1.43D-06

 Cycle  13  Pass 1  IDiag  1:
 E= -1199.82354074298     Delta-E=        0.000000000045 Rises=F Damp=F
 DIIS: error= 6.94D-08 at cycle  13 NSaved=  13.
 NSaved=13 IEnMin=12 EnMin= -1199.82354074302     IErMin=13 ErrMin= 6.94D-08
 ErrMax= 6.94D-08  0.00D+00 EMaxC= 1.00D-01 BMatC= 1.94D-12 BMatP= 1.65D-11
 IDIUse=1 WtCom= 1.00D+00 WtEn= 0.00D+00
 Coeff-Com:  0.148D-05-0.328D-05-0.101D-04-0.125D-04-0.734D-05 0.160D-03
 Coeff-Com:  0.697D-03-0.138D-02-0.109D-01-0.986D-02 0.248D-01 0.274D+00
 Coeff-Com:  0.722D+00
 Coeff:      0.148D-05-0.328D-05-0.101D-04-0.125D-04-0.734D-05 0.160D-03
 Coeff:      0.697D-03-0.138D-02-0.109D-01-0.986D-02 0.248D-01 0.274D+00
 Coeff:      0.722D+00
 Gap=     0.466 Goal=   None    Shift=    0.000
 RMSDP=1.74D-08 MaxDP=1.06D-06 DE= 4.50D-11 OVMax= 4.30D-07

 Cycle  14  Pass 1  IDiag  1:
 E= -1199.82354074295     Delta-E=        0.000000000030 Rises=F Damp=F
 DIIS: error= 2.41D-08 at cycle  14 NSaved=  14.
 NSaved=14 IEnMin=12 EnMin= -1199.82354074302     IErMin=14 ErrMin= 2.41D-08
 ErrMax= 2.41D-08  0.00D+00 EMaxC= 1.00D-01 BMatC= 2.44D-13 BMatP= 1.94D-12
 IDIUse=1 WtCom= 1.00D+00 WtEn= 0.00D+00
 Coeff-Com:  0.655D-06-0.139D-05-0.486D-05-0.123D-04-0.176D-04 0.215D-04
 Coeff-Com:  0.489D-03 0.647D-03 0.605D-03-0.655D-02-0.299D-01 0.361D-02
 Coeff-Com:  0.270D+00 0.762D+00
 Coeff:      0.655D-06-0.139D-05-0.486D-05-0.123D-04-0.176D-04 0.215D-04
 Coeff:      0.489D-03 0.647D-03 0.605D-03-0.655D-02-0.299D-01 0.361D-02
 Coeff:      0.270D+00 0.762D+00
 Gap=     0.466 Goal=   None    Shift=    0.000
 RMSDP=6.04D-09 MaxDP=2.53D-07 DE= 3.05D-11 OVMax= 1.75D-07

 SCF Done:  E(RwB97XD) =  -1199.82354074     A.U. after   14 cycles
            NFock= 14  Conv=0.60D-08     -V/T= 2.0020
 KE= 1.197446424089D+03 PE=-4.696484314656D+03 EE= 1.374299337540D+03
 Leave Link  502 at Fri May 23 04:07:24 2025, MaxMem=  3758096384 cpu:              67.0 elap:              14.0
 (Enter /apps/easybuild-2022/easybuild/software/Compiler/NVHPC/22.11-CUDA-11.7.0/Gaussian/g16c01-CUDA-11.7.0/g16/l508.exe)
 QCSCF skips out because SCF is already converged.
 Leave Link  508 at Fri May 23 04:07:24 2025, MaxMem=  3758096384 cpu:               0.1 elap:               0.0
 (Enter /apps/easybuild-2022/easybuild/software/Compiler/NVHPC/22.11-CUDA-11.7.0/Gaussian/g16c01-CUDA-11.7.0/g16/l801.exe)
 DoSCS=F DFT=T ScalE2(SS,OS)=  1.000000  1.000000
 Range of M.O.s used for correlation:     1   257
 NBasis=   257 NAE=    49 NBE=    49 NFC=     0 NFV=     0
 NROrb=    257 NOA=    49 NOB=    49 NVA=   208 NVB=   208

 **** Warning!!: The largest alpha MO coefficient is  0.29803470D+02

 Leave Link  801 at Fri May 23 04:07:24 2025, MaxMem=  3758096384 cpu:               0.0 elap:               0.0
 (Enter /apps/easybuild-2022/easybuild/software/Compiler/NVHPC/22.11-CUDA-11.7.0/Gaussian/g16c01-CUDA-11.7.0/g16/l1101.exe)
 Using compressed storage, NAtomX=    12.
 Will process     13 centers per pass.
 R6Disp: Adding Grimme-D2 dispersion energy 1st derivatives to the gradient.
 Leave Link 1101 at Fri May 23 04:07:24 2025, MaxMem=  3758096384 cpu:               0.7 elap:               0.2
 (Enter /apps/easybuild-2022/easybuild/software/Compiler/NVHPC/22.11-CUDA-11.7.0/Gaussian/g16c01-CUDA-11.7.0/g16/l1102.exe)
 Symmetrizing basis deriv contribution to polar:
 IMax=3 JMax=2 DiffMx= 0.00D+00
 Leave Link 1102 at Fri May 23 04:07:24 2025, MaxMem=  3758096384 cpu:               0.1 elap:               0.0
 (Enter /apps/easybuild-2022/easybuild/software/Compiler/NVHPC/22.11-CUDA-11.7.0/Gaussian/g16c01-CUDA-11.7.0/g16/l1110.exe)
 Forming Gx(P) for the SCF density, NAtomX=    12.
 Integral derivatives from FoFJK, PRISM(SPDF).
 Do as many integral derivatives as possible in FoFJK.
 G2DrvN: MDV=    3758095012.
 G2DrvN: will do    13 centers at a time, making    1 passes.
 Calling FoFCou, ICntrl=  3107 FMM=F I1Cent=   0 AccDes= 0.00D+00.
 FoFJK:  IHMeth= 1 ICntrl=    3107 DoSepK=T KAlg= 0 I1Cent=           0 FoldK=F
 IRaf=         1 NMat=       1 IRICut=       1 DoRegI=T DoRafI=F ISym2E= 0 IDoP0=0 IntGTp=1.
 FoFCou: FMM=F IPFlag=           0 FMFlag=      100000 FMFlg1=           0
         NFxFlg=           0 DoJE=F BraDBF=F KetDBF=F FulRan=T
         wScrn=  0.000000 ICntrl=      3507 IOpCl=  0 I1Cent=           0 NGrid=           0
         NMat0=    1 NMatS0=      1 NMatT0=    0 NMatD0=    1 NMtDS0=    0 NMtDT0=    0
 Symmetry not used in FoFCou.
 End of G2Drv F.D. properties file   721 does not exist.
 End of G2Drv F.D. properties file   722 does not exist.
 End of G2Drv F.D. properties file   788 does not exist.
 Leave Link 1110 at Fri May 23 04:07:38 2025, MaxMem=  3758096384 cpu:             109.0 elap:              13.9
 (Enter /apps/easybuild-2022/easybuild/software/Compiler/NVHPC/22.11-CUDA-11.7.0/Gaussian/g16c01-CUDA-11.7.0/g16/l1002.exe)
 Minotr:  Closed shell wavefunction.
          IDoAtm=111111111111
          Direct CPHF calculation.
          Differentiating once with respect to nuclear coordinates.
          Requested convergence is 1.0D-08 RMS, and 1.0D-07 maximum.
          Secondary convergence is 1.0D-12 RMS, and 1.0D-12 maximum.
          NewPWx=T KeepS1=F KeepF1=F KeepIn=T MapXYZ=F SortEE=F KeepMc=T.
         3710 words used for storage of precomputed grid.
 Keep R1 ints in memory in canonical form, NReq=1117480302.
 FoFCou: FMM=F IPFlag=           0 FMFlag=           0 FMFlg1=           0
         NFxFlg=           0 DoJE=F BraDBF=F KetDBF=F FulRan=T
         wScrn=  0.000000 ICntrl=       600 IOpCl=  0 I1Cent=           0 NGrid=           0
         NMat0=    1 NMatS0=  33153 NMatT0=    0 NMatD0=    1 NMtDS0=    0 NMtDT0=    0
 Symmetry not used in FoFCou.
 Two-electron integral symmetry not used.
          MDV=    3758096384 using IRadAn=       1.
          Solving linear equations simultaneously, MaxMat=       0.
          There are    39 degrees of freedom in the 1st order CPHF.  IDoFFX=6 NUNeed=     0.
     33 vectors produced by pass  0 Test12= 2.61D-14 2.56D-09 XBig12= 3.26D-01 9.53D-02.
 AX will form    33 AO Fock derivatives at one time.
     33 vectors produced by pass  1 Test12= 2.61D-14 2.56D-09 XBig12= 5.44D-02 3.61D-02.
     33 vectors produced by pass  2 Test12= 2.61D-14 2.56D-09 XBig12= 2.15D-03 5.96D-03.
     33 vectors produced by pass  3 Test12= 2.61D-14 2.56D-09 XBig12= 3.74D-05 1.36D-03.
     33 vectors produced by pass  4 Test12= 2.61D-14 2.56D-09 XBig12= 5.01D-07 1.10D-04.
     33 vectors produced by pass  5 Test12= 2.61D-14 2.56D-09 XBig12= 4.50D-09 7.74D-06.
     33 vectors produced by pass  6 Test12= 2.61D-14 2.56D-09 XBig12= 3.33D-11 6.36D-07.
     22 vectors produced by pass  7 Test12= 2.61D-14 2.56D-09 XBig12= 2.31D-13 5.79D-08.
      6 vectors produced by pass  8 Test12= 2.61D-14 2.56D-09 XBig12= 1.50D-15 3.95D-09.
 InvSVY:  IOpt=1 It=  1 EMax= 1.11D-15
 Solved reduced A of dimension   259 with    33 vectors.
 End of Minotr F.D. properties file   721 does not exist.
 End of Minotr F.D. properties file   722 does not exist.
 End of Minotr F.D. properties file   788 does not exist.
 Leave Link 1002 at Fri May 23 04:08:05 2025, MaxMem=  3758096384 cpu:             203.3 elap:              26.9
 (Enter /apps/easybuild-2022/easybuild/software/Compiler/NVHPC/22.11-CUDA-11.7.0/Gaussian/g16c01-CUDA-11.7.0/g16/l701.exe)
 ... and contract with generalized density number  0.
 Compute integral second derivatives.
 R6Disp: Adding Grimme-D2 dispersion energy 2nd derivatives to the Hessian.
 Leave Link  701 at Fri May 23 04:08:05 2025, MaxMem=  3758096384 cpu:               0.6 elap:               0.1
 (Enter /apps/easybuild-2022/easybuild/software/Compiler/NVHPC/22.11-CUDA-11.7.0/Gaussian/g16c01-CUDA-11.7.0/g16/l702.exe)
 L702 exits ... SP integral derivatives will be done elsewhere.
 Leave Link  702 at Fri May 23 04:08:05 2025, MaxMem=  3758096384 cpu:               0.1 elap:               0.0
 (Enter /apps/easybuild-2022/easybuild/software/Compiler/NVHPC/22.11-CUDA-11.7.0/Gaussian/g16c01-CUDA-11.7.0/g16/l703.exe)
 Integral derivatives from FoFJK, PRISM(SPDF).
 Compute integral second derivatives, UseDBF=F ICtDFT=           0.
 Calling FoFJK, ICntrl=    100127 FMM=F ISym2X=0 I1Cent= 0 IOpClX= 0 NMat=1 NMatS=1 NMatT=0.
 FoFJK:  IHMeth= 1 ICntrl=  100127 DoSepK=T KAlg= 0 I1Cent=           0 FoldK=F
 IRaf=         1 NMat=       1 IRICut=       1 DoRegI=T DoRafI=F ISym2E= 0 IDoP0=0 IntGTp=1.
 FoFCou: FMM=F IPFlag=           0 FMFlag=      100000 FMFlg1=         800
         NFxFlg=           0 DoJE=F BraDBF=F KetDBF=F FulRan=T
         wScrn=  0.000000 ICntrl=    100527 IOpCl=  0 I1Cent=           0 NGrid=           0
         NMat0=    1 NMatS0=      1 NMatT0=    0 NMatD0=    1 NMtDS0=    0 NMtDT0=    0
 Symmetry not used in FoFCou.
 Leave Link  703 at Fri May 23 04:08:42 2025, MaxMem=  3758096384 cpu:             295.2 elap:              37.3
 (Enter /apps/easybuild-2022/easybuild/software/Compiler/NVHPC/22.11-CUDA-11.7.0/Gaussian/g16c01-CUDA-11.7.0/g16/l716.exe)
 Dipole        =-2.48896212D-01 7.75957767D-01-6.90121087D-01
 Polarizability= 0.00000000D+00 0.00000000D+00 0.00000000D+00
                 0.00000000D+00 0.00000000D+00 0.00000000D+00
 -------------------------------------------------------------------
 Center     Atomic                   Forces (Hartrees/Bohr)
 Number     Number              X              Y              Z
 -------------------------------------------------------------------
      1        6          -0.000242608   -0.000437693   -0.001514315
      2        6           0.000678745    0.000214123   -0.000094456
      3        9          -0.005566042   -0.006196937   -0.002871902
      4        9           0.002604820    0.001617437    0.001976437
      5       16           0.002045173    0.001017431    0.003892048
      6        8           0.004393690   -0.000599246    0.000571522
      7        8           0.001500444    0.000548681    0.001207877
      8        8          -0.006239012    0.001395179    0.001228194
      9        9           0.000551232   -0.000369340   -0.001588353
     10        9           0.000802399    0.001726315    0.000103694
     11        9          -0.000074279    0.000990697   -0.002931077
     12        1          -0.000454562    0.000093352    0.000020331
 -------------------------------------------------------------------
 Cartesian Forces:  Max     0.006239012 RMS     0.002340091
 Force constants in Cartesian coordinates: 
                1             2             3             4             5 
      1  0.567949D+00
      2  0.271083D-01  0.597292D+00
      3  0.152232D-01  0.275608D-02  0.560860D+00
      4 -0.118556D+00 -0.502620D-01 -0.274263D-01  0.440280D+00
      5 -0.801455D-01 -0.114561D+00 -0.448442D-01  0.183093D-01  0.543353D+00
      6 -0.448633D-01 -0.457285D-01 -0.595678D-01  0.255405D-01  0.241641D-01
      7 -0.784924D-01 -0.382825D-02  0.761408D-02  0.849417D-02  0.456395D-03
      8 -0.367995D-02 -0.805551D-01 -0.189544D-01  0.182570D-02  0.413222D-02
      9  0.105862D-02 -0.264055D-01 -0.286091D+00  0.876792D-02  0.536306D-02
     10  0.419757D-02 -0.117163D-01  0.389290D-02 -0.881335D-01  0.592495D-01
     11  0.233136D-01 -0.463246D-01  0.244953D-01  0.448179D-01 -0.268940D+00
     12  0.122877D-02  0.126345D-02 -0.436700D-03 -0.145119D-01  0.593089D-01
     13 -0.263581D-01 -0.184544D-01 -0.638728D-02 -0.141826D+00  0.262977D-01
     14 -0.227101D-01  0.323148D-01  0.531610D-02 -0.700122D-02 -0.441967D-01
     15 -0.766373D-02  0.555674D-02  0.258539D-01  0.390893D-02 -0.124580D-01
     16  0.599697D-04  0.123454D-01  0.776973D-02 -0.582275D-02 -0.323020D-01
     17  0.307730D-02 -0.547530D-03  0.144729D-02  0.597973D-02 -0.957594D-02
     18  0.103654D-02  0.203269D-02 -0.143837D-02  0.421975D-02 -0.101866D-01
     19  0.584164D-02 -0.994563D-04  0.338542D-02  0.166882D-01  0.160754D-01
     20  0.330281D-02 -0.152131D-01 -0.183458D-02 -0.165846D-01 -0.596185D-02
     21  0.137512D-02 -0.512575D-03 -0.499279D-02  0.239158D-02  0.550071D-03
     22  0.162121D-02  0.492510D-02 -0.431940D-03  0.113670D-01 -0.749699D-02
     23  0.259109D-02 -0.222551D-02  0.181295D-02  0.832599D-02 -0.189562D-02
     24 -0.791157D-03 -0.399211D-02 -0.103533D-01 -0.144447D-01  0.148217D-01
     25 -0.811096D-01  0.152279D-01 -0.105130D-01  0.103921D-01 -0.114538D-01
     26  0.954763D-02 -0.290327D+00  0.592344D-01  0.125219D-01 -0.340826D-01
     27 -0.819297D-02  0.662379D-01 -0.980493D-01 -0.662306D-03 -0.861817D-03
     28  0.469982D-02 -0.283076D-03 -0.174954D-01 -0.764458D-01 -0.676945D-03
     29  0.862067D-02  0.404806D-02 -0.229957D-01  0.102956D-02 -0.750484D-01
     30  0.139623D-01  0.492042D-02 -0.460091D-01  0.209285D-01 -0.367645D-01
     31 -0.279647D+00  0.255399D-01  0.236232D-01 -0.573266D-01  0.150722D-01
     32  0.299544D-01 -0.831047D-01 -0.619107D-02 -0.167618D-01  0.379455D-02
     33  0.271509D-01 -0.683094D-02 -0.799502D-01 -0.844357D-02  0.103287D-02
     34 -0.206517D-03 -0.503221D-03  0.745436D-03  0.888456D-03 -0.338523D-02
     35 -0.980207D-03 -0.795114D-03 -0.242176D-03 -0.220044D-02  0.298247D-02
     36  0.475768D-03  0.702427D-03  0.174291D-03 -0.268376D-03 -0.125713D-03
                6             7             8             9            10 
      6  0.536103D+00
      7 -0.173785D-01  0.827291D-01
      8 -0.219886D-01 -0.911028D-03  0.774991D-01
      9 -0.475372D-01 -0.434655D-01  0.364658D-02  0.415428D+00
     10 -0.207745D-01  0.446198D-03 -0.949205D-03 -0.615090D-03  0.814156D-01
     11  0.504340D-01 -0.213930D-02  0.179740D-02 -0.454046D-02 -0.710703D-01
     12 -0.834549D-01  0.376689D-04 -0.293355D-02  0.457027D-02  0.302829D-01
     13  0.244369D-01  0.217891D-02  0.226025D-02  0.413668D-02  0.140956D-03
     14 -0.845128D-02  0.167586D-02 -0.435915D-02 -0.537783D-03  0.342232D-01
     15 -0.312631D-01  0.323393D-02  0.143285D-03 -0.100091D-01 -0.119818D-01
     16 -0.250995D-01  0.776363D-04 -0.100721D-02 -0.219297D-02 -0.166843D-02
     17 -0.109366D-01 -0.468255D-03  0.351631D-03 -0.151031D-03 -0.387385D-02
     18 -0.766013D-02 -0.625709D-03 -0.229935D-03  0.121614D-02  0.244344D-03
     19 -0.860387D-02 -0.102507D-02  0.736011D-05 -0.188772D-02 -0.103886D-01
     20  0.116942D-01  0.616339D-04  0.227751D-02  0.599671D-03  0.749567D-02
     21  0.487818D-02 -0.113320D-02  0.378412D-03  0.178872D-02  0.750909D-03
     22  0.880458D-02 -0.270210D-02 -0.200271D-02  0.212680D-04 -0.706647D-03
     23  0.343728D-02 -0.136434D-02  0.251712D-03 -0.116848D-02 -0.340646D-02
     24 -0.595732D-02 -0.509645D-03  0.175412D-03  0.568608D-02  0.282463D-02
     25  0.660430D-02  0.123776D-01  0.374504D-04 -0.477719D-03 -0.120430D-02
     26  0.244232D-01 -0.401131D-03 -0.849109D-02  0.398711D-01 -0.652819D-02
     27  0.183834D-02 -0.126734D-02  0.570806D-01 -0.470697D-01 -0.710510D-05
     28  0.347919D-01 -0.154313D-02 -0.318961D-02 -0.704693D-02  0.115148D-01
     29 -0.277606D-01 -0.397599D-02 -0.349717D-02 -0.750747D-02 -0.111582D-02
     30 -0.308919D+00 -0.555935D-02 -0.621359D-02 -0.672157D-02 -0.527718D-02
     31  0.131847D-01 -0.223270D-01  0.741589D-02  0.422018D-01  0.461149D-02
     32  0.204299D-02  0.104957D-01  0.104103D-01 -0.931261D-02 -0.290280D-02
     33  0.315906D-02  0.594706D-01 -0.109739D-01 -0.311515D-01  0.348808D-03
     34  0.335672D-02 -0.213905D-03  0.193062D-03 -0.500307D-03 -0.225088D-03
     35 -0.133011D-02  0.398729D-03  0.182659D-03  0.142940D-03  0.594544D-03
     36 -0.161893D-02 -0.417092D-03 -0.130386D-03 -0.109737D-03  0.311157D-03
               11            12            13            14            15 
     11  0.343168D+00
     12 -0.110457D+00  0.118704D+00
     13 -0.386204D-02 -0.611584D-03  0.547486D+00
     14 -0.302081D-01  0.453831D-02  0.855457D-01  0.118549D+01
     15  0.137667D-01 -0.300719D-02  0.979599D-01  0.123932D+00  0.631482D+00
     16  0.489962D-02 -0.710303D-03 -0.211172D+00 -0.184197D+00 -0.143278D+00
     17  0.944988D-02 -0.100318D-02 -0.177881D+00 -0.360508D+00 -0.211088D+00
     18  0.748843D-03  0.130035D-02 -0.142002D+00 -0.216351D+00 -0.254960D+00
     19  0.906356D-02 -0.980975D-03 -0.110279D+00  0.104339D+00 -0.629303D-02
     20 -0.333020D-02  0.782157D-03  0.955961D-01 -0.654498D+00  0.348257D-01
     21 -0.970746D-03  0.721006D-03 -0.656255D-02  0.333610D-01 -0.807557D-01
     22  0.581837D-03  0.319000D-03 -0.701633D-01 -0.112916D-01  0.332171D-01
     23  0.633068D-02 -0.295230D-02 -0.149468D-01 -0.986916D-01  0.460784D-01
     24 -0.648981D-02  0.433731D-02  0.214429D-01  0.133615D-01 -0.223682D+00
     25 -0.649553D-02 -0.453411D-03 -0.268692D-03  0.637925D-02 -0.731054D-03
     26 -0.104757D-01 -0.197760D-02  0.648631D-02 -0.103067D-01  0.188773D-03
     27 -0.276491D-02  0.111882D-02 -0.360063D-03  0.236668D-02 -0.334394D-02
     28  0.167830D-02 -0.124732D-01  0.104375D-02  0.675998D-03  0.310440D-01
     29 -0.413210D-02  0.537697D-01 -0.355690D-02  0.611776D-03 -0.599887D-02
     30  0.380584D-01 -0.451487D-01 -0.489612D-02  0.182702D-03 -0.364712D-01
     31 -0.312831D-02 -0.419223D-03  0.945562D-02 -0.417647D-02 -0.414851D-02
     32  0.415986D-02 -0.760094D-03  0.256848D-02 -0.592499D-02 -0.224999D-02
     33 -0.138069D-02  0.115113D-02  0.992015D-03 -0.204824D-02 -0.362974D-02
     34  0.234070D-02 -0.170766D-02 -0.238415D-03 -0.346228D-02  0.473208D-02
     35 -0.149437D-02  0.420820D-03 -0.529442D-04 -0.972197D-02  0.730336D-02
     36 -0.899943D-03  0.144742D-03  0.118516D-01  0.443299D-01 -0.102143D-01
               16            17            18            19            20 
     16  0.191253D+00
     17  0.197728D+00  0.357279D+00
     18  0.161053D+00  0.243444D+00  0.265352D+00
     19  0.208916D-01 -0.202827D-01 -0.301008D-02  0.769342D-01
     20  0.888829D-02 -0.110767D-01  0.883186D-02 -0.101964D+00  0.691914D+00
     21 -0.143839D-03 -0.224504D-01  0.125007D-01  0.843451D-02 -0.537851D-01
     22  0.156043D-01 -0.291962D-04 -0.173613D-01  0.114271D-01 -0.160276D-03
     23 -0.130542D-02  0.127860D-01 -0.239036D-01 -0.485729D-02 -0.191024D-01
     24  0.200646D-02  0.224940D-02 -0.308311D-01  0.377725D-02  0.392528D-02
     25  0.289231D-03 -0.118959D-02 -0.186640D-03 -0.673822D-02 -0.445888D-02
     26 -0.320224D-02  0.872604D-03 -0.676446D-03 -0.161473D-02  0.641578D-02
     27  0.737261D-05 -0.210288D-03  0.515956D-03 -0.438320D-03 -0.117224D-02
     28 -0.759406D-03  0.530701D-03 -0.415424D-04 -0.349454D-02  0.426803D-02
     29  0.661498D-03  0.176420D-02  0.251513D-02 -0.718186D-04  0.178889D-02
     30  0.314163D-02  0.365758D-02  0.958078D-02  0.580353D-02 -0.736017D-02
     31 -0.586366D-02 -0.234090D-02 -0.158477D-02 -0.195001D-02  0.143479D-02
     32 -0.217161D-02  0.325791D-03 -0.883995D-04 -0.171101D-04  0.272904D-02
     33 -0.121010D-02  0.170297D-04  0.422232D-03 -0.222377D-03  0.703434D-03
     34 -0.288902D-02 -0.124953D-02 -0.174140D-02  0.209233D-02  0.211998D-02
     35 -0.337152D-03 -0.112160D-02 -0.613619D-02 -0.578294D-03  0.405731D-02
     36 -0.134372D-02 -0.497533D-02  0.400189D-02  0.356573D-04  0.278985D-02
               21            22            23            24            25 
     21  0.686896D-01
     22 -0.115936D-02  0.688630D-01
     23  0.432698D-01  0.122452D+00  0.591730D+00
     24 -0.301217D-02 -0.382998D-01 -0.779175D-01  0.299886D+00
     25  0.836449D-03  0.745756D-04 -0.910957D-03  0.792878D-03  0.950717D-01
     26 -0.183290D-03 -0.175106D-02  0.120574D-02 -0.152086D-04 -0.612474D-01
     27  0.145528D-02  0.474134D-03 -0.645175D-03  0.138754D-02  0.174536D-01
     28 -0.250827D-02 -0.610639D-02 -0.228942D-02  0.514225D-02  0.519437D-04
     29  0.376864D-03  0.941641D-03  0.743445D-03 -0.502339D-03 -0.645681D-03
     30  0.436077D-02  0.783475D-02  0.112096D-02 -0.329060D-02 -0.147961D-02
     31  0.174278D-03 -0.185373D-02 -0.969978D-03  0.286755D-02 -0.289574D-01
     32  0.243899D-03 -0.610445D-03  0.415381D-03  0.982328D-03  0.646018D-01
     33  0.616582D-03 -0.360104D-04 -0.539355D-04  0.154720D-02 -0.118069D-01
     34 -0.245562D-02 -0.274250D-01 -0.103319D+00  0.151914D-01  0.210137D-04
     35 -0.278088D-03 -0.105559D+00 -0.491548D+00  0.534014D-01  0.155373D-03
     36 -0.625019D-02  0.661757D-02  0.109216D-01 -0.357177D-01 -0.389396D-04
               26            27            28            29            30 
     26  0.378667D+00
     27 -0.123054D+00  0.123034D+00
     28 -0.107857D-02  0.313228D-03  0.673957D-01
     29  0.195480D-02 -0.102043D-02 -0.631801D-03  0.716662D-01
     30 -0.442886D-02  0.498754D-02 -0.306707D-01  0.810800D-02  0.422904D+00
     31  0.467519D-01 -0.714301D-02  0.419526D-02 -0.156062D-02 -0.334479D-02
     32 -0.355590D-01  0.404208D-02 -0.390416D-03  0.525375D-03 -0.840959D-04
     33  0.688922D-02  0.141318D-01 -0.120699D-02  0.110810D-02  0.480348D-02
     34  0.515587D-03 -0.177261D-03 -0.551989D-03  0.305262D-03 -0.442930D-03
     35  0.126725D-03  0.192691D-05  0.138681D-02 -0.425089D-03 -0.119680D-02
     36 -0.270934D-03 -0.588423D-05  0.151659D-03 -0.923657D-04 -0.758367D-04
               31            32            33            34            35 
     31  0.379621D+00
     32 -0.848064D-01  0.102157D+00
     33 -0.649149D-01  0.115120D-01  0.889511D-01
     34  0.423509D-04  0.402561D-04 -0.121508D-03  0.287058D-01
     35  0.768048D-03  0.718113D-04  0.249926D-04  0.106404D+00  0.497685D+00
     36 -0.496312D-03 -0.137062D-03 -0.511585D-04 -0.168789D-01 -0.521120D-01
               36 
     36  0.497228D-01
 FormGI is forming the generalized inverse of G from B-inverse, IUseBI=4.
 Leave Link  716 at Fri May 23 04:08:42 2025, MaxMem=  3758096384 cpu:               0.1 elap:               0.0
 (Enter /apps/easybuild-2022/easybuild/software/Compiler/NVHPC/22.11-CUDA-11.7.0/Gaussian/g16c01-CUDA-11.7.0/g16/l103.exe)

 GradGradGradGradGradGradGradGradGradGradGradGradGradGradGradGradGradGrad
 Berny optimization.
 Red2BG is reusing G-inverse.
 Internal  Forces:  Max     0.018121037 RMS     0.004346570
 Search for a local minimum.
 Step number   1 out of a maximum of   61
 All quantities printed in internal units (Hartrees-Bohrs-Radians)
 RMS Force = .43466D-02 SwitMx=.10000D-02 MixMth= 1
 Mixed Optimization -- RFO/linear search
 Second derivative matrix not updated -- analytic derivatives used.
 ITU=  0
     Eigenvalues ---    0.00145   0.00392   0.00485   0.04946   0.08463
     Eigenvalues ---    0.09136   0.10066   0.11029   0.11198   0.12714
     Eigenvalues ---    0.13669   0.15305   0.17926   0.18598   0.19873
     Eigenvalues ---    0.22683   0.23203   0.24999   0.26904   0.29110
     Eigenvalues ---    0.32736   0.37366   0.38850   0.39606   0.42198
     Eigenvalues ---    0.48728   0.52777   0.55903   0.69266   0.71630
 RFO step:  Lambda=-4.61959983D-03 EMin= 1.44827733D-03
 Linear search not attempted -- first point.
 Iteration  1 RMS(Cart)=  0.07337990 RMS(Int)=  0.00234415
 Iteration  2 RMS(Cart)=  0.00283032 RMS(Int)=  0.00036648
 Iteration  3 RMS(Cart)=  0.00000303 RMS(Int)=  0.00036647
 Iteration  4 RMS(Cart)=  0.00000000 RMS(Int)=  0.00036647
 ITry= 1 IFail=0 DXMaxC= 2.49D-01 DCOld= 1.00D+10 DXMaxT= 3.00D-01 DXLimC= 3.00D+00 Rises=F
 Variable       Old X    -DE/DX   Delta X   Delta X   Delta X     New X
                                 (Linear)    (Quad)   (Total)
    R1        2.90332   0.01087   0.00000   0.03108   0.03108   2.93441
    R2        2.51469   0.00195   0.00000  -0.00623  -0.00623   2.50846
    R3        2.49544  -0.00016   0.00000   0.00338   0.00338   2.49882
    R4        2.51354  -0.00028   0.00000   0.00117   0.00117   2.51472
    R5        2.52922   0.00005   0.00000   0.00338   0.00338   2.53260
    R6        3.55765  -0.00041   0.00000  -0.01503  -0.01503   3.54262
    R7        2.51427   0.00004   0.00000   0.00237   0.00237   2.51663
    R8        2.71320   0.00187   0.00000  -0.00096  -0.00096   2.71224
    R9        2.69864  -0.00021   0.00000  -0.00094  -0.00094   2.69770
   R10        3.02656  -0.00180   0.00000  -0.00244  -0.00244   3.02412
   R11        1.82650  -0.00001   0.00000  -0.00060  -0.00060   1.82590
    A1        1.86014   0.01481   0.00000   0.06115   0.06131   1.92145
    A2        1.95812  -0.00126   0.00000  -0.02443  -0.02446   1.93366
    A3        1.91108  -0.00101   0.00000  -0.01462  -0.01476   1.89632
    A4        1.92775  -0.00674   0.00000  -0.01451  -0.01426   1.91350
    A5        1.91746  -0.00674   0.00000  -0.01877  -0.01871   1.89875
    A6        1.88926   0.00078   0.00000   0.01067   0.01035   1.89961
    A7        1.88480   0.00195   0.00000   0.01470   0.01483   1.89963
    A8        2.00447   0.00361   0.00000   0.01527   0.01522   2.01968
    A9        1.91193  -0.00012   0.00000  -0.00982  -0.01001   1.90192
   A10        1.89471  -0.00397   0.00000  -0.02800  -0.02800   1.86671
   A11        1.92026  -0.00062   0.00000  -0.01045  -0.01035   1.90991
   A12        1.84702  -0.00106   0.00000   0.01680   0.01679   1.86380
   A13        1.79390   0.00818   0.00000   0.04734   0.04716   1.84107
   A14        1.87494   0.00376   0.00000   0.02174   0.02120   1.89613
   A15        1.84292  -0.01812   0.00000  -0.10437  -0.10379   1.73913
   A16        2.18253  -0.00436   0.00000  -0.01880  -0.01995   2.16258
   A17        1.89160   0.00221   0.00000   0.01512   0.01653   1.90812
   A18        1.85279   0.00469   0.00000   0.01767   0.01779   1.87058
   A19        1.92064  -0.00011   0.00000   0.00595   0.00595   1.92659
    D1        1.07245  -0.00039   0.00000   0.03226   0.03236   1.10481
    D2       -1.04421   0.00089   0.00000   0.04729   0.04727  -0.99694
    D3       -3.11945  -0.00004   0.00000   0.02272   0.02279  -3.09666
    D4       -3.09871   0.00026   0.00000   0.03997   0.03986  -3.05885
    D5        1.06781   0.00155   0.00000   0.05499   0.05477   1.12258
    D6       -1.00743   0.00061   0.00000   0.03042   0.03029  -0.97714
    D7       -1.00067  -0.00026   0.00000   0.02767   0.02782  -0.97286
    D8       -3.11733   0.00103   0.00000   0.04269   0.04273  -3.07461
    D9        1.09061   0.00009   0.00000   0.01812   0.01825   1.10886
   D10       -3.01419  -0.00092   0.00000   0.00507   0.00423  -3.00996
   D11       -0.68407   0.00139   0.00000   0.02623   0.02643  -0.65764
   D12        1.28777   0.00003   0.00000   0.00784   0.00811   1.29588
   D13        1.15776  -0.00290   0.00000  -0.00334  -0.00403   1.15373
   D14       -2.79531  -0.00058   0.00000   0.01781   0.01817  -2.77714
   D15       -0.82347  -0.00195   0.00000  -0.00057  -0.00015  -0.82361
   D16       -0.90299   0.00038   0.00000   0.01393   0.01330  -0.88969
   D17        1.42713   0.00269   0.00000   0.03509   0.03550   1.46263
   D18       -2.88421   0.00133   0.00000   0.01670   0.01718  -2.86703
   D19        1.53407   0.00097   0.00000  -0.00087  -0.00090   1.53317
   D20       -0.37810  -0.00102   0.00000  -0.01357  -0.01347  -0.39157
   D21       -2.76184  -0.00074   0.00000  -0.01464  -0.01471  -2.77655
         Item               Value     Threshold  Converged?
 Maximum Force            0.018121     0.000450     NO 
 RMS     Force            0.004347     0.000300     NO 
 Maximum Displacement     0.249417     0.001800     NO 
 RMS     Displacement     0.074033     0.001200     NO 
 Predicted change in Energy=-2.398009D-03
 Lowest energy point so far.  Saving SCF results.
 GradGradGradGradGradGradGradGradGradGradGradGradGradGradGradGradGradGrad

 Leave Link  103 at Fri May 23 04:08:43 2025, MaxMem=  3758096384 cpu:               0.0 elap:               0.0
 (Enter /apps/easybuild-2022/easybuild/software/Compiler/NVHPC/22.11-CUDA-11.7.0/Gaussian/g16c01-CUDA-11.7.0/g16/l202.exe)
                          Input orientation:                          
 ---------------------------------------------------------------------
 Center     Atomic      Atomic             Coordinates (Angstroms)
 Number     Number       Type             X           Y           Z
 ---------------------------------------------------------------------
      1          6           0       -1.319510   -0.601417   -0.246301
      2          6           0       -0.348076    0.443491    0.366674
      3          9           0       -1.124683   -0.691730   -1.556237
      4          9           0       -0.626670    1.648496   -0.149539
      5         16           0        1.476318    0.130279    0.070212
      6          8           0        2.166769    1.103404    0.867875
      7          8           0        1.715957   -1.275070    0.144358
      8          8           0        1.572415    0.545338   -1.472331
      9          9           0       -1.145854   -1.787643    0.311582
     10          9           0       -0.523349    0.475640    1.686444
     11          9           0       -2.569352   -0.201485   -0.025410
     12          1           0        1.744845    1.492370   -1.555933
 ---------------------------------------------------------------------
                    Distance matrix (angstroms):
                    1          2          3          4          5
     1  C    0.000000
     2  C    1.552821   0.000000
     3  F    1.327422   2.364198   0.000000
     4  F    2.356161   1.340196   2.775513   0.000000
     5  S    2.907269   1.874675   3.175884   2.603043   0.000000
     6  O    4.037566   2.647854   4.464580   3.022509   1.435256
     7  O    3.133765   2.695016   3.361777   3.757860   1.427561
     8  O    3.343864   2.660940   2.968454   2.793334   1.600295
     9  F    1.322317   2.370115   2.165692   3.505601   3.257679
    10  F    2.351472   1.331745   3.498476   2.181077   2.594253
    11  F    1.330730   2.346016   2.161213   2.685489   4.060377
    12  H    3.935652   3.029338   3.606173   2.761595   2.138164
                    6          7          8          9         10
     6  O    0.000000
     7  O    2.526627   0.000000
     8  O    2.478155   2.438887   0.000000
     9  F    4.431826   2.912157   4.001766   0.000000
    10  F    2.881124   3.233806   3.791430   2.720333   0.000000
    11  F    4.993149   4.421004   4.450344   2.157732   2.752284
    12  H    2.490815   3.248161   0.966225   4.754182   4.085517
                   11         12
    11  F    0.000000
    12  H    4.880978   0.000000
 Symmetry turned off by external request.
 Stoichiometry    C2HF5O3S
 Rotational constants (GHZ):           1.5769861           0.8352101           0.7856602
 Leave Link  202 at Fri May 23 04:08:43 2025, MaxMem=  3758096384 cpu:               0.1 elap:               0.0
 (Enter /apps/easybuild-2022/easybuild/software/Compiler/NVHPC/22.11-CUDA-11.7.0/Gaussian/g16c01-CUDA-11.7.0/g16/l301.exe)
 Standard basis: 6-311++G(d,p) (5D, 7F)
 Ernie: Thresh=  0.10000D-02 Tol=  0.10000D-05 Strict=F.
   257 basis functions,   419 primitive gaussians,   268 cartesian basis functions
    49 alpha electrons       49 beta electrons
       nuclear repulsion energy       924.0131207773 Hartrees.
 IExCor= 4639 DFT=T Ex+Corr=wB97XD ExCW=0 ScaHFX=  1.000000
 ScaDFX=  1.000000  1.000000  1.000000  1.000000 ScalE2=  1.000000  1.000000
 IRadAn=      5 IRanWt=     -1 IRanGd=            0 ICorTp=0 IEmpDi=121
 HFx  wShort=  0.000000 wLong=  0.200000 cFull=  0.222036 cShort=  0.000000 cLong=  0.777964
 DFx  wShort=  0.000000 wLong=  0.200000 cFull=  0.000000 cShort=  0.000000 cLong=  1.000000
 NAtoms=   12 NActive=   12 NUniq=   12 SFac= 1.00D+00 NAtFMM=   60 NAOKFM=F Big=F
 Integral buffers will be    131072 words long.
 Raffenetti 2 integral format.
 Two-electron integral symmetry is turned off.
 R6Disp:  Grimme-D2 Dispersion energy=       -0.0056612653 Hartrees.
 Nuclear repulsion after empirical dispersion term =      924.0074595120 Hartrees.
 Leave Link  301 at Fri May 23 04:08:43 2025, MaxMem=  3758096384 cpu:               0.1 elap:               0.0
 (Enter /apps/easybuild-2022/easybuild/software/Compiler/NVHPC/22.11-CUDA-11.7.0/Gaussian/g16c01-CUDA-11.7.0/g16/l302.exe)
 NPDir=0 NMtPBC=     1 NCelOv=     1 NCel=       1 NClECP=     1 NCelD=      1
         NCelK=      1 NCelE2=     1 NClLst=     1 CellRange=     0.0.
 One-electron integrals computed using PRISM.
 NBasis=   257 RedAO= T EigKep=  6.74D-05  NBF=   257
 NBsUse=   257 1.00D-06 EigRej= -1.00D+00 NBFU=   257
 Precomputing XC quadrature grid using
 IXCGrd= 4 IRadAn=           5 IRanWt=          -1 IRanGd=           0 AccXCQ= 0.00D+00.
 Generated NRdTot=       0 NPtTot=           0 NUsed=           0 NTot=          32
 NSgBfM=   268   268   268   268   268 MxSgAt=    12 MxSgA2=    12.
 Leave Link  302 at Fri May 23 04:08:43 2025, MaxMem=  3758096384 cpu:               0.7 elap:               0.2
 (Enter /apps/easybuild-2022/easybuild/software/Compiler/NVHPC/22.11-CUDA-11.7.0/Gaussian/g16c01-CUDA-11.7.0/g16/l303.exe)
 DipDrv:  MaxL=1.
 Leave Link  303 at Fri May 23 04:08:43 2025, MaxMem=  3758096384 cpu:               0.1 elap:               0.0
 (Enter /apps/easybuild-2022/easybuild/software/Compiler/NVHPC/22.11-CUDA-11.7.0/Gaussian/g16c01-CUDA-11.7.0/g16/l401.exe)
 Initial guess from the checkpoint file:  "2003846667223680600001_r12_insertion_R_1_2_3_IRC_R_prod.chk"
 B after Tr=     0.021171   -0.006669   -0.000931
         Rot=    0.999979    0.004071    0.003180    0.003811 Ang=   0.74 deg.
 Guess basis will be translated and rotated to current coordinates.
 JPrj=2 DoOrth=T DoCkMO=T.
 Generating alternative initial guess.
 ExpMin= 3.60D-02 ExpMax= 9.34D+04 ExpMxC= 3.17D+03 IAcc=3 IRadAn=         5 AccDes= 0.00D+00
 Harris functional with IExCor= 4639 and IRadAn=       5 diagonalized for initial guess.
 HarFok:  IExCor= 4639 AccDes= 0.00D+00 IRadAn=         5 IDoV= 1 UseB2=F ITyADJ=14
 ICtDFT=  3500011 ScaDFX=  1.000000  1.000000  1.000000  1.000000
 FoFCou: FMM=F IPFlag=           0 FMFlag=      100000 FMFlg1=           0
         NFxFlg=           0 DoJE=T BraDBF=F KetDBF=T FulRan=T
         wScrn=  0.000000 ICntrl=       500 IOpCl=  0 I1Cent=   200000004 NGrid=           0
         NMat0=    1 NMatS0=      1 NMatT0=    0 NMatD0=    1 NMtDS0=    0 NMtDT0=    0
 Symmetry not used in FoFCou.
 Harris En= -1167.10238943622    
 Leave Link  401 at Fri May 23 04:08:43 2025, MaxMem=  3758096384 cpu:               2.8 elap:               0.6
 (Enter /apps/easybuild-2022/easybuild/software/Compiler/NVHPC/22.11-CUDA-11.7.0/Gaussian/g16c01-CUDA-11.7.0/g16/l502.exe)
 Keep R1 ints in memory in canonical form, NReq=1117474609.
 FoFCou: FMM=F IPFlag=           0 FMFlag=           0 FMFlg1=           0
         NFxFlg=           0 DoJE=F BraDBF=F KetDBF=F FulRan=T
         wScrn=  0.000000 ICntrl=       600 IOpCl=  0 I1Cent=           0 NGrid=           0
         NMat0=    1 NMatS0=  33153 NMatT0=    0 NMatD0=    1 NMtDS0=    0 NMtDT0=    0
 Symmetry not used in FoFCou.
 Two-electron integral symmetry not used.
 Closed shell SCF:
 Using DIIS extrapolation, IDIIS=  1040.
 NGot=  3758096384 LenX=  2658793876 LenY=  2658721611
 Requested convergence on RMS density matrix=1.00D-08 within  32 cycles.
 Requested convergence on MAX density matrix=1.00D-06.
 Requested convergence on             energy=1.00D-06.
 No special actions if energy rises.

 Cycle   1  Pass 1  IDiag  1:
 E= -1199.80920688591    
 DIIS: error= 3.44D-03 at cycle   1 NSaved=   1.
 NSaved= 1 IEnMin= 1 EnMin= -1199.80920688591     IErMin= 1 ErrMin= 3.44D-03
 ErrMax= 3.44D-03  0.00D+00 EMaxC= 1.00D-01 BMatC= 1.03D-02 BMatP= 1.03D-02
 IDIUse=3 WtCom= 9.66D-01 WtEn= 3.44D-02
 Coeff-Com:  0.100D+01
 Coeff-En:   0.100D+01
 Coeff:      0.100D+01
 Gap=     0.744 Goal=   None    Shift=    0.000
 GapD=    0.744 DampG=2.000 DampE=1.000 DampFc=2.0000 IDamp=-1.
 RMSDP=1.14D-03 MaxDP=2.51D-02              OVMax= 3.03D-02

 Cycle   2  Pass 1  IDiag  1:
 E= -1199.82486234500     Delta-E=       -0.015655459094 Rises=F Damp=F
 DIIS: error= 8.70D-04 at cycle   2 NSaved=   2.
 NSaved= 2 IEnMin= 2 EnMin= -1199.82486234500     IErMin= 2 ErrMin= 8.70D-04
 ErrMax= 8.70D-04  0.00D+00 EMaxC= 1.00D-01 BMatC= 6.12D-04 BMatP= 1.03D-02
 IDIUse=3 WtCom= 9.91D-01 WtEn= 8.70D-03
 Coeff-Com: -0.109D+00 0.111D+01
 Coeff-En:   0.000D+00 0.100D+01
 Coeff:     -0.108D+00 0.111D+01
 Gap=     0.470 Goal=   None    Shift=    0.000
 RMSDP=3.38D-04 MaxDP=1.10D-02 DE=-1.57D-02 OVMax= 1.02D-02

 Cycle   3  Pass 1  IDiag  1:
 E= -1199.82537004855     Delta-E=       -0.000507703548 Rises=F Damp=F
 DIIS: error= 1.41D-03 at cycle   3 NSaved=   3.
 NSaved= 3 IEnMin= 3 EnMin= -1199.82537004855     IErMin= 2 ErrMin= 8.70D-04
 ErrMax= 1.41D-03  0.00D+00 EMaxC= 1.00D-01 BMatC= 7.48D-04 BMatP= 6.12D-04
 IDIUse=3 WtCom= 2.10D-01 WtEn= 7.90D-01
 Coeff-Com: -0.106D+00 0.641D+00 0.465D+00
 Coeff-En:   0.000D+00 0.167D-02 0.998D+00
 Coeff:     -0.223D-01 0.136D+00 0.886D+00
 Gap=     0.472 Goal=   None    Shift=    0.000
 RMSDP=3.30D-04 MaxDP=1.51D-02 DE=-5.08D-04 OVMax= 1.12D-02

 Cycle   4  Pass 1  IDiag  1:
 E= -1199.82512469589     Delta-E=        0.000245352661 Rises=F Damp=F
 DIIS: error= 1.75D-03 at cycle   4 NSaved=   4.
 NSaved= 4 IEnMin= 3 EnMin= -1199.82537004855     IErMin= 2 ErrMin= 8.70D-04
 ErrMax= 1.75D-03  0.00D+00 EMaxC= 1.00D-01 BMatC= 1.15D-03 BMatP= 6.12D-04
 IDIUse=3 WtCom= 1.93D-01 WtEn= 8.07D-01
 Coeff-Com: -0.501D-02-0.598D-01 0.577D+00 0.488D+00
 Coeff-En:   0.000D+00 0.000D+00 0.581D+00 0.419D+00
 Coeff:     -0.965D-03-0.115D-01 0.581D+00 0.432D+00
 Gap=     0.471 Goal=   None    Shift=    0.000
 RMSDP=1.72D-04 MaxDP=8.47D-03 DE= 2.45D-04 OVMax= 6.28D-03

 Cycle   5  Pass 1  IDiag  1:
 E= -1199.82589197371     Delta-E=       -0.000767277824 Rises=F Damp=F
 DIIS: error= 9.36D-05 at cycle   5 NSaved=   5.
 NSaved= 5 IEnMin= 5 EnMin= -1199.82589197371     IErMin= 5 ErrMin= 9.36D-05
 ErrMax= 9.36D-05  0.00D+00 EMaxC= 1.00D-01 BMatC= 6.30D-06 BMatP= 6.12D-04
 IDIUse=1 WtCom= 1.00D+00 WtEn= 0.00D+00
 Coeff-Com:  0.490D-02-0.801D-01 0.232D+00 0.186D+00 0.657D+00
 Coeff:      0.490D-02-0.801D-01 0.232D+00 0.186D+00 0.657D+00
 Gap=     0.470 Goal=   None    Shift=    0.000
 RMSDP=1.68D-05 MaxDP=4.95D-04 DE=-7.67D-04 OVMax= 6.50D-04

 Cycle   6  Pass 1  IDiag  1:
 E= -1199.82589694805     Delta-E=       -0.000004974337 Rises=F Damp=F
 DIIS: error= 2.44D-05 at cycle   6 NSaved=   6.
 NSaved= 6 IEnMin= 6 EnMin= -1199.82589694805     IErMin= 6 ErrMin= 2.44D-05
 ErrMax= 2.44D-05  0.00D+00 EMaxC= 1.00D-01 BMatC= 2.21D-07 BMatP= 6.30D-06
 IDIUse=1 WtCom= 1.00D+00 WtEn= 0.00D+00
 Coeff-Com:  0.231D-02-0.206D-01 0.645D-03-0.267D-02 0.227D+00 0.794D+00
 Coeff:      0.231D-02-0.206D-01 0.645D-03-0.267D-02 0.227D+00 0.794D+00
 Gap=     0.470 Goal=   None    Shift=    0.000
 RMSDP=4.18D-06 MaxDP=1.38D-04 DE=-4.97D-06 OVMax= 2.11D-04

 Cycle   7  Pass 1  IDiag  1:
 E= -1199.82589717938     Delta-E=       -0.000000231325 Rises=F Damp=F
 DIIS: error= 5.88D-06 at cycle   7 NSaved=   7.
 NSaved= 7 IEnMin= 7 EnMin= -1199.82589717938     IErMin= 7 ErrMin= 5.88D-06
 ErrMax= 5.88D-06  0.00D+00 EMaxC= 1.00D-01 BMatC= 2.79D-08 BMatP= 2.21D-07
 IDIUse=1 WtCom= 1.00D+00 WtEn= 0.00D+00
 Coeff-Com:  0.470D-03-0.624D-03-0.223D-01-0.189D-01 0.269D-01 0.314D+00
 Coeff-Com:  0.700D+00
 Coeff:      0.470D-03-0.624D-03-0.223D-01-0.189D-01 0.269D-01 0.314D+00
 Coeff:      0.700D+00
 Gap=     0.470 Goal=   None    Shift=    0.000
 RMSDP=1.88D-06 MaxDP=9.38D-05 DE=-2.31D-07 OVMax= 5.74D-05

 Cycle   8  Pass 1  IDiag  1:
 E= -1199.82589720457     Delta-E=       -0.000000025198 Rises=F Damp=F
 DIIS: error= 2.59D-06 at cycle   8 NSaved=   8.
 NSaved= 8 IEnMin= 8 EnMin= -1199.82589720457     IErMin= 8 ErrMin= 2.59D-06
 ErrMax= 2.59D-06  0.00D+00 EMaxC= 1.00D-01 BMatC= 4.69D-09 BMatP= 2.79D-08
 IDIUse=1 WtCom= 1.00D+00 WtEn= 0.00D+00
 Coeff-Com: -0.145D-03 0.299D-02-0.100D-01-0.800D-02-0.225D-01 0.225D-01
 Coeff-Com:  0.313D+00 0.702D+00
 Coeff:     -0.145D-03 0.299D-02-0.100D-01-0.800D-02-0.225D-01 0.225D-01
 Coeff:      0.313D+00 0.702D+00
 Gap=     0.470 Goal=   None    Shift=    0.000
 RMSDP=7.64D-07 MaxDP=3.53D-05 DE=-2.52D-08 OVMax= 2.66D-05

 Cycle   9  Pass 1  IDiag  1:
 E= -1199.82589720852     Delta-E=       -0.000000003947 Rises=F Damp=F
 DIIS: error= 9.05D-07 at cycle   9 NSaved=   9.
 NSaved= 9 IEnMin= 9 EnMin= -1199.82589720852     IErMin= 9 ErrMin= 9.05D-07
 ErrMax= 9.05D-07  0.00D+00 EMaxC= 1.00D-01 BMatC= 5.09D-10 BMatP= 4.69D-09
 IDIUse=1 WtCom= 1.00D+00 WtEn= 0.00D+00
 Coeff-Com: -0.116D-03 0.141D-02-0.198D-02-0.150D-02-0.125D-01-0.240D-01
 Coeff-Com:  0.532D-01 0.301D+00 0.685D+00
 Coeff:     -0.116D-03 0.141D-02-0.198D-02-0.150D-02-0.125D-01-0.240D-01
 Coeff:      0.532D-01 0.301D+00 0.685D+00
 Gap=     0.470 Goal=   None    Shift=    0.000
 RMSDP=2.42D-07 MaxDP=1.25D-05 DE=-3.95D-09 OVMax= 6.00D-06

 Cycle  10  Pass 1  IDiag  1:
 E= -1199.82589720888     Delta-E=       -0.000000000354 Rises=F Damp=F
 DIIS: error= 1.47D-07 at cycle  10 NSaved=  10.
 NSaved=10 IEnMin=10 EnMin= -1199.82589720888     IErMin=10 ErrMin= 1.47D-07
 ErrMax= 1.47D-07  0.00D+00 EMaxC= 1.00D-01 BMatC= 2.17D-11 BMatP= 5.09D-10
 IDIUse=1 WtCom= 1.00D+00 WtEn= 0.00D+00
 Coeff-Com: -0.941D-05-0.815D-05 0.559D-03 0.459D-03-0.324D-03-0.643D-02
 Coeff-Com: -0.199D-01-0.114D-01 0.137D+00 0.900D+00
 Coeff:     -0.941D-05-0.815D-05 0.559D-03 0.459D-03-0.324D-03-0.643D-02
 Coeff:     -0.199D-01-0.114D-01 0.137D+00 0.900D+00
 Gap=     0.470 Goal=   None    Shift=    0.000
 RMSDP=6.04D-08 MaxDP=1.25D-06 DE=-3.54D-10 OVMax= 2.10D-06

 Cycle  11  Pass 1  IDiag  1:
 E= -1199.82589720888     Delta-E=       -0.000000000007 Rises=F Damp=F
 DIIS: error= 1.47D-07 at cycle  11 NSaved=  11.
 NSaved=11 IEnMin=11 EnMin= -1199.82589720888     IErMin=10 ErrMin= 1.47D-07
 ErrMax= 1.47D-07  0.00D+00 EMaxC= 1.00D-01 BMatC= 5.66D-12 BMatP= 2.17D-11
 IDIUse=1 WtCom= 1.00D+00 WtEn= 0.00D+00
 Coeff-Com:  0.519D-05-0.121D-03 0.410D-03 0.326D-03 0.893D-03-0.818D-03
 Coeff-Com: -0.136D-01-0.308D-01 0.359D-02 0.412D+00 0.628D+00
 Coeff:      0.519D-05-0.121D-03 0.410D-03 0.326D-03 0.893D-03-0.818D-03
 Coeff:     -0.136D-01-0.308D-01 0.359D-02 0.412D+00 0.628D+00
 Gap=     0.470 Goal=   None    Shift=    0.000
 RMSDP=1.80D-08 MaxDP=7.70D-07 DE=-7.28D-12 OVMax= 4.00D-07

 Cycle  12  Pass 1  IDiag  1:
 E= -1199.82589720894     Delta-E=       -0.000000000055 Rises=F Damp=F
 DIIS: error= 2.42D-08 at cycle  12 NSaved=  12.
 NSaved=12 IEnMin=12 EnMin= -1199.82589720894     IErMin=12 ErrMin= 2.42D-08
 ErrMax= 2.42D-08  0.00D+00 EMaxC= 1.00D-01 BMatC= 2.60D-13 BMatP= 5.66D-12
 IDIUse=1 WtCom= 1.00D+00 WtEn= 0.00D+00
 Coeff-Com:  0.272D-05-0.358D-04 0.561D-04 0.438D-04 0.312D-03 0.510D-03
 Coeff-Com: -0.191D-02-0.768D-02-0.129D-01 0.191D-01 0.167D+00 0.836D+00
 Coeff:      0.272D-05-0.358D-04 0.561D-04 0.438D-04 0.312D-03 0.510D-03
 Coeff:     -0.191D-02-0.768D-02-0.129D-01 0.191D-01 0.167D+00 0.836D+00
 Gap=     0.470 Goal=   None    Shift=    0.000
 RMSDP=8.05D-09 MaxDP=3.33D-07 DE=-5.55D-11 OVMax= 1.83D-07

 SCF Done:  E(RwB97XD) =  -1199.82589721     A.U. after   12 cycles
            NFock= 12  Conv=0.81D-08     -V/T= 2.0020
 KE= 1.197426198363D+03 PE=-4.694622739509D+03 EE= 1.373363184425D+03
 Leave Link  502 at Fri May 23 04:08:57 2025, MaxMem=  3758096384 cpu:              62.3 elap:              13.4
 (Enter /apps/easybuild-2022/easybuild/software/Compiler/NVHPC/22.11-CUDA-11.7.0/Gaussian/g16c01-CUDA-11.7.0/g16/l508.exe)
 QCSCF skips out because SCF is already converged.
 Leave Link  508 at Fri May 23 04:08:57 2025, MaxMem=  3758096384 cpu:               0.0 elap:               0.0
 (Enter /apps/easybuild-2022/easybuild/software/Compiler/NVHPC/22.11-CUDA-11.7.0/Gaussian/g16c01-CUDA-11.7.0/g16/l701.exe)
 ... and contract with generalized density number  0.
 Compute integral first derivatives.
 R6Disp: Adding Grimme-D2 dispersion energy 1st derivatives to the gradient.
 Leave Link  701 at Fri May 23 04:08:57 2025, MaxMem=  3758096384 cpu:               0.4 elap:               0.1
 (Enter /apps/easybuild-2022/easybuild/software/Compiler/NVHPC/22.11-CUDA-11.7.0/Gaussian/g16c01-CUDA-11.7.0/g16/l702.exe)
 L702 exits ... SP integral derivatives will be done elsewhere.
 Leave Link  702 at Fri May 23 04:08:57 2025, MaxMem=  3758096384 cpu:               0.1 elap:               0.0
 (Enter /apps/easybuild-2022/easybuild/software/Compiler/NVHPC/22.11-CUDA-11.7.0/Gaussian/g16c01-CUDA-11.7.0/g16/l703.exe)
 Integral derivatives from FoFJK, PRISM(SPDF).
 Compute integral first derivatives, UseDBF=F ICtDFT=           0.
 Calling FoFJK, ICntrl=      2127 FMM=F ISym2X=0 I1Cent= 0 IOpClX= 0 NMat=1 NMatS=1 NMatT=0.
 FoFJK:  IHMeth= 1 ICntrl=    2127 DoSepK=T KAlg= 0 I1Cent=           0 FoldK=F
 IRaf=         1 NMat=       1 IRICut=       1 DoRegI=T DoRafI=F ISym2E= 0 IDoP0=0 IntGTp=1.
 FoFCou: FMM=F IPFlag=           0 FMFlag=      100000 FMFlg1=         800
         NFxFlg=           0 DoJE=F BraDBF=F KetDBF=F FulRan=T
         wScrn=  0.000000 ICntrl=      2527 IOpCl=  0 I1Cent=           0 NGrid=           0
         NMat0=    1 NMatS0=      1 NMatT0=    0 NMatD0=    1 NMtDS0=    0 NMtDT0=    0
 Symmetry not used in FoFCou.
 Leave Link  703 at Fri May 23 04:09:02 2025, MaxMem=  3758096384 cpu:              35.7 elap:               4.6
 (Enter /apps/easybuild-2022/easybuild/software/Compiler/NVHPC/22.11-CUDA-11.7.0/Gaussian/g16c01-CUDA-11.7.0/g16/l716.exe)
 Dipole        =-2.77440904D-01 7.97958130D-01-6.55599888D-01
 -------------------------------------------------------------------
 Center     Atomic                   Forces (Hartrees/Bohr)
 Number     Number              X              Y              Z
 -------------------------------------------------------------------
      1        6           0.000018927   -0.000005909   -0.000352670
      2        6          -0.000054159    0.000194972    0.001006044
      3        9          -0.000168074   -0.000815346   -0.000511015
      4        9          -0.000322451    0.000240846    0.000683069
      5       16          -0.000679152    0.000085797    0.000290525
      6        8           0.000488341    0.000186743   -0.000172363
      7        8           0.000283761   -0.000154027   -0.000262679
      8        8           0.000998039   -0.000034719   -0.000600669
      9        9          -0.000248681   -0.000069576    0.000099869
     10        9          -0.000142470    0.000166703    0.000045975
     11        9          -0.000100189    0.000199822   -0.000159098
     12        1          -0.000073892    0.000004695   -0.000066989
 -------------------------------------------------------------------
 Cartesian Forces:  Max     0.001006044 RMS     0.000385865
 Leave Link  716 at Fri May 23 04:09:02 2025, MaxMem=  3758096384 cpu:               0.1 elap:               0.0
 (Enter /apps/easybuild-2022/easybuild/software/Compiler/NVHPC/22.11-CUDA-11.7.0/Gaussian/g16c01-CUDA-11.7.0/g16/l103.exe)

 GradGradGradGradGradGradGradGradGradGradGradGradGradGradGradGradGradGrad
 Berny optimization.
 Using GEDIIS/GDIIS optimizer.
 FormGI is forming the generalized inverse of G from B-inverse, IUseBI=4.
 Internal  Forces:  Max     0.001752900 RMS     0.000480037
 Search for a local minimum.
 Step number   2 out of a maximum of   61
 All quantities printed in internal units (Hartrees-Bohrs-Radians)
 RMS Force = .48004D-03 SwitMx=.10000D-02 MixMth= 2
 Mixed Optimization -- En-DIIS/RFO-DIIS
 Update second derivatives using D2CorX and points    1    2
 DE= -2.36D-03 DEPred=-2.40D-03 R= 9.83D-01
 TightC=F SS=  1.41D+00  RLast= 1.95D-01 DXNew= 5.0454D-01 5.8632D-01
 Trust test= 9.83D-01 RLast= 1.95D-01 DXMaxT set to 5.05D-01
 ITU=  1  0
 Use linear search instead of GDIIS.
     Eigenvalues ---    0.00146   0.00390   0.00481   0.04954   0.08458
     Eigenvalues ---    0.09131   0.10055   0.11024   0.11203   0.12703
     Eigenvalues ---    0.13879   0.15367   0.17893   0.18572   0.20527
     Eigenvalues ---    0.22788   0.23280   0.24645   0.27080   0.29351
     Eigenvalues ---    0.32734   0.37365   0.38841   0.39500   0.41315
     Eigenvalues ---    0.48605   0.52777   0.55916   0.69235   0.71632
 RFO step:  Lambda=-1.63941210D-04 EMin= 1.45863153D-03
 Quartic linear search produced a step of  0.00233.
 Iteration  1 RMS(Cart)=  0.03303559 RMS(Int)=  0.00068882
 Iteration  2 RMS(Cart)=  0.00072110 RMS(Int)=  0.00000493
 Iteration  3 RMS(Cart)=  0.00000028 RMS(Int)=  0.00000492
 ITry= 1 IFail=0 DXMaxC= 1.05D-01 DCOld= 1.00D+10 DXMaxT= 5.05D-01 DXLimC= 3.00D+00 Rises=F
 Variable       Old X    -DE/DX   Delta X   Delta X   Delta X     New X
                                 (Linear)    (Quad)   (Total)
    R1        2.93441   0.00114   0.00007   0.00342   0.00349   2.93790
    R2        2.50846   0.00053  -0.00001   0.00047   0.00046   2.50892
    R3        2.49882   0.00007   0.00001   0.00020   0.00021   2.49903
    R4        2.51472   0.00013   0.00000   0.00037   0.00038   2.51509
    R5        2.53260   0.00002   0.00001  -0.00043  -0.00043   2.53218
    R6        3.54262   0.00110  -0.00003   0.00499   0.00495   3.54757
    R7        2.51663   0.00007   0.00001  -0.00091  -0.00091   2.51573
    R8        2.71224   0.00027  -0.00000   0.00052   0.00052   2.71276
    R9        2.69770   0.00018  -0.00000   0.00079   0.00079   2.69849
   R10        3.02412   0.00070  -0.00001   0.00221   0.00221   3.02633
   R11        1.82590  -0.00000  -0.00000   0.00003   0.00003   1.82593
    A1        1.92145   0.00130   0.00014   0.00614   0.00629   1.92774
    A2        1.93366   0.00001  -0.00006  -0.00391  -0.00396   1.92970
    A3        1.89632  -0.00032  -0.00003  -0.00102  -0.00106   1.89526
    A4        1.91350  -0.00063  -0.00003  -0.00043  -0.00046   1.91304
    A5        1.89875  -0.00035  -0.00004  -0.00135  -0.00140   1.89735
    A6        1.89961  -0.00003   0.00002   0.00054   0.00056   1.90016
    A7        1.89963   0.00011   0.00003   0.00277   0.00281   1.90243
    A8        2.01968  -0.00009   0.00004  -0.00620  -0.00616   2.01352
    A9        1.90192  -0.00008  -0.00002   0.00067   0.00064   1.90257
   A10        1.86671   0.00010  -0.00007   0.00294   0.00288   1.86959
   A11        1.90991  -0.00033  -0.00002  -0.00227  -0.00230   1.90761
   A12        1.86380   0.00027   0.00004   0.00209   0.00212   1.86593
   A13        1.84107   0.00018   0.00011   0.00248   0.00259   1.84365
   A14        1.89613   0.00003   0.00005  -0.00412  -0.00407   1.89206
   A15        1.73913   0.00175  -0.00024   0.00890   0.00866   1.74779
   A16        2.16258  -0.00004  -0.00005   0.00056   0.00051   2.16309
   A17        1.90812  -0.00070   0.00004  -0.00312  -0.00310   1.90503
   A18        1.87058  -0.00075   0.00004  -0.00257  -0.00252   1.86806
   A19        1.92659   0.00013   0.00001  -0.00036  -0.00035   1.92624
    D1        1.10481   0.00042   0.00008   0.06039   0.06047   1.16528
    D2       -0.99694   0.00027   0.00011   0.05867   0.05878  -0.93816
    D3       -3.09666   0.00004   0.00005   0.05966   0.05971  -3.03695
    D4       -3.05885   0.00051   0.00009   0.06138   0.06146  -2.99739
    D5        1.12258   0.00036   0.00013   0.05965   0.05978   1.18236
    D6       -0.97714   0.00013   0.00007   0.06065   0.06071  -0.91643
    D7       -0.97286   0.00028   0.00006   0.05904   0.05911  -0.91375
    D8       -3.07461   0.00012   0.00010   0.05732   0.05742  -3.01719
    D9        1.10886  -0.00011   0.00004   0.05831   0.05835   1.16721
   D10       -3.00996  -0.00004   0.00001   0.01268   0.01270  -2.99726
   D11       -0.65764   0.00006   0.00006   0.01227   0.01233  -0.64531
   D12        1.29588   0.00000   0.00002   0.01197   0.01198   1.30786
   D13        1.15373  -0.00020  -0.00001   0.01095   0.01095   1.16468
   D14       -2.77714  -0.00009   0.00004   0.01054   0.01059  -2.76655
   D15       -0.82361  -0.00016  -0.00000   0.01024   0.01023  -0.81338
   D16       -0.88969   0.00000   0.00003   0.01108   0.01112  -0.87857
   D17        1.46263   0.00010   0.00008   0.01067   0.01075   1.47338
   D18       -2.86703   0.00004   0.00004   0.01037   0.01040  -2.85663
   D19        1.53317   0.00003  -0.00000  -0.00540  -0.00541   1.52776
   D20       -0.39157  -0.00071  -0.00003  -0.01105  -0.01108  -0.40264
   D21       -2.77655   0.00055  -0.00003  -0.00709  -0.00713  -2.78368
         Item               Value     Threshold  Converged?
 Maximum Force            0.001753     0.000450     NO 
 RMS     Force            0.000480     0.000300     NO 
 Maximum Displacement     0.105443     0.001800     NO 
[...]
   D18       -2.86499   0.00000   0.00000   0.00003   0.00003  -2.86496
   D19        1.52746  -0.00000   0.00000   0.00000   0.00000   1.52746
   D20       -0.40235   0.00000   0.00000   0.00001   0.00001  -0.40234
   D21       -2.78358   0.00000   0.00000   0.00001   0.00001  -2.78357
         Item               Value     Threshold  Converged?
 Maximum Force            0.000004     0.000450     YES
 RMS     Force            0.000001     0.000300     YES
 Maximum Displacement     0.000074     0.001800     YES
 RMS     Displacement     0.000024     0.001200     YES
 Predicted change in Energy=-2.068808D-10
 Optimization completed.
    -- Stationary point found.
                           ----------------------------
                           !   Optimized Parameters   !
                           ! (Angstroms and Degrees)  !
 --------------------------                            --------------------------
 ! Name  Definition              Value          Derivative Info.                !
 --------------------------------------------------------------------------------
 ! R1    R(1,2)                  1.5554         -DE/DX =    0.0                 !
 ! R2    R(1,3)                  1.3276         -DE/DX =    0.0                 !
 ! R3    R(1,9)                  1.3225         -DE/DX =    0.0                 !
 ! R4    R(1,11)                 1.3309         -DE/DX =    0.0                 !
 ! R5    R(2,4)                  1.3398         -DE/DX =    0.0                 !
 ! R6    R(2,5)                  1.8768         -DE/DX =    0.0                 !
 ! R7    R(2,10)                 1.3314         -DE/DX =    0.0                 !
 ! R8    R(5,6)                  1.4355         -DE/DX =    0.0                 !
 ! R9    R(5,7)                  1.4279         -DE/DX =    0.0                 !
 ! R10   R(5,8)                  1.6013         -DE/DX =    0.0                 !
 ! R11   R(8,12)                 0.9662         -DE/DX =    0.0                 !
 ! A1    A(2,1,3)              110.4892         -DE/DX =    0.0                 !
 ! A2    A(2,1,9)              110.5554         -DE/DX =    0.0                 !
 ! A3    A(2,1,11)             108.5974         -DE/DX =    0.0                 !
 ! A4    A(3,1,9)              109.5471         -DE/DX =    0.0                 !
 ! A5    A(3,1,11)             108.7424         -DE/DX =    0.0                 !
 ! A6    A(9,1,11)             108.8649         -DE/DX =    0.0                 !
 ! A7    A(1,2,4)              109.0194         -DE/DX =    0.0                 !
 ! A8    A(1,2,5)              115.4364         -DE/DX =    0.0                 !
 ! A9    A(1,2,10)             108.9845         -DE/DX =    0.0                 !
 ! A10   A(4,2,5)              107.0885         -DE/DX =    0.0                 !
 ! A11   A(4,2,10)             109.2894         -DE/DX =    0.0                 !
 ! A12   A(5,2,10)             106.8822         -DE/DX =    0.0                 !
 ! A13   A(2,5,6)              105.6277         -DE/DX =    0.0                 !
 ! A14   A(2,5,7)              108.4459         -DE/DX =    0.0                 !
 ! A15   A(2,5,8)              100.0735         -DE/DX =    0.0                 !
 ! A16   A(6,5,7)              123.9252         -DE/DX =    0.0                 !
 ! A17   A(6,5,8)              109.1549         -DE/DX =    0.0                 !
 ! A18   A(7,5,8)              107.058          -DE/DX =    0.0                 !
 ! A19   A(5,8,12)             110.3555         -DE/DX =    0.0                 !
 ! D1    D(3,1,2,4)             67.0964         -DE/DX =    0.0                 !
 ! D2    D(3,1,2,5)            -53.4428         -DE/DX =    0.0                 !
 ! D3    D(3,1,2,10)          -173.6878         -DE/DX =    0.0                 !
 ! D4    D(9,1,2,4)           -171.4649         -DE/DX =    0.0                 !
 ! D5    D(9,1,2,5)             67.9959         -DE/DX =    0.0                 !
 ! D6    D(9,1,2,10)           -52.2491         -DE/DX =    0.0                 !
 ! D7    D(11,1,2,4)           -52.0897         -DE/DX =    0.0                 !
 ! D8    D(11,1,2,5)          -172.6289         -DE/DX =    0.0                 !
 ! D9    D(11,1,2,10)           67.1261         -DE/DX =    0.0                 !
 ! D10   D(1,2,5,6)           -172.2251         -DE/DX =    0.0                 !
 ! D11   D(1,2,5,7)            -37.4583         -DE/DX =    0.0                 !
 ! D12   D(1,2,5,8)             74.4624         -DE/DX =    0.0                 !
 ! D13   D(4,2,5,6)             66.1908         -DE/DX =    0.0                 !
 ! D14   D(4,2,5,7)           -159.0425         -DE/DX =    0.0                 !
 ! D15   D(4,2,5,8)            -47.1218         -DE/DX =    0.0                 !
 ! D16   D(10,2,5,6)           -50.8393         -DE/DX =    0.0                 !
 ! D17   D(10,2,5,7)            83.9274         -DE/DX =    0.0                 !
 ! D18   D(10,2,5,8)          -164.1519         -DE/DX =    0.0                 !
 ! D19   D(2,5,8,12)            87.5169         -DE/DX =    0.0                 !
 ! D20   D(6,5,8,12)           -23.0527         -DE/DX =    0.0                 !
 ! D21   D(7,5,8,12)          -159.4874         -DE/DX =    0.0                 !
 --------------------------------------------------------------------------------
 GradGradGradGradGradGradGradGradGradGradGradGradGradGradGradGradGradGrad

 Leave Link  103 at Fri May 23 04:11:34 2025, MaxMem=  3758096384 cpu:               0.1 elap:               0.0
 (Enter /apps/easybuild-2022/easybuild/software/Compiler/NVHPC/22.11-CUDA-11.7.0/Gaussian/g16c01-CUDA-11.7.0/g16/l9999.exe)

 ----------------------------------------------------------------------

 Electric dipole moment (input orientation):
 (Debye = 10**-18 statcoulomb cm , SI units = C m)
                  (au)            (Debye)         (10**-30 SI)
   Tot        0.107571D+01      0.273418D+01      0.912023D+01
   x         -0.289098D+00     -0.734814D+00     -0.245108D+01
   y          0.813044D+00      0.206655D+01      0.689327D+01
   z         -0.642284D+00     -0.163252D+01     -0.544551D+01

 Dipole polarizability, Alpha (input orientation).
 (esu units = cm**3 , SI units = C**2 m**2 J**-1)
 Alpha(0;0):
               (au)            (10**-24 esu)      (10**-40 SI)
   iso        0.557501D+02      0.826131D+01      0.919194D+01
   aniso      0.629330D+01      0.932571D+00      0.103763D+01
   xx         0.592294D+02      0.877689D+01      0.976560D+01
   yx         0.129468D+01      0.191851D+00      0.213463D+00
   yy         0.555315D+02      0.822892D+01      0.915591D+01
   zx        -0.232186D+00     -0.344064D-01     -0.382823D-01
   zy        -0.280838D+00     -0.416159D-01     -0.463039D-01
   zz         0.524893D+02      0.777811D+01      0.865432D+01

 ----------------------------------------------------------------------

 Dipole orientation:
     6         -2.40194156          1.39967427          0.08076668
     6         -0.71226594         -0.98614138          0.38484098
     9         -1.35296795          3.37036645          1.22543468
     9         -0.68503527         -1.67281672          2.82169501
    16          2.66500202         -0.59997128         -0.62690543
     8          3.75003310         -3.08367103         -0.51464500
     8          2.72508762          0.97200549         -2.81924945
     8          3.72266647          1.05075193          1.67825610
     9         -2.75082581          1.92547884         -2.33751078
     9         -1.67907059         -2.85498834         -0.99449893
     9         -4.63478964          0.94196468          1.14379545
     1          4.29192217         -0.03703812          3.02981636

 Electric dipole moment (dipole orientation):
 (Debye = 10**-18 statcoulomb cm , SI units = C m)
                  (au)            (Debye)         (10**-30 SI)
   Tot        0.107571D+01      0.273418D+01      0.912023D+01
   x          0.000000D+00      0.000000D+00      0.000000D+00
   y          0.000000D+00      0.000000D+00      0.000000D+00
   z          0.107571D+01      0.273418D+01      0.912023D+01

 Dipole polarizability, Alpha (dipole orientation).
 (esu units = cm**3 , SI units = C**2 m**2 J**-1)
 Alpha(0;0):
               (au)            (10**-24 esu)      (10**-40 SI)
   iso        0.557501D+02      0.826131D+01      0.919194D+01
   aniso      0.629330D+01      0.932571D+00      0.103763D+01
   xx         0.591355D+02      0.876298D+01      0.975013D+01
   yx        -0.174379D+01     -0.258402D+00     -0.287512D+00
   yy         0.537476D+02      0.796458D+01      0.886179D+01
   zx        -0.353025D+00     -0.523129D-01     -0.582059D-01
   zy        -0.115956D+01     -0.171829D+00     -0.191185D+00
   zz         0.543670D+02      0.805636D+01      0.896391D+01

 ----------------------------------------------------------------------
 Unable to Open any file for archive entry.
 1\1\GINC-SPARTAN-BM178\Freq\RwB97XD\6-311++G(d,p)\C2H1F5O3S1\AKHALILOV
 \23-May-2025\0\\#P Geom=AllCheck Guess=TCheck SCRF=Check GenChk RwB97X
 D/6-311++G(d,p) Freq\\Gaussian input prepared by ASE\\0,1\C,-1.3192608
 404,-0.6050978564,-0.2437410506\C,-0.3482281321,0.4411664203,0.3741227
 499\F,-1.084700156,-0.7464957292,-1.5427999855\F,-0.6348161376,1.65104
 94423,-0.1250559909\S,1.4760174993,0.1325536217,0.0590355671\O,2.17542
 36701,1.0946739661,0.8626461209\O,1.71236317,-1.2745652806,0.114451984
 7\O,1.5714624225,0.5646516394,-1.4799542939\F,-1.1870013596,-1.7745208
 36,0.3596554212\F,-0.5147536052,0.4596178304,1.694908652\F,-2.56777195
 06,-0.1746333454,-0.0790001175\H,1.7400744198,1.5132731274,-1.55287605
 76\\Version=ES64L-G16RevC.01\HF=-1199.8259857\RMSD=3.194e-09\RMSF=1.97
 0e-06\ZeroPoint=0.0518668\Thermal=0.0622846\ETot=-1199.7637011\HTot=-1
 199.7627569\GTot=-1199.8109059\Dipole=-0.2890982,0.813044,-0.6422838\D
 ipoleDeriv=1.7131186,-0.1259765,-0.1056049,0.1494501,1.4988111,-0.1148
 313,0.0742353,-0.0718828,1.5721294,0.7643602,-0.1755731,-0.1152132,-0.
 3695089,0.9196895,-0.1200004,-0.2718304,-0.1501539,1.135649,-0.3542675
 ,-0.0365123,0.0293153,-0.0419568,-0.301815,-0.1201597,0.0702702,-0.067
 7326,-0.8699819,-0.4330716,0.1689446,-0.0419106,0.2582041,-0.8163743,0
 .2150794,-0.0664228,0.1554985,-0.3157443,1.9152703,0.154961,0.1279924,
 0.0667427,2.1831886,-0.0524463,-0.0030878,-0.0956095,2.1423296,-0.8895
 234,-0.1892172,-0.1807774,-0.3009886,-0.7951688,-0.2476188,-0.2035095,
 -0.1327236,-0.7232261,-0.6864652,0.1142594,-0.001641,0.2305265,-1.0443
 21,0.0263109,0.0057971,-0.0343856,-0.4916255,-0.6173149,-0.0455553,0.1
 125626,-0.0895117,-0.5751312,0.3928468,0.2406901,0.2977514,-1.1837416,
 -0.3320548,-0.0444771,-0.01416,-0.0262795,-0.7895455,0.2649133,-0.0437
 743,0.2004074,-0.3886519,-0.3589677,-0.0039913,0.1501609,0.0116955,-0.
 2445452,-0.0832893,0.2284692,0.0031154,-0.9018037,-1.0837935,0.1547327
 ,0.0747874,0.0792137,-0.3565823,-0.0351872,-0.0000751,-0.038831,-0.288
 7023,0.3627095,0.0284052,-0.0355116,0.0324128,0.3217942,-0.1256174,-0.
 030762,-0.0654538,0.3133694\Polar=59.2293563,1.2946753,55.5315333,-0.2
 32186,-0.2808379,52.4892983\PG=Unknown\NImag=0\\0.55586963,0.01768413,
 0.57688590,0.01044798,-0.00006483,0.56708940,-0.11182061,-0.03959129,-
 0.02060445,0.43631691,-0.07094042,-0.10284643,-0.03747783,0.00923272,0
 .52989495,-0.04058534,-0.03972456,-0.06165276,0.00831839,0.01588013,0.
 52889420,-0.08038356,-0.00150234,0.01603158,0.00934145,0.00034625,-0.0
 1418079,0.08942008,-0.00208319,-0.08730869,-0.04094465,0.00517587,0.00
 460416,-0.02213033,-0.01089260,0.08037820,0.01072749,-0.04536147,-0.28
 403714,0.01163214,0.00366437,-0.03653833,-0.06136432,0.03459229,0.4096
 9111,0.00381414,-0.01203702,0.00446648,-0.08481847,0.05428623,-0.01855
 462,0.00017143,-0.00060476,-0.00132572,0.08069428,0.02203321,-0.041915
 63,0.02480607,0.03948792,-0.26907881,0.04947630,-0.00209706,0.00150661
 ,-0.00561261,-0.06502184,0.34212475,0.00179324,0.00006681,0.00165573,-
 0.01429085,0.05737215,-0.08257132,0.00029343,-0.00028481,0.00403543,0.
 02451404,-0.11115468,0.11894136,-0.02557483,-0.01772945,-0.00717345,-0
 .14580355,0.02664175,0.02093558,0.00174991,0.00253674,0.00414297,-0.00
 161798,-0.00222188,-0.00015703,0.56769285,-0.02081026,0.03106864,0.004
 65348,-0.00795031,-0.04421423,-0.01024126,0.00202174,-0.00456906,-0.00
 102551,0.03510343,-0.03280052,0.00629674,0.08129520,1.17375974,-0.0091
 1006,0.00870974,0.02697957,0.00836175,-0.01802955,-0.03216483,0.003671
 73,-0.00066494,-0.01027042,-0.01138167,0.01565791,-0.00496524,0.117560
 67,0.13543999,0.62966711,0.00057788,0.01233609,0.00742563,-0.00266533,
 -0.03093748,-0.02415774,0.00013207,-0.00117298,-0.00217775,-0.00164995
 ,0.00499774,-0.00073182,-0.23004488,-0.19105778,-0.15585050,0.20857064
 ,0.00301417,-0.00062218,0.00114793,0.00718871,-0.00813837,-0.00914336,
 -0.00049663,0.00039136,-0.00003551,-0.00356074,0.00909596,-0.00106050,
 -0.18426765,-0.33999795,-0.20408074,0.20361580,0.33691504,0.00140387,0
 .00135019,-0.00198224,0.00437762,-0.00778724,-0.00633576,-0.00067312,-
 0.00012818,0.00134945,0.00005000,0.00040265,0.00153854,-0.15246605,-0.
 20839855,-0.25593533,0.17602982,0.23329329,0.26385954,0.00546724,0.000
 21360,0.00336643,0.01750976,0.01588705,-0.00687328,-0.00114607,-0.0000
 6973,-0.00186481,-0.01005322,0.00922598,-0.00137192,-0.11244051,0.1101
 8643,-0.00238014,0.02000926,-0.02252252,-0.00502341,0.07688454,0.00283
 701,-0.01437624,-0.00202186,-0.01673176,-0.00535529,0.00999670,-0.0002
 4015,0.00233249,0.00097985,0.00706423,-0.00318208,0.00088317,0.1009876
 7,-0.65658351,0.01213458,0.00964395,-0.01304242,0.00705007,-0.10922542
 ,0.69528606,0.00146603,-0.00128145,-0.00556765,0.00024402,0.00068384,0
 .00561463,-0.00137439,0.00061628,0.00193581,0.00125066,-0.00161883,0.0
 0104698,-0.00173800,0.00911365,-0.07876963,-0.00064542,-0.02316590,0.0
 1223467,0.00769539,-0.02631543,0.06408580,0.00209581,0.00414890,-0.001
 63331,0.00825011,-0.00593611,0.01209075,-0.00271650,-0.00219458,0.0004
 8339,-0.00139670,-0.00024371,0.00271547,-0.06777652,-0.01142773,0.0202
 5099,0.01412094,0.00162480,-0.02043314,0.01158562,-0.00006114,-0.00266
 039,0.06432025,0.00264767,-0.00202602,0.00164453,0.00986764,-0.0029600
 7,0.00575110,-0.00174817,-0.00007773,-0.00100158,-0.00268136,0.0072663
 7,-0.00448998,-0.01162401,-0.10077957,0.05260678,-0.00261978,0.0132493
 6,-0.02125883,-0.00204227,-0.01915760,0.04104534,0.10408962,0.60148454
 ,-0.00065772,-0.00479073,-0.01049078,-0.01364576,0.01747758,-0.0106942
 2,-0.00065172,0.00061436,0.00567427,0.00246174,-0.00660082,0.00442420,
 0.01374150,0.01883674,-0.22387837,-0.00170917,0.00446021,-0.02826104,0
 .00169290,0.00246886,-0.00037508,-0.02028073,-0.07895867,0.29929604,-0
 .07990332,-0.00038972,-0.00615631,0.00940037,-0.01303315,0.00916989,0.
 01275574,-0.00289568,0.00401775,-0.00166843,-0.00691848,-0.00081902,0.
 00081495,0.00485801,-0.00053552,-0.00008093,-0.00095640,-0.00019650,-0
 .00383563,-0.00271333,0.00077373,-0.00003581,-0.00076216,0.00063426,0.
 08278354,-0.00499449,-0.27269274,0.07471610,0.00681494,-0.03394893,0.0
 2726054,-0.00221050,-0.00016154,0.03613587,-0.00639078,-0.01025492,-0.
 00230438,0.00642562,-0.00983518,-0.00041987,-0.00328903,0.00076841,-0.
 00060340,-0.00107739,0.00602373,-0.00004491,-0.00173410,0.00113405,0.0
 0013245,-0.03668271,0.35508893,-0.00249871,0.08120542,-0.11019331,-0.0
 0201269,0.00130347,-0.00053825,0.00394738,0.05410438,-0.05937173,0.000
 45531,-0.00196677,0.00114642,-0.00049243,0.00266901,-0.00349350,0.0001
 8972,-0.00017151,0.00061462,-0.00044042,-0.00127713,0.00133141,0.00068
 400,-0.00065800,0.00145427,0.01332246,-0.14484914,0.15296110,0.0052785
 1,-0.00094610,-0.01693885,-0.07906852,0.00092830,0.04106642,-0.0015848
 7,-0.00360229,-0.00626024,0.01211838,0.00081582,-0.00978463,0.00280945
 ,0.00063499,0.03112890,-0.00033820,0.00025661,-0.00090527,-0.00383087,
 0.00475165,-0.00228460,-0.00669678,-0.00298478,0.00642757,0.00013259,-
 0.00047760,-0.00020810,0.06787374,0.00881810,0.00236367,-0.02184324,0.
 00248544,-0.07401731,-0.02691397,-0.00350496,-0.00369706,-0.00625615,-
 0.00328058,-0.00546257,0.05544775,-0.00375945,0.00128886,-0.00618622,0
 .00109785,0.00148861,0.00220947,-0.00016806,0.00154481,0.00062306,0.00
 112524,0.00102092,-0.00091879,-0.00081838,0.00177184,-0.00232565,-0.00
 037449,0.07344724,0.01482260,0.00404490,-0.04538058,0.02954450,-0.0354
 5081,-0.30547255,-0.00533211,-0.00648636,-0.00589067,-0.00280411,0.039
 54779,-0.04648903,-0.00545408,0.00050535,-0.03387968,0.00370588,0.0037
 6881,0.00900135,0.00582927,-0.00741667,0.00345462,0.00777184,0.0012363
 0,-0.00421346,-0.00164490,-0.00371016,0.00554186,-0.04196600,0.0052401
 9,0.41897752,-0.27533493,0.03831433,0.01033380,-0.05759350,0.01786275,
 0.00860716,-0.02742366,0.01571762,0.04230781,0.00454516,-0.00284941,-0
 .00010691,0.00927643,-0.00416600,-0.00501497,-0.00576337,-0.00211283,-
 0.00131018,-0.00184724,0.00144875,0.00037204,-0.00155290,-0.00112343,0
 .00318513,-0.02040274,0.04306075,-0.01276264,0.00394675,-0.00207145,-0
 .00390761,0.37216962,0.04284547,-0.08773356,-0.00441694,-0.01390586,0.
 00298408,0.00096332,0.01995870,0.00638907,-0.01616866,-0.00365949,0.00
 427316,-0.00096824,0.00206548,-0.00556679,-0.00254866,-0.00186508,0.00
 044955,0.00008576,-0.00000538,0.00253480,0.00037768,-0.00038424,0.0004
 9944,0.00096449,0.06014683,-0.03803684,0.01197915,-0.00040537,0.000747
 61,-0.00012862,-0.10487702,0.11343044,0.01166005,-0.00480518,-0.076550
 40,-0.01154553,0.00192263,0.00383588,0.06002891,-0.01914981,-0.0265193
 4,0.00048067,-0.00158931,0.00092672,0.00148976,-0.00203323,-0.00394957
 ,-0.00141924,-0.00007780,0.00038897,-0.00033274,0.00072068,0.00071874,
 0.00004285,-0.00011814,0.00167246,-0.01850801,0.01403429,0.01051749,-0
 .00061893,0.00107221,0.00438820,-0.04117126,0.00996038,0.08462763,-0.0
 0008596,-0.00050113,0.00043447,0.00095138,-0.00433790,0.00416361,-0.00
 031603,0.00008559,-0.00031871,-0.00013866,0.00279170,-0.00205401,0.000
 91468,0.00131226,0.00329881,-0.00286814,-0.00178332,-0.00085364,0.0016
 9713,0.00223855,-0.00309906,-0.02019753,-0.09101898,0.00880200,0.00003
 967,0.00055529,-0.00018387,-0.00064018,0.00045074,-0.00056529,-0.00001
 964,0.00008597,-0.00010652,0.02066328,-0.00105141,-0.00079672,-0.00019
 874,-0.00207403,0.00307622,-0.00117462,0.00036571,0.00021219,0.0000891
 0,0.00078268,-0.00157234,0.00019599,-0.00035002,-0.01177042,0.00738097
 ,-0.00074929,-0.00055736,-0.00621523,-0.00040228,0.00397526,-0.0000333
 4,-0.08900696,-0.49965370,0.04631431,0.00016518,0.00014320,-0.00001323
 ,0.00140325,-0.00049664,-0.00115073,0.00079594,0.00002904,0.00006329,0
 .09012123,0.50741126,0.00053059,0.00065115,0.00013016,-0.00037914,0.00
 044124,-0.00237669,-0.00039658,-0.00013822,-0.00005845,0.00038723,-0.0
 0134769,0.00031020,0.00961056,0.04418359,-0.00934012,-0.00065941,-0.00
 493492,0.00352723,-0.00029727,0.00279718,-0.00571030,0.00096828,0.0042
 0115,-0.03460829,-0.00005783,-0.00034740,0.00002963,0.00034373,-0.0001
 4865,-0.00003757,-0.00053237,-0.00009966,-0.00005678,-0.00951780,-0.04
 525776,0.04819096\\-0.00000072,-0.00000025,-0.00000192,0.00000124,0.00
 000325,0.00000062,0.00000217,-0.00000557,0.00000178,-0.00000111,-0.000
 00024,-0.00000214,-0.00000176,0.00000126,0.00000110,-0.00000152,0.0000
 0348,-0.00000175,0.00000024,0.00000146,0.00000383,0.00000118,-0.000001
 01,-0.00000083,0.00000277,-0.00000113,0.00000220,-0.00000116,0.0000024
 4,-0.00000166,-0.00000052,-0.00000276,-0.00000001,-0.00000080,-0.00000
 094,-0.00000122\\\@
 The archive entry for this job was punched.


 A COMPLEXITY IS MERELY A DISARRANGEMENT OF SIMPLICITIES.

                                    -- G. O. ABELL IN "EXPLORATION OF THE UNIVERSE"
 Job cpu time:       0 days  0 hours 10 minutes 48.1 seconds.
 Elapsed time:       0 days  0 hours  1 minutes 26.4 seconds.
 File lengths (MBytes):  RWF=     99 Int=      0 D2E=      0 Chk=      6 Scr=      1
 Normal termination of Gaussian 16 at Fri May 23 04:11:34 2025.
done
