 Entering Gaussian System, Link 0=g16
 Initial command:
 /apps/easybuild-2022/easybuild/software/Compiler/NVHPC/22.11-CUDA-11.7.0/Gaussian/g16c01-CUDA-11.7.0/g16/l1.exe "/tmp/Gau-18550.inp" -scrdir="/tmp/"
 Entering Link 1 = /apps/easybuild-2022/easybuild/software/Compiler/NVHPC/22.11-CUDA-11.7.0/Gaussian/g16c01-CUDA-11.7.0/g16/l1.exe PID=     18551.
  
 Copyright (c) 1988-2019, Gaussian, Inc.  All Rights Reserved.
  
 This is part of the Gaussian(R) 16 program.  It is based on
 the Gaussian(R) 09 system (copyright 2009, Gaussian, Inc.),
 the Gaussian(R) 03 system (copyright 2003, Gaussian, Inc.),
 the Gaussian(R) 98 system (copyright 1998, Gaussian, Inc.),
 the Gaussian(R) 94 system (copyright 1995, Gaussian, Inc.),
 the Gaussian 92(TM) system (copyright 1992, Gaussian, Inc.),
 the Gaussian 90(TM) system (copyright 1990, Gaussian, Inc.),
 the Gaussian 88(TM) system (copyright 1988, Gaussian, Inc.),
 the Gaussian 86(TM) system (copyright 1986, Carnegie Mellon
 University), and the Gaussian 82(TM) system (copyright 1983,
 Carnegie Mellon University). Gaussian is a federally registered
 trademark of Gaussian, Inc.
  
 This software contains proprietary and confidential information,
 including trade secrets, belonging to Gaussian, Inc.
  
 This software is provided under written license and may be
 used, copied, transmitted, or stored only in accord with that
 written license.
  
 The following legend is applicable only to US Government
 contracts under FAR:
  
                    RESTRICTED RIGHTS LEGEND
  
 Use, reproduction and disclosure by the US Government is
 subject to restrictions as set forth in subparagraphs (a)
 and (c) of the Commercial Computer Software - Restricted
 Rights clause in FAR 52.227-19.
  
 Gaussian, Inc.
 340 Quinnipiac St., Bldg. 40, Wallingford CT 06492
  
  
 ---------------------------------------------------------------
 Warning -- This program may not be used in any manner that
 competes with the business of Gaussian, Inc. or will provide
 assistance to any competitor of Gaussian, Inc.  The licensee
 of this program is prohibited from giving any competitor of
 Gaussian, Inc. access to this program.  By using this program,
 the user acknowledges that Gaussian, Inc. is engaged in the
 business of creating and licensing software in the field of
 computational chemistry and represents and warrants to the
 licensee that it is not a competitor of Gaussian, Inc. and that
 it will not use this program in any manner prohibited above.
 ---------------------------------------------------------------
  

 Cite this work as:
 Gaussian 16, Revision C.01,
 M. J. Frisch, G. W. Trucks, H. B. Schlegel, G. E. Scuseria, 
 M. A. Robb, J. R. Cheeseman, G. Scalmani, V. Barone, 
 G. A. Petersson, H. Nakatsuji, X. Li, M. Caricato, A. V. Marenich, 
 J. Bloino, B. G. Janesko, R. Gomperts, B. Mennucci, H. P. Hratchian, 
 J. V. Ortiz, A. F. Izmaylov, J. L. Sonnenberg, D. Williams-Young, 
 F. Ding, F. Lipparini, F. Egidi, J. Goings, B. Peng, A. Petrone, 
 T. Henderson, D. Ranasinghe, V. G. Zakrzewski, J. Gao, N. Rega, 
 G. Zheng, W. Liang, M. Hada, M. Ehara, K. Toyota, R. Fukuda, 
 J. Hasegawa, M. Ishida, T. Nakajima, Y. Honda, O. Kitao, H. Nakai, 
 T. Vreven, K. Throssell, J. A. Montgomery, Jr., J. E. Peralta, 
 F. Ogliaro, M. J. Bearpark, J. J. Heyd, E. N. Brothers, K. N. Kudin, 
 V. N. Staroverov, T. A. Keith, R. Kobayashi, J. Normand, 
 K. Raghavachari, A. P. Rendell, J. C. Burant, S. S. Iyengar, 
 J. Tomasi, M. Cossi, J. M. Millam, M. Klene, C. Adamo, R. Cammi, 
 J. W. Ochterski, R. L. Martin, K. Morokuma, O. Farkas, 
 J. B. Foresman, and D. J. Fox, Gaussian, Inc., Wallingford CT, 2019.
 
 ******************************************
 Gaussian 16:  ES64L-G16RevC.01  3-Jul-2019
                23-May-2025 
 ******************************************
 %mem=28GB
 %chk=2003846667223680600001_r13_insertion_ROR_3_2_5_8_IRC_F
 %nprocshared=8
 Will use up to    8 processors via shared memory.
 ----------------------------------------------------------------------
 #P wb97xd/6-311++G(d,p) Symm(None) scf(xqc) pop(None) geom(AllCheck,No
 KeepConstants) guess(Read) irc(RCFC,forward,MaxPoints=100,StepSize=2)
 ----------------------------------------------------------------------
 1/10=5,18=10,22=1,26=3,29=20007,38=1,39=2,42=100,44=3,172=1/1,23;
 2/12=2,15=3,29=1,40=1/2;
 3/5=4,6=6,7=1111,11=2,14=-4,25=1,30=1,71=2,74=-58,116=-2,140=1/1,2,3;
 4/5=1/1;
 5/5=2,8=3,13=1,38=6/2,8;
 8/6=4,10=90,11=11/1;
 11/6=1,8=1,9=11,15=111,16=1,31=1/1,2,10;
 10/6=1,13=1,31=1/2;
 7/10=1,25=1,30=1/1,2,3,16;
 1/18=10,22=1,26=3,39=2,42=100,44=3/23(2);
 2/15=3,29=1/2;
 99/5=20/99;
 2/15=3,29=1/2;
 3/5=4,6=6,7=1111,11=2,14=-2,25=1,30=1,71=2,74=-58,140=1/1,2,3;
 4/5=5,16=3,69=1/1;
 5/5=2,8=3,13=1,38=5/2,8;
 8/6=4,10=90,11=11/1;
 11/6=1,8=1,9=11,15=111,16=1,31=1/1,2,10;
 10/6=1,13=1,31=1/2;
 7/10=1,25=1,30=1/1,2,3,16;
 1/18=10,22=1,26=3,39=2,42=100,44=3/23(-8);
 2/15=3,29=1/2;
 99/5=20,9=1/99;
 Leave Link    1 at Fri May 23 04:48:23 2025, MaxMem=  3758096384 cpu:               0.0 elap:               0.1
 (Enter /apps/easybuild-2022/easybuild/software/Compiler/NVHPC/22.11-CUDA-11.7.0/Gaussian/g16c01-CUDA-11.7.0/g16/l101.exe)
 Structure from the checkpoint file:  "2003846667223680600001_r13_insertion_ROR_3_2_5_8_IRC_F.chk"
 ------------------------------
 Gaussian input prepared by ASE
 ------------------------------
 Charge =  0 Multiplicity = 1
 Redundant internal coordinates found in file.  (old form).
 C,0,2.0492598874,-0.8445484906,-1.2017271993
 C,0,2.2349992192,0.0926014052,-0.0300677978
 F,0,-1.0238147309,2.1471743718,0.6786641624
 F,0,2.7268165623,-0.4557276944,1.064447352
 S,0,2.1304743628,1.7643487099,-0.0570585243
 O,0,2.6048860222,2.3784311685,1.1403441144
 O,0,1.9820166876,2.3797332726,-1.3290362351
 O,0,0.3695675337,1.1827247408,0.2938052544
 F,0,3.2414352744,-1.2245954634,-1.676620124
 F,0,1.4093380837,-1.9377649048,-0.7895798479
 F,0,1.363438808,-0.2769842353,-2.1778242478
 H,0,0.3149702897,0.9261131197,1.2317840929
 Recover connectivity data from disk.
 ITRead=  0  0  0  0  0  0  0  0  0  0  0  0
 MicOpt= -1 -1 -1 -1 -1 -1 -1 -1 -1 -1 -1 -1
 NAtoms=     12 NQM=       12 NQMF=       0 NMMI=      0 NMMIF=      0
                NMic=       0 NMicF=      0.
                    Isotopes and Nuclear Properties:
 (Nuclear quadrupole moments (NQMom) in fm**2, nuclear magnetic moments (NMagM)
  in nuclear magnetons)

  Atom         1           2           3           4           5           6           7           8           9          10
 IAtWgt=          12          12          19          19          32          16          16          16          19          19
 AtmWgt=  12.0000000  12.0000000  18.9984032  18.9984032  31.9720718  15.9949146  15.9949146  15.9949146  18.9984032  18.9984032
 NucSpn=           0           0           1           1           0           0           0           0           1           1
 AtZEff=   3.6000000   3.6000000   6.7500000   6.7500000  13.6000000   5.6000000   5.6000000   5.6000000   6.7500000   6.7500000
 NQMom=    0.0000000   0.0000000   0.0000000   0.0000000   0.0000000   0.0000000   0.0000000   0.0000000   0.0000000   0.0000000
 NMagM=    0.0000000   0.0000000   2.6288670   2.6288670   0.0000000   0.0000000   0.0000000   0.0000000   2.6288670   2.6288670
 AtZNuc=   6.0000000   6.0000000   9.0000000   9.0000000  16.0000000   8.0000000   8.0000000   8.0000000   9.0000000   9.0000000

  Atom        11          12
 IAtWgt=          19           1
 AtmWgt=  18.9984032   1.0078250
 NucSpn=           1           1
 AtZEff=   6.7500000   1.0000000
 NQMom=    0.0000000   0.0000000
 NMagM=    2.6288670   2.7928460
 AtZNuc=   9.0000000   1.0000000
 Leave Link  101 at Fri May 23 04:48:23 2025, MaxMem=  3758096384 cpu:               0.2 elap:               0.2
 (Enter /apps/easybuild-2022/easybuild/software/Compiler/NVHPC/22.11-CUDA-11.7.0/Gaussian/g16c01-CUDA-11.7.0/g16/l123.exe)
 IRC-IRC-IRC-IRC-IRC-IRC-IRC-IRC-IRC-IRC-IRC-IRC-IRC-IRC-IRC-IRC-IRC-IRC
 ------------------------------------------------------------------------
 INPUT DATA FOR L123
 ------------------------------------------------------------------------
 GENERAL PARAMETERS:
 Rxn path following direction = Forward
 Maximum points per path      = 100
 Step size                    =   0.020 bohr
 Integration scheme           = HPC                                 
    Redo corrector integration= Yes                                 
    DWI Weight Power          =  2
    DWI will use Hessian update vectors when possible.
    Max correction cycles     =  20
 Initial Hessian              = ReadFC from chk
 Hessian evaluation           = All updating
 Hessian updating method      = Bofill                              
 ------------------------------------------------------------------------
          ******** Start new reaction path calculation ********
 RCFC Option Requested - Data Read From Chk File:
 "2003846667223680600001_r13_insertion_ROR_3_2_5_8_IRC_F.chk"
   Energy From Chk =  -1199.5981829

 Current Structure is TS -> form Hessian eigenvectors.
                            Recovering Hessian eigenvectors from chk file.
 Supplied step size of   0.0200 bohr.
    Integration on MW PES will use step size of   0.0616 sqrt(amu)*bohr.
 Point Number:   0          Path Number:   1
 Calculating another point on the path.
 Point Number  1 in FORWARD path direction.
 Using LQA Reaction Path Following.
 IRC-IRC-IRC-IRC-IRC-IRC-IRC-IRC-IRC-IRC-IRC-IRC-IRC-IRC-IRC-IRC-IRC-IRC
 Leave Link  123 at Fri May 23 04:48:23 2025, MaxMem=  3758096384 cpu:               0.0 elap:               0.0
 (Enter /apps/easybuild-2022/easybuild/software/Compiler/NVHPC/22.11-CUDA-11.7.0/Gaussian/g16c01-CUDA-11.7.0/g16/l202.exe)
                          Input orientation:                          
 ---------------------------------------------------------------------
 Center     Atomic      Atomic             Coordinates (Angstroms)
 Number     Number       Type             X           Y           Z
 ---------------------------------------------------------------------
      1          6           0        0.320527   -1.394883   -0.857502
      2          6           0        0.506624   -0.457562    0.313491
      3          9           0       -2.751699    1.595075    1.021888
      4          9           0        0.997892   -1.006521    1.408824
      5         16           0        0.403562    1.212637    0.286447
      6          8           0        0.875527    1.827719    1.484512
      7          8           0        0.252162    1.829098   -0.984891
      8          8           0       -1.365298    0.634503    0.639928
      9          9           0        1.512396   -1.775608   -1.332825
     10          9           0       -0.319610   -2.488298   -0.445420
     11          9           0       -0.365579   -0.827728   -1.833880
     12          1           0       -1.413016    0.367963    1.575466
 ---------------------------------------------------------------------
                    Distance matrix (angstroms):
                    1          2          3          4          5
     1  C    0.000000
     2  C    1.511432   0.000000
     3  F    4.680868   3.915586   0.000000
     4  F    2.397056   1.320021   4.580115   0.000000
     5  S    2.848627   1.673594   3.262332   2.556877   0.000000
     6  O    4.022216   2.594204   3.664003   2.837890   1.427038
     7  O    3.227221   2.641848   3.620098   3.785065   1.421002
     8  O    3.033597   2.191634   1.729364   2.978058   1.894216
     9  F    1.338445   2.336488   5.923570   2.893587   3.575075
    10  F    1.332344   2.320020   4.974131   2.714717   3.841292
    11  F    1.321258   2.347118   4.440604   3.522236   3.041456
    12  H    3.468736   2.441125   1.898506   2.780189   2.382226
                    6          7          8          9         10
     6  O    0.000000
     7  O    2.546868   0.000000
     8  O    2.675516   2.585202   0.000000
     9  F    4.618112   3.834469   4.240461   0.000000
    10  F    4.876576   4.388378   3.467467   2.156771   0.000000
    11  F    4.427581   2.856766   3.042579   2.162480   2.165047
    12  H    2.715988   3.385729   0.973937   4.648773   3.665753
                   11         12
    11  F    0.000000
    12  H    3.761708   0.000000
 Symmetry turned off by external request.
 Stoichiometry    C2HF5O3S
 Rotational constants (GHZ):           1.3350249           0.7012105           0.6452415
 Leave Link  202 at Fri May 23 04:48:23 2025, MaxMem=  3758096384 cpu:               0.0 elap:               0.0
 (Enter /apps/easybuild-2022/easybuild/software/Compiler/NVHPC/22.11-CUDA-11.7.0/Gaussian/g16c01-CUDA-11.7.0/g16/l301.exe)
 Standard basis: 6-311++G(d,p) (5D, 7F)
 Ernie: Thresh=  0.10000D-02 Tol=  0.10000D-05 Strict=F.
   257 basis functions,   419 primitive gaussians,   268 cartesian basis functions
    49 alpha electrons       49 beta electrons
       nuclear repulsion energy       878.0065962600 Hartrees.
 IExCor= 4639 DFT=T Ex+Corr=wB97XD ExCW=0 ScaHFX=  1.000000
 ScaDFX=  1.000000  1.000000  1.000000  1.000000 ScalE2=  1.000000  1.000000
 IRadAn=      5 IRanWt=     -1 IRanGd=            0 ICorTp=0 IEmpDi=121
 HFx  wShort=  0.000000 wLong=  0.200000 cFull=  0.222036 cShort=  0.000000 cLong=  0.777964
 DFx  wShort=  0.000000 wLong=  0.200000 cFull=  0.000000 cShort=  0.000000 cLong=  1.000000
 NAtoms=   12 NActive=   12 NUniq=   12 SFac= 1.00D+00 NAtFMM=   60 NAOKFM=F Big=F
 Integral buffers will be    131072 words long.
 Raffenetti 2 integral format.
 Two-electron integral symmetry is turned off.
 R6Disp:  Grimme-D2 Dispersion energy=       -0.0053168796 Hartrees.
 Nuclear repulsion after empirical dispersion term =      878.0012793804 Hartrees.
 Leave Link  301 at Fri May 23 04:48:23 2025, MaxMem=  3758096384 cpu:               0.0 elap:               0.0
 (Enter /apps/easybuild-2022/easybuild/software/Compiler/NVHPC/22.11-CUDA-11.7.0/Gaussian/g16c01-CUDA-11.7.0/g16/l302.exe)
 NPDir=0 NMtPBC=     1 NCelOv=     1 NCel=       1 NClECP=     1 NCelD=      1
         NCelK=      1 NCelE2=     1 NClLst=     1 CellRange=     0.0.
 One-electron integrals computed using PRISM.
 NBasis=   257 RedAO= T EigKep=  5.87D-05  NBF=   257
 NBsUse=   257 1.00D-06 EigRej= -1.00D+00 NBFU=   257
 Precomputing XC quadrature grid using
 IXCGrd= 4 IRadAn=           5 IRanWt=          -1 IRanGd=           0 AccXCQ= 0.00D+00.
 Generated NRdTot=       0 NPtTot=           0 NUsed=           0 NTot=          32
 NSgBfM=   267   267   267   267   267 MxSgAt=    12 MxSgA2=    12.
 Leave Link  302 at Fri May 23 04:48:23 2025, MaxMem=  3758096384 cpu:               0.5 elap:               0.1
 (Enter /apps/easybuild-2022/easybuild/software/Compiler/NVHPC/22.11-CUDA-11.7.0/Gaussian/g16c01-CUDA-11.7.0/g16/l303.exe)
 DipDrv:  MaxL=1.
 Leave Link  303 at Fri May 23 04:48:23 2025, MaxMem=  3758096384 cpu:               0.1 elap:               0.0
 (Enter /apps/easybuild-2022/easybuild/software/Compiler/NVHPC/22.11-CUDA-11.7.0/Gaussian/g16c01-CUDA-11.7.0/g16/l401.exe)
 Initial guess from the checkpoint file:  "2003846667223680600001_r13_insertion_ROR_3_2_5_8_IRC_F.chk"
 B after Tr=    -3.267440   -1.040973    0.650169
         Rot=    1.000000   -0.000008   -0.000002   -0.000006 Ang=  -0.00 deg.
 Guess basis will be translated and rotated to current coordinates.
 JPrj=2 DoOrth=T DoCkMO=T.
 Leave Link  401 at Fri May 23 04:48:23 2025, MaxMem=  3758096384 cpu:               0.3 elap:               0.2
 (Enter /apps/easybuild-2022/easybuild/software/Compiler/NVHPC/22.11-CUDA-11.7.0/Gaussian/g16c01-CUDA-11.7.0/g16/l502.exe)
 Keep R1 ints in memory in canonical form, NReq=1117474609.
 FoFCou: FMM=F IPFlag=           0 FMFlag=           0 FMFlg1=           0
         NFxFlg=           0 DoJE=F BraDBF=F KetDBF=F FulRan=T
         wScrn=  0.000000 ICntrl=       600 IOpCl=  0 I1Cent=           0 NGrid=           0
         NMat0=    1 NMatS0=  33153 NMatT0=    0 NMatD0=    1 NMtDS0=    0 NMtDT0=    0
 Symmetry not used in FoFCou.
 Two-electron integral symmetry not used.
 Closed shell SCF:
 Using DIIS extrapolation, IDIIS=  1040.
 NGot=  3758096384 LenX=  2658793876 LenY=  2658721611
 Requested convergence on RMS density matrix=1.00D-08 within  32 cycles.
 Requested convergence on MAX density matrix=1.00D-06.
 Requested convergence on             energy=1.00D-06.
 No special actions if energy rises.

 Cycle   1  Pass 1  IDiag  1:
 E= -1199.59809878456    
 DIIS: error= 3.11D-04 at cycle   1 NSaved=   1.
 NSaved= 1 IEnMin= 1 EnMin= -1199.59809878456     IErMin= 1 ErrMin= 3.11D-04
 ErrMax= 3.11D-04  0.00D+00 EMaxC= 1.00D-01 BMatC= 5.11D-05 BMatP= 5.11D-05
 IDIUse=3 WtCom= 9.97D-01 WtEn= 3.11D-03
 Coeff-Com:  0.100D+01
 Coeff-En:   0.100D+01
 Coeff:      0.100D+01
 Gap=     0.256 Goal=   None    Shift=    0.000
 RMSDP=1.23D-04 MaxDP=7.47D-03              OVMax= 6.33D-03

 Cycle   2  Pass 1  IDiag  1:
 E= -1199.59817039826     Delta-E=       -0.000071613696 Rises=F Damp=F
 DIIS: error= 1.98D-04 at cycle   2 NSaved=   2.
 NSaved= 2 IEnMin= 2 EnMin= -1199.59817039826     IErMin= 2 ErrMin= 1.98D-04
 ErrMax= 1.98D-04  0.00D+00 EMaxC= 1.00D-01 BMatC= 2.25D-05 BMatP= 5.11D-05
 IDIUse=3 WtCom= 9.98D-01 WtEn= 1.98D-03
 Coeff-Com:  0.284D+00 0.716D+00
 Coeff-En:   0.000D+00 0.100D+01
 Coeff:      0.284D+00 0.716D+00
 Gap=     0.255 Goal=   None    Shift=    0.000
 RMSDP=5.15D-05 MaxDP=2.46D-03 DE=-7.16D-05 OVMax= 3.37D-03

 Cycle   3  Pass 1  IDiag  1:
 E= -1199.59817077247     Delta-E=       -0.000000374216 Rises=F Damp=F
 DIIS: error= 4.07D-04 at cycle   3 NSaved=   3.
 NSaved= 3 IEnMin= 3 EnMin= -1199.59817077247     IErMin= 2 ErrMin= 1.98D-04
 ErrMax= 4.07D-04  0.00D+00 EMaxC= 1.00D-01 BMatC= 2.55D-05 BMatP= 2.25D-05
 IDIUse=3 WtCom= 3.31D-01 WtEn= 6.69D-01
 Coeff-Com: -0.894D-01 0.560D+00 0.530D+00
 Coeff-En:   0.000D+00 0.496D+00 0.504D+00
 Coeff:     -0.296D-01 0.517D+00 0.513D+00
 Gap=     0.256 Goal=   None    Shift=    0.000
 RMSDP=2.43D-05 MaxDP=7.07D-04 DE=-3.74D-07 OVMax= 3.71D-03

 Cycle   4  Pass 1  IDiag  1:
 E= -1199.59819327720     Delta-E=       -0.000022504727 Rises=F Damp=F
 DIIS: error= 9.44D-05 at cycle   4 NSaved=   4.
 NSaved= 4 IEnMin= 4 EnMin= -1199.59819327720     IErMin= 4 ErrMin= 9.44D-05
 ErrMax= 9.44D-05  0.00D+00 EMaxC= 1.00D-01 BMatC= 2.84D-06 BMatP= 2.25D-05
 IDIUse=1 WtCom= 1.00D+00 WtEn= 0.00D+00
 Coeff-Com: -0.792D-01 0.265D+00 0.355D+00 0.459D+00
 Coeff:     -0.792D-01 0.265D+00 0.355D+00 0.459D+00
 Gap=     0.256 Goal=   None    Shift=    0.000
 RMSDP=1.09D-05 MaxDP=5.15D-04 DE=-2.25D-05 OVMax= 4.72D-04

 Cycle   5  Pass 1  IDiag  1:
 E= -1199.59819560073     Delta-E=       -0.000002323530 Rises=F Damp=F
 DIIS: error= 2.75D-05 at cycle   5 NSaved=   5.
 NSaved= 5 IEnMin= 5 EnMin= -1199.59819560073     IErMin= 5 ErrMin= 2.75D-05
 ErrMax= 2.75D-05  0.00D+00 EMaxC= 1.00D-01 BMatC= 2.79D-07 BMatP= 2.84D-06
 IDIUse=1 WtCom= 1.00D+00 WtEn= 0.00D+00
 Coeff-Com:  0.104D-01-0.164D+00-0.563D-01 0.224D+00 0.986D+00
 Coeff:      0.104D-01-0.164D+00-0.563D-01 0.224D+00 0.986D+00
 Gap=     0.256 Goal=   None    Shift=    0.000
 RMSDP=8.46D-06 MaxDP=5.27D-04 DE=-2.32D-06 OVMax= 6.75D-04

 Cycle   6  Pass 1  IDiag  1:
 E= -1199.59819621418     Delta-E=       -0.000000613447 Rises=F Damp=F
 DIIS: error= 1.11D-05 at cycle   6 NSaved=   6.
 NSaved= 6 IEnMin= 6 EnMin= -1199.59819621418     IErMin= 6 ErrMin= 1.11D-05
 ErrMax= 1.11D-05  0.00D+00 EMaxC= 1.00D-01 BMatC= 6.65D-08 BMatP= 2.79D-07
 IDIUse=1 WtCom= 1.00D+00 WtEn= 0.00D+00
 Coeff-Com:  0.122D-01-0.968D-01-0.491D-01 0.302D-02 0.437D+00 0.694D+00
 Coeff:      0.122D-01-0.968D-01-0.491D-01 0.302D-02 0.437D+00 0.694D+00
 Gap=     0.256 Goal=   None    Shift=    0.000
 RMSDP=2.92D-06 MaxDP=1.63D-04 DE=-6.13D-07 OVMax= 1.36D-04

 Cycle   7  Pass 1  IDiag  1:
 E= -1199.59819629802     Delta-E=       -0.000000083838 Rises=F Damp=F
 DIIS: error= 3.71D-06 at cycle   7 NSaved=   7.
 NSaved= 7 IEnMin= 7 EnMin= -1199.59819629802     IErMin= 7 ErrMin= 3.71D-06
 ErrMax= 3.71D-06  0.00D+00 EMaxC= 1.00D-01 BMatC= 1.07D-08 BMatP= 6.65D-08
 IDIUse=1 WtCom= 1.00D+00 WtEn= 0.00D+00
 Coeff-Com:  0.294D-02-0.289D-02-0.374D-02-0.734D-01-0.398D-01 0.341D+00
 Coeff-Com:  0.776D+00
 Coeff:      0.294D-02-0.289D-02-0.374D-02-0.734D-01-0.398D-01 0.341D+00
 Coeff:      0.776D+00
 Gap=     0.256 Goal=   None    Shift=    0.000
 RMSDP=1.37D-06 MaxDP=8.87D-05 DE=-8.38D-08 OVMax= 5.78D-05

 Cycle   8  Pass 1  IDiag  1:
 E= -1199.59819631329     Delta-E=       -0.000000015272 Rises=F Damp=F
 DIIS: error= 1.04D-06 at cycle   8 NSaved=   8.
 NSaved= 8 IEnMin= 8 EnMin= -1199.59819631329     IErMin= 8 ErrMin= 1.04D-06
 ErrMax= 1.04D-06  0.00D+00 EMaxC= 1.00D-01 BMatC= 7.53D-10 BMatP= 1.07D-08
 IDIUse=1 WtCom= 1.00D+00 WtEn= 0.00D+00
 Coeff-Com: -0.354D-03 0.110D-01 0.460D-02-0.281D-01-0.716D-01 0.516D-01
 Coeff-Com:  0.298D+00 0.735D+00
 Coeff:     -0.354D-03 0.110D-01 0.460D-02-0.281D-01-0.716D-01 0.516D-01
 Coeff:      0.298D+00 0.735D+00
 Gap=     0.256 Goal=   None    Shift=    0.000
 RMSDP=3.88D-07 MaxDP=2.47D-05 DE=-1.53D-08 OVMax= 1.97D-05

 Cycle   9  Pass 1  IDiag  1:
 E= -1199.59819631461     Delta-E=       -0.000000001321 Rises=F Damp=F
 DIIS: error= 6.59D-07 at cycle   9 NSaved=   9.
 NSaved= 9 IEnMin= 9 EnMin= -1199.59819631461     IErMin= 9 ErrMin= 6.59D-07
 ErrMax= 6.59D-07  0.00D+00 EMaxC= 1.00D-01 BMatC= 1.45D-10 BMatP= 7.53D-10
 IDIUse=1 WtCom= 1.00D+00 WtEn= 0.00D+00
 Coeff-Com: -0.642D-03 0.540D-02 0.257D-02 0.507D-03-0.264D-01-0.327D-01
 Coeff-Com:  0.451D-02 0.313D+00 0.734D+00
 Coeff:     -0.642D-03 0.540D-02 0.257D-02 0.507D-03-0.264D-01-0.327D-01
 Coeff:      0.451D-02 0.313D+00 0.734D+00
 Gap=     0.256 Goal=   None    Shift=    0.000
 RMSDP=1.32D-07 MaxDP=6.13D-06 DE=-1.32D-09 OVMax= 9.24D-06

 Cycle  10  Pass 1  IDiag  1:
 E= -1199.59819631479     Delta-E=       -0.000000000186 Rises=F Damp=F
 DIIS: error= 3.11D-07 at cycle  10 NSaved=  10.
 NSaved=10 IEnMin=10 EnMin= -1199.59819631479     IErMin=10 ErrMin= 3.11D-07
 ErrMax= 3.11D-07  0.00D+00 EMaxC= 1.00D-01 BMatC= 2.53D-11 BMatP= 1.45D-10
 IDIUse=1 WtCom= 1.00D+00 WtEn= 0.00D+00
 Coeff-Com: -0.271D-03 0.132D-02 0.687D-03 0.363D-02-0.454D-02-0.215D-01
 Coeff-Com: -0.333D-01 0.517D-01 0.330D+00 0.672D+00
 Coeff:     -0.271D-03 0.132D-02 0.687D-03 0.363D-02-0.454D-02-0.215D-01
 Coeff:     -0.333D-01 0.517D-01 0.330D+00 0.672D+00
 Gap=     0.256 Goal=   None    Shift=    0.000
 RMSDP=6.61D-08 MaxDP=4.82D-06 DE=-1.86D-10 OVMax= 4.52D-06

 Cycle  11  Pass 1  IDiag  1:
 E= -1199.59819631484     Delta-E=       -0.000000000042 Rises=F Damp=F
 DIIS: error= 2.40D-07 at cycle  11 NSaved=  11.
 NSaved=11 IEnMin=11 EnMin= -1199.59819631484     IErMin=11 ErrMin= 2.40D-07
 ErrMax= 2.40D-07  0.00D+00 EMaxC= 1.00D-01 BMatC= 6.42D-12 BMatP= 2.53D-11
 IDIUse=1 WtCom= 1.00D+00 WtEn= 0.00D+00
 Coeff-Com:  0.558D-04-0.928D-03-0.425D-03 0.169D-02 0.534D-02-0.453D-03
 Coeff-Com: -0.177D-01-0.651D-01-0.504D-01 0.332D+00 0.796D+00
 Coeff:      0.558D-04-0.928D-03-0.425D-03 0.169D-02 0.534D-02-0.453D-03
 Coeff:     -0.177D-01-0.651D-01-0.504D-01 0.332D+00 0.796D+00
 Gap=     0.256 Goal=   None    Shift=    0.000
 RMSDP=3.21D-08 MaxDP=1.10D-06 DE=-4.18D-11 OVMax= 3.74D-06

 Cycle  12  Pass 1  IDiag  1:
 E= -1199.59819631489     Delta-E=       -0.000000000054 Rises=F Damp=F
 DIIS: error= 9.02D-08 at cycle  12 NSaved=  12.
 NSaved=12 IEnMin=12 EnMin= -1199.59819631489     IErMin=12 ErrMin= 9.02D-08
 ErrMax= 9.02D-08  0.00D+00 EMaxC= 1.00D-01 BMatC= 9.08D-13 BMatP= 6.42D-12
 IDIUse=1 WtCom= 1.00D+00 WtEn= 0.00D+00
 Coeff-Com:  0.607D-04-0.517D-03-0.242D-03-0.101D-03 0.252D-02 0.387D-02
 Coeff-Com: -0.252D-03-0.305D-01-0.730D-01-0.607D-02 0.257D+00 0.847D+00
 Coeff:      0.607D-04-0.517D-03-0.242D-03-0.101D-03 0.252D-02 0.387D-02
 Coeff:     -0.252D-03-0.305D-01-0.730D-01-0.607D-02 0.257D+00 0.847D+00
 Gap=     0.256 Goal=   None    Shift=    0.000
 RMSDP=1.45D-08 MaxDP=7.00D-07 DE=-5.37D-11 OVMax= 1.91D-06

 Cycle  13  Pass 1  IDiag  1:
 E= -1199.59819631487     Delta-E=        0.000000000017 Rises=F Damp=F
 DIIS: error= 5.41D-08 at cycle  13 NSaved=  13.
 NSaved=13 IEnMin=12 EnMin= -1199.59819631489     IErMin=13 ErrMin= 5.41D-08
 ErrMax= 5.41D-08  0.00D+00 EMaxC= 1.00D-01 BMatC= 2.56D-13 BMatP= 9.08D-13
 IDIUse=1 WtCom= 1.00D+00 WtEn= 0.00D+00
 Coeff-Com:  0.995D-05 0.596D-04 0.194D-04-0.599D-03-0.541D-03 0.188D-02
 Coeff-Com:  0.546D-02 0.655D-02-0.152D-01-0.102D+00-0.134D+00 0.350D+00
 Coeff-Com:  0.887D+00
 Coeff:      0.995D-05 0.596D-04 0.194D-04-0.599D-03-0.541D-03 0.188D-02
 Coeff:      0.546D-02 0.655D-02-0.152D-01-0.102D+00-0.134D+00 0.350D+00
 Coeff:      0.887D+00
 Gap=     0.256 Goal=   None    Shift=    0.000
 RMSDP=6.81D-09 MaxDP=2.06D-07 DE= 1.73D-11 OVMax= 1.23D-06

 SCF Done:  E(RwB97XD) =  -1199.59819631     A.U. after   13 cycles
            NFock= 13  Conv=0.68D-08     -V/T= 2.0020
 KE= 1.197219782211D+03 PE=-4.601969285622D+03 EE= 1.327150027716D+03
 Leave Link  502 at Fri May 23 04:48:35 2025, MaxMem=  3758096384 cpu:              58.0 elap:              11.7
 (Enter /apps/easybuild-2022/easybuild/software/Compiler/NVHPC/22.11-CUDA-11.7.0/Gaussian/g16c01-CUDA-11.7.0/g16/l508.exe)
 QCSCF skips out because SCF is already converged.
 Leave Link  508 at Fri May 23 04:48:35 2025, MaxMem=  3758096384 cpu:               0.0 elap:               0.0
 (Enter /apps/easybuild-2022/easybuild/software/Compiler/NVHPC/22.11-CUDA-11.7.0/Gaussian/g16c01-CUDA-11.7.0/g16/l801.exe)
 DoSCS=F DFT=T ScalE2(SS,OS)=  1.000000  1.000000
 Range of M.O.s used for correlation:     1   257
 NBasis=   257 NAE=    49 NBE=    49 NFC=     0 NFV=     0
 NROrb=    257 NOA=    49 NOB=    49 NVA=   208 NVB=   208

 **** Warning!!: The largest alpha MO coefficient is  0.34256887D+02

 Leave Link  801 at Fri May 23 04:48:35 2025, MaxMem=  3758096384 cpu:               0.0 elap:               0.0
 (Enter /apps/easybuild-2022/easybuild/software/Compiler/NVHPC/22.11-CUDA-11.7.0/Gaussian/g16c01-CUDA-11.7.0/g16/l1101.exe)
 Leave Link 1101 at Fri May 23 04:48:35 2025, MaxMem=  3758096384 cpu:               0.0 elap:               0.0
 (Enter /apps/easybuild-2022/easybuild/software/Compiler/NVHPC/22.11-CUDA-11.7.0/Gaussian/g16c01-CUDA-11.7.0/g16/l1102.exe)
 Symmetrizing basis deriv contribution to polar:
 IMax=3 JMax=2 DiffMx= 0.00D+00
 Leave Link 1102 at Fri May 23 04:48:35 2025, MaxMem=  3758096384 cpu:               0.0 elap:               0.0
 (Enter /apps/easybuild-2022/easybuild/software/Compiler/NVHPC/22.11-CUDA-11.7.0/Gaussian/g16c01-CUDA-11.7.0/g16/l1110.exe)
 Leave Link 1110 at Fri May 23 04:48:35 2025, MaxMem=  3758096384 cpu:               0.0 elap:               0.0
 (Enter /apps/easybuild-2022/easybuild/software/Compiler/NVHPC/22.11-CUDA-11.7.0/Gaussian/g16c01-CUDA-11.7.0/g16/l1002.exe)
 Minotr:  Closed shell wavefunction.
 Leave Link 1002 at Fri May 23 04:48:35 2025, MaxMem=  3758096384 cpu:               0.0 elap:               0.0
 (Enter /apps/easybuild-2022/easybuild/software/Compiler/NVHPC/22.11-CUDA-11.7.0/Gaussian/g16c01-CUDA-11.7.0/g16/l701.exe)
 ... and contract with generalized density number  0.
 Compute integral first derivatives.
 R6Disp: Adding Grimme-D2 dispersion energy 1st derivatives to the gradient.
 Leave Link  701 at Fri May 23 04:48:35 2025, MaxMem=  3758096384 cpu:               0.3 elap:               0.1
 (Enter /apps/easybuild-2022/easybuild/software/Compiler/NVHPC/22.11-CUDA-11.7.0/Gaussian/g16c01-CUDA-11.7.0/g16/l702.exe)
 L702 exits ... SP integral derivatives will be done elsewhere.
 Leave Link  702 at Fri May 23 04:48:36 2025, MaxMem=  3758096384 cpu:               0.0 elap:               0.0
 (Enter /apps/easybuild-2022/easybuild/software/Compiler/NVHPC/22.11-CUDA-11.7.0/Gaussian/g16c01-CUDA-11.7.0/g16/l703.exe)
 Integral derivatives from FoFJK, PRISM(SPDF).
 Compute integral first derivatives, UseDBF=F ICtDFT=           0.
 Calling FoFJK, ICntrl=      2127 FMM=F ISym2X=0 I1Cent= 0 IOpClX= 0 NMat=1 NMatS=1 NMatT=0.
 FoFJK:  IHMeth= 1 ICntrl=    2127 DoSepK=T KAlg= 0 I1Cent=           0 FoldK=F
 IRaf=         1 NMat=       1 IRICut=       1 DoRegI=T DoRafI=F ISym2E= 0 IDoP0=0 IntGTp=1.
 FoFCou: FMM=F IPFlag=           0 FMFlag=      100000 FMFlg1=         800
         NFxFlg=           0 DoJE=F BraDBF=F KetDBF=F FulRan=T
         wScrn=  0.000000 ICntrl=      2527 IOpCl=  0 I1Cent=           0 NGrid=           0
         NMat0=    1 NMatS0=      1 NMatT0=    0 NMatD0=    1 NMtDS0=    0 NMtDT0=    0
 Symmetry not used in FoFCou.
 Leave Link  703 at Fri May 23 04:48:39 2025, MaxMem=  3758096384 cpu:              31.0 elap:               4.0
 (Enter /apps/easybuild-2022/easybuild/software/Compiler/NVHPC/22.11-CUDA-11.7.0/Gaussian/g16c01-CUDA-11.7.0/g16/l716.exe)
 Dipole        = 1.03926155D+00-9.87261182D-01 3.48338997D-01
 Polarizability= 0.00000000D+00 0.00000000D+00 0.00000000D+00
                 0.00000000D+00 0.00000000D+00 0.00000000D+00
 -------------------------------------------------------------------
 Center     Atomic                   Forces (Hartrees/Bohr)
 Number     Number              X              Y              Z
 -------------------------------------------------------------------
      1        6           0.000052588    0.000074208    0.000027627
      2        6           0.000118074    0.000104152   -0.000079569
      3        9           0.000301201   -0.000332039   -0.000201856
      4        9           0.000033967    0.000002792    0.000082638
      5       16           0.000934799   -0.000390263   -0.000247547
      6        8          -0.000065952    0.000021736    0.000023011
      7        8          -0.000171114    0.000037143    0.000017085
      8        8          -0.001244063    0.000528110    0.000506585
      9        9           0.000004170   -0.000054897   -0.000064748
     10        9           0.000028203    0.000067834    0.000030597
     11        9           0.000009662    0.000012358   -0.000026625
     12        1          -0.000001535   -0.000071132   -0.000067198
 -------------------------------------------------------------------
 Cartesian Forces:  Max     0.001244063 RMS     0.000312735
 Leave Link  716 at Fri May 23 04:48:39 2025, MaxMem=  3758096384 cpu:               0.0 elap:               0.0
 (Enter /apps/easybuild-2022/easybuild/software/Compiler/NVHPC/22.11-CUDA-11.7.0/Gaussian/g16c01-CUDA-11.7.0/g16/l123.exe)
 IRC-IRC-IRC-IRC-IRC-IRC-IRC-IRC-IRC-IRC-IRC-IRC-IRC-IRC-IRC-IRC-IRC-IRC
 Pt  1 Step number   1 out of a maximum of  20
 Using modified Bulirsch-Stoer corrector integration.
   Using distance weighted interpolants to fit PES.
 PreDWI: IReCr0= 2 IReCr1= 1 IReCr2= 1 IReCr3= 1
 Modified Bulirsch-Stoer Extrapolation Cycles:
    EPS =    0.000010000000000
    Cycle     1 NS=    48
      PEZero:  N= 2 I= 1 D=  1.60D-04 Err=  3.46D-04
    Cycle     2 NS=    64 Truncation Error =  0.000346144
      PEZero:  N= 3 I= 2 D=  1.60D-04 Err=  2.30D-04
      PEZero:  N= 3 I= 1 D=  3.21D-04 Err=  1.57D-06
    Cycle     3 NS=    96 Truncation Error =  0.000001566
 BS completed in    3 cycles and     208 integration steps.
 Maximum DWI energy   std dev =  0.000000010 at pt    58
 Maximum DWI gradient std dev =  0.082273801 at pt     1
 SUMMARY OF CORRECTOR INTEGRATION:
   Predictor End Point Energy = -1199.598196
   Old End Point Energy       = -1199.598196
   Corrected End Point Energy = -1199.598196
   Predictor End-Start Dist.  =     0.061565
   Old End-Start Dist.        =     0.061565
   New End-Start Dist.        =     0.061560
   New End-Old End Dist.      =     0.000556
 CORRECTOR INTEGRATION CONVERGENCE:
   Recorrection delta-x convergence threshold:    0.010000
   Delta-x Convergence Met
 Point Number:   1          Path Number:   1
                    CURRENT STRUCTURE
                Cartesian Coordinates (Ang):                
 ---------------------------------------------------------------------
 Center     Atomic                     Coordinates (Angstroms)
 Number     Number                        X           Y           Z
 ---------------------------------------------------------------------
      1          6                    0.320526   -1.394885   -0.857500
      2          6                    0.506634   -0.457561    0.313493
      3          9                   -2.751705    1.595076    1.021900
      4          9                    0.997892   -1.006520    1.408825
      5         16                    0.403577    1.212635    0.286439
      6          8                    0.875524    1.827724    1.484508
      7          8                    0.252158    1.829098   -0.984895
      8          8                   -1.365305    0.634496    0.639925
      9          9                    1.512394   -1.775611   -1.332824
     10          9                   -0.319610   -2.488297   -0.445413
     11          9                   -0.365581   -0.827732   -1.833878
     12          1                   -1.413214    0.368126    1.575430
 ---------------------------------------------------------------------
   CHANGE IN THE REACTION COORDINATE =    0.06156
   NET REACTION COORDINATE UP TO THIS POINT =    0.06156
  # OF POINTS ALONG THE PATH =   1
  # OF STEPS =   1

 Calculating another point on the path.
 Point Number  2 in FORWARD path direction.
 Using LQA Reaction Path Following.
   LQA: T_Est iteration completed in    3 iterations.
 IRC-IRC-IRC-IRC-IRC-IRC-IRC-IRC-IRC-IRC-IRC-IRC-IRC-IRC-IRC-IRC-IRC-IRC
 Leave Link  123 at Fri May 23 04:48:40 2025, MaxMem=  3758096384 cpu:               0.1 elap:               0.2
 (Enter /apps/easybuild-2022/easybuild/software/Compiler/NVHPC/22.11-CUDA-11.7.0/Gaussian/g16c01-CUDA-11.7.0/g16/l202.exe)
                          Input orientation:                          
 ---------------------------------------------------------------------
 Center     Atomic      Atomic             Coordinates (Angstroms)
 Number     Number       Type             X           Y           Z
 ---------------------------------------------------------------------
      1          6           0        0.320854   -1.394422   -0.857325
      2          6           0        0.507333   -0.456922    0.313003
      3          9           0       -2.750548    1.593785    1.021095
      4          9           0        0.998029   -1.006510    1.409151
      5         16           0        0.405752    1.211724    0.285877
      6          8           0        0.875221    1.827824    1.484616
      7          8           0        0.251361    1.829265   -0.984812
      8          8           0       -1.371120    0.637064    0.641980
      9          9           0        1.512414   -1.775827   -1.333082
     10          9           0       -0.319497   -2.488027   -0.445296
     11          9           0       -0.365540   -0.827679   -1.833983
     12          1           0       -1.412367    0.360990    1.575026
 ---------------------------------------------------------------------
                    Distance matrix (angstroms):
                    1          2          3          4          5
     1  C    0.000000
     2  C    1.511074   0.000000
     3  F    4.678819   3.914152   0.000000
     4  F    2.397071   1.320746   4.578640   0.000000
     5  S    2.847124   1.671956   3.263242   2.555992   0.000000
     6  O    4.021800   2.593855   3.662762   2.837997   1.427219
     7  O    3.226955   2.641306   3.618090   3.785524   1.421212
     8  O    3.039347   2.198550   1.721007   2.983748   1.901137
     9  F    1.338517   2.336513   5.921932   2.894181   3.573680
    10  F    1.332587   2.320356   4.972072   2.714726   3.840411
    11  F    1.321437   2.347108   4.438831   3.522672   3.041030
    12  H    3.464370   2.438634   1.901934   2.776253   2.385626
                    6          7          8          9         10
     6  O    0.000000
     7  O    2.547014   0.000000
     8  O    2.678431   2.588483   0.000000
     9  F    4.618629   3.835131   4.247079   0.000000
    10  F    4.876318   4.388162   3.471927   2.156685   0.000000
    11  F    4.427672   2.856747   3.047468   2.162544   2.165023
    12  H    2.718977   3.387713   0.973906   4.645151   3.659640
                   11         12
    11  F    0.000000
    12  H    3.759006   0.000000
 Symmetry turned off by external request.
 Stoichiometry    C2HF5O3S
 Rotational constants (GHZ):           1.3343699           0.7012597           0.6451905
 Leave Link  202 at Fri May 23 04:48:40 2025, MaxMem=  3758096384 cpu:               0.0 elap:               0.0
 (Enter /apps/easybuild-2022/easybuild/software/Compiler/NVHPC/22.11-CUDA-11.7.0/Gaussian/g16c01-CUDA-11.7.0/g16/l301.exe)
 Standard basis: 6-311++G(d,p) (5D, 7F)
 Ernie: Thresh=  0.10000D-02 Tol=  0.10000D-05 Strict=F.
   257 basis functions,   419 primitive gaussians,   268 cartesian basis functions
    49 alpha electrons       49 beta electrons
       nuclear repulsion energy       877.8756369451 Hartrees.
 IExCor= 4639 DFT=T Ex+Corr=wB97XD ExCW=0 ScaHFX=  1.000000
 ScaDFX=  1.000000  1.000000  1.000000  1.000000 ScalE2=  1.000000  1.000000
 IRadAn=      5 IRanWt=     -1 IRanGd=            0 ICorTp=0 IEmpDi=121
 HFx  wShort=  0.000000 wLong=  0.200000 cFull=  0.222036 cShort=  0.000000 cLong=  0.777964
 DFx  wShort=  0.000000 wLong=  0.200000 cFull=  0.000000 cShort=  0.000000 cLong=  1.000000
 NAtoms=   12 NActive=   12 NUniq=   12 SFac= 1.00D+00 NAtFMM=   60 NAOKFM=F Big=F
 Integral buffers will be    131072 words long.
 Raffenetti 2 integral format.
 Two-electron integral symmetry is turned off.
 R6Disp:  Grimme-D2 Dispersion energy=       -0.0053209371 Hartrees.
 Nuclear repulsion after empirical dispersion term =      877.8703160081 Hartrees.
 Leave Link  301 at Fri May 23 04:48:40 2025, MaxMem=  3758096384 cpu:               0.0 elap:               0.0
 (Enter /apps/easybuild-2022/easybuild/software/Compiler/NVHPC/22.11-CUDA-11.7.0/Gaussian/g16c01-CUDA-11.7.0/g16/l302.exe)
 NPDir=0 NMtPBC=     1 NCelOv=     1 NCel=       1 NClECP=     1 NCelD=      1
         NCelK=      1 NCelE2=     1 NClLst=     1 CellRange=     0.0.
 One-electron integrals computed using PRISM.
 NBasis=   257 RedAO= T EigKep=  5.85D-05  NBF=   257
 NBsUse=   257 1.00D-06 EigRej= -1.00D+00 NBFU=   257
 Precomputing XC quadrature grid using
 IXCGrd= 4 IRadAn=           5 IRanWt=          -1 IRanGd=           0 AccXCQ= 0.00D+00.
 Generated NRdTot=       0 NPtTot=           0 NUsed=           0 NTot=          32
 NSgBfM=   267   266   266   266   267 MxSgAt=    12 MxSgA2=    12.
 Leave Link  302 at Fri May 23 04:48:40 2025, MaxMem=  3758096384 cpu:               0.5 elap:               0.1
 (Enter /apps/easybuild-2022/easybuild/software/Compiler/NVHPC/22.11-CUDA-11.7.0/Gaussian/g16c01-CUDA-11.7.0/g16/l303.exe)
 DipDrv:  MaxL=1.
 Leave Link  303 at Fri May 23 04:48:40 2025, MaxMem=  3758096384 cpu:               0.1 elap:               0.0
 (Enter /apps/easybuild-2022/easybuild/software/Compiler/NVHPC/22.11-CUDA-11.7.0/Gaussian/g16c01-CUDA-11.7.0/g16/l401.exe)
 Initial guess from the checkpoint file:  "2003846667223680600001_r13_insertion_ROR_3_2_5_8_IRC_F.chk"
 B after Tr=    -0.000007   -0.000055    0.000002
         Rot=    1.000000   -0.000005   -0.000003   -0.000005 Ang=  -0.00 deg.
 Guess basis will be translated and rotated to current coordinates.
 JPrj=2 DoOrth=T DoCkMO=T.
 Generating alternative initial guess.
 ExpMin= 3.60D-02 ExpMax= 9.34D+04 ExpMxC= 3.17D+03 IAcc=3 IRadAn=         5 AccDes= 0.00D+00
 Harris functional with IExCor= 4639 and IRadAn=       5 diagonalized for initial guess.
 HarFok:  IExCor= 4639 AccDes= 0.00D+00 IRadAn=         5 IDoV= 1 UseB2=F ITyADJ=14
 ICtDFT=  3500011 ScaDFX=  1.000000  1.000000  1.000000  1.000000
 FoFCou: FMM=F IPFlag=           0 FMFlag=      100000 FMFlg1=           0
         NFxFlg=           0 DoJE=T BraDBF=F KetDBF=T FulRan=T
         wScrn=  0.000000 ICntrl=       500 IOpCl=  0 I1Cent=   200000004 NGrid=           0
         NMat0=    1 NMatS0=      1 NMatT0=    0 NMatD0=    1 NMtDS0=    0 NMtDT0=    0
 Symmetry not used in FoFCou.
 Harris En= -1166.99547323316    
 Leave Link  401 at Fri May 23 04:48:40 2025, MaxMem=  3758096384 cpu:               2.5 elap:               0.4
 (Enter /apps/easybuild-2022/easybuild/software/Compiler/NVHPC/22.11-CUDA-11.7.0/Gaussian/g16c01-CUDA-11.7.0/g16/l502.exe)
 Keep R1 ints in memory in canonical form, NReq=1117474609.
 FoFCou: FMM=F IPFlag=           0 FMFlag=           0 FMFlg1=           0
         NFxFlg=           0 DoJE=F BraDBF=F KetDBF=F FulRan=T
         wScrn=  0.000000 ICntrl=       600 IOpCl=  0 I1Cent=           0 NGrid=           0
         NMat0=    1 NMatS0=  33153 NMatT0=    0 NMatD0=    1 NMtDS0=    0 NMtDT0=    0
 Symmetry not used in FoFCou.
 Two-electron integral symmetry not used.
 Closed shell SCF:
 Using DIIS extrapolation, IDIIS=  1040.
 NGot=  3758096384 LenX=  2658793876 LenY=  2658721611
 Requested convergence on RMS density matrix=1.00D-08 within  32 cycles.
 Requested convergence on MAX density matrix=1.00D-06.
 Requested convergence on             energy=1.00D-06.
 No special actions if energy rises.

 Cycle   1  Pass 1  IDiag  1:
 E= -1199.59813987267    
 DIIS: error= 3.09D-04 at cycle   1 NSaved=   1.
 NSaved= 1 IEnMin= 1 EnMin= -1199.59813987267     IErMin= 1 ErrMin= 3.09D-04
 ErrMax= 3.09D-04  0.00D+00 EMaxC= 1.00D-01 BMatC= 5.01D-05 BMatP= 5.01D-05
 IDIUse=3 WtCom= 9.97D-01 WtEn= 3.09D-03
 Coeff-Com:  0.100D+01
 Coeff-En:   0.100D+01
 Coeff:      0.100D+01
 Gap=     0.603 Goal=   None    Shift=    0.000
 RMSDP=1.24D-04 MaxDP=7.49D-03              OVMax= 6.30D-03

 Cycle   2  Pass 1  IDiag  1:
 E= -1199.59821077233     Delta-E=       -0.000070899661 Rises=F Damp=F
 DIIS: error= 2.05D-04 at cycle   2 NSaved=   2.
 NSaved= 2 IEnMin= 2 EnMin= -1199.59821077233     IErMin= 2 ErrMin= 2.05D-04
 ErrMax= 2.05D-04  0.00D+00 EMaxC= 1.00D-01 BMatC= 2.18D-05 BMatP= 5.01D-05
 IDIUse=3 WtCom= 9.98D-01 WtEn= 2.05D-03
 Coeff-Com:  0.281D+00 0.719D+00
 Coeff-En:   0.000D+00 0.100D+01
 Coeff:      0.281D+00 0.719D+00
 Gap=     0.256 Goal=   None    Shift=    0.000
 RMSDP=5.08D-05 MaxDP=2.45D-03 DE=-7.09D-05 OVMax= 3.22D-03

 Cycle   3  Pass 1  IDiag  1:
 E= -1199.59821187147     Delta-E=       -0.000001099137 Rises=F Damp=F
 DIIS: error= 3.88D-04 at cycle   3 NSaved=   3.
 NSaved= 3 IEnMin= 3 EnMin= -1199.59821187147     IErMin= 2 ErrMin= 2.05D-04
 ErrMax= 3.88D-04  0.00D+00 EMaxC= 1.00D-01 BMatC= 2.41D-05 BMatP= 2.18D-05
 IDIUse=3 WtCom= 3.37D-01 WtEn= 6.63D-01
 Coeff-Com: -0.907D-01 0.556D+00 0.534D+00
 Coeff-En:   0.000D+00 0.487D+00 0.513D+00
 Coeff:     -0.305D-01 0.511D+00 0.520D+00
 Gap=     0.257 Goal=   None    Shift=    0.000
 RMSDP=2.40D-05 MaxDP=6.79D-04 DE=-1.10D-06 OVMax= 3.62D-03

 Cycle   4  Pass 1  IDiag  1:
 E= -1199.59823317196     Delta-E=       -0.000021300495 Rises=F Damp=F
 DIIS: error= 9.31D-05 at cycle   4 NSaved=   4.
 NSaved= 4 IEnMin= 4 EnMin= -1199.59823317196     IErMin= 4 ErrMin= 9.31D-05
 ErrMax= 9.31D-05  0.00D+00 EMaxC= 1.00D-01 BMatC= 2.77D-06 BMatP= 2.18D-05
 IDIUse=1 WtCom= 1.00D+00 WtEn= 0.00D+00
 Coeff-Com: -0.788D-01 0.256D+00 0.357D+00 0.466D+00
 Coeff:     -0.788D-01 0.256D+00 0.357D+00 0.466D+00
 Gap=     0.257 Goal=   None    Shift=    0.000
 RMSDP=1.10D-05 MaxDP=5.31D-04 DE=-2.13D-05 OVMax= 4.79D-04

 Cycle   5  Pass 1  IDiag  1:
 E= -1199.59823546035     Delta-E=       -0.000002288385 Rises=F Damp=F
 DIIS: error= 2.85D-05 at cycle   5 NSaved=   5.
 NSaved= 5 IEnMin= 5 EnMin= -1199.59823546035     IErMin= 5 ErrMin= 2.85D-05
 ErrMax= 2.85D-05  0.00D+00 EMaxC= 1.00D-01 BMatC= 2.84D-07 BMatP= 2.77D-06
 IDIUse=1 WtCom= 1.00D+00 WtEn= 0.00D+00
 Coeff-Com:  0.107D-01-0.168D+00-0.562D-01 0.242D+00 0.971D+00
 Coeff:      0.107D-01-0.168D+00-0.562D-01 0.242D+00 0.971D+00
 Gap=     0.257 Goal=   None    Shift=    0.000
 RMSDP=8.41D-06 MaxDP=5.22D-04 DE=-2.29D-06 OVMax= 6.86D-04

 Cycle   6  Pass 1  IDiag  1:
 E= -1199.59823607601     Delta-E=       -0.000000615663 Rises=F Damp=F
 DIIS: error= 1.11D-05 at cycle   6 NSaved=   6.
 NSaved= 6 IEnMin= 6 EnMin= -1199.59823607601     IErMin= 6 ErrMin= 1.11D-05
 ErrMax= 1.11D-05  0.00D+00 EMaxC= 1.00D-01 BMatC= 6.46D-08 BMatP= 2.84D-07
 IDIUse=1 WtCom= 1.00D+00 WtEn= 0.00D+00
 Coeff-Com:  0.122D-01-0.959D-01-0.492D-01 0.620D-02 0.427D+00 0.700D+00
 Coeff:      0.122D-01-0.959D-01-0.492D-01 0.620D-02 0.427D+00 0.700D+00
 Gap=     0.257 Goal=   None    Shift=    0.000
 RMSDP=2.89D-06 MaxDP=1.63D-04 DE=-6.16D-07 OVMax= 1.37D-04

 Cycle   7  Pass 1  IDiag  1:
 E= -1199.59823615788     Delta-E=       -0.000000081870 Rises=F Damp=F
 DIIS: error= 3.58D-06 at cycle   7 NSaved=   7.
 NSaved= 7 IEnMin= 7 EnMin= -1199.59823615788     IErMin= 7 ErrMin= 3.58D-06
 ErrMax= 3.58D-06  0.00D+00 EMaxC= 1.00D-01 BMatC= 1.04D-08 BMatP= 6.46D-08
 IDIUse=1 WtCom= 1.00D+00 WtEn= 0.00D+00
 Coeff-Com:  0.293D-02-0.223D-02-0.459D-02-0.763D-01-0.352D-01 0.348D+00
 Coeff-Com:  0.768D+00
 Coeff:      0.293D-02-0.223D-02-0.459D-02-0.763D-01-0.352D-01 0.348D+00
 Coeff:      0.768D+00
 Gap=     0.257 Goal=   None    Shift=    0.000
 RMSDP=1.35D-06 MaxDP=8.69D-05 DE=-8.19D-08 OVMax= 5.69D-05

 Cycle   8  Pass 1  IDiag  1:
 E= -1199.59823617260     Delta-E=       -0.000000014720 Rises=F Damp=F
 DIIS: error= 1.03D-06 at cycle   8 NSaved=   8.
 NSaved= 8 IEnMin= 8 EnMin= -1199.59823617260     IErMin= 8 ErrMin= 1.03D-06
 ErrMax= 1.03D-06  0.00D+00 EMaxC= 1.00D-01 BMatC= 7.30D-10 BMatP= 1.04D-08
 IDIUse=1 WtCom= 1.00D+00 WtEn= 0.00D+00
 Coeff-Com: -0.348D-03 0.111D-01 0.427D-02-0.297D-01-0.686D-01 0.542D-01
 Coeff-Com:  0.295D+00 0.734D+00
 Coeff:     -0.348D-03 0.111D-01 0.427D-02-0.297D-01-0.686D-01 0.542D-01
 Coeff:      0.295D+00 0.734D+00
 Gap=     0.257 Goal=   None    Shift=    0.000
 RMSDP=3.82D-07 MaxDP=2.48D-05 DE=-1.47D-08 OVMax= 1.95D-05

 Cycle   9  Pass 1  IDiag  1:
 E= -1199.59823617379     Delta-E=       -0.000000001197 Rises=F Damp=F
 DIIS: error= 6.28D-07 at cycle   9 NSaved=   9.
 NSaved= 9 IEnMin= 9 EnMin= -1199.59823617379     IErMin= 9 ErrMin= 6.28D-07
 ErrMax= 6.28D-07  0.00D+00 EMaxC= 1.00D-01 BMatC= 1.41D-10 BMatP= 7.30D-10
 IDIUse=1 WtCom= 1.00D+00 WtEn= 0.00D+00
 Coeff-Com: -0.632D-03 0.541D-02 0.259D-02-0.132D-03-0.262D-01-0.313D-01
 Coeff-Com:  0.850D-02 0.316D+00 0.726D+00
 Coeff:     -0.632D-03 0.541D-02 0.259D-02-0.132D-03-0.262D-01-0.313D-01
 Coeff:      0.850D-02 0.316D+00 0.726D+00
 Gap=     0.257 Goal=   None    Shift=    0.000
 RMSDP=1.28D-07 MaxDP=5.98D-06 DE=-1.20D-09 OVMax= 8.40D-06

 Cycle  10  Pass 1  IDiag  1:
 E= -1199.59823617394     Delta-E=       -0.000000000143 Rises=F Damp=F
 DIIS: error= 3.00D-07 at cycle  10 NSaved=  10.
 NSaved=10 IEnMin=10 EnMin= -1199.59823617394     IErMin=10 ErrMin= 3.00D-07
 ErrMax= 3.00D-07  0.00D+00 EMaxC= 1.00D-01 BMatC= 2.39D-11 BMatP= 1.41D-10
 IDIUse=1 WtCom= 1.00D+00 WtEn= 0.00D+00
 Coeff-Com: -0.268D-03 0.131D-02 0.737D-03 0.352D-02-0.486D-02-0.213D-01
 Coeff-Com: -0.312D-01 0.530D-01 0.327D+00 0.672D+00
 Coeff:     -0.268D-03 0.131D-02 0.737D-03 0.352D-02-0.486D-02-0.213D-01
 Coeff:     -0.312D-01 0.530D-01 0.327D+00 0.672D+00
 Gap=     0.257 Goal=   None    Shift=    0.000
 RMSDP=6.48D-08 MaxDP=4.81D-06 DE=-1.43D-10 OVMax= 4.15D-06

 Cycle  11  Pass 1  IDiag  1:
 E= -1199.59823617402     Delta-E=       -0.000000000081 Rises=F Damp=F
 DIIS: error= 2.27D-07 at cycle  11 NSaved=  11.
 NSaved=11 IEnMin=11 EnMin= -1199.59823617402     IErMin=11 ErrMin= 2.27D-07
 ErrMax= 2.27D-07  0.00D+00 EMaxC= 1.00D-01 BMatC= 5.89D-12 BMatP= 2.39D-11
 IDIUse=1 WtCom= 1.00D+00 WtEn= 0.00D+00
 Coeff-Com:  0.462D-04-0.864D-03-0.367D-03 0.181D-02 0.480D-02-0.116D-02
 Coeff-Com: -0.177D-01-0.611D-01-0.400D-01 0.331D+00 0.784D+00
 Coeff:      0.462D-04-0.864D-03-0.367D-03 0.181D-02 0.480D-02-0.116D-02
 Coeff:     -0.177D-01-0.611D-01-0.400D-01 0.331D+00 0.784D+00
 Gap=     0.257 Goal=   None    Shift=    0.000
 RMSDP=3.05D-08 MaxDP=1.06D-06 DE=-8.14D-11 OVMax= 3.34D-06

 Cycle  12  Pass 1  IDiag  1:
 E= -1199.59823617405     Delta-E=       -0.000000000033 Rises=F Damp=F
 DIIS: error= 8.78D-08 at cycle  12 NSaved=  12.
 NSaved=12 IEnMin=12 EnMin= -1199.59823617405     IErMin=12 ErrMin= 8.78D-08
 ErrMax= 8.78D-08  0.00D+00 EMaxC= 1.00D-01 BMatC= 8.29D-13 BMatP= 5.89D-12
 IDIUse=1 WtCom= 1.00D+00 WtEn= 0.00D+00
 Coeff-Com:  0.568D-04-0.494D-03-0.230D-03-0.376D-04 0.240D-02 0.358D-02
 Coeff-Com: -0.646D-03-0.295D-01-0.694D-01-0.586D-02 0.256D+00 0.844D+00
 Coeff:      0.568D-04-0.494D-03-0.230D-03-0.376D-04 0.240D-02 0.358D-02
 Coeff:     -0.646D-03-0.295D-01-0.694D-01-0.586D-02 0.256D+00 0.844D+00
 Gap=     0.257 Goal=   None    Shift=    0.000
 RMSDP=1.39D-08 MaxDP=7.13D-07 DE=-3.32D-11 OVMax= 1.75D-06

 Cycle  13  Pass 1  IDiag  1:
 E= -1199.59823617407     Delta-E=       -0.000000000018 Rises=F Damp=F
 DIIS: error= 5.25D-08 at cycle  13 NSaved=  13.
 NSaved=13 IEnMin=13 EnMin= -1199.59823617407     IErMin=13 ErrMin= 5.25D-08
 ErrMax= 5.25D-08  0.00D+00 EMaxC= 1.00D-01 BMatC= 2.24D-13 BMatP= 8.29D-13
 IDIUse=1 WtCom= 1.00D+00 WtEn= 0.00D+00
 Coeff-Com:  0.109D-04 0.471D-04 0.656D-05-0.584D-03-0.400D-03 0.189D-02
 Coeff-Com:  0.504D-02 0.560D-02-0.161D-01-0.974D-01-0.125D+00 0.336D+00
 Coeff-Com:  0.891D+00
 Coeff:      0.109D-04 0.471D-04 0.656D-05-0.584D-03-0.400D-03 0.189D-02
 Coeff:      0.504D-02 0.560D-02-0.161D-01-0.974D-01-0.125D+00 0.336D+00
 Coeff:      0.891D+00
 Gap=     0.257 Goal=   None    Shift=    0.000
 RMSDP=6.35D-09 MaxDP=2.07D-07 DE=-1.77D-11 OVMax= 1.12D-06

 SCF Done:  E(RwB97XD) =  -1199.59823617     A.U. after   13 cycles
            NFock= 13  Conv=0.64D-08     -V/T= 2.0020
 KE= 1.197220907581D+03 PE=-4.601746161941D+03 EE= 1.327056702178D+03
 Leave Link  502 at Fri May 23 04:48:52 2025, MaxMem=  3758096384 cpu:              57.7 elap:              11.6
 (Enter /apps/easybuild-2022/easybuild/software/Compiler/NVHPC/22.11-CUDA-11.7.0/Gaussian/g16c01-CUDA-11.7.0/g16/l508.exe)
 QCSCF skips out because SCF is already converged.
 Leave Link  508 at Fri May 23 04:48:52 2025, MaxMem=  3758096384 cpu:               0.0 elap:               0.0
 (Enter /apps/easybuild-2022/easybuild/software/Compiler/NVHPC/22.11-CUDA-11.7.0/Gaussian/g16c01-CUDA-11.7.0/g16/l801.exe)
 DoSCS=F DFT=T ScalE2(SS,OS)=  1.000000  1.000000
 Range of M.O.s used for correlation:     1   257
 NBasis=   257 NAE=    49 NBE=    49 NFC=     0 NFV=     0
 NROrb=    257 NOA=    49 NOB=    49 NVA=   208 NVB=   208

 **** Warning!!: The largest alpha MO coefficient is  0.34317567D+02

 Leave Link  801 at Fri May 23 04:48:52 2025, MaxMem=  3758096384 cpu:               0.0 elap:               0.0
 (Enter /apps/easybuild-2022/easybuild/software/Compiler/NVHPC/22.11-CUDA-11.7.0/Gaussian/g16c01-CUDA-11.7.0/g16/l1101.exe)
 Leave Link 1101 at Fri May 23 04:48:52 2025, MaxMem=  3758096384 cpu:               0.0 elap:               0.0
 (Enter /apps/easybuild-2022/easybuild/software/Compiler/NVHPC/22.11-CUDA-11.7.0/Gaussian/g16c01-CUDA-11.7.0/g16/l1102.exe)
 Symmetrizing basis deriv contribution to polar:
 IMax=3 JMax=2 DiffMx= 0.00D+00
 Leave Link 1102 at Fri May 23 04:48:52 2025, MaxMem=  3758096384 cpu:               0.1 elap:               0.0
 (Enter /apps/easybuild-2022/easybuild/software/Compiler/NVHPC/22.11-CUDA-11.7.0/Gaussian/g16c01-CUDA-11.7.0/g16/l1110.exe)
 Leave Link 1110 at Fri May 23 04:48:52 2025, MaxMem=  3758096384 cpu:               0.0 elap:               0.0
 (Enter /apps/easybuild-2022/easybuild/software/Compiler/NVHPC/22.11-CUDA-11.7.0/Gaussian/g16c01-CUDA-11.7.0/g16/l1002.exe)
 Minotr:  Closed shell wavefunction.
 Leave Link 1002 at Fri May 23 04:48:52 2025, MaxMem=  3758096384 cpu:               0.0 elap:               0.0
 (Enter /apps/easybuild-2022/easybuild/software/Compiler/NVHPC/22.11-CUDA-11.7.0/Gaussian/g16c01-CUDA-11.7.0/g16/l701.exe)
 ... and contract with generalized density number  0.
 Compute integral first derivatives.
 R6Disp: Adding Grimme-D2 dispersion energy 1st derivatives to the gradient.
 Leave Link  701 at Fri May 23 04:48:52 2025, MaxMem=  3758096384 cpu:               0.3 elap:               0.1
 (Enter /apps/easybuild-2022/easybuild/software/Compiler/NVHPC/22.11-CUDA-11.7.0/Gaussian/g16c01-CUDA-11.7.0/g16/l702.exe)
 L702 exits ... SP integral derivatives will be done elsewhere.
 Leave Link  702 at Fri May 23 04:48:52 2025, MaxMem=  3758096384 cpu:               0.0 elap:               0.0
 (Enter /apps/easybuild-2022/easybuild/software/Compiler/NVHPC/22.11-CUDA-11.7.0/Gaussian/g16c01-CUDA-11.7.0/g16/l703.exe)
 Integral derivatives from FoFJK, PRISM(SPDF).
 Compute integral first derivatives, UseDBF=F ICtDFT=           0.
 Calling FoFJK, ICntrl=      2127 FMM=F ISym2X=0 I1Cent= 0 IOpClX= 0 NMat=1 NMatS=1 NMatT=0.
 FoFJK:  IHMeth= 1 ICntrl=    2127 DoSepK=T KAlg= 0 I1Cent=           0 FoldK=F
 IRaf=         1 NMat=       1 IRICut=       1 DoRegI=T DoRafI=F ISym2E= 0 IDoP0=0 IntGTp=1.
 FoFCou: FMM=F IPFlag=           0 FMFlag=      100000 FMFlg1=         800
         NFxFlg=           0 DoJE=F BraDBF=F KetDBF=F FulRan=T
         wScrn=  0.000000 ICntrl=      2527 IOpCl=  0 I1Cent=           0 NGrid=           0
         NMat0=    1 NMatS0=      1 NMatT0=    0 NMatD0=    1 NMtDS0=    0 NMtDT0=    0
 Symmetry not used in FoFCou.
 Leave Link  703 at Fri May 23 04:48:56 2025, MaxMem=  3758096384 cpu:              33.1 elap:               4.2
 (Enter /apps/easybuild-2022/easybuild/software/Compiler/NVHPC/22.11-CUDA-11.7.0/Gaussian/g16c01-CUDA-11.7.0/g16/l716.exe)
 Dipole        = 9.99604377D-01-9.65425373D-01 3.57627906D-01
 Polarizability= 0.00000000D+00 0.00000000D+00 0.00000000D+00
                 0.00000000D+00 0.00000000D+00 0.00000000D+00
 -------------------------------------------------------------------
 Center     Atomic                   Forces (Hartrees/Bohr)
 Number     Number              X              Y              Z
 -------------------------------------------------------------------
      1        6           0.000106037    0.000146658    0.000052313
      2        6           0.000237015    0.000206799   -0.000156367
      3        9           0.000590850   -0.000657768   -0.000389645
      4        9           0.000065659    0.000002295    0.000164164
      5       16           0.001862963   -0.000771619   -0.000496426
      6        8          -0.000133839    0.000042108    0.000048508
      7        8          -0.000335977    0.000074277    0.000037535
      8        8          -0.002466935    0.001042102    0.000990792
      9        9           0.000008964   -0.000107421   -0.000129302
     10        9           0.000055922    0.000136206    0.000059081
     11        9           0.000021044    0.000027174   -0.000052408
     12        1          -0.000011703   -0.000140809   -0.000128246
 -------------------------------------------------------------------
 Cartesian Forces:  Max     0.002466935 RMS     0.000619707
 Leave Link  716 at Fri May 23 04:48:56 2025, MaxMem=  3758096384 cpu:               0.0 elap:               0.0
 (Enter /apps/easybuild-2022/easybuild/software/Compiler/NVHPC/22.11-CUDA-11.7.0/Gaussian/g16c01-CUDA-11.7.0/g16/l123.exe)
 IRC-IRC-IRC-IRC-IRC-IRC-IRC-IRC-IRC-IRC-IRC-IRC-IRC-IRC-IRC-IRC-IRC-IRC
 Pt  2 Step number   1 out of a maximum of  20
 Using modified Bulirsch-Stoer corrector integration.
   Using distance weighted interpolants to fit PES.
 PreDWI: IReCr0= 2 IReCr1= 1 IReCr2= 1 IReCr3= 1
 Modified Bulirsch-Stoer Extrapolation Cycles:
    EPS =    0.000010000000000
    Cycle     1 NS=    48
      PEZero:  N= 2 I= 1 D=  3.21D-04 Err=  1.64D-06
    Cycle     2 NS=    64 Truncation Error =  0.000001642
 BS completed in    2 cycles and     112 integration steps.
 Maximum DWI energy   std dev =  0.000000021 at pt    36
 Maximum DWI gradient std dev =  0.054238568 at pt    27
 SUMMARY OF CORRECTOR INTEGRATION:
   Predictor End Point Energy = -1199.598236
   Old End Point Energy       = -1199.598236
   Corrected End Point Energy = -1199.598236
   Predictor End-Start Dist.  =     0.061544
   Old End-Start Dist.        =     0.061544
   New End-Start Dist.        =     0.061542
   New End-Old End Dist.      =     0.000734
 CORRECTOR INTEGRATION CONVERGENCE:
   Recorrection delta-x convergence threshold:    0.010000
   Delta-x Convergence Met
 Point Number:   2          Path Number:   1
                    CURRENT STRUCTURE
                Cartesian Coordinates (Ang):                
 ---------------------------------------------------------------------
 Center     Atomic                     Coordinates (Angstroms)
 Number     Number                        X           Y           Z
 ---------------------------------------------------------------------
      1          6                    0.320855   -1.394423   -0.857325
      2          6                    0.507346   -0.456920    0.313004
      3          9                   -2.750548    1.593784    1.021106
      4          9                    0.998028   -1.006510    1.409151
      5         16                    0.405765    1.211723    0.285871
      6          8                    0.875217    1.827826    1.484615
      7          8                    0.251359    1.829267   -0.984813
      8          8                   -1.371127    0.637054    0.641981
      9          9                    1.512413   -1.775828   -1.333082
     10          9                   -0.319497   -2.488026   -0.445294
     11          9                   -0.365540   -0.827680   -1.833982
     12          1                   -1.412682    0.361156    1.574932
 ---------------------------------------------------------------------
   CHANGE IN THE REACTION COORDINATE =    0.06154
   NET REACTION COORDINATE UP TO THIS POINT =    0.12310
  # OF POINTS ALONG THE PATH =   2
  # OF STEPS =   1

 Calculating another point on the path.
 Point Number  3 in FORWARD path direction.
 Using LQA Reaction Path Following.
   LQA: T_Est iteration completed in    3 iterations.
 IRC-IRC-IRC-IRC-IRC-IRC-IRC-IRC-IRC-IRC-IRC-IRC-IRC-IRC-IRC-IRC-IRC-IRC
 Leave Link  123 at Fri May 23 04:48:57 2025, MaxMem=  3758096384 cpu:               0.1 elap:               0.0
 (Enter /apps/easybuild-2022/easybuild/software/Compiler/NVHPC/22.11-CUDA-11.7.0/Gaussian/g16c01-CUDA-11.7.0/g16/l202.exe)
                          Input orientation:                          
 ---------------------------------------------------------------------
 Center     Atomic      Atomic             Coordinates (Angstroms)
 Number     Number       Type             X           Y           Z
 ---------------------------------------------------------------------
      1          6           0        0.321187   -1.393959   -0.857153
      2          6           0        0.508067   -0.456280    0.312517
      3          9           0       -2.749400    1.592493    1.020329
      4          9           0        0.998161   -1.006505    1.409478
      5         16           0        0.407967    1.210809    0.285302
      6          8           0        0.874902    1.827927    1.484727
      7          8           0        0.250560    1.829439   -0.984726
      8          8           0       -1.376961    0.639600    0.644018
      9          9           0        1.512434   -1.776043   -1.333343
     10          9           0       -0.319384   -2.487751   -0.445176
     11          9           0       -0.365497   -0.827624   -1.834086
     12          1           0       -1.412316    0.354256    1.574427
 ---------------------------------------------------------------------
                    Distance matrix (angstroms):
                    1          2          3          4          5
     1  C    0.000000
     2  C    1.510726   0.000000
     3  F    4.676787   3.912744   0.000000
     4  F    2.397088   1.321462   4.577165   0.000000
     5  S    2.845620   1.670313   3.264187   2.555109   0.000000
     6  O    4.021387   2.593501   3.661511   2.838109   1.427404
     7  O    3.226695   2.640770   3.616097   3.785987   1.421426
     8  O    3.045091   2.205488   1.712660   2.989447   1.908121
     9  F    1.338586   2.336532   5.920307   2.894776   3.572274
    10  F    1.332831   2.320700   4.970017   2.714730   3.839529
    11  F    1.321616   2.347108   4.437076   3.523105   3.040602
    12  H    3.460328   2.436649   1.904744   2.772955   2.389343
                    6          7          8          9         10
     6  O    0.000000
     7  O    2.547156   0.000000
     8  O    2.681380   2.591785   0.000000
     9  F    4.619152   3.835800   4.253691   0.000000
    10  F    4.876056   4.387948   3.476368   2.156600   0.000000
    11  F    4.427760   2.856733   3.052343   2.162607   2.164999
    12  H    2.722337   3.389778   0.973824   4.641924   3.653806
                   11         12
    11  F    0.000000
    12  H    3.756412   0.000000
 Symmetry turned off by external request.
 Stoichiometry    C2HF5O3S
 Rotational constants (GHZ):           1.3337057           0.7013064           0.6451354
 Leave Link  202 at Fri May 23 04:48:57 2025, MaxMem=  3758096384 cpu:               0.0 elap:               0.0
 (Enter /apps/easybuild-2022/easybuild/software/Compiler/NVHPC/22.11-CUDA-11.7.0/Gaussian/g16c01-CUDA-11.7.0/g16/l301.exe)
 Standard basis: 6-311++G(d,p) (5D, 7F)
 Ernie: Thresh=  0.10000D-02 Tol=  0.10000D-05 Strict=F.
   257 basis functions,   419 primitive gaussians,   268 cartesian basis functions
    49 alpha electrons       49 beta electrons
       nuclear repulsion energy       877.7447286896 Hartrees.
 IExCor= 4639 DFT=T Ex+Corr=wB97XD ExCW=0 ScaHFX=  1.000000
 ScaDFX=  1.000000  1.000000  1.000000  1.000000 ScalE2=  1.000000  1.000000
 IRadAn=      5 IRanWt=     -1 IRanGd=            0 ICorTp=0 IEmpDi=121
 HFx  wShort=  0.000000 wLong=  0.200000 cFull=  0.222036 cShort=  0.000000 cLong=  0.777964
 DFx  wShort=  0.000000 wLong=  0.200000 cFull=  0.000000 cShort=  0.000000 cLong=  1.000000
 NAtoms=   12 NActive=   12 NUniq=   12 SFac= 1.00D+00 NAtFMM=   60 NAOKFM=F Big=F
 Integral buffers will be    131072 words long.
 Raffenetti 2 integral format.
 Two-electron integral symmetry is turned off.
 R6Disp:  Grimme-D2 Dispersion energy=       -0.0053249042 Hartrees.
 Nuclear repulsion after empirical dispersion term =      877.7394037854 Hartrees.
 Leave Link  301 at Fri May 23 04:48:57 2025, MaxMem=  3758096384 cpu:               0.0 elap:               0.0
 (Enter /apps/easybuild-2022/easybuild/software/Compiler/NVHPC/22.11-CUDA-11.7.0/Gaussian/g16c01-CUDA-11.7.0/g16/l302.exe)
 NPDir=0 NMtPBC=     1 NCelOv=     1 NCel=       1 NClECP=     1 NCelD=      1
         NCelK=      1 NCelE2=     1 NClLst=     1 CellRange=     0.0.
 One-electron integrals computed using PRISM.
 NBasis=   257 RedAO= T EigKep=  5.84D-05  NBF=   257
 NBsUse=   257 1.00D-06 EigRej= -1.00D+00 NBFU=   257
 Precomputing XC quadrature grid using
 IXCGrd= 4 IRadAn=           5 IRanWt=          -1 IRanGd=           0 AccXCQ= 0.00D+00.
 Generated NRdTot=       0 NPtTot=           0 NUsed=           0 NTot=          32
 NSgBfM=   267   267   267   267   267 MxSgAt=    12 MxSgA2=    12.
 Leave Link  302 at Fri May 23 04:48:57 2025, MaxMem=  3758096384 cpu:               0.5 elap:               0.1
 (Enter /apps/easybuild-2022/easybuild/software/Compiler/NVHPC/22.11-CUDA-11.7.0/Gaussian/g16c01-CUDA-11.7.0/g16/l303.exe)
 DipDrv:  MaxL=1.
 Leave Link  303 at Fri May 23 04:48:57 2025, MaxMem=  3758096384 cpu:               0.0 elap:               0.0
 (Enter /apps/easybuild-2022/easybuild/software/Compiler/NVHPC/22.11-CUDA-11.7.0/Gaussian/g16c01-CUDA-11.7.0/g16/l401.exe)
 Initial guess from the checkpoint file:  "2003846667223680600001_r13_insertion_ROR_3_2_5_8_IRC_F.chk"
 B after Tr=    -0.000013   -0.000054    0.000000
         Rot=    1.000000   -0.000006   -0.000001   -0.000005 Ang=  -0.00 deg.
 Guess basis will be translated and rotated to current coordinates.
 JPrj=2 DoOrth=T DoCkMO=T.
 Generating alternative initial guess.
 ExpMin= 3.60D-02 ExpMax= 9.34D+04 ExpMxC= 3.17D+03 IAcc=3 IRadAn=         5 AccDes= 0.00D+00
 Harris functional with IExCor= 4639 and IRadAn=       5 diagonalized for initial guess.
 HarFok:  IExCor= 4639 AccDes= 0.00D+00 IRadAn=         5 IDoV= 1 UseB2=F ITyADJ=14
 ICtDFT=  3500011 ScaDFX=  1.000000  1.000000  1.000000  1.000000
 FoFCou: FMM=F IPFlag=           0 FMFlag=      100000 FMFlg1=           0
         NFxFlg=           0 DoJE=T BraDBF=F KetDBF=T FulRan=T
         wScrn=  0.000000 ICntrl=       500 IOpCl=  0 I1Cent=   200000004 NGrid=           0
         NMat0=    1 NMatS0=      1 NMatT0=    0 NMatD0=    1 NMtDS0=    0 NMtDT0=    0
 Symmetry not used in FoFCou.
 Harris En= -1166.99406145259    
 Leave Link  401 at Fri May 23 04:48:57 2025, MaxMem=  3758096384 cpu:               2.6 elap:               0.4
 (Enter /apps/easybuild-2022/easybuild/software/Compiler/NVHPC/22.11-CUDA-11.7.0/Gaussian/g16c01-CUDA-11.7.0/g16/l502.exe)
 Keep R1 ints in memory in canonical form, NReq=1117474609.
 FoFCou: FMM=F IPFlag=           0 FMFlag=           0 FMFlg1=           0
         NFxFlg=           0 DoJE=F BraDBF=F KetDBF=F FulRan=T
         wScrn=  0.000000 ICntrl=       600 IOpCl=  0 I1Cent=           0 NGrid=           0
         NMat0=    1 NMatS0=  33153 NMatT0=    0 NMatD0=    1 NMtDS0=    0 NMtDT0=    0
 Symmetry not used in FoFCou.
 Two-electron integral symmetry not used.
 Closed shell SCF:
 Using DIIS extrapolation, IDIIS=  1040.
 NGot=  3758096384 LenX=  2658793876 LenY=  2658721611
 Requested convergence on RMS density matrix=1.00D-08 within  32 cycles.
 Requested convergence on MAX density matrix=1.00D-06.
 Requested convergence on             energy=1.00D-06.
 No special actions if energy rises.

 Cycle   1  Pass 1  IDiag  1:
 E= -1199.59820700808    
 DIIS: error= 3.07D-04 at cycle   1 NSaved=   1.
 NSaved= 1 IEnMin= 1 EnMin= -1199.59820700808     IErMin= 1 ErrMin= 3.07D-04
 ErrMax= 3.07D-04  0.00D+00 EMaxC= 1.00D-01 BMatC= 4.92D-05 BMatP= 4.92D-05
 IDIUse=3 WtCom= 9.97D-01 WtEn= 3.07D-03
 Coeff-Com:  0.100D+01
 Coeff-En:   0.100D+01
 Coeff:      0.100D+01
 Gap=     0.604 Goal=   None    Shift=    0.000
 RMSDP=1.25D-04 MaxDP=7.38D-03              OVMax= 6.26D-03

 Cycle   2  Pass 1  IDiag  1:
 E= -1199.59827745069     Delta-E=       -0.000070442606 Rises=F Damp=F
 DIIS: error= 2.10D-04 at cycle   2 NSaved=   2.
 NSaved= 2 IEnMin= 2 EnMin= -1199.59827745069     IErMin= 2 ErrMin= 2.10D-04
 ErrMax= 2.10D-04  0.00D+00 EMaxC= 1.00D-01 BMatC= 2.09D-05 BMatP= 4.92D-05
 IDIUse=3 WtCom= 9.98D-01 WtEn= 2.10D-03
 Coeff-Com:  0.274D+00 0.726D+00
 Coeff-En:   0.000D+00 0.100D+01
 Coeff:      0.274D+00 0.726D+00
 Gap=     0.257 Goal=   None    Shift=    0.000
 RMSDP=5.02D-05 MaxDP=2.44D-03 DE=-7.04D-05 OVMax= 3.07D-03

 Cycle   3  Pass 1  IDiag  1:
 E= -1199.59827898174     Delta-E=       -0.000001531052 Rises=F Damp=F
 DIIS: error= 3.70D-04 at cycle   3 NSaved=   3.
 NSaved= 3 IEnMin= 3 EnMin= -1199.59827898174     IErMin= 2 ErrMin= 2.10D-04
 ErrMax= 3.70D-04  0.00D+00 EMaxC= 1.00D-01 BMatC= 2.28D-05 BMatP= 2.09D-05
 IDIUse=3 WtCom= 9.96D-01 WtEn= 3.70D-03
 Coeff-Com: -0.921D-01 0.555D+00 0.537D+00
 Coeff-En:   0.000D+00 0.481D+00 0.519D+00
 Coeff:     -0.918D-01 0.555D+00 0.537D+00
 Gap=     0.258 Goal=   None    Shift=    0.000
 RMSDP=2.27D-05 MaxDP=7.42D-04 DE=-1.53D-06 OVMax= 3.42D-03

 Cycle   4  Pass 1  IDiag  1:
 E= -1199.59830008604     Delta-E=       -0.000021104297 Rises=F Damp=F
 DIIS: error= 7.60D-05 at cycle   4 NSaved=   4.
 NSaved= 4 IEnMin= 4 EnMin= -1199.59830008604     IErMin= 4 ErrMin= 7.60D-05
 ErrMax= 7.60D-05  0.00D+00 EMaxC= 1.00D-01 BMatC= 1.82D-06 BMatP= 2.09D-05
 IDIUse=1 WtCom= 1.00D+00 WtEn= 0.00D+00
 Coeff-Com: -0.779D-01 0.281D+00 0.332D+00 0.466D+00
 Coeff:     -0.779D-01 0.281D+00 0.332D+00 0.466D+00
 Gap=     0.258 Goal=   None    Shift=    0.000
 RMSDP=8.45D-06 MaxDP=3.75D-04 DE=-2.11D-05 OVMax= 3.92D-04

 Cycle   5  Pass 1  IDiag  1:
 E= -1199.59830149547     Delta-E=       -0.000001409433 Rises=F Damp=F
 DIIS: error= 2.97D-05 at cycle   5 NSaved=   5.
 NSaved= 5 IEnMin= 5 EnMin= -1199.59830149547     IErMin= 5 ErrMin= 2.97D-05
 ErrMax= 2.97D-05  0.00D+00 EMaxC= 1.00D-01 BMatC= 2.93D-07 BMatP= 1.82D-06
 IDIUse=1 WtCom= 1.00D+00 WtEn= 0.00D+00
 Coeff-Com:  0.110D-01-0.153D+00-0.678D-01 0.261D+00 0.950D+00
 Coeff:      0.110D-01-0.153D+00-0.678D-01 0.261D+00 0.950D+00
 Gap=     0.258 Goal=   None    Shift=    0.000
 RMSDP=8.32D-06 MaxDP=5.14D-04 DE=-1.41D-06 OVMax= 6.95D-04

 Cycle   6  Pass 1  IDiag  1:
 E= -1199.59830211233     Delta-E=       -0.000000616863 Rises=F Damp=F
 DIIS: error= 1.10D-05 at cycle   6 NSaved=   6.
 NSaved= 6 IEnMin= 6 EnMin= -1199.59830211233     IErMin= 6 ErrMin= 1.10D-05
 ErrMax= 1.10D-05  0.00D+00 EMaxC= 1.00D-01 BMatC= 6.26D-08 BMatP= 2.93D-07
 IDIUse=1 WtCom= 1.00D+00 WtEn= 0.00D+00
 Coeff-Com:  0.120D-01-0.943D-01-0.489D-01 0.985D-02 0.414D+00 0.707D+00
 Coeff:      0.120D-01-0.943D-01-0.489D-01 0.985D-02 0.414D+00 0.707D+00
 Gap=     0.258 Goal=   None    Shift=    0.000
 RMSDP=2.86D-06 MaxDP=1.64D-04 DE=-6.17D-07 OVMax= 1.37D-04

 Cycle   7  Pass 1  IDiag  1:
 E= -1199.59830219257     Delta-E=       -0.000000080231 Rises=F Damp=F
 DIIS: error= 3.43D-06 at cycle   7 NSaved=   7.
 NSaved= 7 IEnMin= 7 EnMin= -1199.59830219257     IErMin= 7 ErrMin= 3.43D-06
 ErrMax= 3.43D-06  0.00D+00 EMaxC= 1.00D-01 BMatC= 9.98D-09 BMatP= 6.26D-08
 IDIUse=1 WtCom= 1.00D+00 WtEn= 0.00D+00
 Coeff-Com:  0.296D-02-0.761D-02-0.168D-02-0.776D-01-0.281D-01 0.356D+00
 Coeff-Com:  0.756D+00
 Coeff:      0.296D-02-0.761D-02-0.168D-02-0.776D-01-0.281D-01 0.356D+00
 Coeff:      0.756D+00
 Gap=     0.258 Goal=   None    Shift=    0.000
 RMSDP=1.32D-06 MaxDP=8.46D-05 DE=-8.02D-08 OVMax= 5.56D-05

 Cycle   8  Pass 1  IDiag  1:
 E= -1199.59830220644     Delta-E=       -0.000000013879 Rises=F Damp=F
 DIIS: error= 1.02D-06 at cycle   8 NSaved=   8.
 NSaved= 8 IEnMin= 8 EnMin= -1199.59830220644     IErMin= 8 ErrMin= 1.02D-06
 ErrMax= 1.02D-06  0.00D+00 EMaxC= 1.00D-01 BMatC= 7.17D-10 BMatP= 9.98D-09
 IDIUse=1 WtCom= 1.00D+00 WtEn= 0.00D+00
 Coeff-Com: -0.338D-03 0.906D-02 0.544D-02-0.309D-01-0.650D-01 0.561D-01
 Coeff-Com:  0.293D+00 0.733D+00
 Coeff:     -0.338D-03 0.906D-02 0.544D-02-0.309D-01-0.650D-01 0.561D-01
 Coeff:      0.293D+00 0.733D+00
 Gap=     0.258 Goal=   None    Shift=    0.000
 RMSDP=3.77D-07 MaxDP=2.50D-05 DE=-1.39D-08 OVMax= 1.94D-05

 Cycle   9  Pass 1  IDiag  1:
 E= -1199.59830220758     Delta-E=       -0.000000001131 Rises=F Damp=F
 DIIS: error= 5.93D-07 at cycle   9 NSaved=   9.
 NSaved= 9 IEnMin= 9 EnMin= -1199.59830220758     IErMin= 9 ErrMin= 5.93D-07
 ErrMax= 5.93D-07  0.00D+00 EMaxC= 1.00D-01 BMatC= 1.37D-10 BMatP= 7.17D-10
 IDIUse=1 WtCom= 1.00D+00 WtEn= 0.00D+00
 Coeff-Com: -0.620D-03 0.540D-02 0.261D-02-0.974D-03-0.260D-01-0.299D-01
 Coeff-Com:  0.134D-01 0.318D+00 0.718D+00
 Coeff:     -0.620D-03 0.540D-02 0.261D-02-0.974D-03-0.260D-01-0.299D-01
 Coeff:      0.134D-01 0.318D+00 0.718D+00
 Gap=     0.258 Goal=   None    Shift=    0.000
 RMSDP=1.25D-07 MaxDP=5.85D-06 DE=-1.13D-09 OVMax= 7.57D-06

 Cycle  10  Pass 1  IDiag  1:
 E= -1199.59830220784     Delta-E=       -0.000000000260 Rises=F Damp=F
 DIIS: error= 2.89D-07 at cycle  10 NSaved=  10.
 NSaved=10 IEnMin=10 EnMin= -1199.59830220784     IErMin=10 ErrMin= 2.89D-07
 ErrMax= 2.89D-07  0.00D+00 EMaxC= 1.00D-01 BMatC= 2.27D-11 BMatP= 1.37D-10
 IDIUse=1 WtCom= 1.00D+00 WtEn= 0.00D+00
 Coeff-Com: -0.265D-03 0.156D-02 0.609D-03 0.329D-02-0.520D-02-0.210D-01
 Coeff-Com: -0.289D-01 0.537D-01 0.325D+00 0.671D+00
 Coeff:     -0.265D-03 0.156D-02 0.609D-03 0.329D-02-0.520D-02-0.210D-01
 Coeff:     -0.289D-01 0.537D-01 0.325D+00 0.671D+00
 Gap=     0.258 Goal=   None    Shift=    0.000
 RMSDP=6.35D-08 MaxDP=4.78D-06 DE=-2.60D-10 OVMax= 3.79D-06

 Cycle  11  Pass 1  IDiag  1:
 E= -1199.59830220789     Delta-E=       -0.000000000053 Rises=F Damp=F
 DIIS: error= 2.12D-07 at cycle  11 NSaved=  11.
 NSaved=11 IEnMin=11 EnMin= -1199.59830220789     IErMin=11 ErrMin= 2.12D-07
 ErrMax= 2.12D-07  0.00D+00 EMaxC= 1.00D-01 BMatC= 5.39D-12 BMatP= 2.27D-11
 IDIUse=1 WtCom= 1.00D+00 WtEn= 0.00D+00
 Coeff-Com:  0.355D-04-0.656D-03-0.397D-03 0.191D-02 0.419D-02-0.188D-02
 Coeff-Com: -0.176D-01-0.566D-01-0.286D-01 0.329D+00 0.770D+00
 Coeff:      0.355D-04-0.656D-03-0.397D-03 0.191D-02 0.419D-02-0.188D-02
 Coeff:     -0.176D-01-0.566D-01-0.286D-01 0.329D+00 0.770D+00
 Gap=     0.258 Goal=   None    Shift=    0.000
 RMSDP=2.90D-08 MaxDP=1.02D-06 DE=-5.28D-11 OVMax= 2.95D-06

 Cycle  12  Pass 1  IDiag  1:
 E= -1199.59830220788     Delta-E=        0.000000000008 Rises=F Damp=F
 DIIS: error= 8.44D-08 at cycle  12 NSaved=  12.
 NSaved=12 IEnMin=11 EnMin= -1199.59830220789     IErMin=12 ErrMin= 8.44D-08
 ErrMax= 8.44D-08  0.00D+00 EMaxC= 1.00D-01 BMatC= 7.53D-13 BMatP= 5.39D-12
 IDIUse=1 WtCom= 1.00D+00 WtEn= 0.00D+00
 Coeff-Com:  0.526D-04-0.469D-03-0.215D-03 0.398D-04 0.227D-02 0.327D-02
 Coeff-Com: -0.110D-02-0.282D-01-0.654D-01-0.557D-02 0.256D+00 0.839D+00
 Coeff:      0.526D-04-0.469D-03-0.215D-03 0.398D-04 0.227D-02 0.327D-02
 Coeff:     -0.110D-02-0.282D-01-0.654D-01-0.557D-02 0.256D+00 0.839D+00
 Gap=     0.258 Goal=   None    Shift=    0.000
 RMSDP=1.33D-08 MaxDP=7.40D-07 DE= 8.19D-12 OVMax= 1.59D-06

 Cycle  13  Pass 1  IDiag  1:
 E= -1199.59830220790     Delta-E=       -0.000000000018 Rises=F Damp=F
 DIIS: error= 5.05D-08 at cycle  13 NSaved=  13.
 NSaved=13 IEnMin=13 EnMin= -1199.59830220790     IErMin=13 ErrMin= 5.05D-08
 ErrMax= 5.05D-08  0.00D+00 EMaxC= 1.00D-01 BMatC= 1.95D-13 BMatP= 7.53D-13
 IDIUse=1 WtCom= 1.00D+00 WtEn= 0.00D+00
 Coeff-Com:  0.119D-04-0.880D-05 0.218D-04-0.552D-03-0.248D-03 0.189D-02
 Coeff-Com:  0.458D-02 0.453D-02-0.171D-01-0.924D-01-0.114D+00 0.323D+00
 Coeff-Com:  0.891D+00
 Coeff:      0.119D-04-0.880D-05 0.218D-04-0.552D-03-0.248D-03 0.189D-02
 Coeff:      0.458D-02 0.453D-02-0.171D-01-0.924D-01-0.114D+00 0.323D+00
 Coeff:      0.891D+00
 Gap=     0.258 Goal=   None    Shift=    0.000
 RMSDP=5.90D-09 MaxDP=2.08D-07 DE=-1.82D-11 OVMax= 1.02D-06

 SCF Done:  E(RwB97XD) =  -1199.59830221     A.U. after   13 cycles
            NFock= 13  Conv=0.59D-08     -V/T= 2.0020
 KE= 1.197222240683D+03 PE=-4.601523048564D+03 EE= 1.326963101887D+03
 Leave Link  502 at Fri May 23 04:49:08 2025, MaxMem=  3758096384 cpu:              56.9 elap:              11.3
 (Enter /apps/easybuild-2022/easybuild/software/Compiler/NVHPC/22.11-CUDA-11.7.0/Gaussian/g16c01-CUDA-11.7.0/g16/l508.exe)
 QCSCF skips out because SCF is already converged.
 Leave Link  508 at Fri May 23 04:49:09 2025, MaxMem=  3758096384 cpu:               0.0 elap:               0.0
 (Enter /apps/easybuild-2022/easybuild/software/Compiler/NVHPC/22.11-CUDA-11.7.0/Gaussian/g16c01-CUDA-11.7.0/g16/l801.exe)
 DoSCS=F DFT=T ScalE2(SS,OS)=  1.000000  1.000000
 Range of M.O.s used for correlation:     1   257
 NBasis=   257 NAE=    49 NBE=    49 NFC=     0 NFV=     0
 NROrb=    257 NOA=    49 NOB=    49 NVA=   208 NVB=   208

 **** Warning!!: The largest alpha MO coefficient is  0.34358720D+02

 Leave Link  801 at Fri May 23 04:49:09 2025, MaxMem=  3758096384 cpu:               0.0 elap:               0.0
 (Enter /apps/easybuild-2022/easybuild/software/Compiler/NVHPC/22.11-CUDA-11.7.0/Gaussian/g16c01-CUDA-11.7.0/g16/l1101.exe)
 Leave Link 1101 at Fri May 23 04:49:09 2025, MaxMem=  3758096384 cpu:               0.0 elap:               0.0
 (Enter /apps/easybuild-2022/easybuild/software/Compiler/NVHPC/22.11-CUDA-11.7.0/Gaussian/g16c01-CUDA-11.7.0/g16/l1102.exe)
 Symmetrizing basis deriv contribution to polar:
 IMax=3 JMax=2 DiffMx= 0.00D+00
 Leave Link 1102 at Fri May 23 04:49:09 2025, MaxMem=  3758096384 cpu:               0.0 elap:               0.0
 (Enter /apps/easybuild-2022/easybuild/software/Compiler/NVHPC/22.11-CUDA-11.7.0/Gaussian/g16c01-CUDA-11.7.0/g16/l1110.exe)
 Leave Link 1110 at Fri May 23 04:49:09 2025, MaxMem=  3758096384 cpu:               0.0 elap:               0.0
 (Enter /apps/easybuild-2022/easybuild/software/Compiler/NVHPC/22.11-CUDA-11.7.0/Gaussian/g16c01-CUDA-11.7.0/g16/l1002.exe)
 Minotr:  Closed shell wavefunction.
 Leave Link 1002 at Fri May 23 04:49:09 2025, MaxMem=  3758096384 cpu:               0.0 elap:               0.0
 (Enter /apps/easybuild-2022/easybuild/software/Compiler/NVHPC/22.11-CUDA-11.7.0/Gaussian/g16c01-CUDA-11.7.0/g16/l701.exe)
 ... and contract with generalized density number  0.
 Compute integral first derivatives.
 R6Disp: Adding Grimme-D2 dispersion energy 1st derivatives to the gradient.
 Leave Link  701 at Fri May 23 04:49:09 2025, MaxMem=  3758096384 cpu:               0.3 elap:               0.1
 (Enter /apps/easybuild-2022/easybuild/software/Compiler/NVHPC/22.11-CUDA-11.7.0/Gaussian/g16c01-CUDA-11.7.0/g16/l702.exe)
 L702 exits ... SP integral derivatives will be done elsewhere.
 Leave Link  702 at Fri May 23 04:49:09 2025, MaxMem=  3758096384 cpu:               0.0 elap:               0.0
 (Enter /apps/easybuild-2022/easybuild/software/Compiler/NVHPC/22.11-CUDA-11.7.0/Gaussian/g16c01-CUDA-11.7.0/g16/l703.exe)
 Integral derivatives from FoFJK, PRISM(SPDF).
 Compute integral first derivatives, UseDBF=F ICtDFT=           0.
 Calling FoFJK, ICntrl=      2127 FMM=F ISym2X=0 I1Cent= 0 IOpClX= 0 NMat=1 NMatS=1 NMatT=0.
 FoFJK:  IHMeth= 1 ICntrl=    2127 DoSepK=T KAlg= 0 I1Cent=           0 FoldK=F
 IRaf=         1 NMat=       1 IRICut=       1 DoRegI=T DoRafI=F ISym2E= 0 IDoP0=0 IntGTp=1.
 FoFCou: FMM=F IPFlag=           0 FMFlag=      100000 FMFlg1=         800
         NFxFlg=           0 DoJE=F BraDBF=F KetDBF=F FulRan=T
         wScrn=  0.000000 ICntrl=      2527 IOpCl=  0 I1Cent=           0 NGrid=           0
         NMat0=    1 NMatS0=      1 NMatT0=    0 NMatD0=    1 NMtDS0=    0 NMtDT0=    0
 Symmetry not used in FoFCou.
 Leave Link  703 at Fri May 23 04:49:13 2025, MaxMem=  3758096384 cpu:              31.4 elap:               4.0
 (Enter /apps/easybuild-2022/easybuild/software/Compiler/NVHPC/22.11-CUDA-11.7.0/Gaussian/g16c01-CUDA-11.7.0/g16/l716.exe)
 Dipole        = 9.59843142D-01-9.43815759D-01 3.66791308D-01
 Polarizability= 0.00000000D+00 0.00000000D+00 0.00000000D+00
                 0.00000000D+00 0.00000000D+00 0.00000000D+00
 -------------------------------------------------------------------
 Center     Atomic                   Forces (Hartrees/Bohr)
 Number     Number              X              Y              Z
 -------------------------------------------------------------------
      1        6           0.000158589    0.000217550    0.000078247
      2        6           0.000354893    0.000304986   -0.000230121
      3        9           0.000877714   -0.000981498   -0.000568467
      4        9           0.000096245    0.000000919    0.000244247
      5       16           0.002793046   -0.001149123   -0.000735959
      6        8          -0.000204331    0.000063931    0.000072875
      7        8          -0.000501232    0.000111427    0.000056779
      8        8          -0.003690369    0.001569388    0.001393588
      9        9           0.000014737   -0.000160295   -0.000194434
     10        9           0.000083553    0.000205419    0.000087982
     11        9           0.000032782    0.000042042   -0.000077201
     12        1          -0.000015626   -0.000224744   -0.000127535
 -------------------------------------------------------------------
 Cartesian Forces:  Max     0.003690369 RMS     0.000923127
 Leave Link  716 at Fri May 23 04:49:13 2025, MaxMem=  3758096384 cpu:               0.0 elap:               0.0
 (Enter /apps/easybuild-2022/easybuild/software/Compiler/NVHPC/22.11-CUDA-11.7.0/Gaussian/g16c01-CUDA-11.7.0/g16/l123.exe)
 IRC-IRC-IRC-IRC-IRC-IRC-IRC-IRC-IRC-IRC-IRC-IRC-IRC-IRC-IRC-IRC-IRC-IRC
 Pt  3 Step number   1 out of a maximum of  20
 Using modified Bulirsch-Stoer corrector integration.
   Using distance weighted interpolants to fit PES.
 PreDWI: IReCr0= 2 IReCr1= 1 IReCr2= 1 IReCr3= 1
 Modified Bulirsch-Stoer Extrapolation Cycles:
    EPS =    0.000010000000000
    Cycle     1 NS=    48
      PEZero:  N= 2 I= 1 D=  3.21D-04 Err=  2.18D-06
    Cycle     2 NS=    64 Truncation Error =  0.000002182
[...]
 Coeff-Com:  0.419D-02-0.378D-01-0.155D-01 0.948D-01 0.268D+00 0.687D+00
 Coeff:      0.419D-02-0.378D-01-0.155D-01 0.948D-01 0.268D+00 0.687D+00
 Gap=     0.346 Goal=   None    Shift=    0.000
 RMSDP=2.29D-07 MaxDP=1.43D-05 DE=-4.93D-09 OVMax= 9.33D-06

 Cycle   7  Pass 1  IDiag  1:
 E= -1199.62724978285     Delta-E=       -0.000000000524 Rises=F Damp=F
 DIIS: error= 7.08D-07 at cycle   7 NSaved=   7.
 NSaved= 7 IEnMin= 7 EnMin= -1199.62724978285     IErMin= 7 ErrMin= 7.08D-07
 ErrMax= 7.08D-07  0.00D+00 EMaxC= 1.00D-01 BMatC= 1.41D-10 BMatP= 5.25D-10
 IDIUse=1 WtCom= 1.00D+00 WtEn= 0.00D+00
 Coeff-Com:  0.516D-03 0.172D-02-0.716D-02-0.392D-01 0.987D-02 0.363D+00
 Coeff-Com:  0.671D+00
 Coeff:      0.516D-03 0.172D-02-0.716D-02-0.392D-01 0.987D-02 0.363D+00
 Coeff:      0.671D+00
 Gap=     0.346 Goal=   None    Shift=    0.000
 RMSDP=1.02D-07 MaxDP=3.44D-06 DE=-5.24D-10 OVMax= 5.72D-06

 Cycle   8  Pass 1  IDiag  1:
 E= -1199.62724978303     Delta-E=       -0.000000000179 Rises=F Damp=F
 DIIS: error= 2.60D-07 at cycle   8 NSaved=   8.
 NSaved= 8 IEnMin= 8 EnMin= -1199.62724978303     IErMin= 8 ErrMin= 2.60D-07
 ErrMax= 2.60D-07  0.00D+00 EMaxC= 1.00D-01 BMatC= 1.16D-11 BMatP= 1.41D-10
 IDIUse=1 WtCom= 1.00D+00 WtEn= 0.00D+00
 Coeff-Com: -0.402D-03 0.540D-02-0.381D-03-0.240D-01-0.374D-01-0.496D-02
 Coeff-Com:  0.202D+00 0.860D+00
 Coeff:     -0.402D-03 0.540D-02-0.381D-03-0.240D-01-0.374D-01-0.496D-02
 Coeff:      0.202D+00 0.860D+00
 Gap=     0.346 Goal=   None    Shift=    0.000
 RMSDP=4.36D-08 MaxDP=1.63D-06 DE=-1.79D-10 OVMax= 3.39D-06

 Cycle   9  Pass 1  IDiag  1:
 E= -1199.62724978304     Delta-E=       -0.000000000018 Rises=F Damp=F
 DIIS: error= 1.38D-07 at cycle   9 NSaved=   9.
 NSaved= 9 IEnMin= 9 EnMin= -1199.62724978304     IErMin= 9 ErrMin= 1.38D-07
 ErrMax= 1.38D-07  0.00D+00 EMaxC= 1.00D-01 BMatC= 2.91D-12 BMatP= 1.16D-11
 IDIUse=1 WtCom= 1.00D+00 WtEn= 0.00D+00
 Coeff-Com: -0.221D-03 0.182D-02 0.102D-02-0.339D-02-0.174D-01-0.590D-01
 Coeff-Com: -0.130D-01 0.388D+00 0.702D+00
 Coeff:     -0.221D-03 0.182D-02 0.102D-02-0.339D-02-0.174D-01-0.590D-01
 Coeff:     -0.130D-01 0.388D+00 0.702D+00
 Gap=     0.346 Goal=   None    Shift=    0.000
 RMSDP=1.86D-08 MaxDP=1.58D-06 DE=-1.77D-11 OVMax= 1.43D-06

 Cycle  10  Pass 1  IDiag  1:
 E= -1199.62724978305     Delta-E=       -0.000000000003 Rises=F Damp=F
 DIIS: error= 5.46D-08 at cycle  10 NSaved=  10.
 NSaved=10 IEnMin=10 EnMin= -1199.62724978305     IErMin=10 ErrMin= 5.46D-08
 ErrMax= 5.46D-08  0.00D+00 EMaxC= 1.00D-01 BMatC= 4.65D-13 BMatP= 2.91D-12
 IDIUse=1 WtCom= 1.00D+00 WtEn= 0.00D+00
 Coeff-Com:  0.381D-04-0.863D-03 0.624D-03 0.551D-02 0.406D-02-0.208D-01
 Coeff-Com: -0.621D-01-0.863D-01 0.248D+00 0.912D+00
 Coeff:      0.381D-04-0.863D-03 0.624D-03 0.551D-02 0.406D-02-0.208D-01
 Coeff:     -0.621D-01-0.863D-01 0.248D+00 0.912D+00
 Gap=     0.346 Goal=   None    Shift=    0.000
 RMSDP=8.06D-09 MaxDP=2.03D-07 DE=-2.73D-12 OVMax= 9.82D-07

 SCF Done:  E(RwB97XD) =  -1199.62724978     A.U. after   10 cycles
            NFock= 10  Conv=0.81D-08     -V/T= 2.0019
 KE= 1.197333978035D+03 PE=-4.558685102408D+03 EE= 1.306158224093D+03
 Leave Link  502 at Fri May 23 05:14:13 2025, MaxMem=  3758096384 cpu:              46.6 elap:               9.4
 (Enter /apps/easybuild-2022/easybuild/software/Compiler/NVHPC/22.11-CUDA-11.7.0/Gaussian/g16c01-CUDA-11.7.0/g16/l508.exe)
 QCSCF skips out because SCF is already converged.
 Leave Link  508 at Fri May 23 05:14:13 2025, MaxMem=  3758096384 cpu:               0.0 elap:               0.0
 (Enter /apps/easybuild-2022/easybuild/software/Compiler/NVHPC/22.11-CUDA-11.7.0/Gaussian/g16c01-CUDA-11.7.0/g16/l801.exe)
 DoSCS=F DFT=T ScalE2(SS,OS)=  1.000000  1.000000
 Range of M.O.s used for correlation:     1   257
 NBasis=   257 NAE=    49 NBE=    49 NFC=     0 NFV=     0
 NROrb=    257 NOA=    49 NOB=    49 NVA=   208 NVB=   208

 **** Warning!!: The largest alpha MO coefficient is  0.37147799D+02

 Leave Link  801 at Fri May 23 05:14:13 2025, MaxMem=  3758096384 cpu:               0.0 elap:               0.0
 (Enter /apps/easybuild-2022/easybuild/software/Compiler/NVHPC/22.11-CUDA-11.7.0/Gaussian/g16c01-CUDA-11.7.0/g16/l1101.exe)
 Leave Link 1101 at Fri May 23 05:14:13 2025, MaxMem=  3758096384 cpu:               0.0 elap:               0.0
 (Enter /apps/easybuild-2022/easybuild/software/Compiler/NVHPC/22.11-CUDA-11.7.0/Gaussian/g16c01-CUDA-11.7.0/g16/l1102.exe)
 Symmetrizing basis deriv contribution to polar:
 IMax=3 JMax=2 DiffMx= 0.00D+00
 Leave Link 1102 at Fri May 23 05:14:13 2025, MaxMem=  3758096384 cpu:               0.1 elap:               0.0
 (Enter /apps/easybuild-2022/easybuild/software/Compiler/NVHPC/22.11-CUDA-11.7.0/Gaussian/g16c01-CUDA-11.7.0/g16/l1110.exe)
 Leave Link 1110 at Fri May 23 05:14:13 2025, MaxMem=  3758096384 cpu:               0.0 elap:               0.0
 (Enter /apps/easybuild-2022/easybuild/software/Compiler/NVHPC/22.11-CUDA-11.7.0/Gaussian/g16c01-CUDA-11.7.0/g16/l1002.exe)
 Minotr:  Closed shell wavefunction.
 Leave Link 1002 at Fri May 23 05:14:13 2025, MaxMem=  3758096384 cpu:               0.0 elap:               0.0
 (Enter /apps/easybuild-2022/easybuild/software/Compiler/NVHPC/22.11-CUDA-11.7.0/Gaussian/g16c01-CUDA-11.7.0/g16/l701.exe)
 ... and contract with generalized density number  0.
 Compute integral first derivatives.
 R6Disp: Adding Grimme-D2 dispersion energy 1st derivatives to the gradient.
 Leave Link  701 at Fri May 23 05:14:14 2025, MaxMem=  3758096384 cpu:               0.4 elap:               0.1
 (Enter /apps/easybuild-2022/easybuild/software/Compiler/NVHPC/22.11-CUDA-11.7.0/Gaussian/g16c01-CUDA-11.7.0/g16/l702.exe)
 L702 exits ... SP integral derivatives will be done elsewhere.
 Leave Link  702 at Fri May 23 05:14:14 2025, MaxMem=  3758096384 cpu:               0.0 elap:               0.0
 (Enter /apps/easybuild-2022/easybuild/software/Compiler/NVHPC/22.11-CUDA-11.7.0/Gaussian/g16c01-CUDA-11.7.0/g16/l703.exe)
 Integral derivatives from FoFJK, PRISM(SPDF).
 Compute integral first derivatives, UseDBF=F ICtDFT=           0.
 Calling FoFJK, ICntrl=      2127 FMM=F ISym2X=0 I1Cent= 0 IOpClX= 0 NMat=1 NMatS=1 NMatT=0.
 FoFJK:  IHMeth= 1 ICntrl=    2127 DoSepK=T KAlg= 0 I1Cent=           0 FoldK=F
 IRaf=         1 NMat=       1 IRICut=       1 DoRegI=T DoRafI=F ISym2E= 0 IDoP0=0 IntGTp=1.
 FoFCou: FMM=F IPFlag=           0 FMFlag=      100000 FMFlg1=         800
         NFxFlg=           0 DoJE=F BraDBF=F KetDBF=F FulRan=T
         wScrn=  0.000000 ICntrl=      2527 IOpCl=  0 I1Cent=           0 NGrid=           0
         NMat0=    1 NMatS0=      1 NMatT0=    0 NMatD0=    1 NMtDS0=    0 NMtDT0=    0
 Symmetry not used in FoFCou.
 Leave Link  703 at Fri May 23 05:14:18 2025, MaxMem=  3758096384 cpu:              30.8 elap:               3.9
 (Enter /apps/easybuild-2022/easybuild/software/Compiler/NVHPC/22.11-CUDA-11.7.0/Gaussian/g16c01-CUDA-11.7.0/g16/l716.exe)
 Dipole        =-9.85259893D-02-6.06044810D-01 5.69856459D-01
 Polarizability= 0.00000000D+00 0.00000000D+00 0.00000000D+00
                 0.00000000D+00 0.00000000D+00 0.00000000D+00
 -------------------------------------------------------------------
 Center     Atomic                   Forces (Hartrees/Bohr)
 Number     Number              X              Y              Z
 -------------------------------------------------------------------
      1        6           0.000362380   -0.000080895   -0.000140664
      2        6           0.000742593   -0.000136186   -0.000167543
      3        9          -0.002653414    0.002053995    0.000359127
      4        9           0.000941077   -0.000148190   -0.000354809
      5       16           0.000958305   -0.000265746   -0.000156644
      6        8           0.000720577   -0.000103115   -0.000169601
      7        8           0.000608015   -0.000108298   -0.000171060
      8        8          -0.002723009   -0.000978968    0.001422304
      9        9           0.000240939   -0.000728821   -0.000436171
     10        9           0.000247857    0.000274238    0.000119685
     11        9           0.000668228    0.000099223   -0.000116951
     12        1          -0.000113547    0.000122764   -0.000187673
 -------------------------------------------------------------------
 Cartesian Forces:  Max     0.002723009 RMS     0.000866350
 Leave Link  716 at Fri May 23 05:14:18 2025, MaxMem=  3758096384 cpu:               0.0 elap:               0.0
 (Enter /apps/easybuild-2022/easybuild/software/Compiler/NVHPC/22.11-CUDA-11.7.0/Gaussian/g16c01-CUDA-11.7.0/g16/l123.exe)
 IRC-IRC-IRC-IRC-IRC-IRC-IRC-IRC-IRC-IRC-IRC-IRC-IRC-IRC-IRC-IRC-IRC-IRC
 Pt100 Step number   1 out of a maximum of  20
 Using modified Bulirsch-Stoer corrector integration.
   Using distance weighted interpolants to fit PES.
 PreDWI: IReCr0= 2 IReCr1= 1 IReCr2= 1 IReCr3= 1
 Modified Bulirsch-Stoer Extrapolation Cycles:
    EPS =    0.000010000000000
    Cycle     1 NS=    48
      PEZero:  N= 2 I= 1 D=  3.21D-04 Err=  2.87D-05
    Cycle     2 NS=    64 Truncation Error =  0.000028650
      PEZero:  N= 3 I= 2 D=  3.21D-04 Err=  1.90D-05
      PEZero:  N= 3 I= 1 D=  6.41D-04 Err=  1.48D-07
    Cycle     3 NS=    96 Truncation Error =  0.000000148
 BS completed in    3 cycles and     208 integration steps.
 Maximum DWI energy   std dev =  0.000001011 at pt    26
 Maximum DWI gradient std dev =  0.117919488 at pt    38
 SUMMARY OF CORRECTOR INTEGRATION:
   Predictor End Point Energy = -1199.627250
   Old End Point Energy       = -1199.627250
   Corrected End Point Energy = -1199.627251
   Predictor End-Start Dist.  =     0.061548
   Old End-Start Dist.        =     0.061548
   New End-Start Dist.        =     0.061388
   New End-Old End Dist.      =     0.005841
 CORRECTOR INTEGRATION CONVERGENCE:
   Recorrection delta-x convergence threshold:    0.010000
   Delta-x Convergence Met
 Point Number: 100          Path Number:   1
                    CURRENT STRUCTURE
                Cartesian Coordinates (Ang):                
 ---------------------------------------------------------------------
 Center     Atomic                     Coordinates (Angstroms)
 Number     Number                        X           Y           Z
 ---------------------------------------------------------------------
      1          6                    0.388084   -1.380792   -0.870657
      2          6                    0.653827   -0.442543    0.273157
      3          9                   -2.890339    1.655761    1.040154
      4          9                    1.031855   -1.020031    1.414615
      5         16                    0.615290    1.165433    0.234511
      6          8                    0.902952    1.827988    1.477737
      7          8                    0.242816    1.815608   -0.989597
      8          8                   -1.909930    0.675641    0.807802
      9          9                    1.527613   -1.840687   -1.402586
     10          9                   -0.291699   -2.438207   -0.410346
     11          9                   -0.320622   -0.809455   -1.834588
     12          1                   -2.034010    0.124630    1.595323
 ---------------------------------------------------------------------
   CHANGE IN THE REACTION COORDINATE =    0.06139
   NET REACTION COORDINATE UP TO THIS POINT =    6.15281
  # OF POINTS ALONG THE PATH = 100
  # OF STEPS =   1

 Maximum number of steps reached.
 Calculation of FORWARD path complete.
 Reaction path calculation complete.
 
 Energies reported relative to the TS energy of       -1199.598183
 --------------------------------------------------------------------------
    Summary of reaction path following
 --------------------------------------------------------------------------
                        Energy    RxCoord
   1                    0.00000   0.00000
   2                   -0.00001   0.06156
   3                   -0.00005   0.12310
   4                   -0.00012   0.18465
   5                   -0.00021   0.24620
   6                   -0.00033   0.30775
   7                   -0.00048   0.36930
   8                   -0.00065   0.43085
   9                   -0.00085   0.49240
  10                   -0.00107   0.55395
  11                   -0.00132   0.61550
  12                   -0.00160   0.67705
  13                   -0.00191   0.73860
  14                   -0.00224   0.80015
  15                   -0.00260   0.86171
  16                   -0.00299   0.92326
  17                   -0.00340   0.98481
  18                   -0.00385   1.04636
  19                   -0.00431   1.10791
  20                   -0.00480   1.16947
  21                   -0.00532   1.23102
  22                   -0.00585   1.29257
  23                   -0.00640   1.35412
  24                   -0.00696   1.41567
  25                   -0.00754   1.47723
  26                   -0.00812   1.53878
  27                   -0.00872   1.60033
  28                   -0.00932   1.66188
  29                   -0.00992   1.72343
  30                   -0.01053   1.78499
  31                   -0.01113   1.84654
  32                   -0.01173   1.90809
  33                   -0.01232   1.96964
  34                   -0.01290   2.03119
  35                   -0.01346   2.09273
  36                   -0.01401   2.15428
  37                   -0.01454   2.21583
  38                   -0.01505   2.27737
  39                   -0.01555   2.33891
  40                   -0.01602   2.40045
  41                   -0.01648   2.46199
  42                   -0.01692   2.52354
  43                   -0.01734   2.58508
  44                   -0.01776   2.64662
  45                   -0.01816   2.70817
  46                   -0.01854   2.76971
  47                   -0.01892   2.83126
  48                   -0.01928   2.89281
  49                   -0.01964   2.95436
  50                   -0.01998   3.01591
  51                   -0.02032   3.07746
  52                   -0.02064   3.13902
  53                   -0.02096   3.20057
  54                   -0.02127   3.26212
  55                   -0.02157   3.32367
  56                   -0.02186   3.38523
  57                   -0.02214   3.44678
  58                   -0.02241   3.50833
  59                   -0.02268   3.56988
  60                   -0.02294   3.63144
  61                   -0.02320   3.69299
  62                   -0.02345   3.75454
  63                   -0.02369   3.81609
  64                   -0.02392   3.87765
  65                   -0.02415   3.93920
  66                   -0.02437   4.00075
  67                   -0.02459   4.06230
  68                   -0.02479   4.12386
  69                   -0.02500   4.18541
  70                   -0.02519   4.24696
  71                   -0.02538   4.30851
  72                   -0.02557   4.37007
  73                   -0.02575   4.43162
  74                   -0.02592   4.49317
  75                   -0.02610   4.55473
  76                   -0.02626   4.61628
  77                   -0.02642   4.67783
  78                   -0.02658   4.73938
  79                   -0.02673   4.80094
  80                   -0.02688   4.86249
  81                   -0.02702   4.92404
  82                   -0.02715   4.98559
  83                   -0.02728   5.04714
  84                   -0.02741   5.10868
  85                   -0.02754   5.17017
  86                   -0.02766   5.23158
  87                   -0.02777   5.29298
  88                   -0.02788   5.35445
  89                   -0.02799   5.41597
  90                   -0.02810   5.47748
  91                   -0.02820   5.53896
  92                   -0.02830   5.60036
  93                   -0.02840   5.66180
  94                   -0.02849   5.72321
  95                   -0.02858   5.78467
  96                   -0.02867   5.84610
  97                   -0.02876   5.90748
  98                   -0.02884   5.96881
  99                   -0.02892   6.03009
 100                   -0.02899   6.09142
 101                   -0.02907   6.15281
 --------------------------------------------------------------------------
 
 Total number of points:                  100
 Total number of gradient calculations:   100
 Total number of Hessian calculations:      0
 IRC-IRC-IRC-IRC-IRC-IRC-IRC-IRC-IRC-IRC-IRC-IRC-IRC-IRC-IRC-IRC-IRC-IRC
 Leave Link  123 at Fri May 23 05:14:18 2025, MaxMem=  3758096384 cpu:               0.1 elap:               0.0
 (Enter /apps/easybuild-2022/easybuild/software/Compiler/NVHPC/22.11-CUDA-11.7.0/Gaussian/g16c01-CUDA-11.7.0/g16/l202.exe)
                          Input orientation:                          
 ---------------------------------------------------------------------
 Center     Atomic      Atomic             Coordinates (Angstroms)
 Number     Number       Type             X           Y           Z
 ---------------------------------------------------------------------
      1          6           0        0.388082   -1.380781   -0.870641
      2          6           0        0.653854   -0.442487    0.273124
      3          9           0       -2.890065    1.655371    1.040130
      4          9           0        1.031817   -1.020036    1.414631
      5         16           0        0.615321    1.165436    0.234496
      6          8           0        0.902944    1.827994    1.477738
      7          8           0        0.242836    1.815609   -0.989598
      8          8           0       -1.910196    0.676080    0.807843
      9          9           0        1.527600   -1.840688   -1.402574
     10          9           0       -0.291716   -2.438217   -0.410347
     11          9           0       -0.320633   -0.809460   -1.834591
     12          1           0       -2.034913    0.124620    1.595400
 ---------------------------------------------------------------------
                    Distance matrix (angstroms):
                    1          2          3          4          5
     1  C    0.000000
     2  C    1.503073   0.000000
     3  F    4.859580   4.189114   0.000000
     4  F    2.401457   1.333963   4.762270   0.000000
     5  S    2.784993   1.608848   3.629988   2.518427   0.000000
     6  O    4.009514   2.582290   3.822070   2.851642   1.437832
     7  O    3.201899   2.619618   3.736381   3.800485   1.435227
     8  O    3.511419   2.848064   1.404675   3.449702   2.635608
     9  F    1.339018   2.350821   6.140440   2.975889   3.542461
    10  F    1.338717   2.311746   5.060906   2.663366   3.771584
    11  F    1.325852   2.350905   4.576177   3.525749   3.009542
    12  H    3.770742   3.049507   1.839242   3.278376   3.155804
                    6          7          8          9         10
     6  O    0.000000
     7  O    2.554142   0.000000
     8  O    3.112783   3.027353   0.000000
     9  F    4.705913   3.897393   4.799844   0.000000
    10  F    4.815873   4.326235   3.715146   2.156725   0.000000
    11  F    4.407361   2.814694   3.422864   2.160100   2.163828
    12  H    3.397989   3.837942   0.969489   5.053888   3.691868
                   11         12
    11  F    0.000000
    12  H    3.946657   0.000000
 Symmetry turned off by external request.
 Stoichiometry    C2HF5O3S
 Rotational constants (GHZ):           1.2183507           0.6722441           0.5998378
 Leave Link  202 at Fri May 23 05:14:18 2025, MaxMem=  3758096384 cpu:               0.0 elap:               0.0
 (Enter /apps/easybuild-2022/easybuild/software/Compiler/NVHPC/22.11-CUDA-11.7.0/Gaussian/g16c01-CUDA-11.7.0/g16/l9999.exe)

 This type of calculation cannot be archived.


 THE PROGRESS OF RIVERS TO THE SEA IS NOT AS RAPID
 AS THAT OF MAN TO ERROR.
                                              -- VOLTAIRE
 Job cpu time:       0 days  2 hours 26 minutes 24.0 seconds.
 Elapsed time:       0 days  0 hours 25 minutes 36.6 seconds.
 File lengths (MBytes):  RWF=     31 Int=      0 D2E=      0 Chk=      8 Scr=      1
 Normal termination of Gaussian 16 at Fri May 23 05:14:18 2025.
done
