 Entering Gaussian System, Link 0=g16
 Initial command:
 /apps/easybuild-2022/easybuild/software/Compiler/NVHPC/22.11-CUDA-11.7.0/Gaussian/g16c01-CUDA-11.7.0/g16/l1.exe "/tmp/Gau-195486.inp" -scrdir="/tmp/"
 Entering Link 1 = /apps/easybuild-2022/easybuild/software/Compiler/NVHPC/22.11-CUDA-11.7.0/Gaussian/g16c01-CUDA-11.7.0/g16/l1.exe PID=    195487.
  
 Copyright (c) 1988-2019, Gaussian, Inc.  All Rights Reserved.
  
 This is part of the Gaussian(R) 16 program.  It is based on
 the Gaussian(R) 09 system (copyright 2009, Gaussian, Inc.),
 the Gaussian(R) 03 system (copyright 2003, Gaussian, Inc.),
 the Gaussian(R) 98 system (copyright 1998, Gaussian, Inc.),
 the Gaussian(R) 94 system (copyright 1995, Gaussian, Inc.),
 the Gaussian 92(TM) system (copyright 1992, Gaussian, Inc.),
 the Gaussian 90(TM) system (copyright 1990, Gaussian, Inc.),
 the Gaussian 88(TM) system (copyright 1988, Gaussian, Inc.),
 the Gaussian 86(TM) system (copyright 1986, Carnegie Mellon
 University), and the Gaussian 82(TM) system (copyright 1983,
 Carnegie Mellon University). Gaussian is a federally registered
 trademark of Gaussian, Inc.
  
 This software contains proprietary and confidential information,
 including trade secrets, belonging to Gaussian, Inc.
  
 This software is provided under written license and may be
 used, copied, transmitted, or stored only in accord with that
 written license.
  
 The following legend is applicable only to US Government
 contracts under FAR:
  
                    RESTRICTED RIGHTS LEGEND
  
 Use, reproduction and disclosure by the US Government is
 subject to restrictions as set forth in subparagraphs (a)
 and (c) of the Commercial Computer Software - Restricted
 Rights clause in FAR 52.227-19.
  
 Gaussian, Inc.
 340 Quinnipiac St., Bldg. 40, Wallingford CT 06492
  
  
 ---------------------------------------------------------------
 Warning -- This program may not be used in any manner that
 competes with the business of Gaussian, Inc. or will provide
 assistance to any competitor of Gaussian, Inc.  The licensee
 of this program is prohibited from giving any competitor of
 Gaussian, Inc. access to this program.  By using this program,
 the user acknowledges that Gaussian, Inc. is engaged in the
 business of creating and licensing software in the field of
 computational chemistry and represents and warrants to the
 licensee that it is not a competitor of Gaussian, Inc. and that
 it will not use this program in any manner prohibited above.
 ---------------------------------------------------------------
  

 Cite this work as:
 Gaussian 16, Revision C.01,
 M. J. Frisch, G. W. Trucks, H. B. Schlegel, G. E. Scuseria, 
 M. A. Robb, J. R. Cheeseman, G. Scalmani, V. Barone, 
 G. A. Petersson, H. Nakatsuji, X. Li, M. Caricato, A. V. Marenich, 
 J. Bloino, B. G. Janesko, R. Gomperts, B. Mennucci, H. P. Hratchian, 
 J. V. Ortiz, A. F. Izmaylov, J. L. Sonnenberg, D. Williams-Young, 
 F. Ding, F. Lipparini, F. Egidi, J. Goings, B. Peng, A. Petrone, 
 T. Henderson, D. Ranasinghe, V. G. Zakrzewski, J. Gao, N. Rega, 
 G. Zheng, W. Liang, M. Hada, M. Ehara, K. Toyota, R. Fukuda, 
 J. Hasegawa, M. Ishida, T. Nakajima, Y. Honda, O. Kitao, H. Nakai, 
 T. Vreven, K. Throssell, J. A. Montgomery, Jr., J. E. Peralta, 
 F. Ogliaro, M. J. Bearpark, J. J. Heyd, E. N. Brothers, K. N. Kudin, 
 V. N. Staroverov, T. A. Keith, R. Kobayashi, J. Normand, 
 K. Raghavachari, A. P. Rendell, J. C. Burant, S. S. Iyengar, 
 J. Tomasi, M. Cossi, J. M. Millam, M. Klene, C. Adamo, R. Cammi, 
 J. W. Ochterski, R. L. Martin, K. Morokuma, O. Farkas, 
 J. B. Foresman, and D. J. Fox, Gaussian, Inc., Wallingford CT, 2019.
 
 ******************************************
 Gaussian 16:  ES64L-G16RevC.01  3-Jul-2019
                23-May-2025 
 ******************************************
 %mem=28GB
 %chk=2003846667223680600001_r12_insertion_R_12_8_5_IRC_R_prod
 %nprocshared=8
 Will use up to    8 processors via shared memory.
 ----------------------------------------------------------------------
 #P wb97xd/6-311++G(d,p) Symm(None) scf(xqc) pop(None) freq opt(CalcFC)
 ----------------------------------------------------------------------
 1/10=4,18=20,19=15,26=3,38=1/1,3;
 2/9=110,12=2,15=3,17=6,18=5,40=1/2;
 3/5=4,6=6,7=1111,11=2,25=1,30=1,71=2,74=-58,140=1/1,2,3;
 4//1;
 5/5=2,8=3,13=1,38=5/2,8;
 8/6=4,10=90,11=11/1;
 11/6=1,8=1,9=11,15=111,16=1,31=1/1,2,10;
 10/6=1,13=1,31=1/2;
 7/10=1,25=1,30=1/1,2,3,16;
 1/10=4,18=20,19=15,26=3/3(2);
 2/9=110,15=3/2;
 99//99;
 2/9=110,15=3/2;
 3/5=4,6=6,7=1111,11=2,25=1,30=1,71=1,74=-58/1,2,3;
 4/5=5,16=3,69=1/1;
 5/5=2,8=3,13=1,38=5/2,8;
 7/30=1/1,2,3,16;
 1/18=20,19=15,26=3/3(-5);
 2/9=110,15=3/2;
 99/9=1/99;
 Leave Link    1 at Fri May 23 04:09:19 2025, MaxMem=  3758096384 cpu:               0.0 elap:               0.0
 (Enter /apps/easybuild-2022/easybuild/software/Compiler/NVHPC/22.11-CUDA-11.7.0/Gaussian/g16c01-CUDA-11.7.0/g16/l101.exe)
 ------------------------------
 Gaussian input prepared by ASE
 ------------------------------
 Symbolic Z-matrix:
 Charge =  0 Multiplicity = 1
 C                    -1.24518  -0.36666   0.76285 
 C                    -0.4667    0.15746  -0.47608 
 F                    -0.77767  -0.58619  -1.53857 
 F                    -0.79932   1.4245   -0.7089 
 S                     1.41298   0.08349  -0.35091 
 O                     1.8052    1.31163   0.59755 
 O                     1.73759  -1.20954   0.1722 
 O                     1.91408   0.57882  -1.60828 
 F                    -1.12258  -1.67806   0.87544 
 F                    -0.77679   0.21776   1.86139 
 F                    -2.53212  -0.06271   0.62647 
 H                     2.21874   1.94283  -0.00867 
 
 ITRead=  0  0  0  0  0  0  0  0  0  0  0  0
 MicOpt= -1 -1 -1 -1 -1 -1 -1 -1 -1 -1 -1 -1
 NAtoms=     12 NQM=       12 NQMF=       0 NMMI=      0 NMMIF=      0
                NMic=       0 NMicF=      0.
                    Isotopes and Nuclear Properties:
 (Nuclear quadrupole moments (NQMom) in fm**2, nuclear magnetic moments (NMagM)
  in nuclear magnetons)

  Atom         1           2           3           4           5           6           7           8           9          10
 IAtWgt=          12          12          19          19          32          16          16          16          19          19
 AtmWgt=  12.0000000  12.0000000  18.9984032  18.9984032  31.9720718  15.9949146  15.9949146  15.9949146  18.9984032  18.9984032
 NucSpn=           0           0           1           1           0           0           0           0           1           1
 AtZEff=  -0.0000000  -0.0000000  -0.0000000  -0.0000000  -0.0000000  -0.0000000  -0.0000000  -0.0000000  -0.0000000  -0.0000000
 NQMom=    0.0000000   0.0000000   0.0000000   0.0000000   0.0000000   0.0000000   0.0000000   0.0000000   0.0000000   0.0000000
 NMagM=    0.0000000   0.0000000   2.6288670   2.6288670   0.0000000   0.0000000   0.0000000   0.0000000   2.6288670   2.6288670
 AtZNuc=   6.0000000   6.0000000   9.0000000   9.0000000  16.0000000   8.0000000   8.0000000   8.0000000   9.0000000   9.0000000

  Atom        11          12
 IAtWgt=          19           1
 AtmWgt=  18.9984032   1.0078250
 NucSpn=           1           1
 AtZEff=  -0.0000000  -0.0000000
 NQMom=    0.0000000   0.0000000
 NMagM=    2.6288670   2.7928460
 AtZNuc=   9.0000000   1.0000000
 Leave Link  101 at Fri May 23 04:09:19 2025, MaxMem=  3758096384 cpu:               0.2 elap:               0.2
 (Enter /apps/easybuild-2022/easybuild/software/Compiler/NVHPC/22.11-CUDA-11.7.0/Gaussian/g16c01-CUDA-11.7.0/g16/l103.exe)

 GradGradGradGradGradGradGradGradGradGradGradGradGradGradGradGradGradGrad
 Berny optimization.
 Initialization pass.
                           ----------------------------
                           !    Initial Parameters    !
                           ! (Angstroms and Degrees)  !
 --------------------------                            --------------------------
 ! Name  Definition              Value          Derivative Info.                !
 --------------------------------------------------------------------------------
 ! R1    R(1,2)                  1.5542         calculate D2E/DX2 analytically  !
 ! R2    R(1,9)                  1.3219         calculate D2E/DX2 analytically  !
 ! R3    R(1,10)                 1.3296         calculate D2E/DX2 analytically  !
 ! R4    R(1,11)                 1.3294         calculate D2E/DX2 analytically  !
 ! R5    R(2,3)                  1.3336         calculate D2E/DX2 analytically  !
 ! R6    R(2,4)                  1.3305         calculate D2E/DX2 analytically  !
 ! R7    R(2,5)                  1.8853         calculate D2E/DX2 analytically  !
 ! R8    R(5,6)                  1.6005         calculate D2E/DX2 analytically  !
 ! R9    R(5,7)                  1.4321         calculate D2E/DX2 analytically  !
 ! R10   R(5,8)                  1.4413         calculate D2E/DX2 analytically  !
 ! R11   R(6,12)                 0.968          calculate D2E/DX2 analytically  !
 ! A1    A(2,1,9)              110.8531         calculate D2E/DX2 analytically  !
 ! A2    A(2,1,10)             109.5086         calculate D2E/DX2 analytically  !
 ! A3    A(2,1,11)             109.027          calculate D2E/DX2 analytically  !
 ! A4    A(9,1,10)             109.4518         calculate D2E/DX2 analytically  !
 ! A5    A(9,1,11)             108.9864         calculate D2E/DX2 analytically  !
 ! A6    A(10,1,11)            108.984          calculate D2E/DX2 analytically  !
 ! A7    A(1,2,3)              109.2829         calculate D2E/DX2 analytically  !
 ! A8    A(1,2,4)              109.5971         calculate D2E/DX2 analytically  !
 ! A9    A(1,2,5)              115.6726         calculate D2E/DX2 analytically  !
 ! A10   A(3,2,4)              109.4698         calculate D2E/DX2 analytically  !
 ! A11   A(3,2,5)              105.2777         calculate D2E/DX2 analytically  !
 ! A12   A(4,2,5)              107.3512         calculate D2E/DX2 analytically  !
 ! A13   A(2,5,6)              104.6885         calculate D2E/DX2 analytically  !
 ! A14   A(2,5,7)              106.5984         calculate D2E/DX2 analytically  !
 ! A15   A(2,5,8)              105.9755         calculate D2E/DX2 analytically  !
 ! A16   A(6,5,7)              114.8857         calculate D2E/DX2 analytically  !
 ! A17   A(6,5,8)               99.675          calculate D2E/DX2 analytically  !
 ! A18   A(7,5,8)              123.3761         calculate D2E/DX2 analytically  !
 ! A19   A(5,6,12)             103.5289         calculate D2E/DX2 analytically  !
 ! D1    D(9,1,2,3)             48.7797         calculate D2E/DX2 analytically  !
 ! D2    D(9,1,2,4)            168.7395         calculate D2E/DX2 analytically  !
 ! D3    D(9,1,2,5)            -69.7689         calculate D2E/DX2 analytically  !
 ! D4    D(10,1,2,3)           169.6448         calculate D2E/DX2 analytically  !
 ! D5    D(10,1,2,4)           -70.3954         calculate D2E/DX2 analytically  !
 ! D6    D(10,1,2,5)            51.0961         calculate D2E/DX2 analytically  !
 ! D7    D(11,1,2,3)           -71.196          calculate D2E/DX2 analytically  !
 ! D8    D(11,1,2,4)            48.7638         calculate D2E/DX2 analytically  !
 ! D9    D(11,1,2,5)           170.2554         calculate D2E/DX2 analytically  !
 ! D10   D(1,2,5,6)            -76.6892         calculate D2E/DX2 analytically  !
 ! D11   D(1,2,5,7)             45.4568         calculate D2E/DX2 analytically  !
 ! D12   D(1,2,5,8)            178.4922         calculate D2E/DX2 analytically  !
 ! D13   D(3,2,5,6)            162.5721         calculate D2E/DX2 analytically  !
 ! D14   D(3,2,5,7)            -75.2819         calculate D2E/DX2 analytically  !
 ! D15   D(3,2,5,8)             57.7535         calculate D2E/DX2 analytically  !
 ! D16   D(4,2,5,6)             45.9991         calculate D2E/DX2 analytically  !
 ! D17   D(4,2,5,7)            168.1451         calculate D2E/DX2 analytically  !
 ! D18   D(4,2,5,8)            -58.8195         calculate D2E/DX2 analytically  !
 ! D19   D(2,5,6,12)          -108.5682         calculate D2E/DX2 analytically  !
 ! D20   D(7,5,6,12)           134.8717         calculate D2E/DX2 analytically  !
 ! D21   D(8,5,6,12)             0.9023         calculate D2E/DX2 analytically  !
 --------------------------------------------------------------------------------
 Trust Radius=3.00D-01 FncErr=1.00D-07 GrdErr=1.00D-06 EigMax=2.50D+02 EigMin=1.00D-04
 Number of steps in this run=     61 maximum allowed number of steps=    100.
 GradGradGradGradGradGradGradGradGradGradGradGradGradGradGradGradGradGrad

 Leave Link  103 at Fri May 23 04:09:19 2025, MaxMem=  3758096384 cpu:               0.0 elap:               0.0
 (Enter /apps/easybuild-2022/easybuild/software/Compiler/NVHPC/22.11-CUDA-11.7.0/Gaussian/g16c01-CUDA-11.7.0/g16/l202.exe)
                          Input orientation:                          
 ---------------------------------------------------------------------
 Center     Atomic      Atomic             Coordinates (Angstroms)
 Number     Number       Type             X           Y           Z
 ---------------------------------------------------------------------
      1          6           0       -1.245178   -0.366658    0.762846
      2          6           0       -0.466701    0.157455   -0.476079
      3          9           0       -0.777670   -0.586194   -1.538566
      4          9           0       -0.799321    1.424501   -0.708904
      5         16           0        1.412982    0.083493   -0.350906
      6          8           0        1.805197    1.311626    0.597551
      7          8           0        1.737588   -1.209537    0.172199
      8          8           0        1.914083    0.578822   -1.608280
      9          9           0       -1.122583   -1.678057    0.875436
     10          9           0       -0.776793    0.217759    1.861391
     11          9           0       -2.532120   -0.062705    0.626471
     12          1           0        2.218740    1.942829   -0.008671
 ---------------------------------------------------------------------
                    Distance matrix (angstroms):
                    1          2          3          4          5
     1  C    0.000000
     2  C    1.554238   0.000000
     3  F    2.358656   1.333639   0.000000
     4  F    2.360739   1.330507   2.175248   0.000000
     5  S    2.917001   1.885298   2.580305   2.611656   0.000000
     6  O    3.485505   2.765197   3.851742   2.916004   1.600536
     7  O    3.155345   2.673541   3.105124   3.761703   1.432108
     8  O    4.061662   2.669749   2.933881   2.981042   1.441334
     9  F    1.321920   2.371893   2.671804   3.498642   3.322057
    10  F    1.329560   2.358720   3.493716   2.839569   3.115670
    11  F    1.329363   2.351604   2.835405   2.645298   4.066998
    12  H    4.234111   3.258470   4.208920   3.141287   2.055116
                    6          7          8          9         10
     6  O    0.000000
     7  O    2.557686   0.000000
     8  O    2.326918   2.529720   0.000000
     9  F    4.193724   2.982387   4.525891   0.000000
    10  F    3.075794   3.348530   4.405655   2.164670   0.000000
    11  F    4.549939   4.444321   5.017409   2.158273   2.164454
    12  H    0.967957   3.193999   2.124166   5.005687   3.930167
                   11         12
    11  F    0.000000
    12  H    5.195791   0.000000
 Symmetry turned off by external request.
 Stoichiometry    C2HF5O3S
 Rotational constants (GHZ):           1.5920937           0.8144790           0.7745568
 Leave Link  202 at Fri May 23 04:09:19 2025, MaxMem=  3758096384 cpu:               0.0 elap:               0.0
 (Enter /apps/easybuild-2022/easybuild/software/Compiler/NVHPC/22.11-CUDA-11.7.0/Gaussian/g16c01-CUDA-11.7.0/g16/l301.exe)
 Standard basis: 6-311++G(d,p) (5D, 7F)
 Ernie: Thresh=  0.10000D-02 Tol=  0.10000D-05 Strict=F.
   257 basis functions,   419 primitive gaussians,   268 cartesian basis functions
    49 alpha electrons       49 beta electrons
       nuclear repulsion energy       920.8594263437 Hartrees.
 IExCor= 4639 DFT=T Ex+Corr=wB97XD ExCW=0 ScaHFX=  1.000000
 ScaDFX=  1.000000  1.000000  1.000000  1.000000 ScalE2=  1.000000  1.000000
 IRadAn=      5 IRanWt=     -1 IRanGd=            0 ICorTp=0 IEmpDi=121
 HFx  wShort=  0.000000 wLong=  0.200000 cFull=  0.222036 cShort=  0.000000 cLong=  0.777964
 DFx  wShort=  0.000000 wLong=  0.200000 cFull=  0.000000 cShort=  0.000000 cLong=  1.000000
 NAtoms=   12 NActive=   12 NUniq=   12 SFac= 1.00D+00 NAtFMM=   60 NAOKFM=F Big=F
 Integral buffers will be    131072 words long.
 Raffenetti 2 integral format.
 Two-electron integral symmetry is turned off.
 R6Disp:  Grimme-D2 Dispersion energy=       -0.0054696107 Hartrees.
 Nuclear repulsion after empirical dispersion term =      920.8539567330 Hartrees.
 Leave Link  301 at Fri May 23 04:09:19 2025, MaxMem=  3758096384 cpu:               0.0 elap:               0.0
 (Enter /apps/easybuild-2022/easybuild/software/Compiler/NVHPC/22.11-CUDA-11.7.0/Gaussian/g16c01-CUDA-11.7.0/g16/l302.exe)
 NPDir=0 NMtPBC=     1 NCelOv=     1 NCel=       1 NClECP=     1 NCelD=      1
         NCelK=      1 NCelE2=     1 NClLst=     1 CellRange=     0.0.
 One-electron integrals computed using PRISM.
 NBasis=   257 RedAO= T EigKep=  6.75D-05  NBF=   257
 NBsUse=   257 1.00D-06 EigRej= -1.00D+00 NBFU=   257
 Precomputing XC quadrature grid using
 IXCGrd= 4 IRadAn=           5 IRanWt=          -1 IRanGd=           0 AccXCQ= 0.00D+00.
 Generated NRdTot=       0 NPtTot=           0 NUsed=           0 NTot=          32
 NSgBfM=   268   268   268   268   268 MxSgAt=    12 MxSgA2=    12.
 Leave Link  302 at Fri May 23 04:09:20 2025, MaxMem=  3758096384 cpu:               0.5 elap:               0.1
 (Enter /apps/easybuild-2022/easybuild/software/Compiler/NVHPC/22.11-CUDA-11.7.0/Gaussian/g16c01-CUDA-11.7.0/g16/l303.exe)
 DipDrv:  MaxL=1.
 Leave Link  303 at Fri May 23 04:09:20 2025, MaxMem=  3758096384 cpu:               0.1 elap:               0.0
 (Enter /apps/easybuild-2022/easybuild/software/Compiler/NVHPC/22.11-CUDA-11.7.0/Gaussian/g16c01-CUDA-11.7.0/g16/l401.exe)
 ExpMin= 3.60D-02 ExpMax= 9.34D+04 ExpMxC= 3.17D+03 IAcc=3 IRadAn=         5 AccDes= 0.00D+00
 Harris functional with IExCor= 4639 and IRadAn=       5 diagonalized for initial guess.
 HarFok:  IExCor= 4639 AccDes= 0.00D+00 IRadAn=         5 IDoV= 1 UseB2=F ITyADJ=14
 ICtDFT=  3500011 ScaDFX=  1.000000  1.000000  1.000000  1.000000
 FoFCou: FMM=F IPFlag=           0 FMFlag=      100000 FMFlg1=           0
         NFxFlg=           0 DoJE=T BraDBF=F KetDBF=T FulRan=T
         wScrn=  0.000000 ICntrl=       500 IOpCl=  0 I1Cent=   200000004 NGrid=           0
         NMat0=    1 NMatS0=      1 NMatT0=    0 NMatD0=    1 NMtDS0=    0 NMtDT0=    0
 Symmetry not used in FoFCou.
 Harris En= -1167.09918779207    
 JPrj=0 DoOrth=F DoCkMO=F.
 Leave Link  401 at Fri May 23 04:09:20 2025, MaxMem=  3758096384 cpu:               2.5 elap:               0.4
 (Enter /apps/easybuild-2022/easybuild/software/Compiler/NVHPC/22.11-CUDA-11.7.0/Gaussian/g16c01-CUDA-11.7.0/g16/l502.exe)
 Keep R1 ints in memory in canonical form, NReq=1117474609.
 FoFCou: FMM=F IPFlag=           0 FMFlag=           0 FMFlg1=           0
         NFxFlg=           0 DoJE=F BraDBF=F KetDBF=F FulRan=T
         wScrn=  0.000000 ICntrl=       600 IOpCl=  0 I1Cent=           0 NGrid=           0
         NMat0=    1 NMatS0=  33153 NMatT0=    0 NMatD0=    1 NMtDS0=    0 NMtDT0=    0
 Symmetry not used in FoFCou.
 Two-electron integral symmetry not used.
 Closed shell SCF:
 Using DIIS extrapolation, IDIIS=  1040.
 NGot=  3758096384 LenX=  2658793876 LenY=  2658721611
 Requested convergence on RMS density matrix=1.00D-08 within  32 cycles.
 Requested convergence on MAX density matrix=1.00D-06.
 Requested convergence on             energy=1.00D-06.
 No special actions if energy rises.

 Cycle   1  Pass 1  IDiag  1:
 E= -1199.13548857570    
 DIIS: error= 1.00D-01 at cycle   1 NSaved=   1.
 NSaved= 1 IEnMin= 1 EnMin= -1199.13548857570     IErMin= 1 ErrMin= 1.00D-01
 ErrMax= 1.00D-01  0.00D+00 EMaxC= 1.00D-01 BMatC= 3.34D+00 BMatP= 3.34D+00
 IDIUse=3 WtCom= 0.00D+00 WtEn= 1.00D+00
 Coeff-Com:  0.100D+01
 Coeff-En:   0.100D+01
 Coeff:      0.100D+01
 Gap=     0.676 Goal=   None    Shift=    0.000
 GapD=    0.676 DampG=2.000 DampE=0.250 DampFc=0.5000 IDamp=-1.
 Damping current iteration by 5.00D-01
 RMSDP=7.61D-03 MaxDP=4.68D-01              OVMax= 1.74D-01

 Cycle   2  Pass 1  IDiag  1:
 E= -1199.48789475037     Delta-E=       -0.352406174666 Rises=F Damp=T
 DIIS: error= 4.35D-02 at cycle   2 NSaved=   2.
 NSaved= 2 IEnMin= 2 EnMin= -1199.48789475037     IErMin= 2 ErrMin= 4.35D-02
 ErrMax= 4.35D-02  0.00D+00 EMaxC= 1.00D-01 BMatC= 4.80D-01 BMatP= 3.34D+00
 IDIUse=3 WtCom= 5.65D-01 WtEn= 4.35D-01
 Coeff-Com: -0.397D+00 0.140D+01
 Coeff-En:   0.000D+00 0.100D+01
 Coeff:     -0.224D+00 0.122D+01
 Gap=     0.539 Goal=   None    Shift=    0.000
 RMSDP=2.66D-03 MaxDP=1.44D-01 DE=-3.52D-01 OVMax= 9.68D-02

 Cycle   3  Pass 1  IDiag  1:
 E= -1199.77388939150     Delta-E=       -0.285994641133 Rises=F Damp=F
 DIIS: error= 1.03D-02 at cycle   3 NSaved=   3.
 NSaved= 3 IEnMin= 3 EnMin= -1199.77388939150     IErMin= 3 ErrMin= 1.03D-02
 ErrMax= 1.03D-02  0.00D+00 EMaxC= 1.00D-01 BMatC= 7.20D-02 BMatP= 4.80D-01
 IDIUse=3 WtCom= 8.97D-01 WtEn= 1.03D-01
 Coeff-Com: -0.176D+00 0.493D+00 0.683D+00
 Coeff-En:   0.000D+00 0.000D+00 0.100D+01
 Coeff:     -0.158D+00 0.443D+00 0.715D+00
 Gap=     0.468 Goal=   None    Shift=    0.000
 RMSDP=2.42D-03 MaxDP=1.22D-01 DE=-2.86D-01 OVMax= 5.83D-02

 Cycle   4  Pass 1  IDiag  1:
 E= -1199.80801323257     Delta-E=       -0.034123841073 Rises=F Damp=F
 DIIS: error= 5.10D-03 at cycle   4 NSaved=   4.
 NSaved= 4 IEnMin= 4 EnMin= -1199.80801323257     IErMin= 4 ErrMin= 5.10D-03
 ErrMax= 5.10D-03  0.00D+00 EMaxC= 1.00D-01 BMatC= 1.60D-02 BMatP= 7.20D-02
 IDIUse=3 WtCom= 9.49D-01 WtEn= 5.10D-02
 Coeff-Com: -0.419D-01 0.100D+00 0.353D+00 0.589D+00
 Coeff-En:   0.000D+00 0.000D+00 0.179D+00 0.821D+00
 Coeff:     -0.397D-01 0.949D-01 0.344D+00 0.601D+00
 Gap=     0.472 Goal=   None    Shift=    0.000
 RMSDP=1.04D-03 MaxDP=5.71D-02 DE=-3.41D-02 OVMax= 2.26D-02

 Cycle   5  Pass 1  IDiag  1:
 E= -1199.81794806723     Delta-E=       -0.009934834660 Rises=F Damp=F
 DIIS: error= 1.30D-03 at cycle   5 NSaved=   5.
 NSaved= 5 IEnMin= 5 EnMin= -1199.81794806723     IErMin= 5 ErrMin= 1.30D-03
 ErrMax= 1.30D-03  0.00D+00 EMaxC= 1.00D-01 BMatC= 8.59D-04 BMatP= 1.60D-02
 IDIUse=3 WtCom= 9.87D-01 WtEn= 1.30D-02
 Coeff-Com: -0.117D-01 0.251D-01 0.149D+00 0.321D+00 0.517D+00
 Coeff-En:   0.000D+00 0.000D+00 0.000D+00 0.000D+00 0.100D+01
 Coeff:     -0.115D-01 0.248D-01 0.147D+00 0.317D+00 0.523D+00
 Gap=     0.466 Goal=   None    Shift=    0.000
 RMSDP=1.68D-04 MaxDP=7.94D-03 DE=-9.93D-03 OVMax= 4.60D-03

 Cycle   6  Pass 1  IDiag  1:
 E= -1199.81846388334     Delta-E=       -0.000515816112 Rises=F Damp=F
 DIIS: error= 1.41D-04 at cycle   6 NSaved=   6.
 NSaved= 6 IEnMin= 6 EnMin= -1199.81846388334     IErMin= 6 ErrMin= 1.41D-04
 ErrMax= 1.41D-04  0.00D+00 EMaxC= 1.00D-01 BMatC= 1.74D-05 BMatP= 8.59D-04
 IDIUse=3 WtCom= 9.99D-01 WtEn= 1.41D-03
 Coeff-Com:  0.189D-02-0.498D-02 0.159D-02 0.265D-01 0.131D+00 0.844D+00
 Coeff-En:   0.000D+00 0.000D+00 0.000D+00 0.000D+00 0.000D+00 0.100D+01
 Coeff:      0.189D-02-0.498D-02 0.159D-02 0.265D-01 0.131D+00 0.844D+00
 Gap=     0.465 Goal=   None    Shift=    0.000
 RMSDP=3.79D-05 MaxDP=1.58D-03 DE=-5.16D-04 OVMax= 8.60D-04

 Cycle   7  Pass 1  IDiag  1:
 E= -1199.81848002395     Delta-E=       -0.000016140600 Rises=F Damp=F
 DIIS: error= 5.18D-05 at cycle   7 NSaved=   7.
 NSaved= 7 IEnMin= 7 EnMin= -1199.81848002395     IErMin= 7 ErrMin= 5.18D-05
 ErrMax= 5.18D-05  0.00D+00 EMaxC= 1.00D-01 BMatC= 1.82D-06 BMatP= 1.74D-05
 IDIUse=1 WtCom= 1.00D+00 WtEn= 0.00D+00
 Coeff-Com:  0.152D-02-0.346D-02-0.114D-01-0.180D-01-0.140D-01 0.227D+00
 Coeff-Com:  0.819D+00
 Coeff:      0.152D-02-0.346D-02-0.114D-01-0.180D-01-0.140D-01 0.227D+00
 Coeff:      0.819D+00
 Gap=     0.465 Goal=   None    Shift=    0.000
 RMSDP=1.60D-05 MaxDP=7.71D-04 DE=-1.61D-05 OVMax= 4.62D-04

 Cycle   8  Pass 1  IDiag  1:
 E= -1199.81848107013     Delta-E=       -0.000001046186 Rises=F Damp=F
 DIIS: error= 4.01D-05 at cycle   8 NSaved=   8.
 NSaved= 8 IEnMin= 8 EnMin= -1199.81848107013     IErMin= 8 ErrMin= 4.01D-05
 ErrMax= 4.01D-05  0.00D+00 EMaxC= 1.00D-01 BMatC= 9.31D-07 BMatP= 1.82D-06
 IDIUse=1 WtCom= 1.00D+00 WtEn= 0.00D+00
 Coeff-Com:  0.734D-03-0.160D-02-0.711D-02-0.138D-01-0.229D-01 0.500D-01
 Coeff-Com:  0.502D+00 0.493D+00
 Coeff:      0.734D-03-0.160D-02-0.711D-02-0.138D-01-0.229D-01 0.500D-01
 Coeff:      0.502D+00 0.493D+00
 Gap=     0.465 Goal=   None    Shift=    0.000
 RMSDP=5.56D-06 MaxDP=2.04D-04 DE=-1.05D-06 OVMax= 2.10D-04

 Cycle   9  Pass 1  IDiag  1:
 E= -1199.81848171695     Delta-E=       -0.000000646820 Rises=F Damp=F
 DIIS: error= 4.50D-06 at cycle   9 NSaved=   9.
 NSaved= 9 IEnMin= 9 EnMin= -1199.81848171695     IErMin= 9 ErrMin= 4.50D-06
 ErrMax= 4.50D-06  0.00D+00 EMaxC= 1.00D-01 BMatC= 8.75D-09 BMatP= 9.31D-07
 IDIUse=1 WtCom= 1.00D+00 WtEn= 0.00D+00
 Coeff-Com:  0.843D-05-0.806D-05-0.312D-03-0.102D-02-0.194D-02-0.352D-02
 Coeff-Com:  0.173D-01 0.615D-01 0.928D+00
 Coeff:      0.843D-05-0.806D-05-0.312D-03-0.102D-02-0.194D-02-0.352D-02
 Coeff:      0.173D-01 0.615D-01 0.928D+00
 Gap=     0.465 Goal=   None    Shift=    0.000
 RMSDP=2.17D-06 MaxDP=1.38D-04 DE=-6.47D-07 OVMax= 3.83D-05

 Cycle  10  Pass 1  IDiag  1:
 E= -1199.81848172808     Delta-E=       -0.000000011126 Rises=F Damp=F
 DIIS: error= 2.70D-06 at cycle  10 NSaved=  10.
 NSaved=10 IEnMin=10 EnMin= -1199.81848172808     IErMin=10 ErrMin= 2.70D-06
 ErrMax= 2.70D-06  0.00D+00 EMaxC= 1.00D-01 BMatC= 4.00D-09 BMatP= 8.75D-09
 IDIUse=1 WtCom= 1.00D+00 WtEn= 0.00D+00
 Coeff-Com: -0.779D-04 0.174D-03 0.590D-03 0.934D-03 0.131D-02-0.787D-02
 Coeff-Com: -0.462D-01-0.239D-01 0.458D+00 0.617D+00
 Coeff:     -0.779D-04 0.174D-03 0.590D-03 0.934D-03 0.131D-02-0.787D-02
 Coeff:     -0.462D-01-0.239D-01 0.458D+00 0.617D+00
 Gap=     0.465 Goal=   None    Shift=    0.000
 RMSDP=5.04D-07 MaxDP=2.15D-05 DE=-1.11D-08 OVMax= 1.32D-05

 Cycle  11  Pass 1  IDiag  1:
 E= -1199.81848173117     Delta-E=       -0.000000003094 Rises=F Damp=F
 DIIS: error= 7.80D-07 at cycle  11 NSaved=  11.
 NSaved=11 IEnMin=11 EnMin= -1199.81848173117     IErMin=11 ErrMin= 7.80D-07
 ErrMax= 7.80D-07  0.00D+00 EMaxC= 1.00D-01 BMatC= 2.11D-10 BMatP= 4.00D-09
 IDIUse=1 WtCom= 1.00D+00 WtEn= 0.00D+00
 Coeff-Com: -0.204D-04 0.439D-04 0.167D-03 0.368D-03 0.579D-03-0.104D-02
 Coeff-Com: -0.136D-01-0.143D-01-0.907D-02 0.151D+00 0.886D+00
 Coeff:     -0.204D-04 0.439D-04 0.167D-03 0.368D-03 0.579D-03-0.104D-02
 Coeff:     -0.136D-01-0.143D-01-0.907D-02 0.151D+00 0.886D+00
 Gap=     0.465 Goal=   None    Shift=    0.000
 RMSDP=2.54D-07 MaxDP=1.55D-05 DE=-3.09D-09 OVMax= 5.34D-06

 Cycle  12  Pass 1  IDiag  1:
 E= -1199.81848173142     Delta-E=       -0.000000000253 Rises=F Damp=F
 DIIS: error= 1.32D-07 at cycle  12 NSaved=  12.
 NSaved=12 IEnMin=12 EnMin= -1199.81848173142     IErMin=12 ErrMin= 1.32D-07
 ErrMax= 1.32D-07  0.00D+00 EMaxC= 1.00D-01 BMatC= 1.64D-11 BMatP= 2.11D-10
 IDIUse=1 WtCom= 1.00D+00 WtEn= 0.00D+00
 Coeff-Com:  0.490D-06-0.144D-05-0.719D-06 0.325D-04 0.697D-04 0.256D-03
 Coeff-Com: -0.750D-03-0.277D-02-0.372D-01 0.188D-02 0.277D+00 0.761D+00
 Coeff:      0.490D-06-0.144D-05-0.719D-06 0.325D-04 0.697D-04 0.256D-03
 Coeff:     -0.750D-03-0.277D-02-0.372D-01 0.188D-02 0.277D+00 0.761D+00
 Gap=     0.465 Goal=   None    Shift=    0.000
 RMSDP=4.70D-08 MaxDP=1.62D-06 DE=-2.53D-10 OVMax= 1.48D-06

 Cycle  13  Pass 1  IDiag  1:
 E= -1199.81848173137     Delta-E=        0.000000000053 Rises=F Damp=F
 DIIS: error= 6.37D-08 at cycle  13 NSaved=  13.
 NSaved=13 IEnMin=12 EnMin= -1199.81848173142     IErMin=13 ErrMin= 6.37D-08
 ErrMax= 6.37D-08  0.00D+00 EMaxC= 1.00D-01 BMatC= 1.94D-12 BMatP= 1.64D-11
 IDIUse=1 WtCom= 1.00D+00 WtEn= 0.00D+00
 Coeff-Com:  0.165D-05-0.363D-05-0.110D-04-0.149D-04-0.103D-04 0.155D-03
 Coeff-Com:  0.729D-03 0.134D-03-0.105D-01-0.113D-01 0.162D-01 0.264D+00
 Coeff-Com:  0.741D+00
 Coeff:      0.165D-05-0.363D-05-0.110D-04-0.149D-04-0.103D-04 0.155D-03
 Coeff:      0.729D-03 0.134D-03-0.105D-01-0.113D-01 0.162D-01 0.264D+00
 Coeff:      0.741D+00
 Gap=     0.465 Goal=   None    Shift=    0.000
 RMSDP=1.70D-08 MaxDP=7.74D-07 DE= 5.28D-11 OVMax= 4.45D-07

 Cycle  14  Pass 1  IDiag  1:
 E= -1199.81848173139     Delta-E=       -0.000000000016 Rises=F Damp=F
 DIIS: error= 2.56D-08 at cycle  14 NSaved=  14.
 NSaved=14 IEnMin=12 EnMin= -1199.81848173142     IErMin=14 ErrMin= 2.56D-08
 ErrMax= 2.56D-08  0.00D+00 EMaxC= 1.00D-01 BMatC= 2.70D-13 BMatP= 1.94D-12
 IDIUse=1 WtCom= 1.00D+00 WtEn= 0.00D+00
 Coeff-Com:  0.662D-06-0.140D-05-0.486D-05-0.125D-04-0.176D-04 0.164D-04
 Coeff-Com:  0.448D-03 0.495D-03 0.131D-02-0.501D-02-0.343D-01-0.338D-03
 Coeff-Com:  0.283D+00 0.755D+00
 Coeff:      0.662D-06-0.140D-05-0.486D-05-0.125D-04-0.176D-04 0.164D-04
 Coeff:      0.448D-03 0.495D-03 0.131D-02-0.501D-02-0.343D-01-0.338D-03
 Coeff:      0.283D+00 0.755D+00
 Gap=     0.465 Goal=   None    Shift=    0.000
 RMSDP=5.71D-09 MaxDP=2.73D-07 DE=-1.64D-11 OVMax= 1.94D-07

 SCF Done:  E(RwB97XD) =  -1199.81848173     A.U. after   14 cycles
            NFock= 14  Conv=0.57D-08     -V/T= 2.0020
 KE= 1.197425136124D+03 PE=-4.688225287006D+03 EE= 1.370127712418D+03
 Leave Link  502 at Fri May 23 04:09:32 2025, MaxMem=  3758096384 cpu:              57.9 elap:              11.7
 (Enter /apps/easybuild-2022/easybuild/software/Compiler/NVHPC/22.11-CUDA-11.7.0/Gaussian/g16c01-CUDA-11.7.0/g16/l508.exe)
 QCSCF skips out because SCF is already converged.
 Leave Link  508 at Fri May 23 04:09:32 2025, MaxMem=  3758096384 cpu:               0.0 elap:               0.0
 (Enter /apps/easybuild-2022/easybuild/software/Compiler/NVHPC/22.11-CUDA-11.7.0/Gaussian/g16c01-CUDA-11.7.0/g16/l801.exe)
 DoSCS=F DFT=T ScalE2(SS,OS)=  1.000000  1.000000
 Range of M.O.s used for correlation:     1   257
 NBasis=   257 NAE=    49 NBE=    49 NFC=     0 NFV=     0
 NROrb=    257 NOA=    49 NOB=    49 NVA=   208 NVB=   208

 **** Warning!!: The largest alpha MO coefficient is  0.30870917D+02

 Leave Link  801 at Fri May 23 04:09:32 2025, MaxMem=  3758096384 cpu:               0.0 elap:               0.0
 (Enter /apps/easybuild-2022/easybuild/software/Compiler/NVHPC/22.11-CUDA-11.7.0/Gaussian/g16c01-CUDA-11.7.0/g16/l1101.exe)
 Using compressed storage, NAtomX=    12.
 Will process     13 centers per pass.
 R6Disp: Adding Grimme-D2 dispersion energy 1st derivatives to the gradient.
 Leave Link 1101 at Fri May 23 04:09:32 2025, MaxMem=  3758096384 cpu:               0.5 elap:               0.1
 (Enter /apps/easybuild-2022/easybuild/software/Compiler/NVHPC/22.11-CUDA-11.7.0/Gaussian/g16c01-CUDA-11.7.0/g16/l1102.exe)
 Symmetrizing basis deriv contribution to polar:
 IMax=3 JMax=2 DiffMx= 0.00D+00
 Leave Link 1102 at Fri May 23 04:09:32 2025, MaxMem=  3758096384 cpu:               0.0 elap:               0.0
 (Enter /apps/easybuild-2022/easybuild/software/Compiler/NVHPC/22.11-CUDA-11.7.0/Gaussian/g16c01-CUDA-11.7.0/g16/l1110.exe)
 Forming Gx(P) for the SCF density, NAtomX=    12.
 Integral derivatives from FoFJK, PRISM(SPDF).
 Do as many integral derivatives as possible in FoFJK.
 G2DrvN: MDV=    3758095012.
 G2DrvN: will do    13 centers at a time, making    1 passes.
 Calling FoFCou, ICntrl=  3107 FMM=F I1Cent=   0 AccDes= 0.00D+00.
 FoFJK:  IHMeth= 1 ICntrl=    3107 DoSepK=T KAlg= 0 I1Cent=           0 FoldK=F
 IRaf=         1 NMat=       1 IRICut=       1 DoRegI=T DoRafI=F ISym2E= 0 IDoP0=0 IntGTp=1.
 FoFCou: FMM=F IPFlag=           0 FMFlag=      100000 FMFlg1=           0
         NFxFlg=           0 DoJE=F BraDBF=F KetDBF=F FulRan=T
         wScrn=  0.000000 ICntrl=      3507 IOpCl=  0 I1Cent=           0 NGrid=           0
         NMat0=    1 NMatS0=      1 NMatT0=    0 NMatD0=    1 NMtDS0=    0 NMtDT0=    0
 Symmetry not used in FoFCou.
 End of G2Drv F.D. properties file   721 does not exist.
 End of G2Drv F.D. properties file   722 does not exist.
 End of G2Drv F.D. properties file   788 does not exist.
 Leave Link 1110 at Fri May 23 04:09:43 2025, MaxMem=  3758096384 cpu:              91.0 elap:              11.5
 (Enter /apps/easybuild-2022/easybuild/software/Compiler/NVHPC/22.11-CUDA-11.7.0/Gaussian/g16c01-CUDA-11.7.0/g16/l1002.exe)
 Minotr:  Closed shell wavefunction.
          IDoAtm=111111111111
          Direct CPHF calculation.
          Differentiating once with respect to nuclear coordinates.
          Requested convergence is 1.0D-08 RMS, and 1.0D-07 maximum.
          Secondary convergence is 1.0D-12 RMS, and 1.0D-12 maximum.
          NewPWx=T KeepS1=F KeepF1=F KeepIn=T MapXYZ=F SortEE=F KeepMc=T.
         3717 words used for storage of precomputed grid.
 Keep R1 ints in memory in canonical form, NReq=1117480309.
 FoFCou: FMM=F IPFlag=           0 FMFlag=           0 FMFlg1=           0
         NFxFlg=           0 DoJE=F BraDBF=F KetDBF=F FulRan=T
         wScrn=  0.000000 ICntrl=       600 IOpCl=  0 I1Cent=           0 NGrid=           0
         NMat0=    1 NMatS0=  33153 NMatT0=    0 NMatD0=    1 NMtDS0=    0 NMtDT0=    0
 Symmetry not used in FoFCou.
 Two-electron integral symmetry not used.
          MDV=    3758096384 using IRadAn=       1.
          Solving linear equations simultaneously, MaxMat=       0.
          There are    39 degrees of freedom in the 1st order CPHF.  IDoFFX=6 NUNeed=     0.
     33 vectors produced by pass  0 Test12= 2.61D-14 2.56D-09 XBig12= 2.63D-01 7.40D-02.
 AX will form    33 AO Fock derivatives at one time.
     33 vectors produced by pass  1 Test12= 2.61D-14 2.56D-09 XBig12= 3.33D-02 2.27D-02.
     33 vectors produced by pass  2 Test12= 2.61D-14 2.56D-09 XBig12= 1.40D-03 4.00D-03.
     33 vectors produced by pass  3 Test12= 2.61D-14 2.56D-09 XBig12= 2.35D-05 6.49D-04.
     33 vectors produced by pass  4 Test12= 2.61D-14 2.56D-09 XBig12= 2.79D-07 8.95D-05.
     33 vectors produced by pass  5 Test12= 2.61D-14 2.56D-09 XBig12= 3.47D-09 8.05D-06.
     33 vectors produced by pass  6 Test12= 2.61D-14 2.56D-09 XBig12= 3.19D-11 6.75D-07.
     22 vectors produced by pass  7 Test12= 2.61D-14 2.56D-09 XBig12= 2.29D-13 5.04D-08.
      6 vectors produced by pass  8 Test12= 2.61D-14 2.56D-09 XBig12= 1.39D-15 4.68D-09.
 InvSVY:  IOpt=1 It=  1 EMax= 1.11D-15
 Solved reduced A of dimension   259 with    33 vectors.
 End of Minotr F.D. properties file   721 does not exist.
 End of Minotr F.D. properties file   722 does not exist.
 End of Minotr F.D. properties file   788 does not exist.
 Leave Link 1002 at Fri May 23 04:10:05 2025, MaxMem=  3758096384 cpu:             167.5 elap:              21.4
 (Enter /apps/easybuild-2022/easybuild/software/Compiler/NVHPC/22.11-CUDA-11.7.0/Gaussian/g16c01-CUDA-11.7.0/g16/l701.exe)
 ... and contract with generalized density number  0.
 Compute integral second derivatives.
 R6Disp: Adding Grimme-D2 dispersion energy 2nd derivatives to the Hessian.
 Leave Link  701 at Fri May 23 04:10:05 2025, MaxMem=  3758096384 cpu:               0.5 elap:               0.1
 (Enter /apps/easybuild-2022/easybuild/software/Compiler/NVHPC/22.11-CUDA-11.7.0/Gaussian/g16c01-CUDA-11.7.0/g16/l702.exe)
 L702 exits ... SP integral derivatives will be done elsewhere.
 Leave Link  702 at Fri May 23 04:10:05 2025, MaxMem=  3758096384 cpu:               0.0 elap:               0.0
 (Enter /apps/easybuild-2022/easybuild/software/Compiler/NVHPC/22.11-CUDA-11.7.0/Gaussian/g16c01-CUDA-11.7.0/g16/l703.exe)
 Integral derivatives from FoFJK, PRISM(SPDF).
 Compute integral second derivatives, UseDBF=F ICtDFT=           0.
 Calling FoFJK, ICntrl=    100127 FMM=F ISym2X=0 I1Cent= 0 IOpClX= 0 NMat=1 NMatS=1 NMatT=0.
 FoFJK:  IHMeth= 1 ICntrl=  100127 DoSepK=T KAlg= 0 I1Cent=           0 FoldK=F
 IRaf=         1 NMat=       1 IRICut=       1 DoRegI=T DoRafI=F ISym2E= 0 IDoP0=0 IntGTp=1.
 FoFCou: FMM=F IPFlag=           0 FMFlag=      100000 FMFlg1=         800
         NFxFlg=           0 DoJE=F BraDBF=F KetDBF=F FulRan=T
         wScrn=  0.000000 ICntrl=    100527 IOpCl=  0 I1Cent=           0 NGrid=           0
         NMat0=    1 NMatS0=      1 NMatT0=    0 NMatD0=    1 NMtDS0=    0 NMtDT0=    0
 Symmetry not used in FoFCou.
 Leave Link  703 at Fri May 23 04:10:38 2025, MaxMem=  3758096384 cpu:             263.5 elap:              33.1
 (Enter /apps/easybuild-2022/easybuild/software/Compiler/NVHPC/22.11-CUDA-11.7.0/Gaussian/g16c01-CUDA-11.7.0/g16/l716.exe)
 Dipole        =-1.63538112D-01 8.19074981D-01 2.13523005D-01
 Polarizability= 0.00000000D+00 0.00000000D+00 0.00000000D+00
                 0.00000000D+00 0.00000000D+00 0.00000000D+00
 -------------------------------------------------------------------
 Center     Atomic                   Forces (Hartrees/Bohr)
 Number     Number              X              Y              Z
 -------------------------------------------------------------------
      1        6           0.001128630    0.000343274    0.000296873
      2        6           0.002178027    0.001174190    0.000092749
      3        9           0.000360750    0.000789300    0.001390173
      4        9          -0.001096408    0.001612289    0.000571556
      5       16           0.008549232    0.006296702   -0.017841886
      6        8          -0.007065564   -0.008169108    0.019331439
      7        8           0.000108066    0.009229482    0.006749327
      8        8          -0.003438344   -0.013398007   -0.014574161
      9        9          -0.000025312    0.000226500   -0.000063354
     10        9          -0.000230447    0.000147049    0.000694409
     11        9           0.000563499   -0.000056139    0.000049373
     12        1          -0.001032129    0.001804467    0.003303501
 -------------------------------------------------------------------
 Cartesian Forces:  Max     0.019331439 RMS     0.006425882
 Force constants in Cartesian coordinates: 
                1             2             3             4             5 
      1  0.554229D+00
      2  0.750571D-02  0.574705D+00
      3 -0.158947D-01 -0.874644D-02  0.572261D+00
      4 -0.935926D-01 -0.161650D-01  0.393102D-01  0.422301D+00
      5 -0.297344D-01 -0.545920D-01  0.389535D-01 -0.663108D-02  0.531607D+00
      6  0.708270D-01  0.380032D-01 -0.129645D+00 -0.370722D-02 -0.155071D-01
      7  0.449854D-02  0.400981D-02  0.780367D-02 -0.889625D-01 -0.346667D-01
      8 -0.230365D-02 -0.467531D-02 -0.575483D-02 -0.267543D-01 -0.119708D+00
      9 -0.231941D-01 -0.329324D-01 -0.358809D-01 -0.448821D-01 -0.865164D-01
     10  0.191425D-02 -0.743367D-02  0.268185D-02 -0.902899D-01  0.682683D-01
     11  0.173454D-01 -0.392625D-01  0.139093D-02  0.554182D-01 -0.274845D+00
     12 -0.145102D-01  0.300883D-01  0.144167D-02 -0.132494D-01  0.594602D-01
     13 -0.187770D-01 -0.110620D-01  0.227553D-01 -0.144054D+00  0.107093D-01
     14 -0.131096D-01  0.228710D-01 -0.142919D-02 -0.780924D-02 -0.241479D-01
     15  0.261511D-01 -0.324897D-02  0.241822D-01  0.210306D-01  0.800869D-02
     16  0.102252D-02  0.329442D-02 -0.436048D-02  0.119772D-01 -0.121235D-01
     17  0.137146D-02 -0.224123D-02 -0.610506D-02  0.156697D-01 -0.135890D-01
     18 -0.252687D-02 -0.489888D-03 -0.616985D-02  0.245711D-02 -0.470981D-02
     19  0.400226D-02 -0.802546D-03 -0.575725D-02  0.183720D-01  0.192048D-01
     20  0.265444D-02 -0.103194D-01  0.579698D-02 -0.171636D-01 -0.100760D-01
     21 -0.496651D-02  0.371692D-02 -0.714213D-02  0.308669D-02  0.446425D-02
     22 -0.170786D-02  0.534244D-02 -0.119171D-01  0.146233D-02 -0.111854D-01
     23  0.160680D-02 -0.188741D-02 -0.228728D-02  0.519992D-02 -0.244644D-02
     24 -0.227600D-02 -0.206115D-02  0.169956D-02 -0.974144D-02  0.598051D-02
     25 -0.782854D-01  0.482490D-02  0.478265D-02  0.869917D-02 -0.125487D-01
     26  0.706991D-03 -0.296861D+00  0.464918D-01  0.548771D-02 -0.368870D-01
     27  0.412069D-02  0.387690D-01 -0.890633D-01 -0.280267D-02  0.249200D-01
     28 -0.909882D-01 -0.225468D-01 -0.461784D-01  0.695851D-02  0.233971D-02
     29 -0.215425D-01 -0.104793D+00 -0.698443D-01 -0.292507D-02  0.102463D-02
     30 -0.416395D-01 -0.654462D-01 -0.251844D+00 -0.215523D-01 -0.291171D-01
     31 -0.281978D+00  0.332801D-01  0.686147D-02 -0.539371D-01  0.113041D-01
     32  0.366267D-01 -0.822637D-01  0.112791D-02 -0.343697D-02  0.159971D-02
     33  0.355981D-02  0.242096D-02 -0.795351D-01  0.277933D-01 -0.297885D-02
     34 -0.337196D-03 -0.247336D-03 -0.872183D-04  0.106613D-02 -0.493651D-02
     35 -0.112725D-02 -0.680939D-03  0.405949D-03 -0.890323D-03  0.206009D-02
     36  0.349106D-03 -0.733101D-04 -0.303549D-03  0.225716D-02 -0.295790D-02
                6             7             8             9            10 
      6  0.540822D+00
      7 -0.562535D-01  0.810861D-01
      8 -0.964794D-01  0.438976D-01  0.181601D+00
      9 -0.243021D+00  0.647987D-01  0.152628D+00  0.292005D+00
     10 -0.166690D-01  0.140251D-01 -0.622652D-02  0.369201D-02  0.875980D-01
     11  0.683298D-01  0.328256D-02 -0.637933D-01 -0.285837D-01 -0.834118D-01
     12 -0.901979D-01  0.786250D-02 -0.438128D-01  0.956265D-02  0.167864D-01
     13 -0.146778D-01 -0.274247D-02 -0.249782D-02  0.552946D-03 -0.330809D-02
     14  0.849902D-02 -0.189147D-01 -0.888401D-02 -0.159648D-01  0.371393D-01
     15 -0.446359D-01 -0.324393D-01 -0.136633D-01 -0.237802D-01 -0.113710D-01
     16 -0.513667D-02 -0.787583D-02 -0.397842D-02 -0.578443D-02 -0.185498D-02
     17 -0.188830D-02 -0.576169D-02 -0.872551D-03 -0.224866D-02 -0.352288D-02
     18  0.527325D-02  0.255425D-03  0.133182D-03  0.999599D-03  0.292728D-03
     19 -0.256463D-02 -0.419701D-02 -0.327784D-02 -0.377037D-02 -0.119345D-01
     20 -0.164632D-02  0.554415D-02  0.642325D-02  0.574639D-02  0.667018D-02
     21  0.769213D-02  0.151826D-02  0.577028D-04  0.178746D-02 -0.212950D-02
     22  0.325726D-01 -0.304686D-03 -0.592403D-03 -0.196432D-02 -0.136341D-02
     23  0.689411D-02  0.627729D-03  0.111066D-02  0.641470D-03 -0.357640D-02
     24 -0.168936D-01  0.241339D-02  0.302405D-02  0.923159D-02  0.210224D-02
     25 -0.168045D-02  0.442078D-03  0.607983D-03  0.195180D-02 -0.551373D-03
     26 -0.440818D-02  0.358274D-03  0.584179D-02  0.322839D-02 -0.443647D-02
     27  0.297526D-02  0.714587D-03  0.241612D-02  0.116722D-02  0.245462D-02
     28  0.480898D-02  0.645392D-03  0.335745D-03  0.406439D-02  0.720678D-03
     29 -0.211588D-02  0.709073D-03  0.150716D-02  0.149943D-02  0.256086D-03
     30 -0.333652D-01  0.548908D-02  0.136435D-02 -0.132230D-01  0.163824D-02
     31 -0.638802D-02  0.432432D-02  0.603032D-03  0.484398D-02  0.494931D-02
     32  0.164622D-02  0.676673D-04  0.141468D-02  0.204404D-02 -0.381564D-02
     33  0.350031D-02 -0.620410D-04  0.736001D-03  0.244177D-02  0.104231D-02
     34 -0.113134D-02 -0.939046D-03  0.186574D-03 -0.308527D-03  0.949174D-04
     35 -0.132717D-02  0.846196D-03  0.343662D-04  0.458067D-03  0.895351D-04
     36 -0.250488D-02 -0.210076D-02 -0.649279D-03 -0.129028D-02 -0.521006D-03
               11            12            13            14            15 
     11  0.390870D+00
     12 -0.577394D-01  0.821778D-01
     13 -0.488263D-03  0.207372D-02  0.534005D+00
     14 -0.324751D-01  0.930518D-02 -0.515754D-02  0.957582D+00
     15  0.746826D-02 -0.190084D-02 -0.818862D-01 -0.284112D+00  0.834692D+00
     16  0.894071D-03 -0.659550D-03 -0.840855D-01 -0.443378D-01 -0.266322D-01
     17  0.102159D-01 -0.259823D-03 -0.381400D-01 -0.165473D+00 -0.858049D-01
     18  0.426133D-03  0.627630D-03 -0.624635D-02 -0.446004D-01 -0.147370D+00
     19  0.912597D-02 -0.279113D-02 -0.129885D+00  0.129397D+00 -0.555943D-01
     20 -0.248424D-02  0.122166D-03  0.123988D+00 -0.544757D+00  0.204192D+00
     21  0.934408D-03  0.585557D-03 -0.491795D-01  0.195805D+00 -0.165259D+00
     22  0.282563D-02 -0.129526D-02 -0.156000D+00 -0.664435D-01  0.167117D+00
     23  0.765921D-02 -0.282445D-02 -0.634400D-01 -0.149680D+00  0.153542D+00
     24 -0.447306D-02  0.344568D-02  0.158813D+00  0.155213D+00 -0.483819D+00
     25 -0.421965D-02  0.401484D-02  0.112840D-03  0.444488D-02 -0.250701D-02
     26 -0.446784D-02  0.703737D-02  0.603911D-02 -0.885621D-02  0.259308D-02
     27  0.647174D-02 -0.551028D-02 -0.345238D-02  0.235403D-03 -0.318891D-02
     28 -0.888562D-03  0.979989D-03  0.618099D-03 -0.125490D-03 -0.559827D-02
     29  0.481446D-02 -0.808722D-03 -0.190716D-03 -0.503395D-02 -0.215430D-02
     30  0.524041D-02 -0.254989D-03 -0.616804D-02 -0.191636D-02 -0.631424D-02
     31 -0.216734D-02  0.855125D-03  0.928933D-02 -0.448181D-03  0.298167D-02
     32  0.453041D-02 -0.805057D-03  0.814079D-03 -0.292984D-02  0.132692D-02
     33 -0.630637D-03  0.321213D-03 -0.487217D-02  0.174467D-02 -0.612735D-02
     34  0.228380D-02 -0.671090D-04 -0.517283D-02 -0.146347D-01 -0.125185D-02
     35 -0.761561D-03  0.236966D-03 -0.205745D-01 -0.382167D-01  0.118529D-01
     36  0.116511D-02 -0.298230D-03 -0.177121D-01 -0.227793D-01  0.235212D-01
               16            17            18            19            20 
     16  0.144684D+00
     17  0.190569D+00  0.396327D+00
     18 -0.112902D+00 -0.966206D-01  0.410398D+00
     19  0.127757D-01 -0.846550D-02 -0.543310D-03  0.947093D-01
     20 -0.467584D-03 -0.151573D-01  0.131261D-01 -0.133277D+00  0.570456D+00
     21  0.275363D-03 -0.139379D-01  0.150514D-01  0.537444D-01 -0.217584D+00
     22  0.212530D-01 -0.412819D-02 -0.557483D-02  0.208775D-01  0.825390D-02
     23  0.515370D-02  0.852172D-02 -0.432817D-01 -0.119133D-01 -0.135752D-02
     24  0.970932D-02 -0.115595D-01 -0.560542D-01  0.108728D-01 -0.127576D-02
     25 -0.127483D-03 -0.748531D-03  0.130261D-03 -0.294825D-02 -0.263260D-02
     26 -0.144596D-02  0.105543D-02  0.661638D-05 -0.106607D-02  0.549271D-02
     27  0.655857D-03  0.772669D-03  0.798235D-03  0.197982D-02 -0.943864D-03
     28 -0.136902D-02 -0.618624D-03  0.182017D-02 -0.424285D-03  0.340055D-03
     29 -0.994855D-03  0.123246D-02  0.153065D-02  0.771657D-03  0.137107D-02
     30  0.216326D-02  0.307579D-02  0.203283D-02  0.228299D-02 -0.102624D-02
     31 -0.188591D-02 -0.245331D-02 -0.861903D-03 -0.191551D-02  0.100602D-02
     32 -0.322124D-03  0.448208D-03 -0.572934D-04  0.619984D-04  0.149765D-02
     33  0.106479D-02  0.125288D-02  0.141540D-02  0.101959D-02 -0.163141D-02
     34 -0.945141D-01 -0.143771D+00  0.123700D+00  0.567955D-03  0.508414D-02
     35 -0.136240D+00 -0.220468D+00  0.174537D+00  0.241705D-03 -0.108930D-02
     36  0.141607D+00  0.213323D+00 -0.227002D+00  0.112145D-02 -0.487647D-02
               21            22            23            24            25 
     21  0.146335D+00
     22 -0.698066D-02  0.122426D+00
     23  0.333439D-01  0.658560D-01  0.130431D+00
     24 -0.504073D-03 -0.181726D+00 -0.152230D+00  0.551258D+00
     25  0.167130D-02  0.221227D-03 -0.725475D-03  0.550158D-03  0.836169D-01
     26 -0.193352D-02 -0.266041D-02  0.965563D-03  0.735447D-03 -0.350987D-01
     27  0.135238D-02  0.155220D-02  0.124191D-03 -0.632284D-04  0.737186D-02
     28  0.184836D-02  0.581693D-03 -0.173801D-04  0.872473D-03  0.108832D-01
     29 -0.449888D-03  0.258776D-03  0.763191D-03  0.494033D-03 -0.166037D-01
     30  0.174331D-02  0.224726D-02  0.691924D-03  0.529452D-03 -0.499788D-02
     31 -0.285159D-03 -0.461988D-02 -0.145644D-02  0.280986D-02 -0.221776D-01
     32 -0.713814D-03 -0.623172D-03  0.444410D-03 -0.661044D-04  0.625323D-01
     33  0.154939D-02  0.295067D-02  0.419715D-03 -0.443832D-03 -0.112302D-01
     34  0.139699D-02 -0.282588D-02  0.268482D-02  0.560083D-02  0.114671D-03
     35 -0.370297D-02  0.309631D-02  0.547607D-02  0.621849D-02  0.167290D-03
     36 -0.319134D-02  0.301898D-02  0.496678D-02 -0.838667D-02 -0.573462D-04
               26            27            28            29            30 
     26  0.430226D+00
     27 -0.276065D-01  0.778101D-01
     28 -0.129773D-01 -0.580305D-02  0.119586D+00
     29 -0.586743D-01 -0.520616D-01  0.496325D-01  0.144282D+00
     30 -0.344600D-01  0.128039D-02  0.101103D+00  0.126778D+00  0.311970D+00
     31  0.448106D-01 -0.671974D-02 -0.471728D-01 -0.944567D-02 -0.407315D-01
     32 -0.380585D-01  0.699394D-02 -0.161051D-01  0.132320D-01 -0.510713D-02
     33  0.822545D-02  0.124272D-01 -0.580135D-01 -0.293054D-02 -0.127946D-01
     34  0.282184D-03 -0.717857D-04 -0.395403D-04  0.744230D-04  0.164912D-03
     35  0.223764D-03 -0.910284D-04  0.631315D-03  0.273654D-03 -0.772292D-04
     36  0.900530D-04  0.149634D-04  0.953442D-04  0.633115D-04  0.240702D-03
               31            32            33            34            35 
     31  0.395088D+00
     32 -0.759047D-01  0.100106D+00
     33  0.367209D-01 -0.644322D-02  0.772309D-01
     34  0.362420D-04  0.105088D-03  0.264306D-04  0.101949D+00
     35  0.871744D-03 -0.210801D-04 -0.185030D-03  0.152888D+00  0.253170D+00
     36 -0.867035D-04  0.535875D-04  0.146626D-04 -0.127971D+00 -0.188326D+00
               36 
     36  0.219186D+00
 FormGI is forming the generalized inverse of G from B-inverse, IUseBI=4.
 Leave Link  716 at Fri May 23 04:10:38 2025, MaxMem=  3758096384 cpu:               0.0 elap:               0.0
 (Enter /apps/easybuild-2022/easybuild/software/Compiler/NVHPC/22.11-CUDA-11.7.0/Gaussian/g16c01-CUDA-11.7.0/g16/l103.exe)

 GradGradGradGradGradGradGradGradGradGradGradGradGradGradGradGradGradGrad
 Berny optimization.
 Red2BG is reusing G-inverse.
 Internal  Forces:  Max     0.026319407 RMS     0.006611199
 Search for a local minimum.
 Step number   1 out of a maximum of   61
 All quantities printed in internal units (Hartrees-Bohrs-Radians)
 RMS Force = .66112D-02 SwitMx=.10000D-02 MixMth= 1
 Mixed Optimization -- RFO/linear search
 Second derivative matrix not updated -- analytic derivatives used.
 ITU=  0
     Eigenvalues ---    0.00252   0.00297   0.00383   0.04693   0.07785
     Eigenvalues ---    0.08623   0.10336   0.10377   0.11927   0.12519
     Eigenvalues ---    0.13972   0.14451   0.17341   0.18199   0.20687
     Eigenvalues ---    0.20944   0.23096   0.23472   0.24585   0.28772
     Eigenvalues ---    0.33381   0.37652   0.38701   0.38999   0.39989
     Eigenvalues ---    0.48854   0.52123   0.56123   0.67922   0.69906
 RFO step:  Lambda=-1.20399449D-02 EMin= 2.51605480D-03
 Linear search not attempted -- first point.
 Iteration  1 RMS(Cart)=  0.08051587 RMS(Int)=  0.00533268
 Iteration  2 RMS(Cart)=  0.00597496 RMS(Int)=  0.00139054
 Iteration  3 RMS(Cart)=  0.00002447 RMS(Int)=  0.00139026
 Iteration  4 RMS(Cart)=  0.00000001 RMS(Int)=  0.00139026
 ITry= 1 IFail=0 DXMaxC= 2.90D-01 DCOld= 1.00D+10 DXMaxT= 3.00D-01 DXLimC= 3.00D+00 Rises=F
 Variable       Old X    -DE/DX   Delta X   Delta X   Delta X     New X
                                 (Linear)    (Quad)   (Total)
    R1        2.93708  -0.00016   0.00000   0.00372   0.00372   2.94081
    R2        2.49807  -0.00023   0.00000   0.00128   0.00128   2.49935
    R3        2.51250   0.00056   0.00000  -0.00272  -0.00272   2.50979
    R4        2.51213  -0.00056   0.00000   0.00157   0.00157   2.51370
    R5        2.52021  -0.00163   0.00000  -0.00000  -0.00000   2.52021
    R6        2.51429   0.00171   0.00000   0.00929   0.00929   2.52359
    R7        3.56270  -0.00291   0.00000  -0.02135  -0.02135   3.54135
    R8        3.02457   0.00654   0.00000  -0.00514  -0.00514   3.01943
    R9        2.70629  -0.00584   0.00000  -0.00868  -0.00868   2.69762
   R10        2.72373   0.00691   0.00000  -0.01157  -0.01157   2.71216
   R11        1.82917  -0.00133   0.00000  -0.00445  -0.00445   1.82472
    A1        1.93475  -0.00015   0.00000  -0.00451  -0.00454   1.93022
    A2        1.91129   0.00087   0.00000   0.01470   0.01470   1.92599
    A3        1.90288  -0.00024   0.00000  -0.00546  -0.00547   1.89741
    A4        1.91030  -0.00021   0.00000  -0.00003  -0.00004   1.91026
    A5        1.90217   0.00007   0.00000  -0.00158  -0.00162   1.90056
    A6        1.90213  -0.00035   0.00000  -0.00324  -0.00322   1.89891
    A7        1.90735   0.00098   0.00000  -0.00567  -0.00564   1.90170
    A8        1.91283  -0.00021   0.00000  -0.00598  -0.00600   1.90684
    A9        2.01887  -0.00304   0.00000  -0.00699  -0.00699   2.01188
   A10        1.91061  -0.00018   0.00000  -0.00175  -0.00184   1.90876
   A11        1.83744   0.00084   0.00000   0.01761   0.01760   1.85504
   A12        1.87363   0.00173   0.00000   0.00377   0.00372   1.87735
   A13        1.82716  -0.01928   0.00000  -0.08571  -0.08739   1.73976
   A14        1.86049   0.00710   0.00000   0.02251   0.01722   1.87772
   A15        1.84962  -0.00564   0.00000   0.01293   0.01430   1.86393
   A16        2.00513  -0.00968   0.00000  -0.10225  -0.10415   1.90098
   A17        1.73966   0.02632   0.00000   0.12674   0.12822   1.86788
   A18        2.15332  -0.00256   0.00000   0.01238   0.01319   2.16651
   A19        1.80692   0.00639   0.00000   0.09267   0.09267   1.89959
    D1        0.85137  -0.00025   0.00000   0.00969   0.00969   0.86106
    D2        2.94506   0.00000   0.00000   0.00043   0.00044   2.94550
    D3       -1.21770  -0.00005   0.00000  -0.00425  -0.00424  -1.22193
    D4        2.96086  -0.00004   0.00000   0.01639   0.01639   2.97725
    D5       -1.22863   0.00021   0.00000   0.00714   0.00714  -1.22149
    D6        0.89180   0.00016   0.00000   0.00245   0.00247   0.89426
    D7       -1.24260  -0.00009   0.00000   0.01791   0.01789  -1.22471
    D8        0.85109   0.00016   0.00000   0.00866   0.00864   0.85973
    D9        2.97152   0.00012   0.00000   0.00397   0.00397   2.97548
   D10       -1.33848   0.01286   0.00000   0.08301   0.08253  -1.25595
   D11        0.79337  -0.00476   0.00000  -0.06827  -0.06800   0.72537
   D12        3.11528  -0.00699   0.00000  -0.02911  -0.02891   3.08637
   D13        2.83742   0.01286   0.00000   0.08168   0.08124   2.91865
   D14       -1.31392  -0.00477   0.00000  -0.06960  -0.06929  -1.38321
   D15        1.00799  -0.00700   0.00000  -0.03044  -0.03020   0.97778
   D16        0.80284   0.01186   0.00000   0.07338   0.07288   0.87571
   D17        2.93469  -0.00577   0.00000  -0.07790  -0.07765   2.85703
   D18       -1.02659  -0.00800   0.00000  -0.03874  -0.03856  -1.06516
   D19       -1.89487  -0.00152   0.00000   0.02259   0.02822  -1.86665
   D20        2.35396   0.00742   0.00000   0.10447   0.09933   2.45329
   D21        0.01575  -0.00393   0.00000   0.05585   0.05536   0.07111
         Item               Value     Threshold  Converged?
 Maximum Force            0.026319     0.000450     NO 
 RMS     Force            0.006611     0.000300     NO 
 Maximum Displacement     0.289677     0.001800     NO 
 RMS     Displacement     0.082606     0.001200     NO 
 Predicted change in Energy=-6.607616D-03
 Lowest energy point so far.  Saving SCF results.
 GradGradGradGradGradGradGradGradGradGradGradGradGradGradGradGradGradGrad

 Leave Link  103 at Fri May 23 04:10:38 2025, MaxMem=  3758096384 cpu:               0.0 elap:               0.0
 (Enter /apps/easybuild-2022/easybuild/software/Compiler/NVHPC/22.11-CUDA-11.7.0/Gaussian/g16c01-CUDA-11.7.0/g16/l202.exe)
                          Input orientation:                          
 ---------------------------------------------------------------------
 Center     Atomic      Atomic             Coordinates (Angstroms)
 Number     Number       Type             X           Y           Z
 ---------------------------------------------------------------------
      1          6           0       -1.200651   -0.341451    0.761870
      2          6           0       -0.447528    0.159488   -0.504483
      3          9           0       -0.814143   -0.584085   -1.549130
      4          9           0       -0.770886    1.434779   -0.733465
      5         16           0        1.421601    0.057009   -0.416587
      6          8           0        1.706936    1.237869    0.621281
      7          8           0        1.756954   -1.188252    0.195515
      8          8           0        1.920960    0.488124   -1.691189
      9          9           0       -1.093514   -1.654592    0.877816
     10          9           0       -0.710836    0.240085    1.850817
     11          9           0       -2.486998   -0.022668    0.647423
     12          1           0        2.086330    1.987028    0.144619
 ---------------------------------------------------------------------
                    Distance matrix (angstroms):
                    1          2          3          4          5
     1  C    0.000000
     2  C    1.556208   0.000000
     3  F    2.355627   1.333639   0.000000
     4  F    2.361296   1.335425   2.177840   0.000000
     5  S    2.902368   1.873999   2.586930   2.608766   0.000000
     6  O    3.311809   2.659317   3.792893   2.830849   1.597816
     7  O    3.128140   2.676965   3.165335   3.759424   1.427517
     8  O    4.055878   2.669459   2.941190   3.009887   1.435211
     9  F    1.322597   2.370429   2.667227   3.499218   3.306186
    10  F    1.328122   2.371342   3.499938   2.847703   3.118000
    11  F    1.330191   2.349363   2.817530   2.641221   4.051619
    12  H    4.075176   3.190874   4.229911   3.039686   2.117023
                    6          7          8          9         10
     6  O    0.000000
     7  O    2.463705   0.000000
     8  O    2.440377   2.529187   0.000000
     9  F    4.034186   2.967857   4.503118   0.000000
    10  F    2.890147   3.296992   4.419692   2.164018   0.000000
    11  F    4.379351   4.424244   5.015986   2.158253   2.161469
    12  H    0.965601   3.192723   2.375763   4.889824   3.713093
                   11         12
    11  F    0.000000
    12  H    5.020659   0.000000
 Symmetry turned off by external request.
 Stoichiometry    C2HF5O3S
 Rotational constants (GHZ):           1.5804132           0.8342068           0.7858587
 Leave Link  202 at Fri May 23 04:10:38 2025, MaxMem=  3758096384 cpu:               0.0 elap:               0.0
 (Enter /apps/easybuild-2022/easybuild/software/Compiler/NVHPC/22.11-CUDA-11.7.0/Gaussian/g16c01-CUDA-11.7.0/g16/l301.exe)
 Standard basis: 6-311++G(d,p) (5D, 7F)
 Ernie: Thresh=  0.10000D-02 Tol=  0.10000D-05 Strict=F.
   257 basis functions,   419 primitive gaussians,   268 cartesian basis functions
    49 alpha electrons       49 beta electrons
       nuclear repulsion energy       924.1061998124 Hartrees.
 IExCor= 4639 DFT=T Ex+Corr=wB97XD ExCW=0 ScaHFX=  1.000000
 ScaDFX=  1.000000  1.000000  1.000000  1.000000 ScalE2=  1.000000  1.000000
 IRadAn=      5 IRanWt=     -1 IRanGd=            0 ICorTp=0 IEmpDi=121
 HFx  wShort=  0.000000 wLong=  0.200000 cFull=  0.222036 cShort=  0.000000 cLong=  0.777964
 DFx  wShort=  0.000000 wLong=  0.200000 cFull=  0.000000 cShort=  0.000000 cLong=  1.000000
 NAtoms=   12 NActive=   12 NUniq=   12 SFac= 1.00D+00 NAtFMM=   60 NAOKFM=F Big=F
 Integral buffers will be    131072 words long.
 Raffenetti 2 integral format.
 Two-electron integral symmetry is turned off.
 R6Disp:  Grimme-D2 Dispersion energy=       -0.0055753571 Hartrees.
 Nuclear repulsion after empirical dispersion term =      924.1006244553 Hartrees.
 Leave Link  301 at Fri May 23 04:10:38 2025, MaxMem=  3758096384 cpu:               0.0 elap:               0.0
 (Enter /apps/easybuild-2022/easybuild/software/Compiler/NVHPC/22.11-CUDA-11.7.0/Gaussian/g16c01-CUDA-11.7.0/g16/l302.exe)
 NPDir=0 NMtPBC=     1 NCelOv=     1 NCel=       1 NClECP=     1 NCelD=      1
         NCelK=      1 NCelE2=     1 NClLst=     1 CellRange=     0.0.
 One-electron integrals computed using PRISM.
 NBasis=   257 RedAO= T EigKep=  6.49D-05  NBF=   257
 NBsUse=   257 1.00D-06 EigRej= -1.00D+00 NBFU=   257
 Precomputing XC quadrature grid using
 IXCGrd= 4 IRadAn=           5 IRanWt=          -1 IRanGd=           0 AccXCQ= 0.00D+00.
 Generated NRdTot=       0 NPtTot=           0 NUsed=           0 NTot=          32
 NSgBfM=   268   268   268   268   268 MxSgAt=    12 MxSgA2=    12.
 Leave Link  302 at Fri May 23 04:10:38 2025, MaxMem=  3758096384 cpu:               0.5 elap:               0.1
 (Enter /apps/easybuild-2022/easybuild/software/Compiler/NVHPC/22.11-CUDA-11.7.0/Gaussian/g16c01-CUDA-11.7.0/g16/l303.exe)
 DipDrv:  MaxL=1.
 Leave Link  303 at Fri May 23 04:10:38 2025, MaxMem=  3758096384 cpu:               0.0 elap:               0.0
 (Enter /apps/easybuild-2022/easybuild/software/Compiler/NVHPC/22.11-CUDA-11.7.0/Gaussian/g16c01-CUDA-11.7.0/g16/l401.exe)
 Initial guess from the checkpoint file:  "2003846667223680600001_r12_insertion_R_12_8_5_IRC_R_prod.chk"
 B after Tr=     0.019180   -0.008365   -0.029088
         Rot=    0.999967    0.004367   -0.005121    0.004656 Ang=   0.94 deg.
 Guess basis will be translated and rotated to current coordinates.
 JPrj=2 DoOrth=T DoCkMO=T.
 Generating alternative initial guess.
 ExpMin= 3.60D-02 ExpMax= 9.34D+04 ExpMxC= 3.17D+03 IAcc=3 IRadAn=         5 AccDes= 0.00D+00
 Harris functional with IExCor= 4639 and IRadAn=       5 diagonalized for initial guess.
 HarFok:  IExCor= 4639 AccDes= 0.00D+00 IRadAn=         5 IDoV= 1 UseB2=F ITyADJ=14
 ICtDFT=  3500011 ScaDFX=  1.000000  1.000000  1.000000  1.000000
 FoFCou: FMM=F IPFlag=           0 FMFlag=      100000 FMFlg1=           0
         NFxFlg=           0 DoJE=T BraDBF=F KetDBF=T FulRan=T
         wScrn=  0.000000 ICntrl=       500 IOpCl=  0 I1Cent=   200000004 NGrid=           0
         NMat0=    1 NMatS0=      1 NMatT0=    0 NMatD0=    1 NMtDS0=    0 NMtDT0=    0
 Symmetry not used in FoFCou.
 Harris En= -1167.10043338533    
 Leave Link  401 at Fri May 23 04:10:39 2025, MaxMem=  3758096384 cpu:               2.3 elap:               0.3
 (Enter /apps/easybuild-2022/easybuild/software/Compiler/NVHPC/22.11-CUDA-11.7.0/Gaussian/g16c01-CUDA-11.7.0/g16/l502.exe)
 Keep R1 ints in memory in canonical form, NReq=1117474609.
 FoFCou: FMM=F IPFlag=           0 FMFlag=           0 FMFlg1=           0
         NFxFlg=           0 DoJE=F BraDBF=F KetDBF=F FulRan=T
         wScrn=  0.000000 ICntrl=       600 IOpCl=  0 I1Cent=           0 NGrid=           0
         NMat0=    1 NMatS0=  33153 NMatT0=    0 NMatD0=    1 NMtDS0=    0 NMtDT0=    0
 Symmetry not used in FoFCou.
 Two-electron integral symmetry not used.
 Closed shell SCF:
 Using DIIS extrapolation, IDIIS=  1040.
 NGot=  3758096384 LenX=  2658793876 LenY=  2658721611
 Requested convergence on RMS density matrix=1.00D-08 within  32 cycles.
 Requested convergence on MAX density matrix=1.00D-06.
 Requested convergence on             energy=1.00D-06.
 No special actions if energy rises.

 Cycle   1  Pass 1  IDiag  1:
 E= -1199.80538581865    
 DIIS: error= 3.57D-03 at cycle   1 NSaved=   1.
 NSaved= 1 IEnMin= 1 EnMin= -1199.80538581865     IErMin= 1 ErrMin= 3.57D-03
 ErrMax= 3.57D-03  0.00D+00 EMaxC= 1.00D-01 BMatC= 1.33D-02 BMatP= 1.33D-02
 IDIUse=3 WtCom= 9.64D-01 WtEn= 3.57D-02
 Coeff-Com:  0.100D+01
 Coeff-En:   0.100D+01
 Coeff:      0.100D+01
 Gap=     0.755 Goal=   None    Shift=    0.000
 GapD=    0.755 DampG=2.000 DampE=1.000 DampFc=2.0000 IDamp=-1.
 RMSDP=2.41D-03 MaxDP=1.10D-01              OVMax= 3.38D-02

 Cycle   2  Pass 1  IDiag  1:
 E= -1199.82325504428     Delta-E=       -0.017869225637 Rises=F Damp=F
 DIIS: error= 1.69D-03 at cycle   2 NSaved=   2.
 NSaved= 2 IEnMin= 2 EnMin= -1199.82325504428     IErMin= 2 ErrMin= 1.69D-03
 ErrMax= 1.69D-03  0.00D+00 EMaxC= 1.00D-01 BMatC= 1.94D-03 BMatP= 1.33D-02
 IDIUse=3 WtCom= 9.83D-01 WtEn= 1.69D-02
 Coeff-Com:  0.734D-01 0.927D+00
 Coeff-En:   0.000D+00 0.100D+01
 Coeff:      0.721D-01 0.928D+00
 Gap=     0.473 Goal=   None    Shift=    0.000
 RMSDP=5.27D-04 MaxDP=1.79D-02 DE=-1.79D-02 OVMax= 1.79D-02

 Cycle   3  Pass 1  IDiag  1:
 E= -1199.82326153224     Delta-E=       -0.000006487953 Rises=F Damp=F
 DIIS: error= 2.81D-03 at cycle   3 NSaved=   3.
 NSaved= 3 IEnMin= 3 EnMin= -1199.82326153224     IErMin= 2 ErrMin= 1.69D-03
 ErrMax= 2.81D-03  0.00D+00 EMaxC= 1.00D-01 BMatC= 2.75D-03 BMatP= 1.94D-03
 IDIUse=3 WtCom= 1.59D-01 WtEn= 8.41D-01
 Coeff-Com: -0.103D+00 0.595D+00 0.509D+00
 Coeff-En:   0.000D+00 0.499D+00 0.501D+00
 Coeff:     -0.164D-01 0.514D+00 0.502D+00
 Gap=     0.473 Goal=   None    Shift=    0.000
 RMSDP=3.78D-04 MaxDP=1.54D-02 DE=-6.49D-06 OVMax= 1.22D-02

 Cycle   4  Pass 1  IDiag  1:
 E= -1199.82509229514     Delta-E=       -0.001830762904 Rises=F Damp=F
 DIIS: error= 5.53D-04 at cycle   4 NSaved=   4.
 NSaved= 4 IEnMin= 4 EnMin= -1199.82509229514     IErMin= 4 ErrMin= 5.53D-04
 ErrMax= 5.53D-04  0.00D+00 EMaxC= 1.00D-01 BMatC= 1.22D-04 BMatP= 1.94D-03
 IDIUse=3 WtCom= 9.94D-01 WtEn= 5.53D-03
 Coeff-Com: -0.136D-01-0.564D-01 0.149D+00 0.921D+00
 Coeff-En:   0.000D+00 0.000D+00 0.000D+00 0.100D+01
 Coeff:     -0.135D-01-0.560D-01 0.148D+00 0.922D+00
 Gap=     0.470 Goal=   None    Shift=    0.000
 RMSDP=9.07D-05 MaxDP=3.44D-03 DE=-1.83D-03 OVMax= 2.78D-03

 Cycle   5  Pass 1  IDiag  1:
 E= -1199.82519025672     Delta-E=       -0.000097961582 Rises=F Damp=F
 DIIS: error= 1.05D-04 at cycle   5 NSaved=   5.
 NSaved= 5 IEnMin= 5 EnMin= -1199.82519025672     IErMin= 5 ErrMin= 1.05D-04
 ErrMax= 1.05D-04  0.00D+00 EMaxC= 1.00D-01 BMatC= 8.49D-06 BMatP= 1.22D-04
 IDIUse=3 WtCom= 9.99D-01 WtEn= 1.05D-03
 Coeff-Com:  0.470D-02-0.102D+00 0.194D-01 0.498D+00 0.580D+00
 Coeff-En:   0.000D+00 0.000D+00 0.000D+00 0.000D+00 0.100D+01
 Coeff:      0.469D-02-0.102D+00 0.194D-01 0.497D+00 0.581D+00
 Gap=     0.470 Goal=   None    Shift=    0.000
 RMSDP=2.15D-05 MaxDP=7.57D-04 DE=-9.80D-05 OVMax= 4.89D-04

 Cycle   6  Pass 1  IDiag  1:
 E= -1199.82519647415     Delta-E=       -0.000006217431 Rises=F Damp=F
 DIIS: error= 2.32D-05 at cycle   6 NSaved=   6.
 NSaved= 6 IEnMin= 6 EnMin= -1199.82519647415     IErMin= 6 ErrMin= 2.32D-05
 ErrMax= 2.32D-05  0.00D+00 EMaxC= 1.00D-01 BMatC= 1.69D-07 BMatP= 8.49D-06
 IDIUse=1 WtCom= 1.00D+00 WtEn= 0.00D+00
 Coeff-Com:  0.228D-02-0.206D-01-0.101D-01 0.397D-01 0.126D+00 0.863D+00
 Coeff:      0.228D-02-0.206D-01-0.101D-01 0.397D-01 0.126D+00 0.863D+00
 Gap=     0.470 Goal=   None    Shift=    0.000
 RMSDP=6.11D-06 MaxDP=2.64D-04 DE=-6.22D-06 OVMax= 2.01D-04

 Cycle   7  Pass 1  IDiag  1:
 E= -1199.82519669534     Delta-E=       -0.000000221189 Rises=F Damp=F
 DIIS: error= 8.01D-06 at cycle   7 NSaved=   7.
 NSaved= 7 IEnMin= 7 EnMin= -1199.82519669534     IErMin= 7 ErrMin= 8.01D-06
 ErrMax= 8.01D-06  0.00D+00 EMaxC= 1.00D-01 BMatC= 3.54D-08 BMatP= 1.69D-07
 IDIUse=1 WtCom= 1.00D+00 WtEn= 0.00D+00
 Coeff-Com:  0.690D-03-0.174D-02-0.576D-02-0.174D-01 0.115D-01 0.352D+00
 Coeff-Com:  0.661D+00
 Coeff:      0.690D-03-0.174D-02-0.576D-02-0.174D-01 0.115D-01 0.352D+00
 Coeff:      0.661D+00
 Gap=     0.470 Goal=   None    Shift=    0.000
 RMSDP=2.54D-06 MaxDP=1.18D-04 DE=-2.21D-07 OVMax= 5.82D-05

 Cycle   8  Pass 1  IDiag  1:
 E= -1199.82519672536     Delta-E=       -0.000000030015 Rises=F Damp=F
 DIIS: error= 3.91D-06 at cycle   8 NSaved=   8.
 NSaved= 8 IEnMin= 8 EnMin= -1199.82519672536     IErMin= 8 ErrMin= 3.91D-06
 ErrMax= 3.91D-06  0.00D+00 EMaxC= 1.00D-01 BMatC= 6.87D-09 BMatP= 3.54D-08
 IDIUse=1 WtCom= 1.00D+00 WtEn= 0.00D+00
 Coeff-Com: -0.143D-03 0.349D-02-0.632D-03-0.165D-01-0.196D-01-0.237D-02
 Coeff-Com:  0.306D+00 0.730D+00
 Coeff:     -0.143D-03 0.349D-02-0.632D-03-0.165D-01-0.196D-01-0.237D-02
 Coeff:      0.306D+00 0.730D+00
 Gap=     0.470 Goal=   None    Shift=    0.000
 RMSDP=1.06D-06 MaxDP=5.82D-05 DE=-3.00D-08 OVMax= 3.10D-05

 Cycle   9  Pass 1  IDiag  1:
 E= -1199.82519673183     Delta-E=       -0.000000006470 Rises=F Damp=F
 DIIS: error= 1.11D-06 at cycle   9 NSaved=   9.
 NSaved= 9 IEnMin= 9 EnMin= -1199.82519673183     IErMin= 9 ErrMin= 1.11D-06
 ErrMax= 1.11D-06  0.00D+00 EMaxC= 1.00D-01 BMatC= 5.37D-10 BMatP= 6.87D-09
 IDIUse=1 WtCom= 1.00D+00 WtEn= 0.00D+00
 Coeff-Com: -0.110D-03 0.139D-02 0.305D-03-0.433D-02-0.823D-02-0.341D-01
 Coeff-Com:  0.455D-01 0.266D+00 0.734D+00
 Coeff:     -0.110D-03 0.139D-02 0.305D-03-0.433D-02-0.823D-02-0.341D-01
 Coeff:      0.455D-01 0.266D+00 0.734D+00
 Gap=     0.470 Goal=   None    Shift=    0.000
 RMSDP=3.20D-07 MaxDP=1.53D-05 DE=-6.47D-09 OVMax= 9.58D-06

 Cycle  10  Pass 1  IDiag  1:
 E= -1199.82519673239     Delta-E=       -0.000000000558 Rises=F Damp=F
 DIIS: error= 3.52D-07 at cycle  10 NSaved=  10.
 NSaved=10 IEnMin=10 EnMin= -1199.82519673239     IErMin=10 ErrMin= 3.52D-07
 ErrMax= 3.52D-07  0.00D+00 EMaxC= 1.00D-01 BMatC= 6.41D-11 BMatP= 5.37D-10
 IDIUse=1 WtCom= 1.00D+00 WtEn= 0.00D+00
 Coeff-Com: -0.153D-04-0.788D-05 0.163D-03 0.662D-03-0.106D-03-0.993D-02
 Coeff-Com: -0.247D-01-0.103D-01 0.247D+00 0.797D+00
 Coeff:     -0.153D-04-0.788D-05 0.163D-03 0.662D-03-0.106D-03-0.993D-02
 Coeff:     -0.247D-01-0.103D-01 0.247D+00 0.797D+00
 Gap=     0.470 Goal=   None    Shift=    0.000
 RMSDP=9.00D-08 MaxDP=2.43D-06 DE=-5.58D-10 OVMax= 3.52D-06

 Cycle  11  Pass 1  IDiag  1:
 E= -1199.82519673241     Delta-E=       -0.000000000025 Rises=F Damp=F
 DIIS: error= 1.56D-07 at cycle  11 NSaved=  11.
 NSaved=11 IEnMin=11 EnMin= -1199.82519673241     IErMin=11 ErrMin= 1.56D-07
 ErrMax= 1.56D-07  0.00D+00 EMaxC= 1.00D-01 BMatC= 1.19D-11 BMatP= 6.41D-11
 IDIUse=1 WtCom= 1.00D+00 WtEn= 0.00D+00
 Coeff-Com:  0.544D-05-0.172D-03 0.435D-04 0.869D-03 0.982D-03-0.704D-03
 Coeff-Com: -0.172D-01-0.375D-01 0.185D-01 0.360D+00 0.675D+00
 Coeff:      0.544D-05-0.172D-03 0.435D-04 0.869D-03 0.982D-03-0.704D-03
 Coeff:     -0.172D-01-0.375D-01 0.185D-01 0.360D+00 0.675D+00
 Gap=     0.470 Goal=   None    Shift=    0.000
 RMSDP=3.97D-08 MaxDP=2.15D-06 DE=-2.50D-11 OVMax= 1.01D-06

 Cycle  12  Pass 1  IDiag  1:
 E= -1199.82519673243     Delta-E=       -0.000000000016 Rises=F Damp=F
 DIIS: error= 2.11D-08 at cycle  12 NSaved=  12.
 NSaved=12 IEnMin=12 EnMin= -1199.82519673243     IErMin=12 ErrMin= 2.11D-08
 ErrMax= 2.11D-08  0.00D+00 EMaxC= 1.00D-01 BMatC= 3.96D-13 BMatP= 1.19D-11
 IDIUse=1 WtCom= 1.00D+00 WtEn= 0.00D+00
 Coeff-Com:  0.346D-05-0.490D-04-0.714D-05 0.179D-03 0.311D-03 0.861D-03
 Coeff-Com: -0.260D-02-0.938D-02-0.171D-01 0.190D-01 0.140D+00 0.869D+00
 Coeff:      0.346D-05-0.490D-04-0.714D-05 0.179D-03 0.311D-03 0.861D-03
 Coeff:     -0.260D-02-0.938D-02-0.171D-01 0.190D-01 0.140D+00 0.869D+00
 Gap=     0.470 Goal=   None    Shift=    0.000
 RMSDP=1.51D-08 MaxDP=8.87D-07 DE=-1.59D-11 OVMax= 3.07D-07

 Cycle  13  Pass 1  IDiag  1:
 E= -1199.82519673247     Delta-E=       -0.000000000045 Rises=F Damp=F
 DIIS: error= 8.25D-09 at cycle  13 NSaved=  13.
 NSaved=13 IEnMin=13 EnMin= -1199.82519673247     IErMin=13 ErrMin= 8.25D-09
 ErrMax= 8.25D-09  0.00D+00 EMaxC= 1.00D-01 BMatC= 4.91D-14 BMatP= 3.96D-13
 IDIUse=1 WtCom= 1.00D+00 WtEn= 0.00D+00
 Coeff-Com:  0.339D-06 0.213D-05-0.511D-05-0.253D-04-0.190D-05 0.273D-03
 Coeff-Com:  0.757D-03 0.729D-03-0.564D-02-0.257D-01-0.193D-01 0.248D+00
 Coeff-Com:  0.801D+00
 Coeff:      0.339D-06 0.213D-05-0.511D-05-0.253D-04-0.190D-05 0.273D-03
 Coeff:      0.757D-03 0.729D-03-0.564D-02-0.257D-01-0.193D-01 0.248D+00
 Coeff:      0.801D+00
 Gap=     0.470 Goal=   None    Shift=    0.000
 RMSDP=4.30D-09 MaxDP=2.37D-07 DE=-4.50D-11 OVMax= 8.59D-08

 SCF Done:  E(RwB97XD) =  -1199.82519673     A.U. after   13 cycles
            NFock= 13  Conv=0.43D-08     -V/T= 2.0020
 KE= 1.197441070597D+03 PE=-4.694879388854D+03 EE= 1.373512497069D+03
 Leave Link  502 at Fri May 23 04:10:50 2025, MaxMem=  3758096384 cpu:              54.3 elap:              10.9
 (Enter /apps/easybuild-2022/easybuild/software/Compiler/NVHPC/22.11-CUDA-11.7.0/Gaussian/g16c01-CUDA-11.7.0/g16/l508.exe)
 QCSCF skips out because SCF is already converged.
 Leave Link  508 at Fri May 23 04:10:50 2025, MaxMem=  3758096384 cpu:               0.0 elap:               0.0
 (Enter /apps/easybuild-2022/easybuild/software/Compiler/NVHPC/22.11-CUDA-11.7.0/Gaussian/g16c01-CUDA-11.7.0/g16/l701.exe)
 ... and contract with generalized density number  0.
 Compute integral first derivatives.
 R6Disp: Adding Grimme-D2 dispersion energy 1st derivatives to the gradient.
 Leave Link  701 at Fri May 23 04:10:50 2025, MaxMem=  3758096384 cpu:               0.3 elap:               0.1
 (Enter /apps/easybuild-2022/easybuild/software/Compiler/NVHPC/22.11-CUDA-11.7.0/Gaussian/g16c01-CUDA-11.7.0/g16/l702.exe)
 L702 exits ... SP integral derivatives will be done elsewhere.
 Leave Link  702 at Fri May 23 04:10:50 2025, MaxMem=  3758096384 cpu:               0.0 elap:               0.0
 (Enter /apps/easybuild-2022/easybuild/software/Compiler/NVHPC/22.11-CUDA-11.7.0/Gaussian/g16c01-CUDA-11.7.0/g16/l703.exe)
 Integral derivatives from FoFJK, PRISM(SPDF).
 Compute integral first derivatives, UseDBF=F ICtDFT=           0.
 Calling FoFJK, ICntrl=      2127 FMM=F ISym2X=0 I1Cent= 0 IOpClX= 0 NMat=1 NMatS=1 NMatT=0.
 FoFJK:  IHMeth= 1 ICntrl=    2127 DoSepK=T KAlg= 0 I1Cent=           0 FoldK=F
 IRaf=         1 NMat=       1 IRICut=       1 DoRegI=T DoRafI=F ISym2E= 0 IDoP0=0 IntGTp=1.
 FoFCou: FMM=F IPFlag=           0 FMFlag=      100000 FMFlg1=         800
         NFxFlg=           0 DoJE=F BraDBF=F KetDBF=F FulRan=T
         wScrn=  0.000000 ICntrl=      2527 IOpCl=  0 I1Cent=           0 NGrid=           0
         NMat0=    1 NMatS0=      1 NMatT0=    0 NMatD0=    1 NMtDS0=    0 NMtDT0=    0
 Symmetry not used in FoFCou.
 Leave Link  703 at Fri May 23 04:10:54 2025, MaxMem=  3758096384 cpu:              29.2 elap:               3.7
 (Enter /apps/easybuild-2022/easybuild/software/Compiler/NVHPC/22.11-CUDA-11.7.0/Gaussian/g16c01-CUDA-11.7.0/g16/l716.exe)
 Dipole        =-8.27729054D-02 9.69408603D-01 1.75792810D-01
 -------------------------------------------------------------------
 Center     Atomic                   Forces (Hartrees/Bohr)
 Number     Number              X              Y              Z
 -------------------------------------------------------------------
      1        6           0.000457512    0.000073556    0.000503942
      2        6           0.000145342   -0.000212374   -0.001486109
      3        9          -0.000415239    0.000280650   -0.000049599
      4        9          -0.000103637    0.000205865    0.000165428
      5       16          -0.000476576    0.002357057    0.000059269
      6        8           0.001570809   -0.000084795    0.004320102
      7        8           0.000544636   -0.000883409    0.000534131
      8        8          -0.000000462   -0.002831388   -0.004283423
      9        9           0.000009491   -0.000010587   -0.000008313
     10        9          -0.000498838   -0.000040672    0.000058436
     11        9          -0.000018932   -0.000083154   -0.000149977
     12        1          -0.001214106    0.001229251    0.000336114
 -------------------------------------------------------------------
 Cartesian Forces:  Max     0.004320102 RMS     0.001302889
 Leave Link  716 at Fri May 23 04:10:54 2025, MaxMem=  3758096384 cpu:               0.0 elap:               0.0
 (Enter /apps/easybuild-2022/easybuild/software/Compiler/NVHPC/22.11-CUDA-11.7.0/Gaussian/g16c01-CUDA-11.7.0/g16/l103.exe)

 GradGradGradGradGradGradGradGradGradGradGradGradGradGradGradGradGradGrad
 Berny optimization.
 Using GEDIIS/GDIIS optimizer.
 FormGI is forming the generalized inverse of G from B-inverse, IUseBI=4.
 Internal  Forces:  Max     0.004052274 RMS     0.001230345
 Search for a local minimum.
 Step number   2 out of a maximum of   61
 All quantities printed in internal units (Hartrees-Bohrs-Radians)
 RMS Force = .12303D-02 SwitMx=.10000D-02 MixMth= 1
 Mixed Optimization -- RFO/linear search
 Update second derivatives using D2CorX and points    1    2
 DE= -6.72D-03 DEPred=-6.61D-03 R= 1.02D+00
 TightC=F SS=  1.41D+00  RLast= 3.13D-01 DXNew= 5.0454D-01 9.3783D-01
 Trust test= 1.02D+00 RLast= 3.13D-01 DXMaxT set to 5.05D-01
 ITU=  1  0
 Use linear search instead of GDIIS.
     Eigenvalues ---    0.00252   0.00296   0.00381   0.04693   0.08154
     Eigenvalues ---    0.08869   0.10348   0.10598   0.11819   0.12138
     Eigenvalues ---    0.13898   0.14458   0.17019   0.18264   0.20173
     Eigenvalues ---    0.20923   0.23090   0.23518   0.24577   0.28222
     Eigenvalues ---    0.32703   0.37666   0.38690   0.38996   0.39993
     Eigenvalues ---    0.48856   0.52144   0.56121   0.67246   0.70057
 RFO step:  Lambda=-8.96932588D-04 EMin= 2.51543518D-03
 Quartic linear search produced a step of  0.14000.
 Iteration  1 RMS(Cart)=  0.04519478 RMS(Int)=  0.00757757
 Iteration  2 RMS(Cart)=  0.00744111 RMS(Int)=  0.00022767
 Iteration  3 RMS(Cart)=  0.00012324 RMS(Int)=  0.00017555
 Iteration  4 RMS(Cart)=  0.00000004 RMS(Int)=  0.00017555
 ITry= 1 IFail=0 DXMaxC= 2.26D-01 DCOld= 1.00D+10 DXMaxT= 5.05D-01 DXLimC= 3.00D+00 Rises=F
 Variable       Old X    -DE/DX   Delta X   Delta X   Delta X     New X
                                 (Linear)    (Quad)   (Total)
    R1        2.94081   0.00037   0.00052  -0.00114  -0.00062   2.94019
    R2        2.49935   0.00001   0.00018   0.00009   0.00027   2.49961
    R3        2.50979  -0.00015  -0.00038  -0.00096  -0.00134   2.50844
    R4        2.51370   0.00001   0.00022   0.00117   0.00139   2.51508
    R5        2.52021  -0.00000  -0.00000  -0.00252  -0.00252   2.51770
    R6        2.52359   0.00019   0.00130   0.00385   0.00515   2.52874
    R7        3.54135   0.00048  -0.00299   0.00756   0.00457   3.54592
    R8        3.01943   0.00394  -0.00072   0.00593   0.00521   3.02465
    R9        2.69762   0.00113  -0.00121   0.00141   0.00019   2.69781
   R10        2.71216   0.00295  -0.00162   0.00201   0.00039   2.71254
   R11        1.82472   0.00031  -0.00062   0.00075   0.00012   1.82485
    A1        1.93022  -0.00010  -0.00063   0.00024  -0.00040   1.92982
    A2        1.92599   0.00076   0.00206   0.00168   0.00374   1.92973
    A3        1.89741  -0.00033  -0.00077  -0.00205  -0.00281   1.89460
    A4        1.91026  -0.00015  -0.00001   0.00100   0.00099   1.91124
    A5        1.90056   0.00003  -0.00023  -0.00053  -0.00076   1.89980
    A6        1.89891  -0.00022  -0.00045  -0.00041  -0.00086   1.89805
    A7        1.90170  -0.00025  -0.00079  -0.00056  -0.00138   1.90032
    A8        1.90684  -0.00013  -0.00084  -0.00248  -0.00332   1.90352
    A9        2.01188   0.00015  -0.00098   0.00523   0.00424   2.01612
   A10        1.90876  -0.00005  -0.00026  -0.00063  -0.00090   1.90787
   A11        1.85504   0.00023   0.00246   0.00383   0.00628   1.86132
   A12        1.87735   0.00004   0.00052  -0.00546  -0.00494   1.87241
   A13        1.73976  -0.00051  -0.01223   0.02673   0.01431   1.75407
   A14        1.87772   0.00091   0.00241   0.00818   0.00994   1.88766
   A15        1.86393  -0.00213   0.00200  -0.02439  -0.02227   1.84165
   A16        1.90098  -0.00131  -0.01458  -0.01469  -0.02952   1.87147
   A17        1.86788   0.00405   0.01795   0.00926   0.02757   1.89546
   A18        2.16651  -0.00099   0.00185   0.00106   0.00307   2.16958
   A19        1.89959   0.00156   0.01297   0.01055   0.02353   1.92312
    D1        0.86106   0.00012   0.00136   0.03873   0.04008   0.90114
    D2        2.94550  -0.00016   0.00006   0.03616   0.03622   2.98172
    D3       -1.22193  -0.00010  -0.00059   0.03077   0.03018  -1.19176
    D4        2.97725   0.00038   0.00230   0.04126   0.04355   3.02081
    D5       -1.22149   0.00009   0.00100   0.03869   0.03970  -1.18180
    D6        0.89426   0.00015   0.00035   0.03330   0.03365   0.92791
    D7       -1.22471   0.00035   0.00250   0.04050   0.04300  -1.18172
    D8        0.85973   0.00007   0.00121   0.03793   0.03914   0.89887
    D9        2.97548   0.00013   0.00056   0.03254   0.03309   3.00858
   D10       -1.25595   0.00153   0.01155  -0.03351  -0.02207  -1.27802
   D11        0.72537   0.00017  -0.00952  -0.03576  -0.04522   0.68015
[...]
         Item               Value     Threshold  Converged?
 Maximum Force            0.000098     0.000450     YES
 RMS     Force            0.000018     0.000300     YES
 Maximum Displacement     0.001185     0.001800     YES
 RMS     Displacement     0.000377     0.001200     YES
 Predicted change in Energy=-4.688098D-08
 Optimization completed.
    -- Stationary point found.
                           ----------------------------
                           !   Optimized Parameters   !
                           ! (Angstroms and Degrees)  !
 --------------------------                            --------------------------
 ! Name  Definition              Value          Derivative Info.                !
 --------------------------------------------------------------------------------
 ! R1    R(1,2)                  1.5555         -DE/DX =    0.0                 !
 ! R2    R(1,9)                  1.3225         -DE/DX =    0.0                 !
 ! R3    R(1,10)                 1.3276         -DE/DX =    0.0                 !
 ! R4    R(1,11)                 1.3309         -DE/DX =    0.0                 !
 ! R5    R(2,3)                  1.3314         -DE/DX =    0.0                 !
 ! R6    R(2,4)                  1.3398         -DE/DX =    0.0                 !
 ! R7    R(2,5)                  1.8769         -DE/DX =    0.0                 !
 ! R8    R(5,6)                  1.6014         -DE/DX =    0.0                 !
 ! R9    R(5,7)                  1.4279         -DE/DX =    0.0                 !
 ! R10   R(5,8)                  1.4355         -DE/DX =    0.0                 !
 ! R11   R(6,12)                 0.9663         -DE/DX =    0.0                 !
 ! A1    A(2,1,9)              110.5691         -DE/DX =    0.0                 !
 ! A2    A(2,1,10)             110.4828         -DE/DX =    0.0                 !
 ! A3    A(2,1,11)             108.5922         -DE/DX =    0.0                 !
 ! A4    A(9,1,10)             109.5467         -DE/DX =    0.0                 !
 ! A5    A(9,1,11)             108.8633         -DE/DX =    0.0                 !
 ! A6    A(10,1,11)            108.7421         -DE/DX =    0.0                 !
 ! A7    A(1,2,3)              108.9887         -DE/DX =    0.0                 !
 ! A8    A(1,2,4)              109.011          -DE/DX =    0.0                 !
 ! A9    A(1,2,5)              115.4446         -DE/DX =    0.0                 !
 ! A10   A(3,2,4)              109.2911         -DE/DX =    0.0                 !
 ! A11   A(3,2,5)              106.8848         -DE/DX =    0.0                 !
 ! A12   A(4,2,5)              107.0801         -DE/DX =    0.0                 !
 ! A13   A(2,5,6)              100.0964         -DE/DX =   -0.0001              !
 ! A14   A(2,5,7)              108.4452         -DE/DX =    0.0                 !
 ! A15   A(2,5,8)              105.614          -DE/DX =    0.0                 !
 ! A16   A(6,5,7)              107.047          -DE/DX =    0.0                 !
 ! A17   A(6,5,8)              109.1569         -DE/DX =    0.0                 !
 ! A18   A(7,5,8)              123.9303         -DE/DX =    0.0                 !
 ! A19   A(5,6,12)             110.3548         -DE/DX =    0.0                 !
 ! D1    D(9,1,2,3)             52.2227         -DE/DX =    0.0                 !
 ! D2    D(9,1,2,4)            171.4382         -DE/DX =    0.0                 !
 ! D3    D(9,1,2,5)            -68.0343         -DE/DX =    0.0                 !
 ! D4    D(10,1,2,3)           173.6658         -DE/DX =    0.0                 !
 ! D5    D(10,1,2,4)           -67.1188         -DE/DX =    0.0                 !
 ! D6    D(10,1,2,5)            53.4087         -DE/DX =    0.0                 !
 ! D7    D(11,1,2,3)           -67.1556         -DE/DX =    0.0                 !
 ! D8    D(11,1,2,4)            52.0599         -DE/DX =    0.0                 !
 ! D9    D(11,1,2,5)           172.5874         -DE/DX =    0.0                 !
 ! D10   D(1,2,5,6)            -74.4545         -DE/DX =    0.0                 !
 ! D11   D(1,2,5,7)             37.4637         -DE/DX =    0.0                 !
 ! D12   D(1,2,5,8)            172.2263         -DE/DX =    0.0                 !
 ! D13   D(3,2,5,6)            164.1472         -DE/DX =    0.0                 !
 ! D14   D(3,2,5,7)            -83.9346         -DE/DX =    0.0                 !
 ! D15   D(3,2,5,8)             50.828          -DE/DX =    0.0                 !
 ! D16   D(4,2,5,6)             47.118          -DE/DX =    0.0                 !
 ! D17   D(4,2,5,7)            159.0362         -DE/DX =    0.0                 !
 ! D18   D(4,2,5,8)            -66.2012         -DE/DX =    0.0                 !
 ! D19   D(2,5,6,12)           -87.3719         -DE/DX =    0.0                 !
 ! D20   D(7,5,6,12)           159.6275         -DE/DX =    0.0                 !
 ! D21   D(8,5,6,12)            23.1933         -DE/DX =    0.0                 !
 --------------------------------------------------------------------------------
 GradGradGradGradGradGradGradGradGradGradGradGradGradGradGradGradGradGrad

 Leave Link  103 at Fri May 23 04:12:49 2025, MaxMem=  3758096384 cpu:               0.0 elap:               0.0
 (Enter /apps/easybuild-2022/easybuild/software/Compiler/NVHPC/22.11-CUDA-11.7.0/Gaussian/g16c01-CUDA-11.7.0/g16/l9999.exe)

 ----------------------------------------------------------------------

 Electric dipole moment (input orientation):
 (Debye = 10**-18 statcoulomb cm , SI units = C m)
                  (au)            (Debye)         (10**-30 SI)
   Tot        0.107600D+01      0.273491D+01      0.912269D+01
   x         -0.231940D+00     -0.589532D+00     -0.196647D+01
   y          0.103970D+01      0.264266D+01      0.881496D+01
   z          0.151639D+00      0.385429D+00      0.128565D+01

 Dipole polarizability, Alpha (input orientation).
 (esu units = cm**3 , SI units = C**2 m**2 J**-1)
 Alpha(0;0):
               (au)            (10**-24 esu)      (10**-40 SI)
   iso        0.557634D+02      0.826328D+01      0.919414D+01
   aniso      0.630814D+01      0.934770D+00      0.104007D+01
   xx         0.588993D+02      0.872797D+01      0.971118D+01
   yx         0.811259D+00      0.120216D+00      0.133759D+00
   yy         0.548452D+02      0.812722D+01      0.904276D+01
   zx        -0.166263D+01     -0.246376D+00     -0.274131D+00
   zy        -0.142977D+01     -0.211870D+00     -0.235737D+00
   zz         0.535457D+02      0.793466D+01      0.882850D+01

 ----------------------------------------------------------------------

 Dipole orientation:
     6         -1.96793137         -1.90926277          0.06228495
     6         -0.91148707          0.81710552          0.36362237
     9         -2.30709818          2.39281235         -1.01453016
     9         -1.04960013          1.49050719          2.80046079
    16          2.45677749          1.26709102         -0.65219496
     8          3.88930158         -0.07421781          1.65136091
     8          2.89644699         -0.24352366         -2.84437993
     8          2.90179112          3.94077976         -0.54155109
     9         -2.18236772         -2.50564716         -2.35527126
     9         -0.46732053         -3.56355415          1.20504734
     9         -4.24298097         -2.01016789          1.12957341
     1          4.17361080          1.11918213          3.00381133

 Electric dipole moment (dipole orientation):
 (Debye = 10**-18 statcoulomb cm , SI units = C m)
                  (au)            (Debye)         (10**-30 SI)
   Tot        0.107600D+01      0.273491D+01      0.912269D+01
   x          0.000000D+00      0.000000D+00      0.000000D+00
   y          0.000000D+00      0.000000D+00      0.000000D+00
   z          0.107600D+01      0.273491D+01      0.912269D+01

 Dipole polarizability, Alpha (dipole orientation).
 (esu units = cm**3 , SI units = C**2 m**2 J**-1)
 Alpha(0;0):
               (au)            (10**-24 esu)      (10**-40 SI)
   iso        0.557634D+02      0.826328D+01      0.919414D+01
   aniso      0.630814D+01      0.934770D+00      0.104007D+01
   xx         0.579994D+02      0.859463D+01      0.956282D+01
   yx         0.282096D+01      0.418023D+00      0.465113D+00
   yy         0.549093D+02      0.813672D+01      0.905333D+01
   zx        -0.639832D+00     -0.948133D-01     -0.105494D+00
   zy         0.103802D+01      0.153819D+00      0.171147D+00
   zz         0.543815D+02      0.805850D+01      0.896629D+01

 ----------------------------------------------------------------------
 Unable to Open any file for archive entry.
 1\1\GINC-SPARTAN-BM197\Freq\RwB97XD\6-311++G(d,p)\C2H1F5O3S1\AKHALILOV
 \23-May-2025\0\\#P Geom=AllCheck Guess=TCheck SCRF=Check GenChk RwB97X
 D/6-311++G(d,p) Freq\\Gaussian input prepared by ASE\\0,1\C,-1.1905242
 355,-0.3417988255,0.75642387\C,-0.4252350862,0.176421175,-0.4946622828
 \F,-0.8242572971,-0.5116209498,-1.5623364565\F,-0.7082563788,1.4738323
 446,-0.6730143787\S,1.4439276771,0.0256569783,-0.4162956271\O,1.778772
 8943,1.2129809318,0.6047483941\O,1.7712398472,-1.1980033707,0.24278950
 41\O,1.9155016242,0.3822383846,-1.7244114397\F,-1.0812253623,-1.656005
 3876,0.856618221\F,-0.7189425928,0.2284714284,1.8587030406\F,-2.476890
 5642,-0.0255486618,0.6281027636\H,1.8841134742,2.0467099528,0.12782239
 14\\Version=ES64L-G16RevC.01\HF=-1199.8259802\RMSD=1.145e-09\RMSF=1.63
 6e-05\ZeroPoint=0.0518599\Thermal=0.0622838\ETot=-1199.7636963\HTot=-1
 199.7627521\GTot=-1199.8109442\Dipole=-0.2319398,1.039702,0.1516393\Di
 poleDeriv=1.7088223,-0.041189,0.1129066,0.0979495,1.6036315,0.0712269,
 -0.1889439,0.0643399,1.4722892,0.8805252,-0.0435609,0.2091645,-0.12680
 62,1.1132597,0.160797,0.4469983,0.1671728,0.8268183,-0.4430698,-0.1437
 803,-0.1912073,-0.1562312,-0.3913507,-0.2078413,-0.2680009,-0.2954916,
 -0.6707612,-0.4388879,0.1827257,-0.0233493,0.2587199,-0.8540762,0.0728
 988,-0.0488864,0.1492063,-0.2733078,1.8841561,0.0771873,-0.1517437,0.0
 67756,2.233841,-0.0159508,0.0072621,0.0212389,2.1232839,-0.6768613,-0.
 1808708,-0.0888867,-0.303898,-1.0527354,-0.4162461,-0.1707558,-0.34040
 52,-0.6455571,-0.7084344,0.1435458,-0.0424821,0.2233282,-0.8905415,0.1
 847405,-0.1089192,0.2640555,-0.6242176,-0.7861251,-0.0435566,0.2341545
 ,-0.1016874,-0.594954,0.1843624,0.309937,0.0534967,-1.0261916,-0.31507
 77,-0.0261656,0.0417574,-0.0068105,-0.8835211,0.0523145,0.0586868,0.12
 13868,-0.3126204,-0.3846175,-0.0926647,-0.0901873,-0.1092378,-0.376653
 ,-0.1737732,-0.1228342,-0.2290184,-0.7650624,-1.0858909,0.1235637,-0.0
 005343,0.1001864,-0.3094613,0.0311977,0.1032315,0.0263901,-0.3340219,0
 .365461,0.0447654,-0.0095923,0.0567311,0.4025609,0.0562736,-0.0177752,
 -0.0023716,0.2293487\Polar=58.8992875,0.8112593,54.8452194,-1.6626309,
 -1.4297711,53.545721\PG=Unknown\NImag=0\\0.54973528,0.00884264,0.57338
 001,-0.01458665,-0.00569476,0.57613631,-0.09236091,-0.01356353,0.03666
 640,0.43610903,-0.02924646,-0.05405705,0.03885137,0.00434801,0.5142690
 3,0.07047055,0.03694550,-0.12972436,0.00849206,-0.00783180,0.54396237,
 0.00322645,0.00213431,0.00633521,-0.09957708,-0.03830633,-0.07059571,0
 .09378257,-0.00183400,-0.00358066,-0.00514907,-0.03249516,-0.11115036,
 -0.09009980,0.05401977,0.16666045,-0.02652835,-0.03118321,-0.03735213,
 -0.06143039,-0.08061994,-0.24758973,0.08515847,0.14537858,0.29962339,0
 .00198905,-0.00859914,0.00246499,-0.08548843,0.06001240,-0.01184581,0.
 01378657,-0.01247120,0.00202341,0.08135029,0.01623400,-0.04075503,-0.0
 0107941,0.04701263,-0.26634906,0.05838018,-0.00234862,-0.06047729,-0.0
 3094999,-0.06749948,0.38231993,-0.01277224,0.02945216,0.00228568,-0.00
 777887,0.04773392,-0.08421350,0.00520056,-0.04533624,0.00675994,0.0127
 5941,-0.04251982,0.07767542,-0.01771062,-0.01073046,0.02553217,-0.1485
 1558,0.01778163,-0.01237710,-0.00263294,-0.00249652,0.00145746,-0.0020
 1672,-0.00220094,0.00155495,0.52364317,-0.01146734,0.02459258,-0.00105
 215,-0.00549647,-0.02793942,0.00978816,-0.01965192,-0.00575135,-0.0148
 2779,0.03636098,-0.03579081,0.00581041,-0.04113669,0.89166974,0.028677
 43,-0.00542658,0.02565890,0.01706082,0.01225073,-0.04552406,-0.0315129
 2,-0.01021199,-0.02139286,-0.00935182,0.00407169,-0.00157095,-0.078987
 46,-0.29580137,0.95382651,0.00154573,0.00414415,-0.00322478,0.00780259
 ,-0.01484238,-0.00815993,-0.00890407,-0.00319259,-0.00604160,-0.002021
 05,-0.00080936,-0.00175033,-0.07588888,-0.03314020,-0.02903384,0.06401
 973,0.00117381,-0.00326433,-0.00670150,0.01411722,-0.01582679,-0.00505
 948,-0.00626369,-0.00033369,-0.00211722,-0.00305898,0.01163291,0.00067
 361,-0.03634468,-0.16738612,-0.08190125,0.09268576,0.57974676,-0.00299
 095,-0.00070999,-0.00867186,0.00464103,-0.01187519,0.00249083,-0.00263
 712,-0.00063633,-0.00064050,-0.00014100,0.00231754,0.00065527,-0.02239
 429,-0.04832746,-0.14855921,0.00668933,-0.12245102,0.32148630,0.004095
 55,-0.00122082,-0.00545413,0.01826868,0.01729564,-0.00490406,-0.004608
 12,-0.00324937,-0.00375868,-0.01086191,0.00928614,-0.00177321,-0.12866
 491,0.12892865,-0.06947591,0.01189733,-0.00782373,0.00066267,0.0923374
 8,0.00207788,-0.01035724,0.00485084,-0.01517693,-0.00711589,0.00106928
 ,0.00665888,0.00510938,0.00530655,0.00562934,-0.00208907,-0.00012461,0
 .12045953,-0.50331924,0.23816559,0.00348993,-0.03342477,0.01834077,-0.
 13165015,0.54123674,-0.00530964,0.00473996,-0.00804472,0.00690123,0.00
 388247,0.00644432,0.00017060,-0.00109887,0.00068734,-0.00274316,0.0017
 5652,0.00075105,-0.06496418,0.23950445,-0.21336042,0.00199094,-0.01889
 443,0.01346840,0.06828256,-0.25530772,0.20038901,-0.00215034,0.0059955
 9,-0.01260010,0.00217013,-0.01204156,0.03391077,-0.00053596,-0.0004569
 6,-0.00172008,-0.00148649,0.00405750,-0.00120824,-0.15622039,-0.049704
 84,0.17847286,0.01646857,-0.00201117,-0.00590113,0.02130328,0.00758093
 ,-0.00822898,0.12654815,0.00154359,-0.00240977,-0.00092280,0.00448914,
 0.00036560,0.00305847,0.00101383,0.00096484,0.00130973,-0.00316317,0.0
 0714217,-0.00192493,-0.04675434,-0.12404066,0.12665708,0.00658288,0.00
 850769,-0.03000421,-0.01086839,0.00183623,0.03275580,0.04876270,0.0995
 1517,-0.00252229,-0.00233332,0.00254061,-0.01063927,0.00636449,-0.0196
 5700,0.00266649,0.00303423,0.00976670,0.00266910,-0.00493034,0.0033171
 7,0.17207997,0.13180422,-0.54700883,0.00848033,-0.00258446,-0.02586755
 ,0.01173304,-0.00226751,-0.00390331,-0.19106029,-0.13498726,0.58449965
 ,-0.07780858,0.00289265,0.00519861,0.00832485,-0.01291276,-0.00197142,
 0.00063995,0.00079511,0.00214734,-0.00065952,-0.00431046,0.00396677,-0
 .00004370,0.00419146,-0.00287519,-0.00003421,-0.00079351,0.00009749,-0
 .00346683,-0.00260369,0.00184683,0.00025773,-0.00068261,0.00070062,0.0
 8337334,-0.00157307,-0.29613589,0.04476252,0.00443878,-0.03685931,-0.0
 0483040,0.00056430,0.00560194,0.00356691,-0.00448620,-0.00467007,0.007
 08891,0.00604994,-0.00940026,0.00295579,-0.00176958,0.00156227,0.00020
 008,-0.00082692,0.00540642,-0.00239822,-0.00273590,0.00119281,0.000817
 67,-0.03188720,0.42996631,0.00437478,0.03730273,-0.08856228,-0.0023213
 1,0.02499508,0.00344369,0.00071731,0.00215081,0.00119918,0.00259634,0.
 00675348,-0.00549388,-0.00381725,0.00016642,-0.00316652,0.00060197,0.0
 0080262,0.00102974,0.00199480,-0.00077923,0.00153287,0.00160816,-0.000
 04567,-0.00013554,0.00679058,-0.02487466,0.07718190,-0.09236688,-0.023
 45077,-0.04876703,0.00766825,0.00231752,0.00380196,0.00064589,0.000262
 87,0.00416466,0.00060531,-0.00076947,0.00088156,-0.00035744,-0.0008702
 0,-0.00600768,-0.00200944,-0.00021918,0.00263253,-0.00043512,0.0004828
 6,0.00189912,0.00078835,0.00002876,0.00089268,0.01059096,-0.01323538,-
 0.00629842,0.12319118,-0.02192283,-0.10433007,-0.06959861,-0.00255926,
 0.00090307,-0.00175669,0.00072418,0.00142816,0.00148620,0.00031410,0.0
 0498583,-0.00038047,-0.00073237,-0.00540982,-0.00218472,-0.00151584,0.
 00189773,0.00215095,0.00094012,0.00143482,-0.00055507,0.00028944,0.000
 73521,0.00044134,-0.01723713,-0.05768891,-0.05251284,0.05014719,0.1422
 2613,-0.04388527,-0.06500771,-0.25499041,-0.02133570,-0.02814456,-0.03
 112737,0.00499514,0.00132186,-0.01323624,0.00160686,0.00524714,0.00016
 154,-0.00670083,-0.00173050,-0.00727703,0.00197031,0.00355531,0.003203
 69,0.00220771,-0.00086229,0.00209287,0.00252987,0.00034307,0.00033926,
 -0.00538393,-0.03501292,0.00041186,0.10519761,0.12527584,0.31363516,-0
 .27806181,0.03424506,0.00847466,-0.05505460,0.01195420,-0.00526045,0.0
 0490609,0.00041353,0.00426064,0.00485585,-0.00242722,0.00076646,0.0094
 8560,-0.00091478,0.00345570,-0.00187988,-0.00237566,-0.00139943,-0.001
 83672,0.00087676,-0.00043097,-0.00477216,-0.00085821,0.00323796,-0.021
 19949,0.04485685,-0.00607339,-0.04810425,-0.00870058,-0.04145851,0.391
 63728,0.03719535,-0.08240854,0.00076612,-0.00334980,0.00168060,0.00149
 332,0.00026260,0.00135816,0.00188724,-0.00353099,0.00468421,-0.0007034
 6,0.00086759,-0.00301674,0.00161783,-0.00029610,0.00054910,-0.00006753
 ,0.00011235,0.00147239,-0.00088736,-0.00063209,0.00048301,-0.00006506,
 0.06240115,-0.03922516,0.00620951,-0.01517872,0.01368544,-0.00465602,-
 0.07798808,0.10075230,0.00491679,0.00188630,-0.07933526,0.02877058,-0.
 00360495,0.00257778,0.00054446,0.00076368,0.00277975,0.00072982,-0.000
 27751,0.00031197,-0.00541394,0.00173294,-0.00670907,0.00090094,0.00136
 503,0.00194605,0.00093697,-0.00142963,0.00177888,0.00320293,0.00014573
 ,-0.00064332,-0.01045935,0.00764376,0.01262150,-0.05857643,-0.00231242
 ,-0.01313201,0.03441972,-0.00561854,0.07786278,-0.00013293,-0.00068967
 ,-0.00003935,0.00065306,-0.00635990,-0.00156085,-0.00072935,0.00070451
 ,0.00026711,-0.00005296,0.00377528,0.00015319,-0.00107759,-0.00709865,
 -0.00042198,-0.01099643,-0.04908617,0.02074088,0.00197128,0.00217467,0
 .00058565,-0.00237088,-0.00009419,0.00176166,0.00002550,0.00060438,-0.
 00017357,-0.00021682,0.00025297,0.00025674,0.00002409,0.00013673,0.000
 02750,0.01290302,-0.00102356,-0.00067400,0.00096746,-0.00176464,0.0020
 7958,-0.00115675,0.00119269,0.00017041,0.00076294,0.00049234,-0.000633
 70,0.00023052,-0.00476269,-0.03420792,0.00980720,-0.05133668,-0.383660
 76,0.19106240,-0.00092352,-0.00018978,-0.00349753,0.00089636,0.0057077
 0,0.00470600,0.00014699,0.00024984,-0.00016828,0.00048452,0.00013240,-
 0.00032920,0.00091814,-0.00001476,-0.00029438,0.05568005,0.41104100,0.
 00015585,0.00002891,0.00005952,0.00097343,-0.00200160,-0.00108296,-0.0
 0104249,-0.00011686,-0.00060482,-0.00076814,0.00123052,-0.00063969,-0.
 00596951,-0.02706733,0.01508355,0.02757666,0.23331279,-0.16054115,-0.0
 0045176,-0.00696204,-0.00183629,0.00099422,0.00361499,-0.00324783,-0.0
 0005834,0.00008057,-0.00006249,0.00017944,-0.00005351,-0.00008131,0.00
 000761,0.00002394,-0.00005903,-0.02159697,-0.20209038,0.15301251\\0.00
 000904,-0.00000655,0.00000528,-0.00001123,-0.00000157,-0.00003399,-0.0
 0000533,-0.00000406,-0.00000434,-0.00000169,-0.00001394,-0.00000392,-0
 .00002549,0.00000507,0.00004931,0.00004651,-0.00000668,0.00002368,0.00
 000382,0.00002571,-0.00000831,-0.00000555,-0.00000330,-0.00003363,-0.0
 0000067,-0.00000164,0.00000157,-0.00000382,0.00000013,0.00000303,0.000
 00083,-0.00000091,0.00000080,-0.00000642,0.00000775,0.00000051\\\@
 The archive entry for this job was punched.


 THERE IS AN OLD, OLD RECIPE IN MAINE FOR STEWING COOT. PLACE THE
 BIRD IN A KETTLE OF WATER WITH A RED BUILDING BRICK FREE OF MORTAR AND
 BLEMISHES. PARBOIL THE COOT AND BRICK TOGETHER FOR THREE HOURS.
 POUR OFF THE WATER, REFILL THE KETTLE, AND AGAIN PARBOIL FOR THREE HOURS.
 ONCE AGAIN POUR OFF THE WATER, FOR THE LAST TIME ADD FRESH WATER,
 AND LET THE COOT AND BRICK SIMMER TOGETHER OVERNIGHT. IN THE MORNING,
 THROW AWAY THE COOT AND EAT THE BRICK.
 Job cpu time:       0 days  0 hours  9 minutes 26.3 seconds.
 Elapsed time:       0 days  0 hours  1 minutes 12.9 seconds.
 File lengths (MBytes):  RWF=     99 Int=      0 D2E=      0 Chk=      6 Scr=      1
 Normal termination of Gaussian 16 at Fri May 23 04:12:50 2025.
done
