 Entering Gaussian System, Link 0=g16
 Initial command:
 /apps/easybuild-2022/easybuild/software/Compiler/NVHPC/22.11-CUDA-11.7.0/Gaussian/g16c01-CUDA-11.7.0/g16/l1.exe "/tmp/Gau-141361.inp" -scrdir="/tmp/"
 Entering Link 1 = /apps/easybuild-2022/easybuild/software/Compiler/NVHPC/22.11-CUDA-11.7.0/Gaussian/g16c01-CUDA-11.7.0/g16/l1.exe PID=    141362.
  
 Copyright (c) 1988-2019, Gaussian, Inc.  All Rights Reserved.
  
 This is part of the Gaussian(R) 16 program.  It is based on
 the Gaussian(R) 09 system (copyright 2009, Gaussian, Inc.),
 the Gaussian(R) 03 system (copyright 2003, Gaussian, Inc.),
 the Gaussian(R) 98 system (copyright 1998, Gaussian, Inc.),
 the Gaussian(R) 94 system (copyright 1995, Gaussian, Inc.),
 the Gaussian 92(TM) system (copyright 1992, Gaussian, Inc.),
 the Gaussian 90(TM) system (copyright 1990, Gaussian, Inc.),
 the Gaussian 88(TM) system (copyright 1988, Gaussian, Inc.),
 the Gaussian 86(TM) system (copyright 1986, Carnegie Mellon
 University), and the Gaussian 82(TM) system (copyright 1983,
 Carnegie Mellon University). Gaussian is a federally registered
 trademark of Gaussian, Inc.
  
 This software contains proprietary and confidential information,
 including trade secrets, belonging to Gaussian, Inc.
  
 This software is provided under written license and may be
 used, copied, transmitted, or stored only in accord with that
 written license.
  
 The following legend is applicable only to US Government
 contracts under FAR:
  
                    RESTRICTED RIGHTS LEGEND
  
 Use, reproduction and disclosure by the US Government is
 subject to restrictions as set forth in subparagraphs (a)
 and (c) of the Commercial Computer Software - Restricted
 Rights clause in FAR 52.227-19.
  
 Gaussian, Inc.
 340 Quinnipiac St., Bldg. 40, Wallingford CT 06492
  
  
 ---------------------------------------------------------------
 Warning -- This program may not be used in any manner that
 competes with the business of Gaussian, Inc. or will provide
 assistance to any competitor of Gaussian, Inc.  The licensee
 of this program is prohibited from giving any competitor of
 Gaussian, Inc. access to this program.  By using this program,
 the user acknowledges that Gaussian, Inc. is engaged in the
 business of creating and licensing software in the field of
 computational chemistry and represents and warrants to the
 licensee that it is not a competitor of Gaussian, Inc. and that
 it will not use this program in any manner prohibited above.
 ---------------------------------------------------------------
  

 Cite this work as:
 Gaussian 16, Revision C.01,
 M. J. Frisch, G. W. Trucks, H. B. Schlegel, G. E. Scuseria, 
 M. A. Robb, J. R. Cheeseman, G. Scalmani, V. Barone, 
 G. A. Petersson, H. Nakatsuji, X. Li, M. Caricato, A. V. Marenich, 
 J. Bloino, B. G. Janesko, R. Gomperts, B. Mennucci, H. P. Hratchian, 
 J. V. Ortiz, A. F. Izmaylov, J. L. Sonnenberg, D. Williams-Young, 
 F. Ding, F. Lipparini, F. Egidi, J. Goings, B. Peng, A. Petrone, 
 T. Henderson, D. Ranasinghe, V. G. Zakrzewski, J. Gao, N. Rega, 
 G. Zheng, W. Liang, M. Hada, M. Ehara, K. Toyota, R. Fukuda, 
 J. Hasegawa, M. Ishida, T. Nakajima, Y. Honda, O. Kitao, H. Nakai, 
 T. Vreven, K. Throssell, J. A. Montgomery, Jr., J. E. Peralta, 
 F. Ogliaro, M. J. Bearpark, J. J. Heyd, E. N. Brothers, K. N. Kudin, 
 V. N. Staroverov, T. A. Keith, R. Kobayashi, J. Normand, 
 K. Raghavachari, A. P. Rendell, J. C. Burant, S. S. Iyengar, 
 J. Tomasi, M. Cossi, J. M. Millam, M. Klene, C. Adamo, R. Cammi, 
 J. W. Ochterski, R. L. Martin, K. Morokuma, O. Farkas, 
 J. B. Foresman, and D. J. Fox, Gaussian, Inc., Wallingford CT, 2019.
 
 ******************************************
 Gaussian 16:  ES64L-G16RevC.01  3-Jul-2019
                23-May-2025 
 ******************************************
 %mem=28GB
 %chk=2003846667223680600001_r12_insertion_R_9_1_2_IRC_F
 %nprocshared=8
 Will use up to    8 processors via shared memory.
 ----------------------------------------------------------------------
 #P wb97xd/6-311++G(d,p) Symm(None) scf(xqc) pop(None) geom(AllCheck,No
 KeepConstants) guess(Read) irc(RCFC,forward,MaxPoints=100,StepSize=2)
 ----------------------------------------------------------------------
 1/10=5,18=10,22=1,26=3,29=20007,38=1,39=2,42=100,44=3,172=1/1,23;
 2/12=2,15=3,29=1,40=1/2;
 3/5=4,6=6,7=1111,11=2,14=-4,25=1,30=1,71=2,74=-58,116=-2,140=1/1,2,3;
 4/5=1/1;
 5/5=2,8=3,13=1,38=6/2,8;
 8/6=4,10=90,11=11/1;
 11/6=1,8=1,9=11,15=111,16=1,31=1/1,2,10;
 10/6=1,13=1,31=1/2;
 7/10=1,25=1,30=1/1,2,3,16;
 1/18=10,22=1,26=3,39=2,42=100,44=3/23(2);
 2/15=3,29=1/2;
 99/5=20/99;
 2/15=3,29=1/2;
 3/5=4,6=6,7=1111,11=2,14=-2,25=1,30=1,71=2,74=-58,140=1/1,2,3;
 4/5=5,16=3,69=1/1;
 5/5=2,8=3,13=1,38=5/2,8;
 8/6=4,10=90,11=11/1;
 11/6=1,8=1,9=11,15=111,16=1,31=1/1,2,10;
 10/6=1,13=1,31=1/2;
 7/10=1,25=1,30=1/1,2,3,16;
 1/18=10,22=1,26=3,39=2,42=100,44=3/23(-8);
 2/15=3,29=1/2;
 99/5=20,9=1/99;
 Leave Link    1 at Fri May 23 03:40:47 2025, MaxMem=  3758096384 cpu:               0.1 elap:               0.1
 (Enter /apps/easybuild-2022/easybuild/software/Compiler/NVHPC/22.11-CUDA-11.7.0/Gaussian/g16c01-CUDA-11.7.0/g16/l101.exe)
 Structure from the checkpoint file:  "2003846667223680600001_r12_insertion_R_9_1_2_IRC_F.chk"
 ------------------------------
 Gaussian input prepared by ASE
 ------------------------------
 Charge =  0 Multiplicity = 1
 Redundant internal coordinates found in file.  (old form).
 C,0,-1.6271733994,0.1081747398,0.9918846187
 C,0,0.1601389639,0.5188403459,0.4007111884
 F,0,-0.0910988593,0.111065365,-0.8475131644
 F,0,0.0173495714,1.817776549,0.6026023854
 S,0,2.050930528,0.2512667844,0.5313803779
 O,0,2.5221754914,0.8842058772,1.723155713
 O,0,2.3423576259,-1.1132503701,0.1818853511
 O,0,2.5041166293,1.194960807,-0.7013726545
 F,0,-0.0103109124,-0.4959791216,1.7027148179
 F,0,-2.1793686746,0.6541517702,2.0134769838
 F,0,-2.2272970694,-0.9936376461,0.7199805276
 H,0,2.5886081052,0.6604528993,-1.500615145
 Recover connectivity data from disk.
 ITRead=  0  0  0  0  0  0  0  0  0  0  0  0
 MicOpt= -1 -1 -1 -1 -1 -1 -1 -1 -1 -1 -1 -1
 NAtoms=     12 NQM=       12 NQMF=       0 NMMI=      0 NMMIF=      0
                NMic=       0 NMicF=      0.
                    Isotopes and Nuclear Properties:
 (Nuclear quadrupole moments (NQMom) in fm**2, nuclear magnetic moments (NMagM)
  in nuclear magnetons)

  Atom         1           2           3           4           5           6           7           8           9          10
 IAtWgt=          12          12          19          19          32          16          16          16          19          19
 AtmWgt=  12.0000000  12.0000000  18.9984032  18.9984032  31.9720718  15.9949146  15.9949146  15.9949146  18.9984032  18.9984032
 NucSpn=           0           0           1           1           0           0           0           0           1           1
 AtZEff=   3.6000000   3.6000000   6.7500000   6.7500000  13.6000000   5.6000000   5.6000000   5.6000000   6.7500000   6.7500000
 NQMom=    0.0000000   0.0000000   0.0000000   0.0000000   0.0000000   0.0000000   0.0000000   0.0000000   0.0000000   0.0000000
 NMagM=    0.0000000   0.0000000   2.6288670   2.6288670   0.0000000   0.0000000   0.0000000   0.0000000   2.6288670   2.6288670
 AtZNuc=   6.0000000   6.0000000   9.0000000   9.0000000  16.0000000   8.0000000   8.0000000   8.0000000   9.0000000   9.0000000

  Atom        11          12
 IAtWgt=          19           1
 AtmWgt=  18.9984032   1.0078250
 NucSpn=           1           1
 AtZEff=   6.7500000   1.0000000
 NQMom=    0.0000000   0.0000000
 NMagM=    2.6288670   2.7928460
 AtZNuc=   9.0000000   1.0000000
 Leave Link  101 at Fri May 23 03:40:47 2025, MaxMem=  3758096384 cpu:               0.3 elap:               0.2
 (Enter /apps/easybuild-2022/easybuild/software/Compiler/NVHPC/22.11-CUDA-11.7.0/Gaussian/g16c01-CUDA-11.7.0/g16/l123.exe)
 IRC-IRC-IRC-IRC-IRC-IRC-IRC-IRC-IRC-IRC-IRC-IRC-IRC-IRC-IRC-IRC-IRC-IRC
 ------------------------------------------------------------------------
 INPUT DATA FOR L123
 ------------------------------------------------------------------------
 GENERAL PARAMETERS:
 Rxn path following direction = Forward
 Maximum points per path      = 100
 Step size                    =   0.020 bohr
 Integration scheme           = HPC                                 
    Redo corrector integration= Yes                                 
    DWI Weight Power          =  2
    DWI will use Hessian update vectors when possible.
    Max correction cycles     =  20
 Initial Hessian              = ReadFC from chk
 Hessian evaluation           = All updating
 Hessian updating method      = Bofill                              
 ------------------------------------------------------------------------
          ******** Start new reaction path calculation ********
 RCFC Option Requested - Data Read From Chk File:
 "2003846667223680600001_r12_insertion_R_9_1_2_IRC_F.chk"
   Energy From Chk =  -1199.6423753

 Current Structure is TS -> form Hessian eigenvectors.
                            Recovering Hessian eigenvectors from chk file.
 Supplied step size of   0.0200 bohr.
    Integration on MW PES will use step size of   0.0763 sqrt(amu)*bohr.
 Point Number:   0          Path Number:   1
 Calculating another point on the path.
 Point Number  1 in FORWARD path direction.
 Using LQA Reaction Path Following.
 IRC-IRC-IRC-IRC-IRC-IRC-IRC-IRC-IRC-IRC-IRC-IRC-IRC-IRC-IRC-IRC-IRC-IRC
 Leave Link  123 at Fri May 23 03:40:47 2025, MaxMem=  3758096384 cpu:               0.1 elap:               0.0
 (Enter /apps/easybuild-2022/easybuild/software/Compiler/NVHPC/22.11-CUDA-11.7.0/Gaussian/g16c01-CUDA-11.7.0/g16/l202.exe)
                          Input orientation:                          
 ---------------------------------------------------------------------
 Center     Atomic      Atomic             Coordinates (Angstroms)
 Number     Number       Type             X           Y           Z
 ---------------------------------------------------------------------
      1          6           0       -2.049115   -0.151923    0.333951
      2          6           0       -0.251323    0.255269   -0.253258
      3          9           0       -0.506523   -0.151814   -1.501213
      4          9           0       -0.398157    1.554054   -0.052084
      5         16           0        1.636028   -0.010895   -0.124292
      6          8           0        2.106738    0.621940    1.067667
      7          8           0        1.926848   -1.375520   -0.473627
      8          8           0        2.088659    0.932703   -1.356929
      9          9           0       -0.423939   -0.755590    1.043610
     10          9           0       -2.596676    0.391223    1.359126
     11          9           0       -2.644578   -1.256750    0.065428
     12          1           0        2.173357    0.398340   -2.156246
 ---------------------------------------------------------------------
                    Distance matrix (angstroms):
                    1          2          3          4          5
     1  C    0.000000
     2  C    1.934600   0.000000
     3  F    2.397377   1.337250   0.000000
     4  F    2.405212   1.322450   2.240917   0.000000
     5  S    3.716201   1.910384   2.550744   2.567526   0.000000
     6  O    4.290492   2.727589   3.745261   2.897789   1.429271
     7  O    4.237648   2.729920   2.911132   3.763742   1.438337
     8  O    4.599638   2.674420   2.816375   2.876275   1.616987
     9  F    1.873292   1.653329   2.616771   2.556494   2.482343
    10  F    1.282893   2.849376   3.584015   2.859575   4.503111
    11  F    1.283481   2.848760   2.871676   3.600116   4.462257
    12  H    4.932863   3.085596   2.813093   3.517933   2.141269
                    6          7          8          9         10
     6  O    0.000000
     7  O    2.529387   0.000000
     8  O    2.444498   2.476752   0.000000
     9  F    2.881405   2.865751   3.863428   0.000000
    10  F    4.718080   5.190630   5.442658   2.476997   0.000000
    11  F    5.206627   4.604631   5.405584   2.477749   2.095654
    12  H    3.232344   2.457347   0.965206   4.279787   5.925461
                   11         12
    11  F    0.000000
    12  H    5.557666   0.000000
 Symmetry turned off by external request.
 Stoichiometry    C2HF5O3S
 Rotational constants (GHZ):           1.8728810           0.6551415           0.6442099
 Leave Link  202 at Fri May 23 03:40:47 2025, MaxMem=  3758096384 cpu:               0.1 elap:               0.0
 (Enter /apps/easybuild-2022/easybuild/software/Compiler/NVHPC/22.11-CUDA-11.7.0/Gaussian/g16c01-CUDA-11.7.0/g16/l301.exe)
 Standard basis: 6-311++G(d,p) (5D, 7F)
 Ernie: Thresh=  0.10000D-02 Tol=  0.10000D-05 Strict=F.
   257 basis functions,   419 primitive gaussians,   268 cartesian basis functions
    49 alpha electrons       49 beta electrons
       nuclear repulsion energy       895.8365344958 Hartrees.
 IExCor= 4639 DFT=T Ex+Corr=wB97XD ExCW=0 ScaHFX=  1.000000
 ScaDFX=  1.000000  1.000000  1.000000  1.000000 ScalE2=  1.000000  1.000000
 IRadAn=      5 IRanWt=     -1 IRanGd=            0 ICorTp=0 IEmpDi=121
 HFx  wShort=  0.000000 wLong=  0.200000 cFull=  0.222036 cShort=  0.000000 cLong=  0.777964
 DFx  wShort=  0.000000 wLong=  0.200000 cFull=  0.000000 cShort=  0.000000 cLong=  1.000000
 NAtoms=   12 NActive=   12 NUniq=   12 SFac= 1.00D+00 NAtFMM=   60 NAOKFM=F Big=F
 Integral buffers will be    131072 words long.
 Raffenetti 2 integral format.
 Two-electron integral symmetry is turned off.
 R6Disp:  Grimme-D2 Dispersion energy=       -0.0052069716 Hartrees.
 Nuclear repulsion after empirical dispersion term =      895.8313275243 Hartrees.
 Leave Link  301 at Fri May 23 03:40:47 2025, MaxMem=  3758096384 cpu:               0.1 elap:               0.1
 (Enter /apps/easybuild-2022/easybuild/software/Compiler/NVHPC/22.11-CUDA-11.7.0/Gaussian/g16c01-CUDA-11.7.0/g16/l302.exe)
 NPDir=0 NMtPBC=     1 NCelOv=     1 NCel=       1 NClECP=     1 NCelD=      1
         NCelK=      1 NCelE2=     1 NClLst=     1 CellRange=     0.0.
 One-electron integrals computed using PRISM.
 NBasis=   257 RedAO= T EigKep=  9.39D-05  NBF=   257
 NBsUse=   257 1.00D-06 EigRej= -1.00D+00 NBFU=   257
 Precomputing XC quadrature grid using
 IXCGrd= 4 IRadAn=           5 IRanWt=          -1 IRanGd=           0 AccXCQ= 0.00D+00.
 Generated NRdTot=       0 NPtTot=           0 NUsed=           0 NTot=          32
 NSgBfM=   268   268   268   268   268 MxSgAt=    12 MxSgA2=    12.
 Leave Link  302 at Fri May 23 03:40:47 2025, MaxMem=  3758096384 cpu:               0.9 elap:               0.2
 (Enter /apps/easybuild-2022/easybuild/software/Compiler/NVHPC/22.11-CUDA-11.7.0/Gaussian/g16c01-CUDA-11.7.0/g16/l303.exe)
 DipDrv:  MaxL=1.
 Leave Link  303 at Fri May 23 03:40:47 2025, MaxMem=  3758096384 cpu:               0.1 elap:               0.1
 (Enter /apps/easybuild-2022/easybuild/software/Compiler/NVHPC/22.11-CUDA-11.7.0/Gaussian/g16c01-CUDA-11.7.0/g16/l401.exe)
 Initial guess from the checkpoint file:  "2003846667223680600001_r12_insertion_R_9_1_2_IRC_F.chk"
 B after Tr=    -0.785536   -0.495630   -1.238699
         Rot=    1.000000   -0.000001    0.000003    0.000002 Ang=  -0.00 deg.
 Guess basis will be translated and rotated to current coordinates.
 JPrj=2 DoOrth=T DoCkMO=T.
 Leave Link  401 at Fri May 23 03:40:48 2025, MaxMem=  3758096384 cpu:               0.5 elap:               0.3
 (Enter /apps/easybuild-2022/easybuild/software/Compiler/NVHPC/22.11-CUDA-11.7.0/Gaussian/g16c01-CUDA-11.7.0/g16/l502.exe)
 Keep R1 ints in memory in canonical form, NReq=1117474609.
 FoFCou: FMM=F IPFlag=           0 FMFlag=           0 FMFlg1=           0
         NFxFlg=           0 DoJE=F BraDBF=F KetDBF=F FulRan=T
         wScrn=  0.000000 ICntrl=       600 IOpCl=  0 I1Cent=           0 NGrid=           0
         NMat0=    1 NMatS0=  33153 NMatT0=    0 NMatD0=    1 NMtDS0=    0 NMtDT0=    0
 Symmetry not used in FoFCou.
 Two-electron integral symmetry not used.
 Closed shell SCF:
 Using DIIS extrapolation, IDIIS=  1040.
 NGot=  3758096384 LenX=  2658793876 LenY=  2658721611
 Requested convergence on RMS density matrix=1.00D-08 within  32 cycles.
 Requested convergence on MAX density matrix=1.00D-06.
 Requested convergence on             energy=1.00D-06.
 No special actions if energy rises.

 Cycle   1  Pass 1  IDiag  1:
 E= -1199.64228649673    
 DIIS: error= 3.00D-04 at cycle   1 NSaved=   1.
 NSaved= 1 IEnMin= 1 EnMin= -1199.64228649673     IErMin= 1 ErrMin= 3.00D-04
 ErrMax= 3.00D-04  0.00D+00 EMaxC= 1.00D-01 BMatC= 6.22D-05 BMatP= 6.22D-05
 IDIUse=3 WtCom= 9.97D-01 WtEn= 3.00D-03
 Coeff-Com:  0.100D+01
 Coeff-En:   0.100D+01
 Coeff:      0.100D+01
 Gap=     0.372 Goal=   None    Shift=    0.000
 RMSDP=1.03D-04 MaxDP=5.69D-03              OVMax= 4.29D-03

 Cycle   2  Pass 1  IDiag  1:
 E= -1199.64239786431     Delta-E=       -0.000111367589 Rises=F Damp=F
 DIIS: error= 1.37D-04 at cycle   2 NSaved=   2.
 NSaved= 2 IEnMin= 2 EnMin= -1199.64239786431     IErMin= 2 ErrMin= 1.37D-04
 ErrMax= 1.37D-04  0.00D+00 EMaxC= 1.00D-01 BMatC= 4.38D-06 BMatP= 6.22D-05
 IDIUse=3 WtCom= 9.99D-01 WtEn= 1.37D-03
 Coeff-Com: -0.110D+00 0.111D+01
 Coeff-En:   0.000D+00 0.100D+01
 Coeff:     -0.110D+00 0.111D+01
 Gap=     0.370 Goal=   None    Shift=    0.000
 RMSDP=2.85D-05 MaxDP=1.45D-03 DE=-1.11D-04 OVMax= 2.55D-03

 Cycle   3  Pass 1  IDiag  1:
 E= -1199.64240844333     Delta-E=       -0.000010579010 Rises=F Damp=F
 DIIS: error= 1.05D-04 at cycle   3 NSaved=   3.
 NSaved= 3 IEnMin= 3 EnMin= -1199.64240844333     IErMin= 3 ErrMin= 1.05D-04
 ErrMax= 1.05D-04  0.00D+00 EMaxC= 1.00D-01 BMatC= 4.42D-06 BMatP= 4.38D-06
 IDIUse=3 WtCom= 9.99D-01 WtEn= 1.05D-03
 Coeff-Com: -0.119D+00 0.612D+00 0.507D+00
 Coeff-En:   0.000D+00 0.000D+00 0.100D+01
 Coeff:     -0.119D+00 0.611D+00 0.507D+00
 Gap=     0.370 Goal=   None    Shift=    0.000
 RMSDP=9.36D-06 MaxDP=3.54D-04 DE=-1.06D-05 OVMax= 4.17D-04

 Cycle   4  Pass 1  IDiag  1:
 E= -1199.64241173486     Delta-E=       -0.000003291531 Rises=F Damp=F
 DIIS: error= 4.17D-05 at cycle   4 NSaved=   4.
 NSaved= 4 IEnMin= 4 EnMin= -1199.64241173486     IErMin= 4 ErrMin= 4.17D-05
 ErrMax= 4.17D-05  0.00D+00 EMaxC= 1.00D-01 BMatC= 2.75D-07 BMatP= 4.38D-06
 IDIUse=1 WtCom= 1.00D+00 WtEn= 0.00D+00
 Coeff-Com:  0.204D-02-0.125D+00 0.119D+00 0.100D+01
 Coeff:      0.204D-02-0.125D+00 0.119D+00 0.100D+01
 Gap=     0.370 Goal=   None    Shift=    0.000
 RMSDP=7.72D-06 MaxDP=4.65D-04 DE=-3.29D-06 OVMax= 7.16D-04

 Cycle   5  Pass 1  IDiag  1:
 E= -1199.64241244945     Delta-E=       -0.000000714595 Rises=F Damp=F
 DIIS: error= 1.48D-05 at cycle   5 NSaved=   5.
 NSaved= 5 IEnMin= 5 EnMin= -1199.64241244945     IErMin= 5 ErrMin= 1.48D-05
 ErrMax= 1.48D-05  0.00D+00 EMaxC= 1.00D-01 BMatC= 7.49D-08 BMatP= 2.75D-07
 IDIUse=1 WtCom= 1.00D+00 WtEn= 0.00D+00
 Coeff-Com:  0.126D-01-0.122D+00-0.147D-01 0.457D+00 0.667D+00
 Coeff:      0.126D-01-0.122D+00-0.147D-01 0.457D+00 0.667D+00
 Gap=     0.370 Goal=   None    Shift=    0.000
 RMSDP=2.44D-06 MaxDP=1.29D-04 DE=-7.15D-07 OVMax= 1.65D-04

 Cycle   6  Pass 1  IDiag  1:
 E= -1199.64241254635     Delta-E=       -0.000000096898 Rises=F Damp=F
 DIIS: error= 4.48D-06 at cycle   6 NSaved=   6.
 NSaved= 6 IEnMin= 6 EnMin= -1199.64241254635     IErMin= 6 ErrMin= 4.48D-06
 ErrMax= 4.48D-06  0.00D+00 EMaxC= 1.00D-01 BMatC= 1.06D-08 BMatP= 7.49D-08
 IDIUse=1 WtCom= 1.00D+00 WtEn= 0.00D+00
 Coeff-Com:  0.452D-02-0.192D-01-0.417D-01-0.490D-01 0.263D+00 0.842D+00
 Coeff:      0.452D-02-0.192D-01-0.417D-01-0.490D-01 0.263D+00 0.842D+00
 Gap=     0.370 Goal=   None    Shift=    0.000
 RMSDP=1.46D-06 MaxDP=9.06D-05 DE=-9.69D-08 OVMax= 1.11D-04

 Cycle   7  Pass 1  IDiag  1:
 E= -1199.64241256510     Delta-E=       -0.000000018753 Rises=F Damp=F
 DIIS: error= 1.74D-06 at cycle   7 NSaved=   7.
 NSaved= 7 IEnMin= 7 EnMin= -1199.64241256510     IErMin= 7 ErrMin= 1.74D-06
 ErrMax= 1.74D-06  0.00D+00 EMaxC= 1.00D-01 BMatC= 1.34D-09 BMatP= 1.06D-08
 IDIUse=1 WtCom= 1.00D+00 WtEn= 0.00D+00
 Coeff-Com:  0.413D-03 0.644D-02-0.153D-01-0.703D-01 0.334D-01 0.349D+00
 Coeff-Com:  0.697D+00
 Coeff:      0.413D-03 0.644D-02-0.153D-01-0.703D-01 0.334D-01 0.349D+00
 Coeff:      0.697D+00
 Gap=     0.370 Goal=   None    Shift=    0.000
 RMSDP=4.30D-07 MaxDP=1.64D-05 DE=-1.88D-08 OVMax= 2.18D-05

 Cycle   8  Pass 1  IDiag  1:
 E= -1199.64241256655     Delta-E=       -0.000000001448 Rises=F Damp=F
 DIIS: error= 6.65D-07 at cycle   8 NSaved=   8.
 NSaved= 8 IEnMin= 8 EnMin= -1199.64241256655     IErMin= 8 ErrMin= 6.65D-07
 ErrMax= 6.65D-07  0.00D+00 EMaxC= 1.00D-01 BMatC= 2.16D-10 BMatP= 1.34D-09
 IDIUse=1 WtCom= 1.00D+00 WtEn= 0.00D+00
 Coeff-Com: -0.496D-03 0.605D-02-0.575D-04-0.242D-01-0.264D-01 0.229D-01
 Coeff-Com:  0.318D+00 0.705D+00
 Coeff:     -0.496D-03 0.605D-02-0.575D-04-0.242D-01-0.264D-01 0.229D-01
 Coeff:      0.318D+00 0.705D+00
 Gap=     0.370 Goal=   None    Shift=    0.000
 RMSDP=1.32D-07 MaxDP=4.38D-06 DE=-1.45D-09 OVMax= 7.46D-06

 Cycle   9  Pass 1  IDiag  1:
 E= -1199.64241256677     Delta-E=       -0.000000000221 Rises=F Damp=F
 DIIS: error= 2.51D-07 at cycle   9 NSaved=   9.
 NSaved= 9 IEnMin= 9 EnMin= -1199.64241256677     IErMin= 9 ErrMin= 2.51D-07
 ErrMax= 2.51D-07  0.00D+00 EMaxC= 1.00D-01 BMatC= 1.99D-11 BMatP= 2.16D-10
 IDIUse=1 WtCom= 1.00D+00 WtEn= 0.00D+00
 Coeff-Com: -0.245D-03 0.151D-02 0.176D-02-0.136D-02-0.129D-01-0.338D-01
 Coeff-Com:  0.306D-01 0.259D+00 0.755D+00
 Coeff:     -0.245D-03 0.151D-02 0.176D-02-0.136D-02-0.129D-01-0.338D-01
 Coeff:      0.306D-01 0.259D+00 0.755D+00
 Gap=     0.370 Goal=   None    Shift=    0.000
 RMSDP=4.98D-08 MaxDP=2.38D-06 DE=-2.21D-10 OVMax= 2.84D-06

 Cycle  10  Pass 1  IDiag  1:
 E= -1199.64241256685     Delta-E=       -0.000000000077 Rises=F Damp=F
 DIIS: error= 8.06D-08 at cycle  10 NSaved=  10.
 NSaved=10 IEnMin=10 EnMin= -1199.64241256685     IErMin=10 ErrMin= 8.06D-08
 ErrMax= 8.06D-08  0.00D+00 EMaxC= 1.00D-01 BMatC= 1.79D-12 BMatP= 1.99D-11
 IDIUse=1 WtCom= 1.00D+00 WtEn= 0.00D+00
 Coeff-Com:  0.309D-04-0.662D-03 0.452D-03 0.341D-02 0.176D-02-0.103D-01
 Coeff-Com: -0.395D-01-0.516D-01 0.130D+00 0.967D+00
 Coeff:      0.309D-04-0.662D-03 0.452D-03 0.341D-02 0.176D-02-0.103D-01
 Coeff:     -0.395D-01-0.516D-01 0.130D+00 0.967D+00
 Gap=     0.370 Goal=   None    Shift=    0.000
 RMSDP=1.93D-08 MaxDP=5.99D-07 DE=-7.73D-11 OVMax= 1.34D-06

 Cycle  11  Pass 1  IDiag  1:
 E= -1199.64241256682     Delta-E=        0.000000000029 Rises=F Damp=F
 DIIS: error= 3.48D-08 at cycle  11 NSaved=  11.
 NSaved=11 IEnMin=10 EnMin= -1199.64241256685     IErMin=11 ErrMin= 3.48D-08
 ErrMax= 3.48D-08  0.00D+00 EMaxC= 1.00D-01 BMatC= 6.15D-13 BMatP= 1.79D-12
 IDIUse=1 WtCom= 1.00D+00 WtEn= 0.00D+00
 Coeff-Com:  0.439D-04-0.514D-03 0.707D-04 0.197D-02 0.221D-02-0.204D-02
 Coeff-Com: -0.231D-01-0.516D-01-0.179D-01 0.460D+00 0.631D+00
 Coeff:      0.439D-04-0.514D-03 0.707D-04 0.197D-02 0.221D-02-0.204D-02
 Coeff:     -0.231D-01-0.516D-01-0.179D-01 0.460D+00 0.631D+00
 Gap=     0.370 Goal=   None    Shift=    0.000
 RMSDP=6.97D-09 MaxDP=2.93D-07 DE= 2.91D-11 OVMax= 3.68D-07

 SCF Done:  E(RwB97XD) =  -1199.64241257     A.U. after   11 cycles
            NFock= 11  Conv=0.70D-08     -V/T= 2.0020
 KE= 1.197280990205D+03 PE=-4.638774655118D+03 EE= 1.346019924822D+03
 Leave Link  502 at Fri May 23 03:40:59 2025, MaxMem=  3758096384 cpu:              54.7 elap:              11.5
 (Enter /apps/easybuild-2022/easybuild/software/Compiler/NVHPC/22.11-CUDA-11.7.0/Gaussian/g16c01-CUDA-11.7.0/g16/l508.exe)
 QCSCF skips out because SCF is already converged.
 Leave Link  508 at Fri May 23 03:40:59 2025, MaxMem=  3758096384 cpu:               0.1 elap:               0.0
 (Enter /apps/easybuild-2022/easybuild/software/Compiler/NVHPC/22.11-CUDA-11.7.0/Gaussian/g16c01-CUDA-11.7.0/g16/l801.exe)
 DoSCS=F DFT=T ScalE2(SS,OS)=  1.000000  1.000000
 Range of M.O.s used for correlation:     1   257
 NBasis=   257 NAE=    49 NBE=    49 NFC=     0 NFV=     0
 NROrb=    257 NOA=    49 NOB=    49 NVA=   208 NVB=   208

 **** Warning!!: The largest alpha MO coefficient is  0.29797908D+02

 Leave Link  801 at Fri May 23 03:40:59 2025, MaxMem=  3758096384 cpu:               0.1 elap:               0.0
 (Enter /apps/easybuild-2022/easybuild/software/Compiler/NVHPC/22.11-CUDA-11.7.0/Gaussian/g16c01-CUDA-11.7.0/g16/l1101.exe)
 Leave Link 1101 at Fri May 23 03:40:59 2025, MaxMem=  3758096384 cpu:               0.0 elap:               0.0
 (Enter /apps/easybuild-2022/easybuild/software/Compiler/NVHPC/22.11-CUDA-11.7.0/Gaussian/g16c01-CUDA-11.7.0/g16/l1102.exe)
 Symmetrizing basis deriv contribution to polar:
 IMax=3 JMax=2 DiffMx= 0.00D+00
 Leave Link 1102 at Fri May 23 03:40:59 2025, MaxMem=  3758096384 cpu:               0.1 elap:               0.0
 (Enter /apps/easybuild-2022/easybuild/software/Compiler/NVHPC/22.11-CUDA-11.7.0/Gaussian/g16c01-CUDA-11.7.0/g16/l1110.exe)
 Leave Link 1110 at Fri May 23 03:40:59 2025, MaxMem=  3758096384 cpu:               0.1 elap:               0.0
 (Enter /apps/easybuild-2022/easybuild/software/Compiler/NVHPC/22.11-CUDA-11.7.0/Gaussian/g16c01-CUDA-11.7.0/g16/l1002.exe)
 Minotr:  Closed shell wavefunction.
 Leave Link 1002 at Fri May 23 03:40:59 2025, MaxMem=  3758096384 cpu:               0.1 elap:               0.0
 (Enter /apps/easybuild-2022/easybuild/software/Compiler/NVHPC/22.11-CUDA-11.7.0/Gaussian/g16c01-CUDA-11.7.0/g16/l701.exe)
 ... and contract with generalized density number  0.
 Compute integral first derivatives.
 R6Disp: Adding Grimme-D2 dispersion energy 1st derivatives to the gradient.
 Leave Link  701 at Fri May 23 03:41:00 2025, MaxMem=  3758096384 cpu:               0.8 elap:               0.2
 (Enter /apps/easybuild-2022/easybuild/software/Compiler/NVHPC/22.11-CUDA-11.7.0/Gaussian/g16c01-CUDA-11.7.0/g16/l702.exe)
 L702 exits ... SP integral derivatives will be done elsewhere.
 Leave Link  702 at Fri May 23 03:41:00 2025, MaxMem=  3758096384 cpu:               0.1 elap:               0.0
 (Enter /apps/easybuild-2022/easybuild/software/Compiler/NVHPC/22.11-CUDA-11.7.0/Gaussian/g16c01-CUDA-11.7.0/g16/l703.exe)
 Integral derivatives from FoFJK, PRISM(SPDF).
 Compute integral first derivatives, UseDBF=F ICtDFT=           0.
 Calling FoFJK, ICntrl=      2127 FMM=F ISym2X=0 I1Cent= 0 IOpClX= 0 NMat=1 NMatS=1 NMatT=0.
 FoFJK:  IHMeth= 1 ICntrl=    2127 DoSepK=T KAlg= 0 I1Cent=           0 FoldK=F
 IRaf=         1 NMat=       1 IRICut=       1 DoRegI=T DoRafI=F ISym2E= 0 IDoP0=0 IntGTp=1.
 FoFCou: FMM=F IPFlag=           0 FMFlag=      100000 FMFlg1=         800
         NFxFlg=           0 DoJE=F BraDBF=F KetDBF=F FulRan=T
         wScrn=  0.000000 ICntrl=      2527 IOpCl=  0 I1Cent=           0 NGrid=           0
         NMat0=    1 NMatS0=      1 NMatT0=    0 NMatD0=    1 NMtDS0=    0 NMtDT0=    0
 Symmetry not used in FoFCou.
 Leave Link  703 at Fri May 23 03:41:05 2025, MaxMem=  3758096384 cpu:              32.7 elap:               5.4
 (Enter /apps/easybuild-2022/easybuild/software/Compiler/NVHPC/22.11-CUDA-11.7.0/Gaussian/g16c01-CUDA-11.7.0/g16/l716.exe)
 Dipole        =-1.28836490D+00 2.18933834D-01-1.08864331D+00
 Polarizability= 0.00000000D+00 0.00000000D+00 0.00000000D+00
                 0.00000000D+00 0.00000000D+00 0.00000000D+00
 -------------------------------------------------------------------
 Center     Atomic                   Forces (Hartrees/Bohr)
 Number     Number              X              Y              Z
 -------------------------------------------------------------------
      1        6          -0.001794314    0.000628287   -0.000698439
      2        6           0.001221017   -0.000361919    0.000425667
      3        9           0.000125258   -0.000270424    0.000831938
      4        9           0.000090471   -0.000668831    0.000369725
      5       16           0.000633048    0.000093767   -0.000151272
      6        8           0.000102079    0.000001745   -0.000002111
      7        8           0.000070724    0.000004623   -0.000014317
      8        8           0.000093001    0.000009105   -0.000026738
      9        9           0.000922955    0.001238857   -0.001683940
     10        9          -0.000741703   -0.000299180    0.000524200
     11        9          -0.000733449   -0.000380041    0.000429364
     12        1           0.000010913    0.000004010   -0.000004076
 -------------------------------------------------------------------
 Cartesian Forces:  Max     0.001794314 RMS     0.000639866
 Leave Link  716 at Fri May 23 03:41:05 2025, MaxMem=  3758096384 cpu:               0.1 elap:               0.0
 (Enter /apps/easybuild-2022/easybuild/software/Compiler/NVHPC/22.11-CUDA-11.7.0/Gaussian/g16c01-CUDA-11.7.0/g16/l123.exe)
 IRC-IRC-IRC-IRC-IRC-IRC-IRC-IRC-IRC-IRC-IRC-IRC-IRC-IRC-IRC-IRC-IRC-IRC
 Pt  1 Step number   1 out of a maximum of  20
 Using modified Bulirsch-Stoer corrector integration.
   Using distance weighted interpolants to fit PES.
 PreDWI: IReCr0= 2 IReCr1= 1 IReCr2= 1 IReCr3= 1
 Modified Bulirsch-Stoer Extrapolation Cycles:
    EPS =    0.000010000000000
    Cycle     1 NS=    48
      PEZero:  N= 2 I= 1 D=  1.99D-04 Err=  3.18D-04
    Cycle     2 NS=    64 Truncation Error =  0.000318151
      PEZero:  N= 3 I= 2 D=  1.99D-04 Err=  2.12D-04
      PEZero:  N= 3 I= 1 D=  3.97D-04 Err=  6.90D-09
    Cycle     3 NS=    96 Truncation Error =  0.000000007
 BS completed in    3 cycles and     208 integration steps.
 Maximum DWI energy   std dev =  0.000000044 at pt    29
 Maximum DWI gradient std dev =  0.006615118 at pt     1
 SUMMARY OF CORRECTOR INTEGRATION:
   Predictor End Point Energy = -1199.642413
   Old End Point Energy       = -1199.642413
   Corrected End Point Energy = -1199.642413
   Predictor End-Start Dist.  =     0.076301
   Old End-Start Dist.        =     0.076301
   New End-Start Dist.        =     0.076300
   New End-Old End Dist.      =     0.000338
 CORRECTOR INTEGRATION CONVERGENCE:
   Recorrection delta-x convergence threshold:    0.010000
   Delta-x Convergence Met
 Point Number:   1          Path Number:   1
                    CURRENT STRUCTURE
                Cartesian Coordinates (Ang):                
 ---------------------------------------------------------------------
 Center     Atomic                     Coordinates (Angstroms)
 Number     Number                        X           Y           Z
 ---------------------------------------------------------------------
      1          6                   -2.049101   -0.151930    0.333964
      2          6                   -0.251325    0.255279   -0.253268
      3          9                   -0.506524   -0.151813   -1.501205
      4          9                   -0.398154    1.554052   -0.052080
      5         16                    1.636037   -0.010896   -0.124294
      6          8                    2.106742    0.621935    1.067669
      7          8                    1.926848   -1.375522   -0.473630
      8          8                    2.088662    0.932703   -1.356929
      9          9                   -0.423961   -0.755580    1.043592
     10          9                   -2.596678    0.391219    1.359132
     11          9                   -2.644584   -1.256750    0.065431
     12          1                    2.173363    0.398341   -2.156246
 ---------------------------------------------------------------------
   CHANGE IN THE REACTION COORDINATE =    0.07630
   NET REACTION COORDINATE UP TO THIS POINT =    0.07630
  # OF POINTS ALONG THE PATH =   1
  # OF STEPS =   1

 Calculating another point on the path.
 Point Number  2 in FORWARD path direction.
 Using LQA Reaction Path Following.
   LQA: T_Est iteration completed in    3 iterations.
 IRC-IRC-IRC-IRC-IRC-IRC-IRC-IRC-IRC-IRC-IRC-IRC-IRC-IRC-IRC-IRC-IRC-IRC
 Leave Link  123 at Fri May 23 03:41:05 2025, MaxMem=  3758096384 cpu:               0.2 elap:               0.2
 (Enter /apps/easybuild-2022/easybuild/software/Compiler/NVHPC/22.11-CUDA-11.7.0/Gaussian/g16c01-CUDA-11.7.0/g16/l202.exe)
                          Input orientation:                          
 ---------------------------------------------------------------------
 Center     Atomic      Atomic             Coordinates (Angstroms)
 Number     Number       Type             X           Y           Z
 ---------------------------------------------------------------------
      1          6           0       -2.055324   -0.149754    0.331535
      2          6           0       -0.247097    0.254010   -0.251774
      3          9           0       -0.506252   -0.152407   -1.499414
      4          9           0       -0.397959    1.552611   -0.051277
      5         16           0        1.636845   -0.010774   -0.124488
      6          8           0        2.107009    0.621944    1.067665
      7          8           0        1.927036   -1.375511   -0.473666
      8          8           0        2.088908    0.932729   -1.357003
      9          9           0       -0.421941   -0.752890    1.039936
     10          9           0       -2.598291    0.390567    1.360277
     11          9           0       -2.646174   -1.257580    0.066369
     12          1           0        2.173813    0.398517   -2.156398
 ---------------------------------------------------------------------
                    Distance matrix (angstroms):
                    1          2          3          4          5
     1  C    0.000000
     2  C    1.942411   0.000000
     3  F    2.398334   1.337512   0.000000
     4  F    2.406544   1.322621   2.239623   0.000000
     5  S    3.722820   1.906712   2.550166   2.567092   0.000000
     6  O    4.296792   2.723621   3.744148   2.897074   1.429202
     7  O    4.243821   2.726064   2.910160   3.762700   1.438277
     8  O    4.604084   2.671911   2.816496   2.876401   1.616679
     9  F    1.879773   1.647099   2.610745   2.550815   2.478956
    10  F    1.282603   2.854028   3.584589   2.860820   4.505772
    11  F    1.283236   2.853365   2.872691   3.600762   4.464886
    12  H    4.937207   3.083712   2.813875   3.518164   2.141147
                    6          7          8          9         10
     6  O    0.000000
     7  O    2.529411   0.000000
     8  O    2.444572   2.476784   0.000000
     9  F    2.878633   2.862925   3.858885   0.000000
    10  F    4.720065   5.192395   5.444941   2.479236   0.000000
    11  F    5.208451   4.606495   5.407813   2.479871   2.095920
    12  H    3.232486   2.457573   0.965206   4.275539   5.927904
                   11         12
    11  F    0.000000
    12  H    5.560182   0.000000
 Symmetry turned off by external request.
 Stoichiometry    C2HF5O3S
 Rotational constants (GHZ):           1.8753590           0.6548162           0.6436743
 Leave Link  202 at Fri May 23 03:41:06 2025, MaxMem=  3758096384 cpu:               0.0 elap:               0.0
 (Enter /apps/easybuild-2022/easybuild/software/Compiler/NVHPC/22.11-CUDA-11.7.0/Gaussian/g16c01-CUDA-11.7.0/g16/l301.exe)
 Standard basis: 6-311++G(d,p) (5D, 7F)
 Ernie: Thresh=  0.10000D-02 Tol=  0.10000D-05 Strict=F.
   257 basis functions,   419 primitive gaussians,   268 cartesian basis functions
    49 alpha electrons       49 beta electrons
       nuclear repulsion energy       895.9225051646 Hartrees.
 IExCor= 4639 DFT=T Ex+Corr=wB97XD ExCW=0 ScaHFX=  1.000000
 ScaDFX=  1.000000  1.000000  1.000000  1.000000 ScalE2=  1.000000  1.000000
 IRadAn=      5 IRanWt=     -1 IRanGd=            0 ICorTp=0 IEmpDi=121
 HFx  wShort=  0.000000 wLong=  0.200000 cFull=  0.222036 cShort=  0.000000 cLong=  0.777964
 DFx  wShort=  0.000000 wLong=  0.200000 cFull=  0.000000 cShort=  0.000000 cLong=  1.000000
 NAtoms=   12 NActive=   12 NUniq=   12 SFac= 1.00D+00 NAtFMM=   60 NAOKFM=F Big=F
 Integral buffers will be    131072 words long.
 Raffenetti 2 integral format.
 Two-electron integral symmetry is turned off.
 R6Disp:  Grimme-D2 Dispersion energy=       -0.0052028715 Hartrees.
 Nuclear repulsion after empirical dispersion term =      895.9173022931 Hartrees.
 Leave Link  301 at Fri May 23 03:41:06 2025, MaxMem=  3758096384 cpu:               0.1 elap:               0.1
 (Enter /apps/easybuild-2022/easybuild/software/Compiler/NVHPC/22.11-CUDA-11.7.0/Gaussian/g16c01-CUDA-11.7.0/g16/l302.exe)
 NPDir=0 NMtPBC=     1 NCelOv=     1 NCel=       1 NClECP=     1 NCelD=      1
         NCelK=      1 NCelE2=     1 NClLst=     1 CellRange=     0.0.
 One-electron integrals computed using PRISM.
 NBasis=   257 RedAO= T EigKep=  9.26D-05  NBF=   257
 NBsUse=   257 1.00D-06 EigRej= -1.00D+00 NBFU=   257
 Precomputing XC quadrature grid using
 IXCGrd= 4 IRadAn=           5 IRanWt=          -1 IRanGd=           0 AccXCQ= 0.00D+00.
 Generated NRdTot=       0 NPtTot=           0 NUsed=           0 NTot=          32
 NSgBfM=   268   268   268   268   268 MxSgAt=    12 MxSgA2=    12.
 Leave Link  302 at Fri May 23 03:41:06 2025, MaxMem=  3758096384 cpu:               0.7 elap:               0.3
 (Enter /apps/easybuild-2022/easybuild/software/Compiler/NVHPC/22.11-CUDA-11.7.0/Gaussian/g16c01-CUDA-11.7.0/g16/l303.exe)
 DipDrv:  MaxL=1.
 Leave Link  303 at Fri May 23 03:41:06 2025, MaxMem=  3758096384 cpu:               0.1 elap:               0.0
 (Enter /apps/easybuild-2022/easybuild/software/Compiler/NVHPC/22.11-CUDA-11.7.0/Gaussian/g16c01-CUDA-11.7.0/g16/l401.exe)
 Initial guess from the checkpoint file:  "2003846667223680600001_r12_insertion_R_9_1_2_IRC_F.chk"
 B after Tr=     0.000012    0.000010   -0.000012
         Rot=    1.000000   -0.000003    0.000002    0.000004 Ang=  -0.00 deg.
 Guess basis will be translated and rotated to current coordinates.
 JPrj=2 DoOrth=T DoCkMO=T.
 Generating alternative initial guess.
 ExpMin= 3.60D-02 ExpMax= 9.34D+04 ExpMxC= 3.17D+03 IAcc=3 IRadAn=         5 AccDes= 0.00D+00
 Harris functional with IExCor= 4639 and IRadAn=       5 diagonalized for initial guess.
 HarFok:  IExCor= 4639 AccDes= 0.00D+00 IRadAn=         5 IDoV= 1 UseB2=F ITyADJ=14
 ICtDFT=  3500011 ScaDFX=  1.000000  1.000000  1.000000  1.000000
 FoFCou: FMM=F IPFlag=           0 FMFlag=      100000 FMFlg1=           0
         NFxFlg=           0 DoJE=T BraDBF=F KetDBF=T FulRan=T
         wScrn=  0.000000 ICntrl=       500 IOpCl=  0 I1Cent=   200000004 NGrid=           0
         NMat0=    1 NMatS0=      1 NMatT0=    0 NMatD0=    1 NMtDS0=    0 NMtDT0=    0
 Symmetry not used in FoFCou.
 Harris En= -1166.99535887886    
 Leave Link  401 at Fri May 23 03:41:06 2025, MaxMem=  3758096384 cpu:               3.0 elap:               0.5
 (Enter /apps/easybuild-2022/easybuild/software/Compiler/NVHPC/22.11-CUDA-11.7.0/Gaussian/g16c01-CUDA-11.7.0/g16/l502.exe)
 Keep R1 ints in memory in canonical form, NReq=1117474609.
 FoFCou: FMM=F IPFlag=           0 FMFlag=           0 FMFlg1=           0
         NFxFlg=           0 DoJE=F BraDBF=F KetDBF=F FulRan=T
         wScrn=  0.000000 ICntrl=       600 IOpCl=  0 I1Cent=           0 NGrid=           0
         NMat0=    1 NMatS0=  33153 NMatT0=    0 NMatD0=    1 NMtDS0=    0 NMtDT0=    0
 Symmetry not used in FoFCou.
 Two-electron integral symmetry not used.
 Closed shell SCF:
 Using DIIS extrapolation, IDIIS=  1040.
 NGot=  3758096384 LenX=  2658793876 LenY=  2658721611
 Requested convergence on RMS density matrix=1.00D-08 within  32 cycles.
 Requested convergence on MAX density matrix=1.00D-06.
 Requested convergence on             energy=1.00D-06.
 No special actions if energy rises.

 Cycle   1  Pass 1  IDiag  1:
 E= -1199.64239924045    
 DIIS: error= 2.99D-04 at cycle   1 NSaved=   1.
 NSaved= 1 IEnMin= 1 EnMin= -1199.64239924045     IErMin= 1 ErrMin= 2.99D-04
 ErrMax= 2.99D-04  0.00D+00 EMaxC= 1.00D-01 BMatC= 6.13D-05 BMatP= 6.13D-05
 IDIUse=3 WtCom= 9.97D-01 WtEn= 2.99D-03
 Coeff-Com:  0.100D+01
 Coeff-En:   0.100D+01
 Coeff:      0.100D+01
 Gap=     0.732 Goal=   None    Shift=    0.000
 RMSDP=1.02D-04 MaxDP=5.52D-03              OVMax= 4.27D-03

 Cycle   2  Pass 1  IDiag  1:
 E= -1199.64250875953     Delta-E=       -0.000109519082 Rises=F Damp=F
 DIIS: error= 1.39D-04 at cycle   2 NSaved=   2.
 NSaved= 2 IEnMin= 2 EnMin= -1199.64250875953     IErMin= 2 ErrMin= 1.39D-04
 ErrMax= 1.39D-04  0.00D+00 EMaxC= 1.00D-01 BMatC= 4.32D-06 BMatP= 6.13D-05
 IDIUse=3 WtCom= 9.99D-01 WtEn= 1.39D-03
 Coeff-Com: -0.109D+00 0.111D+01
 Coeff-En:   0.000D+00 0.100D+01
 Coeff:     -0.108D+00 0.111D+01
 Gap=     0.370 Goal=   None    Shift=    0.000
 RMSDP=2.82D-05 MaxDP=1.42D-03 DE=-1.10D-04 OVMax= 2.55D-03

 Cycle   3  Pass 1  IDiag  1:
 E= -1199.64251904701     Delta-E=       -0.000010287477 Rises=F Damp=F
 DIIS: error= 1.06D-04 at cycle   3 NSaved=   3.
 NSaved= 3 IEnMin= 3 EnMin= -1199.64251904701     IErMin= 3 ErrMin= 1.06D-04
 ErrMax= 1.06D-04  0.00D+00 EMaxC= 1.00D-01 BMatC= 4.44D-06 BMatP= 4.32D-06
 IDIUse=3 WtCom= 9.99D-01 WtEn= 1.06D-03
 Coeff-Com: -0.119D+00 0.614D+00 0.505D+00
 Coeff-En:   0.000D+00 0.000D+00 0.100D+01
 Coeff:     -0.119D+00 0.613D+00 0.506D+00
 Gap=     0.370 Goal=   None    Shift=    0.000
 RMSDP=9.33D-06 MaxDP=3.58D-04 DE=-1.03D-05 OVMax= 4.20D-04

 Cycle   4  Pass 1  IDiag  1:
 E= -1199.64252233495     Delta-E=       -0.000003287945 Rises=F Damp=F
 DIIS: error= 4.09D-05 at cycle   4 NSaved=   4.
 NSaved= 4 IEnMin= 4 EnMin= -1199.64252233495     IErMin= 4 ErrMin= 4.09D-05
 ErrMax= 4.09D-05  0.00D+00 EMaxC= 1.00D-01 BMatC= 2.59D-07 BMatP= 4.32D-06
 IDIUse=1 WtCom= 1.00D+00 WtEn= 0.00D+00
 Coeff-Com:  0.250D-02-0.127D+00 0.111D+00 0.101D+01
 Coeff:      0.250D-02-0.127D+00 0.111D+00 0.101D+01
 Gap=     0.370 Goal=   None    Shift=    0.000
 RMSDP=7.62D-06 MaxDP=4.54D-04 DE=-3.29D-06 OVMax= 7.07D-04

 Cycle   5  Pass 1  IDiag  1:
 E= -1199.64252302097     Delta-E=       -0.000000686015 Rises=F Damp=F
 DIIS: error= 1.43D-05 at cycle   5 NSaved=   5.
 NSaved= 5 IEnMin= 5 EnMin= -1199.64252302097     IErMin= 5 ErrMin= 1.43D-05
 ErrMax= 1.43D-05  0.00D+00 EMaxC= 1.00D-01 BMatC= 7.10D-08 BMatP= 2.59D-07
 IDIUse=1 WtCom= 1.00D+00 WtEn= 0.00D+00
 Coeff-Com:  0.125D-01-0.120D+00-0.169D-01 0.458D+00 0.667D+00
 Coeff:      0.125D-01-0.120D+00-0.169D-01 0.458D+00 0.667D+00
 Gap=     0.370 Goal=   None    Shift=    0.000
 RMSDP=2.39D-06 MaxDP=1.23D-04 DE=-6.86D-07 OVMax= 1.61D-04

 Cycle   6  Pass 1  IDiag  1:
 E= -1199.64252311183     Delta-E=       -0.000000090860 Rises=F Damp=F
 DIIS: error= 4.45D-06 at cycle   6 NSaved=   6.
 NSaved= 6 IEnMin= 6 EnMin= -1199.64252311183     IErMin= 6 ErrMin= 4.45D-06
 ErrMax= 4.45D-06  0.00D+00 EMaxC= 1.00D-01 BMatC= 1.02D-08 BMatP= 7.10D-08
 IDIUse=1 WtCom= 1.00D+00 WtEn= 0.00D+00
 Coeff-Com:  0.440D-02-0.183D-01-0.408D-01-0.494D-01 0.264D+00 0.840D+00
 Coeff:      0.440D-02-0.183D-01-0.408D-01-0.494D-01 0.264D+00 0.840D+00
 Gap=     0.370 Goal=   None    Shift=    0.000
 RMSDP=1.42D-06 MaxDP=8.71D-05 DE=-9.09D-08 OVMax= 1.09D-04

 Cycle   7  Pass 1  IDiag  1:
 E= -1199.64252312954     Delta-E=       -0.000000017711 Rises=F Damp=F
 DIIS: error= 1.73D-06 at cycle   7 NSaved=   7.
 NSaved= 7 IEnMin= 7 EnMin= -1199.64252312954     IErMin= 7 ErrMin= 1.73D-06
 ErrMax= 1.73D-06  0.00D+00 EMaxC= 1.00D-01 BMatC= 1.28D-09 BMatP= 1.02D-08
 IDIUse=1 WtCom= 1.00D+00 WtEn= 0.00D+00
 Coeff-Com:  0.395D-03 0.641D-02-0.150D-01-0.709D-01 0.349D-01 0.350D+00
 Coeff-Com:  0.694D+00
 Coeff:      0.395D-03 0.641D-02-0.150D-01-0.709D-01 0.349D-01 0.350D+00
 Coeff:      0.694D+00
 Gap=     0.370 Goal=   None    Shift=    0.000
 RMSDP=4.20D-07 MaxDP=1.61D-05 DE=-1.77D-08 OVMax= 2.13D-05

 Cycle   8  Pass 1  IDiag  1:
 E= -1199.64252313103     Delta-E=       -0.000000001491 Rises=F Damp=F
 DIIS: error= 6.49D-07 at cycle   8 NSaved=   8.
 NSaved= 8 IEnMin= 8 EnMin= -1199.64252313103     IErMin= 8 ErrMin= 6.49D-07
 ErrMax= 6.49D-07  0.00D+00 EMaxC= 1.00D-01 BMatC= 2.02D-10 BMatP= 1.28D-09
 IDIUse=1 WtCom= 1.00D+00 WtEn= 0.00D+00
 Coeff-Com: -0.490D-03 0.593D-02 0.259D-04-0.242D-01-0.261D-01 0.229D-01
 Coeff-Com:  0.315D+00 0.707D+00
 Coeff:     -0.490D-03 0.593D-02 0.259D-04-0.242D-01-0.261D-01 0.229D-01
 Coeff:      0.315D+00 0.707D+00
 Gap=     0.370 Goal=   None    Shift=    0.000
 RMSDP=1.28D-07 MaxDP=4.28D-06 DE=-1.49D-09 OVMax= 7.34D-06

 Cycle   9  Pass 1  IDiag  1:
 E= -1199.64252313120     Delta-E=       -0.000000000166 Rises=F Damp=F
 DIIS: error= 2.41D-07 at cycle   9 NSaved=   9.
 NSaved= 9 IEnMin= 9 EnMin= -1199.64252313120     IErMin= 9 ErrMin= 2.41D-07
 ErrMax= 2.41D-07  0.00D+00 EMaxC= 1.00D-01 BMatC= 1.85D-11 BMatP= 2.02D-10
 IDIUse=1 WtCom= 1.00D+00 WtEn= 0.00D+00
 Coeff-Com: -0.241D-03 0.152D-02 0.172D-02-0.155D-02-0.129D-01-0.325D-01
 Coeff-Com:  0.332D-01 0.261D+00 0.750D+00
 Coeff:     -0.241D-03 0.152D-02 0.172D-02-0.155D-02-0.129D-01-0.325D-01
 Coeff:      0.332D-01 0.261D+00 0.750D+00
 Gap=     0.370 Goal=   None    Shift=    0.000
 RMSDP=4.75D-08 MaxDP=2.25D-06 DE=-1.66D-10 OVMax= 2.71D-06

 Cycle  10  Pass 1  IDiag  1:
 E= -1199.64252313121     Delta-E=       -0.000000000014 Rises=F Damp=F
 DIIS: error= 7.45D-08 at cycle  10 NSaved=  10.
 NSaved=10 IEnMin=10 EnMin= -1199.64252313121     IErMin=10 ErrMin= 7.45D-08
 ErrMax= 7.45D-08  0.00D+00 EMaxC= 1.00D-01 BMatC= 1.66D-12 BMatP= 1.85D-11
 IDIUse=1 WtCom= 1.00D+00 WtEn= 0.00D+00
 Coeff-Com:  0.294D-04-0.640D-03 0.424D-03 0.335D-02 0.157D-02-0.104D-01
 Coeff-Com: -0.384D-01-0.504D-01 0.134D+00 0.961D+00
 Coeff:      0.294D-04-0.640D-03 0.424D-03 0.335D-02 0.157D-02-0.104D-01
 Coeff:     -0.384D-01-0.504D-01 0.134D+00 0.961D+00
 Gap=     0.370 Goal=   None    Shift=    0.000
 RMSDP=1.89D-08 MaxDP=5.92D-07 DE=-1.36D-11 OVMax= 1.25D-06

 Cycle  11  Pass 1  IDiag  1:
 E= -1199.64252313127     Delta-E=       -0.000000000062 Rises=F Damp=F
 DIIS: error= 3.20D-08 at cycle  11 NSaved=  11.
 NSaved=11 IEnMin=11 EnMin= -1199.64252313127     IErMin=11 ErrMin= 3.20D-08
 ErrMax= 3.20D-08  0.00D+00 EMaxC= 1.00D-01 BMatC= 5.51D-13 BMatP= 1.66D-12
 IDIUse=1 WtCom= 1.00D+00 WtEn= 0.00D+00
 Coeff-Com:  0.422D-04-0.491D-03 0.571D-04 0.192D-02 0.209D-02-0.198D-02
 Coeff-Com: -0.222D-01-0.509D-01-0.186D-01 0.448D+00 0.642D+00
 Coeff:      0.422D-04-0.491D-03 0.571D-04 0.192D-02 0.209D-02-0.198D-02
 Coeff:     -0.222D-01-0.509D-01-0.186D-01 0.448D+00 0.642D+00
 Gap=     0.370 Goal=   None    Shift=    0.000
 RMSDP=6.62D-09 MaxDP=2.73D-07 DE=-6.18D-11 OVMax= 3.56D-07

 SCF Done:  E(RwB97XD) =  -1199.64252313     A.U. after   11 cycles
            NFock= 11  Conv=0.66D-08     -V/T= 2.0020
 KE= 1.197288603484D+03 PE=-4.638948863442D+03 EE= 1.346100434534D+03
 Leave Link  502 at Fri May 23 03:41:20 2025, MaxMem=  3758096384 cpu:              59.5 elap:              13.3
 (Enter /apps/easybuild-2022/easybuild/software/Compiler/NVHPC/22.11-CUDA-11.7.0/Gaussian/g16c01-CUDA-11.7.0/g16/l508.exe)
 QCSCF skips out because SCF is already converged.
 Leave Link  508 at Fri May 23 03:41:20 2025, MaxMem=  3758096384 cpu:               0.1 elap:               0.0
 (Enter /apps/easybuild-2022/easybuild/software/Compiler/NVHPC/22.11-CUDA-11.7.0/Gaussian/g16c01-CUDA-11.7.0/g16/l801.exe)
 DoSCS=F DFT=T ScalE2(SS,OS)=  1.000000  1.000000
 Range of M.O.s used for correlation:     1   257
 NBasis=   257 NAE=    49 NBE=    49 NFC=     0 NFV=     0
 NROrb=    257 NOA=    49 NOB=    49 NVA=   208 NVB=   208

 **** Warning!!: The largest alpha MO coefficient is  0.29912306D+02

 Leave Link  801 at Fri May 23 03:41:20 2025, MaxMem=  3758096384 cpu:               0.1 elap:               0.0
 (Enter /apps/easybuild-2022/easybuild/software/Compiler/NVHPC/22.11-CUDA-11.7.0/Gaussian/g16c01-CUDA-11.7.0/g16/l1101.exe)
 Leave Link 1101 at Fri May 23 03:41:20 2025, MaxMem=  3758096384 cpu:               0.1 elap:               0.0
 (Enter /apps/easybuild-2022/easybuild/software/Compiler/NVHPC/22.11-CUDA-11.7.0/Gaussian/g16c01-CUDA-11.7.0/g16/l1102.exe)
 Symmetrizing basis deriv contribution to polar:
 IMax=3 JMax=2 DiffMx= 0.00D+00
 Leave Link 1102 at Fri May 23 03:41:20 2025, MaxMem=  3758096384 cpu:               0.1 elap:               0.0
 (Enter /apps/easybuild-2022/easybuild/software/Compiler/NVHPC/22.11-CUDA-11.7.0/Gaussian/g16c01-CUDA-11.7.0/g16/l1110.exe)
 Leave Link 1110 at Fri May 23 03:41:20 2025, MaxMem=  3758096384 cpu:               0.1 elap:               0.0
 (Enter /apps/easybuild-2022/easybuild/software/Compiler/NVHPC/22.11-CUDA-11.7.0/Gaussian/g16c01-CUDA-11.7.0/g16/l1002.exe)
 Minotr:  Closed shell wavefunction.
 Leave Link 1002 at Fri May 23 03:41:20 2025, MaxMem=  3758096384 cpu:               0.1 elap:               0.0
 (Enter /apps/easybuild-2022/easybuild/software/Compiler/NVHPC/22.11-CUDA-11.7.0/Gaussian/g16c01-CUDA-11.7.0/g16/l701.exe)
 ... and contract with generalized density number  0.
 Compute integral first derivatives.
 R6Disp: Adding Grimme-D2 dispersion energy 1st derivatives to the gradient.
 Leave Link  701 at Fri May 23 03:41:20 2025, MaxMem=  3758096384 cpu:               0.7 elap:               0.2
 (Enter /apps/easybuild-2022/easybuild/software/Compiler/NVHPC/22.11-CUDA-11.7.0/Gaussian/g16c01-CUDA-11.7.0/g16/l702.exe)
 L702 exits ... SP integral derivatives will be done elsewhere.
 Leave Link  702 at Fri May 23 03:41:20 2025, MaxMem=  3758096384 cpu:               0.0 elap:               0.0
 (Enter /apps/easybuild-2022/easybuild/software/Compiler/NVHPC/22.11-CUDA-11.7.0/Gaussian/g16c01-CUDA-11.7.0/g16/l703.exe)
 Integral derivatives from FoFJK, PRISM(SPDF).
 Compute integral first derivatives, UseDBF=F ICtDFT=           0.
 Calling FoFJK, ICntrl=      2127 FMM=F ISym2X=0 I1Cent= 0 IOpClX= 0 NMat=1 NMatS=1 NMatT=0.
 FoFJK:  IHMeth= 1 ICntrl=    2127 DoSepK=T KAlg= 0 I1Cent=           0 FoldK=F
 IRaf=         1 NMat=       1 IRICut=       1 DoRegI=T DoRafI=F ISym2E= 0 IDoP0=0 IntGTp=1.
 FoFCou: FMM=F IPFlag=           0 FMFlag=      100000 FMFlg1=         800
         NFxFlg=           0 DoJE=F BraDBF=F KetDBF=F FulRan=T
         wScrn=  0.000000 ICntrl=      2527 IOpCl=  0 I1Cent=           0 NGrid=           0
         NMat0=    1 NMatS0=      1 NMatT0=    0 NMatD0=    1 NMtDS0=    0 NMtDT0=    0
 Symmetry not used in FoFCou.
 Leave Link  703 at Fri May 23 03:41:25 2025, MaxMem=  3758096384 cpu:              31.7 elap:               4.3
 (Enter /apps/easybuild-2022/easybuild/software/Compiler/NVHPC/22.11-CUDA-11.7.0/Gaussian/g16c01-CUDA-11.7.0/g16/l716.exe)
 Dipole        =-1.27389266D+00 2.15668242D-01-1.08557424D+00
 Polarizability= 0.00000000D+00 0.00000000D+00 0.00000000D+00
                 0.00000000D+00 0.00000000D+00 0.00000000D+00
 -------------------------------------------------------------------
 Center     Atomic                   Forces (Hartrees/Bohr)
 Number     Number              X              Y              Z
 -------------------------------------------------------------------
      1        6          -0.003534295    0.001225278   -0.001365029
      2        6           0.002413502   -0.000704367    0.000826730
      3        9           0.000250760   -0.000536781    0.001650721
      4        9           0.000177450   -0.001329449    0.000728762
      5       16           0.001270309    0.000186278   -0.000302370
      6        8           0.000202572    0.000008665   -0.000004544
      7        8           0.000143188    0.000012029   -0.000025449
      8        8           0.000185574    0.000019641   -0.000053663
      9        9           0.001774266    0.002461225   -0.003342530
     10        9          -0.001463070   -0.000598003    0.001039303
     11        9          -0.001441478   -0.000752878    0.000856091
     12        1           0.000021223    0.000008361   -0.000008023
 -------------------------------------------------------------------
 Cartesian Forces:  Max     0.003534295 RMS     0.001263164
 Leave Link  716 at Fri May 23 03:41:25 2025, MaxMem=  3758096384 cpu:               0.1 elap:               0.0
 (Enter /apps/easybuild-2022/easybuild/software/Compiler/NVHPC/22.11-CUDA-11.7.0/Gaussian/g16c01-CUDA-11.7.0/g16/l123.exe)
 IRC-IRC-IRC-IRC-IRC-IRC-IRC-IRC-IRC-IRC-IRC-IRC-IRC-IRC-IRC-IRC-IRC-IRC
 Pt  2 Step number   1 out of a maximum of  20
 Using modified Bulirsch-Stoer corrector integration.
   Using distance weighted interpolants to fit PES.
 PreDWI: IReCr0= 2 IReCr1= 1 IReCr2= 1 IReCr3= 1
 Modified Bulirsch-Stoer Extrapolation Cycles:
    EPS =    0.000010000000000
    Cycle     1 NS=    48
      PEZero:  N= 2 I= 1 D=  3.97D-04 Err=  3.17D-06
    Cycle     2 NS=    64 Truncation Error =  0.000003167
 BS completed in    2 cycles and     112 integration steps.
 Maximum DWI energy   std dev =  0.000000131 at pt    47
 Maximum DWI gradient std dev =  0.004609613 at pt    27
 SUMMARY OF CORRECTOR INTEGRATION:
   Predictor End Point Energy = -1199.642523
   Old End Point Energy       = -1199.642523
   Corrected End Point Energy = -1199.642523
   Predictor End-Start Dist.  =     0.076275
   Old End-Start Dist.        =     0.076275
   New End-Start Dist.        =     0.076274
   New End-Old End Dist.      =     0.000352
 CORRECTOR INTEGRATION CONVERGENCE:
   Recorrection delta-x convergence threshold:    0.010000
   Delta-x Convergence Met
 Point Number:   2          Path Number:   1
                    CURRENT STRUCTURE
                Cartesian Coordinates (Ang):                
 ---------------------------------------------------------------------
 Center     Atomic                     Coordinates (Angstroms)
 Number     Number                        X           Y           Z
 ---------------------------------------------------------------------
      1          6                   -2.055311   -0.149764    0.331549
      2          6                   -0.247096    0.254021   -0.251789
      3          9                   -0.506251   -0.152406   -1.499403
      4          9                   -0.397958    1.552603   -0.051275
      5         16                    1.636855   -0.010774   -0.124491
      6          8                    2.107010    0.621943    1.067665
      7          8                    1.927036   -1.375511   -0.473667
      8          8                    2.088908    0.932729   -1.357003
      9          9                   -0.421964   -0.752879    1.039920
     10          9                   -2.598293    0.390564    1.360281
     11          9                   -2.646177   -1.257581    0.066373
     12          1                    2.173811    0.398520   -2.156401
 ---------------------------------------------------------------------
   CHANGE IN THE REACTION COORDINATE =    0.07627
   NET REACTION COORDINATE UP TO THIS POINT =    0.15257
  # OF POINTS ALONG THE PATH =   2
  # OF STEPS =   1

 Calculating another point on the path.
 Point Number  3 in FORWARD path direction.
 Using LQA Reaction Path Following.
   LQA: T_Est iteration completed in    3 iterations.
 IRC-IRC-IRC-IRC-IRC-IRC-IRC-IRC-IRC-IRC-IRC-IRC-IRC-IRC-IRC-IRC-IRC-IRC
 Leave Link  123 at Fri May 23 03:41:25 2025, MaxMem=  3758096384 cpu:               0.2 elap:               0.1
 (Enter /apps/easybuild-2022/easybuild/software/Compiler/NVHPC/22.11-CUDA-11.7.0/Gaussian/g16c01-CUDA-11.7.0/g16/l202.exe)
                          Input orientation:                          
 ---------------------------------------------------------------------
 Center     Atomic      Atomic             Coordinates (Angstroms)
 Number     Number       Type             X           Y           Z
 ---------------------------------------------------------------------
      1          6           0       -2.061504   -0.147611    0.329148
      2          6           0       -0.242864    0.252774   -0.250325
      3          9           0       -0.505974   -0.153003   -1.497593
      4          9           0       -0.397762    1.551148   -0.050470
      5         16           0        1.637686   -0.010651   -0.124688
      6          8           0        2.107280    0.621957    1.067662
      7          8           0        1.927228   -1.375499   -0.473700
      8          8           0        2.089156    0.932756   -1.357077
      9          9           0       -0.420007   -0.750160    1.036228
     10          9           0       -2.599911    0.389902    1.361436
     11          9           0       -2.647770   -1.258419    0.067322
     12          1           0        2.174259    0.398704   -2.156559
 ---------------------------------------------------------------------
                    Distance matrix (angstroms):
                    1          2          3          4          5
     1  C    0.000000
     2  C    1.950269   0.000000
     3  F    2.399310   1.337744   0.000000
     4  F    2.407889   1.322766   2.238303   0.000000
     5  S    3.729441   1.903062   2.549590   2.566665   0.000000
     6  O    4.303068   2.719662   3.743019   2.896351   1.429129
     7  O    4.249972   2.722218   2.909180   3.761644   1.438213
     8  O    4.608528   2.669381   2.816614   2.876524   1.616361
     9  F    1.886144   1.640876   2.604656   2.545078   2.475621
    10  F    1.282349   2.858714   3.585159   2.862067   4.508462
    11  F    1.283025   2.858002   2.873707   3.601399   4.467541
    12  H    4.941547   3.081802   2.814652   3.518384   2.141023
                    6          7          8          9         10
     6  O    0.000000
     7  O    2.529436   0.000000
     8  O    2.444644   2.476816   0.000000
     9  F    2.875912   2.860147   3.854350   0.000000
    10  F    4.722054   5.194165   5.447233   2.481428   0.000000
    11  F    5.210277   4.608364   5.410048   2.481942   2.096183
    12  H    3.232634   2.457811   0.965207   4.271298   5.930350
                   11         12
    11  F    0.000000
    12  H    5.562703   0.000000
 Symmetry turned off by external request.
 Stoichiometry    C2HF5O3S
 Rotational constants (GHZ):           1.8778666           0.6544882           0.6431359
 Leave Link  202 at Fri May 23 03:41:25 2025, MaxMem=  3758096384 cpu:               0.1 elap:               0.0
 (Enter /apps/easybuild-2022/easybuild/software/Compiler/NVHPC/22.11-CUDA-11.7.0/Gaussian/g16c01-CUDA-11.7.0/g16/l301.exe)
 Standard basis: 6-311++G(d,p) (5D, 7F)
 Ernie: Thresh=  0.10000D-02 Tol=  0.10000D-05 Strict=F.
   257 basis functions,   419 primitive gaussians,   268 cartesian basis functions
    49 alpha electrons       49 beta electrons
       nuclear repulsion energy       896.0114897732 Hartrees.
 IExCor= 4639 DFT=T Ex+Corr=wB97XD ExCW=0 ScaHFX=  1.000000
 ScaDFX=  1.000000  1.000000  1.000000  1.000000 ScalE2=  1.000000  1.000000
 IRadAn=      5 IRanWt=     -1 IRanGd=            0 ICorTp=0 IEmpDi=121
 HFx  wShort=  0.000000 wLong=  0.200000 cFull=  0.222036 cShort=  0.000000 cLong=  0.777964
 DFx  wShort=  0.000000 wLong=  0.200000 cFull=  0.000000 cShort=  0.000000 cLong=  1.000000
 NAtoms=   12 NActive=   12 NUniq=   12 SFac= 1.00D+00 NAtFMM=   60 NAOKFM=F Big=F
 Integral buffers will be    131072 words long.
 Raffenetti 2 integral format.
 Two-electron integral symmetry is turned off.
 R6Disp:  Grimme-D2 Dispersion energy=       -0.0051987411 Hartrees.
 Nuclear repulsion after empirical dispersion term =      896.0062910321 Hartrees.
 Leave Link  301 at Fri May 23 03:41:25 2025, MaxMem=  3758096384 cpu:               0.0 elap:               0.0
 (Enter /apps/easybuild-2022/easybuild/software/Compiler/NVHPC/22.11-CUDA-11.7.0/Gaussian/g16c01-CUDA-11.7.0/g16/l302.exe)
 NPDir=0 NMtPBC=     1 NCelOv=     1 NCel=       1 NClECP=     1 NCelD=      1
         NCelK=      1 NCelE2=     1 NClLst=     1 CellRange=     0.0.
 One-electron integrals computed using PRISM.
 NBasis=   257 RedAO= T EigKep=  9.13D-05  NBF=   257
 NBsUse=   257 1.00D-06 EigRej= -1.00D+00 NBFU=   257
 Precomputing XC quadrature grid using
 IXCGrd= 4 IRadAn=           5 IRanWt=          -1 IRanGd=           0 AccXCQ= 0.00D+00.
 Generated NRdTot=       0 NPtTot=           0 NUsed=           0 NTot=          32
 NSgBfM=   268   268   268   268   268 MxSgAt=    12 MxSgA2=    12.
 Leave Link  302 at Fri May 23 03:41:25 2025, MaxMem=  3758096384 cpu:               0.8 elap:               0.2
 (Enter /apps/easybuild-2022/easybuild/software/Compiler/NVHPC/22.11-CUDA-11.7.0/Gaussian/g16c01-CUDA-11.7.0/g16/l303.exe)
 DipDrv:  MaxL=1.
 Leave Link  303 at Fri May 23 03:41:25 2025, MaxMem=  3758096384 cpu:               0.1 elap:               0.0
 (Enter /apps/easybuild-2022/easybuild/software/Compiler/NVHPC/22.11-CUDA-11.7.0/Gaussian/g16c01-CUDA-11.7.0/g16/l401.exe)
 Initial guess from the checkpoint file:  "2003846667223680600001_r12_insertion_R_9_1_2_IRC_F.chk"
 B after Tr=     0.000012    0.000010   -0.000012
         Rot=    1.000000   -0.000002    0.000002    0.000003 Ang=  -0.00 deg.
 Guess basis will be translated and rotated to current coordinates.
 JPrj=2 DoOrth=T DoCkMO=T.
 Generating alternative initial guess.
 ExpMin= 3.60D-02 ExpMax= 9.34D+04 ExpMxC= 3.17D+03 IAcc=3 IRadAn=         5 AccDes= 0.00D+00
 Harris functional with IExCor= 4639 and IRadAn=       5 diagonalized for initial guess.
 HarFok:  IExCor= 4639 AccDes= 0.00D+00 IRadAn=         5 IDoV= 1 UseB2=F ITyADJ=14
 ICtDFT=  3500011 ScaDFX=  1.000000  1.000000  1.000000  1.000000
 FoFCou: FMM=F IPFlag=           0 FMFlag=      100000 FMFlg1=           0
         NFxFlg=           0 DoJE=T BraDBF=F KetDBF=T FulRan=T
         wScrn=  0.000000 ICntrl=       500 IOpCl=  0 I1Cent=   200000004 NGrid=           0
         NMat0=    1 NMatS0=      1 NMatT0=    0 NMatD0=    1 NMtDS0=    0 NMtDT0=    0
 Symmetry not used in FoFCou.
 Harris En= -1166.99512758125    
 Leave Link  401 at Fri May 23 03:41:26 2025, MaxMem=  3758096384 cpu:               3.1 elap:               0.8
 (Enter /apps/easybuild-2022/easybuild/software/Compiler/NVHPC/22.11-CUDA-11.7.0/Gaussian/g16c01-CUDA-11.7.0/g16/l502.exe)
 Keep R1 ints in memory in canonical form, NReq=1117474609.
 FoFCou: FMM=F IPFlag=           0 FMFlag=           0 FMFlg1=           0
         NFxFlg=           0 DoJE=F BraDBF=F KetDBF=F FulRan=T
         wScrn=  0.000000 ICntrl=       600 IOpCl=  0 I1Cent=           0 NGrid=           0
         NMat0=    1 NMatS0=  33153 NMatT0=    0 NMatD0=    1 NMtDS0=    0 NMtDT0=    0
 Symmetry not used in FoFCou.
 Two-electron integral symmetry not used.
 Closed shell SCF:
 Using DIIS extrapolation, IDIIS=  1040.
 NGot=  3758096384 LenX=  2658793876 LenY=  2658721611
 Requested convergence on RMS density matrix=1.00D-08 within  32 cycles.
 Requested convergence on MAX density matrix=1.00D-06.
 Requested convergence on             energy=1.00D-06.
 No special actions if energy rises.

 Cycle   1  Pass 1  IDiag  1:
 E= -1199.64258288740    
 DIIS: error= 2.98D-04 at cycle   1 NSaved=   1.
 NSaved= 1 IEnMin= 1 EnMin= -1199.64258288740     IErMin= 1 ErrMin= 2.98D-04
 ErrMax= 2.98D-04  0.00D+00 EMaxC= 1.00D-01 BMatC= 6.07D-05 BMatP= 6.07D-05
 IDIUse=3 WtCom= 9.97D-01 WtEn= 2.98D-03
 Coeff-Com:  0.100D+01
 Coeff-En:   0.100D+01
 Coeff:      0.100D+01
 Gap=     0.731 Goal=   None    Shift=    0.000
 RMSDP=1.01D-04 MaxDP=5.38D-03              OVMax= 4.27D-03

 Cycle   2  Pass 1  IDiag  1:
 E= -1199.64269089473     Delta-E=       -0.000108007323 Rises=F Damp=F
 DIIS: error= 1.40D-04 at cycle   2 NSaved=   2.
 NSaved= 2 IEnMin= 2 EnMin= -1199.64269089473     IErMin= 2 ErrMin= 1.40D-04
 ErrMax= 1.40D-04  0.00D+00 EMaxC= 1.00D-01 BMatC= 4.27D-06 BMatP= 6.07D-05
 IDIUse=3 WtCom= 9.99D-01 WtEn= 1.40D-03
 Coeff-Com: -0.107D+00 0.111D+01
 Coeff-En:   0.000D+00 0.100D+01
 Coeff:     -0.107D+00 0.111D+01
 Gap=     0.371 Goal=   None    Shift=    0.000
 RMSDP=2.80D-05 MaxDP=1.39D-03 DE=-1.08D-04 OVMax= 2.55D-03

 Cycle   3  Pass 1  IDiag  1:
 E= -1199.64270093485     Delta-E=       -0.000010040118 Rises=F Damp=F
 DIIS: error= 1.05D-04 at cycle   3 NSaved=   3.
 NSaved= 3 IEnMin= 3 EnMin= -1199.64270093485     IErMin= 3 ErrMin= 1.05D-04
 ErrMax= 1.05D-04  0.00D+00 EMaxC= 1.00D-01 BMatC= 4.44D-06 BMatP= 4.27D-06
 IDIUse=3 WtCom= 9.99D-01 WtEn= 1.05D-03
 Coeff-Com: -0.120D+00 0.615D+00 0.504D+00
 Coeff-En:   0.000D+00 0.000D+00 0.100D+01
 Coeff:     -0.119D+00 0.614D+00 0.505D+00
 Gap=     0.371 Goal=   None    Shift=    0.000
 RMSDP=9.34D-06 MaxDP=3.63D-04 DE=-1.00D-05 OVMax= 4.21D-04

 Cycle   4  Pass 1  IDiag  1:
 E= -1199.64270421143     Delta-E=       -0.000003276585 Rises=F Damp=F
 DIIS: error= 4.02D-05 at cycle   4 NSaved=   4.
 NSaved= 4 IEnMin= 4 EnMin= -1199.64270421143     IErMin= 4 ErrMin= 4.02D-05
 ErrMax= 4.02D-05  0.00D+00 EMaxC= 1.00D-01 BMatC= 2.45D-07 BMatP= 4.27D-06
 IDIUse=1 WtCom= 1.00D+00 WtEn= 0.00D+00
 Coeff-Com:  0.281D-02-0.128D+00 0.104D+00 0.102D+01
 Coeff:      0.281D-02-0.128D+00 0.104D+00 0.102D+01
 Gap=     0.371 Goal=   None    Shift=    0.000
 RMSDP=7.51D-06 MaxDP=4.43D-04 DE=-3.28D-06 OVMax= 6.97D-04

 Cycle   5  Pass 1  IDiag  1:
 E= -1199.64270487065     Delta-E=       -0.000000659218 Rises=F Damp=F
 DIIS: error= 1.38D-05 at cycle   5 NSaved=   5.
 NSaved= 5 IEnMin= 5 EnMin= -1199.64270487065     IErMin= 5 ErrMin= 1.38D-05
 ErrMax= 1.38D-05  0.00D+00 EMaxC= 1.00D-01 BMatC= 6.77D-08 BMatP= 2.45D-07
 IDIUse=1 WtCom= 1.00D+00 WtEn= 0.00D+00
 Coeff-Com:  0.124D-01-0.118D+00-0.189D-01 0.459D+00 0.666D+00
 Coeff:      0.124D-01-0.118D+00-0.189D-01 0.459D+00 0.666D+00
 Gap=     0.371 Goal=   None    Shift=    0.000
 RMSDP=2.34D-06 MaxDP=1.18D-04 DE=-6.59D-07 OVMax= 1.58D-04

 Cycle   6  Pass 1  IDiag  1:
 E= -1199.64270495644     Delta-E=       -0.000000085796 Rises=F Damp=F
 DIIS: error= 4.41D-06 at cycle   6 NSaved=   6.
 NSaved= 6 IEnMin= 6 EnMin= -1199.64270495644     IErMin= 6 ErrMin= 4.41D-06
 ErrMax= 4.41D-06  0.00D+00 EMaxC= 1.00D-01 BMatC= 9.80D-09 BMatP= 6.77D-08
 IDIUse=1 WtCom= 1.00D+00 WtEn= 0.00D+00
 Coeff-Com:  0.429D-02-0.177D-01-0.399D-01-0.487D-01 0.263D+00 0.839D+00
 Coeff:      0.429D-02-0.177D-01-0.399D-01-0.487D-01 0.263D+00 0.839D+00
 Gap=     0.371 Goal=   None    Shift=    0.000
 RMSDP=1.38D-06 MaxDP=8.37D-05 DE=-8.58D-08 OVMax= 1.06D-04

 Cycle   7  Pass 1  IDiag  1:
 E= -1199.64270497336     Delta-E=       -0.000000016916 Rises=F Damp=F
 DIIS: error= 1.74D-06 at cycle   7 NSaved=   7.
 NSaved= 7 IEnMin= 7 EnMin= -1199.64270497336     IErMin= 7 ErrMin= 1.74D-06
 ErrMax= 1.74D-06  0.00D+00 EMaxC= 1.00D-01 BMatC= 1.26D-09 BMatP= 9.80D-09
 IDIUse=1 WtCom= 1.00D+00 WtEn= 0.00D+00
 Coeff-Com:  0.381D-03 0.637D-02-0.149D-01-0.717D-01 0.360D-01 0.354D+00
 Coeff-Com:  0.690D+00
 Coeff:      0.381D-03 0.637D-02-0.149D-01-0.717D-01 0.360D-01 0.354D+00
 Coeff:      0.690D+00
 Gap=     0.371 Goal=   None    Shift=    0.000
 RMSDP=4.14D-07 MaxDP=1.59D-05 DE=-1.69D-08 OVMax= 2.09D-05

 Cycle   8  Pass 1  IDiag  1:
 E= -1199.64270497470     Delta-E=       -0.000000001335 Rises=F Damp=F
 DIIS: error= 6.24D-07 at cycle   8 NSaved=   8.
 NSaved= 8 IEnMin= 8 EnMin= -1199.64270497470     IErMin= 8 ErrMin= 6.24D-07
 ErrMax= 6.24D-07  0.00D+00 EMaxC= 1.00D-01 BMatC= 1.88D-10 BMatP= 1.26D-09
 IDIUse=1 WtCom= 1.00D+00 WtEn= 0.00D+00
 Coeff-Com: -0.482D-03 0.580D-02 0.617D-04-0.242D-01-0.256D-01 0.236D-01
 Coeff-Com:  0.309D+00 0.712D+00
 Coeff:     -0.482D-03 0.580D-02 0.617D-04-0.242D-01-0.256D-01 0.236D-01
 Coeff:      0.309D+00 0.712D+00
 Gap=     0.371 Goal=   None    Shift=    0.000
 RMSDP=1.25D-07 MaxDP=4.20D-06 DE=-1.33D-09 OVMax= 7.23D-06

 Cycle   9  Pass 1  IDiag  1:
 E= -1199.64270497497     Delta-E=       -0.000000000271 Rises=F Damp=F
 DIIS: error= 2.33D-07 at cycle   9 NSaved=   9.
 NSaved= 9 IEnMin= 9 EnMin= -1199.64270497497     IErMin= 9 ErrMin= 2.33D-07
 ErrMax= 2.33D-07  0.00D+00 EMaxC= 1.00D-01 BMatC= 1.76D-11 BMatP= 1.88D-10
 IDIUse=1 WtCom= 1.00D+00 WtEn= 0.00D+00
 Coeff-Com: -0.239D-03 0.156D-02 0.167D-02-0.189D-02-0.129D-01-0.310D-01
 Coeff-Com:  0.366D-01 0.268D+00 0.738D+00
 Coeff:     -0.239D-03 0.156D-02 0.167D-02-0.189D-02-0.129D-01-0.310D-01
 Coeff:      0.366D-01 0.268D+00 0.738D+00
 Gap=     0.371 Goal=   None    Shift=    0.000
 RMSDP=4.51D-08 MaxDP=2.09D-06 DE=-2.71D-10 OVMax= 2.56D-06

 Cycle  10  Pass 1  IDiag  1:
 E= -1199.64270497497     Delta-E=       -0.000000000004 Rises=F Damp=F
 DIIS: error= 7.03D-08 at cycle  10 NSaved=  10.
 NSaved=10 IEnMin=10 EnMin= -1199.64270497497     IErMin=10 ErrMin= 7.03D-08
 ErrMax= 7.03D-08  0.00D+00 EMaxC= 1.00D-01 BMatC= 1.57D-12 BMatP= 1.76D-11
 IDIUse=1 WtCom= 1.00D+00 WtEn= 0.00D+00
 Coeff-Com:  0.263D-04-0.607D-03 0.406D-03 0.328D-02 0.132D-02-0.106D-01
 Coeff-Com: -0.369D-01-0.482D-01 0.140D+00 0.952D+00
 Coeff:      0.263D-04-0.607D-03 0.406D-03 0.328D-02 0.132D-02-0.106D-01
 Coeff:     -0.369D-01-0.482D-01 0.140D+00 0.952D+00
 Gap=     0.371 Goal=   None    Shift=    0.000
 RMSDP=1.84D-08 MaxDP=6.22D-07 DE=-3.64D-12 OVMax= 1.18D-06

 Cycle  11  Pass 1  IDiag  1:
 E= -1199.64270497497     Delta-E=        0.000000000005 Rises=F Damp=F
 DIIS: error= 2.78D-08 at cycle  11 NSaved=  11.
 NSaved=11 IEnMin=10 EnMin= -1199.64270497497     IErMin=11 ErrMin= 2.78D-08
 ErrMax= 2.78D-08  0.00D+00 EMaxC= 1.00D-01 BMatC= 4.70D-13 BMatP= 1.57D-12
 IDIUse=1 WtCom= 1.00D+00 WtEn= 0.00D+00
 Coeff-Com:  0.398D-04-0.461D-03 0.432D-04 0.184D-02 0.194D-02-0.186D-02
 Coeff-Com: -0.206D-01-0.496D-01-0.202D-01 0.421D+00 0.668D+00
 Coeff:      0.398D-04-0.461D-03 0.432D-04 0.184D-02 0.194D-02-0.186D-02
 Coeff:     -0.206D-01-0.496D-01-0.202D-01 0.421D+00 0.668D+00
 Gap=     0.371 Goal=   None    Shift=    0.000
 RMSDP=6.21D-09 MaxDP=2.42D-07 DE= 4.55D-12 OVMax= 3.59D-07

 SCF Done:  E(RwB97XD) =  -1199.64270497     A.U. after   11 cycles
            NFock= 11  Conv=0.62D-08     -V/T= 2.0020
 KE= 1.197296346296D+03 PE=-4.639128693484D+03 EE= 1.346183351181D+03
 Leave Link  502 at Fri May 23 03:41:41 2025, MaxMem=  3758096384 cpu:              51.6 elap:              15.7
 (Enter /apps/easybuild-2022/easybuild/software/Compiler/NVHPC/22.11-CUDA-11.7.0/Gaussian/g16c01-CUDA-11.7.0/g16/l508.exe)
 QCSCF skips out because SCF is already converged.
 Leave Link  508 at Fri May 23 03:41:42 2025, MaxMem=  3758096384 cpu:               0.1 elap:               0.0
 (Enter /apps/easybuild-2022/easybuild/software/Compiler/NVHPC/22.11-CUDA-11.7.0/Gaussian/g16c01-CUDA-11.7.0/g16/l801.exe)
 DoSCS=F DFT=T ScalE2(SS,OS)=  1.000000  1.000000
 Range of M.O.s used for correlation:     1   257
 NBasis=   257 NAE=    49 NBE=    49 NFC=     0 NFV=     0
 NROrb=    257 NOA=    49 NOB=    49 NVA=   208 NVB=   208

 **** Warning!!: The largest alpha MO coefficient is  0.30058744D+02

 Leave Link  801 at Fri May 23 03:41:42 2025, MaxMem=  3758096384 cpu:               0.1 elap:               0.0
 (Enter /apps/easybuild-2022/easybuild/software/Compiler/NVHPC/22.11-CUDA-11.7.0/Gaussian/g16c01-CUDA-11.7.0/g16/l1101.exe)
 Leave Link 1101 at Fri May 23 03:41:42 2025, MaxMem=  3758096384 cpu:               0.1 elap:               0.1
 (Enter /apps/easybuild-2022/easybuild/software/Compiler/NVHPC/22.11-CUDA-11.7.0/Gaussian/g16c01-CUDA-11.7.0/g16/l1102.exe)
 Symmetrizing basis deriv contribution to polar:
 IMax=3 JMax=2 DiffMx= 0.00D+00
 Leave Link 1102 at Fri May 23 03:41:42 2025, MaxMem=  3758096384 cpu:               0.1 elap:               0.0
 (Enter /apps/easybuild-2022/easybuild/software/Compiler/NVHPC/22.11-CUDA-11.7.0/Gaussian/g16c01-CUDA-11.7.0/g16/l1110.exe)
 Leave Link 1110 at Fri May 23 03:41:42 2025, MaxMem=  3758096384 cpu:               0.1 elap:               0.0
 (Enter /apps/easybuild-2022/easybuild/software/Compiler/NVHPC/22.11-CUDA-11.7.0/Gaussian/g16c01-CUDA-11.7.0/g16/l1002.exe)
 Minotr:  Closed shell wavefunction.
 Leave Link 1002 at Fri May 23 03:41:42 2025, MaxMem=  3758096384 cpu:               0.1 elap:               0.0
 (Enter /apps/easybuild-2022/easybuild/software/Compiler/NVHPC/22.11-CUDA-11.7.0/Gaussian/g16c01-CUDA-11.7.0/g16/l701.exe)
 ... and contract with generalized density number  0.
 Compute integral first derivatives.
 R6Disp: Adding Grimme-D2 dispersion energy 1st derivatives to the gradient.
 Leave Link  701 at Fri May 23 03:41:42 2025, MaxMem=  3758096384 cpu:               0.5 elap:               0.1
 (Enter /apps/easybuild-2022/easybuild/software/Compiler/NVHPC/22.11-CUDA-11.7.0/Gaussian/g16c01-CUDA-11.7.0/g16/l702.exe)
 L702 exits ... SP integral derivatives will be done elsewhere.
 Leave Link  702 at Fri May 23 03:41:42 2025, MaxMem=  3758096384 cpu:               0.1 elap:               0.1
 (Enter /apps/easybuild-2022/easybuild/software/Compiler/NVHPC/22.11-CUDA-11.7.0/Gaussian/g16c01-CUDA-11.7.0/g16/l703.exe)
 Integral derivatives from FoFJK, PRISM(SPDF).
 Compute integral first derivatives, UseDBF=F ICtDFT=           0.
 Calling FoFJK, ICntrl=      2127 FMM=F ISym2X=0 I1Cent= 0 IOpClX= 0 NMat=1 NMatS=1 NMatT=0.
 FoFJK:  IHMeth= 1 ICntrl=    2127 DoSepK=T KAlg= 0 I1Cent=           0 FoldK=F
 IRaf=         1 NMat=       1 IRICut=       1 DoRegI=T DoRafI=F ISym2E= 0 IDoP0=0 IntGTp=1.
 FoFCou: FMM=F IPFlag=           0 FMFlag=      100000 FMFlg1=         800
         NFxFlg=           0 DoJE=F BraDBF=F KetDBF=F FulRan=T
         wScrn=  0.000000 ICntrl=      2527 IOpCl=  0 I1Cent=           0 NGrid=           0
         NMat0=    1 NMatS0=      1 NMatT0=    0 NMatD0=    1 NMtDS0=    0 NMtDT0=    0
 Symmetry not used in FoFCou.
 Leave Link  703 at Fri May 23 03:41:48 2025, MaxMem=  3758096384 cpu:              32.7 elap:               5.8
 (Enter /apps/easybuild-2022/easybuild/software/Compiler/NVHPC/22.11-CUDA-11.7.0/Gaussian/g16c01-CUDA-11.7.0/g16/l716.exe)
 Dipole        =-1.25830009D+00 2.12413953D-01-1.08264206D+00
 Polarizability= 0.00000000D+00 0.00000000D+00 0.00000000D+00
                 0.00000000D+00 0.00000000D+00 0.00000000D+00
 -------------------------------------------------------------------
 Center     Atomic                   Forces (Hartrees/Bohr)
 Number     Number              X              Y              Z
 -------------------------------------------------------------------
      1        6          -0.005220512    0.001803487   -0.002008047
      2        6           0.003579052   -0.001034037    0.001211711
      3        9           0.000374265   -0.000798011    0.002450051
      4        9           0.000264104   -0.001970969    0.001079002
      5       16           0.001913022    0.000280576   -0.000452101
      6        8           0.000304063    0.000015418   -0.000005337
      7        8           0.000217000    0.000015540   -0.000036780
      8        8           0.000278931    0.000030266   -0.000081402
      9        9           0.002556714    0.003663066   -0.004973355
     10        9          -0.002166117   -0.000894609    0.001549582
     11        9          -0.002131849   -0.001123697    0.001278776
     12        1           0.000031329    0.000012971   -0.000012100
 -------------------------------------------------------------------
 Cartesian Forces:  Max     0.005220512 RMS     0.001870682
 Leave Link  716 at Fri May 23 03:41:48 2025, MaxMem=  3758096384 cpu:               0.1 elap:               0.0
 (Enter /apps/easybuild-2022/easybuild/software/Compiler/NVHPC/22.11-CUDA-11.7.0/Gaussian/g16c01-CUDA-11.7.0/g16/l123.exe)
 IRC-IRC-IRC-IRC-IRC-IRC-IRC-IRC-IRC-IRC-IRC-IRC-IRC-IRC-IRC-IRC-IRC-IRC
 Pt  3 Step number   1 out of a maximum of  20
 Using modified Bulirsch-Stoer corrector integration.
   Using distance weighted interpolants to fit PES.
 PreDWI: IReCr0= 2 IReCr1= 1 IReCr2= 1 IReCr3= 1
 Modified Bulirsch-Stoer Extrapolation Cycles:
    EPS =    0.000010000000000
    Cycle     1 NS=    48
      PEZero:  N= 2 I= 1 D=  3.97D-04 Err=  3.25D-06
    Cycle     2 NS=    64 Truncation Error =  0.000003252
 BS completed in    2 cycles and     112 integration steps.
 Maximum DWI energy   std dev =  0.000000117 at pt    47
 Maximum DWI gradient std dev =  0.002571912 at pt    28
 SUMMARY OF CORRECTOR INTEGRATION:
   Predictor End Point Energy = -1199.642705
   Old End Point Energy       = -1199.642705
   Corrected End Point Energy = -1199.642705
   Predictor End-Start Dist.  =     0.076279
   Old End-Start Dist.        =     0.076279
   New End-Start Dist.        =     0.076279
   New End-Old End Dist.      =     0.000215
 CORRECTOR INTEGRATION CONVERGENCE:
   Recorrection delta-x convergence threshold:    0.010000
   Delta-x Convergence Met
 Point Number:   3          Path Number:   1
                    CURRENT STRUCTURE
                Cartesian Coordinates (Ang):                
 ---------------------------------------------------------------------
 Center     Atomic                     Coordinates (Angstroms)
 Number     Number                        X           Y           Z
 ---------------------------------------------------------------------
      1          6                   -2.061498   -0.147618    0.329157
      2          6                   -0.242863    0.252781   -0.250334
      3          9                   -0.505973   -0.153002   -1.497586
      4          9                   -0.397762    1.551142   -0.050469
      5         16                    1.637692   -0.010650   -0.124690
      6          8                    2.107280    0.621957    1.067661
      7          8                    1.927228   -1.375498   -0.473701
      8          8                    2.089155    0.932756   -1.357077
      9          9                   -0.420022   -0.750154    1.036219
     10          9                   -2.599911    0.389899    1.361438
     11          9                   -2.647770   -1.258420    0.067324
     12          1                    2.174256    0.398706   -2.156561
 ---------------------------------------------------------------------
   CHANGE IN THE REACTION COORDINATE =    0.07628
   NET REACTION COORDINATE UP TO THIS POINT =    0.22885
  # OF POINTS ALONG THE PATH =   3
  # OF STEPS =   1

 Calculating another point on the path.
 Point Number  4 in FORWARD path direction.
 Using LQA Reaction Path Following.
   LQA: T_Est iteration completed in    3 iterations.
 IRC-IRC-IRC-IRC-IRC-IRC-IRC-IRC-IRC-IRC-IRC-IRC-IRC-IRC-IRC-IRC-IRC-IRC
 Leave Link  123 at Fri May 23 03:41:48 2025, MaxMem=  3758096384 cpu:               0.1 elap:               0.1
 (Enter /apps/easybuild-2022/easybuild/software/Compiler/NVHPC/22.11-CUDA-11.7.0/Gaussian/g16c01-CUDA-11.7.0/g16/l202.exe)
                          Input orientation:                          
 ---------------------------------------------------------------------
 Center     Atomic      Atomic             Coordinates (Angstroms)
 Number     Number       Type             X           Y           Z
 ---------------------------------------------------------------------
      1          6           0       -2.067672   -0.145481    0.326777
      2          6           0       -0.238624    0.251553   -0.248896
      3          9           0       -0.505693   -0.153600   -1.495761
      4          9           0       -0.397564    1.549675   -0.049663
      5         16           0        1.638542   -0.010525   -0.124890
      6          8           0        2.107553    0.621972    1.067658
      7          8           0        1.927423   -1.375487   -0.473733
      8          8           0        2.089406    0.932783   -1.357151
      9          9           0       -0.418123   -0.747415    1.032500
     10          9           0       -2.601531    0.389230    1.362600
     11          9           0       -2.649364   -1.259264    0.068282
     12          1           0        2.174700    0.398896   -2.156724
 ---------------------------------------------------------------------
                    Distance matrix (angstroms):
                    1          2          3          4          5
     1  C    0.000000
     2  C    1.958175   0.000000
     3  F    2.400310   1.337964   0.000000
     4  F    2.409258   1.322904   2.236970   0.000000
     5  S    3.736073   1.899425   2.549020   2.566245   0.000000
     6  O    4.309338   2.715708   3.741882   2.895626   1.429054
     7  O    4.256115   2.718377   2.908196   3.760581   1.438146
     8  O    4.612978   2.666839   2.816732   2.876647   1.616037
     9  F    1.892454   1.634666   2.598536   2.539315   2.472333
    10  F    1.282128   2.863425   3.585726   2.863319   4.511170
    11  F    1.282847   2.862662   2.874725   3.602035   4.470213
[...]
 NSaved= 6 IEnMin= 6 EnMin= -1199.72480358691     IErMin= 6 ErrMin= 3.27D-06
 ErrMax= 3.27D-06  0.00D+00 EMaxC= 1.00D-01 BMatC= 3.17D-09 BMatP= 7.64D-09
 IDIUse=1 WtCom= 1.00D+00 WtEn= 0.00D+00
 Coeff-Com:  0.498D-02-0.199D-01-0.671D-01-0.388D-01 0.477D+00 0.644D+00
 Coeff:      0.498D-02-0.199D-01-0.671D-01-0.388D-01 0.477D+00 0.644D+00
 Gap=     0.381 Goal=   None    Shift=    0.000
 RMSDP=3.71D-07 MaxDP=1.38D-05 DE=-1.92D-08 OVMax= 3.93D-05

 Cycle   7  Pass 1  IDiag  1:
 E= -1199.72480359040     Delta-E=       -0.000000003492 Rises=F Damp=F
 DIIS: error= 8.75D-07 at cycle   7 NSaved=   7.
 NSaved= 7 IEnMin= 7 EnMin= -1199.72480359040     IErMin= 7 ErrMin= 8.75D-07
 ErrMax= 8.75D-07  0.00D+00 EMaxC= 1.00D-01 BMatC= 2.44D-10 BMatP= 3.17D-09
 IDIUse=1 WtCom= 1.00D+00 WtEn= 0.00D+00
 Coeff-Com: -0.992D-03 0.121D-01-0.203D-01-0.667D-01 0.761D-02 0.216D+00
 Coeff-Com:  0.852D+00
 Coeff:     -0.992D-03 0.121D-01-0.203D-01-0.667D-01 0.761D-02 0.216D+00
 Coeff:      0.852D+00
 Gap=     0.381 Goal=   None    Shift=    0.000
 RMSDP=1.42D-07 MaxDP=4.96D-06 DE=-3.49D-09 OVMax= 1.85D-05

 Cycle   8  Pass 1  IDiag  1:
 E= -1199.72480359077     Delta-E=       -0.000000000367 Rises=F Damp=F
 DIIS: error= 2.74D-07 at cycle   8 NSaved=   8.
 NSaved= 8 IEnMin= 8 EnMin= -1199.72480359077     IErMin= 8 ErrMin= 2.74D-07
 ErrMax= 2.74D-07  0.00D+00 EMaxC= 1.00D-01 BMatC= 3.17D-11 BMatP= 2.44D-10
 IDIUse=1 WtCom= 1.00D+00 WtEn= 0.00D+00
 Coeff-Com: -0.851D-03 0.768D-02-0.647D-02-0.332D-01-0.269D-01 0.653D-01
 Coeff-Com:  0.413D+00 0.581D+00
 Coeff:     -0.851D-03 0.768D-02-0.647D-02-0.332D-01-0.269D-01 0.653D-01
 Coeff:      0.413D+00 0.581D+00
 Gap=     0.381 Goal=   None    Shift=    0.000
 RMSDP=4.15D-08 MaxDP=2.13D-06 DE=-3.67D-10 OVMax= 2.73D-06

 Cycle   9  Pass 1  IDiag  1:
 E= -1199.72480359081     Delta-E=       -0.000000000044 Rises=F Damp=F
 DIIS: error= 1.00D-07 at cycle   9 NSaved=   9.
 NSaved= 9 IEnMin= 9 EnMin= -1199.72480359081     IErMin= 9 ErrMin= 1.00D-07
 ErrMax= 1.00D-07  0.00D+00 EMaxC= 1.00D-01 BMatC= 2.83D-12 BMatP= 3.17D-11
 IDIUse=1 WtCom= 1.00D+00 WtEn= 0.00D+00
 Coeff-Com: -0.259D-03 0.191D-02-0.538D-03-0.664D-02-0.110D-01 0.237D-02
 Coeff-Com:  0.669D-01 0.247D+00 0.701D+00
 Coeff:     -0.259D-03 0.191D-02-0.538D-03-0.664D-02-0.110D-01 0.237D-02
 Coeff:      0.669D-01 0.247D+00 0.701D+00
 Gap=     0.381 Goal=   None    Shift=    0.000
 RMSDP=1.45D-08 MaxDP=8.34D-07 DE=-4.37D-11 OVMax= 6.29D-07

 Cycle  10  Pass 1  IDiag  1:
 E= -1199.72480359089     Delta-E=       -0.000000000077 Rises=F Damp=F
 DIIS: error= 3.27D-08 at cycle  10 NSaved=  10.
 NSaved=10 IEnMin=10 EnMin= -1199.72480359089     IErMin=10 ErrMin= 3.27D-08
 ErrMax= 3.27D-08  0.00D+00 EMaxC= 1.00D-01 BMatC= 3.99D-13 BMatP= 2.83D-12
 IDIUse=1 WtCom= 1.00D+00 WtEn= 0.00D+00
 Coeff-Com:  0.501D-05-0.222D-03 0.539D-03 0.169D-02 0.742D-04-0.684D-02
 Coeff-Com: -0.287D-01 0.221D-01 0.308D+00 0.704D+00
 Coeff:      0.501D-05-0.222D-03 0.539D-03 0.169D-02 0.742D-04-0.684D-02
 Coeff:     -0.287D-01 0.221D-01 0.308D+00 0.704D+00
 Gap=     0.381 Goal=   None    Shift=    0.000
 RMSDP=5.44D-09 MaxDP=2.21D-07 DE=-7.73D-11 OVMax= 1.24D-07

 SCF Done:  E(RwB97XD) =  -1199.72480359     A.U. after   10 cycles
            NFock= 10  Conv=0.54D-08     -V/T= 2.0018
 KE= 1.197547510570D+03 PE=-4.607226538943D+03 EE= 1.329748095034D+03
 Leave Link  502 at Fri May 23 04:15:51 2025, MaxMem=  3758096384 cpu:              56.4 elap:              12.5
 (Enter /apps/easybuild-2022/easybuild/software/Compiler/NVHPC/22.11-CUDA-11.7.0/Gaussian/g16c01-CUDA-11.7.0/g16/l508.exe)
 QCSCF skips out because SCF is already converged.
 Leave Link  508 at Fri May 23 04:15:51 2025, MaxMem=  3758096384 cpu:               0.1 elap:               0.0
 (Enter /apps/easybuild-2022/easybuild/software/Compiler/NVHPC/22.11-CUDA-11.7.0/Gaussian/g16c01-CUDA-11.7.0/g16/l801.exe)
 DoSCS=F DFT=T ScalE2(SS,OS)=  1.000000  1.000000
 Range of M.O.s used for correlation:     1   257
 NBasis=   257 NAE=    49 NBE=    49 NFC=     0 NFV=     0
 NROrb=    257 NOA=    49 NOB=    49 NVA=   208 NVB=   208

 **** Warning!!: The largest alpha MO coefficient is  0.27458869D+02

 Leave Link  801 at Fri May 23 04:15:51 2025, MaxMem=  3758096384 cpu:               0.1 elap:               0.0
 (Enter /apps/easybuild-2022/easybuild/software/Compiler/NVHPC/22.11-CUDA-11.7.0/Gaussian/g16c01-CUDA-11.7.0/g16/l1101.exe)
 Leave Link 1101 at Fri May 23 04:15:51 2025, MaxMem=  3758096384 cpu:               0.1 elap:               0.0
 (Enter /apps/easybuild-2022/easybuild/software/Compiler/NVHPC/22.11-CUDA-11.7.0/Gaussian/g16c01-CUDA-11.7.0/g16/l1102.exe)
 Symmetrizing basis deriv contribution to polar:
 IMax=3 JMax=2 DiffMx= 0.00D+00
 Leave Link 1102 at Fri May 23 04:15:51 2025, MaxMem=  3758096384 cpu:               0.1 elap:               0.1
 (Enter /apps/easybuild-2022/easybuild/software/Compiler/NVHPC/22.11-CUDA-11.7.0/Gaussian/g16c01-CUDA-11.7.0/g16/l1110.exe)
 Leave Link 1110 at Fri May 23 04:15:51 2025, MaxMem=  3758096384 cpu:               0.1 elap:               0.1
 (Enter /apps/easybuild-2022/easybuild/software/Compiler/NVHPC/22.11-CUDA-11.7.0/Gaussian/g16c01-CUDA-11.7.0/g16/l1002.exe)
 Minotr:  Closed shell wavefunction.
 Leave Link 1002 at Fri May 23 04:15:52 2025, MaxMem=  3758096384 cpu:               0.1 elap:               0.1
 (Enter /apps/easybuild-2022/easybuild/software/Compiler/NVHPC/22.11-CUDA-11.7.0/Gaussian/g16c01-CUDA-11.7.0/g16/l701.exe)
 ... and contract with generalized density number  0.
 Compute integral first derivatives.
 R6Disp: Adding Grimme-D2 dispersion energy 1st derivatives to the gradient.
 Leave Link  701 at Fri May 23 04:15:52 2025, MaxMem=  3758096384 cpu:               0.6 elap:               0.5
 (Enter /apps/easybuild-2022/easybuild/software/Compiler/NVHPC/22.11-CUDA-11.7.0/Gaussian/g16c01-CUDA-11.7.0/g16/l702.exe)
 L702 exits ... SP integral derivatives will be done elsewhere.
 Leave Link  702 at Fri May 23 04:15:52 2025, MaxMem=  3758096384 cpu:               0.1 elap:               0.1
 (Enter /apps/easybuild-2022/easybuild/software/Compiler/NVHPC/22.11-CUDA-11.7.0/Gaussian/g16c01-CUDA-11.7.0/g16/l703.exe)
 Integral derivatives from FoFJK, PRISM(SPDF).
 Compute integral first derivatives, UseDBF=F ICtDFT=           0.
 Calling FoFJK, ICntrl=      2127 FMM=F ISym2X=0 I1Cent= 0 IOpClX= 0 NMat=1 NMatS=1 NMatT=0.
 FoFJK:  IHMeth= 1 ICntrl=    2127 DoSepK=T KAlg= 0 I1Cent=           0 FoldK=F
 IRaf=         1 NMat=       1 IRICut=       1 DoRegI=T DoRafI=F ISym2E= 0 IDoP0=0 IntGTp=1.
 FoFCou: FMM=F IPFlag=           0 FMFlag=      100000 FMFlg1=         800
         NFxFlg=           0 DoJE=F BraDBF=F KetDBF=F FulRan=T
         wScrn=  0.000000 ICntrl=      2527 IOpCl=  0 I1Cent=           0 NGrid=           0
         NMat0=    1 NMatS0=      1 NMatT0=    0 NMatD0=    1 NMtDS0=    0 NMtDT0=    0
 Symmetry not used in FoFCou.
 Leave Link  703 at Fri May 23 04:15:58 2025, MaxMem=  3758096384 cpu:              31.6 elap:               5.6
 (Enter /apps/easybuild-2022/easybuild/software/Compiler/NVHPC/22.11-CUDA-11.7.0/Gaussian/g16c01-CUDA-11.7.0/g16/l716.exe)
 Dipole        =-1.76712601D-01 4.66275977D-02-9.72107522D-01
 Polarizability= 0.00000000D+00 0.00000000D+00 0.00000000D+00
                 0.00000000D+00 0.00000000D+00 0.00000000D+00
 -------------------------------------------------------------------
 Center     Atomic                   Forces (Hartrees/Bohr)
 Number     Number              X              Y              Z
 -------------------------------------------------------------------
      1        6          -0.010684462   -0.000159847    0.000756374
      2        6           0.001045535   -0.000286702    0.000279469
      3        9           0.000785405   -0.000152895    0.000549620
      4        9           0.001355750   -0.000310317   -0.000005976
      5       16           0.006796976    0.000626733   -0.001095042
      6        8           0.004790725    0.000526787   -0.001151258
      7        8           0.004579781    0.000574879   -0.000812456
      8        8           0.003618210    0.000291651   -0.000545816
      9        9          -0.000779195    0.000474756   -0.000642240
     10        9          -0.005736166   -0.001096876    0.001282671
     11        9          -0.005958856   -0.000509704    0.001424687
     12        1           0.000186298    0.000021534   -0.000040032
 -------------------------------------------------------------------
 Cartesian Forces:  Max     0.010684462 RMS     0.002893964
 Leave Link  716 at Fri May 23 04:15:58 2025, MaxMem=  3758096384 cpu:               0.1 elap:               0.0
 (Enter /apps/easybuild-2022/easybuild/software/Compiler/NVHPC/22.11-CUDA-11.7.0/Gaussian/g16c01-CUDA-11.7.0/g16/l123.exe)
 IRC-IRC-IRC-IRC-IRC-IRC-IRC-IRC-IRC-IRC-IRC-IRC-IRC-IRC-IRC-IRC-IRC-IRC
 Pt100 Step number   1 out of a maximum of  20
 Using modified Bulirsch-Stoer corrector integration.
   Using distance weighted interpolants to fit PES.
 PreDWI: IReCr0= 2 IReCr1= 1 IReCr2= 1 IReCr3= 1
 Modified Bulirsch-Stoer Extrapolation Cycles:
    EPS =    0.000010000000000
    Cycle     1 NS=    48
      PEZero:  N= 2 I= 1 D=  3.97D-04 Err=  2.98D-06
    Cycle     2 NS=    64 Truncation Error =  0.000002982
 BS completed in    2 cycles and     112 integration steps.
 Maximum DWI energy   std dev =  0.000000028 at pt    48
 Maximum DWI gradient std dev =  0.000799181 at pt    29
 SUMMARY OF CORRECTOR INTEGRATION:
   Predictor End Point Energy = -1199.724804
   Old End Point Energy       = -1199.724804
   Corrected End Point Energy = -1199.724804
   Predictor End-Start Dist.  =     0.076286
   Old End-Start Dist.        =     0.076286
   New End-Start Dist.        =     0.076286
   New End-Old End Dist.      =     0.000075
 CORRECTOR INTEGRATION CONVERGENCE:
   Recorrection delta-x convergence threshold:    0.010000
   Delta-x Convergence Met
 Point Number: 100          Path Number:   1
                    CURRENT STRUCTURE
                Cartesian Coordinates (Ang):                
 ---------------------------------------------------------------------
 Center     Atomic                     Coordinates (Angstroms)
 Number     Number                        X           Y           Z
 ---------------------------------------------------------------------
      1          6                   -2.790652   -0.016800    0.202131
      2          6                   -0.002733    0.211907   -0.203236
      3          9                   -0.478523   -0.207143   -1.366439
      4          9                   -0.364487    1.460059    0.007537
      5         16                    1.806491    0.004947   -0.152536
      6          8                    2.245923    0.630840    1.051724
      7          8                    2.049683   -1.369045   -0.489594
      8          8                    2.206439    0.946989   -1.383466
      9          9                   -0.436766   -0.567724    0.784279
     10          9                   -2.771906    0.301505    1.461709
     11          9                   -2.819039   -1.316646    0.178193
     12          1                    2.278425    0.426295   -2.194153
 ---------------------------------------------------------------------
   CHANGE IN THE REACTION COORDINATE =    0.07629
   NET REACTION COORDINATE UP TO THIS POINT =    7.62847
  # OF POINTS ALONG THE PATH = 100
  # OF STEPS =   1

 Maximum number of steps reached.
 Calculation of FORWARD path complete.
 Reaction path calculation complete.
 
 Energies reported relative to the TS energy of       -1199.642375
 --------------------------------------------------------------------------
    Summary of reaction path following
 --------------------------------------------------------------------------
                        Energy    RxCoord
   1                    0.00000   0.00000
   2                   -0.00004   0.07630
   3                   -0.00015   0.15257
   4                   -0.00033   0.22885
   5                   -0.00058   0.30513
   6                   -0.00090   0.38142
   7                   -0.00129   0.45770
   8                   -0.00174   0.53398
   9                   -0.00225   0.61027
  10                   -0.00282   0.68655
  11                   -0.00345   0.76283
  12                   -0.00414   0.83912
  13                   -0.00488   0.91540
  14                   -0.00567   0.99169
  15                   -0.00651   1.06797
  16                   -0.00739   1.14426
  17                   -0.00832   1.22054
  18                   -0.00929   1.29683
  19                   -0.01030   1.37311
  20                   -0.01135   1.44940
  21                   -0.01244   1.52568
  22                   -0.01355   1.60197
  23                   -0.01470   1.67825
  24                   -0.01586   1.75454
  25                   -0.01706   1.83082
  26                   -0.01827   1.90711
  27                   -0.01951   1.98339
  28                   -0.02076   2.05968
  29                   -0.02203   2.13596
  30                   -0.02331   2.21225
  31                   -0.02460   2.28853
  32                   -0.02589   2.36482
  33                   -0.02720   2.44110
  34                   -0.02851   2.51739
  35                   -0.02982   2.59367
  36                   -0.03113   2.66996
  37                   -0.03243   2.74624
  38                   -0.03373   2.82253
  39                   -0.03503   2.89881
  40                   -0.03631   2.97510
  41                   -0.03759   3.05138
  42                   -0.03885   3.12767
  43                   -0.04010   3.20395
  44                   -0.04134   3.28024
  45                   -0.04256   3.35652
  46                   -0.04377   3.43280
  47                   -0.04496   3.50909
  48                   -0.04613   3.58537
  49                   -0.04729   3.66166
  50                   -0.04843   3.73794
  51                   -0.04954   3.81423
  52                   -0.05064   3.89051
  53                   -0.05171   3.96680
  54                   -0.05277   4.04308
  55                   -0.05380   4.11937
  56                   -0.05481   4.19565
  57                   -0.05581   4.27193
  58                   -0.05678   4.34822
  59                   -0.05773   4.42450
  60                   -0.05865   4.50079
  61                   -0.05956   4.57707
  62                   -0.06044   4.65335
  63                   -0.06131   4.72964
  64                   -0.06215   4.80592
  65                   -0.06297   4.88221
  66                   -0.06377   4.95849
  67                   -0.06456   5.03478
  68                   -0.06533   5.11106
  69                   -0.06608   5.18734
  70                   -0.06681   5.26363
  71                   -0.06752   5.33991
  72                   -0.06822   5.41620
  73                   -0.06891   5.49248
  74                   -0.06957   5.56877
  75                   -0.07023   5.64505
  76                   -0.07086   5.72134
  77                   -0.07148   5.79762
  78                   -0.07208   5.87391
  79                   -0.07267   5.95019
  80                   -0.07324   6.02648
  81                   -0.07380   6.10276
  82                   -0.07435   6.17905
  83                   -0.07488   6.25533
  84                   -0.07540   6.33162
  85                   -0.07590   6.40790
  86                   -0.07640   6.48419
  87                   -0.07688   6.56048
  88                   -0.07734   6.63676
  89                   -0.07780   6.71305
  90                   -0.07824   6.78933
  91                   -0.07867   6.86562
  92                   -0.07909   6.94190
  93                   -0.07950   7.01819
  94                   -0.07990   7.09447
  95                   -0.08029   7.17076
  96                   -0.08067   7.24705
  97                   -0.08104   7.32333
  98                   -0.08140   7.39962
  99                   -0.08175   7.47590
 100                   -0.08209   7.55219
 101                   -0.08243   7.62847
 --------------------------------------------------------------------------
 
 Total number of points:                  100
 Total number of gradient calculations:   100
 Total number of Hessian calculations:      0
 IRC-IRC-IRC-IRC-IRC-IRC-IRC-IRC-IRC-IRC-IRC-IRC-IRC-IRC-IRC-IRC-IRC-IRC
 Leave Link  123 at Fri May 23 04:15:58 2025, MaxMem=  3758096384 cpu:               0.1 elap:               0.1
 (Enter /apps/easybuild-2022/easybuild/software/Compiler/NVHPC/22.11-CUDA-11.7.0/Gaussian/g16c01-CUDA-11.7.0/g16/l202.exe)
                          Input orientation:                          
 ---------------------------------------------------------------------
 Center     Atomic      Atomic             Coordinates (Angstroms)
 Number     Number       Type             X           Y           Z
 ---------------------------------------------------------------------
      1          6           0       -2.790656   -0.016798    0.202126
      2          6           0       -0.002735    0.211907   -0.203235
      3          9           0       -0.478523   -0.207142   -1.366439
      4          9           0       -0.364486    1.460059    0.007537
      5         16           0        1.806490    0.004947   -0.152536
      6          8           0        2.245922    0.630840    1.051725
      7          8           0        2.049682   -1.369045   -0.489594
      8          8           0        2.206438    0.946989   -1.383466
      9          9           0       -0.436761   -0.567725    0.784281
     10          9           0       -2.771905    0.301504    1.461709
     11          9           0       -2.819037   -1.316646    0.178193
     12          1           0        2.278428    0.426296   -2.194154
 ---------------------------------------------------------------------
                    Distance matrix (angstroms):
                    1          2          3          4          5
     1  C    0.000000
     2  C    2.826505   0.000000
     3  F    2.800462   1.324772   0.000000
     4  F    2.846977   1.316501   2.163418   0.000000
     5  S    4.610858   1.821729   2.596118   2.618418   0.000000
     6  O    5.148628   2.609001   3.737958   2.931239   1.426565
     7  O    5.073059   2.606496   2.917310   3.752223   1.435480
     8  O    5.330473   2.610313   2.922555   2.967791   1.600809
     9  F    2.486614   1.330936   2.181137   2.172663   2.497549
    10  F    1.299315   3.232394   3.676513   3.041798   4.863685
    11  F    1.300378   3.226999   3.015774   3.709992   4.821980
    12  H    5.624420   3.035362   2.947395   3.591811   2.137397
                    6          7          8          9         10
     6  O    0.000000
     7  O    2.532531   0.000000
     8  O    2.455944   2.487487   0.000000
     9  F    2.950402   2.906419   3.738982   0.000000
    10  F    5.045308   5.463151   5.770231   2.582124   0.000000
    11  F    5.496323   4.914582   5.728719   2.569721   2.065924
    12  H    3.252480   2.486182   0.966188   4.151072   6.235926
                   11         12
    11  F    0.000000
    12  H    5.886428   0.000000
 Symmetry turned off by external request.
 Stoichiometry    C2HF5O3S
 Rotational constants (GHZ):           2.0408599           0.5745466           0.5575761
 Leave Link  202 at Fri May 23 04:15:58 2025, MaxMem=  3758096384 cpu:               0.1 elap:               0.0
 (Enter /apps/easybuild-2022/easybuild/software/Compiler/NVHPC/22.11-CUDA-11.7.0/Gaussian/g16c01-CUDA-11.7.0/g16/l9999.exe)

 This type of calculation cannot be archived.


 THERE'S A SUCKER BORN EVERY MINUTE

              -- PHINEAS TAYLOR (P.T.) BARNUM
 Job cpu time:       0 days  2 hours 31 minutes  2.2 seconds.
 Elapsed time:       0 days  0 hours 34 minutes 57.5 seconds.
 File lengths (MBytes):  RWF=     31 Int=      0 D2E=      0 Chk=      8 Scr=      1
 Normal termination of Gaussian 16 at Fri May 23 04:15:58 2025.
done
