 Entering Gaussian System, Link 0=g16
 Initial command:
 /apps/easybuild-2022/easybuild/software/Compiler/NVHPC/22.11-CUDA-11.7.0/Gaussian/g16c01-CUDA-11.7.0/g16/l1.exe "/tmp/Gau-21849.inp" -scrdir="/tmp/"
 Entering Link 1 = /apps/easybuild-2022/easybuild/software/Compiler/NVHPC/22.11-CUDA-11.7.0/Gaussian/g16c01-CUDA-11.7.0/g16/l1.exe PID=     21865.
  
 Copyright (c) 1988-2019, Gaussian, Inc.  All Rights Reserved.
  
 This is part of the Gaussian(R) 16 program.  It is based on
 the Gaussian(R) 09 system (copyright 2009, Gaussian, Inc.),
 the Gaussian(R) 03 system (copyright 2003, Gaussian, Inc.),
 the Gaussian(R) 98 system (copyright 1998, Gaussian, Inc.),
 the Gaussian(R) 94 system (copyright 1995, Gaussian, Inc.),
 the Gaussian 92(TM) system (copyright 1992, Gaussian, Inc.),
 the Gaussian 90(TM) system (copyright 1990, Gaussian, Inc.),
 the Gaussian 88(TM) system (copyright 1988, Gaussian, Inc.),
 the Gaussian 86(TM) system (copyright 1986, Carnegie Mellon
 University), and the Gaussian 82(TM) system (copyright 1983,
 Carnegie Mellon University). Gaussian is a federally registered
 trademark of Gaussian, Inc.
  
 This software contains proprietary and confidential information,
 including trade secrets, belonging to Gaussian, Inc.
  
 This software is provided under written license and may be
 used, copied, transmitted, or stored only in accord with that
 written license.
  
 The following legend is applicable only to US Government
 contracts under FAR:
  
                    RESTRICTED RIGHTS LEGEND
  
 Use, reproduction and disclosure by the US Government is
 subject to restrictions as set forth in subparagraphs (a)
 and (c) of the Commercial Computer Software - Restricted
 Rights clause in FAR 52.227-19.
  
 Gaussian, Inc.
 340 Quinnipiac St., Bldg. 40, Wallingford CT 06492
  
  
 ---------------------------------------------------------------
 Warning -- This program may not be used in any manner that
 competes with the business of Gaussian, Inc. or will provide
 assistance to any competitor of Gaussian, Inc.  The licensee
 of this program is prohibited from giving any competitor of
 Gaussian, Inc. access to this program.  By using this program,
 the user acknowledges that Gaussian, Inc. is engaged in the
 business of creating and licensing software in the field of
 computational chemistry and represents and warrants to the
 licensee that it is not a competitor of Gaussian, Inc. and that
 it will not use this program in any manner prohibited above.
 ---------------------------------------------------------------
  

 Cite this work as:
 Gaussian 16, Revision C.01,
 M. J. Frisch, G. W. Trucks, H. B. Schlegel, G. E. Scuseria, 
 M. A. Robb, J. R. Cheeseman, G. Scalmani, V. Barone, 
 G. A. Petersson, H. Nakatsuji, X. Li, M. Caricato, A. V. Marenich, 
 J. Bloino, B. G. Janesko, R. Gomperts, B. Mennucci, H. P. Hratchian, 
 J. V. Ortiz, A. F. Izmaylov, J. L. Sonnenberg, D. Williams-Young, 
 F. Ding, F. Lipparini, F. Egidi, J. Goings, B. Peng, A. Petrone, 
 T. Henderson, D. Ranasinghe, V. G. Zakrzewski, J. Gao, N. Rega, 
 G. Zheng, W. Liang, M. Hada, M. Ehara, K. Toyota, R. Fukuda, 
 J. Hasegawa, M. Ishida, T. Nakajima, Y. Honda, O. Kitao, H. Nakai, 
 T. Vreven, K. Throssell, J. A. Montgomery, Jr., J. E. Peralta, 
 F. Ogliaro, M. J. Bearpark, J. J. Heyd, E. N. Brothers, K. N. Kudin, 
 V. N. Staroverov, T. A. Keith, R. Kobayashi, J. Normand, 
 K. Raghavachari, A. P. Rendell, J. C. Burant, S. S. Iyengar, 
 J. Tomasi, M. Cossi, J. M. Millam, M. Klene, C. Adamo, R. Cammi, 
 J. W. Ochterski, R. L. Martin, K. Morokuma, O. Farkas, 
 J. B. Foresman, and D. J. Fox, Gaussian, Inc., Wallingford CT, 2019.
 
 ******************************************
 Gaussian 16:  ES64L-G16RevC.01  3-Jul-2019
                23-May-2025 
 ******************************************
 %mem=28GB
 %chk=2003846667223680600001_R_Addition_MultipleBond_5_8_12_IRC_F
 %nprocshared=8
 Will use up to    8 processors via shared memory.
 ----------------------------------------------------------------------
 #P mp2/6-31G Symm(None) scf(xqc) pop(None) guess(Read,Mix) geom(AllChe
 ck,NoKeepConstants) irc(RCFC,forward,MaxPoints=100,StepSize=2)
 ----------------------------------------------------------------------
 1/10=5,18=10,22=1,29=20007,38=1,39=2,42=100,44=3,172=1/1,23;
 2/12=2,15=3,29=1,40=1/2;
 3/5=1,6=6,11=9,14=-4,25=1,30=1,71=2,116=-2,140=1/1,2,3;
 4/5=1,13=-1/1;
 5/5=2,8=3,13=1,38=6/2,8;
 8/6=3,8=1,10=2,19=11,30=-1/1;
 9/15=3,16=-3/6;
 11/6=1,8=1,15=11,17=12,24=-1,27=1,28=-2,29=300,31=1,32=6,42=3/1,2,10;
 10/6=2,21=1,31=1/2;
 8/6=4,8=1,10=2,19=11,30=-1/11,4;
 10/5=1,20=4,31=1/2;
 11/12=2,14=11,16=1,17=2,28=-2,31=1,42=3,76=2/2,10,12;
 7/10=1,12=2,25=1,30=1,44=2/1,2,3,16;
 1/18=10,22=1,39=2,42=100,44=3/23(2);
 2/15=3,29=1/2;
 99/5=20/99;
 2/15=3,29=1/2;
 3/5=1,6=6,11=9,14=-2,25=1,30=1,71=2,140=1/1,2,3;
 4/5=5,16=3,69=1/1;
 5/5=2,8=3,13=1,38=5/2,8;
 8/6=3,8=1,10=2,19=11,30=-1/1;
 9/15=3,16=-3/6;
 11/6=1,8=1,15=11,17=12,24=-1,27=1,28=-2,29=300,31=1,32=6,42=3/1,2,10;
 10/6=2,21=1,31=1/2;
 8/6=4,8=1,10=2,19=11,30=-1/11,4;
 10/5=1,20=4,31=1/2;
 11/12=2,14=11,16=1,17=2,28=-2,31=1,42=3,76=2/2,10,12;
 7/10=1,12=2,25=1,30=1,44=2/1,2,3,16;
 1/18=10,22=1,39=2,42=100,44=3/23(-12);
 2/15=3,29=1/2;
 99/5=20,9=10/99;
 Leave Link    1 at Fri May 23 03:25:21 2025, MaxMem=  3758096384 cpu:               0.0 elap:               0.1
 (Enter /apps/easybuild-2022/easybuild/software/Compiler/NVHPC/22.11-CUDA-11.7.0/Gaussian/g16c01-CUDA-11.7.0/g16/l101.exe)
 Structure from the checkpoint file:  "2003846667223680600001_R_Addition_MultipleBond_5_8_12_IRC_F.chk"
 ------------------------------
 Gaussian input prepared by ASE
 ------------------------------
 Charge =  0 Multiplicity = 1
 Redundant internal coordinates found in file.  (old form).
 C,0,-0.8145915847,0.199643091,1.3338817678
 C,0,-0.2393166359,0.0066664633,-0.0773592077
 F,0,-0.5400089212,-1.2545460447,-0.5669890739
 F,0,-0.6878266371,0.9971331306,-0.9390358294
 S,0,1.7763524569,0.1150216343,-0.162425467
 O,0,2.43373977,0.128302198,1.4310637794
 O,0,2.2908882583,-0.897629697,-1.2643739501
 O,0,2.1590443389,1.7916547895,-0.1838916214
 F,0,-0.3981909681,-0.8382134441,2.1540475593
 F,0,-0.3841344601,1.4128334387,1.8549161333
 F,0,-2.2052083127,0.1996624381,1.268806749
 H,0,2.6137367062,1.4026681074,1.0284441623
 Recover connectivity data from disk.
 ITRead=  0  0  0  0  0  0  0  0  0  0  0  0
 MicOpt= -1 -1 -1 -1 -1 -1 -1 -1 -1 -1 -1 -1
 NAtoms=     12 NQM=       12 NQMF=       0 NMMI=      0 NMMIF=      0
                NMic=       0 NMicF=      0.
                    Isotopes and Nuclear Properties:
 (Nuclear quadrupole moments (NQMom) in fm**2, nuclear magnetic moments (NMagM)
  in nuclear magnetons)

  Atom         1           2           3           4           5           6           7           8           9          10
 IAtWgt=          12          12          19          19          32          16          16          16          19          19
 AtmWgt=  12.0000000  12.0000000  18.9984032  18.9984032  31.9720718  15.9949146  15.9949146  15.9949146  18.9984032  18.9984032
 NucSpn=           0           0           1           1           0           0           0           0           1           1
 AtZEff=   3.6000000   3.6000000   6.7500000   6.7500000  13.6000000   5.6000000   5.6000000   5.6000000   6.7500000   6.7500000
 NQMom=    0.0000000   0.0000000   0.0000000   0.0000000   0.0000000   0.0000000   0.0000000   0.0000000   0.0000000   0.0000000
 NMagM=    0.0000000   0.0000000   2.6288670   2.6288670   0.0000000   0.0000000   0.0000000   0.0000000   2.6288670   2.6288670
 AtZNuc=   6.0000000   6.0000000   9.0000000   9.0000000  16.0000000   8.0000000   8.0000000   8.0000000   9.0000000   9.0000000

  Atom        11          12
 IAtWgt=          19           1
 AtmWgt=  18.9984032   1.0078250
 NucSpn=           1           1
 AtZEff=   6.7500000   1.0000000
 NQMom=    0.0000000   0.0000000
 NMagM=    2.6288670   2.7928460
 AtZNuc=   9.0000000   1.0000000
 Leave Link  101 at Fri May 23 03:25:21 2025, MaxMem=  3758096384 cpu:               0.2 elap:               0.2
 (Enter /apps/easybuild-2022/easybuild/software/Compiler/NVHPC/22.11-CUDA-11.7.0/Gaussian/g16c01-CUDA-11.7.0/g16/l123.exe)
 IRC-IRC-IRC-IRC-IRC-IRC-IRC-IRC-IRC-IRC-IRC-IRC-IRC-IRC-IRC-IRC-IRC-IRC
 ------------------------------------------------------------------------
 INPUT DATA FOR L123
 ------------------------------------------------------------------------
 GENERAL PARAMETERS:
 Rxn path following direction = Forward
 Maximum points per path      = 100
 Step size                    =   0.020 bohr
 Integration scheme           = HPC                                 
    Redo corrector integration= Yes                                 
    DWI Weight Power          =  2
    DWI will use Hessian update vectors when possible.
    Max correction cycles     =  20
 Initial Hessian              = ReadFC from chk
 Hessian evaluation           = All updating
 Hessian updating method      = Bofill                              
 ------------------------------------------------------------------------
          ******** Start new reaction path calculation ********
 RCFC Option Requested - Data Read From Chk File:
 "2003846667223680600001_R_Addition_MultipleBond_5_8_12_IRC_F.chk"
   Energy From Chk =  -1196.2008956

 Current Structure is TS -> form Hessian eigenvectors.
                            Recovering Hessian eigenvectors from chk file.
 Supplied step size of   0.0200 bohr.
    Integration on MW PES will use step size of   0.0209 sqrt(amu)*bohr.
 Point Number:   0          Path Number:   1
 Calculating another point on the path.
 Point Number  1 in FORWARD path direction.
 Using LQA Reaction Path Following.
 IRC-IRC-IRC-IRC-IRC-IRC-IRC-IRC-IRC-IRC-IRC-IRC-IRC-IRC-IRC-IRC-IRC-IRC
 Leave Link  123 at Fri May 23 03:25:21 2025, MaxMem=  3758096384 cpu:               0.1 elap:               0.1
 (Enter /apps/easybuild-2022/easybuild/software/Compiler/NVHPC/22.11-CUDA-11.7.0/Gaussian/g16c01-CUDA-11.7.0/g16/l202.exe)
                          Input orientation:                          
 ---------------------------------------------------------------------
 Center     Atomic      Atomic             Coordinates (Angstroms)
 Number     Number       Type             X           Y           Z
 ---------------------------------------------------------------------
      1          6           0       -1.198693    0.030924    0.922258
      2          6           0       -0.623407   -0.162094   -0.488936
      3          9           0       -0.924094   -1.423282   -0.978596
      4          9           0       -1.071892    0.828393   -1.350631
      5         16           0        1.392237   -0.053462   -0.574271
      6          8           0        2.049842   -0.040099    1.019684
      7          8           0        1.906814   -1.066414   -1.675924
      8          8           0        1.774771    1.622677   -0.595807
      9          9           0       -0.782265   -1.006945    1.742442
     10          9           0       -0.768213    1.244101    1.443312
     11          9           0       -2.589290    0.030932    0.857202
     12          1           0        2.230895    1.226425    0.624151
 ---------------------------------------------------------------------
                    Distance matrix (angstroms):
                    1          2          3          4          5
     1  C    0.000000
     2  C    1.536125   0.000000
     3  F    2.409018   1.385920   0.000000
     4  F    2.412066   1.387343   2.286984   0.000000
     5  S    2.993265   2.020372   2.721263   2.729896   0.000000
     6  O    3.250772   3.071983   3.840653   4.014710   1.724331
     7  O    4.195101   2.937474   2.937288   3.545250   1.582562
     8  O    3.698606   2.991336   4.087575   3.050269   1.719371
     9  F    1.386826   2.391246   2.756356   3.608247   3.317341
    10  F    1.388743   2.394146   3.606227   2.840977   3.228289
    11  F    1.392118   2.390406   2.873634   2.795169   4.231878
    12  H    3.644195   3.363627   4.420826   3.868669   1.943623
                    6          7          8          9         10
     6  O    0.000000
     7  O    2.887920   0.000000
     8  O    2.334587   2.900914   0.000000
     9  F    3.078637   4.349702   4.349799   0.000000
    10  F    3.125710   4.714221   3.281477   2.270877   0.000000
    11  F    4.642520   5.275969   4.867229   2.264106   2.265309
    12  H    1.339144   3.263814   1.361382   3.913777   3.109017
                   11         12
    11  F    0.000000
    12  H    4.971690   0.000000
 Symmetry turned off by external request.
 Stoichiometry    C2HF5O3S
 Rotational constants (GHZ):           1.3788596           0.7735540           0.7004119
 Leave Link  202 at Fri May 23 03:25:21 2025, MaxMem=  3758096384 cpu:               0.1 elap:               0.0
 (Enter /apps/easybuild-2022/easybuild/software/Compiler/NVHPC/22.11-CUDA-11.7.0/Gaussian/g16c01-CUDA-11.7.0/g16/l301.exe)
 Standard basis: 6-31G (6D, 7F)
 Ernie: Thresh=  0.10000D-02 Tol=  0.10000D-05 Strict=F.
   105 basis functions,   270 primitive gaussians,   105 cartesian basis functions
    49 alpha electrons       49 beta electrons
       nuclear repulsion energy       872.8714022299 Hartrees.



 Warning!  S  atom    5 may be hypervalent but has no d functions.



 IExCor=    0 DFT=F Ex=HF Corr=None ExCW=0 ScaHFX=  1.000000
 ScaDFX=  1.000000  1.000000  1.000000  1.000000 ScalE2=  1.000000  1.000000
 IRadAn=      5 IRanWt=     -1 IRanGd=            0 ICorTp=0 IEmpDi=  4
 NAtoms=   12 NActive=   12 NUniq=   12 SFac= 1.00D+00 NAtFMM=   60 NAOKFM=F Big=F
 Integral buffers will be    131072 words long.
 Raffenetti 1 integral format.
 Two-electron integral symmetry is turned off.
 Leave Link  301 at Fri May 23 03:25:21 2025, MaxMem=  3758096384 cpu:               0.1 elap:               0.0
 (Enter /apps/easybuild-2022/easybuild/software/Compiler/NVHPC/22.11-CUDA-11.7.0/Gaussian/g16c01-CUDA-11.7.0/g16/l302.exe)
 NPDir=0 NMtPBC=     1 NCelOv=     1 NCel=       1 NClECP=     1 NCelD=      1
         NCelK=      1 NCelE2=     1 NClLst=     1 CellRange=     0.0.
 One-electron integrals computed using PRISM.
 NBasis=   105 RedAO= T EigKep=  5.15D-03  NBF=   105
 NBsUse=   105 1.00D-06 EigRej= -1.00D+00 NBFU=   105
 Leave Link  302 at Fri May 23 03:25:21 2025, MaxMem=  3758096384 cpu:               0.3 elap:               0.1
 (Enter /apps/easybuild-2022/easybuild/software/Compiler/NVHPC/22.11-CUDA-11.7.0/Gaussian/g16c01-CUDA-11.7.0/g16/l303.exe)
 DipDrv:  MaxL=1.
 Leave Link  303 at Fri May 23 03:25:21 2025, MaxMem=  3758096384 cpu:               0.1 elap:               0.0
 (Enter /apps/easybuild-2022/easybuild/software/Compiler/NVHPC/22.11-CUDA-11.7.0/Gaussian/g16c01-CUDA-11.7.0/g16/l401.exe)
 Initial guess from the checkpoint file:  "2003846667223680600001_R_Addition_MultipleBond_5_8_12_IRC_F.chk"
 B after Tr=    -0.725791   -0.318861   -0.777788
         Rot=    1.000000   -0.000021    0.000011    0.000019 Ang=  -0.00 deg.
 Guess basis will be translated and rotated to current coordinates.
 JPrj=2 DoOrth=T DoCkMO=T.
 Mixing orbitals, IMix= 1 IMixAn=  0 NRI=1 NE=   49 Coef=  7.07106781D-01  7.07106781D-01
 Leave Link  401 at Fri May 23 03:25:22 2025, MaxMem=  3758096384 cpu:               0.1 elap:               0.1
 (Enter /apps/easybuild-2022/easybuild/software/Compiler/NVHPC/22.11-CUDA-11.7.0/Gaussian/g16c01-CUDA-11.7.0/g16/l502.exe)
 Keep R1 ints in memory in canonical form, NReq=17172470.
 FoFCou: FMM=F IPFlag=           0 FMFlag=           0 FMFlg1=           0
         NFxFlg=           0 DoJE=F BraDBF=F KetDBF=F FulRan=T
         wScrn=  0.000000 ICntrl=       600 IOpCl=  0 I1Cent=           0 NGrid=           0
         NMat0=    1 NMatS0=   5565 NMatT0=    0 NMatD0=    1 NMtDS0=    0 NMtDT0=    0
 Symmetry not used in FoFCou.
 Two-electron integral symmetry not used.
 Closed shell SCF:
 Using DIIS extrapolation, IDIIS=  1040.
 NGot=  3758096384 LenX=  3742584760 LenY=  3742573294
 Requested convergence on RMS density matrix=1.00D-08 within  32 cycles.
 Requested convergence on MAX density matrix=1.00D-06.
 Requested convergence on             energy=1.00D-06.
 No special actions if energy rises.

 Cycle   1  Pass 1  IDiag  1:
 E= -1194.56251758654    
 DIIS: error= 2.37D-02 at cycle   1 NSaved=   1.
 NSaved= 1 IEnMin= 1 EnMin= -1194.56251758654     IErMin= 1 ErrMin= 2.37D-02
 ErrMax= 2.37D-02  0.00D+00 EMaxC= 1.00D-01 BMatC= 9.82D-02 BMatP= 9.82D-02
 IDIUse=3 WtCom= 7.63D-01 WtEn= 2.37D-01
 Coeff-Com:  0.100D+01
 Coeff-En:   0.100D+01
 Coeff:      0.100D+01
 Gap=     0.236 Goal=   None    Shift=    0.000
 GapD=    0.236 DampG=1.000 DampE=0.500 DampFc=0.5000 IDamp=-1.
 Damping current iteration by 5.00D-01
 RMSDP=1.24D-02 MaxDP=2.71D-01              OVMax= 4.55D-01

 Cycle   2  Pass 1  IDiag  1:
 E= -1194.69117294256     Delta-E=       -0.128655356019 Rises=F Damp=T
 DIIS: error= 1.00D-02 at cycle   2 NSaved=   2.
 NSaved= 2 IEnMin= 2 EnMin= -1194.69117294256     IErMin= 2 ErrMin= 1.00D-02
 ErrMax= 1.00D-02  0.00D+00 EMaxC= 1.00D-01 BMatC= 1.59D-02 BMatP= 9.82D-02
 IDIUse=3 WtCom= 9.00D-01 WtEn= 1.00D-01
 Coeff-Com:  0.869D-01 0.913D+00
 Coeff-En:   0.000D+00 0.100D+01
 Coeff:      0.782D-01 0.922D+00
 Gap=     0.445 Goal=   None    Shift=    0.000
 RMSDP=6.13D-03 MaxDP=9.98D-02 DE=-1.29D-01 OVMax= 8.27D-02

 Cycle   3  Pass 1  IDiag  1:
 E= -1194.86821418648     Delta-E=       -0.177041243918 Rises=F Damp=F
 DIIS: error= 5.16D-03 at cycle   3 NSaved=   3.
 NSaved= 3 IEnMin= 3 EnMin= -1194.86821418648     IErMin= 3 ErrMin= 5.16D-03
 ErrMax= 5.16D-03  0.00D+00 EMaxC= 1.00D-01 BMatC= 8.56D-03 BMatP= 1.59D-02
 IDIUse=3 WtCom= 9.48D-01 WtEn= 5.16D-02
 Coeff-Com:  0.159D+00-0.304D+00 0.115D+01
 Coeff-En:   0.000D+00 0.000D+00 0.100D+01
 Coeff:      0.151D+00-0.289D+00 0.114D+01
 Gap=     0.457 Goal=   None    Shift=    0.000
 RMSDP=2.62D-03 MaxDP=4.05D-02 DE=-1.77D-01 OVMax= 9.03D-02

 Cycle   4  Pass 1  IDiag  1:
 E= -1194.89491936778     Delta-E=       -0.026705181301 Rises=F Damp=F
 DIIS: error= 3.98D-03 at cycle   4 NSaved=   4.
 NSaved= 4 IEnMin= 4 EnMin= -1194.89491936778     IErMin= 4 ErrMin= 3.98D-03
 ErrMax= 3.98D-03  0.00D+00 EMaxC= 1.00D-01 BMatC= 1.64D-03 BMatP= 8.56D-03
 IDIUse=3 WtCom= 9.60D-01 WtEn= 3.98D-02
 Coeff-Com: -0.546D-02-0.980D-01 0.115D+00 0.989D+00
 Coeff-En:   0.000D+00 0.000D+00 0.000D+00 0.100D+01
 Coeff:     -0.524D-02-0.941D-01 0.110D+00 0.989D+00
 Gap=     0.503 Goal=   None    Shift=    0.000
 RMSDP=1.26D-03 MaxDP=1.50D-02 DE=-2.67D-02 OVMax= 4.72D-02

 Cycle   5  Pass 1  IDiag  1:
 E= -1194.90151188705     Delta-E=       -0.006592519277 Rises=F Damp=F
 DIIS: error= 2.45D-03 at cycle   5 NSaved=   5.
 NSaved= 5 IEnMin= 5 EnMin= -1194.90151188705     IErMin= 5 ErrMin= 2.45D-03
 ErrMax= 2.45D-03  0.00D+00 EMaxC= 1.00D-01 BMatC= 6.30D-04 BMatP= 1.64D-03
 IDIUse=3 WtCom= 9.76D-01 WtEn= 2.45D-02
 Coeff-Com: -0.598D-01 0.139D+00-0.187D+00 0.858D-01 0.102D+01
 Coeff-En:   0.000D+00 0.000D+00 0.000D+00 0.000D+00 0.100D+01
 Coeff:     -0.583D-01 0.135D+00-0.183D+00 0.837D-01 0.102D+01
 Gap=     0.509 Goal=   None    Shift=    0.000
 RMSDP=6.36D-04 MaxDP=1.09D-02 DE=-6.59D-03 OVMax= 3.01D-02

 Cycle   6  Pass 1  IDiag  1:
 E= -1194.90368662321     Delta-E=       -0.002174736160 Rises=F Damp=F
 DIIS: error= 1.56D-03 at cycle   6 NSaved=   6.
 NSaved= 6 IEnMin= 6 EnMin= -1194.90368662321     IErMin= 6 ErrMin= 1.56D-03
 ErrMax= 1.56D-03  0.00D+00 EMaxC= 1.00D-01 BMatC= 1.93D-04 BMatP= 6.30D-04
 IDIUse=3 WtCom= 9.84D-01 WtEn= 1.56D-02
 Coeff-Com:  0.253D-02 0.433D-01-0.587D-01-0.318D+00 0.117D+00 0.121D+01
 Coeff-En:   0.000D+00 0.000D+00 0.000D+00 0.000D+00 0.000D+00 0.100D+01
 Coeff:      0.249D-02 0.426D-01-0.578D-01-0.313D+00 0.115D+00 0.121D+01
 Gap=     0.514 Goal=   None    Shift=    0.000
 RMSDP=5.30D-04 MaxDP=8.56D-03 DE=-2.17D-03 OVMax= 2.44D-02

 Cycle   7  Pass 1  IDiag  1:
 E= -1194.90464279424     Delta-E=       -0.000956171031 Rises=F Damp=F
 DIIS: error= 5.86D-04 at cycle   7 NSaved=   7.
 NSaved= 7 IEnMin= 7 EnMin= -1194.90464279424     IErMin= 7 ErrMin= 5.86D-04
 ErrMax= 5.86D-04  0.00D+00 EMaxC= 1.00D-01 BMatC= 4.79D-05 BMatP= 1.93D-04
 IDIUse=3 WtCom= 9.94D-01 WtEn= 5.86D-03
 Coeff-Com:  0.224D-01-0.463D-01 0.216D-01 0.197D-01-0.209D+00-0.114D+00
 Coeff-Com:  0.131D+01
 Coeff-En:   0.000D+00 0.000D+00 0.000D+00 0.000D+00 0.000D+00 0.000D+00
 Coeff-En:   0.100D+01
 Coeff:      0.223D-01-0.460D-01 0.215D-01 0.196D-01-0.208D+00-0.113D+00
 Coeff:      0.130D+01
 Gap=     0.518 Goal=   None    Shift=    0.000
 RMSDP=2.79D-04 MaxDP=5.74D-03 DE=-9.56D-04 OVMax= 1.28D-02

 Cycle   8  Pass 1  IDiag  1:
 E= -1194.90485326921     Delta-E=       -0.000210474966 Rises=F Damp=F
 DIIS: error= 2.98D-04 at cycle   8 NSaved=   8.
 NSaved= 8 IEnMin= 8 EnMin= -1194.90485326921     IErMin= 8 ErrMin= 2.98D-04
 ErrMax= 2.98D-04  0.00D+00 EMaxC= 1.00D-01 BMatC= 7.16D-06 BMatP= 4.79D-05
 IDIUse=3 WtCom= 9.97D-01 WtEn= 2.98D-03
 Coeff-Com: -0.118D-02 0.292D-02 0.985D-02 0.609D-01-0.147D-01-0.268D+00
 Coeff-Com:  0.744D-01 0.114D+01
 Coeff-En:   0.000D+00 0.000D+00 0.000D+00 0.000D+00 0.000D+00 0.000D+00
 Coeff-En:   0.000D+00 0.100D+01
 Coeff:     -0.118D-02 0.291D-02 0.982D-02 0.607D-01-0.146D-01-0.267D+00
 Coeff:      0.742D-01 0.114D+01
 Gap=     0.517 Goal=   None    Shift=    0.000
 RMSDP=8.51D-05 MaxDP=1.86D-03 DE=-2.10D-04 OVMax= 3.33D-03

 Cycle   9  Pass 1  IDiag  1:
 E= -1194.90488135744     Delta-E=       -0.000028088233 Rises=F Damp=F
 DIIS: error= 1.37D-04 at cycle   9 NSaved=   9.
 NSaved= 9 IEnMin= 9 EnMin= -1194.90488135744     IErMin= 9 ErrMin= 1.37D-04
 ErrMax= 1.37D-04  0.00D+00 EMaxC= 1.00D-01 BMatC= 1.40D-06 BMatP= 7.16D-06
 IDIUse=3 WtCom= 9.99D-01 WtEn= 1.37D-03
 Coeff-Com: -0.246D-02 0.336D-02-0.258D-02 0.128D-01 0.246D-01-0.393D-01
 Coeff-Com: -0.159D+00 0.184D+00 0.978D+00
 Coeff-En:   0.000D+00 0.000D+00 0.000D+00 0.000D+00 0.000D+00 0.000D+00
 Coeff-En:   0.000D+00 0.000D+00 0.100D+01
 Coeff:     -0.245D-02 0.336D-02-0.257D-02 0.128D-01 0.246D-01-0.393D-01
 Coeff:     -0.159D+00 0.184D+00 0.978D+00
 Gap=     0.517 Goal=   None    Shift=    0.000
 RMSDP=3.47D-05 MaxDP=8.89D-04 DE=-2.81D-05 OVMax= 1.63D-03

 Cycle  10  Pass 1  IDiag  1:
 E= -1194.90488641148     Delta-E=       -0.000005054039 Rises=F Damp=F
 DIIS: error= 7.92D-05 at cycle  10 NSaved=  10.
 NSaved=10 IEnMin=10 EnMin= -1194.90488641148     IErMin=10 ErrMin= 7.92D-05
 ErrMax= 7.92D-05  0.00D+00 EMaxC= 1.00D-01 BMatC= 3.82D-07 BMatP= 1.40D-06
 IDIUse=1 WtCom= 1.00D+00 WtEn= 0.00D+00
 Coeff-Com:  0.317D-03-0.640D-03-0.336D-02-0.192D-01 0.266D-02 0.783D-01
 Coeff-Com: -0.292D-01-0.347D+00 0.224D+00 0.109D+01
 Coeff:      0.317D-03-0.640D-03-0.336D-02-0.192D-01 0.266D-02 0.783D-01
 Coeff:     -0.292D-01-0.347D+00 0.224D+00 0.109D+01
 Gap=     0.517 Goal=   None    Shift=    0.000
 RMSDP=2.16D-05 MaxDP=4.54D-04 DE=-5.05D-06 OVMax= 9.37D-04

 Cycle  11  Pass 1  IDiag  1:
 E= -1194.90488785885     Delta-E=       -0.000001447367 Rises=F Damp=F
 DIIS: error= 2.32D-05 at cycle  11 NSaved=  11.
 NSaved=11 IEnMin=11 EnMin= -1194.90488785885     IErMin=11 ErrMin= 2.32D-05
 ErrMax= 2.32D-05  0.00D+00 EMaxC= 1.00D-01 BMatC= 7.26D-08 BMatP= 3.82D-07
 IDIUse=1 WtCom= 1.00D+00 WtEn= 0.00D+00
 Coeff-Com:  0.366D-03-0.158D-02 0.301D-02 0.186D-02-0.728D-02-0.632D-02
 Coeff-Com:  0.455D-01-0.208D-01-0.182D+00-0.109D+00 0.128D+01
 Coeff:      0.366D-03-0.158D-02 0.301D-02 0.186D-02-0.728D-02-0.632D-02
 Coeff:      0.455D-01-0.208D-01-0.182D+00-0.109D+00 0.128D+01
 Gap=     0.517 Goal=   None    Shift=    0.000
 RMSDP=8.91D-06 MaxDP=1.16D-04 DE=-1.45D-06 OVMax= 2.69D-04

 Cycle  12  Pass 1  IDiag  1:
 E= -1194.90488816348     Delta-E=       -0.000000304636 Rises=F Damp=F
 DIIS: error= 1.01D-05 at cycle  12 NSaved=  12.
 NSaved=12 IEnMin=12 EnMin= -1194.90488816348     IErMin=12 ErrMin= 1.01D-05
 ErrMax= 1.01D-05  0.00D+00 EMaxC= 1.00D-01 BMatC= 1.18D-08 BMatP= 7.26D-08
 IDIUse=1 WtCom= 1.00D+00 WtEn= 0.00D+00
 Coeff-Com:  0.373D-04-0.191D-03 0.114D-02 0.241D-02-0.167D-02-0.107D-01
 Coeff-Com:  0.120D-01 0.431D-01-0.495D-01-0.193D+00 0.124D+00 0.107D+01
 Coeff:      0.373D-04-0.191D-03 0.114D-02 0.241D-02-0.167D-02-0.107D-01
 Coeff:      0.120D-01 0.431D-01-0.495D-01-0.193D+00 0.124D+00 0.107D+01
 Gap=     0.517 Goal=   None    Shift=    0.000
 RMSDP=3.57D-06 MaxDP=4.43D-05 DE=-3.05D-07 OVMax= 1.16D-04

 Cycle  13  Pass 1  IDiag  1:
 E= -1194.90488821512     Delta-E=       -0.000000051638 Rises=F Damp=F
 DIIS: error= 6.14D-06 at cycle  13 NSaved=  13.
 NSaved=13 IEnMin=13 EnMin= -1194.90488821512     IErMin=13 ErrMin= 6.14D-06
 ErrMax= 6.14D-06  0.00D+00 EMaxC= 1.00D-01 BMatC= 3.26D-09 BMatP= 1.18D-08
 IDIUse=1 WtCom= 1.00D+00 WtEn= 0.00D+00
 Coeff-Com: -0.863D-04 0.392D-03-0.938D-03 0.518D-04 0.226D-02-0.190D-03
 Coeff-Com: -0.132D-01 0.145D-01 0.509D-01 0.110D-01-0.362D+00 0.693D-01
 Coeff-Com:  0.123D+01
 Coeff:     -0.863D-04 0.392D-03-0.938D-03 0.518D-04 0.226D-02-0.190D-03
 Coeff:     -0.132D-01 0.145D-01 0.509D-01 0.110D-01-0.362D+00 0.693D-01
 Coeff:      0.123D+01
 Gap=     0.517 Goal=   None    Shift=    0.000
 RMSDP=1.95D-06 MaxDP=2.67D-05 DE=-5.16D-08 OVMax= 7.80D-05

 Cycle  14  Pass 1  IDiag  1:
 E= -1194.90488822975     Delta-E=       -0.000000014626 Rises=F Damp=F
 DIIS: error= 2.04D-06 at cycle  14 NSaved=  14.
 NSaved=14 IEnMin=14 EnMin= -1194.90488822975     IErMin=14 ErrMin= 2.04D-06
 ErrMax= 2.04D-06  0.00D+00 EMaxC= 1.00D-01 BMatC= 4.86D-10 BMatP= 3.26D-09
 IDIUse=1 WtCom= 1.00D+00 WtEn= 0.00D+00
 Coeff-Com:  0.104D-05 0.297D-04-0.193D-03-0.346D-03 0.110D-03 0.181D-02
 Coeff-Com: -0.109D-02-0.791D-02-0.108D-02 0.382D-01 0.223D-01-0.195D+00
 Coeff-Com: -0.176D+00 0.132D+01
 Coeff:      0.104D-05 0.297D-04-0.193D-03-0.346D-03 0.110D-03 0.181D-02
 Coeff:     -0.109D-02-0.791D-02-0.108D-02 0.382D-01 0.223D-01-0.195D+00
 Coeff:     -0.176D+00 0.132D+01
 Gap=     0.517 Goal=   None    Shift=    0.000
 RMSDP=8.30D-07 MaxDP=1.07D-05 DE=-1.46D-08 OVMax= 3.11D-05

 Cycle  15  Pass 1  IDiag  1:
 E= -1194.90488823214     Delta-E=       -0.000000002390 Rises=F Damp=F
 DIIS: error= 6.48D-07 at cycle  15 NSaved=  15.
 NSaved=15 IEnMin=15 EnMin= -1194.90488823214     IErMin=15 ErrMin= 6.48D-07
 ErrMax= 6.48D-07  0.00D+00 EMaxC= 1.00D-01 BMatC= 5.42D-11 BMatP= 4.86D-10
 IDIUse=1 WtCom= 1.00D+00 WtEn= 0.00D+00
 Coeff-Com:  0.624D-05-0.199D-04 0.143D-03-0.531D-05-0.310D-03-0.102D-03
 Coeff-Com:  0.163D-02-0.352D-03-0.658D-02-0.583D-02 0.358D-01 0.221D-01
 Coeff-Com: -0.136D+00-0.172D+00 0.126D+01
 Coeff:      0.624D-05-0.199D-04 0.143D-03-0.531D-05-0.310D-03-0.102D-03
 Coeff:      0.163D-02-0.352D-03-0.658D-02-0.583D-02 0.358D-01 0.221D-01
 Coeff:     -0.136D+00-0.172D+00 0.126D+01
 Gap=     0.517 Goal=   None    Shift=    0.000
 RMSDP=3.11D-07 MaxDP=4.31D-06 DE=-2.39D-09 OVMax= 9.88D-06

 Cycle  16  Pass 1  IDiag  1:
 E= -1194.90488823239     Delta-E=       -0.000000000250 Rises=F Damp=F
 DIIS: error= 2.45D-07 at cycle  16 NSaved=  16.
 NSaved=16 IEnMin=16 EnMin= -1194.90488823239     IErMin=16 ErrMin= 2.45D-07
 ErrMax= 2.45D-07  0.00D+00 EMaxC= 1.00D-01 BMatC= 9.26D-12 BMatP= 5.42D-11
 IDIUse=1 WtCom= 1.00D+00 WtEn= 0.00D+00
 Coeff-Com: -0.205D-05 0.758D-05-0.192D-04 0.385D-04 0.949D-04-0.239D-03
 Coeff-Com: -0.371D-03 0.153D-02 0.121D-02-0.363D-02-0.101D-01 0.200D-01
 Coeff-Com:  0.459D-01-0.121D+00-0.268D+00 0.133D+01
 Coeff:     -0.205D-05 0.758D-05-0.192D-04 0.385D-04 0.949D-04-0.239D-03
 Coeff:     -0.371D-03 0.153D-02 0.121D-02-0.363D-02-0.101D-01 0.200D-01
 Coeff:      0.459D-01-0.121D+00-0.268D+00 0.133D+01
 Gap=     0.517 Goal=   None    Shift=    0.000
 RMSDP=1.12D-07 MaxDP=1.61D-06 DE=-2.50D-10 OVMax= 3.30D-06

 Cycle  17  Pass 1  IDiag  1:
 E= -1194.90488823244     Delta-E=       -0.000000000054 Rises=F Damp=F
 DIIS: error= 1.28D-07 at cycle  17 NSaved=  17.
 NSaved=17 IEnMin=17 EnMin= -1194.90488823244     IErMin=17 ErrMin= 1.28D-07
 ErrMax= 1.28D-07  0.00D+00 EMaxC= 1.00D-01 BMatC= 1.24D-12 BMatP= 9.26D-12
 IDIUse=1 WtCom= 1.00D+00 WtEn= 0.00D+00
 Coeff-Com: -0.140D-05 0.630D-05-0.228D-04 0.593D-05 0.570D-04-0.261D-04
 Coeff-Com: -0.283D-03 0.377D-03 0.930D-03 0.240D-03-0.654D-02 0.150D-02
 Coeff-Com:  0.233D-01-0.136D-02-0.177D+00 0.188D+00 0.971D+00
 Coeff:     -0.140D-05 0.630D-05-0.228D-04 0.593D-05 0.570D-04-0.261D-04
 Coeff:     -0.283D-03 0.377D-03 0.930D-03 0.240D-03-0.654D-02 0.150D-02
 Coeff:      0.233D-01-0.136D-02-0.177D+00 0.188D+00 0.971D+00
 Gap=     0.517 Goal=   None    Shift=    0.000
 RMSDP=2.85D-08 MaxDP=6.16D-07 DE=-5.37D-11 OVMax= 6.81D-07

 Cycle  18  Pass 1  IDiag  1:
 E= -1194.90488823243     Delta-E=        0.000000000007 Rises=F Damp=F
 DIIS: error= 6.59D-08 at cycle  18 NSaved=  18.
 NSaved=18 IEnMin=17 EnMin= -1194.90488823244     IErMin=18 ErrMin= 6.59D-08
 ErrMax= 6.59D-08  0.00D+00 EMaxC= 1.00D-01 BMatC= 2.62D-13 BMatP= 1.24D-12
 IDIUse=1 WtCom= 1.00D+00 WtEn= 0.00D+00
 Coeff-Com:  0.330D-06-0.731D-06 0.308D-05-0.126D-04-0.215D-04 0.763D-04
 Coeff-Com:  0.639D-04-0.397D-03-0.272D-03 0.119D-02 0.193D-02-0.525D-02
 Coeff-Com: -0.107D-01 0.347D-01 0.637D-01-0.381D+00 0.455D-01 0.125D+01
 Coeff:      0.330D-06-0.731D-06 0.308D-05-0.126D-04-0.215D-04 0.763D-04
 Coeff:      0.639D-04-0.397D-03-0.272D-03 0.119D-02 0.193D-02-0.525D-02
 Coeff:     -0.107D-01 0.347D-01 0.637D-01-0.381D+00 0.455D-01 0.125D+01
 Gap=     0.517 Goal=   None    Shift=    0.000
 RMSDP=1.87D-08 MaxDP=3.09D-07 DE= 6.82D-12 OVMax= 5.20D-07

 Cycle  19  Pass 1  IDiag  1:
 E= -1194.90488823243     Delta-E=        0.000000000001 Rises=F Damp=F
 DIIS: error= 1.32D-08 at cycle  19 NSaved=  19.
 NSaved=19 IEnMin=17 EnMin= -1194.90488823244     IErMin=19 ErrMin= 1.32D-08
 ErrMax= 1.32D-08  0.00D+00 EMaxC= 1.00D-01 BMatC= 1.78D-14 BMatP= 2.62D-13
 IDIUse=1 WtCom= 1.00D+00 WtEn= 0.00D+00
 Coeff-Com: -0.133D-06 0.196D-06 0.530D-06 0.298D-05 0.328D-05-0.217D-04
 Coeff-Com: -0.280D-06 0.919D-04 0.336D-04-0.396D-03-0.183D-03 0.140D-02
 Coeff-Com:  0.165D-02-0.103D-01-0.454D-02 0.103D+00-0.103D+00-0.392D+00
 Coeff-Com:  0.140D+01
 Coeff:     -0.133D-06 0.196D-06 0.530D-06 0.298D-05 0.328D-05-0.217D-04
 Coeff:     -0.280D-06 0.919D-04 0.336D-04-0.396D-03-0.183D-03 0.140D-02
 Coeff:      0.165D-02-0.103D-01-0.454D-02 0.103D+00-0.103D+00-0.392D+00
 Coeff:      0.140D+01
 Gap=     0.517 Goal=   None    Shift=    0.000
 RMSDP=4.90D-09 MaxDP=6.46D-08 DE= 1.36D-12 OVMax= 1.33D-07

 SCF Done:  E(RHF) =  -1194.90488823     A.U. after   19 cycles
            NFock= 19  Conv=0.49D-08     -V/T= 2.0008
 KE= 1.193973997261D+03 PE=-4.584673258327D+03 EE= 1.322922970604D+03
 Leave Link  502 at Fri May 23 03:25:22 2025, MaxMem=  3758096384 cpu:               1.4 elap:               0.5
 (Enter /apps/easybuild-2022/easybuild/software/Compiler/NVHPC/22.11-CUDA-11.7.0/Gaussian/g16c01-CUDA-11.7.0/g16/l508.exe)
 QCSCF skips out because SCF is already converged.
 Leave Link  508 at Fri May 23 03:25:22 2025, MaxMem=  3758096384 cpu:               0.1 elap:               0.0
 (Enter /apps/easybuild-2022/easybuild/software/Compiler/NVHPC/22.11-CUDA-11.7.0/Gaussian/g16c01-CUDA-11.7.0/g16/l801.exe)
 ExpMin= 1.17D-01 ExpMax= 2.19D+04 ExpMxC= 3.30D+03 IAcc=3 IRadAn=         5 AccDes= 0.00D+00
 HarFok:  IExCor=  205 AccDes= 0.00D+00 IRadAn=         5 IDoV=-2 UseB2=F ITyADJ=14
 ICtDFT= 12500011 ScaDFX=  1.000000  1.000000  1.000000  1.000000
 Largest valence mixing into a core orbital is  3.03D-04
 Largest core mixing into a valence orbital is  1.16D-04
 Range of M.O.s used for correlation:    16   105
 NBasis=   105 NAE=    49 NBE=    49 NFC=    15 NFV=     0
 NROrb=     90 NOA=    34 NOB=    34 NVA=    56 NVB=    56
 Leave Link  801 at Fri May 23 03:25:22 2025, MaxMem=  3758096384 cpu:               0.2 elap:               0.1
 (Enter /apps/easybuild-2022/easybuild/software/Compiler/NVHPC/22.11-CUDA-11.7.0/Gaussian/g16c01-CUDA-11.7.0/g16/l906.exe)
 Frozen-core derivative calculation, NFC=  15 NFV=   0.
 FulOut=F Deriv=T AODrv=T NAtomX=    12
   MMem=         829  MDisk=          34 MDiskD=          34
  W3Min=      540225 MinDsk=      689135 NBas6D=         105
 NBas2D=        5703    NTT=        5565    LW2=     2000000
    MDV=  3757946440 MDiskM=      372613 NBas2p=        5388
 Fully direct method using O(ONN) memory.
 IMap=   1   2   3   4   5   6   7   8   9  10  11  12  13  14  15  16  17  18  19  20
 IMap=  21  22  23  24  25  26  27  28  29  30  31  32  33  34  35  36  37  38  39  40
 IMap=  41  42  43  44  45  46  47  48  49
 JobTyp=1 Pass  1:  I=  16 to  49 NPSUse=  8 ParTrn=T ParDer=T DoDerP=T.
 Spin components of T(2) and E(2):
     alpha-alpha T2 =       0.5831425520D-01 E2=     -0.1751923639D+00
     alpha-beta  T2 =       0.3152736292D+00 E2=     -0.9456463100D+00
     beta-beta   T2 =       0.5831425520D-01 E2=     -0.1751923639D+00
 The integrals were generated   1 times.
 ANorm=    0.1196621135D+01
 E2 =    -0.1296031038D+01 EUMP2 =    -0.11962009192702D+04
 Leave Link  906 at Fri May 23 03:25:24 2025, MaxMem=  3758096384 cpu:              16.1 elap:               2.2
 (Enter /apps/easybuild-2022/easybuild/software/Compiler/NVHPC/22.11-CUDA-11.7.0/Gaussian/g16c01-CUDA-11.7.0/g16/l1101.exe)
 Leave Link 1101 at Fri May 23 03:25:24 2025, MaxMem=  3758096384 cpu:               0.1 elap:               0.0
 (Enter /apps/easybuild-2022/easybuild/software/Compiler/NVHPC/22.11-CUDA-11.7.0/Gaussian/g16c01-CUDA-11.7.0/g16/l1102.exe)
 Leave Link 1102 at Fri May 23 03:25:24 2025, MaxMem=  3758096384 cpu:               0.1 elap:               0.0
 (Enter /apps/easybuild-2022/easybuild/software/Compiler/NVHPC/22.11-CUDA-11.7.0/Gaussian/g16c01-CUDA-11.7.0/g16/l1110.exe)
 Leave Link 1110 at Fri May 23 03:25:25 2025, MaxMem=  3758096384 cpu:               0.1 elap:               0.0
 (Enter /apps/easybuild-2022/easybuild/software/Compiler/NVHPC/22.11-CUDA-11.7.0/Gaussian/g16c01-CUDA-11.7.0/g16/l1002.exe)
 Minotr:  Closed shell wavefunction.
 Leave Link 1002 at Fri May 23 03:25:25 2025, MaxMem=  3758096384 cpu:               0.1 elap:               0.0
 (Enter /apps/easybuild-2022/easybuild/software/Compiler/NVHPC/22.11-CUDA-11.7.0/Gaussian/g16c01-CUDA-11.7.0/g16/l811.exe)
 Leave Link  811 at Fri May 23 03:25:25 2025, MaxMem=  3758096384 cpu:               0.1 elap:               0.0
 (Enter /apps/easybuild-2022/easybuild/software/Compiler/NVHPC/22.11-CUDA-11.7.0/Gaussian/g16c01-CUDA-11.7.0/g16/l804.exe)
 Leave Link  804 at Fri May 23 03:25:25 2025, MaxMem=  3758096384 cpu:               0.0 elap:               0.0
 (Enter /apps/easybuild-2022/easybuild/software/Compiler/NVHPC/22.11-CUDA-11.7.0/Gaussian/g16c01-CUDA-11.7.0/g16/l1002.exe)
 Minotr:  Closed shell wavefunction.
          Computing MP2/KS-MP2 derivatives.
          Using Z-Vector for PSCF gradient.
          Skipping F1 and S1 gradient terms here.
          IDoAtm=111111111111
          Frozen-core window.
          Direct CPHF calculation.
          Differentiating once with respect to electric field.
                with respect to dipole field.
          Differentiating once with respect to nuclear coordinates.
          Requested convergence is 1.0D-10 RMS, and 1.0D-09 maximum.
          NewPWx=F KeepS1=T KeepF1=T KeepIn=T MapXYZ=F SortEE=F KeepMc=T.
 Keep R1 ints in memory in canonical form, NReq=17176520.
 FoFCou: FMM=F IPFlag=           0 FMFlag=           0 FMFlg1=           0
         NFxFlg=           0 DoJE=F BraDBF=F KetDBF=F FulRan=T
         wScrn=  0.000000 ICntrl=       600 IOpCl=  0 I1Cent=           0 NGrid=           0
         NMat0=    1 NMatS0=   5565 NMatT0=    0 NMatD0=    1 NMtDS0=    0 NMtDT0=    0
 Symmetry not used in FoFCou.
 Two-electron integral symmetry not used.
          MDV=    3758096384 using IRadAn=       5.
          Solving linear equations separately, MaxMat=       0.
          There are     1 degrees of freedom in the 1st order CPHF.  IDoFFX=0 NUNeed=     1.
 LinEq1:  Iter=  0 NonCon=     1 RMS=1.09D-02 Max=2.52D-01 NDo=     1
 AX will form     1 AO Fock derivatives at one time.
 LinEq1:  Iter=  1 NonCon=     1 RMS=4.32D-03 Max=6.65D-02 NDo=     1
 LinEq1:  Iter=  2 NonCon=     1 RMS=1.50D-03 Max=3.26D-02 NDo=     1
 LinEq1:  Iter=  3 NonCon=     1 RMS=5.80D-04 Max=9.83D-03 NDo=     1
 LinEq1:  Iter=  4 NonCon=     1 RMS=2.55D-04 Max=4.30D-03 NDo=     1
 LinEq1:  Iter=  5 NonCon=     1 RMS=1.00D-04 Max=1.24D-03 NDo=     1
 LinEq1:  Iter=  6 NonCon=     1 RMS=3.08D-05 Max=5.38D-04 NDo=     1
 LinEq1:  Iter=  7 NonCon=     1 RMS=1.69D-05 Max=2.92D-04 NDo=     1
 LinEq1:  Iter=  8 NonCon=     1 RMS=4.95D-06 Max=9.19D-05 NDo=     1
 LinEq1:  Iter=  9 NonCon=     1 RMS=1.48D-06 Max=3.73D-05 NDo=     1
 LinEq1:  Iter= 10 NonCon=     1 RMS=4.59D-07 Max=5.89D-06 NDo=     1
 LinEq1:  Iter= 11 NonCon=     1 RMS=1.52D-07 Max=1.81D-06 NDo=     1
 LinEq1:  Iter= 12 NonCon=     1 RMS=8.70D-08 Max=1.03D-06 NDo=     1
 LinEq1:  Iter= 13 NonCon=     1 RMS=2.92D-08 Max=3.00D-07 NDo=     1
 LinEq1:  Iter= 14 NonCon=     1 RMS=1.48D-08 Max=2.02D-07 NDo=     1
 LinEq1:  Iter= 15 NonCon=     1 RMS=3.11D-09 Max=2.43D-08 NDo=     1
 LinEq1:  Iter= 16 NonCon=     1 RMS=8.67D-10 Max=1.05D-08 NDo=     1
 LinEq1:  Iter= 17 NonCon=     1 RMS=2.45D-10 Max=3.09D-09 NDo=     1
 LinEq1:  Iter= 18 NonCon=     1 RMS=8.79D-11 Max=1.00D-09 NDo=     1
 LinEq1:  Iter= 19 NonCon=     0 RMS=4.39D-11 Max=5.86D-10 NDo=     1
 Linear equations converged to 1.000D-10 1.000D-09 after    19 iterations.
 End of Minotr F.D. properties file   721 does not exist.
 End of Minotr F.D. properties file   722 does not exist.
 End of Minotr F.D. properties file   788 does not exist.
 Leave Link 1002 at Fri May 23 03:25:25 2025, MaxMem=  3758096384 cpu:               1.5 elap:               0.5
 (Enter /apps/easybuild-2022/easybuild/software/Compiler/NVHPC/22.11-CUDA-11.7.0/Gaussian/g16c01-CUDA-11.7.0/g16/l1102.exe)
 Use density number 2.
 Symmetrizing basis deriv contribution to polar:
 IMax=3 JMax=2 DiffMx= 0.00D+00
 Leave Link 1102 at Fri May 23 03:25:25 2025, MaxMem=  3758096384 cpu:               0.1 elap:               0.0
 (Enter /apps/easybuild-2022/easybuild/software/Compiler/NVHPC/22.11-CUDA-11.7.0/Gaussian/g16c01-CUDA-11.7.0/g16/l1110.exe)
 Leave Link 1110 at Fri May 23 03:25:25 2025, MaxMem=  3758096384 cpu:               0.1 elap:               0.0
 (Enter /apps/easybuild-2022/easybuild/software/Compiler/NVHPC/22.11-CUDA-11.7.0/Gaussian/g16c01-CUDA-11.7.0/g16/l1112.exe)
 Leave Link 1112 at Fri May 23 03:25:25 2025, MaxMem=  3758096384 cpu:               0.1 elap:               0.0
 (Enter /apps/easybuild-2022/easybuild/software/Compiler/NVHPC/22.11-CUDA-11.7.0/Gaussian/g16c01-CUDA-11.7.0/g16/l701.exe)
 ... and contract with generalized density number  2.
 Compute integral first derivatives.
 Leave Link  701 at Fri May 23 03:25:25 2025, MaxMem=  3758096384 cpu:               0.3 elap:               0.1
 (Enter /apps/easybuild-2022/easybuild/software/Compiler/NVHPC/22.11-CUDA-11.7.0/Gaussian/g16c01-CUDA-11.7.0/g16/l702.exe)
 L702 exits ... SP integral derivatives will be done elsewhere.
 Leave Link  702 at Fri May 23 03:25:25 2025, MaxMem=  3758096384 cpu:               0.1 elap:               0.0
 (Enter /apps/easybuild-2022/easybuild/software/Compiler/NVHPC/22.11-CUDA-11.7.0/Gaussian/g16c01-CUDA-11.7.0/g16/l703.exe)
 Integral derivatives from FoFJK, PRISM(SPDF).
 Compute integral first derivatives, UseDBF=F ICtDFT=           0.
 Calling FoFJK, ICntrl=  10002127 FMM=F ISym2X=0 I1Cent= 0 IOpClX= 0 NMat=1 NMatS=1 NMatT=0.
 FoFJK:  IHMeth= 1 ICntrl=10002127 DoSepK=F KAlg= 0 I1Cent=           0 FoldK=F
 IRaf=         0 NMat=       1 IRICut=       1 DoRegI=T DoRafI=F ISym2E= 0 IDoP0=0 IntGTp=1.
 FoFCou: FMM=F IPFlag=           0 FMFlag=      100000 FMFlg1=         800
         NFxFlg=           0 DoJE=F BraDBF=F KetDBF=F FulRan=T
         wScrn=  0.000000 ICntrl=  10002127 IOpCl=  0 I1Cent=           0 NGrid=           0
         NMat0=    1 NMatS0=      1 NMatT0=    0 NMatD0=    1 NMtDS0=    0 NMtDT0=    0
 Symmetry not used in FoFCou.
 Leave Link  703 at Fri May 23 03:25:26 2025, MaxMem=  3758096384 cpu:               1.0 elap:               0.2
 (Enter /apps/easybuild-2022/easybuild/software/Compiler/NVHPC/22.11-CUDA-11.7.0/Gaussian/g16c01-CUDA-11.7.0/g16/l716.exe)
 Dipole        =-8.41145291D-01 4.43440483D-02 2.31352885D-01
 Polarizability= 0.00000000D+00 0.00000000D+00 0.00000000D+00
                 0.00000000D+00 0.00000000D+00 0.00000000D+00
 -------------------------------------------------------------------
 Center     Atomic                   Forces (Hartrees/Bohr)
 Number     Number              X              Y              Z
 -------------------------------------------------------------------
      1        6          -0.000050918    0.000025837   -0.000039234
      2        6          -0.000024804   -0.000077576    0.000075346
      3        9          -0.000018230   -0.000026970    0.000001763
      4        9           0.000057185   -0.000042894    0.000048061
      5       16          -0.000225210    0.001619811   -0.001547479
      6        8           0.000596943    0.001068657    0.000744588
      7        8           0.000019841   -0.000179397    0.000189593
      8        8          -0.000633610   -0.000812735   -0.001010815
      9        9           0.000022988   -0.000007940    0.000007868
     10        9           0.000007926   -0.000012021    0.000013106
     11        9          -0.000005435   -0.000003177    0.000012821
     12        1           0.000253323   -0.001551594    0.001504380
 -------------------------------------------------------------------
 Cartesian Forces:  Max     0.001619811 RMS     0.000624408
 Leave Link  716 at Fri May 23 03:25:26 2025, MaxMem=  3758096384 cpu:               0.1 elap:               0.0
 (Enter /apps/easybuild-2022/easybuild/software/Compiler/NVHPC/22.11-CUDA-11.7.0/Gaussian/g16c01-CUDA-11.7.0/g16/l123.exe)
 IRC-IRC-IRC-IRC-IRC-IRC-IRC-IRC-IRC-IRC-IRC-IRC-IRC-IRC-IRC-IRC-IRC-IRC
 Pt  1 Step number   1 out of a maximum of  20
 Using modified Bulirsch-Stoer corrector integration.
   Using distance weighted interpolants to fit PES.
 PreDWI: IReCr0= 2 IReCr1= 1 IReCr2= 1 IReCr3= 1
 Modified Bulirsch-Stoer Extrapolation Cycles:
    EPS =    0.000010000000000
    Cycle     1 NS=    48
      PEZero:  N= 2 I= 1 D=  5.45D-05 Err=  1.11D-04
    Cycle     2 NS=    64 Truncation Error =  0.000111497
      PEZero:  N= 3 I= 2 D=  5.45D-05 Err=  7.43D-05
      PEZero:  N= 3 I= 1 D=  1.09D-04 Err=  5.34D-10
    Cycle     3 NS=    96 Truncation Error =  0.000000001
 BS completed in    3 cycles and     208 integration steps.
 Maximum DWI energy   std dev =  0.000000003 at pt    37
 Maximum DWI gradient std dev =  0.001283926 at pt     1
 SUMMARY OF CORRECTOR INTEGRATION:
   Predictor End Point Energy = -1196.200919
   Old End Point Energy       = -1196.200919
   Corrected End Point Energy = -1196.200919
   Predictor End-Start Dist.  =     0.020914
   Old End-Start Dist.        =     0.020914
   New End-Start Dist.        =     0.020914
   New End-Old End Dist.      =     0.000018
 CORRECTOR INTEGRATION CONVERGENCE:
   Recorrection delta-x convergence threshold:    0.010000
   Delta-x Convergence Met
 Point Number:   1          Path Number:   1
                    CURRENT STRUCTURE
                Cartesian Coordinates (Ang):                
 ---------------------------------------------------------------------
 Center     Atomic                     Coordinates (Angstroms)
 Number     Number                        X           Y           Z
 ---------------------------------------------------------------------
      1          6                   -1.198693    0.030924    0.922258
      2          6                   -0.623407   -0.162094   -0.488936
      3          9                   -0.924094   -1.423282   -0.978596
      4          9                   -1.071892    0.828393   -1.350631
      5         16                    1.392237   -0.053461   -0.574271
      6          8                    2.049842   -0.040099    1.019684
      7          8                    1.906814   -1.066414   -1.675924
      8          8                    1.774771    1.622677   -0.595807
      9          9                   -0.782265   -1.006945    1.742442
     10          9                   -0.768213    1.244101    1.443312
     11          9                   -2.589290    0.030932    0.857202
     12          1                    2.230892    1.226420    0.624147
 ---------------------------------------------------------------------
   CHANGE IN THE REACTION COORDINATE =    0.02091
   NET REACTION COORDINATE UP TO THIS POINT =    0.02091
  # OF POINTS ALONG THE PATH =   1
  # OF STEPS =   1

 Calculating another point on the path.
 Point Number  2 in FORWARD path direction.
 Using LQA Reaction Path Following.
   LQA: T_Est iteration completed in    3 iterations.
 IRC-IRC-IRC-IRC-IRC-IRC-IRC-IRC-IRC-IRC-IRC-IRC-IRC-IRC-IRC-IRC-IRC-IRC
 Leave Link  123 at Fri May 23 03:25:26 2025, MaxMem=  3758096384 cpu:               0.2 elap:               0.2
 (Enter /apps/easybuild-2022/easybuild/software/Compiler/NVHPC/22.11-CUDA-11.7.0/Gaussian/g16c01-CUDA-11.7.0/g16/l202.exe)
                          Input orientation:                          
 ---------------------------------------------------------------------
 Center     Atomic      Atomic             Coordinates (Angstroms)
 Number     Number       Type             X           Y           Z
 ---------------------------------------------------------------------
      1          6           0       -1.198713    0.030935    0.922242
      2          6           0       -0.623417   -0.162126   -0.488905
      3          9           0       -0.924099   -1.423289   -0.978596
      4          9           0       -1.071878    0.828382   -1.350619
      5         16           0        1.392202   -0.053214   -0.574508
      6          8           0        2.050025   -0.039773    1.019911
      7          8           0        1.906820   -1.066469   -1.675866
      8          8           0        1.774577    1.622429   -0.596116
      9          9           0       -0.782259   -1.006947    1.742444
     10          9           0       -0.768211    1.244098    1.443315
     11          9           0       -2.589291    0.030931    0.857206
     12          1           0        2.232126    1.218901    0.631451
 ---------------------------------------------------------------------
                    Distance matrix (angstroms):
                    1          2          3          4          5
     1  C    0.000000
     2  C    1.536091   0.000000
     3  F    2.409018   1.385907   0.000000
     4  F    2.412034   1.387361   2.286976   0.000000
     5  S    2.993357   2.020374   2.721331   2.729698   0.000000
     6  O    3.250975   3.072261   3.841036   4.014895   1.724843
     7  O    4.195092   2.937484   2.937279   3.545262   1.582563
     8  O    3.698476   2.991071   4.087241   3.049933   1.718853
     9  F    1.386854   2.391207   2.756359   3.608233   3.317553
    10  F    1.388745   2.394140   3.606232   2.840968   3.228314
    11  F    1.392098   2.390386   2.873637   2.795167   4.231923
    12  H    3.642319   3.364010   4.419862   3.872667   1.943730
                    6          7          8          9         10
     6  O    0.000000
     7  O    2.888222   0.000000
     8  O    2.334594   2.900606   0.000000
     9  F    3.078849   4.349659   4.349700   0.000000
    10  F    3.125707   4.714212   3.281491   2.270876   0.000000
    11  F    4.642707   5.275960   4.867069   2.264112   2.265311
    12  H    1.329783   3.263809   1.370806   3.908353   3.108340
                   11         12
    11  F    0.000000
    12  H    4.970745   0.000000
 Symmetry turned off by external request.
 Stoichiometry    C2HF5O3S
 Rotational constants (GHZ):           1.3788539           0.7735752           0.7003951
 Leave Link  202 at Fri May 23 03:25:26 2025, MaxMem=  3758096384 cpu:               0.0 elap:               0.0
 (Enter /apps/easybuild-2022/easybuild/software/Compiler/NVHPC/22.11-CUDA-11.7.0/Gaussian/g16c01-CUDA-11.7.0/g16/l301.exe)
 Standard basis: 6-31G (6D, 7F)
 Ernie: Thresh=  0.10000D-02 Tol=  0.10000D-05 Strict=F.
   105 basis functions,   270 primitive gaussians,   105 cartesian basis functions
    49 alpha electrons       49 beta electrons
       nuclear repulsion energy       872.8730293325 Hartrees.



 Warning!  S  atom    5 may be hypervalent but has no d functions.



 IExCor=    0 DFT=F Ex=HF Corr=None ExCW=0 ScaHFX=  1.000000
 ScaDFX=  1.000000  1.000000  1.000000  1.000000 ScalE2=  1.000000  1.000000
 IRadAn=      5 IRanWt=     -1 IRanGd=            0 ICorTp=0 IEmpDi=  4
 NAtoms=   12 NActive=   12 NUniq=   12 SFac= 1.00D+00 NAtFMM=   60 NAOKFM=F Big=F
 Integral buffers will be    131072 words long.
 Raffenetti 1 integral format.
 Two-electron integral symmetry is turned off.
 Leave Link  301 at Fri May 23 03:25:26 2025, MaxMem=  3758096384 cpu:               0.1 elap:               0.1
 (Enter /apps/easybuild-2022/easybuild/software/Compiler/NVHPC/22.11-CUDA-11.7.0/Gaussian/g16c01-CUDA-11.7.0/g16/l302.exe)
 NPDir=0 NMtPBC=     1 NCelOv=     1 NCel=       1 NClECP=     1 NCelD=      1
         NCelK=      1 NCelE2=     1 NClLst=     1 CellRange=     0.0.
 One-electron integrals computed using PRISM.
 NBasis=   105 RedAO= T EigKep=  5.15D-03  NBF=   105
 NBsUse=   105 1.00D-06 EigRej= -1.00D+00 NBFU=   105
 Leave Link  302 at Fri May 23 03:25:26 2025, MaxMem=  3758096384 cpu:               0.3 elap:               0.1
 (Enter /apps/easybuild-2022/easybuild/software/Compiler/NVHPC/22.11-CUDA-11.7.0/Gaussian/g16c01-CUDA-11.7.0/g16/l303.exe)
 DipDrv:  MaxL=1.
 Leave Link  303 at Fri May 23 03:25:26 2025, MaxMem=  3758096384 cpu:               0.1 elap:               0.0
 (Enter /apps/easybuild-2022/easybuild/software/Compiler/NVHPC/22.11-CUDA-11.7.0/Gaussian/g16c01-CUDA-11.7.0/g16/l401.exe)
 Initial guess from the checkpoint file:  "2003846667223680600001_R_Addition_MultipleBond_5_8_12_IRC_F.chk"
 B after Tr=     0.000011   -0.000069    0.000067
         Rot=    1.000000   -0.000021    0.000011    0.000019 Ang=  -0.00 deg.
 Guess basis will be translated and rotated to current coordinates.
 JPrj=2 DoOrth=T DoCkMO=T.
 Generating alternative initial guess.
 ExpMin= 1.17D-01 ExpMax= 2.19D+04 ExpMxC= 3.30D+03 IAcc=3 IRadAn=         5 AccDes= 0.00D+00
 Harris functional with IExCor=  205 and IRadAn=       5 diagonalized for initial guess.
 HarFok:  IExCor=  205 AccDes= 0.00D+00 IRadAn=         5 IDoV= 1 UseB2=F ITyADJ=14
 ICtDFT=  3500011 ScaDFX=  1.000000  1.000000  1.000000  1.000000
 FoFCou: FMM=F IPFlag=           0 FMFlag=      100000 FMFlg1=           0
         NFxFlg=           0 DoJE=T BraDBF=F KetDBF=T FulRan=T
         wScrn=  0.000000 ICntrl=       500 IOpCl=  0 I1Cent=   200000004 NGrid=           0
         NMat0=    1 NMatS0=      1 NMatT0=    0 NMatD0=    1 NMtDS0=    0 NMtDT0=    0
 Symmetry not used in FoFCou.
 Harris En= -1194.87224226474    
 Leave Link  401 at Fri May 23 03:25:26 2025, MaxMem=  3758096384 cpu:               1.0 elap:               0.3
 (Enter /apps/easybuild-2022/easybuild/software/Compiler/NVHPC/22.11-CUDA-11.7.0/Gaussian/g16c01-CUDA-11.7.0/g16/l502.exe)
 Keep R1 ints in memory in canonical form, NReq=17172451.
 FoFCou: FMM=F IPFlag=           0 FMFlag=           0 FMFlg1=           0
         NFxFlg=           0 DoJE=F BraDBF=F KetDBF=F FulRan=T
         wScrn=  0.000000 ICntrl=       600 IOpCl=  0 I1Cent=           0 NGrid=           0
         NMat0=    1 NMatS0=   5565 NMatT0=    0 NMatD0=    1 NMtDS0=    0 NMtDT0=    0
 Symmetry not used in FoFCou.
 Two-electron integral symmetry not used.
 Closed shell SCF:
 Using DIIS extrapolation, IDIIS=  1040.
 NGot=  3758096384 LenX=  3742584760 LenY=  3742573294
 Requested convergence on RMS density matrix=1.00D-08 within  32 cycles.
 Requested convergence on MAX density matrix=1.00D-06.
 Requested convergence on             energy=1.00D-06.
 No special actions if energy rises.

 Cycle   1  Pass 1  IDiag  1:
 E= -1194.90494961904    
 DIIS: error= 7.19D-04 at cycle   1 NSaved=   1.
 NSaved= 1 IEnMin= 1 EnMin= -1194.90494961904     IErMin= 1 ErrMin= 7.19D-04
 ErrMax= 7.19D-04  0.00D+00 EMaxC= 1.00D-01 BMatC= 2.29D-05 BMatP= 2.29D-05
 IDIUse=3 WtCom= 9.93D-01 WtEn= 7.19D-03
 Coeff-Com:  0.100D+01
 Coeff-En:   0.100D+01
 Coeff:      0.100D+01
 Gap=     1.118 Goal=   None    Shift=    0.000
 RMSDP=7.35D-05 MaxDP=1.61D-03              OVMax= 5.67D-04

 Cycle   2  Pass 1  IDiag  1:
 E= -1194.90498723192     Delta-E=       -0.000037612880 Rises=F Damp=F
 DIIS: error= 4.90D-04 at cycle   2 NSaved=   2.
 NSaved= 2 IEnMin= 2 EnMin= -1194.90498723192     IErMin= 2 ErrMin= 4.90D-04
 ErrMax= 4.90D-04  0.00D+00 EMaxC= 1.00D-01 BMatC= 4.53D-06 BMatP= 2.29D-05
 IDIUse=3 WtCom= 9.95D-01 WtEn= 4.90D-03
 Coeff-Com:  0.659D-01 0.934D+00
 Coeff-En:   0.000D+00 0.100D+01
 Coeff:      0.656D-01 0.934D+00
 Gap=     0.517 Goal=   None    Shift=    0.000
 RMSDP=2.54D-05 MaxDP=7.00D-04 DE=-3.76D-05 OVMax= 1.33D-03

 Cycle   3  Pass 1  IDiag  1:
 E= -1194.90499370718     Delta-E=       -0.000006475256 Rises=F Damp=F
 DIIS: error= 1.30D-04 at cycle   3 NSaved=   3.
 NSaved= 3 IEnMin= 3 EnMin= -1194.90499370718     IErMin= 3 ErrMin= 1.30D-04
 ErrMax= 1.30D-04  0.00D+00 EMaxC= 1.00D-01 BMatC= 1.95D-06 BMatP= 4.53D-06
 IDIUse=3 WtCom= 9.99D-01 WtEn= 1.30D-03
 Coeff-Com: -0.178D+00 0.376D+00 0.802D+00
 Coeff-En:   0.000D+00 0.000D+00 0.100D+01
 Coeff:     -0.178D+00 0.375D+00 0.802D+00
 Gap=     0.517 Goal=   None    Shift=    0.000
 RMSDP=2.01D-05 MaxDP=4.06D-04 DE=-6.48D-06 OVMax= 6.74D-04

 Cycle   4  Pass 1  IDiag  1:
 E= -1194.90499712421     Delta-E=       -0.000003417031 Rises=F Damp=F
 DIIS: error= 9.80D-05 at cycle   4 NSaved=   4.
 NSaved= 4 IEnMin= 4 EnMin= -1194.90499712421     IErMin= 4 ErrMin= 9.80D-05
 ErrMax= 9.80D-05  0.00D+00 EMaxC= 1.00D-01 BMatC= 2.06D-07 BMatP= 1.95D-06
 IDIUse=1 WtCom= 1.00D+00 WtEn= 0.00D+00
 Coeff-Com:  0.182D+00-0.546D+00-0.754D+00 0.212D+01
 Coeff:      0.182D+00-0.546D+00-0.754D+00 0.212D+01
 Gap=     0.517 Goal=   None    Shift=    0.000
 RMSDP=2.05D-05 MaxDP=3.78D-04 DE=-3.42D-06 OVMax= 8.49D-04

 Cycle   5  Pass 1  IDiag  1:
 E= -1194.90499837720     Delta-E=       -0.000001252989 Rises=F Damp=F
 DIIS: error= 1.43D-05 at cycle   5 NSaved=   5.
 NSaved= 5 IEnMin= 5 EnMin= -1194.90499837720     IErMin= 5 ErrMin= 1.43D-05
 ErrMax= 1.43D-05  0.00D+00 EMaxC= 1.00D-01 BMatC= 1.18D-08 BMatP= 2.06D-07
 IDIUse=1 WtCom= 1.00D+00 WtEn= 0.00D+00
 Coeff-Com: -0.271D-01 0.971D-01 0.106D+00-0.491D+00 0.131D+01
 Coeff:     -0.271D-01 0.971D-01 0.106D+00-0.491D+00 0.131D+01
 Gap=     0.517 Goal=   None    Shift=    0.000
 RMSDP=4.22D-06 MaxDP=8.47D-05 DE=-1.25D-06 OVMax= 1.75D-04

 Cycle   6  Pass 1  IDiag  1:
 E= -1194.90499844127     Delta-E=       -0.000000064076 Rises=F Damp=F
 DIIS: error= 4.73D-06 at cycle   6 NSaved=   6.
 NSaved= 6 IEnMin= 6 EnMin= -1194.90499844127     IErMin= 6 ErrMin= 4.73D-06
 ErrMax= 4.73D-06  0.00D+00 EMaxC= 1.00D-01 BMatC= 3.00D-09 BMatP= 1.18D-08
 IDIUse=1 WtCom= 1.00D+00 WtEn= 0.00D+00
 Coeff-Com: -0.323D-01 0.996D-01 0.136D+00-0.425D+00 0.341D+00 0.882D+00
 Coeff:     -0.323D-01 0.996D-01 0.136D+00-0.425D+00 0.341D+00 0.882D+00
 Gap=     0.517 Goal=   None    Shift=    0.000
 RMSDP=1.33D-06 MaxDP=2.54D-05 DE=-6.41D-08 OVMax= 5.92D-05

 Cycle   7  Pass 1  IDiag  1:
 E= -1194.90499845077     Delta-E=       -0.000000009497 Rises=F Damp=F
 DIIS: error= 3.43D-06 at cycle   7 NSaved=   7.
 NSaved= 7 IEnMin= 7 EnMin= -1194.90499845077     IErMin= 7 ErrMin= 3.43D-06
 ErrMax= 3.43D-06  0.00D+00 EMaxC= 1.00D-01 BMatC= 6.51D-10 BMatP= 3.00D-09
 IDIUse=1 WtCom= 1.00D+00 WtEn= 0.00D+00
 Coeff-Com:  0.131D-01-0.461D-01-0.473D-01 0.205D+00-0.421D+00-0.160D+00
 Coeff-Com:  0.146D+01
 Coeff:      0.131D-01-0.461D-01-0.473D-01 0.205D+00-0.421D+00-0.160D+00
 Coeff:      0.146D+01
 Gap=     0.517 Goal=   None    Shift=    0.000
 RMSDP=1.04D-06 MaxDP=2.35D-05 DE=-9.50D-09 OVMax= 4.79D-05

 Cycle   8  Pass 1  IDiag  1:
 E= -1194.90499845427     Delta-E=       -0.000000003496 Rises=F Damp=F
 DIIS: error= 1.53D-06 at cycle   8 NSaved=   8.
 NSaved= 8 IEnMin= 8 EnMin= -1194.90499845427     IErMin= 8 ErrMin= 1.53D-06
 ErrMax= 1.53D-06  0.00D+00 EMaxC= 1.00D-01 BMatC= 7.77D-11 BMatP= 6.51D-10
 IDIUse=1 WtCom= 1.00D+00 WtEn= 0.00D+00
 Coeff-Com: -0.624D-03 0.325D-02 0.871D-03-0.174D-01 0.896D-01-0.420D-01
 Coeff-Com: -0.475D+00 0.144D+01
 Coeff:     -0.624D-03 0.325D-02 0.871D-03-0.174D-01 0.896D-01-0.420D-01
 Coeff:     -0.475D+00 0.144D+01
 Gap=     0.517 Goal=   None    Shift=    0.000
 RMSDP=3.76D-07 MaxDP=8.44D-06 DE=-3.50D-09 OVMax= 1.59D-05

 Cycle   9  Pass 1  IDiag  1:
 E= -1194.90499845471     Delta-E=       -0.000000000446 Rises=F Damp=F
 DIIS: error= 5.62D-07 at cycle   9 NSaved=   9.
 NSaved= 9 IEnMin= 9 EnMin= -1194.90499845471     IErMin= 9 ErrMin= 5.62D-07
 ErrMax= 5.62D-07  0.00D+00 EMaxC= 1.00D-01 BMatC= 2.19D-11 BMatP= 7.77D-11
 IDIUse=1 WtCom= 1.00D+00 WtEn= 0.00D+00
 Coeff-Com: -0.291D-02 0.106D-01 0.989D-02-0.476D-01 0.115D+00 0.193D-01
 Coeff-Com: -0.453D+00 0.475D+00 0.874D+00
 Coeff:     -0.291D-02 0.106D-01 0.989D-02-0.476D-01 0.115D+00 0.193D-01
 Coeff:     -0.453D+00 0.475D+00 0.874D+00
 Gap=     0.517 Goal=   None    Shift=    0.000
 RMSDP=1.39D-07 MaxDP=2.64D-06 DE=-4.46D-10 OVMax= 5.25D-06

 Cycle  10  Pass 1  IDiag  1:
 E= -1194.90499845480     Delta-E=       -0.000000000084 Rises=F Damp=F
 DIIS: error= 2.41D-07 at cycle  10 NSaved=  10.
 NSaved=10 IEnMin=10 EnMin= -1194.90499845480     IErMin=10 ErrMin= 2.41D-07
 ErrMax= 2.41D-07  0.00D+00 EMaxC= 1.00D-01 BMatC= 3.68D-12 BMatP= 2.19D-11
 IDIUse=1 WtCom= 1.00D+00 WtEn= 0.00D+00
 Coeff-Com:  0.718D-03-0.272D-02-0.242D-02 0.136D-01-0.436D-01 0.476D-02
 Coeff-Com:  0.208D+00-0.452D+00-0.171D+00 0.144D+01
 Coeff:      0.718D-03-0.272D-02-0.242D-02 0.136D-01-0.436D-01 0.476D-02
 Coeff:      0.208D+00-0.452D+00-0.171D+00 0.144D+01
 Gap=     0.517 Goal=   None    Shift=    0.000
 RMSDP=8.38D-08 MaxDP=1.29D-06 DE=-8.37D-11 OVMax= 2.46D-06

 Cycle  11  Pass 1  IDiag  1:
 E= -1194.90499845481     Delta-E=       -0.000000000009 Rises=F Damp=F
 DIIS: error= 8.37D-08 at cycle  11 NSaved=  11.
 NSaved=11 IEnMin=11 EnMin= -1194.90499845481     IErMin=11 ErrMin= 8.37D-08
 ErrMax= 8.37D-08  0.00D+00 EMaxC= 1.00D-01 BMatC= 5.65D-13 BMatP= 3.68D-12
 IDIUse=1 WtCom= 1.00D+00 WtEn= 0.00D+00
 Coeff-Com:  0.314D-03-0.113D-02-0.109D-02 0.520D-02-0.130D-01-0.141D-02
 Coeff-Com:  0.538D-01-0.710D-01-0.945D-01 0.659D-01 0.106D+01
 Coeff:      0.314D-03-0.113D-02-0.109D-02 0.520D-02-0.130D-01-0.141D-02
 Coeff:      0.538D-01-0.710D-01-0.945D-01 0.659D-01 0.106D+01
 Gap=     0.517 Goal=   None    Shift=    0.000
 RMSDP=2.22D-08 MaxDP=3.01D-07 DE=-9.09D-12 OVMax= 7.65D-07

 Cycle  12  Pass 1  IDiag  1:
 E= -1194.90499845485     Delta-E=       -0.000000000040 Rises=F Damp=F
 DIIS: error= 4.85D-08 at cycle  12 NSaved=  12.
 NSaved=12 IEnMin=12 EnMin= -1194.90499845485     IErMin=12 ErrMin= 4.85D-08
 ErrMax= 4.85D-08  0.00D+00 EMaxC= 1.00D-01 BMatC= 2.14D-13 BMatP= 5.65D-13
 IDIUse=1 WtCom= 1.00D+00 WtEn= 0.00D+00
 Coeff-Com: -0.154D-03 0.614D-03 0.503D-03-0.323D-02 0.118D-01-0.194D-02
 Coeff-Com: -0.586D-01 0.138D+00 0.337D-01-0.487D+00 0.315D+00 0.105D+01
 Coeff:     -0.154D-03 0.614D-03 0.503D-03-0.323D-02 0.118D-01-0.194D-02
 Coeff:     -0.586D-01 0.138D+00 0.337D-01-0.487D+00 0.315D+00 0.105D+01
 Gap=     0.517 Goal=   None    Shift=    0.000
 RMSDP=1.48D-08 MaxDP=2.41D-07 DE=-3.96D-11 OVMax= 5.51D-07

 Cycle  13  Pass 1  IDiag  1:
 E= -1194.90499845482     Delta-E=        0.000000000028 Rises=F Damp=F
 DIIS: error= 2.25D-08 at cycle  13 NSaved=  13.
 NSaved=13 IEnMin=12 EnMin= -1194.90499845485     IErMin=13 ErrMin= 2.25D-08
 ErrMax= 2.25D-08  0.00D+00 EMaxC= 1.00D-01 BMatC= 3.40D-14 BMatP= 2.14D-13
 IDIUse=1 WtCom= 1.00D+00 WtEn= 0.00D+00
 Coeff-Com: -0.892D-04 0.323D-03 0.319D-03-0.154D-02 0.405D-02 0.362D-03
 Coeff-Com: -0.172D-01 0.256D-01 0.236D-01-0.473D-01-0.192D+00 0.647D-01
 Coeff-Com:  0.114D+01
 Coeff:     -0.892D-04 0.323D-03 0.319D-03-0.154D-02 0.405D-02 0.362D-03
 Coeff:     -0.172D-01 0.256D-01 0.236D-01-0.473D-01-0.192D+00 0.647D-01
 Coeff:      0.114D+01
 Gap=     0.517 Goal=   None    Shift=    0.000
 RMSDP=6.21D-09 MaxDP=1.14D-07 DE= 2.77D-11 OVMax= 2.17D-07

 SCF Done:  E(RHF) =  -1194.90499845     A.U. after   13 cycles
            NFock= 13  Conv=0.62D-08     -V/T= 2.0008
 KE= 1.193974510939D+03 PE=-4.584675738387D+03 EE= 1.322923199661D+03
 Leave Link  502 at Fri May 23 03:25:27 2025, MaxMem=  3758096384 cpu:               1.1 elap:               0.4
 (Enter /apps/easybuild-2022/easybuild/software/Compiler/NVHPC/22.11-CUDA-11.7.0/Gaussian/g16c01-CUDA-11.7.0/g16/l508.exe)
 QCSCF skips out because SCF is already converged.
 Leave Link  508 at Fri May 23 03:25:27 2025, MaxMem=  3758096384 cpu:               0.1 elap:               0.0
 (Enter /apps/easybuild-2022/easybuild/software/Compiler/NVHPC/22.11-CUDA-11.7.0/Gaussian/g16c01-CUDA-11.7.0/g16/l801.exe)
 ExpMin= 1.17D-01 ExpMax= 2.19D+04 ExpMxC= 3.30D+03 IAcc=3 IRadAn=         5 AccDes= 0.00D+00
 HarFok:  IExCor=  205 AccDes= 0.00D+00 IRadAn=         5 IDoV=-2 UseB2=F ITyADJ=14
 ICtDFT= 12500011 ScaDFX=  1.000000  1.000000  1.000000  1.000000
 Largest valence mixing into a core orbital is  3.03D-04
 Largest core mixing into a valence orbital is  1.16D-04
 Range of M.O.s used for correlation:    16   105
 NBasis=   105 NAE=    49 NBE=    49 NFC=    15 NFV=     0
 NROrb=     90 NOA=    34 NOB=    34 NVA=    56 NVB=    56
 Leave Link  801 at Fri May 23 03:25:27 2025, MaxMem=  3758096384 cpu:               0.2 elap:               0.1
 (Enter /apps/easybuild-2022/easybuild/software/Compiler/NVHPC/22.11-CUDA-11.7.0/Gaussian/g16c01-CUDA-11.7.0/g16/l906.exe)
 Frozen-core derivative calculation, NFC=  15 NFV=   0.
 FulOut=F Deriv=T AODrv=T NAtomX=    12
   MMem=         829  MDisk=          34 MDiskD=          34
  W3Min=      540225 MinDsk=      689135 NBas6D=         105
 NBas2D=        5703    NTT=        5565    LW2=     2000000
    MDV=  3757946440 MDiskM=      372613 NBas2p=        5388
 Fully direct method using O(ONN) memory.
 IMap=   1   2   3   4   5   6   7   8   9  10  11  12  13  14  15  16  17  18  19  20
 IMap=  21  22  23  24  25  26  27  28  29  30  31  32  33  34  35  36  37  38  39  40
 IMap=  41  42  43  44  45  46  47  48  49
 JobTyp=1 Pass  1:  I=  16 to  49 NPSUse=  8 ParTrn=T ParDer=T DoDerP=T.
 Spin components of T(2) and E(2):
     alpha-alpha T2 =       0.5830938556D-01 E2=     -0.1751853255D+00
     alpha-beta  T2 =       0.3152516371D+00 E2=     -0.9456210678D+00
     beta-beta   T2 =       0.5830938556D-01 E2=     -0.1751853255D+00
 The integrals were generated   1 times.
 ANorm=    0.1196607876D+01
 E2 =    -0.1295991719D+01 EUMP2 =    -0.11962009901735D+04
 Leave Link  906 at Fri May 23 03:25:30 2025, MaxMem=  3758096384 cpu:              23.3 elap:               3.1
 (Enter /apps/easybuild-2022/easybuild/software/Compiler/NVHPC/22.11-CUDA-11.7.0/Gaussian/g16c01-CUDA-11.7.0/g16/l1101.exe)
 Leave Link 1101 at Fri May 23 03:25:30 2025, MaxMem=  3758096384 cpu:               0.1 elap:               0.0
 (Enter /apps/easybuild-2022/easybuild/software/Compiler/NVHPC/22.11-CUDA-11.7.0/Gaussian/g16c01-CUDA-11.7.0/g16/l1102.exe)
 Leave Link 1102 at Fri May 23 03:25:30 2025, MaxMem=  3758096384 cpu:               0.1 elap:               0.0
 (Enter /apps/easybuild-2022/easybuild/software/Compiler/NVHPC/22.11-CUDA-11.7.0/Gaussian/g16c01-CUDA-11.7.0/g16/l1110.exe)
 Leave Link 1110 at Fri May 23 03:25:30 2025, MaxMem=  3758096384 cpu:               0.1 elap:               0.0
 (Enter /apps/easybuild-2022/easybuild/software/Compiler/NVHPC/22.11-CUDA-11.7.0/Gaussian/g16c01-CUDA-11.7.0/g16/l1002.exe)
 Minotr:  Closed shell wavefunction.
 Leave Link 1002 at Fri May 23 03:25:30 2025, MaxMem=  3758096384 cpu:               0.1 elap:               0.0
 (Enter /apps/easybuild-2022/easybuild/software/Compiler/NVHPC/22.11-CUDA-11.7.0/Gaussian/g16c01-CUDA-11.7.0/g16/l811.exe)
 Leave Link  811 at Fri May 23 03:25:30 2025, MaxMem=  3758096384 cpu:               0.1 elap:               0.0
 (Enter /apps/easybuild-2022/easybuild/software/Compiler/NVHPC/22.11-CUDA-11.7.0/Gaussian/g16c01-CUDA-11.7.0/g16/l804.exe)
 Leave Link  804 at Fri May 23 03:25:30 2025, MaxMem=  3758096384 cpu:               0.1 elap:               0.0
 (Enter /apps/easybuild-2022/easybuild/software/Compiler/NVHPC/22.11-CUDA-11.7.0/Gaussian/g16c01-CUDA-11.7.0/g16/l1002.exe)
 Minotr:  Closed shell wavefunction.
          Computing MP2/KS-MP2 derivatives.
          Using Z-Vector for PSCF gradient.
          Skipping F1 and S1 gradient terms here.
          IDoAtm=111111111111
          Frozen-core window.
          Direct CPHF calculation.
          Differentiating once with respect to electric field.
                with respect to dipole field.
          Differentiating once with respect to nuclear coordinates.
          Requested convergence is 1.0D-10 RMS, and 1.0D-09 maximum.
          NewPWx=F KeepS1=T KeepF1=T KeepIn=T MapXYZ=F SortEE=F KeepMc=T.
 Keep R1 ints in memory in canonical form, NReq=17176520.
 FoFCou: FMM=F IPFlag=           0 FMFlag=           0 FMFlg1=           0
         NFxFlg=           0 DoJE=F BraDBF=F KetDBF=F FulRan=T
         wScrn=  0.000000 ICntrl=       600 IOpCl=  0 I1Cent=           0 NGrid=           0
         NMat0=    1 NMatS0=   5565 NMatT0=    0 NMatD0=    1 NMtDS0=    0 NMtDT0=    0
 Symmetry not used in FoFCou.
 Two-electron integral symmetry not used.
          MDV=    3758096384 using IRadAn=       5.
          Solving linear equations separately, MaxMat=       0.
          There are     1 degrees of freedom in the 1st order CPHF.  IDoFFX=0 NUNeed=     1.
 LinEq1:  Iter=  0 NonCon=     1 RMS=1.09D-02 Max=2.49D-01 NDo=     1
 AX will form     1 AO Fock derivatives at one time.
 LinEq1:  Iter=  1 NonCon=     1 RMS=4.32D-03 Max=6.60D-02 NDo=     1
 LinEq1:  Iter=  2 NonCon=     1 RMS=1.50D-03 Max=3.23D-02 NDo=     1
 LinEq1:  Iter=  3 NonCon=     1 RMS=5.80D-04 Max=9.81D-03 NDo=     1
 LinEq1:  Iter=  4 NonCon=     1 RMS=2.55D-04 Max=4.27D-03 NDo=     1
 LinEq1:  Iter=  5 NonCon=     1 RMS=1.01D-04 Max=1.21D-03 NDo=     1
 LinEq1:  Iter=  6 NonCon=     1 RMS=3.08D-05 Max=5.30D-04 NDo=     1
 LinEq1:  Iter=  7 NonCon=     1 RMS=1.69D-05 Max=2.92D-04 NDo=     1
 LinEq1:  Iter=  8 NonCon=     1 RMS=4.95D-06 Max=9.16D-05 NDo=     1
 LinEq1:  Iter=  9 NonCon=     1 RMS=1.48D-06 Max=3.72D-05 NDo=     1
 LinEq1:  Iter= 10 NonCon=     1 RMS=4.55D-07 Max=5.91D-06 NDo=     1
 LinEq1:  Iter= 11 NonCon=     1 RMS=1.41D-07 Max=1.77D-06 NDo=     1
 LinEq1:  Iter= 12 NonCon=     1 RMS=7.46D-08 Max=8.31D-07 NDo=     1
 LinEq1:  Iter= 13 NonCon=     1 RMS=2.38D-08 Max=2.75D-07 NDo=     1
 LinEq1:  Iter= 14 NonCon=     1 RMS=1.22D-08 Max=1.48D-07 NDo=     1
 LinEq1:  Iter= 15 NonCon=     1 RMS=3.10D-09 Max=2.38D-08 NDo=     1
 LinEq1:  Iter= 16 NonCon=     1 RMS=8.92D-10 Max=1.04D-08 NDo=     1
 LinEq1:  Iter= 17 NonCon=     1 RMS=2.70D-10 Max=3.52D-09 NDo=     1
 LinEq1:  Iter= 18 NonCon=     0 RMS=9.50D-11 Max=9.67D-10 NDo=     1
 Linear equations converged to 1.000D-10 1.000D-09 after    18 iterations.
 End of Minotr F.D. properties file   721 does not exist.
 End of Minotr F.D. properties file   722 does not exist.
 End of Minotr F.D. properties file   788 does not exist.
 Leave Link 1002 at Fri May 23 03:25:31 2025, MaxMem=  3758096384 cpu:               1.4 elap:               0.5
 (Enter /apps/easybuild-2022/easybuild/software/Compiler/NVHPC/22.11-CUDA-11.7.0/Gaussian/g16c01-CUDA-11.7.0/g16/l1102.exe)
 Use density number 2.
 Symmetrizing basis deriv contribution to polar:
 IMax=3 JMax=2 DiffMx= 0.00D+00
 Leave Link 1102 at Fri May 23 03:25:31 2025, MaxMem=  3758096384 cpu:               0.1 elap:               0.0
 (Enter /apps/easybuild-2022/easybuild/software/Compiler/NVHPC/22.11-CUDA-11.7.0/Gaussian/g16c01-CUDA-11.7.0/g16/l1110.exe)
 Leave Link 1110 at Fri May 23 03:25:31 2025, MaxMem=  3758096384 cpu:               0.1 elap:               0.0
 (Enter /apps/easybuild-2022/easybuild/software/Compiler/NVHPC/22.11-CUDA-11.7.0/Gaussian/g16c01-CUDA-11.7.0/g16/l1112.exe)
 Leave Link 1112 at Fri May 23 03:25:31 2025, MaxMem=  3758096384 cpu:               0.0 elap:               0.0
 (Enter /apps/easybuild-2022/easybuild/software/Compiler/NVHPC/22.11-CUDA-11.7.0/Gaussian/g16c01-CUDA-11.7.0/g16/l701.exe)
 ... and contract with generalized density number  2.
 Compute integral first derivatives.
 Leave Link  701 at Fri May 23 03:25:31 2025, MaxMem=  3758096384 cpu:               0.4 elap:               0.1
 (Enter /apps/easybuild-2022/easybuild/software/Compiler/NVHPC/22.11-CUDA-11.7.0/Gaussian/g16c01-CUDA-11.7.0/g16/l702.exe)
 L702 exits ... SP integral derivatives will be done elsewhere.
 Leave Link  702 at Fri May 23 03:25:31 2025, MaxMem=  3758096384 cpu:               0.1 elap:               0.0
 (Enter /apps/easybuild-2022/easybuild/software/Compiler/NVHPC/22.11-CUDA-11.7.0/Gaussian/g16c01-CUDA-11.7.0/g16/l703.exe)
 Integral derivatives from FoFJK, PRISM(SPDF).
 Compute integral first derivatives, UseDBF=F ICtDFT=           0.
 Calling FoFJK, ICntrl=  10002127 FMM=F ISym2X=0 I1Cent= 0 IOpClX= 0 NMat=1 NMatS=1 NMatT=0.
 FoFJK:  IHMeth= 1 ICntrl=10002127 DoSepK=F KAlg= 0 I1Cent=           0 FoldK=F
 IRaf=         0 NMat=       1 IRICut=       1 DoRegI=T DoRafI=F ISym2E= 0 IDoP0=0 IntGTp=1.
 FoFCou: FMM=F IPFlag=           0 FMFlag=      100000 FMFlg1=         800
         NFxFlg=           0 DoJE=F BraDBF=F KetDBF=F FulRan=T
         wScrn=  0.000000 ICntrl=  10002127 IOpCl=  0 I1Cent=           0 NGrid=           0
         NMat0=    1 NMatS0=      1 NMatT0=    0 NMatD0=    1 NMtDS0=    0 NMtDT0=    0
 Symmetry not used in FoFCou.
 Leave Link  703 at Fri May 23 03:25:31 2025, MaxMem=  3758096384 cpu:               1.0 elap:               0.3
 (Enter /apps/easybuild-2022/easybuild/software/Compiler/NVHPC/22.11-CUDA-11.7.0/Gaussian/g16c01-CUDA-11.7.0/g16/l716.exe)
 Dipole        =-8.39612419D-01 3.55749753D-02 2.40289230D-01
 Polarizability= 0.00000000D+00 0.00000000D+00 0.00000000D+00
                 0.00000000D+00 0.00000000D+00 0.00000000D+00
 -------------------------------------------------------------------
 Center     Atomic                   Forces (Hartrees/Bohr)
 Number     Number              X              Y              Z
 -------------------------------------------------------------------
      1        6          -0.000101567    0.000050793   -0.000079581
      2        6          -0.000048567   -0.000155554    0.000150473
      3        9          -0.000036995   -0.000054363    0.000003383
      4        9           0.000113863   -0.000085428    0.000095914
      5       16          -0.000438207    0.003250665   -0.003077416
      6        8           0.001188708    0.002121638    0.001486418
      7        8           0.000037766   -0.000357451    0.000380198
      8        8          -0.001269791   -0.001625188   -0.002027718
      9        9           0.000045744   -0.000015690    0.000015909
     10        9           0.000016112   -0.000023760    0.000026312
     11        9          -0.000011152   -0.000006185    0.000025947
     12        1           0.000504085   -0.003099476    0.003000161
 -------------------------------------------------------------------
 Cartesian Forces:  Max     0.003250665 RMS     0.001246786
 Leave Link  716 at Fri May 23 03:25:31 2025, MaxMem=  3758096384 cpu:               0.0 elap:               0.0
 (Enter /apps/easybuild-2022/easybuild/software/Compiler/NVHPC/22.11-CUDA-11.7.0/Gaussian/g16c01-CUDA-11.7.0/g16/l123.exe)
 IRC-IRC-IRC-IRC-IRC-IRC-IRC-IRC-IRC-IRC-IRC-IRC-IRC-IRC-IRC-IRC-IRC-IRC
 Pt  2 Step number   1 out of a maximum of  20
 Using modified Bulirsch-Stoer corrector integration.
   Using distance weighted interpolants to fit PES.
 PreDWI: IReCr0= 2 IReCr1= 1 IReCr2= 1 IReCr3= 1
 Modified Bulirsch-Stoer Extrapolation Cycles:
    EPS =    0.000010000000000
    Cycle     1 NS=    48
      PEZero:  N= 2 I= 1 D=  1.09D-04 Err=  1.12D-07
    Cycle     2 NS=    64 Truncation Error =  0.000000112
 BS completed in    2 cycles and     112 integration steps.
 Maximum DWI energy   std dev =  0.000000007 at pt    20
 Maximum DWI gradient std dev =  0.000888468 at pt    27
 SUMMARY OF CORRECTOR INTEGRATION:
   Predictor End Point Energy = -1196.200990
   Old End Point Energy       = -1196.200990
   Corrected End Point Energy = -1196.200990
   Predictor End-Start Dist.  =     0.020907
   Old End-Start Dist.        =     0.020907
   New End-Start Dist.        =     0.020907
   New End-Old End Dist.      =     0.000019
 CORRECTOR INTEGRATION CONVERGENCE:
   Recorrection delta-x convergence threshold:    0.010000
   Delta-x Convergence Met
 Point Number:   2          Path Number:   1
                    CURRENT STRUCTURE
                Cartesian Coordinates (Ang):                
 ---------------------------------------------------------------------
 Center     Atomic                     Coordinates (Angstroms)
 Number     Number                        X           Y           Z
 ---------------------------------------------------------------------
      1          6                   -1.198713    0.030935    0.922242
      2          6                   -0.623417   -0.162126   -0.488905
      3          9                   -0.924099   -1.423289   -0.978596
      4          9                   -1.071878    0.828382   -1.350619
      5         16                    1.392203   -0.053213   -0.574507
      6          8                    2.050024   -0.039774    1.019911
      7          8                    1.906820   -1.066469   -1.675865
      8          8                    1.774577    1.622429   -0.596117
      9          9                   -0.782260   -1.006947    1.742444
     10          9                   -0.768211    1.244098    1.443315
     11          9                   -2.589291    0.030931    0.857206
     12          1                    2.232123    1.218897    0.631447
 ---------------------------------------------------------------------
   CHANGE IN THE REACTION COORDINATE =    0.02091
   NET REACTION COORDINATE UP TO THIS POINT =    0.04182
  # OF POINTS ALONG THE PATH =   2
  # OF STEPS =   1

 Calculating another point on the path.
 Point Number  3 in FORWARD path direction.
 Using LQA Reaction Path Following.
   LQA: T_Est iteration completed in    3 iterations.
 IRC-IRC-IRC-IRC-IRC-IRC-IRC-IRC-IRC-IRC-IRC-IRC-IRC-IRC-IRC-IRC-IRC-IRC
 Leave Link  123 at Fri May 23 03:25:31 2025, MaxMem=  3758096384 cpu:               0.1 elap:               0.0
 (Enter /apps/easybuild-2022/easybuild/software/Compiler/NVHPC/22.11-CUDA-11.7.0/Gaussian/g16c01-CUDA-11.7.0/g16/l202.exe)
                          Input orientation:                          
 ---------------------------------------------------------------------
 Center     Atomic      Atomic             Coordinates (Angstroms)
 Number     Number       Type             X           Y           Z
 ---------------------------------------------------------------------
      1          6           0       -1.198734    0.030945    0.922226
      2          6           0       -0.623427   -0.162158   -0.488875
      3          9           0       -0.924103   -1.423296   -0.978595
      4          9           0       -1.071863    0.828371   -1.350606
      5         16           0        1.392169   -0.052964   -0.574743
      6          8           0        2.050206   -0.039449    1.020139
      7          8           0        1.906826   -1.066523   -1.675807
      8          8           0        1.774382    1.622180   -0.596428
      9          9           0       -0.782254   -1.006949    1.742446
     10          9           0       -0.768209    1.244095    1.443319
     11          9           0       -2.589293    0.030931    0.857209
     12          1           0        2.233350    1.211367    0.638741
 ---------------------------------------------------------------------
                    Distance matrix (angstroms):
                    1          2          3          4          5
     1  C    0.000000
     2  C    1.536057   0.000000
     3  F    2.409017   1.385894   0.000000
     4  F    2.412001   1.387380   2.286969   0.000000
     5  S    2.993449   2.020378   2.721402   2.729500   0.000000
     6  O    3.251178   3.072539   3.841418   4.015079   1.725353
     7  O    4.195082   2.937493   2.937269   3.545273   1.582566
     8  O    3.698345   2.990805   4.086906   3.049595   1.718331
     9  F    1.386882   2.391169   2.756362   3.608219   3.317765
    10  F    1.388748   2.394134   3.606237   2.840959   3.228338
    11  F    1.392078   2.390367   2.873641   2.795166   4.231969
    12  H    3.640462   3.364412   4.418908   3.876677   1.943878
                    6          7          8          9         10
     6  O    0.000000
     7  O    2.888523   0.000000
     8  O    2.334604   2.900297   0.000000
     9  F    3.079061   4.349615   4.349602   0.000000
    10  F    3.125705   4.714203   3.281506   2.270875   0.000000
    11  F    4.642893   5.275951   4.866908   2.264118   2.265312
    12  H    1.320434   3.263823   1.380240   3.902942   3.107696
                   11         12
    11  F    0.000000
    12  H    4.969814   0.000000
 Symmetry turned off by external request.
 Stoichiometry    C2HF5O3S
 Rotational constants (GHZ):           1.3788477           0.7735960           0.7003785
 Leave Link  202 at Fri May 23 03:25:31 2025, MaxMem=  3758096384 cpu:               0.1 elap:               0.0
 (Enter /apps/easybuild-2022/easybuild/software/Compiler/NVHPC/22.11-CUDA-11.7.0/Gaussian/g16c01-CUDA-11.7.0/g16/l301.exe)
 Standard basis: 6-31G (6D, 7F)
 Ernie: Thresh=  0.10000D-02 Tol=  0.10000D-05 Strict=F.
   105 basis functions,   270 primitive gaussians,   105 cartesian basis functions
    49 alpha electrons       49 beta electrons
       nuclear repulsion energy       872.8751157232 Hartrees.



 Warning!  S  atom    5 may be hypervalent but has no d functions.



 IExCor=    0 DFT=F Ex=HF Corr=None ExCW=0 ScaHFX=  1.000000
 ScaDFX=  1.000000  1.000000  1.000000  1.000000 ScalE2=  1.000000  1.000000
 IRadAn=      5 IRanWt=     -1 IRanGd=            0 ICorTp=0 IEmpDi=  4
 NAtoms=   12 NActive=   12 NUniq=   12 SFac= 1.00D+00 NAtFMM=   60 NAOKFM=F Big=F
 Integral buffers will be    131072 words long.
 Raffenetti 1 integral format.
 Two-electron integral symmetry is turned off.
 Leave Link  301 at Fri May 23 03:25:31 2025, MaxMem=  3758096384 cpu:               0.0 elap:               0.0
 (Enter /apps/easybuild-2022/easybuild/software/Compiler/NVHPC/22.11-CUDA-11.7.0/Gaussian/g16c01-CUDA-11.7.0/g16/l302.exe)
 NPDir=0 NMtPBC=     1 NCelOv=     1 NCel=       1 NClECP=     1 NCelD=      1
         NCelK=      1 NCelE2=     1 NClLst=     1 CellRange=     0.0.
 One-electron integrals computed using PRISM.
 NBasis=   105 RedAO= T EigKep=  5.15D-03  NBF=   105
 NBsUse=   105 1.00D-06 EigRej= -1.00D+00 NBFU=   105
 Leave Link  302 at Fri May 23 03:25:31 2025, MaxMem=  3758096384 cpu:               0.3 elap:               0.1
 (Enter /apps/easybuild-2022/easybuild/software/Compiler/NVHPC/22.11-CUDA-11.7.0/Gaussian/g16c01-CUDA-11.7.0/g16/l303.exe)
 DipDrv:  MaxL=1.
 Leave Link  303 at Fri May 23 03:25:31 2025, MaxMem=  3758096384 cpu:               0.1 elap:               0.0
 (Enter /apps/easybuild-2022/easybuild/software/Compiler/NVHPC/22.11-CUDA-11.7.0/Gaussian/g16c01-CUDA-11.7.0/g16/l401.exe)
 Initial guess from the checkpoint file:  "2003846667223680600001_R_Addition_MultipleBond_5_8_12_IRC_F.chk"
 B after Tr=     0.000011   -0.000069    0.000067
         Rot=    1.000000   -0.000021    0.000011    0.000019 Ang=  -0.00 deg.
 Guess basis will be translated and rotated to current coordinates.
 JPrj=2 DoOrth=T DoCkMO=T.
 Generating alternative initial guess.
[...]
 (Enter /apps/easybuild-2022/easybuild/software/Compiler/NVHPC/22.11-CUDA-11.7.0/Gaussian/g16c01-CUDA-11.7.0/g16/l1102.exe)
 Leave Link 1102 at Fri May 23 03:35:12 2025, MaxMem=  3758096384 cpu:               0.1 elap:               0.0
 (Enter /apps/easybuild-2022/easybuild/software/Compiler/NVHPC/22.11-CUDA-11.7.0/Gaussian/g16c01-CUDA-11.7.0/g16/l1110.exe)
 Leave Link 1110 at Fri May 23 03:35:12 2025, MaxMem=  3758096384 cpu:               0.1 elap:               0.0
 (Enter /apps/easybuild-2022/easybuild/software/Compiler/NVHPC/22.11-CUDA-11.7.0/Gaussian/g16c01-CUDA-11.7.0/g16/l1002.exe)
 Minotr:  Closed shell wavefunction.
 Leave Link 1002 at Fri May 23 03:35:12 2025, MaxMem=  3758096384 cpu:               0.1 elap:               0.0
 (Enter /apps/easybuild-2022/easybuild/software/Compiler/NVHPC/22.11-CUDA-11.7.0/Gaussian/g16c01-CUDA-11.7.0/g16/l811.exe)
 Leave Link  811 at Fri May 23 03:35:12 2025, MaxMem=  3758096384 cpu:               0.1 elap:               0.0
 (Enter /apps/easybuild-2022/easybuild/software/Compiler/NVHPC/22.11-CUDA-11.7.0/Gaussian/g16c01-CUDA-11.7.0/g16/l804.exe)
 Leave Link  804 at Fri May 23 03:35:12 2025, MaxMem=  3758096384 cpu:               0.1 elap:               0.0
 (Enter /apps/easybuild-2022/easybuild/software/Compiler/NVHPC/22.11-CUDA-11.7.0/Gaussian/g16c01-CUDA-11.7.0/g16/l1002.exe)
 Minotr:  Closed shell wavefunction.
          Computing MP2/KS-MP2 derivatives.
          Using Z-Vector for PSCF gradient.
          Skipping F1 and S1 gradient terms here.
          IDoAtm=111111111111
          Frozen-core window.
          Direct CPHF calculation.
          Differentiating once with respect to electric field.
                with respect to dipole field.
          Differentiating once with respect to nuclear coordinates.
          Requested convergence is 1.0D-10 RMS, and 1.0D-09 maximum.
          NewPWx=F KeepS1=T KeepF1=T KeepIn=T MapXYZ=F SortEE=F KeepMc=T.
 Keep R1 ints in memory in canonical form, NReq=17176223.
 FoFCou: FMM=F IPFlag=           0 FMFlag=           0 FMFlg1=           0
         NFxFlg=           0 DoJE=F BraDBF=F KetDBF=F FulRan=T
         wScrn=  0.000000 ICntrl=       600 IOpCl=  0 I1Cent=           0 NGrid=           0
         NMat0=    1 NMatS0=   5565 NMatT0=    0 NMatD0=    1 NMtDS0=    0 NMtDT0=    0
 Symmetry not used in FoFCou.
 Two-electron integral symmetry not used.
          MDV=    3758096384 using IRadAn=       5.
          Solving linear equations separately, MaxMat=       0.
          There are     1 degrees of freedom in the 1st order CPHF.  IDoFFX=0 NUNeed=     1.
 LinEq1:  Iter=  0 NonCon=     1 RMS=1.08D-02 Max=1.68D-01 NDo=     1
 AX will form     1 AO Fock derivatives at one time.
 LinEq1:  Iter=  1 NonCon=     1 RMS=4.50D-03 Max=6.59D-02 NDo=     1
 LinEq1:  Iter=  2 NonCon=     1 RMS=1.49D-03 Max=2.13D-02 NDo=     1
 LinEq1:  Iter=  3 NonCon=     1 RMS=5.78D-04 Max=7.61D-03 NDo=     1
 LinEq1:  Iter=  4 NonCon=     1 RMS=2.54D-04 Max=3.41D-03 NDo=     1
 LinEq1:  Iter=  5 NonCon=     1 RMS=1.08D-04 Max=1.41D-03 NDo=     1
 LinEq1:  Iter=  6 NonCon=     1 RMS=3.46D-05 Max=5.31D-04 NDo=     1
 LinEq1:  Iter=  7 NonCon=     1 RMS=1.86D-05 Max=3.64D-04 NDo=     1
 LinEq1:  Iter=  8 NonCon=     1 RMS=5.32D-06 Max=5.45D-05 NDo=     1
 LinEq1:  Iter=  9 NonCon=     1 RMS=2.84D-06 Max=4.14D-05 NDo=     1
 LinEq1:  Iter= 10 NonCon=     1 RMS=8.69D-07 Max=1.84D-05 NDo=     1
 LinEq1:  Iter= 11 NonCon=     1 RMS=3.50D-07 Max=4.20D-06 NDo=     1
 LinEq1:  Iter= 12 NonCon=     1 RMS=1.15D-07 Max=1.55D-06 NDo=     1
 LinEq1:  Iter= 13 NonCon=     1 RMS=3.01D-08 Max=2.71D-07 NDo=     1
 LinEq1:  Iter= 14 NonCon=     1 RMS=1.38D-08 Max=1.99D-07 NDo=     1
 LinEq1:  Iter= 15 NonCon=     1 RMS=2.96D-09 Max=2.99D-08 NDo=     1
 LinEq1:  Iter= 16 NonCon=     1 RMS=7.87D-10 Max=8.96D-09 NDo=     1
 LinEq1:  Iter= 17 NonCon=     1 RMS=2.38D-10 Max=3.40D-09 NDo=     1
 LinEq1:  Iter= 18 NonCon=     1 RMS=8.22D-11 Max=1.27D-09 NDo=     1
 LinEq1:  Iter= 19 NonCon=     0 RMS=3.97D-11 Max=5.69D-10 NDo=     1
 Linear equations converged to 1.000D-10 1.000D-09 after    19 iterations.
 End of Minotr F.D. properties file   721 does not exist.
 End of Minotr F.D. properties file   722 does not exist.
 End of Minotr F.D. properties file   788 does not exist.
 Leave Link 1002 at Fri May 23 03:35:12 2025, MaxMem=  3758096384 cpu:               1.4 elap:               0.4
 (Enter /apps/easybuild-2022/easybuild/software/Compiler/NVHPC/22.11-CUDA-11.7.0/Gaussian/g16c01-CUDA-11.7.0/g16/l1102.exe)
 Use density number 2.
 Symmetrizing basis deriv contribution to polar:
 IMax=3 JMax=2 DiffMx= 0.00D+00
 Leave Link 1102 at Fri May 23 03:35:12 2025, MaxMem=  3758096384 cpu:               0.1 elap:               0.0
 (Enter /apps/easybuild-2022/easybuild/software/Compiler/NVHPC/22.11-CUDA-11.7.0/Gaussian/g16c01-CUDA-11.7.0/g16/l1110.exe)
 Leave Link 1110 at Fri May 23 03:35:12 2025, MaxMem=  3758096384 cpu:               0.1 elap:               0.0
 (Enter /apps/easybuild-2022/easybuild/software/Compiler/NVHPC/22.11-CUDA-11.7.0/Gaussian/g16c01-CUDA-11.7.0/g16/l1112.exe)
 Leave Link 1112 at Fri May 23 03:35:12 2025, MaxMem=  3758096384 cpu:               0.1 elap:               0.0
 (Enter /apps/easybuild-2022/easybuild/software/Compiler/NVHPC/22.11-CUDA-11.7.0/Gaussian/g16c01-CUDA-11.7.0/g16/l701.exe)
 ... and contract with generalized density number  2.
 Compute integral first derivatives.
 Leave Link  701 at Fri May 23 03:35:12 2025, MaxMem=  3758096384 cpu:               0.4 elap:               0.1
 (Enter /apps/easybuild-2022/easybuild/software/Compiler/NVHPC/22.11-CUDA-11.7.0/Gaussian/g16c01-CUDA-11.7.0/g16/l702.exe)
 L702 exits ... SP integral derivatives will be done elsewhere.
 Leave Link  702 at Fri May 23 03:35:12 2025, MaxMem=  3758096384 cpu:               0.0 elap:               0.0
 (Enter /apps/easybuild-2022/easybuild/software/Compiler/NVHPC/22.11-CUDA-11.7.0/Gaussian/g16c01-CUDA-11.7.0/g16/l703.exe)
 Integral derivatives from FoFJK, PRISM(SPDF).
 Compute integral first derivatives, UseDBF=F ICtDFT=           0.
 Calling FoFJK, ICntrl=  10002127 FMM=F ISym2X=0 I1Cent= 0 IOpClX= 0 NMat=1 NMatS=1 NMatT=0.
 FoFJK:  IHMeth= 1 ICntrl=10002127 DoSepK=F KAlg= 0 I1Cent=           0 FoldK=F
 IRaf=         0 NMat=       1 IRICut=       1 DoRegI=T DoRafI=F ISym2E= 0 IDoP0=0 IntGTp=1.
 FoFCou: FMM=F IPFlag=           0 FMFlag=      100000 FMFlg1=         800
         NFxFlg=           0 DoJE=F BraDBF=F KetDBF=F FulRan=T
         wScrn=  0.000000 ICntrl=  10002127 IOpCl=  0 I1Cent=           0 NGrid=           0
         NMat0=    1 NMatS0=      1 NMatT0=    0 NMatD0=    1 NMtDS0=    0 NMtDT0=    0
 Symmetry not used in FoFCou.
 Leave Link  703 at Fri May 23 03:35:13 2025, MaxMem=  3758096384 cpu:               1.0 elap:               0.2
 (Enter /apps/easybuild-2022/easybuild/software/Compiler/NVHPC/22.11-CUDA-11.7.0/Gaussian/g16c01-CUDA-11.7.0/g16/l716.exe)
 Dipole        =-5.20655484D-01 1.05578553D-01 5.81495643D-01
 Polarizability= 0.00000000D+00 0.00000000D+00 0.00000000D+00
                 0.00000000D+00 0.00000000D+00 0.00000000D+00
 -------------------------------------------------------------------
 Center     Atomic                   Forces (Hartrees/Bohr)
 Number     Number              X              Y              Z
 -------------------------------------------------------------------
      1        6           0.000019696   -0.000659905   -0.000068199
      2        6           0.001079898   -0.000453944    0.000745178
      3        9           0.001262429   -0.000584184    0.000529674
      4        9           0.000265234   -0.000540377    0.001180655
      5       16           0.007725257    0.022006568   -0.002404293
      6        8          -0.003280214   -0.020865354    0.008934863
      7        8          -0.001211352    0.000912121    0.008036968
      8        8          -0.006235408    0.002610518   -0.020490507
      9        9          -0.000429818   -0.000111888    0.000783891
     10        9           0.000079020   -0.000383481   -0.000169332
     11        9          -0.000394551    0.000151877    0.000563927
     12        1           0.001119809   -0.002081950    0.002357173
 -------------------------------------------------------------------
 Cartesian Forces:  Max     0.022006568 RMS     0.006722944
 Leave Link  716 at Fri May 23 03:35:13 2025, MaxMem=  3758096384 cpu:               0.0 elap:               0.0
 (Enter /apps/easybuild-2022/easybuild/software/Compiler/NVHPC/22.11-CUDA-11.7.0/Gaussian/g16c01-CUDA-11.7.0/g16/l123.exe)
 IRC-IRC-IRC-IRC-IRC-IRC-IRC-IRC-IRC-IRC-IRC-IRC-IRC-IRC-IRC-IRC-IRC-IRC
 Pt100 Step number   1 out of a maximum of  20
 Using modified Bulirsch-Stoer corrector integration.
   Using distance weighted interpolants to fit PES.
 PreDWI: IReCr0= 2 IReCr1= 1 IReCr2= 1 IReCr3= 1
 Modified Bulirsch-Stoer Extrapolation Cycles:
    EPS =    0.000010000000000
    Cycle     1 NS=    48
      PEZero:  N= 2 I= 1 D=  1.09D-04 Err=  8.62D-07
    Cycle     2 NS=    64 Truncation Error =  0.000000862
 BS completed in    2 cycles and     112 integration steps.
 Maximum DWI energy   std dev =  0.000000001 at pt    47
 Maximum DWI gradient std dev =  0.000153013 at pt    29
 SUMMARY OF CORRECTOR INTEGRATION:
   Predictor End Point Energy = -1196.242502
   Old End Point Energy       = -1196.242502
   Corrected End Point Energy = -1196.242502
   Predictor End-Start Dist.  =     0.020910
   Old End-Start Dist.        =     0.020910
   New End-Start Dist.        =     0.020910
   New End-Old End Dist.      =     0.000004
 CORRECTOR INTEGRATION CONVERGENCE:
   Recorrection delta-x convergence threshold:    0.010000
   Delta-x Convergence Met
 Point Number: 100          Path Number:   1
                    CURRENT STRUCTURE
                Cartesian Coordinates (Ang):                
 ---------------------------------------------------------------------
 Center     Atomic                     Coordinates (Angstroms)
 Number     Number                        X           Y           Z
 ---------------------------------------------------------------------
      1          6                   -1.200197    0.029075    0.920224
      2          6                   -0.621733   -0.169015   -0.483038
      3          9                   -0.923658   -1.425929   -0.977824
      4          9                   -1.069272    0.825876   -1.346841
      5         16                    1.405617    0.013717   -0.598538
      6          8                    2.054651   -0.102708    1.079790
      7          8                    1.902189   -1.070185   -1.647530
      8          8                    1.734494    1.593201   -0.682249
      9          9                   -0.782337   -1.006916    1.743733
     10          9                   -0.767919    1.243155    1.443502
     11          9                   -2.590887    0.031262    0.858775
     12          1                    2.409028    0.829398    1.171761
 ---------------------------------------------------------------------
   CHANGE IN THE REACTION COORDINATE =    0.02091
   NET REACTION COORDINATE UP TO THIS POINT =    2.09096
  # OF POINTS ALONG THE PATH = 100
  # OF STEPS =   1

 Maximum number of steps reached.
 Calculation of FORWARD path complete.
 Reaction path calculation complete.
 
 Energies reported relative to the TS energy of       -1196.200896
 --------------------------------------------------------------------------
    Summary of reaction path following
 --------------------------------------------------------------------------
                        Energy    RxCoord
   1                    0.00000   0.00000
   2                   -0.00002   0.02091
   3                   -0.00009   0.04182
   4                   -0.00021   0.06273
   5                   -0.00038   0.08364
   6                   -0.00059   0.10455
   7                   -0.00084   0.12546
   8                   -0.00114   0.14637
   9                   -0.00149   0.16728
  10                   -0.00187   0.18819
  11                   -0.00230   0.20910
  12                   -0.00277   0.23001
  13                   -0.00327   0.25092
  14                   -0.00381   0.27183
  15                   -0.00438   0.29274
  16                   -0.00499   0.31364
  17                   -0.00562   0.33455
  18                   -0.00628   0.35546
  19                   -0.00696   0.37637
  20                   -0.00767   0.39728
  21                   -0.00839   0.41819
  22                   -0.00912   0.43910
  23                   -0.00986   0.46001
  24                   -0.01062   0.48092
  25                   -0.01137   0.50183
  26                   -0.01213   0.52274
  27                   -0.01288   0.54365
  28                   -0.01363   0.56456
  29                   -0.01437   0.58547
  30                   -0.01510   0.60638
  31                   -0.01582   0.62729
  32                   -0.01652   0.64820
  33                   -0.01720   0.66911
  34                   -0.01787   0.69002
  35                   -0.01851   0.71092
  36                   -0.01914   0.73183
  37                   -0.01975   0.75274
  38                   -0.02034   0.77365
  39                   -0.02092   0.79456
  40                   -0.02147   0.81546
  41                   -0.02202   0.83637
  42                   -0.02254   0.85728
  43                   -0.02306   0.87819
  44                   -0.02356   0.89910
  45                   -0.02405   0.92001
  46                   -0.02453   0.94091
  47                   -0.02499   0.96182
  48                   -0.02545   0.98273
  49                   -0.02590   1.00364
  50                   -0.02634   1.02455
  51                   -0.02677   1.04546
  52                   -0.02719   1.06637
  53                   -0.02761   1.08728
  54                   -0.02801   1.10819
  55                   -0.02841   1.12910
  56                   -0.02881   1.15001
  57                   -0.02919   1.17092
  58                   -0.02957   1.19183
  59                   -0.02995   1.21274
  60                   -0.03032   1.23365
  61                   -0.03068   1.25456
  62                   -0.03104   1.27547
  63                   -0.03139   1.29638
  64                   -0.03174   1.31729
  65                   -0.03208   1.33820
  66                   -0.03241   1.35911
  67                   -0.03274   1.38002
  68                   -0.03307   1.40093
  69                   -0.03339   1.42184
  70                   -0.03371   1.44275
  71                   -0.03402   1.46366
  72                   -0.03433   1.48457
  73                   -0.03464   1.50548
  74                   -0.03493   1.52639
  75                   -0.03523   1.54730
  76                   -0.03552   1.56821
  77                   -0.03581   1.58912
  78                   -0.03609   1.61003
  79                   -0.03637   1.63094
  80                   -0.03664   1.65185
  81                   -0.03691   1.67276
  82                   -0.03718   1.69367
  83                   -0.03745   1.71458
  84                   -0.03770   1.73549
  85                   -0.03796   1.75640
  86                   -0.03821   1.77731
  87                   -0.03846   1.79822
  88                   -0.03871   1.81913
  89                   -0.03895   1.84004
  90                   -0.03919   1.86095
  91                   -0.03942   1.88186
  92                   -0.03966   1.90277
  93                   -0.03988   1.92368
  94                   -0.04011   1.94459
  95                   -0.04033   1.96550
  96                   -0.04055   1.98641
  97                   -0.04077   2.00732
  98                   -0.04098   2.02823
  99                   -0.04119   2.04914
 100                   -0.04140   2.07005
 101                   -0.04161   2.09096
 --------------------------------------------------------------------------
 
 Total number of points:                  100
 Total number of gradient calculations:   100
 Total number of Hessian calculations:      0
 IRC-IRC-IRC-IRC-IRC-IRC-IRC-IRC-IRC-IRC-IRC-IRC-IRC-IRC-IRC-IRC-IRC-IRC
 Leave Link  123 at Fri May 23 03:35:13 2025, MaxMem=  3758096384 cpu:               0.1 elap:               0.0
 (Enter /apps/easybuild-2022/easybuild/software/Compiler/NVHPC/22.11-CUDA-11.7.0/Gaussian/g16c01-CUDA-11.7.0/g16/l202.exe)
                          Input orientation:                          
 ---------------------------------------------------------------------
 Center     Atomic      Atomic             Coordinates (Angstroms)
 Number     Number       Type             X           Y           Z
 ---------------------------------------------------------------------
      1          6           0       -1.200197    0.029075    0.920224
      2          6           0       -0.621733   -0.169015   -0.483038
      3          9           0       -0.923658   -1.425929   -0.977824
      4          9           0       -1.069272    0.825876   -1.346841
      5         16           0        1.405617    0.013717   -0.598538
      6          8           0        2.054651   -0.102708    1.079790
      7          8           0        1.902189   -1.070185   -1.647530
      8          8           0        1.734494    1.593201   -0.682249
      9          9           0       -0.782337   -1.006916    1.743733
     10          9           0       -0.767919    1.243155    1.443502
     11          9           0       -2.590887    0.031262    0.858775
     12          1           0        2.409028    0.829400    1.171762
 ---------------------------------------------------------------------
                    Distance matrix (angstroms):
                    1          2          3          4          5
     1  C    0.000000
     2  C    1.530688   0.000000
     3  F    2.407508   1.384126   0.000000
     4  F    2.406578   1.391493   2.286482   0.000000
     5  S    3.016147   2.038843   2.764409   2.710099   0.000000
     6  O    3.261421   3.099978   3.854220   4.063213   1.803215
     7  O    4.174511   2.922043   2.925829   3.537661   1.588022
     8  O    3.691453   2.949050   4.033395   2.981874   1.615530
     9  F    1.387822   2.384613   2.757247   3.604595   3.363788
    10  F    1.390926   2.393147   3.607088   2.837420   3.225787
    11  F    1.392049   2.391263   2.876830   2.794900   4.253953
    12  H    3.705442   3.594539   4.562239   4.294409   2.192290
                    6          7          8          9         10
     6  O    0.000000
     7  O    2.897850   0.000000
     8  O    2.466453   2.837871   0.000000
     9  F    3.050723   4.325662   4.356654   0.000000
    10  F    3.148100   4.694199   3.302033   2.270059   0.000000
    11  F    4.652722   5.261415   4.850085   2.265352   2.265790
    12  H    1.001433   3.437109   2.115596   3.726127   3.215281
                   11         12
    11  F    0.000000
    12  H    5.072883   0.000000
 Symmetry turned off by external request.
 Stoichiometry    C2HF5O3S
 Rotational constants (GHZ):           1.3722506           0.7709612           0.7008988
 Leave Link  202 at Fri May 23 03:35:13 2025, MaxMem=  3758096384 cpu:               0.1 elap:               0.1
 (Enter /apps/easybuild-2022/easybuild/software/Compiler/NVHPC/22.11-CUDA-11.7.0/Gaussian/g16c01-CUDA-11.7.0/g16/l9999.exe)

 This type of calculation cannot be archived.


 IT IS A CAPITAL MISTAKE TO THEORIZE BEFORE ONE HAS
 DATA.  INSENSIBLY ONE BEGINS TO TWIST FACTS TO SUIT
 THEORIES RATHER THAN THEORIES TO SUIT FACTS.

                                         -- SHERLOCK HOLMES
 Job cpu time:       0 days  0 hours 51 minutes 34.6 seconds.
 Elapsed time:       0 days  0 hours  9 minutes 36.1 seconds.
 File lengths (MBytes):  RWF=     10 Int=      0 D2E=      0 Chk=      4 Scr=      1
 Normal termination of Gaussian 16 at Fri May 23 03:35:13 2025.
done
