 Entering Gaussian System, Link 0=g16
 Initial command:
 /apps/easybuild-2022/easybuild/software/Compiler/NVHPC/22.11-CUDA-11.7.0/Gaussian/g16c01-CUDA-11.7.0/g16/l1.exe "/tmp/Gau-113414.inp" -scrdir="/tmp/"
 Entering Link 1 = /apps/easybuild-2022/easybuild/software/Compiler/NVHPC/22.11-CUDA-11.7.0/Gaussian/g16c01-CUDA-11.7.0/g16/l1.exe PID=    113425.
  
 Copyright (c) 1988-2019, Gaussian, Inc.  All Rights Reserved.
  
 This is part of the Gaussian(R) 16 program.  It is based on
 the Gaussian(R) 09 system (copyright 2009, Gaussian, Inc.),
 the Gaussian(R) 03 system (copyright 2003, Gaussian, Inc.),
 the Gaussian(R) 98 system (copyright 1998, Gaussian, Inc.),
 the Gaussian(R) 94 system (copyright 1995, Gaussian, Inc.),
 the Gaussian 92(TM) system (copyright 1992, Gaussian, Inc.),
 the Gaussian 90(TM) system (copyright 1990, Gaussian, Inc.),
 the Gaussian 88(TM) system (copyright 1988, Gaussian, Inc.),
 the Gaussian 86(TM) system (copyright 1986, Carnegie Mellon
 University), and the Gaussian 82(TM) system (copyright 1983,
 Carnegie Mellon University). Gaussian is a federally registered
 trademark of Gaussian, Inc.
  
 This software contains proprietary and confidential information,
 including trade secrets, belonging to Gaussian, Inc.
  
 This software is provided under written license and may be
 used, copied, transmitted, or stored only in accord with that
 written license.
  
 The following legend is applicable only to US Government
 contracts under FAR:
  
                    RESTRICTED RIGHTS LEGEND
  
 Use, reproduction and disclosure by the US Government is
 subject to restrictions as set forth in subparagraphs (a)
 and (c) of the Commercial Computer Software - Restricted
 Rights clause in FAR 52.227-19.
  
 Gaussian, Inc.
 340 Quinnipiac St., Bldg. 40, Wallingford CT 06492
  
  
 ---------------------------------------------------------------
 Warning -- This program may not be used in any manner that
 competes with the business of Gaussian, Inc. or will provide
 assistance to any competitor of Gaussian, Inc.  The licensee
 of this program is prohibited from giving any competitor of
 Gaussian, Inc. access to this program.  By using this program,
 the user acknowledges that Gaussian, Inc. is engaged in the
 business of creating and licensing software in the field of
 computational chemistry and represents and warrants to the
 licensee that it is not a competitor of Gaussian, Inc. and that
 it will not use this program in any manner prohibited above.
 ---------------------------------------------------------------
  

 Cite this work as:
 Gaussian 16, Revision C.01,
 M. J. Frisch, G. W. Trucks, H. B. Schlegel, G. E. Scuseria, 
 M. A. Robb, J. R. Cheeseman, G. Scalmani, V. Barone, 
 G. A. Petersson, H. Nakatsuji, X. Li, M. Caricato, A. V. Marenich, 
 J. Bloino, B. G. Janesko, R. Gomperts, B. Mennucci, H. P. Hratchian, 
 J. V. Ortiz, A. F. Izmaylov, J. L. Sonnenberg, D. Williams-Young, 
 F. Ding, F. Lipparini, F. Egidi, J. Goings, B. Peng, A. Petrone, 
 T. Henderson, D. Ranasinghe, V. G. Zakrzewski, J. Gao, N. Rega, 
 G. Zheng, W. Liang, M. Hada, M. Ehara, K. Toyota, R. Fukuda, 
 J. Hasegawa, M. Ishida, T. Nakajima, Y. Honda, O. Kitao, H. Nakai, 
 T. Vreven, K. Throssell, J. A. Montgomery, Jr., J. E. Peralta, 
 F. Ogliaro, M. J. Bearpark, J. J. Heyd, E. N. Brothers, K. N. Kudin, 
 V. N. Staroverov, T. A. Keith, R. Kobayashi, J. Normand, 
 K. Raghavachari, A. P. Rendell, J. C. Burant, S. S. Iyengar, 
 J. Tomasi, M. Cossi, J. M. Millam, M. Klene, C. Adamo, R. Cammi, 
 J. W. Ochterski, R. L. Martin, K. Morokuma, O. Farkas, 
 J. B. Foresman, and D. J. Fox, Gaussian, Inc., Wallingford CT, 2019.
 
 ******************************************
 Gaussian 16:  ES64L-G16RevC.01  3-Jul-2019
                23-May-2025 
 ******************************************
 %mem=28GB
 %chk=2003846667223680600001_r12_insertion_R_3_2_5_IRC_F
 %nprocshared=8
 Will use up to    8 processors via shared memory.
 ----------------------------------------------------------------------
 #P wb97xd/6-311++G(d,p) Symm(None) scf(xqc) pop(None) geom(AllCheck,No
 KeepConstants) guess(Read) irc(RCFC,forward,MaxPoints=100,StepSize=2)
 ----------------------------------------------------------------------
 1/10=5,18=10,22=1,26=3,29=20007,38=1,39=2,42=100,44=3,172=1/1,23;
 2/12=2,15=3,29=1,40=1/2;
 3/5=4,6=6,7=1111,11=2,14=-4,25=1,30=1,71=2,74=-58,116=-2,140=1/1,2,3;
 4/5=1/1;
 5/5=2,8=3,13=1,38=6/2,8;
 8/6=4,10=90,11=11/1;
 11/6=1,8=1,9=11,15=111,16=1,31=1/1,2,10;
 10/6=1,13=1,31=1/2;
 7/10=1,25=1,30=1/1,2,3,16;
 1/18=10,22=1,26=3,39=2,42=100,44=3/23(2);
 2/15=3,29=1/2;
 99/5=20/99;
 2/15=3,29=1/2;
 3/5=4,6=6,7=1111,11=2,14=-2,25=1,30=1,71=2,74=-58,140=1/1,2,3;
 4/5=5,16=3,69=1/1;
 5/5=2,8=3,13=1,38=5/2,8;
 8/6=4,10=90,11=11/1;
 11/6=1,8=1,9=11,15=111,16=1,31=1/1,2,10;
 10/6=1,13=1,31=1/2;
 7/10=1,25=1,30=1/1,2,3,16;
 1/18=10,22=1,26=3,39=2,42=100,44=3/23(-8);
 2/15=3,29=1/2;
 99/5=20,9=1/99;
 Leave Link    1 at Fri May 23 03:45:26 2025, MaxMem=  3758096384 cpu:               0.0 elap:               0.0
 (Enter /apps/easybuild-2022/easybuild/software/Compiler/NVHPC/22.11-CUDA-11.7.0/Gaussian/g16c01-CUDA-11.7.0/g16/l101.exe)
 Structure from the checkpoint file:  "2003846667223680600001_r12_insertion_R_3_2_5_IRC_F.chk"
 ------------------------------
 Gaussian input prepared by ASE
 ------------------------------
 Charge =  0 Multiplicity = 1
 Redundant internal coordinates found in file.  (old form).
 C,0,-0.9516226975,0.4369734651,1.2825675839
 C,0,0.0641005578,-0.0739093611,0.2244348773
 F,0,0.2491099046,-1.3875550753,0.4576923221
 F,0,-0.4731000268,0.0803168139,-0.9961034105
 S,0,2.3821099982,0.3335726489,-0.1108263427
 O,0,3.0112279715,-0.5609224853,0.8002338281
 O,0,2.4659272261,0.193075033,-1.5251073835
 O,0,2.04977795,1.7106435497,0.4171276348
 F,0,-2.0921179705,-0.2350890353,1.2221245545
 F,0,-0.4285850086,0.2961249722,2.4990650797
 F,0,-1.2022506916,1.7312138595,1.0737927422
 H,0,0.9758447868,1.0735916147,0.4732895141
 Recover connectivity data from disk.
 ITRead=  0  0  0  0  0  0  0  0  0  0  0  0
 MicOpt= -1 -1 -1 -1 -1 -1 -1 -1 -1 -1 -1 -1
 NAtoms=     12 NQM=       12 NQMF=       0 NMMI=      0 NMMIF=      0
                NMic=       0 NMicF=      0.
                    Isotopes and Nuclear Properties:
 (Nuclear quadrupole moments (NQMom) in fm**2, nuclear magnetic moments (NMagM)
  in nuclear magnetons)

  Atom         1           2           3           4           5           6           7           8           9          10
 IAtWgt=          12          12          19          19          32          16          16          16          19          19
 AtmWgt=  12.0000000  12.0000000  18.9984032  18.9984032  31.9720718  15.9949146  15.9949146  15.9949146  18.9984032  18.9984032
 NucSpn=           0           0           1           1           0           0           0           0           1           1
 AtZEff=   3.6000000   3.6000000   6.7500000   6.7500000  13.6000000   5.6000000   5.6000000   5.6000000   6.7500000   6.7500000
 NQMom=    0.0000000   0.0000000   0.0000000   0.0000000   0.0000000   0.0000000   0.0000000   0.0000000   0.0000000   0.0000000
 NMagM=    0.0000000   0.0000000   2.6288670   2.6288670   0.0000000   0.0000000   0.0000000   0.0000000   2.6288670   2.6288670
 AtZNuc=   6.0000000   6.0000000   9.0000000   9.0000000  16.0000000   8.0000000   8.0000000   8.0000000   9.0000000   9.0000000

  Atom        11          12
 IAtWgt=          19           1
 AtmWgt=  18.9984032   1.0078250
 NucSpn=           1           1
 AtZEff=   6.7500000   1.0000000
 NQMom=    0.0000000   0.0000000
 NMagM=    2.6288670   2.7928460
 AtZNuc=   9.0000000   1.0000000
 Leave Link  101 at Fri May 23 03:45:26 2025, MaxMem=  3758096384 cpu:               0.2 elap:               0.2
 (Enter /apps/easybuild-2022/easybuild/software/Compiler/NVHPC/22.11-CUDA-11.7.0/Gaussian/g16c01-CUDA-11.7.0/g16/l123.exe)
 IRC-IRC-IRC-IRC-IRC-IRC-IRC-IRC-IRC-IRC-IRC-IRC-IRC-IRC-IRC-IRC-IRC-IRC
 ------------------------------------------------------------------------
 INPUT DATA FOR L123
 ------------------------------------------------------------------------
 GENERAL PARAMETERS:
 Rxn path following direction = Forward
 Maximum points per path      = 100
 Step size                    =   0.020 bohr
 Integration scheme           = HPC                                 
    Redo corrector integration= Yes                                 
    DWI Weight Power          =  2
    DWI will use Hessian update vectors when possible.
    Max correction cycles     =  20
 Initial Hessian              = ReadFC from chk
 Hessian evaluation           = All updating
 Hessian updating method      = Bofill                              
 ------------------------------------------------------------------------
          ******** Start new reaction path calculation ********
 RCFC Option Requested - Data Read From Chk File:
 "2003846667223680600001_r12_insertion_R_3_2_5_IRC_F.chk"
   Energy From Chk =  -1199.7052878

 Current Structure is TS -> form Hessian eigenvectors.
                            Recovering Hessian eigenvectors from chk file.
 Supplied step size of   0.0200 bohr.
    Integration on MW PES will use step size of   0.0211 sqrt(amu)*bohr.
 Point Number:   0          Path Number:   1
 Calculating another point on the path.
 Point Number  1 in FORWARD path direction.
 Using LQA Reaction Path Following.
 IRC-IRC-IRC-IRC-IRC-IRC-IRC-IRC-IRC-IRC-IRC-IRC-IRC-IRC-IRC-IRC-IRC-IRC
 Leave Link  123 at Fri May 23 03:45:26 2025, MaxMem=  3758096384 cpu:               0.0 elap:               0.0
 (Enter /apps/easybuild-2022/easybuild/software/Compiler/NVHPC/22.11-CUDA-11.7.0/Gaussian/g16c01-CUDA-11.7.0/g16/l202.exe)
                          Input orientation:                          
 ---------------------------------------------------------------------
 Center     Atomic      Atomic             Coordinates (Angstroms)
 Number     Number       Type             X           Y           Z
 ---------------------------------------------------------------------
      1          6           0       -1.511349    0.202929    0.827669
      2          6           0       -0.495866   -0.307664   -0.230307
      3          9           0       -0.310444   -1.621514    0.002765
      4          9           0       -1.032715   -0.153721   -1.451024
      5         16           0        1.822733    0.099878   -0.565685
      6          8           0        2.451483   -0.795024    0.345285
      7          8           0        1.906187   -0.041053   -1.979984
      8          8           0        1.490487    1.476408   -0.037938
      9          9           0       -2.651768   -0.469127    0.767217
     10          9           0       -0.988209    0.062090    2.044145
     11          9           0       -1.761879    1.497172    0.618878
     12          1           0        0.410553    0.830785    0.016863
 ---------------------------------------------------------------------
                    Distance matrix (angstroms):
                    1          2          3          4          5
     1  C    0.000000
     2  C    1.552812   0.000000
     3  F    2.334788   1.347184   0.000000
     4  F    2.355575   1.342406   2.188513   0.000000
     5  S    3.614991   2.377913   2.799423   3.000287   0.000000
     6  O    4.114929   3.042317   2.903213   3.972106   1.423391
     7  O    4.429673   2.983674   3.367878   2.988250   1.423751
     8  O    3.373728   2.676848   3.583591   3.319741   1.511205
     9  F    1.325093   2.380974   2.719225   2.764310   4.703356
    10  F    1.331662   2.356321   2.731505   3.502108   3.835888
    11  F    1.334699   2.362485   3.494632   2.746201   4.025551
    12  H    2.178375   1.476061   2.556131   2.281878   1.693470
                    6          7          8          9         10
     6  O    0.000000
     7  O    2.504536   0.000000
     8  O    2.495952   2.499408   0.000000
     9  F    5.131024   5.339038   4.646683   0.000000
    10  F    3.930935   4.958002   3.532605   2.163369   0.000000
    11  F    4.804313   4.751308   3.318090   2.163386   2.165505
    12  H    2.629926   2.642806   1.259400   3.410369   2.580174
                   11         12
    11  F    0.000000
    12  H    2.350734   0.000000
 Symmetry turned off by external request.
 Stoichiometry    C2HF5O3S
 Rotational constants (GHZ):           1.6851084           0.6610091           0.6413918
 Leave Link  202 at Fri May 23 03:45:26 2025, MaxMem=  3758096384 cpu:               0.0 elap:               0.0
 (Enter /apps/easybuild-2022/easybuild/software/Compiler/NVHPC/22.11-CUDA-11.7.0/Gaussian/g16c01-CUDA-11.7.0/g16/l301.exe)
 Standard basis: 6-311++G(d,p) (5D, 7F)
 Ernie: Thresh=  0.10000D-02 Tol=  0.10000D-05 Strict=F.
   257 basis functions,   419 primitive gaussians,   268 cartesian basis functions
    49 alpha electrons       49 beta electrons
       nuclear repulsion energy       886.9617212224 Hartrees.
 IExCor= 4639 DFT=T Ex+Corr=wB97XD ExCW=0 ScaHFX=  1.000000
 ScaDFX=  1.000000  1.000000  1.000000  1.000000 ScalE2=  1.000000  1.000000
 IRadAn=      5 IRanWt=     -1 IRanGd=            0 ICorTp=0 IEmpDi=121
 HFx  wShort=  0.000000 wLong=  0.200000 cFull=  0.222036 cShort=  0.000000 cLong=  0.777964
 DFx  wShort=  0.000000 wLong=  0.200000 cFull=  0.000000 cShort=  0.000000 cLong=  1.000000
 NAtoms=   12 NActive=   12 NUniq=   12 SFac= 1.00D+00 NAtFMM=   60 NAOKFM=F Big=F
 Integral buffers will be    131072 words long.
 Raffenetti 2 integral format.
 Two-electron integral symmetry is turned off.
 R6Disp:  Grimme-D2 Dispersion energy=       -0.0058626336 Hartrees.
 Nuclear repulsion after empirical dispersion term =      886.9558585889 Hartrees.
 Leave Link  301 at Fri May 23 03:45:26 2025, MaxMem=  3758096384 cpu:               0.0 elap:               0.0
 (Enter /apps/easybuild-2022/easybuild/software/Compiler/NVHPC/22.11-CUDA-11.7.0/Gaussian/g16c01-CUDA-11.7.0/g16/l302.exe)
 NPDir=0 NMtPBC=     1 NCelOv=     1 NCel=       1 NClECP=     1 NCelD=      1
         NCelK=      1 NCelE2=     1 NClLst=     1 CellRange=     0.0.
 One-electron integrals computed using PRISM.
 NBasis=   257 RedAO= T EigKep=  7.83D-05  NBF=   257
 NBsUse=   257 1.00D-06 EigRej= -1.00D+00 NBFU=   257
 Precomputing XC quadrature grid using
 IXCGrd= 4 IRadAn=           5 IRanWt=          -1 IRanGd=           0 AccXCQ= 0.00D+00.
 Generated NRdTot=       0 NPtTot=           0 NUsed=           0 NTot=          32
 NSgBfM=   268   268   268   268   268 MxSgAt=    12 MxSgA2=    12.
 Leave Link  302 at Fri May 23 03:45:26 2025, MaxMem=  3758096384 cpu:               0.5 elap:               0.1
 (Enter /apps/easybuild-2022/easybuild/software/Compiler/NVHPC/22.11-CUDA-11.7.0/Gaussian/g16c01-CUDA-11.7.0/g16/l303.exe)
 DipDrv:  MaxL=1.
 Leave Link  303 at Fri May 23 03:45:26 2025, MaxMem=  3758096384 cpu:               0.1 elap:               0.0
 (Enter /apps/easybuild-2022/easybuild/software/Compiler/NVHPC/22.11-CUDA-11.7.0/Gaussian/g16c01-CUDA-11.7.0/g16/l401.exe)
 Initial guess from the checkpoint file:  "2003846667223680600001_r12_insertion_R_3_2_5_IRC_F.chk"
 B after Tr=    -1.057597   -0.442346   -0.859677
         Rot=    1.000000    0.000002   -0.000000   -0.000001 Ang=   0.00 deg.
 Guess basis will be translated and rotated to current coordinates.
 JPrj=2 DoOrth=T DoCkMO=T.
 Leave Link  401 at Fri May 23 03:45:26 2025, MaxMem=  3758096384 cpu:               0.2 elap:               0.1
 (Enter /apps/easybuild-2022/easybuild/software/Compiler/NVHPC/22.11-CUDA-11.7.0/Gaussian/g16c01-CUDA-11.7.0/g16/l502.exe)
 Keep R1 ints in memory in canonical form, NReq=1117474609.
 FoFCou: FMM=F IPFlag=           0 FMFlag=           0 FMFlg1=           0
         NFxFlg=           0 DoJE=F BraDBF=F KetDBF=F FulRan=T
         wScrn=  0.000000 ICntrl=       600 IOpCl=  0 I1Cent=           0 NGrid=           0
         NMat0=    1 NMatS0=  33153 NMatT0=    0 NMatD0=    1 NMtDS0=    0 NMtDT0=    0
 Symmetry not used in FoFCou.
 Two-electron integral symmetry not used.
 Closed shell SCF:
 Using DIIS extrapolation, IDIIS=  1040.
 NGot=  3758096384 LenX=  2658793876 LenY=  2658721611
 Requested convergence on RMS density matrix=1.00D-08 within  32 cycles.
 Requested convergence on MAX density matrix=1.00D-06.
 Requested convergence on             energy=1.00D-06.
 No special actions if energy rises.

 Cycle   1  Pass 1  IDiag  1:
 E= -1199.70525590325    
 DIIS: error= 2.75D-04 at cycle   1 NSaved=   1.
 NSaved= 1 IEnMin= 1 EnMin= -1199.70525590325     IErMin= 1 ErrMin= 2.75D-04
 ErrMax= 2.75D-04  0.00D+00 EMaxC= 1.00D-01 BMatC= 3.66D-05 BMatP= 3.66D-05
 IDIUse=3 WtCom= 9.97D-01 WtEn= 2.75D-03
 Coeff-Com:  0.100D+01
 Coeff-En:   0.100D+01
 Coeff:      0.100D+01
 Gap=     0.324 Goal=   None    Shift=    0.000
 RMSDP=6.16D-05 MaxDP=1.50D-03              OVMax= 4.31D-03

 Cycle   2  Pass 1  IDiag  1:
 E= -1199.70531022832     Delta-E=       -0.000054325070 Rises=F Damp=F
 DIIS: error= 1.33D-04 at cycle   2 NSaved=   2.
 NSaved= 2 IEnMin= 2 EnMin= -1199.70531022832     IErMin= 2 ErrMin= 1.33D-04
 ErrMax= 1.33D-04  0.00D+00 EMaxC= 1.00D-01 BMatC= 6.04D-06 BMatP= 3.66D-05
 IDIUse=3 WtCom= 9.99D-01 WtEn= 1.33D-03
 Coeff-Com:  0.954D-01 0.905D+00
 Coeff-En:   0.000D+00 0.100D+01
 Coeff:      0.952D-01 0.905D+00
 Gap=     0.324 Goal=   None    Shift=    0.000
 RMSDP=2.62D-05 MaxDP=9.90D-04 DE=-5.43D-05 OVMax= 1.78D-03

 Cycle   3  Pass 1  IDiag  1:
 E= -1199.70531485919     Delta-E=       -0.000004630869 Rises=F Damp=F
 DIIS: error= 1.56D-04 at cycle   3 NSaved=   3.
 NSaved= 3 IEnMin= 3 EnMin= -1199.70531485919     IErMin= 2 ErrMin= 1.33D-04
 ErrMax= 1.56D-04  0.00D+00 EMaxC= 1.00D-01 BMatC= 6.20D-06 BMatP= 6.04D-06
 IDIUse=3 WtCom= 9.98D-01 WtEn= 1.56D-03
 Coeff-Com: -0.994D-01 0.541D+00 0.559D+00
 Coeff-En:   0.000D+00 0.148D+00 0.852D+00
 Coeff:     -0.993D-01 0.540D+00 0.559D+00
 Gap=     0.324 Goal=   None    Shift=    0.000
 RMSDP=1.99D-05 MaxDP=8.16D-04 DE=-4.63D-06 OVMax= 1.05D-03

 Cycle   4  Pass 1  IDiag  1:
 E= -1199.70532042548     Delta-E=       -0.000005566294 Rises=F Damp=F
 DIIS: error= 2.94D-05 at cycle   4 NSaved=   4.
 NSaved= 4 IEnMin= 4 EnMin= -1199.70532042548     IErMin= 4 ErrMin= 2.94D-05
 ErrMax= 2.94D-05  0.00D+00 EMaxC= 1.00D-01 BMatC= 2.13D-07 BMatP= 6.04D-06
 IDIUse=1 WtCom= 1.00D+00 WtEn= 0.00D+00
 Coeff-Com: -0.108D-01-0.590D-01 0.803D-01 0.990D+00
 Coeff:     -0.108D-01-0.590D-01 0.803D-01 0.990D+00
 Gap=     0.324 Goal=   None    Shift=    0.000
 RMSDP=7.20D-06 MaxDP=3.20D-04 DE=-5.57D-06 OVMax= 8.04D-04

 Cycle   5  Pass 1  IDiag  1:
 E= -1199.70532107708     Delta-E=       -0.000000651596 Rises=F Damp=F
 DIIS: error= 1.67D-05 at cycle   5 NSaved=   5.
 NSaved= 5 IEnMin= 5 EnMin= -1199.70532107708     IErMin= 5 ErrMin= 1.67D-05
 ErrMax= 1.67D-05  0.00D+00 EMaxC= 1.00D-01 BMatC= 1.17D-07 BMatP= 2.13D-07
 IDIUse=1 WtCom= 1.00D+00 WtEn= 0.00D+00
 Coeff-Com:  0.159D-01-0.169D+00-0.778D-01 0.584D+00 0.646D+00
 Coeff:      0.159D-01-0.169D+00-0.778D-01 0.584D+00 0.646D+00
 Gap=     0.324 Goal=   None    Shift=    0.000
 RMSDP=3.47D-06 MaxDP=1.14D-04 DE=-6.52D-07 OVMax= 3.23D-04

 Cycle   6  Pass 1  IDiag  1:
 E= -1199.70532127298     Delta-E=       -0.000000195902 Rises=F Damp=F
 DIIS: error= 7.16D-06 at cycle   6 NSaved=   6.
 NSaved= 6 IEnMin= 6 EnMin= -1199.70532127298     IErMin= 6 ErrMin= 7.16D-06
 ErrMax= 7.16D-06  0.00D+00 EMaxC= 1.00D-01 BMatC= 9.07D-09 BMatP= 1.17D-07
 IDIUse=1 WtCom= 1.00D+00 WtEn= 0.00D+00
 Coeff-Com:  0.102D-01-0.723D-01-0.538D-01 0.100D+00 0.215D+00 0.800D+00
 Coeff:      0.102D-01-0.723D-01-0.538D-01 0.100D+00 0.215D+00 0.800D+00
 Gap=     0.324 Goal=   None    Shift=    0.000
 RMSDP=1.55D-06 MaxDP=5.83D-05 DE=-1.96D-07 OVMax= 1.67D-04

 Cycle   7  Pass 1  IDiag  1:
 E= -1199.70532129901     Delta-E=       -0.000000026036 Rises=F Damp=F
 DIIS: error= 2.71D-06 at cycle   7 NSaved=   7.
 NSaved= 7 IEnMin= 7 EnMin= -1199.70532129901     IErMin= 7 ErrMin= 2.71D-06
 ErrMax= 2.71D-06  0.00D+00 EMaxC= 1.00D-01 BMatC= 1.84D-09 BMatP= 9.07D-09
 IDIUse=1 WtCom= 1.00D+00 WtEn= 0.00D+00
 Coeff-Com:  0.838D-03 0.420D-02-0.491D-02-0.582D-01-0.611D-01 0.304D+00
 Coeff-Com:  0.815D+00
 Coeff:      0.838D-03 0.420D-02-0.491D-02-0.582D-01-0.611D-01 0.304D+00
 Coeff:      0.815D+00
 Gap=     0.324 Goal=   None    Shift=    0.000
 RMSDP=6.45D-07 MaxDP=2.86D-05 DE=-2.60D-08 OVMax= 6.35D-05

 Cycle   8  Pass 1  IDiag  1:
 E= -1199.70532130254     Delta-E=       -0.000000003527 Rises=F Damp=F
 DIIS: error= 8.67D-07 at cycle   8 NSaved=   8.
 NSaved= 8 IEnMin= 8 EnMin= -1199.70532130254     IErMin= 8 ErrMin= 8.67D-07
 ErrMax= 8.67D-07  0.00D+00 EMaxC= 1.00D-01 BMatC= 2.46D-10 BMatP= 1.84D-09
 IDIUse=1 WtCom= 1.00D+00 WtEn= 0.00D+00
 Coeff-Com: -0.919D-03 0.102D-01 0.522D-02-0.334D-01-0.518D-01 0.179D-01
 Coeff-Com:  0.321D+00 0.732D+00
 Coeff:     -0.919D-03 0.102D-01 0.522D-02-0.334D-01-0.518D-01 0.179D-01
 Coeff:      0.321D+00 0.732D+00
 Gap=     0.324 Goal=   None    Shift=    0.000
 RMSDP=1.68D-07 MaxDP=5.30D-06 DE=-3.53D-09 OVMax= 1.38D-05

 Cycle   9  Pass 1  IDiag  1:
 E= -1199.70532130280     Delta-E=       -0.000000000255 Rises=F Damp=F
 DIIS: error= 6.00D-07 at cycle   9 NSaved=   9.
 NSaved= 9 IEnMin= 9 EnMin= -1199.70532130280     IErMin= 9 ErrMin= 6.00D-07
 ErrMax= 6.00D-07  0.00D+00 EMaxC= 1.00D-01 BMatC= 7.70D-11 BMatP= 2.46D-10
 IDIUse=1 WtCom= 1.00D+00 WtEn= 0.00D+00
 Coeff-Com: -0.617D-03 0.509D-02 0.385D-02-0.107D-01-0.218D-01-0.356D-01
 Coeff-Com:  0.758D-01 0.429D+00 0.555D+00
 Coeff:     -0.617D-03 0.509D-02 0.385D-02-0.107D-01-0.218D-01-0.356D-01
 Coeff:      0.758D-01 0.429D+00 0.555D+00
 Gap=     0.324 Goal=   None    Shift=    0.000
 RMSDP=6.60D-08 MaxDP=2.90D-06 DE=-2.55D-10 OVMax= 3.41D-06

 Cycle  10  Pass 1  IDiag  1:
 E= -1199.70532130283     Delta-E=       -0.000000000033 Rises=F Damp=F
 DIIS: error= 1.47D-07 at cycle  10 NSaved=  10.
 NSaved=10 IEnMin=10 EnMin= -1199.70532130283     IErMin=10 ErrMin= 1.47D-07
 ErrMax= 1.47D-07  0.00D+00 EMaxC= 1.00D-01 BMatC= 4.95D-12 BMatP= 7.70D-11
 IDIUse=1 WtCom= 1.00D+00 WtEn= 0.00D+00
 Coeff-Com: -0.135D-03 0.741D-03 0.993D-03 0.776D-04-0.255D-02-0.187D-01
 Coeff-Com: -0.841D-02 0.786D-01 0.225D+00 0.724D+00
 Coeff:     -0.135D-03 0.741D-03 0.993D-03 0.776D-04-0.255D-02-0.187D-01
 Coeff:     -0.841D-02 0.786D-01 0.225D+00 0.724D+00
 Gap=     0.324 Goal=   None    Shift=    0.000
 RMSDP=2.37D-08 MaxDP=8.29D-07 DE=-3.32D-11 OVMax= 1.17D-06

 Cycle  11  Pass 1  IDiag  1:
 E= -1199.70532130293     Delta-E=       -0.000000000102 Rises=F Damp=F
 DIIS: error= 5.54D-08 at cycle  11 NSaved=  11.
 NSaved=11 IEnMin=11 EnMin= -1199.70532130293     IErMin=11 ErrMin= 5.54D-08
 ErrMax= 5.54D-08  0.00D+00 EMaxC= 1.00D-01 BMatC= 1.16D-12 BMatP= 4.95D-12
 IDIUse=1 WtCom= 1.00D+00 WtEn= 0.00D+00
 Coeff-Com:  0.307D-04-0.473D-03-0.127D-03 0.188D-02 0.221D-02-0.356D-02
 Coeff-Com: -0.164D-01-0.352D-01 0.180D-01 0.374D+00 0.660D+00
 Coeff:      0.307D-04-0.473D-03-0.127D-03 0.188D-02 0.221D-02-0.356D-02
 Coeff:     -0.164D-01-0.352D-01 0.180D-01 0.374D+00 0.660D+00
 Gap=     0.324 Goal=   None    Shift=    0.000
 RMSDP=8.69D-09 MaxDP=2.99D-07 DE=-1.02D-10 OVMax= 4.58D-07

 SCF Done:  E(RwB97XD) =  -1199.70532130     A.U. after   11 cycles
            NFock= 11  Conv=0.87D-08     -V/T= 2.0020
 KE= 1.197338187226D+03 PE=-4.619837588155D+03 EE= 1.335838221037D+03
 Leave Link  502 at Fri May 23 03:45:37 2025, MaxMem=  3758096384 cpu:              52.2 elap:              10.2
 (Enter /apps/easybuild-2022/easybuild/software/Compiler/NVHPC/22.11-CUDA-11.7.0/Gaussian/g16c01-CUDA-11.7.0/g16/l508.exe)
 QCSCF skips out because SCF is already converged.
 Leave Link  508 at Fri May 23 03:45:37 2025, MaxMem=  3758096384 cpu:               0.0 elap:               0.0
 (Enter /apps/easybuild-2022/easybuild/software/Compiler/NVHPC/22.11-CUDA-11.7.0/Gaussian/g16c01-CUDA-11.7.0/g16/l801.exe)
 DoSCS=F DFT=T ScalE2(SS,OS)=  1.000000  1.000000
 Range of M.O.s used for correlation:     1   257
 NBasis=   257 NAE=    49 NBE=    49 NFC=     0 NFV=     0
 NROrb=    257 NOA=    49 NOB=    49 NVA=   208 NVB=   208

 **** Warning!!: The largest alpha MO coefficient is  0.23852750D+02

 Leave Link  801 at Fri May 23 03:45:37 2025, MaxMem=  3758096384 cpu:               0.0 elap:               0.0
 (Enter /apps/easybuild-2022/easybuild/software/Compiler/NVHPC/22.11-CUDA-11.7.0/Gaussian/g16c01-CUDA-11.7.0/g16/l1101.exe)
 Leave Link 1101 at Fri May 23 03:45:37 2025, MaxMem=  3758096384 cpu:               0.0 elap:               0.0
 (Enter /apps/easybuild-2022/easybuild/software/Compiler/NVHPC/22.11-CUDA-11.7.0/Gaussian/g16c01-CUDA-11.7.0/g16/l1102.exe)
 Symmetrizing basis deriv contribution to polar:
 IMax=3 JMax=2 DiffMx= 0.00D+00
 Leave Link 1102 at Fri May 23 03:45:37 2025, MaxMem=  3758096384 cpu:               0.0 elap:               0.0
 (Enter /apps/easybuild-2022/easybuild/software/Compiler/NVHPC/22.11-CUDA-11.7.0/Gaussian/g16c01-CUDA-11.7.0/g16/l1110.exe)
 Leave Link 1110 at Fri May 23 03:45:37 2025, MaxMem=  3758096384 cpu:               0.0 elap:               0.0
 (Enter /apps/easybuild-2022/easybuild/software/Compiler/NVHPC/22.11-CUDA-11.7.0/Gaussian/g16c01-CUDA-11.7.0/g16/l1002.exe)
 Minotr:  Closed shell wavefunction.
 Leave Link 1002 at Fri May 23 03:45:37 2025, MaxMem=  3758096384 cpu:               0.0 elap:               0.0
 (Enter /apps/easybuild-2022/easybuild/software/Compiler/NVHPC/22.11-CUDA-11.7.0/Gaussian/g16c01-CUDA-11.7.0/g16/l701.exe)
 ... and contract with generalized density number  0.
 Compute integral first derivatives.
 R6Disp: Adding Grimme-D2 dispersion energy 1st derivatives to the gradient.
 Leave Link  701 at Fri May 23 03:45:37 2025, MaxMem=  3758096384 cpu:               0.3 elap:               0.1
 (Enter /apps/easybuild-2022/easybuild/software/Compiler/NVHPC/22.11-CUDA-11.7.0/Gaussian/g16c01-CUDA-11.7.0/g16/l702.exe)
 L702 exits ... SP integral derivatives will be done elsewhere.
 Leave Link  702 at Fri May 23 03:45:37 2025, MaxMem=  3758096384 cpu:               0.0 elap:               0.0
 (Enter /apps/easybuild-2022/easybuild/software/Compiler/NVHPC/22.11-CUDA-11.7.0/Gaussian/g16c01-CUDA-11.7.0/g16/l703.exe)
 Integral derivatives from FoFJK, PRISM(SPDF).
 Compute integral first derivatives, UseDBF=F ICtDFT=           0.
 Calling FoFJK, ICntrl=      2127 FMM=F ISym2X=0 I1Cent= 0 IOpClX= 0 NMat=1 NMatS=1 NMatT=0.
 FoFJK:  IHMeth= 1 ICntrl=    2127 DoSepK=T KAlg= 0 I1Cent=           0 FoldK=F
 IRaf=         1 NMat=       1 IRICut=       1 DoRegI=T DoRafI=F ISym2E= 0 IDoP0=0 IntGTp=1.
 FoFCou: FMM=F IPFlag=           0 FMFlag=      100000 FMFlg1=         800
         NFxFlg=           0 DoJE=F BraDBF=F KetDBF=F FulRan=T
         wScrn=  0.000000 ICntrl=      2527 IOpCl=  0 I1Cent=           0 NGrid=           0
         NMat0=    1 NMatS0=      1 NMatT0=    0 NMatD0=    1 NMtDS0=    0 NMtDT0=    0
 Symmetry not used in FoFCou.
 Leave Link  703 at Fri May 23 03:45:41 2025, MaxMem=  3758096384 cpu:              32.9 elap:               4.2
 (Enter /apps/easybuild-2022/easybuild/software/Compiler/NVHPC/22.11-CUDA-11.7.0/Gaussian/g16c01-CUDA-11.7.0/g16/l716.exe)
 Dipole        = 1.47438311D-01 2.36252990D-01 7.52744530D-02
 Polarizability= 0.00000000D+00 0.00000000D+00 0.00000000D+00
                 0.00000000D+00 0.00000000D+00 0.00000000D+00
 -------------------------------------------------------------------
 Center     Atomic                   Forces (Hartrees/Bohr)
 Number     Number              X              Y              Z
 -------------------------------------------------------------------
      1        6          -0.000340586   -0.000045308    0.000059391
      2        6          -0.001172731    0.000937685    0.000591161
      3        9           0.000400781    0.000398643   -0.000073058
      4        9           0.000071788   -0.000029999   -0.000026970
      5       16           0.002279904    0.003061206    0.000516374
      6        8          -0.000531942   -0.000324402   -0.000148777
      7        8          -0.000509504   -0.000434240    0.000168920
      8        8           0.001537774   -0.000925570   -0.000679399
      9        9          -0.000123346   -0.000038523    0.000041573
     10        9           0.000017120   -0.000025248   -0.000026524
     11        9          -0.000001420   -0.000060942    0.000005682
     12        1          -0.001627839   -0.002513301   -0.000428371
 -------------------------------------------------------------------
 Cartesian Forces:  Max     0.003061206 RMS     0.000937442
 Leave Link  716 at Fri May 23 03:45:41 2025, MaxMem=  3758096384 cpu:               0.0 elap:               0.0
 (Enter /apps/easybuild-2022/easybuild/software/Compiler/NVHPC/22.11-CUDA-11.7.0/Gaussian/g16c01-CUDA-11.7.0/g16/l123.exe)
 IRC-IRC-IRC-IRC-IRC-IRC-IRC-IRC-IRC-IRC-IRC-IRC-IRC-IRC-IRC-IRC-IRC-IRC
 Pt  1 Step number   1 out of a maximum of  20
 Using modified Bulirsch-Stoer corrector integration.
   Using distance weighted interpolants to fit PES.
 PreDWI: IReCr0= 2 IReCr1= 1 IReCr2= 1 IReCr3= 1
 Modified Bulirsch-Stoer Extrapolation Cycles:
    EPS =    0.000010000000000
    Cycle     1 NS=    48
      PEZero:  N= 2 I= 1 D=  5.49D-05 Err=  1.30D-04
    Cycle     2 NS=    64 Truncation Error =  0.000129966
      PEZero:  N= 3 I= 2 D=  5.49D-05 Err=  8.66D-05
      PEZero:  N= 3 I= 1 D=  1.10D-04 Err=  5.46D-10
    Cycle     3 NS=    96 Truncation Error =  0.000000001
 BS completed in    3 cycles and     208 integration steps.
 Maximum DWI energy   std dev =  0.000000005 at pt    40
 Maximum DWI gradient std dev =  0.001524663 at pt     1
 SUMMARY OF CORRECTOR INTEGRATION:
   Predictor End Point Energy = -1199.705321
   Old End Point Energy       = -1199.705321
   Corrected End Point Energy = -1199.705321
   Predictor End-Start Dist.  =     0.021086
   Old End-Start Dist.        =     0.021086
   New End-Start Dist.        =     0.021086
   New End-Old End Dist.      =     0.000023
 CORRECTOR INTEGRATION CONVERGENCE:
   Recorrection delta-x convergence threshold:    0.010000
   Delta-x Convergence Met
 Point Number:   1          Path Number:   1
                    CURRENT STRUCTURE
                Cartesian Coordinates (Ang):                
 ---------------------------------------------------------------------
 Center     Atomic                     Coordinates (Angstroms)
 Number     Number                        X           Y           Z
 ---------------------------------------------------------------------
      1          6                   -1.511349    0.202929    0.827669
      2          6                   -0.495868   -0.307665   -0.230307
      3          9                   -0.310444   -1.621513    0.002764
      4          9                   -1.032715   -0.153721   -1.451024
      5         16                    1.822733    0.099878   -0.565685
      6          8                    2.451483   -0.795024    0.345286
      7          8                    1.906187   -0.041052   -1.979985
      8          8                    1.490487    1.476408   -0.037938
      9          9                   -2.651768   -0.469127    0.767217
     10          9                   -0.988209    0.062090    2.044145
     11          9                   -1.761878    1.497171    0.618878
     12          1                    0.410549    0.830788    0.016869
 ---------------------------------------------------------------------
   CHANGE IN THE REACTION COORDINATE =    0.02109
   NET REACTION COORDINATE UP TO THIS POINT =    0.02109
  # OF POINTS ALONG THE PATH =   1
  # OF STEPS =   1

 Calculating another point on the path.
 Point Number  2 in FORWARD path direction.
 Using LQA Reaction Path Following.
   LQA: T_Est iteration completed in    3 iterations.
 IRC-IRC-IRC-IRC-IRC-IRC-IRC-IRC-IRC-IRC-IRC-IRC-IRC-IRC-IRC-IRC-IRC-IRC
 Leave Link  123 at Fri May 23 03:45:41 2025, MaxMem=  3758096384 cpu:               0.1 elap:               0.1
 (Enter /apps/easybuild-2022/easybuild/software/Compiler/NVHPC/22.11-CUDA-11.7.0/Gaussian/g16c01-CUDA-11.7.0/g16/l202.exe)
                          Input orientation:                          
 ---------------------------------------------------------------------
 Center     Atomic      Atomic             Coordinates (Angstroms)
 Number     Number       Type             X           Y           Z
 ---------------------------------------------------------------------
      1          6           0       -1.511449    0.202916    0.827687
      2          6           0       -0.496211   -0.307390   -0.230134
      3          9           0       -0.310369   -1.621440    0.002751
      4          9           0       -1.032701   -0.153727   -1.451029
      5         16           0        1.822984    0.100214   -0.565628
      6          8           0        2.451366   -0.795095    0.345253
      7          8           0        1.906076   -0.041148   -1.979948
      8          8           0        1.490825    1.476205   -0.038087
      9          9           0       -2.651791   -0.469134    0.767225
     10          9           0       -0.988206    0.062085    2.044140
     11          9           0       -1.761879    1.497160    0.618879
     12          1           0        0.404879    0.822021    0.015371
 ---------------------------------------------------------------------
                    Distance matrix (angstroms):
                    1          2          3          4          5
     1  C    0.000000
     2  C    1.552451   0.000000
     3  F    2.334820   1.347405   0.000000
     4  F    2.355618   1.342393   2.188474   0.000000
     5  S    3.615289   2.378521   2.799704   3.000559   0.000000
     6  O    4.114933   3.042554   2.902987   3.971990   1.423428
     7  O    4.429656   2.983909   3.367646   2.988116   1.423793
     8  O    3.374090   2.677014   3.583486   3.319829   1.510622
     9  F    1.325023   2.380633   2.719280   2.764342   4.703644
    10  F    1.331682   2.356033   2.731481   3.502108   3.836031
    11  F    1.334685   2.362020   3.494590   2.746205   4.025637
    12  H    2.171511   1.465538   2.546024   2.273554   1.693986
                    6          7          8          9         10
     6  O    0.000000
     7  O    2.504463   0.000000
     8  O    2.495675   2.499123   0.000000
     9  F    5.130938   5.338940   4.646950   0.000000
    10  F    3.930857   4.957903   3.532846   2.163382   0.000000
    11  F    4.804242   4.751229   3.318452   2.163392   2.165497
    12  H    2.629068   2.641960   1.268895   3.402293   2.575673
                   11         12
    11  F    0.000000
    12  H    2.348376   0.000000
 Symmetry turned off by external request.
 Stoichiometry    C2HF5O3S
 Rotational constants (GHZ):           1.6852757           0.6609965           0.6413779
 Leave Link  202 at Fri May 23 03:45:41 2025, MaxMem=  3758096384 cpu:               0.0 elap:               0.0
 (Enter /apps/easybuild-2022/easybuild/software/Compiler/NVHPC/22.11-CUDA-11.7.0/Gaussian/g16c01-CUDA-11.7.0/g16/l301.exe)
 Standard basis: 6-311++G(d,p) (5D, 7F)
 Ernie: Thresh=  0.10000D-02 Tol=  0.10000D-05 Strict=F.
   257 basis functions,   419 primitive gaussians,   268 cartesian basis functions
    49 alpha electrons       49 beta electrons
       nuclear repulsion energy       886.9882152851 Hartrees.
 IExCor= 4639 DFT=T Ex+Corr=wB97XD ExCW=0 ScaHFX=  1.000000
 ScaDFX=  1.000000  1.000000  1.000000  1.000000 ScalE2=  1.000000  1.000000
 IRadAn=      5 IRanWt=     -1 IRanGd=            0 ICorTp=0 IEmpDi=121
 HFx  wShort=  0.000000 wLong=  0.200000 cFull=  0.222036 cShort=  0.000000 cLong=  0.777964
 DFx  wShort=  0.000000 wLong=  0.200000 cFull=  0.000000 cShort=  0.000000 cLong=  1.000000
 NAtoms=   12 NActive=   12 NUniq=   12 SFac= 1.00D+00 NAtFMM=   60 NAOKFM=F Big=F
 Integral buffers will be    131072 words long.
 Raffenetti 2 integral format.
 Two-electron integral symmetry is turned off.
 R6Disp:  Grimme-D2 Dispersion energy=       -0.0058583350 Hartrees.
 Nuclear repulsion after empirical dispersion term =      886.9823569501 Hartrees.
 Leave Link  301 at Fri May 23 03:45:41 2025, MaxMem=  3758096384 cpu:               0.0 elap:               0.0
 (Enter /apps/easybuild-2022/easybuild/software/Compiler/NVHPC/22.11-CUDA-11.7.0/Gaussian/g16c01-CUDA-11.7.0/g16/l302.exe)
 NPDir=0 NMtPBC=     1 NCelOv=     1 NCel=       1 NClECP=     1 NCelD=      1
         NCelK=      1 NCelE2=     1 NClLst=     1 CellRange=     0.0.
 One-electron integrals computed using PRISM.
 NBasis=   257 RedAO= T EigKep=  7.82D-05  NBF=   257
 NBsUse=   257 1.00D-06 EigRej= -1.00D+00 NBFU=   257
 Precomputing XC quadrature grid using
 IXCGrd= 4 IRadAn=           5 IRanWt=          -1 IRanGd=           0 AccXCQ= 0.00D+00.
 Generated NRdTot=       0 NPtTot=           0 NUsed=           0 NTot=          32
 NSgBfM=   268   268   268   268   268 MxSgAt=    12 MxSgA2=    12.
 Leave Link  302 at Fri May 23 03:45:41 2025, MaxMem=  3758096384 cpu:               0.5 elap:               0.1
 (Enter /apps/easybuild-2022/easybuild/software/Compiler/NVHPC/22.11-CUDA-11.7.0/Gaussian/g16c01-CUDA-11.7.0/g16/l303.exe)
 DipDrv:  MaxL=1.
 Leave Link  303 at Fri May 23 03:45:41 2025, MaxMem=  3758096384 cpu:               0.1 elap:               0.0
 (Enter /apps/easybuild-2022/easybuild/software/Compiler/NVHPC/22.11-CUDA-11.7.0/Gaussian/g16c01-CUDA-11.7.0/g16/l401.exe)
 Initial guess from the checkpoint file:  "2003846667223680600001_r12_insertion_R_3_2_5_IRC_F.chk"
 B after Tr=    -0.000055   -0.000084   -0.000014
         Rot=    1.000000    0.000002   -0.000000   -0.000001 Ang=   0.00 deg.
 Guess basis will be translated and rotated to current coordinates.
 JPrj=2 DoOrth=T DoCkMO=T.
 Generating alternative initial guess.
 ExpMin= 3.60D-02 ExpMax= 9.34D+04 ExpMxC= 3.17D+03 IAcc=3 IRadAn=         5 AccDes= 0.00D+00
 Harris functional with IExCor= 4639 and IRadAn=       5 diagonalized for initial guess.
 HarFok:  IExCor= 4639 AccDes= 0.00D+00 IRadAn=         5 IDoV= 1 UseB2=F ITyADJ=14
 ICtDFT=  3500011 ScaDFX=  1.000000  1.000000  1.000000  1.000000
 FoFCou: FMM=F IPFlag=           0 FMFlag=      100000 FMFlg1=           0
         NFxFlg=           0 DoJE=T BraDBF=F KetDBF=T FulRan=T
         wScrn=  0.000000 ICntrl=       500 IOpCl=  0 I1Cent=   200000004 NGrid=           0
         NMat0=    1 NMatS0=      1 NMatT0=    0 NMatD0=    1 NMtDS0=    0 NMtDT0=    0
 Symmetry not used in FoFCou.
 Harris En= -1167.02477606962    
 Leave Link  401 at Fri May 23 03:45:42 2025, MaxMem=  3758096384 cpu:               2.6 elap:               0.4
 (Enter /apps/easybuild-2022/easybuild/software/Compiler/NVHPC/22.11-CUDA-11.7.0/Gaussian/g16c01-CUDA-11.7.0/g16/l502.exe)
 Keep R1 ints in memory in canonical form, NReq=1117474609.
 FoFCou: FMM=F IPFlag=           0 FMFlag=           0 FMFlg1=           0
         NFxFlg=           0 DoJE=F BraDBF=F KetDBF=F FulRan=T
         wScrn=  0.000000 ICntrl=       600 IOpCl=  0 I1Cent=           0 NGrid=           0
         NMat0=    1 NMatS0=  33153 NMatT0=    0 NMatD0=    1 NMtDS0=    0 NMtDT0=    0
 Symmetry not used in FoFCou.
 Two-electron integral symmetry not used.
 Closed shell SCF:
 Using DIIS extrapolation, IDIIS=  1040.
 NGot=  3758096384 LenX=  2658793876 LenY=  2658721611
 Requested convergence on RMS density matrix=1.00D-08 within  32 cycles.
 Requested convergence on MAX density matrix=1.00D-06.
 Requested convergence on             energy=1.00D-06.
 No special actions if energy rises.

 Cycle   1  Pass 1  IDiag  1:
 E= -1199.70535634416    
 DIIS: error= 2.70D-04 at cycle   1 NSaved=   1.
 NSaved= 1 IEnMin= 1 EnMin= -1199.70535634416     IErMin= 1 ErrMin= 2.70D-04
 ErrMax= 2.70D-04  0.00D+00 EMaxC= 1.00D-01 BMatC= 3.64D-05 BMatP= 3.64D-05
 IDIUse=3 WtCom= 9.97D-01 WtEn= 2.70D-03
 Coeff-Com:  0.100D+01
 Coeff-En:   0.100D+01
 Coeff:      0.100D+01
 Gap=     0.689 Goal=   None    Shift=    0.000
 RMSDP=6.16D-05 MaxDP=1.51D-03              OVMax= 4.29D-03

 Cycle   2  Pass 1  IDiag  1:
 E= -1199.70541052078     Delta-E=       -0.000054176619 Rises=F Damp=F
 DIIS: error= 1.34D-04 at cycle   2 NSaved=   2.
 NSaved= 2 IEnMin= 2 EnMin= -1199.70541052078     IErMin= 2 ErrMin= 1.34D-04
 ErrMax= 1.34D-04  0.00D+00 EMaxC= 1.00D-01 BMatC= 6.00D-06 BMatP= 3.64D-05
 IDIUse=3 WtCom= 9.99D-01 WtEn= 1.34D-03
 Coeff-Com:  0.949D-01 0.905D+00
 Coeff-En:   0.000D+00 0.100D+01
 Coeff:      0.948D-01 0.905D+00
 Gap=     0.324 Goal=   None    Shift=    0.000
 RMSDP=2.63D-05 MaxDP=1.00D-03 DE=-5.42D-05 OVMax= 1.78D-03

 Cycle   3  Pass 1  IDiag  1:
 E= -1199.70541515817     Delta-E=       -0.000004637387 Rises=F Damp=F
 DIIS: error= 1.53D-04 at cycle   3 NSaved=   3.
 NSaved= 3 IEnMin= 3 EnMin= -1199.70541515817     IErMin= 2 ErrMin= 1.34D-04
 ErrMax= 1.53D-04  0.00D+00 EMaxC= 1.00D-01 BMatC= 6.17D-06 BMatP= 6.00D-06
 IDIUse=3 WtCom= 9.98D-01 WtEn= 1.53D-03
 Coeff-Com: -0.993D-01 0.541D+00 0.558D+00
 Coeff-En:   0.000D+00 0.145D+00 0.855D+00
 Coeff:     -0.992D-01 0.540D+00 0.559D+00
 Gap=     0.324 Goal=   None    Shift=    0.000
 RMSDP=1.98D-05 MaxDP=8.20D-04 DE=-4.64D-06 OVMax= 1.06D-03

 Cycle   4  Pass 1  IDiag  1:
 E= -1199.70542070827     Delta-E=       -0.000005550098 Rises=F Damp=F
 DIIS: error= 2.96D-05 at cycle   4 NSaved=   4.
 NSaved= 4 IEnMin= 4 EnMin= -1199.70542070827     IErMin= 4 ErrMin= 2.96D-05
 ErrMax= 2.96D-05  0.00D+00 EMaxC= 1.00D-01 BMatC= 2.16D-07 BMatP= 6.00D-06
 IDIUse=1 WtCom= 1.00D+00 WtEn= 0.00D+00
 Coeff-Com: -0.113D-01-0.567D-01 0.834D-01 0.985D+00
 Coeff:     -0.113D-01-0.567D-01 0.834D-01 0.985D+00
 Gap=     0.324 Goal=   None    Shift=    0.000
 RMSDP=7.24D-06 MaxDP=3.24D-04 DE=-5.55D-06 OVMax= 8.05D-04

 Cycle   5  Pass 1  IDiag  1:
 E= -1199.70542136694     Delta-E=       -0.000000658677 Rises=F Damp=F
 DIIS: error= 1.65D-05 at cycle   5 NSaved=   5.
 NSaved= 5 IEnMin= 5 EnMin= -1199.70542136694     IErMin= 5 ErrMin= 1.65D-05
 ErrMax= 1.65D-05  0.00D+00 EMaxC= 1.00D-01 BMatC= 1.18D-07 BMatP= 2.16D-07
 IDIUse=1 WtCom= 1.00D+00 WtEn= 0.00D+00
 Coeff-Com:  0.159D-01-0.169D+00-0.771D-01 0.582D+00 0.648D+00
 Coeff:      0.159D-01-0.169D+00-0.771D-01 0.582D+00 0.648D+00
 Gap=     0.324 Goal=   None    Shift=    0.000
 RMSDP=3.51D-06 MaxDP=1.19D-04 DE=-6.59D-07 OVMax= 3.31D-04

 Cycle   6  Pass 1  IDiag  1:
 E= -1199.70542156767     Delta-E=       -0.000000200728 Rises=F Damp=F
 DIIS: error= 7.33D-06 at cycle   6 NSaved=   6.
 NSaved= 6 IEnMin= 6 EnMin= -1199.70542156767     IErMin= 6 ErrMin= 7.33D-06
 ErrMax= 7.33D-06  0.00D+00 EMaxC= 1.00D-01 BMatC= 9.28D-09 BMatP= 1.18D-07
 IDIUse=1 WtCom= 1.00D+00 WtEn= 0.00D+00
 Coeff-Com:  0.104D-01-0.734D-01-0.541D-01 0.101D+00 0.216D+00 0.799D+00
 Coeff:      0.104D-01-0.734D-01-0.541D-01 0.101D+00 0.216D+00 0.799D+00
 Gap=     0.324 Goal=   None    Shift=    0.000
 RMSDP=1.57D-06 MaxDP=6.05D-05 DE=-2.01D-07 OVMax= 1.70D-04

 Cycle   7  Pass 1  IDiag  1:
 E= -1199.70542159458     Delta-E=       -0.000000026913 Rises=F Damp=F
 DIIS: error= 2.79D-06 at cycle   7 NSaved=   7.
 NSaved= 7 IEnMin= 7 EnMin= -1199.70542159458     IErMin= 7 ErrMin= 2.79D-06
 ErrMax= 2.79D-06  0.00D+00 EMaxC= 1.00D-01 BMatC= 1.86D-09 BMatP= 9.28D-09
 IDIUse=1 WtCom= 1.00D+00 WtEn= 0.00D+00
 Coeff-Com:  0.840D-03 0.425D-02-0.489D-02-0.589D-01-0.625D-01 0.302D+00
 Coeff-Com:  0.820D+00
 Coeff:      0.840D-03 0.425D-02-0.489D-02-0.589D-01-0.625D-01 0.302D+00
 Coeff:      0.820D+00
 Gap=     0.324 Goal=   None    Shift=    0.000
 RMSDP=6.64D-07 MaxDP=2.98D-05 DE=-2.69D-08 OVMax= 6.55D-05

 Cycle   8  Pass 1  IDiag  1:
 E= -1199.70542159829     Delta-E=       -0.000000003703 Rises=F Damp=F
 DIIS: error= 8.99D-07 at cycle   8 NSaved=   8.
 NSaved= 8 IEnMin= 8 EnMin= -1199.70542159829     IErMin= 8 ErrMin= 8.99D-07
 ErrMax= 8.99D-07  0.00D+00 EMaxC= 1.00D-01 BMatC= 2.55D-10 BMatP= 1.86D-09
 IDIUse=1 WtCom= 1.00D+00 WtEn= 0.00D+00
 Coeff-Com: -0.926D-03 0.103D-01 0.524D-02-0.338D-01-0.522D-01 0.181D-01
 Coeff-Com:  0.326D+00 0.727D+00
 Coeff:     -0.926D-03 0.103D-01 0.524D-02-0.338D-01-0.522D-01 0.181D-01
 Coeff:      0.326D+00 0.727D+00
 Gap=     0.324 Goal=   None    Shift=    0.000
 RMSDP=1.68D-07 MaxDP=5.53D-06 DE=-3.70D-09 OVMax= 1.39D-05

 Cycle   9  Pass 1  IDiag  1:
 E= -1199.70542159853     Delta-E=       -0.000000000249 Rises=F Damp=F
 DIIS: error= 6.00D-07 at cycle   9 NSaved=   9.
 NSaved= 9 IEnMin= 9 EnMin= -1199.70542159853     IErMin= 9 ErrMin= 6.00D-07
 ErrMax= 6.00D-07  0.00D+00 EMaxC= 1.00D-01 BMatC= 7.82D-11 BMatP= 2.55D-10
 IDIUse=1 WtCom= 1.00D+00 WtEn= 0.00D+00
 Coeff-Com: -0.619D-03 0.511D-02 0.386D-02-0.105D-01-0.214D-01-0.362D-01
 Coeff-Com:  0.747D-01 0.424D+00 0.561D+00
 Coeff:     -0.619D-03 0.511D-02 0.386D-02-0.105D-01-0.214D-01-0.362D-01
 Coeff:      0.747D-01 0.424D+00 0.561D+00
 Gap=     0.324 Goal=   None    Shift=    0.000
 RMSDP=6.79D-08 MaxDP=2.99D-06 DE=-2.49D-10 OVMax= 3.47D-06

 Cycle  10  Pass 1  IDiag  1:
 E= -1199.70542159862     Delta-E=       -0.000000000090 Rises=F Damp=F
 DIIS: error= 1.53D-07 at cycle  10 NSaved=  10.
 NSaved=10 IEnMin=10 EnMin= -1199.70542159862     IErMin=10 ErrMin= 1.53D-07
 ErrMax= 1.53D-07  0.00D+00 EMaxC= 1.00D-01 BMatC= 5.25D-12 BMatP= 7.82D-11
 IDIUse=1 WtCom= 1.00D+00 WtEn= 0.00D+00
 Coeff-Com: -0.141D-03 0.789D-03 0.103D-02 0.494D-04-0.262D-02-0.192D-01
 Coeff-Com: -0.830D-02 0.818D-01 0.232D+00 0.715D+00
 Coeff:     -0.141D-03 0.789D-03 0.103D-02 0.494D-04-0.262D-02-0.192D-01
 Coeff:     -0.830D-02 0.818D-01 0.232D+00 0.715D+00
 Gap=     0.324 Goal=   None    Shift=    0.000
 RMSDP=2.41D-08 MaxDP=8.60D-07 DE=-8.96D-11 OVMax= 1.17D-06

 Cycle  11  Pass 1  IDiag  1:
 E= -1199.70542159862     Delta-E=       -0.000000000001 Rises=F Damp=F
 DIIS: error= 5.65D-08 at cycle  11 NSaved=  11.
 NSaved=11 IEnMin=11 EnMin= -1199.70542159862     IErMin=11 ErrMin= 5.65D-08
 ErrMax= 5.65D-08  0.00D+00 EMaxC= 1.00D-01 BMatC= 1.21D-12 BMatP= 5.25D-12
 IDIUse=1 WtCom= 1.00D+00 WtEn= 0.00D+00
 Coeff-Com:  0.319D-04-0.487D-03-0.137D-03 0.192D-02 0.225D-02-0.349D-02
 Coeff-Com: -0.166D-01-0.356D-01 0.165D-01 0.370D+00 0.666D+00
 Coeff:      0.319D-04-0.487D-03-0.137D-03 0.192D-02 0.225D-02-0.349D-02
 Coeff:     -0.166D-01-0.356D-01 0.165D-01 0.370D+00 0.666D+00
 Gap=     0.324 Goal=   None    Shift=    0.000
 RMSDP=9.08D-09 MaxDP=3.09D-07 DE=-1.36D-12 OVMax= 4.78D-07

 SCF Done:  E(RwB97XD) =  -1199.70542160     A.U. after   11 cycles
            NFock= 11  Conv=0.91D-08     -V/T= 2.0020
 KE= 1.197338727354D+03 PE=-4.619885730269D+03 EE= 1.335859224366D+03
 Leave Link  502 at Fri May 23 03:45:52 2025, MaxMem=  3758096384 cpu:              52.3 elap:              10.2
 (Enter /apps/easybuild-2022/easybuild/software/Compiler/NVHPC/22.11-CUDA-11.7.0/Gaussian/g16c01-CUDA-11.7.0/g16/l508.exe)
 QCSCF skips out because SCF is already converged.
 Leave Link  508 at Fri May 23 03:45:52 2025, MaxMem=  3758096384 cpu:               0.0 elap:               0.0
 (Enter /apps/easybuild-2022/easybuild/software/Compiler/NVHPC/22.11-CUDA-11.7.0/Gaussian/g16c01-CUDA-11.7.0/g16/l801.exe)
 DoSCS=F DFT=T ScalE2(SS,OS)=  1.000000  1.000000
 Range of M.O.s used for correlation:     1   257
 NBasis=   257 NAE=    49 NBE=    49 NFC=     0 NFV=     0
 NROrb=    257 NOA=    49 NOB=    49 NVA=   208 NVB=   208

 **** Warning!!: The largest alpha MO coefficient is  0.23938660D+02

 Leave Link  801 at Fri May 23 03:45:52 2025, MaxMem=  3758096384 cpu:               0.0 elap:               0.0
 (Enter /apps/easybuild-2022/easybuild/software/Compiler/NVHPC/22.11-CUDA-11.7.0/Gaussian/g16c01-CUDA-11.7.0/g16/l1101.exe)
 Leave Link 1101 at Fri May 23 03:45:52 2025, MaxMem=  3758096384 cpu:               0.0 elap:               0.0
 (Enter /apps/easybuild-2022/easybuild/software/Compiler/NVHPC/22.11-CUDA-11.7.0/Gaussian/g16c01-CUDA-11.7.0/g16/l1102.exe)
 Symmetrizing basis deriv contribution to polar:
 IMax=3 JMax=2 DiffMx= 0.00D+00
 Leave Link 1102 at Fri May 23 03:45:52 2025, MaxMem=  3758096384 cpu:               0.0 elap:               0.0
 (Enter /apps/easybuild-2022/easybuild/software/Compiler/NVHPC/22.11-CUDA-11.7.0/Gaussian/g16c01-CUDA-11.7.0/g16/l1110.exe)
 Leave Link 1110 at Fri May 23 03:45:52 2025, MaxMem=  3758096384 cpu:               0.0 elap:               0.0
 (Enter /apps/easybuild-2022/easybuild/software/Compiler/NVHPC/22.11-CUDA-11.7.0/Gaussian/g16c01-CUDA-11.7.0/g16/l1002.exe)
 Minotr:  Closed shell wavefunction.
 Leave Link 1002 at Fri May 23 03:45:52 2025, MaxMem=  3758096384 cpu:               0.0 elap:               0.0
 (Enter /apps/easybuild-2022/easybuild/software/Compiler/NVHPC/22.11-CUDA-11.7.0/Gaussian/g16c01-CUDA-11.7.0/g16/l701.exe)
 ... and contract with generalized density number  0.
 Compute integral first derivatives.
 R6Disp: Adding Grimme-D2 dispersion energy 1st derivatives to the gradient.
 Leave Link  701 at Fri May 23 03:45:52 2025, MaxMem=  3758096384 cpu:               0.4 elap:               0.1
 (Enter /apps/easybuild-2022/easybuild/software/Compiler/NVHPC/22.11-CUDA-11.7.0/Gaussian/g16c01-CUDA-11.7.0/g16/l702.exe)
 L702 exits ... SP integral derivatives will be done elsewhere.
 Leave Link  702 at Fri May 23 03:45:52 2025, MaxMem=  3758096384 cpu:               0.0 elap:               0.0
 (Enter /apps/easybuild-2022/easybuild/software/Compiler/NVHPC/22.11-CUDA-11.7.0/Gaussian/g16c01-CUDA-11.7.0/g16/l703.exe)
 Integral derivatives from FoFJK, PRISM(SPDF).
 Compute integral first derivatives, UseDBF=F ICtDFT=           0.
 Calling FoFJK, ICntrl=      2127 FMM=F ISym2X=0 I1Cent= 0 IOpClX= 0 NMat=1 NMatS=1 NMatT=0.
 FoFJK:  IHMeth= 1 ICntrl=    2127 DoSepK=T KAlg= 0 I1Cent=           0 FoldK=F
 IRaf=         1 NMat=       1 IRICut=       1 DoRegI=T DoRafI=F ISym2E= 0 IDoP0=0 IntGTp=1.
 FoFCou: FMM=F IPFlag=           0 FMFlag=      100000 FMFlg1=         800
         NFxFlg=           0 DoJE=F BraDBF=F KetDBF=F FulRan=T
         wScrn=  0.000000 ICntrl=      2527 IOpCl=  0 I1Cent=           0 NGrid=           0
         NMat0=    1 NMatS0=      1 NMatT0=    0 NMatD0=    1 NMtDS0=    0 NMtDT0=    0
 Symmetry not used in FoFCou.
 Leave Link  703 at Fri May 23 03:45:57 2025, MaxMem=  3758096384 cpu:              33.2 elap:               4.2
 (Enter /apps/easybuild-2022/easybuild/software/Compiler/NVHPC/22.11-CUDA-11.7.0/Gaussian/g16c01-CUDA-11.7.0/g16/l716.exe)
 Dipole        = 1.47316188D-01 2.23304641D-01 7.11489519D-02
 Polarizability= 0.00000000D+00 0.00000000D+00 0.00000000D+00
                 0.00000000D+00 0.00000000D+00 0.00000000D+00
 -------------------------------------------------------------------
 Center     Atomic                   Forces (Hartrees/Bohr)
 Number     Number              X              Y              Z
 -------------------------------------------------------------------
      1        6          -0.000686163   -0.000088498    0.000121222
      2        6          -0.002364723    0.001861013    0.001182387
      3        9           0.000805266    0.000802833   -0.000141269
      4        9           0.000146005   -0.000064435   -0.000051112
      5       16           0.004553662    0.006113675    0.001031510
      6        8          -0.001054354   -0.000652500   -0.000289203
      7        8          -0.001013902   -0.000874860    0.000326208
      8        8           0.003083147   -0.001842229   -0.001362838
      9        9          -0.000246840   -0.000074666    0.000085977
     10        9           0.000035383   -0.000043593   -0.000053499
     11        9          -0.000001442   -0.000120255    0.000006801
     12        1          -0.003256040   -0.005016484   -0.000856183
 -------------------------------------------------------------------
 Cartesian Forces:  Max     0.006113675 RMS     0.001873327
 Leave Link  716 at Fri May 23 03:45:57 2025, MaxMem=  3758096384 cpu:               0.0 elap:               0.0
 (Enter /apps/easybuild-2022/easybuild/software/Compiler/NVHPC/22.11-CUDA-11.7.0/Gaussian/g16c01-CUDA-11.7.0/g16/l123.exe)
 IRC-IRC-IRC-IRC-IRC-IRC-IRC-IRC-IRC-IRC-IRC-IRC-IRC-IRC-IRC-IRC-IRC-IRC
 Pt  2 Step number   1 out of a maximum of  20
 Using modified Bulirsch-Stoer corrector integration.
   Using distance weighted interpolants to fit PES.
 PreDWI: IReCr0= 2 IReCr1= 1 IReCr2= 1 IReCr3= 1
 Modified Bulirsch-Stoer Extrapolation Cycles:
    EPS =    0.000010000000000
    Cycle     1 NS=    48
      PEZero:  N= 2 I= 1 D=  1.10D-04 Err=  1.68D-07
    Cycle     2 NS=    64 Truncation Error =  0.000000168
 BS completed in    2 cycles and     112 integration steps.
 Maximum DWI energy   std dev =  0.000000007 at pt    37
 Maximum DWI gradient std dev =  0.000855166 at pt    27
 SUMMARY OF CORRECTOR INTEGRATION:
   Predictor End Point Energy = -1199.705422
   Old End Point Energy       = -1199.705422
   Corrected End Point Energy = -1199.705422
   Predictor End-Start Dist.  =     0.021079
   Old End-Start Dist.        =     0.021079
   New End-Start Dist.        =     0.021079
   New End-Old End Dist.      =     0.000019
 CORRECTOR INTEGRATION CONVERGENCE:
   Recorrection delta-x convergence threshold:    0.010000
   Delta-x Convergence Met
 Point Number:   2          Path Number:   1
                    CURRENT STRUCTURE
                Cartesian Coordinates (Ang):                
 ---------------------------------------------------------------------
 Center     Atomic                     Coordinates (Angstroms)
 Number     Number                        X           Y           Z
 ---------------------------------------------------------------------
      1          6                   -1.511450    0.202916    0.827687
      2          6                   -0.496212   -0.307391   -0.230134
      3          9                   -0.310369   -1.621439    0.002751
      4          9                   -1.032701   -0.153726   -1.451029
      5         16                    1.822984    0.100214   -0.565628
      6          8                    2.451366   -0.795096    0.345253
      7          8                    1.906076   -0.041148   -1.979948
      8          8                    1.490826    1.476205   -0.038087
      9          9                   -2.651791   -0.469134    0.767225
     10          9                   -0.988206    0.062085    2.044140
     11          9                   -1.761879    1.497160    0.618879
     12          1                    0.404873    0.822025    0.015373
 ---------------------------------------------------------------------
   CHANGE IN THE REACTION COORDINATE =    0.02108
   NET REACTION COORDINATE UP TO THIS POINT =    0.04217
  # OF POINTS ALONG THE PATH =   2
  # OF STEPS =   1

 Calculating another point on the path.
 Point Number  3 in FORWARD path direction.
 Using LQA Reaction Path Following.
   LQA: T_Est iteration completed in    3 iterations.
 IRC-IRC-IRC-IRC-IRC-IRC-IRC-IRC-IRC-IRC-IRC-IRC-IRC-IRC-IRC-IRC-IRC-IRC
 Leave Link  123 at Fri May 23 03:45:57 2025, MaxMem=  3758096384 cpu:               0.1 elap:               0.0
 (Enter /apps/easybuild-2022/easybuild/software/Compiler/NVHPC/22.11-CUDA-11.7.0/Gaussian/g16c01-CUDA-11.7.0/g16/l202.exe)
                          Input orientation:                          
 ---------------------------------------------------------------------
 Center     Atomic      Atomic             Coordinates (Angstroms)
 Number     Number       Type             X           Y           Z
 ---------------------------------------------------------------------
      1          6           0       -1.511550    0.202903    0.827705
      2          6           0       -0.496560   -0.307118   -0.229960
      3          9           0       -0.310295   -1.621365    0.002738
      4          9           0       -1.032688   -0.153732   -1.451034
      5         16           0        1.823234    0.100551   -0.565572
      6          8           0        2.451251   -0.795168    0.345221
      7          8           0        1.905964   -0.041244   -1.979912
      8          8           0        1.491165    1.476003   -0.038237
      9          9           0       -2.651814   -0.469141    0.767233
     10          9           0       -0.988203    0.062081    2.044135
     11          9           0       -1.761879    1.497149    0.618879
     12          1           0        0.399191    0.813266    0.013877
 ---------------------------------------------------------------------
                    Distance matrix (angstroms):
                    1          2          3          4          5
     1  C    0.000000
     2  C    1.552090   0.000000
     3  F    2.334853   1.347623   0.000000
     4  F    2.355662   1.342379   2.188435   0.000000
     5  S    3.615589   2.379133   2.799985   3.000832   0.000000
     6  O    4.114939   3.042797   2.902762   3.971876   1.423467
     7  O    4.429642   2.984148   3.367415   2.987983   1.423836
     8  O    3.374454   2.677186   3.583381   3.319919   1.510040
     9  F    1.324953   2.380287   2.719335   2.764373   4.703932
    10  F    1.331701   2.355744   2.731456   3.502108   3.836173
    11  F    1.334670   2.361555   3.494547   2.746210   4.025723
    12  H    2.164669   1.455021   2.535926   2.265243   1.694587
                    6          7          8          9         10
     6  O    0.000000
     7  O    2.504393   0.000000
     8  O    2.495400   2.498840   0.000000
     9  F    5.130853   5.338843   4.647219   0.000000
    10  F    3.930779   4.957806   3.533088   2.163395   0.000000
    11  F    4.804172   4.751152   3.318817   2.163398   2.165490
    12  H    2.628269   2.641165   1.278414   3.394222   2.571204
                   11         12
    11  F    0.000000
    12  H    2.346049   0.000000
 Symmetry turned off by external request.
 Stoichiometry    C2HF5O3S
 Rotational constants (GHZ):           1.6854411           0.6609835           0.6413636
 Leave Link  202 at Fri May 23 03:45:57 2025, MaxMem=  3758096384 cpu:               0.0 elap:               0.0
 (Enter /apps/easybuild-2022/easybuild/software/Compiler/NVHPC/22.11-CUDA-11.7.0/Gaussian/g16c01-CUDA-11.7.0/g16/l301.exe)
 Standard basis: 6-311++G(d,p) (5D, 7F)
 Ernie: Thresh=  0.10000D-02 Tol=  0.10000D-05 Strict=F.
   257 basis functions,   419 primitive gaussians,   268 cartesian basis functions
    49 alpha electrons       49 beta electrons
       nuclear repulsion energy       887.0148481844 Hartrees.
 IExCor= 4639 DFT=T Ex+Corr=wB97XD ExCW=0 ScaHFX=  1.000000
 ScaDFX=  1.000000  1.000000  1.000000  1.000000 ScalE2=  1.000000  1.000000
 IRadAn=      5 IRanWt=     -1 IRanGd=            0 ICorTp=0 IEmpDi=121
 HFx  wShort=  0.000000 wLong=  0.200000 cFull=  0.222036 cShort=  0.000000 cLong=  0.777964
 DFx  wShort=  0.000000 wLong=  0.200000 cFull=  0.000000 cShort=  0.000000 cLong=  1.000000
 NAtoms=   12 NActive=   12 NUniq=   12 SFac= 1.00D+00 NAtFMM=   60 NAOKFM=F Big=F
 Integral buffers will be    131072 words long.
 Raffenetti 2 integral format.
 Two-electron integral symmetry is turned off.
 R6Disp:  Grimme-D2 Dispersion energy=       -0.0058539927 Hartrees.
 Nuclear repulsion after empirical dispersion term =      887.0089941917 Hartrees.
 Leave Link  301 at Fri May 23 03:45:57 2025, MaxMem=  3758096384 cpu:               0.0 elap:               0.0
 (Enter /apps/easybuild-2022/easybuild/software/Compiler/NVHPC/22.11-CUDA-11.7.0/Gaussian/g16c01-CUDA-11.7.0/g16/l302.exe)
 NPDir=0 NMtPBC=     1 NCelOv=     1 NCel=       1 NClECP=     1 NCelD=      1
         NCelK=      1 NCelE2=     1 NClLst=     1 CellRange=     0.0.
 One-electron integrals computed using PRISM.
 NBasis=   257 RedAO= T EigKep=  7.82D-05  NBF=   257
 NBsUse=   257 1.00D-06 EigRej= -1.00D+00 NBFU=   257
 Precomputing XC quadrature grid using
 IXCGrd= 4 IRadAn=           5 IRanWt=          -1 IRanGd=           0 AccXCQ= 0.00D+00.
 Generated NRdTot=       0 NPtTot=           0 NUsed=           0 NTot=          32
 NSgBfM=   268   268   268   268   268 MxSgAt=    12 MxSgA2=    12.
 Leave Link  302 at Fri May 23 03:45:57 2025, MaxMem=  3758096384 cpu:               0.5 elap:               0.1
 (Enter /apps/easybuild-2022/easybuild/software/Compiler/NVHPC/22.11-CUDA-11.7.0/Gaussian/g16c01-CUDA-11.7.0/g16/l303.exe)
 DipDrv:  MaxL=1.
 Leave Link  303 at Fri May 23 03:45:57 2025, MaxMem=  3758096384 cpu:               0.1 elap:               0.0
 (Enter /apps/easybuild-2022/easybuild/software/Compiler/NVHPC/22.11-CUDA-11.7.0/Gaussian/g16c01-CUDA-11.7.0/g16/l401.exe)
 Initial guess from the checkpoint file:  "2003846667223680600001_r12_insertion_R_3_2_5_IRC_F.chk"
 B after Tr=    -0.000055   -0.000084   -0.000014
         Rot=    1.000000    0.000002   -0.000000   -0.000001 Ang=   0.00 deg.
 Guess basis will be translated and rotated to current coordinates.
 JPrj=2 DoOrth=T DoCkMO=T.
 Generating alternative initial guess.
 ExpMin= 3.60D-02 ExpMax= 9.34D+04 ExpMxC= 3.17D+03 IAcc=3 IRadAn=         5 AccDes= 0.00D+00
 Harris functional with IExCor= 4639 and IRadAn=       5 diagonalized for initial guess.
 HarFok:  IExCor= 4639 AccDes= 0.00D+00 IRadAn=         5 IDoV= 1 UseB2=F ITyADJ=14
 ICtDFT=  3500011 ScaDFX=  1.000000  1.000000  1.000000  1.000000
 FoFCou: FMM=F IPFlag=           0 FMFlag=      100000 FMFlg1=           0
         NFxFlg=           0 DoJE=T BraDBF=F KetDBF=T FulRan=T
         wScrn=  0.000000 ICntrl=       500 IOpCl=  0 I1Cent=   200000004 NGrid=           0
         NMat0=    1 NMatS0=      1 NMatT0=    0 NMatD0=    1 NMtDS0=    0 NMtDT0=    0
 Symmetry not used in FoFCou.
 Harris En= -1167.02522086789    
 Leave Link  401 at Fri May 23 03:45:57 2025, MaxMem=  3758096384 cpu:               2.6 elap:               0.4
 (Enter /apps/easybuild-2022/easybuild/software/Compiler/NVHPC/22.11-CUDA-11.7.0/Gaussian/g16c01-CUDA-11.7.0/g16/l502.exe)
 Keep R1 ints in memory in canonical form, NReq=1117474609.
 FoFCou: FMM=F IPFlag=           0 FMFlag=           0 FMFlg1=           0
         NFxFlg=           0 DoJE=F BraDBF=F KetDBF=F FulRan=T
         wScrn=  0.000000 ICntrl=       600 IOpCl=  0 I1Cent=           0 NGrid=           0
         NMat0=    1 NMatS0=  33153 NMatT0=    0 NMatD0=    1 NMtDS0=    0 NMtDT0=    0
 Symmetry not used in FoFCou.
 Two-electron integral symmetry not used.
 Closed shell SCF:
 Using DIIS extrapolation, IDIIS=  1040.
 NGot=  3758096384 LenX=  2658793876 LenY=  2658721611
 Requested convergence on RMS density matrix=1.00D-08 within  32 cycles.
 Requested convergence on MAX density matrix=1.00D-06.
 Requested convergence on             energy=1.00D-06.
 No special actions if energy rises.

 Cycle   1  Pass 1  IDiag  1:
 E= -1199.70552337125    
 DIIS: error= 2.64D-04 at cycle   1 NSaved=   1.
 NSaved= 1 IEnMin= 1 EnMin= -1199.70552337125     IErMin= 1 ErrMin= 2.64D-04
 ErrMax= 2.64D-04  0.00D+00 EMaxC= 1.00D-01 BMatC= 3.62D-05 BMatP= 3.62D-05
 IDIUse=3 WtCom= 9.97D-01 WtEn= 2.64D-03
 Coeff-Com:  0.100D+01
 Coeff-En:   0.100D+01
 Coeff:      0.100D+01
 Gap=     0.690 Goal=   None    Shift=    0.000
 RMSDP=6.16D-05 MaxDP=1.53D-03              OVMax= 4.30D-03

 Cycle   2  Pass 1  IDiag  1:
 E= -1199.70557741181     Delta-E=       -0.000054040560 Rises=F Damp=F
 DIIS: error= 1.34D-04 at cycle   2 NSaved=   2.
 NSaved= 2 IEnMin= 2 EnMin= -1199.70557741181     IErMin= 2 ErrMin= 1.34D-04
 ErrMax= 1.34D-04  0.00D+00 EMaxC= 1.00D-01 BMatC= 5.97D-06 BMatP= 3.62D-05
 IDIUse=3 WtCom= 9.99D-01 WtEn= 1.34D-03
 Coeff-Com:  0.945D-01 0.906D+00
 Coeff-En:   0.000D+00 0.100D+01
 Coeff:      0.944D-01 0.906D+00
 Gap=     0.325 Goal=   None    Shift=    0.000
 RMSDP=2.65D-05 MaxDP=1.02D-03 DE=-5.40D-05 OVMax= 1.77D-03

 Cycle   3  Pass 1  IDiag  1:
 E= -1199.70558205382     Delta-E=       -0.000004642013 Rises=F Damp=F
 DIIS: error= 1.49D-04 at cycle   3 NSaved=   3.
 NSaved= 3 IEnMin= 3 EnMin= -1199.70558205382     IErMin= 2 ErrMin= 1.34D-04
 ErrMax= 1.49D-04  0.00D+00 EMaxC= 1.00D-01 BMatC= 6.15D-06 BMatP= 5.97D-06
 IDIUse=3 WtCom= 9.99D-01 WtEn= 1.49D-03
 Coeff-Com: -0.992D-01 0.541D+00 0.558D+00
 Coeff-En:   0.000D+00 0.141D+00 0.859D+00
 Coeff:     -0.990D-01 0.541D+00 0.558D+00
 Gap=     0.324 Goal=   None    Shift=    0.000
 RMSDP=1.98D-05 MaxDP=8.23D-04 DE=-4.64D-06 OVMax= 1.06D-03

 Cycle   4  Pass 1  IDiag  1:
 E= -1199.70558758712     Delta-E=       -0.000005533298 Rises=F Damp=F
 DIIS: error= 2.98D-05 at cycle   4 NSaved=   4.
 NSaved= 4 IEnMin= 4 EnMin= -1199.70558758712     IErMin= 4 ErrMin= 2.98D-05
 ErrMax= 2.98D-05  0.00D+00 EMaxC= 1.00D-01 BMatC= 2.20D-07 BMatP= 5.97D-06
 IDIUse=1 WtCom= 1.00D+00 WtEn= 0.00D+00
 Coeff-Com: -0.119D-01-0.539D-01 0.868D-01 0.979D+00
 Coeff:     -0.119D-01-0.539D-01 0.868D-01 0.979D+00
 Gap=     0.324 Goal=   None    Shift=    0.000
 RMSDP=7.29D-06 MaxDP=3.27D-04 DE=-5.53D-06 OVMax= 8.05D-04

 Cycle   5  Pass 1  IDiag  1:
 E= -1199.70558825225     Delta-E=       -0.000000665134 Rises=F Damp=F
 DIIS: error= 1.63D-05 at cycle   5 NSaved=   5.
 NSaved= 5 IEnMin= 5 EnMin= -1199.70558825225     IErMin= 5 ErrMin= 1.63D-05
 ErrMax= 1.63D-05  0.00D+00 EMaxC= 1.00D-01 BMatC= 1.19D-07 BMatP= 2.20D-07
 IDIUse=1 WtCom= 1.00D+00 WtEn= 0.00D+00
 Coeff-Com:  0.159D-01-0.170D+00-0.763D-01 0.579D+00 0.651D+00
 Coeff:      0.159D-01-0.170D+00-0.763D-01 0.579D+00 0.651D+00
 Gap=     0.324 Goal=   None    Shift=    0.000
 RMSDP=3.55D-06 MaxDP=1.24D-04 DE=-6.65D-07 OVMax= 3.39D-04

 Cycle   6  Pass 1  IDiag  1:
 E= -1199.70558845769     Delta-E=       -0.000000205436 Rises=F Damp=F
 DIIS: error= 7.50D-06 at cycle   6 NSaved=   6.
 NSaved= 6 IEnMin= 6 EnMin= -1199.70558845769     IErMin= 6 ErrMin= 7.50D-06
 ErrMax= 7.50D-06  0.00D+00 EMaxC= 1.00D-01 BMatC= 9.52D-09 BMatP= 1.19D-07
 IDIUse=1 WtCom= 1.00D+00 WtEn= 0.00D+00
 Coeff-Com:  0.105D-01-0.746D-01-0.543D-01 0.102D+00 0.218D+00 0.798D+00
 Coeff:      0.105D-01-0.746D-01-0.543D-01 0.102D+00 0.218D+00 0.798D+00
 Gap=     0.324 Goal=   None    Shift=    0.000
 RMSDP=1.60D-06 MaxDP=6.29D-05 DE=-2.05D-07 OVMax= 1.73D-04

 Cycle   7  Pass 1  IDiag  1:
 E= -1199.70558848567     Delta-E=       -0.000000027980 Rises=F Damp=F
 DIIS: error= 2.86D-06 at cycle   7 NSaved=   7.
 NSaved= 7 IEnMin= 7 EnMin= -1199.70558848567     IErMin= 7 ErrMin= 2.86D-06
 ErrMax= 2.86D-06  0.00D+00 EMaxC= 1.00D-01 BMatC= 1.87D-09 BMatP= 9.52D-09
 IDIUse=1 WtCom= 1.00D+00 WtEn= 0.00D+00
 Coeff-Com:  0.854D-03 0.420D-02-0.491D-02-0.593D-01-0.636D-01 0.298D+00
 Coeff-Com:  0.825D+00
 Coeff:      0.854D-03 0.420D-02-0.491D-02-0.593D-01-0.636D-01 0.298D+00
 Coeff:      0.825D+00
 Gap=     0.324 Goal=   None    Shift=    0.000
 RMSDP=6.85D-07 MaxDP=3.11D-05 DE=-2.80D-08 OVMax= 6.75D-05

 Cycle   8  Pass 1  IDiag  1:
 E= -1199.70558848938     Delta-E=       -0.000000003715 Rises=F Damp=F
 DIIS: error= 9.43D-07 at cycle   8 NSaved=   8.
 NSaved= 8 IEnMin= 8 EnMin= -1199.70558848938     IErMin= 8 ErrMin= 9.43D-07
 ErrMax= 9.43D-07  0.00D+00 EMaxC= 1.00D-01 BMatC= 2.66D-10 BMatP= 1.87D-09
 IDIUse=1 WtCom= 1.00D+00 WtEn= 0.00D+00
 Coeff-Com: -0.929D-03 0.104D-01 0.525D-02-0.343D-01-0.527D-01 0.183D-01
 Coeff-Com:  0.332D+00 0.722D+00
 Coeff:     -0.929D-03 0.104D-01 0.525D-02-0.343D-01-0.527D-01 0.183D-01
 Coeff:      0.332D+00 0.722D+00
 Gap=     0.324 Goal=   None    Shift=    0.000
 RMSDP=1.69D-07 MaxDP=5.77D-06 DE=-3.72D-09 OVMax= 1.40D-05

 Cycle   9  Pass 1  IDiag  1:
 E= -1199.70558848965     Delta-E=       -0.000000000271 Rises=F Damp=F
 DIIS: error= 6.01D-07 at cycle   9 NSaved=   9.
 NSaved= 9 IEnMin= 9 EnMin= -1199.70558848965     IErMin= 9 ErrMin= 6.01D-07
 ErrMax= 6.01D-07  0.00D+00 EMaxC= 1.00D-01 BMatC= 7.97D-11 BMatP= 2.66D-10
 IDIUse=1 WtCom= 1.00D+00 WtEn= 0.00D+00
 Coeff-Com: -0.621D-03 0.514D-02 0.387D-02-0.104D-01-0.210D-01-0.369D-01
 Coeff-Com:  0.737D-01 0.419D+00 0.568D+00
 Coeff:     -0.621D-03 0.514D-02 0.387D-02-0.104D-01-0.210D-01-0.369D-01
 Coeff:      0.737D-01 0.419D+00 0.568D+00
 Gap=     0.324 Goal=   None    Shift=    0.000
 RMSDP=6.99D-08 MaxDP=3.09D-06 DE=-2.71D-10 OVMax= 3.55D-06

 Cycle  10  Pass 1  IDiag  1:
 E= -1199.70558848970     Delta-E=       -0.000000000049 Rises=F Damp=F
 DIIS: error= 1.60D-07 at cycle  10 NSaved=  10.
 NSaved=10 IEnMin=10 EnMin= -1199.70558848970     IErMin=10 ErrMin= 1.60D-07
 ErrMax= 1.60D-07  0.00D+00 EMaxC= 1.00D-01 BMatC= 5.57D-12 BMatP= 7.97D-11
 IDIUse=1 WtCom= 1.00D+00 WtEn= 0.00D+00
 Coeff-Com: -0.147D-03 0.836D-03 0.106D-02 0.286D-04-0.267D-02-0.196D-01
 Coeff-Com: -0.830D-02 0.845D-01 0.238D+00 0.706D+00
 Coeff:     -0.147D-03 0.836D-03 0.106D-02 0.286D-04-0.267D-02-0.196D-01
 Coeff:     -0.830D-02 0.845D-01 0.238D+00 0.706D+00
 Gap=     0.324 Goal=   None    Shift=    0.000
 RMSDP=2.46D-08 MaxDP=8.91D-07 DE=-4.87D-11 OVMax= 1.18D-06

 Cycle  11  Pass 1  IDiag  1:
 E= -1199.70558848975     Delta-E=       -0.000000000049 Rises=F Damp=F
 DIIS: error= 5.75D-08 at cycle  11 NSaved=  11.
 NSaved=11 IEnMin=11 EnMin= -1199.70558848975     IErMin=11 ErrMin= 5.75D-08
 ErrMax= 5.75D-08  0.00D+00 EMaxC= 1.00D-01 BMatC= 1.27D-12 BMatP= 5.57D-12
 IDIUse=1 WtCom= 1.00D+00 WtEn= 0.00D+00
 Coeff-Com:  0.330D-04-0.499D-03-0.148D-03 0.195D-02 0.228D-02-0.340D-02
 Coeff-Com: -0.168D-01-0.360D-01 0.149D-01 0.365D+00 0.672D+00
 Coeff:      0.330D-04-0.499D-03-0.148D-03 0.195D-02 0.228D-02-0.340D-02
 Coeff:     -0.168D-01-0.360D-01 0.149D-01 0.365D+00 0.672D+00
 Gap=     0.324 Goal=   None    Shift=    0.000
 RMSDP=9.48D-09 MaxDP=3.18D-07 DE=-4.91D-11 OVMax= 4.98D-07

 SCF Done:  E(RwB97XD) =  -1199.70558849     A.U. after   11 cycles
            NFock= 11  Conv=0.95D-08     -V/T= 2.0020
 KE= 1.197339627101D+03 PE=-4.619934597235D+03 EE= 1.335880387453D+03
 Leave Link  502 at Fri May 23 03:46:08 2025, MaxMem=  3758096384 cpu:              52.5 elap:              10.3
 (Enter /apps/easybuild-2022/easybuild/software/Compiler/NVHPC/22.11-CUDA-11.7.0/Gaussian/g16c01-CUDA-11.7.0/g16/l508.exe)
 QCSCF skips out because SCF is already converged.
 Leave Link  508 at Fri May 23 03:46:08 2025, MaxMem=  3758096384 cpu:               0.0 elap:               0.0
 (Enter /apps/easybuild-2022/easybuild/software/Compiler/NVHPC/22.11-CUDA-11.7.0/Gaussian/g16c01-CUDA-11.7.0/g16/l801.exe)
 DoSCS=F DFT=T ScalE2(SS,OS)=  1.000000  1.000000
 Range of M.O.s used for correlation:     1   257
 NBasis=   257 NAE=    49 NBE=    49 NFC=     0 NFV=     0
 NROrb=    257 NOA=    49 NOB=    49 NVA=   208 NVB=   208

 **** Warning!!: The largest alpha MO coefficient is  0.24020404D+02

 Leave Link  801 at Fri May 23 03:46:08 2025, MaxMem=  3758096384 cpu:               0.0 elap:               0.0
 (Enter /apps/easybuild-2022/easybuild/software/Compiler/NVHPC/22.11-CUDA-11.7.0/Gaussian/g16c01-CUDA-11.7.0/g16/l1101.exe)
 Leave Link 1101 at Fri May 23 03:46:08 2025, MaxMem=  3758096384 cpu:               0.0 elap:               0.0
 (Enter /apps/easybuild-2022/easybuild/software/Compiler/NVHPC/22.11-CUDA-11.7.0/Gaussian/g16c01-CUDA-11.7.0/g16/l1102.exe)
 Symmetrizing basis deriv contribution to polar:
 IMax=3 JMax=2 DiffMx= 0.00D+00
 Leave Link 1102 at Fri May 23 03:46:08 2025, MaxMem=  3758096384 cpu:               0.0 elap:               0.0
 (Enter /apps/easybuild-2022/easybuild/software/Compiler/NVHPC/22.11-CUDA-11.7.0/Gaussian/g16c01-CUDA-11.7.0/g16/l1110.exe)
 Leave Link 1110 at Fri May 23 03:46:08 2025, MaxMem=  3758096384 cpu:               0.0 elap:               0.0
 (Enter /apps/easybuild-2022/easybuild/software/Compiler/NVHPC/22.11-CUDA-11.7.0/Gaussian/g16c01-CUDA-11.7.0/g16/l1002.exe)
 Minotr:  Closed shell wavefunction.
 Leave Link 1002 at Fri May 23 03:46:08 2025, MaxMem=  3758096384 cpu:               0.0 elap:               0.0
 (Enter /apps/easybuild-2022/easybuild/software/Compiler/NVHPC/22.11-CUDA-11.7.0/Gaussian/g16c01-CUDA-11.7.0/g16/l701.exe)
 ... and contract with generalized density number  0.
 Compute integral first derivatives.
 R6Disp: Adding Grimme-D2 dispersion energy 1st derivatives to the gradient.
 Leave Link  701 at Fri May 23 03:46:08 2025, MaxMem=  3758096384 cpu:               0.3 elap:               0.1
 (Enter /apps/easybuild-2022/easybuild/software/Compiler/NVHPC/22.11-CUDA-11.7.0/Gaussian/g16c01-CUDA-11.7.0/g16/l702.exe)
 L702 exits ... SP integral derivatives will be done elsewhere.
 Leave Link  702 at Fri May 23 03:46:08 2025, MaxMem=  3758096384 cpu:               0.0 elap:               0.0
 (Enter /apps/easybuild-2022/easybuild/software/Compiler/NVHPC/22.11-CUDA-11.7.0/Gaussian/g16c01-CUDA-11.7.0/g16/l703.exe)
 Integral derivatives from FoFJK, PRISM(SPDF).
 Compute integral first derivatives, UseDBF=F ICtDFT=           0.
 Calling FoFJK, ICntrl=      2127 FMM=F ISym2X=0 I1Cent= 0 IOpClX= 0 NMat=1 NMatS=1 NMatT=0.
 FoFJK:  IHMeth= 1 ICntrl=    2127 DoSepK=T KAlg= 0 I1Cent=           0 FoldK=F
 IRaf=         1 NMat=       1 IRICut=       1 DoRegI=T DoRafI=F ISym2E= 0 IDoP0=0 IntGTp=1.
 FoFCou: FMM=F IPFlag=           0 FMFlag=      100000 FMFlg1=         800
         NFxFlg=           0 DoJE=F BraDBF=F KetDBF=F FulRan=T
         wScrn=  0.000000 ICntrl=      2527 IOpCl=  0 I1Cent=           0 NGrid=           0
         NMat0=    1 NMatS0=      1 NMatT0=    0 NMatD0=    1 NMtDS0=    0 NMtDT0=    0
 Symmetry not used in FoFCou.
 Leave Link  703 at Fri May 23 03:46:12 2025, MaxMem=  3758096384 cpu:              33.0 elap:               4.2
 (Enter /apps/easybuild-2022/easybuild/software/Compiler/NVHPC/22.11-CUDA-11.7.0/Gaussian/g16c01-CUDA-11.7.0/g16/l716.exe)
 Dipole        = 1.46962878D-01 2.10524859D-01 6.71391506D-02
 Polarizability= 0.00000000D+00 0.00000000D+00 0.00000000D+00
                 0.00000000D+00 0.00000000D+00 0.00000000D+00
 -------------------------------------------------------------------
 Center     Atomic                   Forces (Hartrees/Bohr)
 Number     Number              X              Y              Z
 -------------------------------------------------------------------
      1        6          -0.001035996   -0.000132696    0.000185441
      2        6          -0.003574110    0.002768816    0.001769848
      3        9           0.001213113    0.001212814   -0.000210317
      4        9           0.000222061   -0.000098511   -0.000074134
      5       16           0.006822922    0.009154486    0.001543383
      6        8          -0.001566294   -0.000985088   -0.000423082
      7        8          -0.001511672   -0.001314336    0.000472026
      8        8           0.004627947   -0.002750838   -0.002044005
      9        9          -0.000370323   -0.000110594    0.000130441
     10        9           0.000054145   -0.000061609   -0.000080988
     11        9          -0.000000269   -0.000179436    0.000007575
     12        1          -0.004881525   -0.007503008   -0.001276188
 -------------------------------------------------------------------
 Cartesian Forces:  Max     0.009154486 RMS     0.002806018
 Leave Link  716 at Fri May 23 03:46:12 2025, MaxMem=  3758096384 cpu:               0.0 elap:               0.0
 (Enter /apps/easybuild-2022/easybuild/software/Compiler/NVHPC/22.11-CUDA-11.7.0/Gaussian/g16c01-CUDA-11.7.0/g16/l123.exe)
 IRC-IRC-IRC-IRC-IRC-IRC-IRC-IRC-IRC-IRC-IRC-IRC-IRC-IRC-IRC-IRC-IRC-IRC
 Pt  3 Step number   1 out of a maximum of  20
 Using modified Bulirsch-Stoer corrector integration.
   Using distance weighted interpolants to fit PES.
 PreDWI: IReCr0= 2 IReCr1= 1 IReCr2= 1 IReCr3= 1
 Modified Bulirsch-Stoer Extrapolation Cycles:
    EPS =    0.000010000000000
    Cycle     1 NS=    48
      PEZero:  N= 2 I= 1 D=  1.10D-04 Err=  1.72D-07
    Cycle     2 NS=    64 Truncation Error =  0.000000172
 BS completed in    2 cycles and     112 integration steps.
 Maximum DWI energy   std dev =  0.000000018 at pt    36
 Maximum DWI gradient std dev =  0.000551712 at pt    28
 SUMMARY OF CORRECTOR INTEGRATION:
   Predictor End Point Energy = -1199.705588
   Old End Point Energy       = -1199.705588
   Corrected End Point Energy = -1199.705588
   Predictor End-Start Dist.  =     0.021080
   Old End-Start Dist.        =     0.021080
   New End-Start Dist.        =     0.021080
   New End-Old End Dist.      =     0.000013
 CORRECTOR INTEGRATION CONVERGENCE:
   Recorrection delta-x convergence threshold:    0.010000
   Delta-x Convergence Met
 Point Number:   3          Path Number:   1
                    CURRENT STRUCTURE
                Cartesian Coordinates (Ang):                
 ---------------------------------------------------------------------
 Center     Atomic                     Coordinates (Angstroms)
 Number     Number                        X           Y           Z
 ---------------------------------------------------------------------
      1          6                   -1.511551    0.202903    0.827705
      2          6                   -0.496561   -0.307118   -0.229960
      3          9                   -0.310295   -1.621365    0.002738
      4          9                   -1.032688   -0.153732   -1.451033
      5         16                    1.823234    0.100551   -0.565572
      6          8                    2.451251   -0.795168    0.345222
      7          8                    1.905964   -0.041245   -1.979913
      8          8                    1.491165    1.476003   -0.038237
      9          9                   -2.651814   -0.469141    0.767233
     10          9                   -0.988203    0.062081    2.044135
     11          9                   -1.761879    1.497149    0.618879
     12          1                    0.399187    0.813269    0.013880
 ---------------------------------------------------------------------
   CHANGE IN THE REACTION COORDINATE =    0.02108
   NET REACTION COORDINATE UP TO THIS POINT =    0.06325
  # OF POINTS ALONG THE PATH =   3
  # OF STEPS =   1

 Calculating another point on the path.
 Point Number  4 in FORWARD path direction.
 Using LQA Reaction Path Following.
   LQA: T_Est iteration completed in    3 iterations.
 IRC-IRC-IRC-IRC-IRC-IRC-IRC-IRC-IRC-IRC-IRC-IRC-IRC-IRC-IRC-IRC-IRC-IRC
 Leave Link  123 at Fri May 23 03:46:12 2025, MaxMem=  3758096384 cpu:               0.1 elap:               0.0
 (Enter /apps/easybuild-2022/easybuild/software/Compiler/NVHPC/22.11-CUDA-11.7.0/Gaussian/g16c01-CUDA-11.7.0/g16/l202.exe)
                          Input orientation:                          
 ---------------------------------------------------------------------
 Center     Atomic      Atomic             Coordinates (Angstroms)
 Number     Number       Type             X           Y           Z
 ---------------------------------------------------------------------
      1          6           0       -1.511652    0.202890    0.827723
      2          6           0       -0.496911   -0.306847   -0.229787
      3          9           0       -0.310219   -1.621289    0.002725
      4          9           0       -1.032674   -0.153739   -1.451038
      5         16           0        1.823485    0.100887   -0.565515
      6          8           0        2.451136   -0.795240    0.345191
      7          8           0        1.905853   -0.041341   -1.979878
      8          8           0        1.491506    1.475801   -0.038387
      9          9           0       -2.651837   -0.469148    0.767241
     10          9           0       -0.988199    0.062078    2.044130
     11          9           0       -1.761879    1.497138    0.618880
     12          1           0        0.393493    0.804518    0.012392
 ---------------------------------------------------------------------
                    Distance matrix (angstroms):
                    1          2          3          4          5
     1  C    0.000000
     2  C    1.551727   0.000000
     3  F    2.334886   1.347840   0.000000
     4  F    2.355707   1.342363   2.188395   0.000000
     5  S    3.615890   2.379748   2.800265   3.001105   0.000000
     6  O    4.114947   3.043043   2.902537   3.971762   1.423508
     7  O    4.429630   2.984391   3.367184   2.987850   1.423881
     8  O    3.374820   2.677363   3.583277   3.320009   1.509457
     9  F    1.324883   2.379939   2.719391   2.764405   4.704220
    10  F    1.331720   2.355455   2.731431   3.502107   3.836316
    11  F    1.334656   2.361089   3.494503   2.746214   4.025810
[...]

 Cycle   5  Pass 1  IDiag  1:
 E= -1199.76074424110     Delta-E=       -0.000000005961 Rises=F Damp=F
 DIIS: error= 2.85D-06 at cycle   5 NSaved=   5.
 NSaved= 5 IEnMin= 5 EnMin= -1199.76074424110     IErMin= 5 ErrMin= 2.85D-06
 ErrMax= 2.85D-06  0.00D+00 EMaxC= 1.00D-01 BMatC= 2.12D-09 BMatP= 4.64D-09
 IDIUse=1 WtCom= 1.00D+00 WtEn= 0.00D+00
 Coeff-Com:  0.577D-02-0.756D-01 0.165D-01 0.536D+00 0.518D+00
 Coeff:      0.577D-02-0.756D-01 0.165D-01 0.536D+00 0.518D+00
 Gap=     0.383 Goal=   None    Shift=    0.000
 RMSDP=2.35D-07 MaxDP=7.23D-06 DE=-5.96D-09 OVMax= 1.13D-05

 Cycle   6  Pass 1  IDiag  1:
 E= -1199.76074424289     Delta-E=       -0.000000001794 Rises=F Damp=F
 DIIS: error= 4.19D-07 at cycle   6 NSaved=   6.
 NSaved= 6 IEnMin= 6 EnMin= -1199.76074424289     IErMin= 6 ErrMin= 4.19D-07
 ErrMax= 4.19D-07  0.00D+00 EMaxC= 1.00D-01 BMatC= 7.15D-11 BMatP= 2.12D-09
 IDIUse=1 WtCom= 1.00D+00 WtEn= 0.00D+00
 Coeff-Com:  0.232D-02-0.121D-01-0.231D-01-0.412D-01 0.663D-01 0.101D+01
 Coeff:      0.232D-02-0.121D-01-0.231D-01-0.412D-01 0.663D-01 0.101D+01
 Gap=     0.383 Goal=   None    Shift=    0.000
 RMSDP=1.60D-07 MaxDP=5.29D-06 DE=-1.79D-09 OVMax= 1.13D-05

 Cycle   7  Pass 1  IDiag  1:
 E= -1199.76074424305     Delta-E=       -0.000000000155 Rises=F Damp=F
 DIIS: error= 1.40D-07 at cycle   7 NSaved=   7.
 NSaved= 7 IEnMin= 7 EnMin= -1199.76074424305     IErMin= 7 ErrMin= 1.40D-07
 ErrMax= 1.40D-07  0.00D+00 EMaxC= 1.00D-01 BMatC= 6.98D-12 BMatP= 7.15D-11
 IDIUse=1 WtCom= 1.00D+00 WtEn= 0.00D+00
 Coeff-Com: -0.315D-03 0.661D-02-0.456D-02-0.506D-01-0.493D-01 0.536D-01
 Coeff-Com:  0.104D+01
 Coeff:     -0.315D-03 0.661D-02-0.456D-02-0.506D-01-0.493D-01 0.536D-01
 Coeff:      0.104D+01
 Gap=     0.383 Goal=   None    Shift=    0.000
 RMSDP=5.61D-08 MaxDP=1.93D-06 DE=-1.55D-10 OVMax= 4.29D-06

 Cycle   8  Pass 1  IDiag  1:
 E= -1199.76074424307     Delta-E=       -0.000000000017 Rises=F Damp=F
 DIIS: error= 1.04D-07 at cycle   8 NSaved=   8.
 NSaved= 8 IEnMin= 8 EnMin= -1199.76074424307     IErMin= 8 ErrMin= 1.04D-07
 ErrMax= 1.04D-07  0.00D+00 EMaxC= 1.00D-01 BMatC= 3.00D-12 BMatP= 6.98D-12
 IDIUse=1 WtCom= 1.00D+00 WtEn= 0.00D+00
 Coeff-Com: -0.414D-03 0.456D-02 0.237D-03-0.194D-01-0.320D-01-0.939D-01
 Coeff-Com:  0.519D+00 0.622D+00
 Coeff:     -0.414D-03 0.456D-02 0.237D-03-0.194D-01-0.320D-01-0.939D-01
 Coeff:      0.519D+00 0.622D+00
 Gap=     0.383 Goal=   None    Shift=    0.000
 RMSDP=1.68D-08 MaxDP=4.81D-07 DE=-1.73D-11 OVMax= 9.32D-07

 Cycle   9  Pass 1  IDiag  1:
 E= -1199.76074424305     Delta-E=        0.000000000015 Rises=F Damp=F
 DIIS: error= 5.26D-08 at cycle   9 NSaved=   9.
 NSaved= 9 IEnMin= 8 EnMin= -1199.76074424307     IErMin= 9 ErrMin= 5.26D-08
 ErrMax= 5.26D-08  0.00D+00 EMaxC= 1.00D-01 BMatC= 3.92D-13 BMatP= 3.00D-12
 IDIUse=1 WtCom= 1.00D+00 WtEn= 0.00D+00
 Coeff-Com: -0.123D-03 0.835D-03 0.731D-03-0.312D-04-0.614D-02-0.485D-01
 Coeff-Com:  0.496D-01 0.282D+00 0.722D+00
 Coeff:     -0.123D-03 0.835D-03 0.731D-03-0.312D-04-0.614D-02-0.485D-01
 Coeff:      0.496D-01 0.282D+00 0.722D+00
 Gap=     0.383 Goal=   None    Shift=    0.000
 RMSDP=6.21D-09 MaxDP=2.07D-07 DE= 1.46D-11 OVMax= 3.28D-07

 SCF Done:  E(RwB97XD) =  -1199.76074424     A.U. after    9 cycles
            NFock=  9  Conv=0.62D-08     -V/T= 2.0017
 KE= 1.197784212587D+03 PE=-4.615969957565D+03 EE= 1.333628167506D+03
 Leave Link  502 at Fri May 23 04:10:48 2025, MaxMem=  3758096384 cpu:              45.9 elap:               8.8
 (Enter /apps/easybuild-2022/easybuild/software/Compiler/NVHPC/22.11-CUDA-11.7.0/Gaussian/g16c01-CUDA-11.7.0/g16/l508.exe)
 QCSCF skips out because SCF is already converged.
 Leave Link  508 at Fri May 23 04:10:48 2025, MaxMem=  3758096384 cpu:               0.0 elap:               0.0
 (Enter /apps/easybuild-2022/easybuild/software/Compiler/NVHPC/22.11-CUDA-11.7.0/Gaussian/g16c01-CUDA-11.7.0/g16/l801.exe)
 DoSCS=F DFT=T ScalE2(SS,OS)=  1.000000  1.000000
 Range of M.O.s used for correlation:     1   257
 NBasis=   257 NAE=    49 NBE=    49 NFC=     0 NFV=     0
 NROrb=    257 NOA=    49 NOB=    49 NVA=   208 NVB=   208

 **** Warning!!: The largest alpha MO coefficient is  0.27276503D+02

 Leave Link  801 at Fri May 23 04:10:48 2025, MaxMem=  3758096384 cpu:               0.0 elap:               0.0
 (Enter /apps/easybuild-2022/easybuild/software/Compiler/NVHPC/22.11-CUDA-11.7.0/Gaussian/g16c01-CUDA-11.7.0/g16/l1101.exe)
 Leave Link 1101 at Fri May 23 04:10:48 2025, MaxMem=  3758096384 cpu:               0.0 elap:               0.0
 (Enter /apps/easybuild-2022/easybuild/software/Compiler/NVHPC/22.11-CUDA-11.7.0/Gaussian/g16c01-CUDA-11.7.0/g16/l1102.exe)
 Symmetrizing basis deriv contribution to polar:
 IMax=3 JMax=2 DiffMx= 0.00D+00
 Leave Link 1102 at Fri May 23 04:10:48 2025, MaxMem=  3758096384 cpu:               0.0 elap:               0.0
 (Enter /apps/easybuild-2022/easybuild/software/Compiler/NVHPC/22.11-CUDA-11.7.0/Gaussian/g16c01-CUDA-11.7.0/g16/l1110.exe)
 Leave Link 1110 at Fri May 23 04:10:48 2025, MaxMem=  3758096384 cpu:               0.0 elap:               0.0
 (Enter /apps/easybuild-2022/easybuild/software/Compiler/NVHPC/22.11-CUDA-11.7.0/Gaussian/g16c01-CUDA-11.7.0/g16/l1002.exe)
 Minotr:  Closed shell wavefunction.
 Leave Link 1002 at Fri May 23 04:10:48 2025, MaxMem=  3758096384 cpu:               0.0 elap:               0.0
 (Enter /apps/easybuild-2022/easybuild/software/Compiler/NVHPC/22.11-CUDA-11.7.0/Gaussian/g16c01-CUDA-11.7.0/g16/l701.exe)
 ... and contract with generalized density number  0.
 Compute integral first derivatives.
 R6Disp: Adding Grimme-D2 dispersion energy 1st derivatives to the gradient.
 Leave Link  701 at Fri May 23 04:10:48 2025, MaxMem=  3758096384 cpu:               0.3 elap:               0.1
 (Enter /apps/easybuild-2022/easybuild/software/Compiler/NVHPC/22.11-CUDA-11.7.0/Gaussian/g16c01-CUDA-11.7.0/g16/l702.exe)
 L702 exits ... SP integral derivatives will be done elsewhere.
 Leave Link  702 at Fri May 23 04:10:48 2025, MaxMem=  3758096384 cpu:               0.0 elap:               0.0
 (Enter /apps/easybuild-2022/easybuild/software/Compiler/NVHPC/22.11-CUDA-11.7.0/Gaussian/g16c01-CUDA-11.7.0/g16/l703.exe)
 Integral derivatives from FoFJK, PRISM(SPDF).
 Compute integral first derivatives, UseDBF=F ICtDFT=           0.
 Calling FoFJK, ICntrl=      2127 FMM=F ISym2X=0 I1Cent= 0 IOpClX= 0 NMat=1 NMatS=1 NMatT=0.
 FoFJK:  IHMeth= 1 ICntrl=    2127 DoSepK=T KAlg= 0 I1Cent=           0 FoldK=F
 IRaf=         1 NMat=       1 IRICut=       1 DoRegI=T DoRafI=F ISym2E= 0 IDoP0=0 IntGTp=1.
 FoFCou: FMM=F IPFlag=           0 FMFlag=      100000 FMFlg1=         800
         NFxFlg=           0 DoJE=F BraDBF=F KetDBF=F FulRan=T
         wScrn=  0.000000 ICntrl=      2527 IOpCl=  0 I1Cent=           0 NGrid=           0
         NMat0=    1 NMatS0=      1 NMatT0=    0 NMatD0=    1 NMtDS0=    0 NMtDT0=    0
 Symmetry not used in FoFCou.
 Leave Link  703 at Fri May 23 04:10:52 2025, MaxMem=  3758096384 cpu:              32.6 elap:               4.2
 (Enter /apps/easybuild-2022/easybuild/software/Compiler/NVHPC/22.11-CUDA-11.7.0/Gaussian/g16c01-CUDA-11.7.0/g16/l716.exe)
 Dipole        = 7.74144932D-02 1.06803638D-01 5.28057260D-02
 Polarizability= 0.00000000D+00 0.00000000D+00 0.00000000D+00
                 0.00000000D+00 0.00000000D+00 0.00000000D+00
 -------------------------------------------------------------------
 Center     Atomic                   Forces (Hartrees/Bohr)
 Number     Number              X              Y              Z
 -------------------------------------------------------------------
      1        6          -0.009116043   -0.002491822    0.001373092
      2        6          -0.011315438   -0.005049516    0.001374341
      3        9          -0.004714534   -0.005370360   -0.000624083
      4        9          -0.008202880   -0.001954130   -0.002214663
      5       16           0.047417657    0.021558531   -0.004023036
      6        8          -0.003182140   -0.003372161   -0.001356278
      7        8          -0.004228602   -0.005075172    0.000939926
      8        8           0.017204566    0.006344805   -0.002811758
      9        9          -0.017161589   -0.000821693    0.008241951
     10        9          -0.003148787   -0.001051947   -0.001651511
     11        9          -0.003191404   -0.001563605    0.000619747
     12        1          -0.000360804   -0.001152930    0.000132273
 -------------------------------------------------------------------
 Cartesian Forces:  Max     0.047417657 RMS     0.010417484
 Leave Link  716 at Fri May 23 04:10:52 2025, MaxMem=  3758096384 cpu:               0.0 elap:               0.0
 (Enter /apps/easybuild-2022/easybuild/software/Compiler/NVHPC/22.11-CUDA-11.7.0/Gaussian/g16c01-CUDA-11.7.0/g16/l123.exe)
 IRC-IRC-IRC-IRC-IRC-IRC-IRC-IRC-IRC-IRC-IRC-IRC-IRC-IRC-IRC-IRC-IRC-IRC
 Pt100 Step number   1 out of a maximum of  20
 Using modified Bulirsch-Stoer corrector integration.
   Using distance weighted interpolants to fit PES.
 PreDWI: IReCr0= 2 IReCr1= 1 IReCr2= 1 IReCr3= 1
 Modified Bulirsch-Stoer Extrapolation Cycles:
    EPS =    0.000010000000000
    Cycle     1 NS=    48
      PEZero:  N= 2 I= 1 D=  1.10D-04 Err=  9.69D-07
    Cycle     2 NS=    64 Truncation Error =  0.000000969
 BS completed in    2 cycles and     112 integration steps.
 Maximum DWI energy   std dev =  0.000000000 at pt    36
 Maximum DWI gradient std dev =  0.000090501 at pt    29
 SUMMARY OF CORRECTOR INTEGRATION:
   Predictor End Point Energy = -1199.760744
   Old End Point Energy       = -1199.760744
   Corrected End Point Energy = -1199.760744
   Predictor End-Start Dist.  =     0.021082
   Old End-Start Dist.        =     0.021082
   New End-Start Dist.        =     0.021082
   New End-Old End Dist.      =     0.000002
 CORRECTOR INTEGRATION CONVERGENCE:
   Recorrection delta-x convergence threshold:    0.010000
   Delta-x Convergence Met
 Point Number: 100          Path Number:   1
                    CURRENT STRUCTURE
                Cartesian Coordinates (Ang):                
 ---------------------------------------------------------------------
 Center     Atomic                     Coordinates (Angstroms)
 Number     Number                        X           Y           Z
 ---------------------------------------------------------------------
      1          6                   -1.552768    0.197711    0.837431
      2          6                   -0.610182   -0.335846   -0.212692
      3          9                   -0.305864   -1.617766    0.000576
      4          9                   -1.043540   -0.155792   -1.457446
      5         16                    1.901958    0.157687   -0.564768
      6          8                    2.432015   -0.811821    0.340117
      7          8                    1.884703   -0.062753   -1.975641
      8          8                    1.551050    1.463488   -0.058358
      9          9                   -2.680712   -0.472809    0.779442
     10          9                   -0.990647    0.060667    2.040723
     11          9                   -1.764990    1.494570    0.619770
     12          1                    0.208246    0.324256   -0.021474
 ---------------------------------------------------------------------
   CHANGE IN THE REACTION COORDINATE =    0.02108
   NET REACTION COORDINATE UP TO THIS POINT =    2.10812
  # OF POINTS ALONG THE PATH = 100
  # OF STEPS =   1

 Maximum number of steps reached.
 Calculation of FORWARD path complete.
 Reaction path calculation complete.
 
 Energies reported relative to the TS energy of       -1199.705288
 --------------------------------------------------------------------------
    Summary of reaction path following
 --------------------------------------------------------------------------
                        Energy    RxCoord
   1                    0.00000   0.00000
   2                   -0.00003   0.02109
   3                   -0.00013   0.04217
   4                   -0.00030   0.06325
   5                   -0.00053   0.08433
   6                   -0.00083   0.10541
   7                   -0.00120   0.12649
   8                   -0.00162   0.14757
   9                   -0.00211   0.16865
  10                   -0.00266   0.18973
  11                   -0.00326   0.21081
  12                   -0.00392   0.23190
  13                   -0.00463   0.25298
  14                   -0.00539   0.27406
  15                   -0.00619   0.29514
  16                   -0.00704   0.31622
  17                   -0.00793   0.33730
  18                   -0.00885   0.35839
  19                   -0.00980   0.37947
  20                   -0.01078   0.40055
  21                   -0.01178   0.42163
  22                   -0.01279   0.44271
  23                   -0.01382   0.46379
  24                   -0.01486   0.48488
  25                   -0.01591   0.50596
  26                   -0.01695   0.52704
  27                   -0.01799   0.54812
  28                   -0.01903   0.56920
  29                   -0.02004   0.59028
  30                   -0.02105   0.61136
  31                   -0.02203   0.63244
  32                   -0.02298   0.65353
  33                   -0.02392   0.67461
  34                   -0.02482   0.69569
  35                   -0.02569   0.71676
  36                   -0.02653   0.73784
  37                   -0.02735   0.75892
  38                   -0.02813   0.78000
  39                   -0.02888   0.80108
  40                   -0.02961   0.82215
  41                   -0.03032   0.84323
  42                   -0.03100   0.86431
  43                   -0.03166   0.88539
  44                   -0.03231   0.90647
  45                   -0.03294   0.92755
  46                   -0.03356   0.94863
  47                   -0.03417   0.96971
  48                   -0.03476   0.99079
  49                   -0.03535   1.01187
  50                   -0.03592   1.03295
  51                   -0.03648   1.05403
  52                   -0.03703   1.07511
  53                   -0.03757   1.09620
  54                   -0.03811   1.11728
  55                   -0.03863   1.13836
  56                   -0.03914   1.15944
  57                   -0.03965   1.18052
  58                   -0.04014   1.20160
  59                   -0.04063   1.22269
  60                   -0.04111   1.24377
  61                   -0.04158   1.26485
  62                   -0.04204   1.28593
  63                   -0.04249   1.30701
  64                   -0.04294   1.32809
  65                   -0.04338   1.34918
  66                   -0.04381   1.37026
  67                   -0.04423   1.39134
  68                   -0.04465   1.41242
  69                   -0.04506   1.43350
  70                   -0.04546   1.45458
  71                   -0.04586   1.47566
  72                   -0.04624   1.49675
  73                   -0.04663   1.51783
  74                   -0.04700   1.53891
  75                   -0.04738   1.55999
  76                   -0.04774   1.58107
  77                   -0.04810   1.60215
  78                   -0.04846   1.62324
  79                   -0.04880   1.64432
  80                   -0.04915   1.66540
  81                   -0.04949   1.68648
  82                   -0.04982   1.70756
  83                   -0.05015   1.72864
  84                   -0.05048   1.74973
  85                   -0.05080   1.77081
  86                   -0.05112   1.79189
  87                   -0.05143   1.81297
  88                   -0.05174   1.83405
  89                   -0.05204   1.85513
  90                   -0.05235   1.87622
  91                   -0.05264   1.89730
  92                   -0.05294   1.91838
  93                   -0.05323   1.93946
  94                   -0.05352   1.96054
  95                   -0.05381   1.98162
  96                   -0.05409   2.00271
  97                   -0.05437   2.02379
  98                   -0.05464   2.04487
  99                   -0.05492   2.06595
 100                   -0.05519   2.08703
 101                   -0.05546   2.10812
 --------------------------------------------------------------------------
 
 Total number of points:                  100
 Total number of gradient calculations:   100
 Total number of Hessian calculations:      0
 IRC-IRC-IRC-IRC-IRC-IRC-IRC-IRC-IRC-IRC-IRC-IRC-IRC-IRC-IRC-IRC-IRC-IRC
 Leave Link  123 at Fri May 23 04:10:52 2025, MaxMem=  3758096384 cpu:               0.0 elap:               0.0
 (Enter /apps/easybuild-2022/easybuild/software/Compiler/NVHPC/22.11-CUDA-11.7.0/Gaussian/g16c01-CUDA-11.7.0/g16/l202.exe)
                          Input orientation:                          
 ---------------------------------------------------------------------
 Center     Atomic      Atomic             Coordinates (Angstroms)
 Number     Number       Type             X           Y           Z
 ---------------------------------------------------------------------
      1          6           0       -1.552768    0.197711    0.837431
      2          6           0       -0.610182   -0.335846   -0.212691
      3          9           0       -0.305864   -1.617766    0.000576
      4          9           0       -1.043540   -0.155792   -1.457446
      5         16           0        1.901958    0.157687   -0.564768
      6          8           0        2.432015   -0.811821    0.340117
      7          8           0        1.884703   -0.062753   -1.975641
      8          8           0        1.551050    1.463488   -0.058358
      9          9           0       -2.680712   -0.472809    0.779442
     10          9           0       -0.990647    0.060667    2.040723
     11          9           0       -1.764990    1.494570    0.619770
     12          1           0        0.208247    0.324257   -0.021474
 ---------------------------------------------------------------------
                    Distance matrix (angstroms):
                    1          2          3          4          5
     1  C    0.000000
     2  C    1.508611   0.000000
     3  F    2.356067   1.334696   0.000000
     4  F    2.377128   1.330275   2.192570   0.000000
     5  S    3.728659   2.584257   2.889001   3.093720   0.000000
     6  O    4.140649   3.128436   2.874163   3.967504   1.428189
     7  O    4.449429   3.067087   3.334979   2.975196   1.428094
     8  O    3.469627   2.816442   3.598017   3.363245   1.443851
     9  F    1.313476   2.300040   2.749084   2.790072   4.817188
    10  F    1.335168   2.319451   2.729151   3.505259   3.894248
    11  F    1.332012   2.318834   3.492719   2.749365   4.078835
    12  H    1.963391   1.068703   2.009042   1.964544   1.786497
                    6          7          8          9         10
     6  O    0.000000
     7  O    2.494672   0.000000
     8  O    2.472228   2.473198   0.000000
     9  F    5.142753   5.348050   4.728527   0.000000
    10  F    3.920193   4.941058   3.582495   2.175258   0.000000
    11  F    4.797134   4.741484   3.384811   2.175919   2.162127
    12  H    2.523205   2.603661   1.761343   3.102074   2.399892
                   11         12
    11  F    0.000000
    12  H    2.382119   0.000000
 Symmetry turned off by external request.
 Stoichiometry    C2HF5O3S
 Rotational constants (GHZ):           1.6822105           0.6485117           0.6281182
 Leave Link  202 at Fri May 23 04:10:52 2025, MaxMem=  3758096384 cpu:               0.0 elap:               0.0
 (Enter /apps/easybuild-2022/easybuild/software/Compiler/NVHPC/22.11-CUDA-11.7.0/Gaussian/g16c01-CUDA-11.7.0/g16/l9999.exe)

 This type of calculation cannot be archived.


 ASKING DUMB QUESTIONS IS EASIER THAN CORECTING DUMB MISTAKES.
 Job cpu time:       0 days  2 hours 27 minutes 31.0 seconds.
 Elapsed time:       0 days  0 hours 25 minutes 11.6 seconds.
 File lengths (MBytes):  RWF=     31 Int=      0 D2E=      0 Chk=      8 Scr=      1
 Normal termination of Gaussian 16 at Fri May 23 04:10:52 2025.
done
