 Entering Gaussian System, Link 0=g16
 Initial command:
 /apps/easybuild-2022/easybuild/software/Compiler/NVHPC/22.11-CUDA-11.7.0/Gaussian/g16c01-CUDA-11.7.0/g16/l1.exe "/tmp/Gau-132408.inp" -scrdir="/tmp/"
 Entering Link 1 = /apps/easybuild-2022/easybuild/software/Compiler/NVHPC/22.11-CUDA-11.7.0/Gaussian/g16c01-CUDA-11.7.0/g16/l1.exe PID=    132409.
  
 Copyright (c) 1988-2019, Gaussian, Inc.  All Rights Reserved.
  
 This is part of the Gaussian(R) 16 program.  It is based on
 the Gaussian(R) 09 system (copyright 2009, Gaussian, Inc.),
 the Gaussian(R) 03 system (copyright 2003, Gaussian, Inc.),
 the Gaussian(R) 98 system (copyright 1998, Gaussian, Inc.),
 the Gaussian(R) 94 system (copyright 1995, Gaussian, Inc.),
 the Gaussian 92(TM) system (copyright 1992, Gaussian, Inc.),
 the Gaussian 90(TM) system (copyright 1990, Gaussian, Inc.),
 the Gaussian 88(TM) system (copyright 1988, Gaussian, Inc.),
 the Gaussian 86(TM) system (copyright 1986, Carnegie Mellon
 University), and the Gaussian 82(TM) system (copyright 1983,
 Carnegie Mellon University). Gaussian is a federally registered
 trademark of Gaussian, Inc.
  
 This software contains proprietary and confidential information,
 including trade secrets, belonging to Gaussian, Inc.
  
 This software is provided under written license and may be
 used, copied, transmitted, or stored only in accord with that
 written license.
  
 The following legend is applicable only to US Government
 contracts under FAR:
  
                    RESTRICTED RIGHTS LEGEND
  
 Use, reproduction and disclosure by the US Government is
 subject to restrictions as set forth in subparagraphs (a)
 and (c) of the Commercial Computer Software - Restricted
 Rights clause in FAR 52.227-19.
  
 Gaussian, Inc.
 340 Quinnipiac St., Bldg. 40, Wallingford CT 06492
  
  
 ---------------------------------------------------------------
 Warning -- This program may not be used in any manner that
 competes with the business of Gaussian, Inc. or will provide
 assistance to any competitor of Gaussian, Inc.  The licensee
 of this program is prohibited from giving any competitor of
 Gaussian, Inc. access to this program.  By using this program,
 the user acknowledges that Gaussian, Inc. is engaged in the
 business of creating and licensing software in the field of
 computational chemistry and represents and warrants to the
 licensee that it is not a competitor of Gaussian, Inc. and that
 it will not use this program in any manner prohibited above.
 ---------------------------------------------------------------
  

 Cite this work as:
 Gaussian 16, Revision C.01,
 M. J. Frisch, G. W. Trucks, H. B. Schlegel, G. E. Scuseria, 
 M. A. Robb, J. R. Cheeseman, G. Scalmani, V. Barone, 
 G. A. Petersson, H. Nakatsuji, X. Li, M. Caricato, A. V. Marenich, 
 J. Bloino, B. G. Janesko, R. Gomperts, B. Mennucci, H. P. Hratchian, 
 J. V. Ortiz, A. F. Izmaylov, J. L. Sonnenberg, D. Williams-Young, 
 F. Ding, F. Lipparini, F. Egidi, J. Goings, B. Peng, A. Petrone, 
 T. Henderson, D. Ranasinghe, V. G. Zakrzewski, J. Gao, N. Rega, 
 G. Zheng, W. Liang, M. Hada, M. Ehara, K. Toyota, R. Fukuda, 
 J. Hasegawa, M. Ishida, T. Nakajima, Y. Honda, O. Kitao, H. Nakai, 
 T. Vreven, K. Throssell, J. A. Montgomery, Jr., J. E. Peralta, 
 F. Ogliaro, M. J. Bearpark, J. J. Heyd, E. N. Brothers, K. N. Kudin, 
 V. N. Staroverov, T. A. Keith, R. Kobayashi, J. Normand, 
 K. Raghavachari, A. P. Rendell, J. C. Burant, S. S. Iyengar, 
 J. Tomasi, M. Cossi, J. M. Millam, M. Klene, C. Adamo, R. Cammi, 
 J. W. Ochterski, R. L. Martin, K. Morokuma, O. Farkas, 
 J. B. Foresman, and D. J. Fox, Gaussian, Inc., Wallingford CT, 2019.
 
 ******************************************
 Gaussian 16:  ES64L-G16RevC.01  3-Jul-2019
                23-May-2025 
 ******************************************
 %mem=28GB
 %chk=2003846667223680600001_intra_H_migration_5_12_IRC_R
 %nprocshared=8
 Will use up to    8 processors via shared memory.
 ----------------------------------------------------------------------
 #P wb97xd/6-311++G(d,p) Symm(None) scf(xqc) pop(None) geom(AllCheck,No
 KeepConstants) guess(Read) irc(RCFC,reverse,MaxPoints=100,StepSize=2)
 ----------------------------------------------------------------------
 1/10=5,18=10,22=2,26=3,29=20007,38=1,39=2,42=100,44=3,172=1/1,23;
 2/12=2,15=3,29=1,40=1/2;
 3/5=4,6=6,7=1111,11=2,14=-4,25=1,30=1,71=2,74=-58,116=-2,140=1/1,2,3;
 4/5=1/1;
 5/5=2,8=3,13=1,38=6/2,8;
 8/6=4,10=90,11=11/1;
 11/6=1,8=1,9=11,15=111,16=1,31=1/1,2,10;
 10/6=1,13=1,31=1/2;
 7/10=1,25=1,30=1/1,2,3,16;
 1/18=10,22=2,26=3,39=2,42=100,44=3/23(2);
 2/15=3,29=1/2;
 99/5=20/99;
 2/15=3,29=1/2;
 3/5=4,6=6,7=1111,11=2,14=-2,25=1,30=1,71=2,74=-58,140=1/1,2,3;
 4/5=5,16=3,69=1/1;
 5/5=2,8=3,13=1,38=5/2,8;
 8/6=4,10=90,11=11/1;
 11/6=1,8=1,9=11,15=111,16=1,31=1/1,2,10;
 10/6=1,13=1,31=1/2;
 7/10=1,25=1,30=1/1,2,3,16;
 1/18=10,22=2,26=3,39=2,42=100,44=3/23(-8);
 2/15=3,29=1/2;
 99/5=20,9=1/99;
 Leave Link    1 at Fri May 23 02:23:26 2025, MaxMem=  3758096384 cpu:               0.0 elap:               0.0
 (Enter /apps/easybuild-2022/easybuild/software/Compiler/NVHPC/22.11-CUDA-11.7.0/Gaussian/g16c01-CUDA-11.7.0/g16/l101.exe)
 Structure from the checkpoint file:  "2003846667223680600001_intra_H_migration_5_12_IRC_R.chk"
 ------------------------------
 Gaussian input prepared by ASE
 ------------------------------
 Charge =  0 Multiplicity = 1
 Redundant internal coordinates found in file.  (old form).
 C,0,-0.7484236361,0.3163334174,1.3193830041
 C,0,-0.1147534375,-0.0037851787,-0.0672767435
 F,0,-0.3856767973,-1.2650572261,-0.3859844557
 F,0,-0.6249627958,0.8121084188,-0.9879993678
 S,0,1.7530813139,0.2065475932,-0.1474014687
 O,0,2.3182459385,-0.0461257727,1.2451159216
 O,0,2.1973802472,-0.5621214934,-1.2644240372
 O,0,2.0270963704,1.7010700529,-0.0727974771
 F,0,-0.4027460317,-0.6028109408,2.2062968611
 F,0,-0.3596923679,1.5121943532,1.7460835469
 F,0,-2.0701235732,0.3153759302,1.1882520033
 H,0,2.4609987694,1.214302846,1.039045213
 Recover connectivity data from disk.
 ITRead=  0  0  0  0  0  0  0  0  0  0  0  0
 MicOpt= -1 -1 -1 -1 -1 -1 -1 -1 -1 -1 -1 -1
 NAtoms=     12 NQM=       12 NQMF=       0 NMMI=      0 NMMIF=      0
                NMic=       0 NMicF=      0.
                    Isotopes and Nuclear Properties:
 (Nuclear quadrupole moments (NQMom) in fm**2, nuclear magnetic moments (NMagM)
  in nuclear magnetons)

  Atom         1           2           3           4           5           6           7           8           9          10
 IAtWgt=          12          12          19          19          32          16          16          16          19          19
 AtmWgt=  12.0000000  12.0000000  18.9984032  18.9984032  31.9720718  15.9949146  15.9949146  15.9949146  18.9984032  18.9984032
 NucSpn=           0           0           1           1           0           0           0           0           1           1
 AtZEff=   3.6000000   3.6000000   6.7500000   6.7500000  13.6000000   5.6000000   5.6000000   5.6000000   6.7500000   6.7500000
 NQMom=    0.0000000   0.0000000   0.0000000   0.0000000   0.0000000   0.0000000   0.0000000   0.0000000   0.0000000   0.0000000
 NMagM=    0.0000000   0.0000000   2.6288670   2.6288670   0.0000000   0.0000000   0.0000000   0.0000000   2.6288670   2.6288670
 AtZNuc=   6.0000000   6.0000000   9.0000000   9.0000000  16.0000000   8.0000000   8.0000000   8.0000000   9.0000000   9.0000000

  Atom        11          12
 IAtWgt=          19           1
 AtmWgt=  18.9984032   1.0078250
 NucSpn=           1           1
 AtZEff=   6.7500000   1.0000000
 NQMom=    0.0000000   0.0000000
 NMagM=    2.6288670   2.7928460
 AtZNuc=   9.0000000   1.0000000
 Leave Link  101 at Fri May 23 02:23:26 2025, MaxMem=  3758096384 cpu:               0.2 elap:               0.2
 (Enter /apps/easybuild-2022/easybuild/software/Compiler/NVHPC/22.11-CUDA-11.7.0/Gaussian/g16c01-CUDA-11.7.0/g16/l123.exe)
 IRC-IRC-IRC-IRC-IRC-IRC-IRC-IRC-IRC-IRC-IRC-IRC-IRC-IRC-IRC-IRC-IRC-IRC
 ------------------------------------------------------------------------
 INPUT DATA FOR L123
 ------------------------------------------------------------------------
 GENERAL PARAMETERS:
 Rxn path following direction = Reverse
 Maximum points per path      = 100
 Step size                    =   0.020 bohr
 Integration scheme           = HPC                                 
    Redo corrector integration= Yes                                 
    DWI Weight Power          =  2
    DWI will use Hessian update vectors when possible.
    Max correction cycles     =  20
 Initial Hessian              = ReadFC from chk
 Hessian evaluation           = All updating
 Hessian updating method      = Bofill                              
 ------------------------------------------------------------------------
          ******** Start new reaction path calculation ********
 RCFC Option Requested - Data Read From Chk File:
 "2003846667223680600001_intra_H_migration_5_12_IRC_R.chk"
   Energy From Chk =  -1199.7658945

 Current Structure is TS -> form Hessian eigenvectors.
                            Recovering Hessian eigenvectors from chk file.
 Supplied step size of   0.0200 bohr.
    Integration on MW PES will use step size of   0.0209 sqrt(amu)*bohr.
 Point Number:   0          Path Number:   1
 Calculating another point on the path.
 Point Number  1 in REVERSE path direction.
 Using LQA Reaction Path Following.
 IRC-IRC-IRC-IRC-IRC-IRC-IRC-IRC-IRC-IRC-IRC-IRC-IRC-IRC-IRC-IRC-IRC-IRC
 Leave Link  123 at Fri May 23 02:23:26 2025, MaxMem=  3758096384 cpu:               0.0 elap:               0.0
 (Enter /apps/easybuild-2022/easybuild/software/Compiler/NVHPC/22.11-CUDA-11.7.0/Gaussian/g16c01-CUDA-11.7.0/g16/l202.exe)
                          Input orientation:                          
 ---------------------------------------------------------------------
 Center     Atomic      Atomic             Coordinates (Angstroms)
 Number     Number       Type             X           Y           Z
 ---------------------------------------------------------------------
      1          6           0       -1.147532    0.097659    0.912077
      2          6           0       -0.513873   -0.222413   -0.474621
      3          9           0       -0.784790   -1.483697   -0.793305
      4          9           0       -1.024103    0.593469   -1.395335
      5         16           0        1.354003   -0.012391   -0.554509
      6          8           0        1.918951   -0.265052    0.837556
      7          8           0        1.798244   -0.780687   -1.671811
      8          8           0        1.628156    1.482608   -0.479819
      9          9           0       -0.801875   -0.821458    1.798970
     10          9           0       -0.758815    1.293549    1.338759
     11          9           0       -2.469247    0.096726    0.780927
     12          1           0        2.060478    1.004004    0.625413
 ---------------------------------------------------------------------
                    Distance matrix (angstroms):
                    1          2          3          4          5
     1  C    0.000000
     2  C    1.557851   0.000000
     3  F    2.353847   1.328832   0.000000
     4  F    2.363306   1.331809   2.175852   0.000000
     5  S    2.901837   1.881343   2.606952   2.594117   0.000000
     6  O    3.088759   2.764464   3.384527   3.792682   1.523433
     7  O    4.015664   2.662859   2.817456   3.151252   1.426882
     8  O    3.399985   2.737775   3.836606   2.943334   1.521763
     9  F    1.323191   2.368758   2.675583   3.500713   3.292607
    10  F    1.327898   2.376233   3.501352   2.834742   3.123129
    11  F    1.328206   2.345579   2.795235   2.659194   4.051239
    12  H    3.345888   3.056379   4.036950   3.710337   1.710082
                    6          7          8          9         10
     6  O    0.000000
     7  O    2.564639   0.000000
     8  O    2.207794   2.563646   0.000000
     9  F    2.938844   4.336888   4.050512   0.000000
    10  F    3.138610   4.461449   3.006758   2.164925   0.000000
    11  F    4.403450   4.999725   4.505425   2.158611   2.160819
    12  H    1.294426   2.920809   1.279649   3.592020   2.922517
                   11         12
    11  F    0.000000
    12  H    4.622309   0.000000
 Symmetry turned off by external request.
 Stoichiometry    C2HF5O3S
 Rotational constants (GHZ):           1.5609598           0.8543519           0.7715644
 Leave Link  202 at Fri May 23 02:23:26 2025, MaxMem=  3758096384 cpu:               0.0 elap:               0.0
 (Enter /apps/easybuild-2022/easybuild/software/Compiler/NVHPC/22.11-CUDA-11.7.0/Gaussian/g16c01-CUDA-11.7.0/g16/l301.exe)
 Standard basis: 6-311++G(d,p) (5D, 7F)
 Ernie: Thresh=  0.10000D-02 Tol=  0.10000D-05 Strict=F.
   257 basis functions,   419 primitive gaussians,   268 cartesian basis functions
    49 alpha electrons       49 beta electrons
       nuclear repulsion energy       924.7294921101 Hartrees.
 IExCor= 4639 DFT=T Ex+Corr=wB97XD ExCW=0 ScaHFX=  1.000000
 ScaDFX=  1.000000  1.000000  1.000000  1.000000 ScalE2=  1.000000  1.000000
 IRadAn=      5 IRanWt=     -1 IRanGd=            0 ICorTp=0 IEmpDi=121
 HFx  wShort=  0.000000 wLong=  0.200000 cFull=  0.222036 cShort=  0.000000 cLong=  0.777964
 DFx  wShort=  0.000000 wLong=  0.200000 cFull=  0.000000 cShort=  0.000000 cLong=  1.000000
 NAtoms=   12 NActive=   12 NUniq=   12 SFac= 1.00D+00 NAtFMM=   60 NAOKFM=F Big=F
 Integral buffers will be    131072 words long.
 Raffenetti 2 integral format.
 Two-electron integral symmetry is turned off.
 R6Disp:  Grimme-D2 Dispersion energy=       -0.0056620023 Hartrees.
 Nuclear repulsion after empirical dispersion term =      924.7238301079 Hartrees.
 Leave Link  301 at Fri May 23 02:23:26 2025, MaxMem=  3758096384 cpu:               0.0 elap:               0.0
 (Enter /apps/easybuild-2022/easybuild/software/Compiler/NVHPC/22.11-CUDA-11.7.0/Gaussian/g16c01-CUDA-11.7.0/g16/l302.exe)
 NPDir=0 NMtPBC=     1 NCelOv=     1 NCel=       1 NClECP=     1 NCelD=      1
         NCelK=      1 NCelE2=     1 NClLst=     1 CellRange=     0.0.
 One-electron integrals computed using PRISM.
 NBasis=   257 RedAO= T EigKep=  6.09D-05  NBF=   257
 NBsUse=   257 1.00D-06 EigRej= -1.00D+00 NBFU=   257
 Precomputing XC quadrature grid using
 IXCGrd= 4 IRadAn=           5 IRanWt=          -1 IRanGd=           0 AccXCQ= 0.00D+00.
 Generated NRdTot=       0 NPtTot=           0 NUsed=           0 NTot=          32
 NSgBfM=   268   268   268   268   268 MxSgAt=    12 MxSgA2=    12.
 Leave Link  302 at Fri May 23 02:23:26 2025, MaxMem=  3758096384 cpu:               0.5 elap:               0.1
 (Enter /apps/easybuild-2022/easybuild/software/Compiler/NVHPC/22.11-CUDA-11.7.0/Gaussian/g16c01-CUDA-11.7.0/g16/l303.exe)
 DipDrv:  MaxL=1.
 Leave Link  303 at Fri May 23 02:23:26 2025, MaxMem=  3758096384 cpu:               0.1 elap:               0.0
 (Enter /apps/easybuild-2022/easybuild/software/Compiler/NVHPC/22.11-CUDA-11.7.0/Gaussian/g16c01-CUDA-11.7.0/g16/l401.exe)
 Initial guess from the checkpoint file:  "2003846667223680600001_intra_H_migration_5_12_IRC_R.chk"
 B after Tr=    -0.754243   -0.413182   -0.769753
         Rot=    1.000000    0.000022   -0.000010   -0.000022 Ang=   0.00 deg.
 Guess basis will be translated and rotated to current coordinates.
 JPrj=2 DoOrth=T DoCkMO=T.
 Leave Link  401 at Fri May 23 02:23:26 2025, MaxMem=  3758096384 cpu:               0.2 elap:               0.1
 (Enter /apps/easybuild-2022/easybuild/software/Compiler/NVHPC/22.11-CUDA-11.7.0/Gaussian/g16c01-CUDA-11.7.0/g16/l502.exe)
 Keep R1 ints in memory in canonical form, NReq=1117474633.
 FoFCou: FMM=F IPFlag=           0 FMFlag=           0 FMFlg1=           0
         NFxFlg=           0 DoJE=F BraDBF=F KetDBF=F FulRan=T
         wScrn=  0.000000 ICntrl=       600 IOpCl=  0 I1Cent=           0 NGrid=           0
         NMat0=    1 NMatS0=  33153 NMatT0=    0 NMatD0=    1 NMtDS0=    0 NMtDT0=    0
 Symmetry not used in FoFCou.
 Two-electron integral symmetry not used.
 Closed shell SCF:
 Using DIIS extrapolation, IDIIS=  1040.
 NGot=  3758096384 LenX=  2658793852 LenY=  2658721587
 Requested convergence on RMS density matrix=1.00D-08 within  32 cycles.
 Requested convergence on MAX density matrix=1.00D-06.
 Requested convergence on             energy=1.00D-06.
 No special actions if energy rises.

 Cycle   1  Pass 1  IDiag  1:
 E= -1199.76586913844    
 DIIS: error= 4.70D-04 at cycle   1 NSaved=   1.
 NSaved= 1 IEnMin= 1 EnMin= -1199.76586913844     IErMin= 1 ErrMin= 4.70D-04
 ErrMax= 4.70D-04  0.00D+00 EMaxC= 1.00D-01 BMatC= 3.93D-05 BMatP= 3.93D-05
 IDIUse=3 WtCom= 9.95D-01 WtEn= 4.70D-03
 Coeff-Com:  0.100D+01
 Coeff-En:   0.100D+01
 Coeff:      0.100D+01
 Gap=     0.466 Goal=   None    Shift=    0.000
 RMSDP=6.13D-05 MaxDP=2.68D-03              OVMax= 3.04D-03

 Cycle   2  Pass 1  IDiag  1:
 E= -1199.76591639309     Delta-E=       -0.000047254642 Rises=F Damp=F
 DIIS: error= 3.60D-04 at cycle   2 NSaved=   2.
 NSaved= 2 IEnMin= 2 EnMin= -1199.76591639309     IErMin= 2 ErrMin= 3.60D-04
 ErrMax= 3.60D-04  0.00D+00 EMaxC= 1.00D-01 BMatC= 7.84D-06 BMatP= 3.93D-05
 IDIUse=3 WtCom= 9.96D-01 WtEn= 3.60D-03
 Coeff-Com:  0.159D+00 0.841D+00
 Coeff-En:   0.000D+00 0.100D+01
 Coeff:      0.159D+00 0.841D+00
 Gap=     0.466 Goal=   None    Shift=    0.000
 RMSDP=2.18D-05 MaxDP=6.45D-04 DE=-4.73D-05 OVMax= 1.71D-03

 Cycle   3  Pass 1  IDiag  1:
 E= -1199.76591803594     Delta-E=       -0.000001642852 Rises=F Damp=F
 DIIS: error= 2.97D-04 at cycle   3 NSaved=   3.
 NSaved= 3 IEnMin= 3 EnMin= -1199.76591803594     IErMin= 3 ErrMin= 2.97D-04
 ErrMax= 2.97D-04  0.00D+00 EMaxC= 1.00D-01 BMatC= 9.23D-06 BMatP= 7.84D-06
 IDIUse=3 WtCom= 3.67D-01 WtEn= 6.33D-01
 Coeff-Com: -0.971D-01 0.552D+00 0.545D+00
 Coeff-En:   0.000D+00 0.430D+00 0.570D+00
 Coeff:     -0.357D-01 0.475D+00 0.561D+00
 Gap=     0.466 Goal=   None    Shift=    0.000
 RMSDP=2.49D-05 MaxDP=8.92D-04 DE=-1.64D-06 OVMax= 8.08D-04

 Cycle   4  Pass 1  IDiag  1:
 E= -1199.76592439659     Delta-E=       -0.000006360650 Rises=F Damp=F
 DIIS: error= 1.03D-04 at cycle   4 NSaved=   4.
 NSaved= 4 IEnMin= 4 EnMin= -1199.76592439659     IErMin= 4 ErrMin= 1.03D-04
 ErrMax= 1.03D-04  0.00D+00 EMaxC= 1.00D-01 BMatC= 5.78D-07 BMatP= 7.84D-06
 IDIUse=3 WtCom= 9.99D-01 WtEn= 1.03D-03
 Coeff-Com: -0.235D-03-0.187D+00 0.102D+00 0.109D+01
 Coeff-En:   0.000D+00 0.000D+00 0.000D+00 0.100D+01
 Coeff:     -0.235D-03-0.187D+00 0.102D+00 0.109D+01
 Gap=     0.466 Goal=   None    Shift=    0.000
 RMSDP=5.13D-06 MaxDP=1.59D-04 DE=-6.36D-06 OVMax= 4.75D-04

 Cycle   5  Pass 1  IDiag  1:
 E= -1199.76592499530     Delta-E=       -0.000000598714 Rises=F Damp=F
 DIIS: error= 5.41D-06 at cycle   5 NSaved=   5.
 NSaved= 5 IEnMin= 5 EnMin= -1199.76592499530     IErMin= 5 ErrMin= 5.41D-06
 ErrMax= 5.41D-06  0.00D+00 EMaxC= 1.00D-01 BMatC= 9.71D-09 BMatP= 5.78D-07
 IDIUse=1 WtCom= 1.00D+00 WtEn= 0.00D+00
 Coeff-Com:  0.818D-02-0.919D-01-0.298D-01 0.260D+00 0.853D+00
 Coeff:      0.818D-02-0.919D-01-0.298D-01 0.260D+00 0.853D+00
 Gap=     0.466 Goal=   None    Shift=    0.000
 RMSDP=1.66D-06 MaxDP=5.04D-05 DE=-5.99D-07 OVMax= 8.68D-05

 Cycle   6  Pass 1  IDiag  1:
 E= -1199.76592501053     Delta-E=       -0.000000015228 Rises=F Damp=F
 DIIS: error= 3.34D-06 at cycle   6 NSaved=   6.
 NSaved= 6 IEnMin= 6 EnMin= -1199.76592501053     IErMin= 6 ErrMin= 3.34D-06
 ErrMax= 3.34D-06  0.00D+00 EMaxC= 1.00D-01 BMatC= 3.22D-09 BMatP= 9.71D-09
 IDIUse=1 WtCom= 1.00D+00 WtEn= 0.00D+00
 Coeff-Com:  0.423D-02-0.276D-01-0.283D-01 0.204D-01 0.442D+00 0.589D+00
 Coeff:      0.423D-02-0.276D-01-0.283D-01 0.204D-01 0.442D+00 0.589D+00
 Gap=     0.466 Goal=   None    Shift=    0.000
 RMSDP=4.03D-07 MaxDP=1.08D-05 DE=-1.52D-08 OVMax= 2.02D-05

 Cycle   7  Pass 1  IDiag  1:
 E= -1199.76592501278     Delta-E=       -0.000000002254 Rises=F Damp=F
 DIIS: error= 4.80D-07 at cycle   7 NSaved=   7.
 NSaved= 7 IEnMin= 7 EnMin= -1199.76592501278     IErMin= 7 ErrMin= 4.80D-07
 ErrMax= 4.80D-07  0.00D+00 EMaxC= 1.00D-01 BMatC= 7.42D-11 BMatP= 3.22D-09
 IDIUse=1 WtCom= 1.00D+00 WtEn= 0.00D+00
 Coeff-Com: -0.424D-03 0.788D-02-0.106D-02-0.288D-01-0.382D-01 0.677D-01
 Coeff-Com:  0.993D+00
 Coeff:     -0.424D-03 0.788D-02-0.106D-02-0.288D-01-0.382D-01 0.677D-01
 Coeff:      0.993D+00
 Gap=     0.466 Goal=   None    Shift=    0.000
 RMSDP=1.60D-07 MaxDP=5.46D-06 DE=-2.25D-09 OVMax= 9.38D-06

 Cycle   8  Pass 1  IDiag  1:
 E= -1199.76592501302     Delta-E=       -0.000000000236 Rises=F Damp=F
 DIIS: error= 1.22D-07 at cycle   8 NSaved=   8.
 NSaved= 8 IEnMin= 8 EnMin= -1199.76592501302     IErMin= 8 ErrMin= 1.22D-07
 ErrMax= 1.22D-07  0.00D+00 EMaxC= 1.00D-01 BMatC= 3.45D-12 BMatP= 7.42D-11
 IDIUse=1 WtCom= 1.00D+00 WtEn= 0.00D+00
 Coeff-Com: -0.283D-03 0.277D-02 0.130D-02-0.643D-02-0.291D-01-0.165D-01
 Coeff-Com:  0.148D+00 0.900D+00
 Coeff:     -0.283D-03 0.277D-02 0.130D-02-0.643D-02-0.291D-01-0.165D-01
 Coeff:      0.148D+00 0.900D+00
 Gap=     0.466 Goal=   None    Shift=    0.000
 RMSDP=2.76D-08 MaxDP=7.74D-07 DE=-2.36D-10 OVMax= 2.00D-06

 Cycle   9  Pass 1  IDiag  1:
 E= -1199.76592501296     Delta-E=        0.000000000060 Rises=F Damp=F
 DIIS: error= 4.56D-08 at cycle   9 NSaved=   9.
 NSaved= 9 IEnMin= 8 EnMin= -1199.76592501302     IErMin= 9 ErrMin= 4.56D-08
 ErrMax= 4.56D-08  0.00D+00 EMaxC= 1.00D-01 BMatC= 1.53D-12 BMatP= 3.45D-12
 IDIUse=1 WtCom= 1.00D+00 WtEn= 0.00D+00
 Coeff-Com: -0.120D-03 0.908D-03 0.770D-03-0.142D-02-0.126D-01-0.131D-01
 Coeff-Com:  0.605D-02 0.460D+00 0.560D+00
 Coeff:     -0.120D-03 0.908D-03 0.770D-03-0.142D-02-0.126D-01-0.131D-01
 Coeff:      0.605D-02 0.460D+00 0.560D+00
 Gap=     0.466 Goal=   None    Shift=    0.000
 RMSDP=8.62D-09 MaxDP=2.25D-07 DE= 5.96D-11 OVMax= 4.36D-07

 SCF Done:  E(RwB97XD) =  -1199.76592501     A.U. after    9 cycles
            NFock=  9  Conv=0.86D-08     -V/T= 2.0020
 KE= 1.197374133703D+03 PE=-4.695384028039D+03 EE= 1.373520139215D+03
 Leave Link  502 at Fri May 23 02:23:35 2025, MaxMem=  3758096384 cpu:              47.1 elap:               9.0
 (Enter /apps/easybuild-2022/easybuild/software/Compiler/NVHPC/22.11-CUDA-11.7.0/Gaussian/g16c01-CUDA-11.7.0/g16/l508.exe)
 QCSCF skips out because SCF is already converged.
 Leave Link  508 at Fri May 23 02:23:36 2025, MaxMem=  3758096384 cpu:               0.0 elap:               0.0
 (Enter /apps/easybuild-2022/easybuild/software/Compiler/NVHPC/22.11-CUDA-11.7.0/Gaussian/g16c01-CUDA-11.7.0/g16/l801.exe)
 DoSCS=F DFT=T ScalE2(SS,OS)=  1.000000  1.000000
 Range of M.O.s used for correlation:     1   257
 NBasis=   257 NAE=    49 NBE=    49 NFC=     0 NFV=     0
 NROrb=    257 NOA=    49 NOB=    49 NVA=   208 NVB=   208

 **** Warning!!: The largest alpha MO coefficient is  0.40173606D+02

 Leave Link  801 at Fri May 23 02:23:36 2025, MaxMem=  3758096384 cpu:               0.0 elap:               0.0
 (Enter /apps/easybuild-2022/easybuild/software/Compiler/NVHPC/22.11-CUDA-11.7.0/Gaussian/g16c01-CUDA-11.7.0/g16/l1101.exe)
 Leave Link 1101 at Fri May 23 02:23:36 2025, MaxMem=  3758096384 cpu:               0.0 elap:               0.0
 (Enter /apps/easybuild-2022/easybuild/software/Compiler/NVHPC/22.11-CUDA-11.7.0/Gaussian/g16c01-CUDA-11.7.0/g16/l1102.exe)
 Symmetrizing basis deriv contribution to polar:
 IMax=3 JMax=2 DiffMx= 0.00D+00
 Leave Link 1102 at Fri May 23 02:23:36 2025, MaxMem=  3758096384 cpu:               0.1 elap:               0.0
 (Enter /apps/easybuild-2022/easybuild/software/Compiler/NVHPC/22.11-CUDA-11.7.0/Gaussian/g16c01-CUDA-11.7.0/g16/l1110.exe)
 Leave Link 1110 at Fri May 23 02:23:36 2025, MaxMem=  3758096384 cpu:               0.0 elap:               0.0
 (Enter /apps/easybuild-2022/easybuild/software/Compiler/NVHPC/22.11-CUDA-11.7.0/Gaussian/g16c01-CUDA-11.7.0/g16/l1002.exe)
 Minotr:  Closed shell wavefunction.
 Leave Link 1002 at Fri May 23 02:23:36 2025, MaxMem=  3758096384 cpu:               0.0 elap:               0.0
 (Enter /apps/easybuild-2022/easybuild/software/Compiler/NVHPC/22.11-CUDA-11.7.0/Gaussian/g16c01-CUDA-11.7.0/g16/l701.exe)
 ... and contract with generalized density number  0.
 Compute integral first derivatives.
 R6Disp: Adding Grimme-D2 dispersion energy 1st derivatives to the gradient.
 Leave Link  701 at Fri May 23 02:23:36 2025, MaxMem=  3758096384 cpu:               0.3 elap:               0.1
 (Enter /apps/easybuild-2022/easybuild/software/Compiler/NVHPC/22.11-CUDA-11.7.0/Gaussian/g16c01-CUDA-11.7.0/g16/l702.exe)
 L702 exits ... SP integral derivatives will be done elsewhere.
 Leave Link  702 at Fri May 23 02:23:36 2025, MaxMem=  3758096384 cpu:               0.0 elap:               0.0
 (Enter /apps/easybuild-2022/easybuild/software/Compiler/NVHPC/22.11-CUDA-11.7.0/Gaussian/g16c01-CUDA-11.7.0/g16/l703.exe)
 Integral derivatives from FoFJK, PRISM(SPDF).
 Compute integral first derivatives, UseDBF=F ICtDFT=           0.
 Calling FoFJK, ICntrl=      2127 FMM=F ISym2X=0 I1Cent= 0 IOpClX= 0 NMat=1 NMatS=1 NMatT=0.
 FoFJK:  IHMeth= 1 ICntrl=    2127 DoSepK=T KAlg= 0 I1Cent=           0 FoldK=F
 IRaf=         1 NMat=       1 IRICut=       1 DoRegI=T DoRafI=F ISym2E= 0 IDoP0=0 IntGTp=1.
 FoFCou: FMM=F IPFlag=           0 FMFlag=      100000 FMFlg1=         800
         NFxFlg=           0 DoJE=F BraDBF=F KetDBF=F FulRan=T
         wScrn=  0.000000 ICntrl=      2527 IOpCl=  0 I1Cent=           0 NGrid=           0
         NMat0=    1 NMatS0=      1 NMatT0=    0 NMatD0=    1 NMtDS0=    0 NMtDT0=    0
 Symmetry not used in FoFCou.
 Leave Link  703 at Fri May 23 02:23:40 2025, MaxMem=  3758096384 cpu:              34.5 elap:               4.4
 (Enter /apps/easybuild-2022/easybuild/software/Compiler/NVHPC/22.11-CUDA-11.7.0/Gaussian/g16c01-CUDA-11.7.0/g16/l716.exe)
 Dipole        =-3.66148996D-01 2.02102905D-01 3.85541375D-01
 Polarizability= 0.00000000D+00 0.00000000D+00 0.00000000D+00
                 0.00000000D+00 0.00000000D+00 0.00000000D+00
 -------------------------------------------------------------------
 Center     Atomic                   Forces (Hartrees/Bohr)
 Number     Number              X              Y              Z
 -------------------------------------------------------------------
      1        6           0.000046384   -0.000067467    0.000051125
      2        6           0.000009231    0.000077599   -0.000067406
      3        9           0.000051577    0.000059757    0.000005602
      4        9          -0.000087802    0.000062683   -0.000066956
      5       16           0.000384798   -0.002430577    0.001825581
      6        8          -0.000727403   -0.001174820   -0.001016449
      7        8          -0.000057414    0.000366410   -0.000272370
      8        8           0.000772399    0.000806543    0.001267860
      9        9          -0.000024746    0.000024899   -0.000022704
     10        9           0.000003678    0.000029956   -0.000016341
     11        9          -0.000000049    0.000006680   -0.000008984
     12        1          -0.000370652    0.002238337   -0.001678957
 -------------------------------------------------------------------
 Cartesian Forces:  Max     0.002430577 RMS     0.000806384
 Leave Link  716 at Fri May 23 02:23:40 2025, MaxMem=  3758096384 cpu:               0.0 elap:               0.0
 (Enter /apps/easybuild-2022/easybuild/software/Compiler/NVHPC/22.11-CUDA-11.7.0/Gaussian/g16c01-CUDA-11.7.0/g16/l123.exe)
 IRC-IRC-IRC-IRC-IRC-IRC-IRC-IRC-IRC-IRC-IRC-IRC-IRC-IRC-IRC-IRC-IRC-IRC
 Pt  1 Step number   1 out of a maximum of  20
 Using modified Bulirsch-Stoer corrector integration.
   Using distance weighted interpolants to fit PES.
 PreDWI: IReCr0= 2 IReCr1= 1 IReCr2= 1 IReCr3= 1
 Modified Bulirsch-Stoer Extrapolation Cycles:
    EPS =    0.000010000000000
    Cycle     1 NS=    48
      PEZero:  N= 2 I= 1 D=  5.43D-05 Err=  1.24D-04
    Cycle     2 NS=    64 Truncation Error =  0.000124013
      PEZero:  N= 3 I= 2 D=  5.43D-05 Err=  8.27D-05
      PEZero:  N= 3 I= 1 D=  1.09D-04 Err=  1.94D-09
    Cycle     3 NS=    96 Truncation Error =  0.000000002
 BS completed in    3 cycles and     208 integration steps.
 Maximum DWI energy   std dev =  0.000000017 at pt    34
 Maximum DWI gradient std dev =  0.003659187 at pt     1
 SUMMARY OF CORRECTOR INTEGRATION:
   Predictor End Point Energy = -1199.765925
   Old End Point Energy       = -1199.765925
   Corrected End Point Energy = -1199.765925
   Predictor End-Start Dist.  =     0.020869
   Old End-Start Dist.        =     0.020869
   New End-Start Dist.        =     0.020869
   New End-Old End Dist.      =     0.000026
 CORRECTOR INTEGRATION CONVERGENCE:
   Recorrection delta-x convergence threshold:    0.010000
   Delta-x Convergence Met
 Point Number:   1          Path Number:   1
                    CURRENT STRUCTURE
                Cartesian Coordinates (Ang):                
 ---------------------------------------------------------------------
 Center     Atomic                     Coordinates (Angstroms)
 Number     Number                        X           Y           Z
 ---------------------------------------------------------------------
      1          6                   -1.147532    0.097659    0.912077
      2          6                   -0.513873   -0.222413   -0.474620
      3          9                   -0.784790   -1.483697   -0.793306
      4          9                   -1.024103    0.593469   -1.395335
      5         16                    1.354003   -0.012391   -0.554509
      6          8                    1.918951   -0.265053    0.837555
      7          8                    1.798244   -0.780687   -1.671811
      8          8                    1.628155    1.482608   -0.479820
      9          9                   -0.801875   -0.821458    1.798970
     10          9                   -0.758815    1.293549    1.338758
     11          9                   -2.469247    0.096726    0.780928
     12          1                    2.060481    1.004011    0.625422
 ---------------------------------------------------------------------
   CHANGE IN THE REACTION COORDINATE =    0.02087
   NET REACTION COORDINATE UP TO THIS POINT =    0.02087
  # OF POINTS ALONG THE PATH =   1
  # OF STEPS =   1

 Calculating another point on the path.
 Point Number  2 in REVERSE path direction.
 Using LQA Reaction Path Following.
   LQA: T_Est iteration completed in    3 iterations.
 IRC-IRC-IRC-IRC-IRC-IRC-IRC-IRC-IRC-IRC-IRC-IRC-IRC-IRC-IRC-IRC-IRC-IRC
 Leave Link  123 at Fri May 23 02:23:40 2025, MaxMem=  3758096384 cpu:               0.1 elap:               0.1
 (Enter /apps/easybuild-2022/easybuild/software/Compiler/NVHPC/22.11-CUDA-11.7.0/Gaussian/g16c01-CUDA-11.7.0/g16/l202.exe)
                          Input orientation:                          
 ---------------------------------------------------------------------
 Center     Atomic      Atomic             Coordinates (Angstroms)
 Number     Number       Type             X           Y           Z
 ---------------------------------------------------------------------
      1          6           0       -1.147518    0.097637    0.912093
      2          6           0       -0.513870   -0.222389   -0.474642
      3          9           0       -0.784780   -1.483685   -0.793304
      4          9           0       -1.024121    0.593481   -1.395349
      5         16           0        1.354048   -0.012677   -0.554293
      6          8           0        1.918780   -0.265330    0.837316
      7          8           0        1.798230   -0.780601   -1.671875
      8          8           0        1.628337    1.482799   -0.479521
      9          9           0       -0.801880   -0.821453    1.798965
     10          9           0       -0.758814    1.293555    1.338755
     11          9           0       -2.469247    0.096727    0.780926
     12          1           0        2.059088    1.012371    0.619127
 ---------------------------------------------------------------------
                    Distance matrix (angstroms):
                    1          2          3          4          5
     1  C    0.000000
     2  C    1.557870   0.000000
     3  F    2.353835   1.328837   0.000000
     4  F    2.363340   1.331804   2.175859   0.000000
     5  S    2.901773   1.881340   2.606832   2.594319   0.000000
     6  O    3.088611   2.764211   3.384161   3.792495   1.522935
     7  O    4.015672   2.662851   2.817473   3.151227   1.426882
     8  O    3.400093   2.738017   3.836876   2.943664   1.522259
     9  F    1.323153   2.368780   2.675576   3.500725   3.292411
    10  F    1.327912   2.376235   3.501345   2.834751   3.123149
    11  F    1.328222   2.345588   2.795234   2.659196   4.051218
    12  H    3.347370   3.056317   4.038916   3.706718   1.710181
                    6          7          8          9         10
     6  O    0.000000
     7  O    2.564386   0.000000
     8  O    2.207797   2.563893   0.000000
     9  F    2.938713   4.336931   4.050559   0.000000
    10  F    3.138642   4.461445   3.006731   2.164926   0.000000
    11  F    4.403299   4.999730   4.505565   2.158604   2.160822
    12  H    1.303768   2.920870   1.270384   3.597230   2.921900
                   11         12
    11  F    0.000000
    12  H    4.622813   0.000000
 Symmetry turned off by external request.
 Stoichiometry    C2HF5O3S
 Rotational constants (GHZ):           1.5609604           0.8543347           0.7715780
 Leave Link  202 at Fri May 23 02:23:40 2025, MaxMem=  3758096384 cpu:               0.0 elap:               0.0
 (Enter /apps/easybuild-2022/easybuild/software/Compiler/NVHPC/22.11-CUDA-11.7.0/Gaussian/g16c01-CUDA-11.7.0/g16/l301.exe)
 Standard basis: 6-311++G(d,p) (5D, 7F)
 Ernie: Thresh=  0.10000D-02 Tol=  0.10000D-05 Strict=F.
   257 basis functions,   419 primitive gaussians,   268 cartesian basis functions
    49 alpha electrons       49 beta electrons
       nuclear repulsion energy       924.7290320422 Hartrees.
 IExCor= 4639 DFT=T Ex+Corr=wB97XD ExCW=0 ScaHFX=  1.000000
 ScaDFX=  1.000000  1.000000  1.000000  1.000000 ScalE2=  1.000000  1.000000
 IRadAn=      5 IRanWt=     -1 IRanGd=            0 ICorTp=0 IEmpDi=121
 HFx  wShort=  0.000000 wLong=  0.200000 cFull=  0.222036 cShort=  0.000000 cLong=  0.777964
 DFx  wShort=  0.000000 wLong=  0.200000 cFull=  0.000000 cShort=  0.000000 cLong=  1.000000
 NAtoms=   12 NActive=   12 NUniq=   12 SFac= 1.00D+00 NAtFMM=   60 NAOKFM=F Big=F
 Integral buffers will be    131072 words long.
 Raffenetti 2 integral format.
 Two-electron integral symmetry is turned off.
 R6Disp:  Grimme-D2 Dispersion energy=       -0.0056616211 Hartrees.
 Nuclear repulsion after empirical dispersion term =      924.7233704212 Hartrees.
 Leave Link  301 at Fri May 23 02:23:40 2025, MaxMem=  3758096384 cpu:               0.0 elap:               0.0
 (Enter /apps/easybuild-2022/easybuild/software/Compiler/NVHPC/22.11-CUDA-11.7.0/Gaussian/g16c01-CUDA-11.7.0/g16/l302.exe)
 NPDir=0 NMtPBC=     1 NCelOv=     1 NCel=       1 NClECP=     1 NCelD=      1
         NCelK=      1 NCelE2=     1 NClLst=     1 CellRange=     0.0.
 One-electron integrals computed using PRISM.
 NBasis=   257 RedAO= T EigKep=  6.10D-05  NBF=   257
 NBsUse=   257 1.00D-06 EigRej= -1.00D+00 NBFU=   257
 Precomputing XC quadrature grid using
 IXCGrd= 4 IRadAn=           5 IRanWt=          -1 IRanGd=           0 AccXCQ= 0.00D+00.
 Generated NRdTot=       0 NPtTot=           0 NUsed=           0 NTot=          32
 NSgBfM=   268   268   268   268   268 MxSgAt=    12 MxSgA2=    12.
 Leave Link  302 at Fri May 23 02:23:41 2025, MaxMem=  3758096384 cpu:               0.5 elap:               0.1
 (Enter /apps/easybuild-2022/easybuild/software/Compiler/NVHPC/22.11-CUDA-11.7.0/Gaussian/g16c01-CUDA-11.7.0/g16/l303.exe)
 DipDrv:  MaxL=1.
 Leave Link  303 at Fri May 23 02:23:41 2025, MaxMem=  3758096384 cpu:               0.1 elap:               0.0
 (Enter /apps/easybuild-2022/easybuild/software/Compiler/NVHPC/22.11-CUDA-11.7.0/Gaussian/g16c01-CUDA-11.7.0/g16/l401.exe)
 Initial guess from the checkpoint file:  "2003846667223680600001_intra_H_migration_5_12_IRC_R.chk"
 B after Tr=    -0.000012    0.000077   -0.000058
         Rot=    1.000000    0.000022   -0.000010   -0.000022 Ang=   0.00 deg.
 Guess basis will be translated and rotated to current coordinates.
 JPrj=2 DoOrth=T DoCkMO=T.
 Generating alternative initial guess.
 ExpMin= 3.60D-02 ExpMax= 9.34D+04 ExpMxC= 3.17D+03 IAcc=3 IRadAn=         5 AccDes= 0.00D+00
 Harris functional with IExCor= 4639 and IRadAn=       5 diagonalized for initial guess.
 HarFok:  IExCor= 4639 AccDes= 0.00D+00 IRadAn=         5 IDoV= 1 UseB2=F ITyADJ=14
 ICtDFT=  3500011 ScaDFX=  1.000000  1.000000  1.000000  1.000000
 FoFCou: FMM=F IPFlag=           0 FMFlag=      100000 FMFlg1=           0
         NFxFlg=           0 DoJE=T BraDBF=F KetDBF=T FulRan=T
         wScrn=  0.000000 ICntrl=       500 IOpCl=  0 I1Cent=   200000004 NGrid=           0
         NMat0=    1 NMatS0=      1 NMatT0=    0 NMatD0=    1 NMtDS0=    0 NMtDT0=    0
 Symmetry not used in FoFCou.
 Harris En= -1167.06005737441    
 Leave Link  401 at Fri May 23 02:23:41 2025, MaxMem=  3758096384 cpu:               2.4 elap:               0.4
 (Enter /apps/easybuild-2022/easybuild/software/Compiler/NVHPC/22.11-CUDA-11.7.0/Gaussian/g16c01-CUDA-11.7.0/g16/l502.exe)
 Keep R1 ints in memory in canonical form, NReq=1117474633.
 FoFCou: FMM=F IPFlag=           0 FMFlag=           0 FMFlg1=           0
         NFxFlg=           0 DoJE=F BraDBF=F KetDBF=F FulRan=T
         wScrn=  0.000000 ICntrl=       600 IOpCl=  0 I1Cent=           0 NGrid=           0
         NMat0=    1 NMatS0=  33153 NMatT0=    0 NMatD0=    1 NMtDS0=    0 NMtDT0=    0
 Symmetry not used in FoFCou.
 Two-electron integral symmetry not used.
 Closed shell SCF:
 Using DIIS extrapolation, IDIIS=  1040.
 NGot=  3758096384 LenX=  2658793852 LenY=  2658721587
 Requested convergence on RMS density matrix=1.00D-08 within  32 cycles.
 Requested convergence on MAX density matrix=1.00D-06.
 Requested convergence on             energy=1.00D-06.
 No special actions if energy rises.

 Cycle   1  Pass 1  IDiag  1:
 E= -1199.76596066120    
 DIIS: error= 4.67D-04 at cycle   1 NSaved=   1.
 NSaved= 1 IEnMin= 1 EnMin= -1199.76596066120     IErMin= 1 ErrMin= 4.67D-04
 ErrMax= 4.67D-04  0.00D+00 EMaxC= 1.00D-01 BMatC= 3.93D-05 BMatP= 3.93D-05
 IDIUse=3 WtCom= 9.95D-01 WtEn= 4.67D-03
 Coeff-Com:  0.100D+01
 Coeff-En:   0.100D+01
 Coeff:      0.100D+01
 Gap=     0.720 Goal=   None    Shift=    0.000
 RMSDP=6.12D-05 MaxDP=2.65D-03              OVMax= 3.01D-03

 Cycle   2  Pass 1  IDiag  1:
 E= -1199.76600782502     Delta-E=       -0.000047163823 Rises=F Damp=F
 DIIS: error= 3.59D-04 at cycle   2 NSaved=   2.
 NSaved= 2 IEnMin= 2 EnMin= -1199.76600782502     IErMin= 2 ErrMin= 3.59D-04
 ErrMax= 3.59D-04  0.00D+00 EMaxC= 1.00D-01 BMatC= 7.84D-06 BMatP= 3.93D-05
 IDIUse=3 WtCom= 9.96D-01 WtEn= 3.59D-03
 Coeff-Com:  0.160D+00 0.840D+00
 Coeff-En:   0.000D+00 0.100D+01
 Coeff:      0.159D+00 0.841D+00
 Gap=     0.466 Goal=   None    Shift=    0.000
 RMSDP=2.18D-05 MaxDP=6.48D-04 DE=-4.72D-05 OVMax= 1.71D-03

 Cycle   3  Pass 1  IDiag  1:
 E= -1199.76600946797     Delta-E=       -0.000001642946 Rises=F Damp=F
 DIIS: error= 2.96D-04 at cycle   3 NSaved=   3.
 NSaved= 3 IEnMin= 3 EnMin= -1199.76600946797     IErMin= 3 ErrMin= 2.96D-04
 ErrMax= 2.96D-04  0.00D+00 EMaxC= 1.00D-01 BMatC= 9.21D-06 BMatP= 7.84D-06
 IDIUse=3 WtCom= 3.67D-01 WtEn= 6.33D-01
 Coeff-Com: -0.970D-01 0.552D+00 0.545D+00
 Coeff-En:   0.000D+00 0.430D+00 0.570D+00
 Coeff:     -0.356D-01 0.475D+00 0.561D+00
 Gap=     0.466 Goal=   None    Shift=    0.000
 RMSDP=2.49D-05 MaxDP=8.68D-04 DE=-1.64D-06 OVMax= 8.03D-04

 Cycle   4  Pass 1  IDiag  1:
 E= -1199.76601582131     Delta-E=       -0.000006353346 Rises=F Damp=F
 DIIS: error= 1.02D-04 at cycle   4 NSaved=   4.
 NSaved= 4 IEnMin= 4 EnMin= -1199.76601582131     IErMin= 4 ErrMin= 1.02D-04
 ErrMax= 1.02D-04  0.00D+00 EMaxC= 1.00D-01 BMatC= 5.76D-07 BMatP= 7.84D-06
 IDIUse=3 WtCom= 9.99D-01 WtEn= 1.02D-03
 Coeff-Com: -0.380D-03-0.186D+00 0.102D+00 0.108D+01
 Coeff-En:   0.000D+00 0.000D+00 0.000D+00 0.100D+01
 Coeff:     -0.379D-03-0.186D+00 0.102D+00 0.108D+01
 Gap=     0.466 Goal=   None    Shift=    0.000
 RMSDP=5.11D-06 MaxDP=1.59D-04 DE=-6.35D-06 OVMax= 4.74D-04

 Cycle   5  Pass 1  IDiag  1:
 E= -1199.76601641714     Delta-E=       -0.000000595824 Rises=F Damp=F
 DIIS: error= 5.27D-06 at cycle   5 NSaved=   5.
 NSaved= 5 IEnMin= 5 EnMin= -1199.76601641714     IErMin= 5 ErrMin= 5.27D-06
 ErrMax= 5.27D-06  0.00D+00 EMaxC= 1.00D-01 BMatC= 9.92D-09 BMatP= 5.76D-07
 IDIUse=1 WtCom= 1.00D+00 WtEn= 0.00D+00
 Coeff-Com:  0.816D-02-0.928D-01-0.293D-01 0.266D+00 0.848D+00
 Coeff:      0.816D-02-0.928D-01-0.293D-01 0.266D+00 0.848D+00
 Gap=     0.466 Goal=   None    Shift=    0.000
 RMSDP=1.65D-06 MaxDP=4.29D-05 DE=-5.96D-07 OVMax= 8.67D-05

 Cycle   6  Pass 1  IDiag  1:
 E= -1199.76601643243     Delta-E=       -0.000000015294 Rises=F Damp=F
 DIIS: error= 3.25D-06 at cycle   6 NSaved=   6.
 NSaved= 6 IEnMin= 6 EnMin= -1199.76601643243     IErMin= 6 ErrMin= 3.25D-06
 ErrMax= 3.25D-06  0.00D+00 EMaxC= 1.00D-01 BMatC= 3.30D-09 BMatP= 9.92D-09
 IDIUse=1 WtCom= 1.00D+00 WtEn= 0.00D+00
 Coeff-Com:  0.425D-02-0.278D-01-0.284D-01 0.209D-01 0.441D+00 0.590D+00
 Coeff:      0.425D-02-0.278D-01-0.284D-01 0.209D-01 0.441D+00 0.590D+00
 Gap=     0.466 Goal=   None    Shift=    0.000
 RMSDP=4.23D-07 MaxDP=1.14D-05 DE=-1.53D-08 OVMax= 2.07D-05

 Cycle   7  Pass 1  IDiag  1:
 E= -1199.76601643488     Delta-E=       -0.000000002445 Rises=F Damp=F
 DIIS: error= 4.91D-07 at cycle   7 NSaved=   7.
 NSaved= 7 IEnMin= 7 EnMin= -1199.76601643488     IErMin= 7 ErrMin= 4.91D-07
 ErrMax= 4.91D-07  0.00D+00 EMaxC= 1.00D-01 BMatC= 7.86D-11 BMatP= 3.30D-09
 IDIUse=1 WtCom= 1.00D+00 WtEn= 0.00D+00
 Coeff-Com: -0.350D-03 0.736D-02-0.150D-02-0.283D-01-0.308D-01 0.740D-01
 Coeff-Com:  0.980D+00
 Coeff:     -0.350D-03 0.736D-02-0.150D-02-0.283D-01-0.308D-01 0.740D-01
 Coeff:      0.980D+00
 Gap=     0.466 Goal=   None    Shift=    0.000
 RMSDP=1.61D-07 MaxDP=5.44D-06 DE=-2.44D-09 OVMax= 9.33D-06

 Cycle   8  Pass 1  IDiag  1:
 E= -1199.76601643496     Delta-E=       -0.000000000080 Rises=F Damp=F
 DIIS: error= 1.72D-07 at cycle   8 NSaved=   8.
 NSaved= 8 IEnMin= 8 EnMin= -1199.76601643496     IErMin= 8 ErrMin= 1.72D-07
 ErrMax= 1.72D-07  0.00D+00 EMaxC= 1.00D-01 BMatC= 1.31D-11 BMatP= 7.86D-11
 IDIUse=1 WtCom= 1.00D+00 WtEn= 0.00D+00
 Coeff-Com: -0.363D-03 0.452D-02 0.874D-03-0.132D-01-0.357D-01 0.125D-02
 Coeff-Com:  0.391D+00 0.651D+00
 Coeff:     -0.363D-03 0.452D-02 0.874D-03-0.132D-01-0.357D-01 0.125D-02
 Coeff:      0.391D+00 0.651D+00
 Gap=     0.466 Goal=   None    Shift=    0.000
 RMSDP=3.07D-08 MaxDP=7.07D-07 DE=-7.96D-11 OVMax= 1.75D-06

 Cycle   9  Pass 1  IDiag  1:
 E= -1199.76601643502     Delta-E=       -0.000000000060 Rises=F Damp=F
 DIIS: error= 7.34D-08 at cycle   9 NSaved=   9.
 NSaved= 9 IEnMin= 9 EnMin= -1199.76601643502     IErMin= 9 ErrMin= 7.34D-08
 ErrMax= 7.34D-08  0.00D+00 EMaxC= 1.00D-01 BMatC= 4.05D-12 BMatP= 1.31D-11
 IDIUse=1 WtCom= 1.00D+00 WtEn= 0.00D+00
 Coeff-Com: -0.146D-03 0.115D-02 0.899D-03-0.195D-02-0.152D-01-0.151D-01
 Coeff-Com:  0.173D-01 0.374D+00 0.639D+00
 Coeff:     -0.146D-03 0.115D-02 0.899D-03-0.195D-02-0.152D-01-0.151D-01
 Coeff:      0.173D-01 0.374D+00 0.639D+00
 Gap=     0.466 Goal=   None    Shift=    0.000
 RMSDP=1.45D-08 MaxDP=3.81D-07 DE=-5.96D-11 OVMax= 8.93D-07

 Cycle  10  Pass 1  IDiag  1:
 E= -1199.76601643500     Delta-E=        0.000000000017 Rises=F Damp=F
 DIIS: error= 1.63D-08 at cycle  10 NSaved=  10.
 NSaved=10 IEnMin= 9 EnMin= -1199.76601643502     IErMin=10 ErrMin= 1.63D-08
 ErrMax= 1.63D-08  0.00D+00 EMaxC= 1.00D-01 BMatC= 7.67D-14 BMatP= 4.05D-12
 IDIUse=1 WtCom= 1.00D+00 WtEn= 0.00D+00
 Coeff-Com: -0.266D-05-0.843D-04 0.976D-04 0.446D-03-0.779D-04-0.219D-02
 Coeff-Com: -0.228D-01 0.117D-01 0.106D+00 0.907D+00
 Coeff:     -0.266D-05-0.843D-04 0.976D-04 0.446D-03-0.779D-04-0.219D-02
 Coeff:     -0.228D-01 0.117D-01 0.106D+00 0.907D+00
 Gap=     0.466 Goal=   None    Shift=    0.000
 RMSDP=3.97D-09 MaxDP=9.77D-08 DE= 1.68D-11 OVMax= 2.59D-07

 SCF Done:  E(RwB97XD) =  -1199.76601643     A.U. after   10 cycles
            NFock= 10  Conv=0.40D-08     -V/T= 2.0020
 KE= 1.197374361990D+03 PE=-4.695384138676D+03 EE= 1.373520389829D+03
 Leave Link  502 at Fri May 23 02:23:51 2025, MaxMem=  3758096384 cpu:              50.2 elap:               9.7
 (Enter /apps/easybuild-2022/easybuild/software/Compiler/NVHPC/22.11-CUDA-11.7.0/Gaussian/g16c01-CUDA-11.7.0/g16/l508.exe)
 QCSCF skips out because SCF is already converged.
 Leave Link  508 at Fri May 23 02:23:51 2025, MaxMem=  3758096384 cpu:               0.0 elap:               0.0
 (Enter /apps/easybuild-2022/easybuild/software/Compiler/NVHPC/22.11-CUDA-11.7.0/Gaussian/g16c01-CUDA-11.7.0/g16/l801.exe)
 DoSCS=F DFT=T ScalE2(SS,OS)=  1.000000  1.000000
 Range of M.O.s used for correlation:     1   257
 NBasis=   257 NAE=    49 NBE=    49 NFC=     0 NFV=     0
 NROrb=    257 NOA=    49 NOB=    49 NVA=   208 NVB=   208

 **** Warning!!: The largest alpha MO coefficient is  0.40150280D+02

 Leave Link  801 at Fri May 23 02:23:51 2025, MaxMem=  3758096384 cpu:               0.0 elap:               0.0
 (Enter /apps/easybuild-2022/easybuild/software/Compiler/NVHPC/22.11-CUDA-11.7.0/Gaussian/g16c01-CUDA-11.7.0/g16/l1101.exe)
 Leave Link 1101 at Fri May 23 02:23:51 2025, MaxMem=  3758096384 cpu:               0.0 elap:               0.0
 (Enter /apps/easybuild-2022/easybuild/software/Compiler/NVHPC/22.11-CUDA-11.7.0/Gaussian/g16c01-CUDA-11.7.0/g16/l1102.exe)
 Symmetrizing basis deriv contribution to polar:
 IMax=3 JMax=2 DiffMx= 0.00D+00
 Leave Link 1102 at Fri May 23 02:23:51 2025, MaxMem=  3758096384 cpu:               0.1 elap:               0.0
 (Enter /apps/easybuild-2022/easybuild/software/Compiler/NVHPC/22.11-CUDA-11.7.0/Gaussian/g16c01-CUDA-11.7.0/g16/l1110.exe)
 Leave Link 1110 at Fri May 23 02:23:51 2025, MaxMem=  3758096384 cpu:               0.0 elap:               0.0
 (Enter /apps/easybuild-2022/easybuild/software/Compiler/NVHPC/22.11-CUDA-11.7.0/Gaussian/g16c01-CUDA-11.7.0/g16/l1002.exe)
 Minotr:  Closed shell wavefunction.
 Leave Link 1002 at Fri May 23 02:23:51 2025, MaxMem=  3758096384 cpu:               0.0 elap:               0.0
 (Enter /apps/easybuild-2022/easybuild/software/Compiler/NVHPC/22.11-CUDA-11.7.0/Gaussian/g16c01-CUDA-11.7.0/g16/l701.exe)
 ... and contract with generalized density number  0.
 Compute integral first derivatives.
 R6Disp: Adding Grimme-D2 dispersion energy 1st derivatives to the gradient.
 Leave Link  701 at Fri May 23 02:23:51 2025, MaxMem=  3758096384 cpu:               0.3 elap:               0.1
 (Enter /apps/easybuild-2022/easybuild/software/Compiler/NVHPC/22.11-CUDA-11.7.0/Gaussian/g16c01-CUDA-11.7.0/g16/l702.exe)
 L702 exits ... SP integral derivatives will be done elsewhere.
 Leave Link  702 at Fri May 23 02:23:51 2025, MaxMem=  3758096384 cpu:               0.0 elap:               0.0
 (Enter /apps/easybuild-2022/easybuild/software/Compiler/NVHPC/22.11-CUDA-11.7.0/Gaussian/g16c01-CUDA-11.7.0/g16/l703.exe)
 Integral derivatives from FoFJK, PRISM(SPDF).
 Compute integral first derivatives, UseDBF=F ICtDFT=           0.
 Calling FoFJK, ICntrl=      2127 FMM=F ISym2X=0 I1Cent= 0 IOpClX= 0 NMat=1 NMatS=1 NMatT=0.
 FoFJK:  IHMeth= 1 ICntrl=    2127 DoSepK=T KAlg= 0 I1Cent=           0 FoldK=F
 IRaf=         1 NMat=       1 IRICut=       1 DoRegI=T DoRafI=F ISym2E= 0 IDoP0=0 IntGTp=1.
 FoFCou: FMM=F IPFlag=           0 FMFlag=      100000 FMFlg1=         800
         NFxFlg=           0 DoJE=F BraDBF=F KetDBF=F FulRan=T
         wScrn=  0.000000 ICntrl=      2527 IOpCl=  0 I1Cent=           0 NGrid=           0
         NMat0=    1 NMatS0=      1 NMatT0=    0 NMatD0=    1 NMtDS0=    0 NMtDT0=    0
 Symmetry not used in FoFCou.
 Leave Link  703 at Fri May 23 02:23:55 2025, MaxMem=  3758096384 cpu:              34.7 elap:               4.4
 (Enter /apps/easybuild-2022/easybuild/software/Compiler/NVHPC/22.11-CUDA-11.7.0/Gaussian/g16c01-CUDA-11.7.0/g16/l716.exe)
 Dipole        =-3.68166372D-01 2.15316845D-01 3.75597626D-01
 Polarizability= 0.00000000D+00 0.00000000D+00 0.00000000D+00
                 0.00000000D+00 0.00000000D+00 0.00000000D+00
 -------------------------------------------------------------------
 Center     Atomic                   Forces (Hartrees/Bohr)
 Number     Number              X              Y              Z
 -------------------------------------------------------------------
      1        6           0.000093636   -0.000142743    0.000100531
      2        6           0.000022144    0.000153580   -0.000135304
      3        9           0.000103750    0.000119735    0.000013625
      4        9          -0.000174523    0.000124436   -0.000137005
      5       16           0.000776792   -0.004845792    0.003665650
      6        8          -0.001459025   -0.002354193   -0.002032576
      7        8          -0.000113971    0.000731399   -0.000544743
      8        8           0.001533307    0.001626759    0.002502356
      9        9          -0.000053234    0.000051441   -0.000045657
     10        9           0.000009292    0.000064089   -0.000029811
     11        9          -0.000000363    0.000015199   -0.000019398
     12        1          -0.000737806    0.004456090   -0.003337665
 -------------------------------------------------------------------
 Cartesian Forces:  Max     0.004845792 RMS     0.001608608
 Leave Link  716 at Fri May 23 02:23:55 2025, MaxMem=  3758096384 cpu:               0.0 elap:               0.0
 (Enter /apps/easybuild-2022/easybuild/software/Compiler/NVHPC/22.11-CUDA-11.7.0/Gaussian/g16c01-CUDA-11.7.0/g16/l123.exe)
 IRC-IRC-IRC-IRC-IRC-IRC-IRC-IRC-IRC-IRC-IRC-IRC-IRC-IRC-IRC-IRC-IRC-IRC
 Pt  2 Step number   1 out of a maximum of  20
 Using modified Bulirsch-Stoer corrector integration.
   Using distance weighted interpolants to fit PES.
 PreDWI: IReCr0= 2 IReCr1= 1 IReCr2= 1 IReCr3= 1
 Modified Bulirsch-Stoer Extrapolation Cycles:
    EPS =    0.000010000000000
    Cycle     1 NS=    48
      PEZero:  N= 2 I= 1 D=  1.09D-04 Err=  1.68D-07
    Cycle     2 NS=    64 Truncation Error =  0.000000168
 BS completed in    2 cycles and     112 integration steps.
 Maximum DWI energy   std dev =  0.000000029 at pt    49
 Maximum DWI gradient std dev =  0.001163841 at pt    27
 SUMMARY OF CORRECTOR INTEGRATION:
   Predictor End Point Energy = -1199.766016
   Old End Point Energy       = -1199.766016
   Corrected End Point Energy = -1199.766016
   Predictor End-Start Dist.  =     0.020862
   Old End-Start Dist.        =     0.020862
   New End-Start Dist.        =     0.020862
   New End-Old End Dist.      =     0.000025
 CORRECTOR INTEGRATION CONVERGENCE:
   Recorrection delta-x convergence threshold:    0.010000
   Delta-x Convergence Met
 Point Number:   2          Path Number:   1
                    CURRENT STRUCTURE
                Cartesian Coordinates (Ang):                
 ---------------------------------------------------------------------
 Center     Atomic                     Coordinates (Angstroms)
 Number     Number                        X           Y           Z
 ---------------------------------------------------------------------
      1          6                   -1.147518    0.097637    0.912093
      2          6                   -0.513870   -0.222389   -0.474642
      3          9                   -0.784780   -1.483685   -0.793304
      4          9                   -1.024121    0.593481   -1.395349
      5         16                    1.354049   -0.012678   -0.554293
      6          8                    1.918779   -0.265331    0.837315
      7          8                    1.798230   -0.780601   -1.671875
      8          8                    1.628337    1.482799   -0.479522
      9          9                   -0.801880   -0.821453    1.798965
     10          9                   -0.758814    1.293555    1.338755
     11          9                   -2.469247    0.096727    0.780926
     12          1                    2.059090    1.012376    0.619136
 ---------------------------------------------------------------------
   CHANGE IN THE REACTION COORDINATE =    0.02086
   NET REACTION COORDINATE UP TO THIS POINT =    0.04173
  # OF POINTS ALONG THE PATH =   2
  # OF STEPS =   1

 Calculating another point on the path.
 Point Number  3 in REVERSE path direction.
 Using LQA Reaction Path Following.
   LQA: T_Est iteration completed in    3 iterations.
 IRC-IRC-IRC-IRC-IRC-IRC-IRC-IRC-IRC-IRC-IRC-IRC-IRC-IRC-IRC-IRC-IRC-IRC
 Leave Link  123 at Fri May 23 02:23:55 2025, MaxMem=  3758096384 cpu:               0.1 elap:               0.0
 (Enter /apps/easybuild-2022/easybuild/software/Compiler/NVHPC/22.11-CUDA-11.7.0/Gaussian/g16c01-CUDA-11.7.0/g16/l202.exe)
                          Input orientation:                          
 ---------------------------------------------------------------------
 Center     Atomic      Atomic             Coordinates (Angstroms)
 Number     Number       Type             X           Y           Z
 ---------------------------------------------------------------------
      1          6           0       -1.147503    0.097614    0.912108
      2          6           0       -0.513866   -0.222364   -0.474663
      3          9           0       -0.784769   -1.483673   -0.793303
      4          9           0       -1.024138    0.593494   -1.395362
      5         16           0        1.354095   -0.012965   -0.554075
      6          8           0        1.918607   -0.265610    0.837075
      7          8           0        1.798217   -0.780514   -1.671940
      8          8           0        1.628519    1.482992   -0.479226
      9          9           0       -0.801885   -0.821448    1.798961
     10          9           0       -0.758813    1.293561    1.338752
     11          9           0       -2.469247    0.096728    0.780924
     12          1           0        2.057701    1.020747    0.612860
 ---------------------------------------------------------------------
                    Distance matrix (angstroms):
                    1          2          3          4          5
     1  C    0.000000
     2  C    1.557889   0.000000
     3  F    2.353821   1.328842   0.000000
     4  F    2.363374   1.331799   2.175867   0.000000
     5  S    2.901709   1.881338   2.606713   2.594523   0.000000
     6  O    3.088460   2.763956   3.383792   3.792306   1.522433
     7  O    4.015679   2.662842   2.817490   3.151203   1.426884
     8  O    3.400203   2.738262   3.837149   2.943994   1.522760
     9  F    1.323115   2.368802   2.675569   3.500737   3.292214
    10  F    1.327928   2.376238   3.501338   2.834762   3.123169
    11  F    1.328239   2.345599   2.795233   2.659199   4.051197
    12  H    3.348888   3.056303   4.040922   3.703138   1.710367
                    6          7          8          9         10
     6  O    0.000000
     7  O    2.564132   0.000000
     8  O    2.207806   2.564142   0.000000
     9  F    2.938581   4.336975   4.050610   0.000000
    10  F    3.138673   4.461441   3.006706   2.164927   0.000000
    11  F    4.403147   4.999734   4.505706   2.158597   2.160825
    12  H    1.313138   2.920989   1.261158   3.602464   2.921318
                   11         12
    11  F    0.000000
    12  H    4.623344   0.000000
 Symmetry turned off by external request.
 Stoichiometry    C2HF5O3S
 Rotational constants (GHZ):           1.5609593           0.8543170           0.7715917
 Leave Link  202 at Fri May 23 02:23:56 2025, MaxMem=  3758096384 cpu:               0.0 elap:               0.0
 (Enter /apps/easybuild-2022/easybuild/software/Compiler/NVHPC/22.11-CUDA-11.7.0/Gaussian/g16c01-CUDA-11.7.0/g16/l301.exe)
 Standard basis: 6-311++G(d,p) (5D, 7F)
 Ernie: Thresh=  0.10000D-02 Tol=  0.10000D-05 Strict=F.
   257 basis functions,   419 primitive gaussians,   268 cartesian basis functions
    49 alpha electrons       49 beta electrons
       nuclear repulsion energy       924.7286695221 Hartrees.
 IExCor= 4639 DFT=T Ex+Corr=wB97XD ExCW=0 ScaHFX=  1.000000
 ScaDFX=  1.000000  1.000000  1.000000  1.000000 ScalE2=  1.000000  1.000000
 IRadAn=      5 IRanWt=     -1 IRanGd=            0 ICorTp=0 IEmpDi=121
 HFx  wShort=  0.000000 wLong=  0.200000 cFull=  0.222036 cShort=  0.000000 cLong=  0.777964
 DFx  wShort=  0.000000 wLong=  0.200000 cFull=  0.000000 cShort=  0.000000 cLong=  1.000000
 NAtoms=   12 NActive=   12 NUniq=   12 SFac= 1.00D+00 NAtFMM=   60 NAOKFM=F Big=F
 Integral buffers will be    131072 words long.
 Raffenetti 2 integral format.
 Two-electron integral symmetry is turned off.
 R6Disp:  Grimme-D2 Dispersion energy=       -0.0056612293 Hartrees.
 Nuclear repulsion after empirical dispersion term =      924.7230082928 Hartrees.
 Leave Link  301 at Fri May 23 02:23:56 2025, MaxMem=  3758096384 cpu:               0.0 elap:               0.0
 (Enter /apps/easybuild-2022/easybuild/software/Compiler/NVHPC/22.11-CUDA-11.7.0/Gaussian/g16c01-CUDA-11.7.0/g16/l302.exe)
 NPDir=0 NMtPBC=     1 NCelOv=     1 NCel=       1 NClECP=     1 NCelD=      1
         NCelK=      1 NCelE2=     1 NClLst=     1 CellRange=     0.0.
 One-electron integrals computed using PRISM.
 NBasis=   257 RedAO= T EigKep=  6.11D-05  NBF=   257
 NBsUse=   257 1.00D-06 EigRej= -1.00D+00 NBFU=   257
 Precomputing XC quadrature grid using
 IXCGrd= 4 IRadAn=           5 IRanWt=          -1 IRanGd=           0 AccXCQ= 0.00D+00.
 Generated NRdTot=       0 NPtTot=           0 NUsed=           0 NTot=          32
 NSgBfM=   268   268   268   268   268 MxSgAt=    12 MxSgA2=    12.
 Leave Link  302 at Fri May 23 02:23:56 2025, MaxMem=  3758096384 cpu:               0.5 elap:               0.1
 (Enter /apps/easybuild-2022/easybuild/software/Compiler/NVHPC/22.11-CUDA-11.7.0/Gaussian/g16c01-CUDA-11.7.0/g16/l303.exe)
 DipDrv:  MaxL=1.
 Leave Link  303 at Fri May 23 02:23:56 2025, MaxMem=  3758096384 cpu:               0.1 elap:               0.0
 (Enter /apps/easybuild-2022/easybuild/software/Compiler/NVHPC/22.11-CUDA-11.7.0/Gaussian/g16c01-CUDA-11.7.0/g16/l401.exe)
 Initial guess from the checkpoint file:  "2003846667223680600001_intra_H_migration_5_12_IRC_R.chk"
 B after Tr=    -0.000012    0.000077   -0.000058
         Rot=    1.000000    0.000022   -0.000010   -0.000022 Ang=   0.00 deg.
 Guess basis will be translated and rotated to current coordinates.
 JPrj=2 DoOrth=T DoCkMO=T.
 Generating alternative initial guess.
 ExpMin= 3.60D-02 ExpMax= 9.34D+04 ExpMxC= 3.17D+03 IAcc=3 IRadAn=         5 AccDes= 0.00D+00
 Harris functional with IExCor= 4639 and IRadAn=       5 diagonalized for initial guess.
 HarFok:  IExCor= 4639 AccDes= 0.00D+00 IRadAn=         5 IDoV= 1 UseB2=F ITyADJ=14
 ICtDFT=  3500011 ScaDFX=  1.000000  1.000000  1.000000  1.000000
 FoFCou: FMM=F IPFlag=           0 FMFlag=      100000 FMFlg1=           0
         NFxFlg=           0 DoJE=T BraDBF=F KetDBF=T FulRan=T
         wScrn=  0.000000 ICntrl=       500 IOpCl=  0 I1Cent=   200000004 NGrid=           0
         NMat0=    1 NMatS0=      1 NMatT0=    0 NMatD0=    1 NMtDS0=    0 NMtDT0=    0
 Symmetry not used in FoFCou.
 Harris En= -1167.06015654604    
 Leave Link  401 at Fri May 23 02:23:56 2025, MaxMem=  3758096384 cpu:               2.7 elap:               0.4
 (Enter /apps/easybuild-2022/easybuild/software/Compiler/NVHPC/22.11-CUDA-11.7.0/Gaussian/g16c01-CUDA-11.7.0/g16/l502.exe)
 Keep R1 ints in memory in canonical form, NReq=1117474633.
 FoFCou: FMM=F IPFlag=           0 FMFlag=           0 FMFlg1=           0
         NFxFlg=           0 DoJE=F BraDBF=F KetDBF=F FulRan=T
         wScrn=  0.000000 ICntrl=       600 IOpCl=  0 I1Cent=           0 NGrid=           0
         NMat0=    1 NMatS0=  33153 NMatT0=    0 NMatD0=    1 NMtDS0=    0 NMtDT0=    0
 Symmetry not used in FoFCou.
 Two-electron integral symmetry not used.
 Closed shell SCF:
 Using DIIS extrapolation, IDIIS=  1040.
 NGot=  3758096384 LenX=  2658793852 LenY=  2658721587
 Requested convergence on RMS density matrix=1.00D-08 within  32 cycles.
 Requested convergence on MAX density matrix=1.00D-06.
 Requested convergence on             energy=1.00D-06.
 No special actions if energy rises.

 Cycle   1  Pass 1  IDiag  1:
 E= -1199.76611224717    
 DIIS: error= 4.64D-04 at cycle   1 NSaved=   1.
 NSaved= 1 IEnMin= 1 EnMin= -1199.76611224717     IErMin= 1 ErrMin= 4.64D-04
 ErrMax= 4.64D-04  0.00D+00 EMaxC= 1.00D-01 BMatC= 3.92D-05 BMatP= 3.92D-05
 IDIUse=3 WtCom= 9.95D-01 WtEn= 4.64D-03
 Coeff-Com:  0.100D+01
 Coeff-En:   0.100D+01
 Coeff:      0.100D+01
 Gap=     0.720 Goal=   None    Shift=    0.000
 RMSDP=6.11D-05 MaxDP=2.62D-03              OVMax= 3.01D-03

 Cycle   2  Pass 1  IDiag  1:
 E= -1199.76615930939     Delta-E=       -0.000047062228 Rises=F Damp=F
 DIIS: error= 3.56D-04 at cycle   2 NSaved=   2.
 NSaved= 2 IEnMin= 2 EnMin= -1199.76615930939     IErMin= 2 ErrMin= 3.56D-04
 ErrMax= 3.56D-04  0.00D+00 EMaxC= 1.00D-01 BMatC= 7.83D-06 BMatP= 3.92D-05
 IDIUse=3 WtCom= 9.96D-01 WtEn= 3.56D-03
 Coeff-Com:  0.160D+00 0.840D+00
 Coeff-En:   0.000D+00 0.100D+01
 Coeff:      0.159D+00 0.841D+00
 Gap=     0.466 Goal=   None    Shift=    0.000
 RMSDP=2.18D-05 MaxDP=6.51D-04 DE=-4.71D-05 OVMax= 1.71D-03

 Cycle   3  Pass 1  IDiag  1:
 E= -1199.76616094753     Delta-E=       -0.000001638134 Rises=F Damp=F
 DIIS: error= 2.95D-04 at cycle   3 NSaved=   3.
 NSaved= 3 IEnMin= 3 EnMin= -1199.76616094753     IErMin= 3 ErrMin= 2.95D-04
 ErrMax= 2.95D-04  0.00D+00 EMaxC= 1.00D-01 BMatC= 9.19D-06 BMatP= 7.83D-06
 IDIUse=3 WtCom= 3.68D-01 WtEn= 6.32D-01
 Coeff-Com: -0.968D-01 0.551D+00 0.545D+00
 Coeff-En:   0.000D+00 0.430D+00 0.570D+00
 Coeff:     -0.356D-01 0.475D+00 0.561D+00
 Gap=     0.466 Goal=   None    Shift=    0.000
 RMSDP=2.48D-05 MaxDP=8.43D-04 DE=-1.64D-06 OVMax= 7.95D-04

 Cycle   4  Pass 1  IDiag  1:
 E= -1199.76616728576     Delta-E=       -0.000006338228 Rises=F Damp=F
 DIIS: error= 1.02D-04 at cycle   4 NSaved=   4.
 NSaved= 4 IEnMin= 4 EnMin= -1199.76616728576     IErMin= 4 ErrMin= 1.02D-04
 ErrMax= 1.02D-04  0.00D+00 EMaxC= 1.00D-01 BMatC= 5.72D-07 BMatP= 7.83D-06
 IDIUse=3 WtCom= 9.99D-01 WtEn= 1.02D-03
 Coeff-Com: -0.683D-03-0.184D+00 0.103D+00 0.108D+01
 Coeff-En:   0.000D+00 0.000D+00 0.000D+00 0.100D+01
 Coeff:     -0.682D-03-0.184D+00 0.103D+00 0.108D+01
 Gap=     0.466 Goal=   None    Shift=    0.000
 RMSDP=5.09D-06 MaxDP=1.60D-04 DE=-6.34D-06 OVMax= 4.71D-04

 Cycle   5  Pass 1  IDiag  1:
 E= -1199.76616787730     Delta-E=       -0.000000591550 Rises=F Damp=F
 DIIS: error= 5.19D-06 at cycle   5 NSaved=   5.
 NSaved= 5 IEnMin= 5 EnMin= -1199.76616787730     IErMin= 5 ErrMin= 5.19D-06
 ErrMax= 5.19D-06  0.00D+00 EMaxC= 1.00D-01 BMatC= 1.04D-08 BMatP= 5.72D-07
 IDIUse=1 WtCom= 1.00D+00 WtEn= 0.00D+00
 Coeff-Com:  0.812D-02-0.947D-01-0.279D-01 0.278D+00 0.836D+00
 Coeff:      0.812D-02-0.947D-01-0.279D-01 0.278D+00 0.836D+00
 Gap=     0.466 Goal=   None    Shift=    0.000
 RMSDP=1.66D-06 MaxDP=4.41D-05 DE=-5.92D-07 OVMax= 8.64D-05

 Cycle   6  Pass 1  IDiag  1:
 E= -1199.76616789282     Delta-E=       -0.000000015515 Rises=F Damp=F
 DIIS: error= 3.40D-06 at cycle   6 NSaved=   6.
 NSaved= 6 IEnMin= 6 EnMin= -1199.76616789282     IErMin= 6 ErrMin= 3.40D-06
 ErrMax= 3.40D-06  0.00D+00 EMaxC= 1.00D-01 BMatC= 3.49D-09 BMatP= 1.04D-08
 IDIUse=1 WtCom= 1.00D+00 WtEn= 0.00D+00
 Coeff-Com:  0.430D-02-0.283D-01-0.286D-01 0.219D-01 0.438D+00 0.593D+00
 Coeff:      0.430D-02-0.283D-01-0.286D-01 0.219D-01 0.438D+00 0.593D+00
 Gap=     0.466 Goal=   None    Shift=    0.000
 RMSDP=4.57D-07 MaxDP=1.26D-05 DE=-1.55D-08 OVMax= 2.18D-05

 Cycle   7  Pass 1  IDiag  1:
 E= -1199.76616789549     Delta-E=       -0.000000002666 Rises=F Damp=F
 DIIS: error= 5.08D-07 at cycle   7 NSaved=   7.
 NSaved= 7 IEnMin= 7 EnMin= -1199.76616789549     IErMin= 7 ErrMin= 5.08D-07
 ErrMax= 5.08D-07  0.00D+00 EMaxC= 1.00D-01 BMatC= 8.70D-11 BMatP= 3.49D-09
 IDIUse=1 WtCom= 1.00D+00 WtEn= 0.00D+00
 Coeff-Com: -0.215D-03 0.641D-02-0.233D-02-0.273D-01-0.175D-01 0.849D-01
 Coeff-Com:  0.956D+00
 Coeff:     -0.215D-03 0.641D-02-0.233D-02-0.273D-01-0.175D-01 0.849D-01
 Coeff:      0.956D+00
 Gap=     0.466 Goal=   None    Shift=    0.000
 RMSDP=1.63D-07 MaxDP=5.39D-06 DE=-2.67D-09 OVMax= 9.24D-06

 Cycle   8  Pass 1  IDiag  1:
 E= -1199.76616789556     Delta-E=       -0.000000000073 Rises=F Damp=F
 DIIS: error= 2.21D-07 at cycle   8 NSaved=   8.
 NSaved= 8 IEnMin= 8 EnMin= -1199.76616789556     IErMin= 8 ErrMin= 2.21D-07
 ErrMax= 2.21D-07  0.00D+00 EMaxC= 1.00D-01 BMatC= 2.89D-11 BMatP= 8.70D-11
 IDIUse=1 WtCom= 1.00D+00 WtEn= 0.00D+00
 Coeff-Com: -0.396D-03 0.527D-02 0.683D-03-0.161D-01-0.382D-01 0.607D-02
 Coeff-Com:  0.490D+00 0.553D+00
 Coeff:     -0.396D-03 0.527D-02 0.683D-03-0.161D-01-0.382D-01 0.607D-02
 Coeff:      0.490D+00 0.553D+00
 Gap=     0.466 Goal=   None    Shift=    0.000
 RMSDP=3.63D-08 MaxDP=8.50D-07 DE=-7.32D-11 OVMax= 1.85D-06

 Cycle   9  Pass 1  IDiag  1:
 E= -1199.76616789554     Delta-E=        0.000000000016 Rises=F Damp=F
 DIIS: error= 6.01D-08 at cycle   9 NSaved=   9.
 NSaved= 9 IEnMin= 8 EnMin= -1199.76616789556     IErMin= 9 ErrMin= 6.01D-08
 ErrMax= 6.01D-08  0.00D+00 EMaxC= 1.00D-01 BMatC= 3.07D-12 BMatP= 2.89D-11
 IDIUse=1 WtCom= 1.00D+00 WtEn= 0.00D+00
 Coeff-Com: -0.150D-03 0.120D-02 0.911D-03-0.206D-02-0.154D-01-0.154D-01
 Coeff-Com:  0.199D-01 0.248D+00 0.763D+00
 Coeff:     -0.150D-03 0.120D-02 0.911D-03-0.206D-02-0.154D-01-0.154D-01
 Coeff:      0.199D-01 0.248D+00 0.763D+00
 Gap=     0.466 Goal=   None    Shift=    0.000
 RMSDP=1.57D-08 MaxDP=3.88D-07 DE= 1.64D-11 OVMax= 1.08D-06

 Cycle  10  Pass 1  IDiag  1:
 E= -1199.76616789558     Delta-E=       -0.000000000037 Rises=F Damp=F
 DIIS: error= 1.75D-08 at cycle  10 NSaved=  10.
 NSaved=10 IEnMin=10 EnMin= -1199.76616789558     IErMin=10 ErrMin= 1.75D-08
 ErrMax= 1.75D-08  0.00D+00 EMaxC= 1.00D-01 BMatC= 8.73D-14 BMatP= 3.07D-12
 IDIUse=1 WtCom= 1.00D+00 WtEn= 0.00D+00
 Coeff-Com: -0.107D-04-0.230D-04 0.149D-03 0.352D-03-0.914D-03-0.296D-02
 Coeff-Com: -0.219D-01 0.147D-01 0.143D+00 0.868D+00
 Coeff:     -0.107D-04-0.230D-04 0.149D-03 0.352D-03-0.914D-03-0.296D-02
 Coeff:     -0.219D-01 0.147D-01 0.143D+00 0.868D+00
 Gap=     0.466 Goal=   None    Shift=    0.000
 RMSDP=3.92D-09 MaxDP=9.68D-08 DE=-3.73D-11 OVMax= 2.54D-07

 SCF Done:  E(RwB97XD) =  -1199.76616790     A.U. after   10 cycles
            NFock= 10  Conv=0.39D-08     -V/T= 2.0020
 KE= 1.197374799200D+03 PE=-4.695384676579D+03 EE= 1.373520701190D+03
 Leave Link  502 at Fri May 23 02:24:06 2025, MaxMem=  3758096384 cpu:              50.0 elap:               9.7
 (Enter /apps/easybuild-2022/easybuild/software/Compiler/NVHPC/22.11-CUDA-11.7.0/Gaussian/g16c01-CUDA-11.7.0/g16/l508.exe)
 QCSCF skips out because SCF is already converged.
 Leave Link  508 at Fri May 23 02:24:06 2025, MaxMem=  3758096384 cpu:               0.0 elap:               0.0
 (Enter /apps/easybuild-2022/easybuild/software/Compiler/NVHPC/22.11-CUDA-11.7.0/Gaussian/g16c01-CUDA-11.7.0/g16/l801.exe)
 DoSCS=F DFT=T ScalE2(SS,OS)=  1.000000  1.000000
 Range of M.O.s used for correlation:     1   257
 NBasis=   257 NAE=    49 NBE=    49 NFC=     0 NFV=     0
 NROrb=    257 NOA=    49 NOB=    49 NVA=   208 NVB=   208

 **** Warning!!: The largest alpha MO coefficient is  0.40120080D+02

 Leave Link  801 at Fri May 23 02:24:06 2025, MaxMem=  3758096384 cpu:               0.0 elap:               0.0
 (Enter /apps/easybuild-2022/easybuild/software/Compiler/NVHPC/22.11-CUDA-11.7.0/Gaussian/g16c01-CUDA-11.7.0/g16/l1101.exe)
 Leave Link 1101 at Fri May 23 02:24:06 2025, MaxMem=  3758096384 cpu:               0.0 elap:               0.0
 (Enter /apps/easybuild-2022/easybuild/software/Compiler/NVHPC/22.11-CUDA-11.7.0/Gaussian/g16c01-CUDA-11.7.0/g16/l1102.exe)
 Symmetrizing basis deriv contribution to polar:
 IMax=3 JMax=2 DiffMx= 0.00D+00
 Leave Link 1102 at Fri May 23 02:24:06 2025, MaxMem=  3758096384 cpu:               0.1 elap:               0.0
 (Enter /apps/easybuild-2022/easybuild/software/Compiler/NVHPC/22.11-CUDA-11.7.0/Gaussian/g16c01-CUDA-11.7.0/g16/l1110.exe)
 Leave Link 1110 at Fri May 23 02:24:06 2025, MaxMem=  3758096384 cpu:               0.0 elap:               0.0
 (Enter /apps/easybuild-2022/easybuild/software/Compiler/NVHPC/22.11-CUDA-11.7.0/Gaussian/g16c01-CUDA-11.7.0/g16/l1002.exe)
 Minotr:  Closed shell wavefunction.
 Leave Link 1002 at Fri May 23 02:24:06 2025, MaxMem=  3758096384 cpu:               0.0 elap:               0.0
 (Enter /apps/easybuild-2022/easybuild/software/Compiler/NVHPC/22.11-CUDA-11.7.0/Gaussian/g16c01-CUDA-11.7.0/g16/l701.exe)
 ... and contract with generalized density number  0.
 Compute integral first derivatives.
 R6Disp: Adding Grimme-D2 dispersion energy 1st derivatives to the gradient.
 Leave Link  701 at Fri May 23 02:24:06 2025, MaxMem=  3758096384 cpu:               0.4 elap:               0.1
 (Enter /apps/easybuild-2022/easybuild/software/Compiler/NVHPC/22.11-CUDA-11.7.0/Gaussian/g16c01-CUDA-11.7.0/g16/l702.exe)
 L702 exits ... SP integral derivatives will be done elsewhere.
 Leave Link  702 at Fri May 23 02:24:06 2025, MaxMem=  3758096384 cpu:               0.0 elap:               0.0
 (Enter /apps/easybuild-2022/easybuild/software/Compiler/NVHPC/22.11-CUDA-11.7.0/Gaussian/g16c01-CUDA-11.7.0/g16/l703.exe)
 Integral derivatives from FoFJK, PRISM(SPDF).
 Compute integral first derivatives, UseDBF=F ICtDFT=           0.
 Calling FoFJK, ICntrl=      2127 FMM=F ISym2X=0 I1Cent= 0 IOpClX= 0 NMat=1 NMatS=1 NMatT=0.
 FoFJK:  IHMeth= 1 ICntrl=    2127 DoSepK=T KAlg= 0 I1Cent=           0 FoldK=F
 IRaf=         1 NMat=       1 IRICut=       1 DoRegI=T DoRafI=F ISym2E= 0 IDoP0=0 IntGTp=1.
 FoFCou: FMM=F IPFlag=           0 FMFlag=      100000 FMFlg1=         800
         NFxFlg=           0 DoJE=F BraDBF=F KetDBF=F FulRan=T
         wScrn=  0.000000 ICntrl=      2527 IOpCl=  0 I1Cent=           0 NGrid=           0
         NMat0=    1 NMatS0=      1 NMatT0=    0 NMatD0=    1 NMtDS0=    0 NMtDT0=    0
 Symmetry not used in FoFCou.
 Leave Link  703 at Fri May 23 02:24:10 2025, MaxMem=  3758096384 cpu:              34.1 elap:               4.4
 (Enter /apps/easybuild-2022/easybuild/software/Compiler/NVHPC/22.11-CUDA-11.7.0/Gaussian/g16c01-CUDA-11.7.0/g16/l716.exe)
 Dipole        =-3.70129065D-01 2.28516587D-01 3.65768363D-01
 Polarizability= 0.00000000D+00 0.00000000D+00 0.00000000D+00
                 0.00000000D+00 0.00000000D+00 0.00000000D+00
 -------------------------------------------------------------------
 Center     Atomic                   Forces (Hartrees/Bohr)
 Number     Number              X              Y              Z
 -------------------------------------------------------------------
      1        6           0.000140481   -0.000216099    0.000148935
      2        6           0.000034489    0.000229840   -0.000202116
      3        9           0.000155784    0.000179274    0.000021334
      4        9          -0.000260468    0.000185609   -0.000206328
      5       16           0.001179133   -0.007237203    0.005512126
      6        8          -0.002190325   -0.003536421   -0.003050515
      7        8          -0.000171093    0.001095865   -0.000814721
      8        8           0.002278990    0.002460916    0.003695607
      9        9          -0.000081345    0.000077345   -0.000068016
     10        9           0.000014688    0.000097287   -0.000043396
     11        9          -0.000000523    0.000023588   -0.000029653
     12        1          -0.001099810    0.006639998   -0.004963258
 -------------------------------------------------------------------
 Cartesian Forces:  Max     0.007237203 RMS     0.002403183
 Leave Link  716 at Fri May 23 02:24:11 2025, MaxMem=  3758096384 cpu:               0.0 elap:               0.0
 (Enter /apps/easybuild-2022/easybuild/software/Compiler/NVHPC/22.11-CUDA-11.7.0/Gaussian/g16c01-CUDA-11.7.0/g16/l123.exe)
 IRC-IRC-IRC-IRC-IRC-IRC-IRC-IRC-IRC-IRC-IRC-IRC-IRC-IRC-IRC-IRC-IRC-IRC
 Pt  3 Step number   1 out of a maximum of  20
 Using modified Bulirsch-Stoer corrector integration.
   Using distance weighted interpolants to fit PES.
 PreDWI: IReCr0= 2 IReCr1= 1 IReCr2= 1 IReCr3= 1
 Modified Bulirsch-Stoer Extrapolation Cycles:
    EPS =    0.000010000000000
    Cycle     1 NS=    48
      PEZero:  N= 2 I= 1 D=  1.09D-04 Err=  1.77D-07
    Cycle     2 NS=    64 Truncation Error =  0.000000177
 BS completed in    2 cycles and     112 integration steps.
 Maximum DWI energy   std dev =  0.000000057 at pt    47
 Maximum DWI gradient std dev =  0.000732578 at pt    28
 SUMMARY OF CORRECTOR INTEGRATION:
   Predictor End Point Energy = -1199.766168
   Old End Point Energy       = -1199.766168
   Corrected End Point Energy = -1199.766168
   Predictor End-Start Dist.  =     0.020863
   Old End-Start Dist.        =     0.020863
   New End-Start Dist.        =     0.020863
   New End-Old End Dist.      =     0.000018
 CORRECTOR INTEGRATION CONVERGENCE:
   Recorrection delta-x convergence threshold:    0.010000
   Delta-x Convergence Met
 Point Number:   3          Path Number:   1
                    CURRENT STRUCTURE
                Cartesian Coordinates (Ang):                
 ---------------------------------------------------------------------
 Center     Atomic                     Coordinates (Angstroms)
 Number     Number                        X           Y           Z
 ---------------------------------------------------------------------
      1          6                   -1.147503    0.097614    0.912108
      2          6                   -0.513866   -0.222364   -0.474663
      3          9                   -0.784769   -1.483673   -0.793303
      4          9                   -1.024138    0.593494   -1.395363
      5         16                    1.354095   -0.012965   -0.554075
      6          8                    1.918606   -0.265610    0.837074
      7          8                    1.798217   -0.780514   -1.671940
      8          8                    1.628519    1.482993   -0.479227
      9          9                   -0.801885   -0.821448    1.798961
     10          9                   -0.758813    1.293561    1.338752
     11          9                   -2.469247    0.096729    0.780924
     12          1                    2.057701    1.020749    0.612865
 ---------------------------------------------------------------------
   CHANGE IN THE REACTION COORDINATE =    0.02086
   NET REACTION COORDINATE UP TO THIS POINT =    0.06259
  # OF POINTS ALONG THE PATH =   3
  # OF STEPS =   1

 Calculating another point on the path.
 Point Number  4 in REVERSE path direction.
 Using LQA Reaction Path Following.
   LQA: T_Est iteration completed in    3 iterations.
 IRC-IRC-IRC-IRC-IRC-IRC-IRC-IRC-IRC-IRC-IRC-IRC-IRC-IRC-IRC-IRC-IRC-IRC
 Leave Link  123 at Fri May 23 02:24:11 2025, MaxMem=  3758096384 cpu:               0.1 elap:               0.0
 (Enter /apps/easybuild-2022/easybuild/software/Compiler/NVHPC/22.11-CUDA-11.7.0/Gaussian/g16c01-CUDA-11.7.0/g16/l202.exe)
                          Input orientation:                          
 ---------------------------------------------------------------------
 Center     Atomic      Atomic             Coordinates (Angstroms)
 Number     Number       Type             X           Y           Z
 ---------------------------------------------------------------------
      1          6           0       -1.147488    0.097591    0.912124
      2          6           0       -0.513863   -0.222340   -0.474685
      3          9           0       -0.784759   -1.483661   -0.793301
      4          9           0       -1.024156    0.593506   -1.395376
      5         16           0        1.354142   -0.013253   -0.553855
      6          8           0        1.918432   -0.265892    0.836831
      7          8           0        1.798203   -0.780427   -1.672004
      8          8           0        1.628700    1.483190   -0.478933
      9          9           0       -0.801891   -0.821443    1.798956
     10          9           0       -0.758812    1.293568    1.338749
     11          9           0       -2.469247    0.096730    0.780922
     12          1           0        2.056312    1.029126    0.606603
 ---------------------------------------------------------------------
                    Distance matrix (angstroms):
                    1          2          3          4          5
     1  C    0.000000
     2  C    1.557907   0.000000
     3  F    2.353807   1.328846   0.000000
     4  F    2.363409   1.331795   2.175875   0.000000
     5  S    2.901643   1.881337   2.606594   2.594728   0.000000
     6  O    3.088309   2.763698   3.383420   3.792115   1.521926
     7  O    4.015686   2.662834   2.817508   3.151178   1.426886
     8  O    3.400315   2.738507   3.837423   2.944324   1.523265
     9  F    1.323077   2.368824   2.675561   3.500749   3.292016
    10  F    1.327945   2.376241   3.501331   2.834773   3.123189
    11  F    1.328255   2.345609   2.795231   2.659201   4.051176
    12  H    3.350438   3.056330   4.042959   3.699591   1.710631
                    6          7          8          9         10
     6  O    0.000000
     7  O    2.563875   0.000000
     8  O    2.207820   2.564392   0.000000
     9  F    2.938448   4.337019   4.050664   0.000000
    10  F    3.138705   4.461437   3.006682   2.164928   0.000000
    11  F    4.402993   4.999738   4.505849   2.158590   2.160829
    12  H    1.322531   2.921156   1.251965   3.607719   2.920769
                   11         12
    11  F    0.000000
    12  H    4.623898   0.000000
 Symmetry turned off by external request.
 Stoichiometry    C2HF5O3S
 Rotational constants (GHZ):           1.5609566           0.8542986           0.7716055
 Leave Link  202 at Fri May 23 02:24:11 2025, MaxMem=  3758096384 cpu:               0.0 elap:               0.0
 (Enter /apps/easybuild-2022/easybuild/software/Compiler/NVHPC/22.11-CUDA-11.7.0/Gaussian/g16c01-CUDA-11.7.0/g16/l301.exe)
 Standard basis: 6-311++G(d,p) (5D, 7F)
 Ernie: Thresh=  0.10000D-02 Tol=  0.10000D-05 Strict=F.
   257 basis functions,   419 primitive gaussians,   268 cartesian basis functions
    49 alpha electrons       49 beta electrons
       nuclear repulsion energy       924.7284774740 Hartrees.
 IExCor= 4639 DFT=T Ex+Corr=wB97XD ExCW=0 ScaHFX=  1.000000
 ScaDFX=  1.000000  1.000000  1.000000  1.000000 ScalE2=  1.000000  1.000000
 IRadAn=      5 IRanWt=     -1 IRanGd=            0 ICorTp=0 IEmpDi=121
 HFx  wShort=  0.000000 wLong=  0.200000 cFull=  0.222036 cShort=  0.000000 cLong=  0.777964
 DFx  wShort=  0.000000 wLong=  0.200000 cFull=  0.000000 cShort=  0.000000 cLong=  1.000000
 NAtoms=   12 NActive=   12 NUniq=   12 SFac= 1.00D+00 NAtFMM=   60 NAOKFM=F Big=F
 Integral buffers will be    131072 words long.
 Raffenetti 2 integral format.
 Two-electron integral symmetry is turned off.
 R6Disp:  Grimme-D2 Dispersion energy=       -0.0056608308 Hartrees.
 Nuclear repulsion after empirical dispersion term =      924.7228166432 Hartrees.
 Leave Link  301 at Fri May 23 02:24:11 2025, MaxMem=  3758096384 cpu:               0.0 elap:               0.0
 (Enter /apps/easybuild-2022/easybuild/software/Compiler/NVHPC/22.11-CUDA-11.7.0/Gaussian/g16c01-CUDA-11.7.0/g16/l302.exe)
 NPDir=0 NMtPBC=     1 NCelOv=     1 NCel=       1 NClECP=     1 NCelD=      1
         NCelK=      1 NCelE2=     1 NClLst=     1 CellRange=     0.0.
 One-electron integrals computed using PRISM.
 NBasis=   257 RedAO= T EigKep=  6.12D-05  NBF=   257
 NBsUse=   257 1.00D-06 EigRej= -1.00D+00 NBFU=   257
 Precomputing XC quadrature grid using
 IXCGrd= 4 IRadAn=           5 IRanWt=          -1 IRanGd=           0 AccXCQ= 0.00D+00.
[...]
 IDIUse=1 WtCom= 1.00D+00 WtEn= 0.00D+00
 Coeff-Com:  0.276D-02-0.462D-01-0.110D-01 0.497D+00 0.558D+00
 Coeff:      0.276D-02-0.462D-01-0.110D-01 0.497D+00 0.558D+00
 Gap=     0.463 Goal=   None    Shift=    0.000
 RMSDP=3.63D-07 MaxDP=2.27D-05 DE=-4.67D-09 OVMax= 9.08D-06

 Cycle   6  Pass 1  IDiag  1:
 E= -1199.81804984551     Delta-E=       -0.000000001116 Rises=F Damp=F
 DIIS: error= 5.05D-07 at cycle   6 NSaved=   6.
 NSaved= 6 IEnMin= 6 EnMin= -1199.81804984551     IErMin= 6 ErrMin= 5.05D-07
 ErrMax= 5.05D-07  0.00D+00 EMaxC= 1.00D-01 BMatC= 1.22D-10 BMatP= 1.57D-09
 IDIUse=1 WtCom= 1.00D+00 WtEn= 0.00D+00
 Coeff-Com:  0.278D-02-0.205D-01-0.167D-01 0.452D-01 0.231D+00 0.758D+00
 Coeff:      0.278D-02-0.205D-01-0.167D-01 0.452D-01 0.231D+00 0.758D+00
 Gap=     0.463 Goal=   None    Shift=    0.000
 RMSDP=1.02D-07 MaxDP=4.05D-06 DE=-1.12D-09 OVMax= 2.96D-06

 Cycle   7  Pass 1  IDiag  1:
 E= -1199.81804984561     Delta-E=       -0.000000000092 Rises=F Damp=F
 DIIS: error= 1.05D-07 at cycle   7 NSaved=   7.
 NSaved= 7 IEnMin= 7 EnMin= -1199.81804984561     IErMin= 7 ErrMin= 1.05D-07
 ErrMax= 1.05D-07  0.00D+00 EMaxC= 1.00D-01 BMatC= 6.11D-12 BMatP= 1.22D-10
 IDIUse=1 WtCom= 1.00D+00 WtEn= 0.00D+00
 Coeff-Com:  0.777D-03-0.410D-02-0.491D-02-0.107D-01 0.412D-01 0.234D+00
 Coeff-Com:  0.743D+00
 Coeff:      0.777D-03-0.410D-02-0.491D-02-0.107D-01 0.412D-01 0.234D+00
 Coeff:      0.743D+00
 Gap=     0.463 Goal=   None    Shift=    0.000
 RMSDP=3.27D-08 MaxDP=1.03D-06 DE=-9.23D-11 OVMax= 9.38D-07

 Cycle   8  Pass 1  IDiag  1:
 E= -1199.81804984562     Delta-E=       -0.000000000009 Rises=F Damp=F
 DIIS: error= 7.42D-08 at cycle   8 NSaved=   8.
 NSaved= 8 IEnMin= 8 EnMin= -1199.81804984562     IErMin= 8 ErrMin= 7.42D-08
 ErrMax= 7.42D-08  0.00D+00 EMaxC= 1.00D-01 BMatC= 1.46D-12 BMatP= 6.11D-12
 IDIUse=1 WtCom= 1.00D+00 WtEn= 0.00D+00
 Coeff-Com: -0.147D-03 0.179D-02 0.821D-03-0.117D-01-0.232D-01-0.323D-01
 Coeff-Com:  0.329D+00 0.736D+00
 Coeff:     -0.147D-03 0.179D-02 0.821D-03-0.117D-01-0.232D-01-0.323D-01
 Coeff:      0.329D+00 0.736D+00
 Gap=     0.463 Goal=   None    Shift=    0.000
 RMSDP=1.51D-08 MaxDP=5.20D-07 DE=-9.09D-12 OVMax= 3.93D-07

 Cycle   9  Pass 1  IDiag  1:
 E= -1199.81804984558     Delta-E=        0.000000000038 Rises=F Damp=F
 DIIS: error= 1.75D-08 at cycle   9 NSaved=   9.
 NSaved= 9 IEnMin= 8 EnMin= -1199.81804984562     IErMin= 9 ErrMin= 1.75D-08
 ErrMax= 1.75D-08  0.00D+00 EMaxC= 1.00D-01 BMatC= 8.98D-14 BMatP= 1.46D-12
 IDIUse=1 WtCom= 1.00D+00 WtEn= 0.00D+00
 Coeff-Com: -0.911D-04 0.796D-03 0.586D-03-0.283D-02-0.104D-01-0.264D-01
 Coeff-Com:  0.515D-01 0.252D+00 0.735D+00
 Coeff:     -0.911D-04 0.796D-03 0.586D-03-0.283D-02-0.104D-01-0.264D-01
 Coeff:      0.515D-01 0.252D+00 0.735D+00
 Gap=     0.463 Goal=   None    Shift=    0.000
 RMSDP=3.82D-09 MaxDP=1.08D-07 DE= 3.82D-11 OVMax= 1.10D-07

 SCF Done:  E(RwB97XD) =  -1199.81804985     A.U. after    9 cycles
            NFock=  9  Conv=0.38D-08     -V/T= 2.0020
 KE= 1.197416156107D+03 PE=-4.691509855272D+03 EE= 1.371745678650D+03
 Leave Link  502 at Fri May 23 02:47:41 2025, MaxMem=  3758096384 cpu:              45.6 elap:               8.7
 (Enter /apps/easybuild-2022/easybuild/software/Compiler/NVHPC/22.11-CUDA-11.7.0/Gaussian/g16c01-CUDA-11.7.0/g16/l508.exe)
 QCSCF skips out because SCF is already converged.
 Leave Link  508 at Fri May 23 02:47:41 2025, MaxMem=  3758096384 cpu:               0.0 elap:               0.0
 (Enter /apps/easybuild-2022/easybuild/software/Compiler/NVHPC/22.11-CUDA-11.7.0/Gaussian/g16c01-CUDA-11.7.0/g16/l801.exe)
 DoSCS=F DFT=T ScalE2(SS,OS)=  1.000000  1.000000
 Range of M.O.s used for correlation:     1   257
 NBasis=   257 NAE=    49 NBE=    49 NFC=     0 NFV=     0
 NROrb=    257 NOA=    49 NOB=    49 NVA=   208 NVB=   208

 **** Warning!!: The largest alpha MO coefficient is  0.35308683D+02

 Leave Link  801 at Fri May 23 02:47:41 2025, MaxMem=  3758096384 cpu:               0.0 elap:               0.0
 (Enter /apps/easybuild-2022/easybuild/software/Compiler/NVHPC/22.11-CUDA-11.7.0/Gaussian/g16c01-CUDA-11.7.0/g16/l1101.exe)
 Leave Link 1101 at Fri May 23 02:47:41 2025, MaxMem=  3758096384 cpu:               0.0 elap:               0.0
 (Enter /apps/easybuild-2022/easybuild/software/Compiler/NVHPC/22.11-CUDA-11.7.0/Gaussian/g16c01-CUDA-11.7.0/g16/l1102.exe)
 Symmetrizing basis deriv contribution to polar:
 IMax=3 JMax=2 DiffMx= 0.00D+00
 Leave Link 1102 at Fri May 23 02:47:41 2025, MaxMem=  3758096384 cpu:               0.0 elap:               0.0
 (Enter /apps/easybuild-2022/easybuild/software/Compiler/NVHPC/22.11-CUDA-11.7.0/Gaussian/g16c01-CUDA-11.7.0/g16/l1110.exe)
 Leave Link 1110 at Fri May 23 02:47:41 2025, MaxMem=  3758096384 cpu:               0.0 elap:               0.0
 (Enter /apps/easybuild-2022/easybuild/software/Compiler/NVHPC/22.11-CUDA-11.7.0/Gaussian/g16c01-CUDA-11.7.0/g16/l1002.exe)
 Minotr:  Closed shell wavefunction.
 Leave Link 1002 at Fri May 23 02:47:42 2025, MaxMem=  3758096384 cpu:               0.0 elap:               0.0
 (Enter /apps/easybuild-2022/easybuild/software/Compiler/NVHPC/22.11-CUDA-11.7.0/Gaussian/g16c01-CUDA-11.7.0/g16/l701.exe)
 ... and contract with generalized density number  0.
 Compute integral first derivatives.
 R6Disp: Adding Grimme-D2 dispersion energy 1st derivatives to the gradient.
 Leave Link  701 at Fri May 23 02:47:42 2025, MaxMem=  3758096384 cpu:               0.3 elap:               0.1
 (Enter /apps/easybuild-2022/easybuild/software/Compiler/NVHPC/22.11-CUDA-11.7.0/Gaussian/g16c01-CUDA-11.7.0/g16/l702.exe)
 L702 exits ... SP integral derivatives will be done elsewhere.
 Leave Link  702 at Fri May 23 02:47:42 2025, MaxMem=  3758096384 cpu:               0.0 elap:               0.0
 (Enter /apps/easybuild-2022/easybuild/software/Compiler/NVHPC/22.11-CUDA-11.7.0/Gaussian/g16c01-CUDA-11.7.0/g16/l703.exe)
 Integral derivatives from FoFJK, PRISM(SPDF).
 Compute integral first derivatives, UseDBF=F ICtDFT=           0.
 Calling FoFJK, ICntrl=      2127 FMM=F ISym2X=0 I1Cent= 0 IOpClX= 0 NMat=1 NMatS=1 NMatT=0.
 FoFJK:  IHMeth= 1 ICntrl=    2127 DoSepK=T KAlg= 0 I1Cent=           0 FoldK=F
 IRaf=         1 NMat=       1 IRICut=       1 DoRegI=T DoRafI=F ISym2E= 0 IDoP0=0 IntGTp=1.
 FoFCou: FMM=F IPFlag=           0 FMFlag=      100000 FMFlg1=         800
         NFxFlg=           0 DoJE=F BraDBF=F KetDBF=F FulRan=T
         wScrn=  0.000000 ICntrl=      2527 IOpCl=  0 I1Cent=           0 NGrid=           0
         NMat0=    1 NMatS0=      1 NMatT0=    0 NMatD0=    1 NMtDS0=    0 NMtDT0=    0
 Symmetry not used in FoFCou.
 Leave Link  703 at Fri May 23 02:47:46 2025, MaxMem=  3758096384 cpu:              33.8 elap:               4.3
 (Enter /apps/easybuild-2022/easybuild/software/Compiler/NVHPC/22.11-CUDA-11.7.0/Gaussian/g16c01-CUDA-11.7.0/g16/l716.exe)
 Dipole        =-2.27760461D-01 7.42002257D-01 3.93881660D-01
 Polarizability= 0.00000000D+00 0.00000000D+00 0.00000000D+00
                 0.00000000D+00 0.00000000D+00 0.00000000D+00
 -------------------------------------------------------------------
 Center     Atomic                   Forces (Hartrees/Bohr)
 Number     Number              X              Y              Z
 -------------------------------------------------------------------
      1        6          -0.000288993    0.000117024   -0.000594492
      2        6           0.001352756    0.001324067    0.000844319
      3        9           0.001698944    0.001874081   -0.000032782
      4        9           0.001112716    0.000653036    0.000143158
      5       16           0.008460525   -0.004345931    0.018399315
      6        8          -0.002453162   -0.020303409    0.003747835
      7        8          -0.001232906    0.011709116   -0.000024292
      8        8          -0.007190607    0.004529966   -0.020868006
      9        9          -0.000291964    0.000291570   -0.000186142
     10        9           0.000215093    0.000522995    0.000103668
     11        9          -0.000113752    0.000262611    0.000119940
     12        1          -0.001268649    0.003364874   -0.001652522
 -------------------------------------------------------------------
 Cartesian Forces:  Max     0.020868006 RMS     0.006533554
 Leave Link  716 at Fri May 23 02:47:46 2025, MaxMem=  3758096384 cpu:               0.0 elap:               0.0
 (Enter /apps/easybuild-2022/easybuild/software/Compiler/NVHPC/22.11-CUDA-11.7.0/Gaussian/g16c01-CUDA-11.7.0/g16/l123.exe)
 IRC-IRC-IRC-IRC-IRC-IRC-IRC-IRC-IRC-IRC-IRC-IRC-IRC-IRC-IRC-IRC-IRC-IRC
 Pt100 Step number   1 out of a maximum of  20
 Using modified Bulirsch-Stoer corrector integration.
   Using distance weighted interpolants to fit PES.
 PreDWI: IReCr0= 2 IReCr1= 1 IReCr2= 1 IReCr3= 1
 Modified Bulirsch-Stoer Extrapolation Cycles:
    EPS =    0.000010000000000
    Cycle     1 NS=    48
      PEZero:  N= 2 I= 1 D=  1.09D-04 Err=  1.04D-06
    Cycle     2 NS=    64 Truncation Error =  0.000001037
 BS completed in    2 cycles and     112 integration steps.
 Maximum DWI energy   std dev =  0.000000001 at pt    47
 Maximum DWI gradient std dev =  0.000310733 at pt    29
 SUMMARY OF CORRECTOR INTEGRATION:
   Predictor End Point Energy = -1199.818050
   Old End Point Energy       = -1199.818050
   Corrected End Point Energy = -1199.818050
   Predictor End-Start Dist.  =     0.020865
   Old End-Start Dist.        =     0.020865
   New End-Start Dist.        =     0.020864
   New End-Old End Dist.      =     0.000008
 CORRECTOR INTEGRATION CONVERGENCE:
   Recorrection delta-x convergence threshold:    0.010000
   Delta-x Convergence Met
 Point Number: 100          Path Number:   1
                    CURRENT STRUCTURE
                Cartesian Coordinates (Ang):                
 ---------------------------------------------------------------------
 Center     Atomic                     Coordinates (Angstroms)
 Number     Number                        X           Y           Z
 ---------------------------------------------------------------------
      1          6                   -1.146646    0.095819    0.910543
      2          6                   -0.509881   -0.214250   -0.475617
      3          9                   -0.781131   -1.479334   -0.793360
      4          9                   -1.025570    0.595974   -1.397304
      5         16                    1.375207   -0.047898   -0.500178
      6          8                    1.891478   -0.342926    0.814033
      7          8                    1.791669   -0.744322   -1.679008
      8          8                    1.616885    1.533911   -0.534264
      9          9                   -0.802835   -0.820826    1.798639
     10          9                   -0.758398    1.295122    1.338674
     11          9                   -2.469133    0.097201    0.781018
     12          1                    2.015695    1.719724    0.327859
 ---------------------------------------------------------------------
   CHANGE IN THE REACTION COORDINATE =    0.02086
   NET REACTION COORDINATE UP TO THIS POINT =    2.08641
  # OF POINTS ALONG THE PATH = 100
  # OF STEPS =   1

 Maximum number of steps reached.
 Calculation of REVERSE path complete.
 Reaction path calculation complete.
 
 Energies reported relative to the TS energy of       -1199.765894
 --------------------------------------------------------------------------
    Summary of reaction path following
 --------------------------------------------------------------------------
                        Energy    RxCoord
   1                   -0.05216  -2.08641
   2                   -0.05195  -2.06555
   3                   -0.05174  -2.04468
   4                   -0.05152  -2.02382
   5                   -0.05130  -2.00295
   6                   -0.05108  -1.98209
   7                   -0.05085  -1.96122
   8                   -0.05061  -1.94036
   9                   -0.05038  -1.91949
  10                   -0.05013  -1.89863
  11                   -0.04989  -1.87777
  12                   -0.04963  -1.85690
  13                   -0.04938  -1.83604
  14                   -0.04912  -1.81517
  15                   -0.04885  -1.79431
  16                   -0.04858  -1.77344
  17                   -0.04830  -1.75258
  18                   -0.04801  -1.73172
  19                   -0.04773  -1.71085
  20                   -0.04743  -1.68999
  21                   -0.04713  -1.66912
  22                   -0.04682  -1.64826
  23                   -0.04651  -1.62740
  24                   -0.04619  -1.60653
  25                   -0.04586  -1.58567
  26                   -0.04552  -1.56480
  27                   -0.04518  -1.54394
  28                   -0.04483  -1.52307
  29                   -0.04447  -1.50221
  30                   -0.04411  -1.48135
  31                   -0.04374  -1.46048
  32                   -0.04335  -1.43962
  33                   -0.04296  -1.41875
  34                   -0.04257  -1.39789
  35                   -0.04216  -1.37702
  36                   -0.04174  -1.35616
  37                   -0.04132  -1.33530
  38                   -0.04088  -1.31443
  39                   -0.04043  -1.29357
  40                   -0.03998  -1.27270
  41                   -0.03951  -1.25184
  42                   -0.03904  -1.23098
  43                   -0.03855  -1.21011
  44                   -0.03805  -1.18925
  45                   -0.03754  -1.16838
  46                   -0.03702  -1.14752
  47                   -0.03649  -1.12665
  48                   -0.03595  -1.10579
  49                   -0.03539  -1.08493
  50                   -0.03483  -1.06406
  51                   -0.03425  -1.04320
  52                   -0.03365  -1.02233
  53                   -0.03305  -1.00147
  54                   -0.03243  -0.98060
  55                   -0.03180  -0.95974
  56                   -0.03115  -0.93888
  57                   -0.03050  -0.91801
  58                   -0.02982  -0.89715
  59                   -0.02914  -0.87628
  60                   -0.02843  -0.85542
  61                   -0.02772  -0.83456
  62                   -0.02699  -0.81369
  63                   -0.02624  -0.79283
  64                   -0.02547  -0.77197
  65                   -0.02469  -0.75110
  66                   -0.02390  -0.73024
  67                   -0.02309  -0.70938
  68                   -0.02226  -0.68851
  69                   -0.02141  -0.66765
  70                   -0.02055  -0.64679
  71                   -0.01968  -0.62592
  72                   -0.01879  -0.60506
  73                   -0.01788  -0.58419
  74                   -0.01697  -0.56333
  75                   -0.01605  -0.54247
  76                   -0.01513  -0.52160
  77                   -0.01420  -0.50074
  78                   -0.01327  -0.47988
  79                   -0.01235  -0.45901
  80                   -0.01143  -0.43815
  81                   -0.01053  -0.41728
  82                   -0.00964  -0.39642
  83                   -0.00877  -0.37555
  84                   -0.00793  -0.35469
  85                   -0.00710  -0.33383
  86                   -0.00631  -0.31296
  87                   -0.00556  -0.29210
  88                   -0.00484  -0.27123
  89                   -0.00416  -0.25037
  90                   -0.00352  -0.22950
  91                   -0.00293  -0.20864
  92                   -0.00239  -0.18778
  93                   -0.00190  -0.16691
  94                   -0.00146  -0.14605
  95                   -0.00108  -0.12518
  96                   -0.00075  -0.10432
  97                   -0.00048  -0.08346
  98                   -0.00027  -0.06259
  99                   -0.00012  -0.04173
 100                   -0.00003  -0.02087
 101                    0.00000   0.00000
 --------------------------------------------------------------------------
 
 Total number of points:                  100
 Total number of gradient calculations:   100
 Total number of Hessian calculations:      0
 IRC-IRC-IRC-IRC-IRC-IRC-IRC-IRC-IRC-IRC-IRC-IRC-IRC-IRC-IRC-IRC-IRC-IRC
 Leave Link  123 at Fri May 23 02:47:46 2025, MaxMem=  3758096384 cpu:               0.0 elap:               0.0
 (Enter /apps/easybuild-2022/easybuild/software/Compiler/NVHPC/22.11-CUDA-11.7.0/Gaussian/g16c01-CUDA-11.7.0/g16/l202.exe)
                          Input orientation:                          
 ---------------------------------------------------------------------
 Center     Atomic      Atomic             Coordinates (Angstroms)
 Number     Number       Type             X           Y           Z
 ---------------------------------------------------------------------
      1          6           0       -1.146646    0.095819    0.910543
      2          6           0       -0.509881   -0.214250   -0.475617
      3          9           0       -0.781131   -1.479334   -0.793360
      4          9           0       -1.025570    0.595974   -1.397304
      5         16           0        1.375207   -0.047899   -0.500178
      6          8           0        1.891478   -0.342926    0.814033
      7          8           0        1.791669   -0.744322   -1.679008
      8          8           0        1.616885    1.533911   -0.534264
      9          9           0       -0.802835   -0.820826    1.798639
     10          9           0       -0.758398    1.295122    1.338674
     11          9           0       -2.469133    0.097201    0.781018
     12          1           0        2.015697    1.719726    0.327862
 ---------------------------------------------------------------------
                    Distance matrix (angstroms):
                    1          2          3          4          5
     1  C    0.000000
     2  C    1.556615   0.000000
     3  F    2.349041   1.332282   0.000000
     4  F    2.364524   1.331129   2.175179   0.000000
     5  S    2.893187   1.892574   2.604757   2.642563   0.000000
     6  O    3.071158   2.728788   3.319334   3.778983   1.442473
     7  O    4.005659   2.650709   2.818495   3.132504   1.431113
     8  O    3.434048   2.753660   3.859697   2.933792   1.600529
     9  F    1.321801   2.371918   2.674427   3.502997   3.259731
    10  F    1.331300   2.373102   3.499098   2.836506   3.120473
    11  F    1.328815   2.348360   2.795259   2.660401   4.054808
    12  H    3.602361   3.280913   4.394698   3.672645   2.054355
                    6          7          8          9         10
     6  O    0.000000
     7  O    2.527119   0.000000
     8  O    2.327193   2.555648   0.000000
     9  F    2.908120   4.339508   4.103934   0.000000
    10  F    3.159160   4.446186   3.034285   2.165820   0.000000
    11  F    4.382890   4.991424   4.526549   2.157515   2.161622
    12  H    2.122811   3.185788   0.967905   4.069609   2.982890
                   11         12
    11  F    0.000000
    12  H    4.790787   0.000000
 Symmetry turned off by external request.
 Stoichiometry    C2HF5O3S
 Rotational constants (GHZ):           1.5512191           0.8470396           0.7759901
 Leave Link  202 at Fri May 23 02:47:46 2025, MaxMem=  3758096384 cpu:               0.0 elap:               0.0
 (Enter /apps/easybuild-2022/easybuild/software/Compiler/NVHPC/22.11-CUDA-11.7.0/Gaussian/g16c01-CUDA-11.7.0/g16/l9999.exe)

 This type of calculation cannot be archived.


 The juvenile sea squirt wanders through the sea searching
 for a suitable rock or hunk of coral to cling to and make
 its home for life.  For this task it has a rudimentary
 nervous system.  When it finds its spot and takes root, it
 doesn't need its brain any more so it eats it.
 It's rather like getting tenure.

                               -- source unknown
 Job cpu time:       0 days  2 hours 22 minutes  0.5 seconds.
 Elapsed time:       0 days  0 hours 24 minutes  0.7 seconds.
 File lengths (MBytes):  RWF=     31 Int=      0 D2E=      0 Chk=      8 Scr=      1
 Normal termination of Gaussian 16 at Fri May 23 02:47:46 2025.
done
