 Entering Gaussian System, Link 0=g16
 Initial command:
 /apps/easybuild-2022/easybuild/software/Compiler/NVHPC/22.11-CUDA-11.7.0/Gaussian/g16c01-CUDA-11.7.0/g16/l1.exe "/tmp/Gau-152640.inp" -scrdir="/tmp/"
 Entering Link 1 = /apps/easybuild-2022/easybuild/software/Compiler/NVHPC/22.11-CUDA-11.7.0/Gaussian/g16c01-CUDA-11.7.0/g16/l1.exe PID=    152641.
  
 Copyright (c) 1988-2019, Gaussian, Inc.  All Rights Reserved.
  
 This is part of the Gaussian(R) 16 program.  It is based on
 the Gaussian(R) 09 system (copyright 2009, Gaussian, Inc.),
 the Gaussian(R) 03 system (copyright 2003, Gaussian, Inc.),
 the Gaussian(R) 98 system (copyright 1998, Gaussian, Inc.),
 the Gaussian(R) 94 system (copyright 1995, Gaussian, Inc.),
 the Gaussian 92(TM) system (copyright 1992, Gaussian, Inc.),
 the Gaussian 90(TM) system (copyright 1990, Gaussian, Inc.),
 the Gaussian 88(TM) system (copyright 1988, Gaussian, Inc.),
 the Gaussian 86(TM) system (copyright 1986, Carnegie Mellon
 University), and the Gaussian 82(TM) system (copyright 1983,
 Carnegie Mellon University). Gaussian is a federally registered
 trademark of Gaussian, Inc.
  
 This software contains proprietary and confidential information,
 including trade secrets, belonging to Gaussian, Inc.
  
 This software is provided under written license and may be
 used, copied, transmitted, or stored only in accord with that
 written license.
  
 The following legend is applicable only to US Government
 contracts under FAR:
  
                    RESTRICTED RIGHTS LEGEND
  
 Use, reproduction and disclosure by the US Government is
 subject to restrictions as set forth in subparagraphs (a)
 and (c) of the Commercial Computer Software - Restricted
 Rights clause in FAR 52.227-19.
  
 Gaussian, Inc.
 340 Quinnipiac St., Bldg. 40, Wallingford CT 06492
  
  
 ---------------------------------------------------------------
 Warning -- This program may not be used in any manner that
 competes with the business of Gaussian, Inc. or will provide
 assistance to any competitor of Gaussian, Inc.  The licensee
 of this program is prohibited from giving any competitor of
 Gaussian, Inc. access to this program.  By using this program,
 the user acknowledges that Gaussian, Inc. is engaged in the
 business of creating and licensing software in the field of
 computational chemistry and represents and warrants to the
 licensee that it is not a competitor of Gaussian, Inc. and that
 it will not use this program in any manner prohibited above.
 ---------------------------------------------------------------
  

 Cite this work as:
 Gaussian 16, Revision C.01,
 M. J. Frisch, G. W. Trucks, H. B. Schlegel, G. E. Scuseria, 
 M. A. Robb, J. R. Cheeseman, G. Scalmani, V. Barone, 
 G. A. Petersson, H. Nakatsuji, X. Li, M. Caricato, A. V. Marenich, 
 J. Bloino, B. G. Janesko, R. Gomperts, B. Mennucci, H. P. Hratchian, 
 J. V. Ortiz, A. F. Izmaylov, J. L. Sonnenberg, D. Williams-Young, 
 F. Ding, F. Lipparini, F. Egidi, J. Goings, B. Peng, A. Petrone, 
 T. Henderson, D. Ranasinghe, V. G. Zakrzewski, J. Gao, N. Rega, 
 G. Zheng, W. Liang, M. Hada, M. Ehara, K. Toyota, R. Fukuda, 
 J. Hasegawa, M. Ishida, T. Nakajima, Y. Honda, O. Kitao, H. Nakai, 
 T. Vreven, K. Throssell, J. A. Montgomery, Jr., J. E. Peralta, 
 F. Ogliaro, M. J. Bearpark, J. J. Heyd, E. N. Brothers, K. N. Kudin, 
 V. N. Staroverov, T. A. Keith, R. Kobayashi, J. Normand, 
 K. Raghavachari, A. P. Rendell, J. C. Burant, S. S. Iyengar, 
 J. Tomasi, M. Cossi, J. M. Millam, M. Klene, C. Adamo, R. Cammi, 
 J. W. Ochterski, R. L. Martin, K. Morokuma, O. Farkas, 
 J. B. Foresman, and D. J. Fox, Gaussian, Inc., Wallingford CT, 2019.
 
 ******************************************
 Gaussian 16:  ES64L-G16RevC.01  3-Jul-2019
                23-May-2025 
 ******************************************
 %mem=28GB
 %chk=2003846667223680600001_r13_insertion_ROR_12_8_5_6_IRC_R_prod
 %nprocshared=8
 Will use up to    8 processors via shared memory.
 ----------------------------------------------------------------------
 #P wb97xd/6-311++G(d,p) Symm(None) scf(xqc) pop(None) freq opt(CalcFC)
 ----------------------------------------------------------------------
 1/10=4,18=20,19=15,26=3,38=1/1,3;
 2/9=110,12=2,15=3,17=6,18=5,40=1/2;
 3/5=4,6=6,7=1111,11=2,25=1,30=1,71=2,74=-58,140=1/1,2,3;
 4//1;
 5/5=2,8=3,13=1,38=5/2,8;
 8/6=4,10=90,11=11/1;
 11/6=1,8=1,9=11,15=111,16=1,31=1/1,2,10;
 10/6=1,13=1,31=1/2;
 7/10=1,25=1,30=1/1,2,3,16;
 1/10=4,18=20,19=15,26=3/3(2);
 2/9=110,15=3/2;
 99//99;
 2/9=110,15=3/2;
 3/5=4,6=6,7=1111,11=2,25=1,30=1,71=1,74=-58/1,2,3;
 4/5=5,16=3,69=1/1;
 5/5=2,8=3,13=1,38=5/2,8;
 7/30=1/1,2,3,16;
 1/18=20,19=15,26=3/3(-5);
 2/9=110,15=3/2;
 99/9=1/99;
 Leave Link    1 at Fri May 23 05:02:54 2025, MaxMem=  3758096384 cpu:               0.0 elap:               0.0
 (Enter /apps/easybuild-2022/easybuild/software/Compiler/NVHPC/22.11-CUDA-11.7.0/Gaussian/g16c01-CUDA-11.7.0/g16/l101.exe)
 ------------------------------
 Gaussian input prepared by ASE
 ------------------------------
 Symbolic Z-matrix:
 Charge =  0 Multiplicity = 1
 C                     1.2279    0.71907   0.79785 
 C                     0.44151  -0.51707   0.30934 
 F                     1.22628  -1.28855  -0.42573 
 F                    -0.0522   -1.2019    1.31083 
 S                    -1.1193   -0.08698  -0.86158 
 O                    -3.25714  -0.18147  -0.57392 
 O                    -0.60254   0.7965   -1.88967 
 O                    -1.46923  -1.46607  -1.05188 
 F                     1.86723   1.3013   -0.19952 
 F                     0.37562   1.57502   1.34814 
 F                     2.1091    0.32414   1.7103 
 H                    -3.96596   0.47804  -0.63542 
 
 Add virtual bond connecting atoms O6         and S5         Dist= 4.08D+00.
 Add virtual bond connecting atoms O6         and O8         Dist= 4.26D+00.
 Add atom      6 valence  3 ND=      2 dihedral       5      6      8     12
 ITRead=  0  0  0  0  0  0  0  0  0  0  0  0
 MicOpt= -1 -1 -1 -1 -1 -1 -1 -1 -1 -1 -1 -1
 NAtoms=     12 NQM=       12 NQMF=       0 NMMI=      0 NMMIF=      0
                NMic=       0 NMicF=      0.
                    Isotopes and Nuclear Properties:
 (Nuclear quadrupole moments (NQMom) in fm**2, nuclear magnetic moments (NMagM)
  in nuclear magnetons)

  Atom         1           2           3           4           5           6           7           8           9          10
 IAtWgt=          12          12          19          19          32          16          16          16          19          19
 AtmWgt=  12.0000000  12.0000000  18.9984032  18.9984032  31.9720718  15.9949146  15.9949146  15.9949146  18.9984032  18.9984032
 NucSpn=           0           0           1           1           0           0           0           0           1           1
 AtZEff=  -0.0000000  -0.0000000  -0.0000000  -0.0000000  -0.0000000  -0.0000000  -0.0000000  -0.0000000  -0.0000000  -0.0000000
 NQMom=    0.0000000   0.0000000   0.0000000   0.0000000   0.0000000   0.0000000   0.0000000   0.0000000   0.0000000   0.0000000
 NMagM=    0.0000000   0.0000000   2.6288670   2.6288670   0.0000000   0.0000000   0.0000000   0.0000000   2.6288670   2.6288670
 AtZNuc=   6.0000000   6.0000000   9.0000000   9.0000000  16.0000000   8.0000000   8.0000000   8.0000000   9.0000000   9.0000000

  Atom        11          12
 IAtWgt=          19           1
 AtmWgt=  18.9984032   1.0078250
 NucSpn=           1           1
 AtZEff=  -0.0000000  -0.0000000
 NQMom=    0.0000000   0.0000000
 NMagM=    2.6288670   2.7928460
 AtZNuc=   9.0000000   1.0000000
 Leave Link  101 at Fri May 23 05:02:54 2025, MaxMem=  3758096384 cpu:               0.2 elap:               0.2
 (Enter /apps/easybuild-2022/easybuild/software/Compiler/NVHPC/22.11-CUDA-11.7.0/Gaussian/g16c01-CUDA-11.7.0/g16/l103.exe)

 GradGradGradGradGradGradGradGradGradGradGradGradGradGradGradGradGradGrad
 Berny optimization.
 Initialization pass.
                           ----------------------------
                           !    Initial Parameters    !
                           ! (Angstroms and Degrees)  !
 --------------------------                            --------------------------
 ! Name  Definition              Value          Derivative Info.                !
 --------------------------------------------------------------------------------
 ! R1    R(1,2)                  1.5444         calculate D2E/DX2 analytically  !
 ! R2    R(1,9)                  1.32           calculate D2E/DX2 analytically  !
 ! R3    R(1,10)                 1.3273         calculate D2E/DX2 analytically  !
 ! R4    R(1,11)                 1.3286         calculate D2E/DX2 analytically  !
 ! R5    R(2,3)                  1.3234         calculate D2E/DX2 analytically  !
 ! R6    R(2,4)                  1.3099         calculate D2E/DX2 analytically  !
 ! R7    R(2,5)                  1.998          calculate D2E/DX2 analytically  !
 ! R8    R(5,6)                  2.1592         calculate D2E/DX2 analytically  !
 ! R9    R(5,7)                  1.4507         calculate D2E/DX2 analytically  !
 ! R10   R(5,8)                  1.4355         calculate D2E/DX2 analytically  !
 ! R11   R(6,8)                  2.2528         calculate D2E/DX2 analytically  !
 ! R12   R(6,12)                 0.9701         calculate D2E/DX2 analytically  !
 ! A1    A(2,1,9)              111.1414         calculate D2E/DX2 analytically  !
 ! A2    A(2,1,10)             108.6835         calculate D2E/DX2 analytically  !
 ! A3    A(2,1,11)             108.4848         calculate D2E/DX2 analytically  !
 ! A4    A(9,1,10)             109.8645         calculate D2E/DX2 analytically  !
 ! A5    A(9,1,11)             109.1955         calculate D2E/DX2 analytically  !
 ! A6    A(10,1,11)            109.4409         calculate D2E/DX2 analytically  !
 ! A7    A(1,2,3)              109.8981         calculate D2E/DX2 analytically  !
 ! A8    A(1,2,4)              111.627          calculate D2E/DX2 analytically  !
 ! A9    A(1,2,5)              114.2581         calculate D2E/DX2 analytically  !
 ! A10   A(3,2,4)              110.0843         calculate D2E/DX2 analytically  !
 ! A11   A(3,2,5)              105.2604         calculate D2E/DX2 analytically  !
 ! A12   A(4,2,5)              105.4368         calculate D2E/DX2 analytically  !
 ! A13   A(2,5,6)              133.311          calculate D2E/DX2 analytically  !
 ! A14   A(2,5,7)              105.5537         calculate D2E/DX2 analytically  !
 ! A15   A(2,5,8)               93.5156         calculate D2E/DX2 analytically  !
 ! A16   A(6,5,7)              118.2785         calculate D2E/DX2 analytically  !
 ! A17   A(7,5,8)              125.3078         calculate D2E/DX2 analytically  !
 ! A18   A(5,6,12)             133.2535         calculate D2E/DX2 analytically  !
 ! A19   A(8,6,12)             162.5627         calculate D2E/DX2 analytically  !
 ! D1    D(9,1,2,3)             49.2477         calculate D2E/DX2 analytically  !
 ! D2    D(9,1,2,4)            171.6844         calculate D2E/DX2 analytically  !
 ! D3    D(9,1,2,5)            -68.7956         calculate D2E/DX2 analytically  !
 ! D4    D(10,1,2,3)           170.2686         calculate D2E/DX2 analytically  !
 ! D5    D(10,1,2,4)           -67.2947         calculate D2E/DX2 analytically  !
 ! D6    D(10,1,2,5)            52.2253         calculate D2E/DX2 analytically  !
 ! D7    D(11,1,2,3)           -70.8164         calculate D2E/DX2 analytically  !
 ! D8    D(11,1,2,4)            51.6203         calculate D2E/DX2 analytically  !
 ! D9    D(11,1,2,5)           171.1403         calculate D2E/DX2 analytically  !
 ! D10   D(1,2,5,6)           -108.9315         calculate D2E/DX2 analytically  !
 ! D11   D(1,2,5,7)             50.8242         calculate D2E/DX2 analytically  !
 ! D12   D(1,2,5,8)            179.0068         calculate D2E/DX2 analytically  !
 ! D13   D(3,2,5,6)            130.4113         calculate D2E/DX2 analytically  !
 ! D14   D(3,2,5,7)            -69.8331         calculate D2E/DX2 analytically  !
 ! D15   D(3,2,5,8)             58.3495         calculate D2E/DX2 analytically  !
 ! D16   D(4,2,5,6)             14.0128         calculate D2E/DX2 analytically  !
 ! D17   D(4,2,5,7)            173.7685         calculate D2E/DX2 analytically  !
 ! D18   D(4,2,5,8)            -58.0489         calculate D2E/DX2 analytically  !
 ! D19   D(2,5,6,12)           122.4305         calculate D2E/DX2 analytically  !
 ! D20   D(7,5,6,12)           -35.327          calculate D2E/DX2 analytically  !
 ! D21   D(5,6,8,12)           -68.4523         calculate D2E/DX2 analytically  !
 --------------------------------------------------------------------------------
 Trust Radius=3.00D-01 FncErr=1.00D-07 GrdErr=1.00D-06 EigMax=2.50D+02 EigMin=1.00D-04
 Number of steps in this run=     62 maximum allowed number of steps=    100.
 GradGradGradGradGradGradGradGradGradGradGradGradGradGradGradGradGradGrad

 Leave Link  103 at Fri May 23 05:02:54 2025, MaxMem=  3758096384 cpu:               0.0 elap:               0.0
 (Enter /apps/easybuild-2022/easybuild/software/Compiler/NVHPC/22.11-CUDA-11.7.0/Gaussian/g16c01-CUDA-11.7.0/g16/l202.exe)
                          Input orientation:                          
 ---------------------------------------------------------------------
 Center     Atomic      Atomic             Coordinates (Angstroms)
 Number     Number       Type             X           Y           Z
 ---------------------------------------------------------------------
      1          6           0        1.227898    0.719067    0.797845
      2          6           0        0.441509   -0.517066    0.309342
      3          9           0        1.226278   -1.288551   -0.425730
      4          9           0       -0.052201   -1.201902    1.310832
      5         16           0       -1.119295   -0.086979   -0.861575
      6          8           0       -3.257135   -0.181469   -0.573919
      7          8           0       -0.602537    0.796501   -1.889666
      8          8           0       -1.469228   -1.466070   -1.051876
      9          9           0        1.867228    1.301297   -0.199515
     10          9           0        0.375624    1.575016    1.348141
     11          9           0        2.109097    0.324141    1.710303
     12          1           0       -3.965955    0.478037   -0.635424
 ---------------------------------------------------------------------
                    Distance matrix (angstroms):
                    1          2          3          4          5
     1  C    0.000000
     2  C    1.544366   0.000000
     3  F    2.351099   1.323398   0.000000
     4  F    2.364726   1.309860   2.158162   0.000000
     5  S    2.985415   1.998032   2.671226   2.664788   0.000000
     6  O    4.775795   3.817426   4.620453   3.855538   2.159174
     7  O    3.252569   2.766067   3.136099   3.813092   1.450706
     8  O    3.933291   2.530699   2.772963   2.767696   1.435465
     9  F    1.320023   2.366021   2.677555   3.497336   3.359308
    10  F    1.327345   2.336718   3.474226   2.809929   3.143224
    11  F    1.328555   2.334774   2.818294   2.675742   4.148023
    12  H    5.393372   4.616119   5.488542   4.682689   2.910990
                    6          7          8          9         10
     6  O    0.000000
     7  O    3.120017   0.000000
     8  O    2.252832   2.563644   0.000000
     9  F    5.347698   3.034991   4.417780   0.000000
    10  F    4.469507   3.470775   4.290893   2.166805   0.000000
    11  F    5.854038   4.531651   4.861985   2.158875   2.168128
    12  H    0.970132   3.603765   3.191650   5.907097   4.897673
                   11         12
    11  F    0.000000
    12  H    6.514014   0.000000
 Symmetry turned off by external request.
 Stoichiometry    C2HF5O3S
 Rotational constants (GHZ):           1.6066823           0.6946784           0.6605119
 Leave Link  202 at Fri May 23 05:02:54 2025, MaxMem=  3758096384 cpu:               0.0 elap:               0.0
 (Enter /apps/easybuild-2022/easybuild/software/Compiler/NVHPC/22.11-CUDA-11.7.0/Gaussian/g16c01-CUDA-11.7.0/g16/l301.exe)
 Standard basis: 6-311++G(d,p) (5D, 7F)
 Ernie: Thresh=  0.10000D-02 Tol=  0.10000D-05 Strict=F.
   257 basis functions,   419 primitive gaussians,   268 cartesian basis functions
    49 alpha electrons       49 beta electrons
       nuclear repulsion energy       884.8894088471 Hartrees.
 IExCor= 4639 DFT=T Ex+Corr=wB97XD ExCW=0 ScaHFX=  1.000000
 ScaDFX=  1.000000  1.000000  1.000000  1.000000 ScalE2=  1.000000  1.000000
 IRadAn=      5 IRanWt=     -1 IRanGd=            0 ICorTp=0 IEmpDi=121
 HFx  wShort=  0.000000 wLong=  0.200000 cFull=  0.222036 cShort=  0.000000 cLong=  0.777964
 DFx  wShort=  0.000000 wLong=  0.200000 cFull=  0.000000 cShort=  0.000000 cLong=  1.000000
 NAtoms=   12 NActive=   12 NUniq=   12 SFac= 1.00D+00 NAtFMM=   60 NAOKFM=F Big=F
 Integral buffers will be    131072 words long.
 Raffenetti 2 integral format.
 Two-electron integral symmetry is turned off.
 R6Disp:  Grimme-D2 Dispersion energy=       -0.0049131189 Hartrees.
 Nuclear repulsion after empirical dispersion term =      884.8844957282 Hartrees.
 Leave Link  301 at Fri May 23 05:02:54 2025, MaxMem=  3758096384 cpu:               0.0 elap:               0.0
 (Enter /apps/easybuild-2022/easybuild/software/Compiler/NVHPC/22.11-CUDA-11.7.0/Gaussian/g16c01-CUDA-11.7.0/g16/l302.exe)
 NPDir=0 NMtPBC=     1 NCelOv=     1 NCel=       1 NClECP=     1 NCelD=      1
         NCelK=      1 NCelE2=     1 NClLst=     1 CellRange=     0.0.
 One-electron integrals computed using PRISM.
 NBasis=   257 RedAO= T EigKep=  7.75D-05  NBF=   257
 NBsUse=   257 1.00D-06 EigRej= -1.00D+00 NBFU=   257
 Precomputing XC quadrature grid using
 IXCGrd= 4 IRadAn=           5 IRanWt=          -1 IRanGd=           0 AccXCQ= 0.00D+00.
 Generated NRdTot=       0 NPtTot=           0 NUsed=           0 NTot=          32
 NSgBfM=   268   268   268   268   268 MxSgAt=    12 MxSgA2=    12.
 Leave Link  302 at Fri May 23 05:02:54 2025, MaxMem=  3758096384 cpu:               0.5 elap:               0.1
 (Enter /apps/easybuild-2022/easybuild/software/Compiler/NVHPC/22.11-CUDA-11.7.0/Gaussian/g16c01-CUDA-11.7.0/g16/l303.exe)
 DipDrv:  MaxL=1.
 Leave Link  303 at Fri May 23 05:02:54 2025, MaxMem=  3758096384 cpu:               0.1 elap:               0.0
 (Enter /apps/easybuild-2022/easybuild/software/Compiler/NVHPC/22.11-CUDA-11.7.0/Gaussian/g16c01-CUDA-11.7.0/g16/l401.exe)
 ExpMin= 3.60D-02 ExpMax= 9.34D+04 ExpMxC= 3.17D+03 IAcc=3 IRadAn=         5 AccDes= 0.00D+00
 Harris functional with IExCor= 4639 and IRadAn=       5 diagonalized for initial guess.
 HarFok:  IExCor= 4639 AccDes= 0.00D+00 IRadAn=         5 IDoV= 1 UseB2=F ITyADJ=14
 ICtDFT=  3500011 ScaDFX=  1.000000  1.000000  1.000000  1.000000
 FoFCou: FMM=F IPFlag=           0 FMFlag=      100000 FMFlg1=           0
         NFxFlg=           0 DoJE=T BraDBF=F KetDBF=T FulRan=T
         wScrn=  0.000000 ICntrl=       500 IOpCl=  0 I1Cent=   200000004 NGrid=           0
         NMat0=    1 NMatS0=      1 NMatT0=    0 NMatD0=    1 NMtDS0=    0 NMtDT0=    0
 Symmetry not used in FoFCou.
 Harris En= -1167.07970283195    
 JPrj=0 DoOrth=F DoCkMO=F.
 Leave Link  401 at Fri May 23 05:02:54 2025, MaxMem=  3758096384 cpu:               2.3 elap:               0.3
 (Enter /apps/easybuild-2022/easybuild/software/Compiler/NVHPC/22.11-CUDA-11.7.0/Gaussian/g16c01-CUDA-11.7.0/g16/l502.exe)
 Keep R1 ints in memory in canonical form, NReq=1117474609.
 FoFCou: FMM=F IPFlag=           0 FMFlag=           0 FMFlg1=           0
         NFxFlg=           0 DoJE=F BraDBF=F KetDBF=F FulRan=T
         wScrn=  0.000000 ICntrl=       600 IOpCl=  0 I1Cent=           0 NGrid=           0
         NMat0=    1 NMatS0=  33153 NMatT0=    0 NMatD0=    1 NMtDS0=    0 NMtDT0=    0
 Symmetry not used in FoFCou.
 Two-electron integral symmetry not used.
 Closed shell SCF:
 Using DIIS extrapolation, IDIIS=  1040.
 NGot=  3758096384 LenX=  2658793876 LenY=  2658721611
 Requested convergence on RMS density matrix=1.00D-08 within  32 cycles.
 Requested convergence on MAX density matrix=1.00D-06.
 Requested convergence on             energy=1.00D-06.
 No special actions if energy rises.

 Cycle   1  Pass 1  IDiag  1:
 E= -1198.90542065953    
 DIIS: error= 1.02D-01 at cycle   1 NSaved=   1.
 NSaved= 1 IEnMin= 1 EnMin= -1198.90542065953     IErMin= 1 ErrMin= 1.02D-01
 ErrMax= 1.02D-01  0.00D+00 EMaxC= 1.00D-01 BMatC= 3.41D+00 BMatP= 3.41D+00
 IDIUse=3 WtCom= 0.00D+00 WtEn= 1.00D+00
 Coeff-Com:  0.100D+01
 Coeff-En:   0.100D+01
 Coeff:      0.100D+01
 Gap=     0.356 Goal=   None    Shift=    0.000
 GapD=    0.356 DampG=1.000 DampE=0.250 DampFc=0.2500 IDamp=-1.
 Damping current iteration by 2.50D-01
 RMSDP=8.92D-03 MaxDP=3.62D-01              OVMax= 5.87D-01

 Cycle   2  Pass 1  IDiag  1:
 E= -1199.14588596597     Delta-E=       -0.240465306442 Rises=F Damp=T
 DIIS: error= 7.32D-02 at cycle   2 NSaved=   2.
 NSaved= 2 IEnMin= 2 EnMin= -1199.14588596597     IErMin= 2 ErrMin= 7.32D-02
 ErrMax= 7.32D-02  0.00D+00 EMaxC= 1.00D-01 BMatC= 1.51D+00 BMatP= 3.41D+00
 IDIUse=3 WtCom= 2.68D-01 WtEn= 7.32D-01
 Coeff-Com: -0.156D+01 0.256D+01
 Coeff-En:   0.000D+00 0.100D+01
 Coeff:     -0.417D+00 0.142D+01
 Gap=     0.196 Goal=   None    Shift=    0.000
 RMSDP=3.93D-03 MaxDP=3.03D-01 DE=-2.40D-01 OVMax= 4.93D-01

 Cycle   3  Pass 1  IDiag  1:
 E= -1199.53688830853     Delta-E=       -0.391002342558 Rises=F Damp=F
 DIIS: error= 1.99D-02 at cycle   3 NSaved=   3.
 NSaved= 3 IEnMin= 3 EnMin= -1199.53688830853     IErMin= 3 ErrMin= 1.99D-02
 ErrMax= 1.99D-02  0.00D+00 EMaxC= 1.00D-01 BMatC= 2.45D-01 BMatP= 1.51D+00
 IDIUse=3 WtCom= 8.01D-01 WtEn= 1.99D-01
 Coeff-Com: -0.510D+00 0.914D+00 0.595D+00
 Coeff-En:   0.000D+00 0.000D+00 0.100D+01
 Coeff:     -0.408D+00 0.732D+00 0.676D+00
 Gap=     0.300 Goal=   None    Shift=    0.000
 RMSDP=3.24D-03 MaxDP=2.60D-01 DE=-3.91D-01 OVMax= 2.98D-01

 Cycle   4  Pass 1  IDiag  1:
 E= -1199.59528395450     Delta-E=       -0.058395645972 Rises=F Damp=F
 DIIS: error= 1.66D-02 at cycle   4 NSaved=   4.
 NSaved= 4 IEnMin= 4 EnMin= -1199.59528395450     IErMin= 4 ErrMin= 1.66D-02
 ErrMax= 1.66D-02  0.00D+00 EMaxC= 1.00D-01 BMatC= 1.41D-01 BMatP= 2.45D-01
 IDIUse=3 WtCom= 8.34D-01 WtEn= 1.66D-01
 Coeff-Com: -0.401D-01 0.101D+00 0.426D+00 0.513D+00
 Coeff-En:   0.000D+00 0.000D+00 0.405D+00 0.595D+00
 Coeff:     -0.335D-01 0.839D-01 0.423D+00 0.527D+00
 Gap=     0.247 Goal=   None    Shift=    0.000
 RMSDP=1.70D-03 MaxDP=1.23D-01 DE=-5.84D-02 OVMax= 1.42D-01

 Cycle   5  Pass 1  IDiag  1:
 E= -1199.68922450226     Delta-E=       -0.093940547757 Rises=F Damp=F
 DIIS: error= 2.99D-03 at cycle   5 NSaved=   5.
 NSaved= 5 IEnMin= 5 EnMin= -1199.68922450226     IErMin= 5 ErrMin= 2.99D-03
 ErrMax= 2.99D-03  0.00D+00 EMaxC= 1.00D-01 BMatC= 6.59D-03 BMatP= 1.41D-01
 IDIUse=3 WtCom= 9.70D-01 WtEn= 2.99D-02
 Coeff-Com:  0.189D-01-0.213D-01 0.157D+00 0.266D+00 0.580D+00
 Coeff-En:   0.000D+00 0.000D+00 0.000D+00 0.000D+00 0.100D+01
 Coeff:      0.183D-01-0.207D-01 0.152D+00 0.258D+00 0.592D+00
 Gap=     0.254 Goal=   None    Shift=    0.000
 RMSDP=3.95D-04 MaxDP=1.18D-02 DE=-9.39D-02 OVMax= 3.50D-02

 Cycle   6  Pass 1  IDiag  1:
 E= -1199.69379009796     Delta-E=       -0.004565595705 Rises=F Damp=F
 DIIS: error= 1.15D-03 at cycle   6 NSaved=   6.
 NSaved= 6 IEnMin= 6 EnMin= -1199.69379009796     IErMin= 6 ErrMin= 1.15D-03
 ErrMax= 1.15D-03  0.00D+00 EMaxC= 1.00D-01 BMatC= 7.11D-04 BMatP= 6.59D-03
 IDIUse=3 WtCom= 9.89D-01 WtEn= 1.15D-02
 Coeff-Com:  0.180D-01-0.260D-01 0.300D-01 0.577D-01 0.287D+00 0.633D+00
 Coeff-En:   0.000D+00 0.000D+00 0.000D+00 0.000D+00 0.000D+00 0.100D+01
 Coeff:      0.178D-01-0.257D-01 0.297D-01 0.570D-01 0.284D+00 0.637D+00
 Gap=     0.255 Goal=   None    Shift=    0.000
 RMSDP=1.51D-04 MaxDP=5.66D-03 DE=-4.57D-03 OVMax= 8.56D-03

 Cycle   7  Pass 1  IDiag  1:
 E= -1199.69436864426     Delta-E=       -0.000578546294 Rises=F Damp=F
 DIIS: error= 4.71D-04 at cycle   7 NSaved=   7.
 NSaved= 7 IEnMin= 7 EnMin= -1199.69436864426     IErMin= 7 ErrMin= 4.71D-04
 ErrMax= 4.71D-04  0.00D+00 EMaxC= 1.00D-01 BMatC= 8.73D-05 BMatP= 7.11D-04
 IDIUse=3 WtCom= 9.95D-01 WtEn= 4.71D-03
 Coeff-Com:  0.708D-02-0.103D-01-0.128D-01-0.290D-01 0.222D-01 0.261D+00
 Coeff-Com:  0.761D+00
 Coeff-En:   0.000D+00 0.000D+00 0.000D+00 0.000D+00 0.000D+00 0.000D+00
 Coeff-En:   0.100D+01
 Coeff:      0.705D-02-0.102D-01-0.128D-01-0.288D-01 0.221D-01 0.260D+00
 Coeff:      0.763D+00
 Gap=     0.258 Goal=   None    Shift=    0.000
 RMSDP=1.13D-04 MaxDP=7.98D-03 DE=-5.79D-04 OVMax= 8.50D-03

 Cycle   8  Pass 1  IDiag  1:
 E= -1199.69452655075     Delta-E=       -0.000157906492 Rises=F Damp=F
 DIIS: error= 2.67D-04 at cycle   8 NSaved=   8.
 NSaved= 8 IEnMin= 8 EnMin= -1199.69452655075     IErMin= 8 ErrMin= 2.67D-04
 ErrMax= 2.67D-04  0.00D+00 EMaxC= 1.00D-01 BMatC= 1.35D-05 BMatP= 8.73D-05
 IDIUse=3 WtCom= 9.97D-01 WtEn= 2.67D-03
 Coeff-Com:  0.213D-02-0.287D-02-0.654D-02-0.173D-01-0.291D-01-0.105D-01
 Coeff-Com:  0.241D+00 0.824D+00
 Coeff-En:   0.000D+00 0.000D+00 0.000D+00 0.000D+00 0.000D+00 0.000D+00
 Coeff-En:   0.000D+00 0.100D+01
 Coeff:      0.213D-02-0.286D-02-0.652D-02-0.173D-01-0.290D-01-0.105D-01
 Coeff:      0.240D+00 0.824D+00
 Gap=     0.258 Goal=   None    Shift=    0.000
 RMSDP=6.77D-05 MaxDP=4.97D-03 DE=-1.58D-04 OVMax= 6.20D-03

 Cycle   9  Pass 1  IDiag  1:
 E= -1199.69457817911     Delta-E=       -0.000051628360 Rises=F Damp=F
 DIIS: error= 1.53D-04 at cycle   9 NSaved=   9.
 NSaved= 9 IEnMin= 9 EnMin= -1199.69457817911     IErMin= 9 ErrMin= 1.53D-04
 ErrMax= 1.53D-04  0.00D+00 EMaxC= 1.00D-01 BMatC= 7.17D-06 BMatP= 1.35D-05
 IDIUse=3 WtCom= 9.98D-01 WtEn= 1.53D-03
 Coeff-Com:  0.771D-04 0.624D-04-0.101D-02-0.445D-02-0.273D-01-0.806D-01
 Coeff-Com: -0.628D-01 0.537D+00 0.639D+00
 Coeff-En:   0.000D+00 0.000D+00 0.000D+00 0.000D+00 0.000D+00 0.000D+00
 Coeff-En:   0.000D+00 0.000D+00 0.100D+01
 Coeff:      0.770D-04 0.623D-04-0.101D-02-0.445D-02-0.272D-01-0.804D-01
 Coeff:     -0.627D-01 0.536D+00 0.639D+00
 Gap=     0.258 Goal=   None    Shift=    0.000
 RMSDP=4.29D-05 MaxDP=2.85D-03 DE=-5.16D-05 OVMax= 4.90D-03

 Cycle  10  Pass 1  IDiag  1:
 E= -1199.69460453660     Delta-E=       -0.000026357493 Rises=F Damp=F
 DIIS: error= 9.35D-05 at cycle  10 NSaved=  10.
 NSaved=10 IEnMin=10 EnMin= -1199.69460453660     IErMin=10 ErrMin= 9.35D-05
 ErrMax= 9.35D-05  0.00D+00 EMaxC= 1.00D-01 BMatC= 1.45D-06 BMatP= 7.17D-06
 IDIUse=1 WtCom= 1.00D+00 WtEn= 0.00D+00
 Coeff-Com: -0.967D-03 0.137D-02 0.254D-02 0.581D-02 0.416D-02-0.155D-01
 Coeff-Com: -0.135D+00-0.196D+00 0.206D+00 0.113D+01
 Coeff:     -0.967D-03 0.137D-02 0.254D-02 0.581D-02 0.416D-02-0.155D-01
 Coeff:     -0.135D+00-0.196D+00 0.206D+00 0.113D+01
 Gap=     0.259 Goal=   None    Shift=    0.000
 RMSDP=4.60D-05 MaxDP=2.98D-03 DE=-2.64D-05 OVMax= 5.69D-03

 Cycle  11  Pass 1  IDiag  1:
 E= -1199.69462083065     Delta-E=       -0.000016294042 Rises=F Damp=F
 DIIS: error= 4.36D-05 at cycle  11 NSaved=  11.
 NSaved=11 IEnMin=11 EnMin= -1199.69462083065     IErMin=11 ErrMin= 4.36D-05
 ErrMax= 4.36D-05  0.00D+00 EMaxC= 1.00D-01 BMatC= 3.79D-07 BMatP= 1.45D-06
 IDIUse=1 WtCom= 1.00D+00 WtEn= 0.00D+00
 Coeff-Com: -0.540D-03 0.711D-03 0.518D-03 0.205D-02 0.836D-02 0.168D-01
 Coeff-Com: -0.392D-02-0.163D+00-0.123D+00 0.195D+00 0.107D+01
 Coeff:     -0.540D-03 0.711D-03 0.518D-03 0.205D-02 0.836D-02 0.168D-01
 Coeff:     -0.392D-02-0.163D+00-0.123D+00 0.195D+00 0.107D+01
 Gap=     0.259 Goal=   None    Shift=    0.000
 RMSDP=2.09D-05 MaxDP=1.10D-03 DE=-1.63D-05 OVMax= 3.09D-03

 Cycle  12  Pass 1  IDiag  1:
 E= -1199.69462543389     Delta-E=       -0.000004603243 Rises=F Damp=F
 DIIS: error= 2.60D-05 at cycle  12 NSaved=  12.
 NSaved=12 IEnMin=12 EnMin= -1199.69462543389     IErMin=12 ErrMin= 2.60D-05
 ErrMax= 2.60D-05  0.00D+00 EMaxC= 1.00D-01 BMatC= 1.71D-07 BMatP= 3.79D-07
 IDIUse=1 WtCom= 1.00D+00 WtEn= 0.00D+00
 Coeff-Com: -0.160D-03 0.197D-03-0.849D-03-0.138D-02 0.209D-02 0.105D-01
 Coeff-Com:  0.554D-01 0.986D-02-0.125D+00-0.389D+00 0.441D+00 0.997D+00
 Coeff:     -0.160D-03 0.197D-03-0.849D-03-0.138D-02 0.209D-02 0.105D-01
 Coeff:      0.554D-01 0.986D-02-0.125D+00-0.389D+00 0.441D+00 0.997D+00
 Gap=     0.259 Goal=   None    Shift=    0.000
 RMSDP=1.40D-05 MaxDP=5.61D-04 DE=-4.60D-06 OVMax= 2.12D-03

 Cycle  13  Pass 1  IDiag  1:
 E= -1199.69462708813     Delta-E=       -0.000001654239 Rises=F Damp=F
 DIIS: error= 1.01D-05 at cycle  13 NSaved=  13.
 NSaved=13 IEnMin=13 EnMin= -1199.69462708813     IErMin=13 ErrMin= 1.01D-05
 ErrMax= 1.01D-05  0.00D+00 EMaxC= 1.00D-01 BMatC= 3.21D-08 BMatP= 1.71D-07
 IDIUse=1 WtCom= 1.00D+00 WtEn= 0.00D+00
 Coeff-Com: -0.902D-04 0.121D-03-0.377D-03-0.740D-03-0.185D-02-0.353D-02
 Coeff-Com:  0.116D-01 0.331D-01 0.196D-01-0.106D+00-0.212D+00 0.145D+00
 Coeff-Com:  0.112D+01
 Coeff:     -0.902D-04 0.121D-03-0.377D-03-0.740D-03-0.185D-02-0.353D-02
 Coeff:      0.116D-01 0.331D-01 0.196D-01-0.106D+00-0.212D+00 0.145D+00
 Coeff:      0.112D+01
 Gap=     0.258 Goal=   None    Shift=    0.000
 RMSDP=6.93D-06 MaxDP=2.69D-04 DE=-1.65D-06 OVMax= 9.74D-04

 Cycle  14  Pass 1  IDiag  1:
 E= -1199.69462740017     Delta-E=       -0.000000312044 Rises=F Damp=F
 DIIS: error= 3.57D-06 at cycle  14 NSaved=  14.
 NSaved=14 IEnMin=14 EnMin= -1199.69462740017     IErMin=14 ErrMin= 3.57D-06
 ErrMax= 3.57D-06  0.00D+00 EMaxC= 1.00D-01 BMatC= 9.92D-09 BMatP= 3.21D-08
 IDIUse=1 WtCom= 1.00D+00 WtEn= 0.00D+00
 Coeff-Com: -0.748D-04 0.101D-03-0.398D-04-0.136D-04-0.117D-02-0.353D-02
 Coeff-Com: -0.608D-02 0.897D-02 0.359D-01 0.466D-01-0.188D+00-0.153D+00
 Coeff-Com:  0.449D+00 0.811D+00
 Coeff:     -0.748D-04 0.101D-03-0.398D-04-0.136D-04-0.117D-02-0.353D-02
 Coeff:     -0.608D-02 0.897D-02 0.359D-01 0.466D-01-0.188D+00-0.153D+00
 Coeff:      0.449D+00 0.811D+00
 Gap=     0.258 Goal=   None    Shift=    0.000
 RMSDP=2.21D-06 MaxDP=1.13D-04 DE=-3.12D-07 OVMax= 2.57D-04

 Cycle  15  Pass 1  IDiag  1:
 E= -1199.69462743729     Delta-E=       -0.000000037123 Rises=F Damp=F
 DIIS: error= 2.00D-06 at cycle  15 NSaved=  15.
 NSaved=15 IEnMin=15 EnMin= -1199.69462743729     IErMin=15 ErrMin= 2.00D-06
 ErrMax= 2.00D-06  0.00D+00 EMaxC= 1.00D-01 BMatC= 1.65D-09 BMatP= 9.92D-09
 IDIUse=1 WtCom= 1.00D+00 WtEn= 0.00D+00
 Coeff-Com: -0.596D-04 0.803D-04 0.175D-04 0.114D-03 0.753D-04-0.110D-03
 Coeff-Com: -0.267D-02-0.428D-02 0.269D-02 0.265D-01-0.273D-02-0.491D-01
 Coeff-Com: -0.114D+00 0.128D+00 0.102D+01
 Coeff:     -0.596D-04 0.803D-04 0.175D-04 0.114D-03 0.753D-04-0.110D-03
 Coeff:     -0.267D-02-0.428D-02 0.269D-02 0.265D-01-0.273D-02-0.491D-01
 Coeff:     -0.114D+00 0.128D+00 0.102D+01
 Gap=     0.258 Goal=   None    Shift=    0.000
 RMSDP=9.90D-07 MaxDP=5.41D-05 DE=-3.71D-08 OVMax= 1.03D-04

 Cycle  16  Pass 1  IDiag  1:
 E= -1199.69462744308     Delta-E=       -0.000000005787 Rises=F Damp=F
 DIIS: error= 5.73D-07 at cycle  16 NSaved=  16.
 NSaved=16 IEnMin=16 EnMin= -1199.69462744308     IErMin=16 ErrMin= 5.73D-07
 ErrMax= 5.73D-07  0.00D+00 EMaxC= 1.00D-01 BMatC= 2.43D-10 BMatP= 1.65D-09
 IDIUse=1 WtCom= 1.00D+00 WtEn= 0.00D+00
 Coeff-Com: -0.222D-04 0.301D-04 0.420D-05 0.382D-04 0.228D-03 0.551D-03
 Coeff-Com:  0.134D-03-0.370D-02-0.481D-02 0.341D-02 0.294D-01 0.700D-02
 Coeff-Com: -0.117D+00-0.983D-01 0.409D+00 0.773D+00
 Coeff:     -0.222D-04 0.301D-04 0.420D-05 0.382D-04 0.228D-03 0.551D-03
 Coeff:      0.134D-03-0.370D-02-0.481D-02 0.341D-02 0.294D-01 0.700D-02
 Coeff:     -0.117D+00-0.983D-01 0.409D+00 0.773D+00
 Gap=     0.258 Goal=   None    Shift=    0.000
 RMSDP=2.84D-07 MaxDP=1.72D-05 DE=-5.79D-09 OVMax= 2.03D-05

 Cycle  17  Pass 1  IDiag  1:
 E= -1199.69462744360     Delta-E=       -0.000000000522 Rises=F Damp=F
 DIIS: error= 2.63D-07 at cycle  17 NSaved=  17.
 NSaved=17 IEnMin=17 EnMin= -1199.69462744360     IErMin=17 ErrMin= 2.63D-07
 ErrMax= 2.63D-07  0.00D+00 EMaxC= 1.00D-01 BMatC= 2.51D-11 BMatP= 2.43D-10
 IDIUse=1 WtCom= 1.00D+00 WtEn= 0.00D+00
 Coeff-Com:  0.275D-05-0.358D-05 0.181D-05-0.259D-05 0.529D-04 0.115D-03
 Coeff-Com:  0.268D-03-0.762D-03-0.911D-03-0.127D-02 0.654D-02 0.668D-02
 Coeff-Com: -0.136D-01-0.431D-01-0.190D-01 0.199D+00 0.866D+00
 Coeff:      0.275D-05-0.358D-05 0.181D-05-0.259D-05 0.529D-04 0.115D-03
 Coeff:      0.268D-03-0.762D-03-0.911D-03-0.127D-02 0.654D-02 0.668D-02
 Coeff:     -0.136D-01-0.431D-01-0.190D-01 0.199D+00 0.866D+00
 Gap=     0.258 Goal=   None    Shift=    0.000
 RMSDP=7.96D-08 MaxDP=4.77D-06 DE=-5.22D-10 OVMax= 4.71D-06

 Cycle  18  Pass 1  IDiag  1:
 E= -1199.69462744363     Delta-E=       -0.000000000026 Rises=F Damp=F
 DIIS: error= 1.15D-07 at cycle  18 NSaved=  18.
 NSaved=18 IEnMin=18 EnMin= -1199.69462744363     IErMin=18 ErrMin= 1.15D-07
 ErrMax= 1.15D-07  0.00D+00 EMaxC= 1.00D-01 BMatC= 7.79D-12 BMatP= 2.51D-11
 IDIUse=1 WtCom= 1.00D+00 WtEn= 0.00D+00
 Coeff-Com:  0.499D-05-0.670D-05 0.158D-05-0.592D-05-0.779D-05-0.433D-04
 Coeff-Com:  0.725D-04 0.149D-03 0.394D-03-0.116D-02-0.111D-02 0.180D-02
 Coeff-Com:  0.902D-02-0.292D-02-0.495D-01-0.224D-01 0.313D+00 0.753D+00
 Coeff:      0.499D-05-0.670D-05 0.158D-05-0.592D-05-0.779D-05-0.433D-04
 Coeff:      0.725D-04 0.149D-03 0.394D-03-0.116D-02-0.111D-02 0.180D-02
 Coeff:      0.902D-02-0.292D-02-0.495D-01-0.224D-01 0.313D+00 0.753D+00
 Gap=     0.258 Goal=   None    Shift=    0.000
 RMSDP=2.79D-08 MaxDP=9.44D-07 DE=-2.59D-11 OVMax= 1.41D-06

 Cycle  19  Pass 1  IDiag  1:
 E= -1199.69462744363     Delta-E=       -0.000000000004 Rises=F Damp=F
 DIIS: error= 5.28D-08 at cycle  19 NSaved=  19.
 NSaved=19 IEnMin=19 EnMin= -1199.69462744363     IErMin=19 ErrMin= 5.28D-08
 ErrMax= 5.28D-08  0.00D+00 EMaxC= 1.00D-01 BMatC= 1.41D-12 BMatP= 7.79D-12
 IDIUse=1 WtCom= 1.00D+00 WtEn= 0.00D+00
 Coeff-Com:  0.166D-05-0.227D-05 0.290D-06-0.138D-05-0.128D-05-0.393D-05
 Coeff-Com:  0.700D-05 0.710D-04 0.112D-03-0.223D-03-0.192D-03-0.555D-03
 Coeff-Com:  0.846D-03 0.467D-02 0.282D-02-0.286D-01-0.111D+00 0.822D-01
 Coeff-Com:  0.105D+01
 Coeff:      0.166D-05-0.227D-05 0.290D-06-0.138D-05-0.128D-05-0.393D-05
 Coeff:      0.700D-05 0.710D-04 0.112D-03-0.223D-03-0.192D-03-0.555D-03
 Coeff:      0.846D-03 0.467D-02 0.282D-02-0.286D-01-0.111D+00 0.822D-01
 Coeff:      0.105D+01
 Gap=     0.258 Goal=   None    Shift=    0.000
 RMSDP=1.83D-08 MaxDP=6.58D-07 DE=-3.64D-12 OVMax= 1.18D-06

 Cycle  20  Pass 1  IDiag  1:
 E= -1199.69462744362     Delta-E=        0.000000000010 Rises=F Damp=F
 DIIS: error= 1.51D-08 at cycle  20 NSaved=  20.
 NSaved=20 IEnMin=19 EnMin= -1199.69462744363     IErMin=20 ErrMin= 1.51D-08
 ErrMax= 1.51D-08  0.00D+00 EMaxC= 1.00D-01 BMatC= 1.45D-13 BMatP= 1.41D-12
 IDIUse=1 WtCom= 1.00D+00 WtEn= 0.00D+00
 Coeff-Com: -0.489D-07 0.504D-07-0.249D-06-0.730D-07 0.187D-05 0.804D-05
 Coeff-Com:  0.436D-05 0.978D-06-0.278D-04-0.158D-04 0.288D-03-0.317D-03
 Coeff-Com: -0.136D-02 0.132D-02 0.799D-02-0.493D-02-0.785D-01-0.902D-01
 Coeff-Com:  0.292D+00 0.873D+00
 Coeff:     -0.489D-07 0.504D-07-0.249D-06-0.730D-07 0.187D-05 0.804D-05
 Coeff:      0.436D-05 0.978D-06-0.278D-04-0.158D-04 0.288D-03-0.317D-03
 Coeff:     -0.136D-02 0.132D-02 0.799D-02-0.493D-02-0.785D-01-0.902D-01
 Coeff:      0.292D+00 0.873D+00
 Gap=     0.258 Goal=   None    Shift=    0.000
 RMSDP=6.83D-09 MaxDP=2.13D-07 DE= 1.00D-11 OVMax= 5.65D-07

 SCF Done:  E(RwB97XD) =  -1199.69462744     A.U. after   20 cycles
            NFock= 20  Conv=0.68D-08     -V/T= 2.0021
 KE= 1.197186112203D+03 PE=-4.616396348040D+03 EE= 1.334631112665D+03
 Leave Link  502 at Fri May 23 05:03:11 2025, MaxMem=  3758096384 cpu:              77.2 elap:              16.2
 (Enter /apps/easybuild-2022/easybuild/software/Compiler/NVHPC/22.11-CUDA-11.7.0/Gaussian/g16c01-CUDA-11.7.0/g16/l508.exe)
 QCSCF skips out because SCF is already converged.
 Leave Link  508 at Fri May 23 05:03:11 2025, MaxMem=  3758096384 cpu:               0.0 elap:               0.0
 (Enter /apps/easybuild-2022/easybuild/software/Compiler/NVHPC/22.11-CUDA-11.7.0/Gaussian/g16c01-CUDA-11.7.0/g16/l801.exe)
 DoSCS=F DFT=T ScalE2(SS,OS)=  1.000000  1.000000
 Range of M.O.s used for correlation:     1   257
 NBasis=   257 NAE=    49 NBE=    49 NFC=     0 NFV=     0
 NROrb=    257 NOA=    49 NOB=    49 NVA=   208 NVB=   208

 **** Warning!!: The largest alpha MO coefficient is  0.39967713D+02

 Leave Link  801 at Fri May 23 05:03:11 2025, MaxMem=  3758096384 cpu:               0.0 elap:               0.0
 (Enter /apps/easybuild-2022/easybuild/software/Compiler/NVHPC/22.11-CUDA-11.7.0/Gaussian/g16c01-CUDA-11.7.0/g16/l1101.exe)
 Using compressed storage, NAtomX=    12.
 Will process     13 centers per pass.
 R6Disp: Adding Grimme-D2 dispersion energy 1st derivatives to the gradient.
 Leave Link 1101 at Fri May 23 05:03:11 2025, MaxMem=  3758096384 cpu:               0.5 elap:               0.1
 (Enter /apps/easybuild-2022/easybuild/software/Compiler/NVHPC/22.11-CUDA-11.7.0/Gaussian/g16c01-CUDA-11.7.0/g16/l1102.exe)
 Symmetrizing basis deriv contribution to polar:
 IMax=3 JMax=2 DiffMx= 0.00D+00
 Leave Link 1102 at Fri May 23 05:03:11 2025, MaxMem=  3758096384 cpu:               0.1 elap:               0.0
 (Enter /apps/easybuild-2022/easybuild/software/Compiler/NVHPC/22.11-CUDA-11.7.0/Gaussian/g16c01-CUDA-11.7.0/g16/l1110.exe)
 Forming Gx(P) for the SCF density, NAtomX=    12.
 Integral derivatives from FoFJK, PRISM(SPDF).
 Do as many integral derivatives as possible in FoFJK.
 G2DrvN: MDV=    3758095012.
 G2DrvN: will do    13 centers at a time, making    1 passes.
 Calling FoFCou, ICntrl=  3107 FMM=F I1Cent=   0 AccDes= 0.00D+00.
 FoFJK:  IHMeth= 1 ICntrl=    3107 DoSepK=T KAlg= 0 I1Cent=           0 FoldK=F
 IRaf=         1 NMat=       1 IRICut=       1 DoRegI=T DoRafI=F ISym2E= 0 IDoP0=0 IntGTp=1.
 FoFCou: FMM=F IPFlag=           0 FMFlag=      100000 FMFlg1=           0
         NFxFlg=           0 DoJE=F BraDBF=F KetDBF=F FulRan=T
         wScrn=  0.000000 ICntrl=      3507 IOpCl=  0 I1Cent=           0 NGrid=           0
         NMat0=    1 NMatS0=      1 NMatT0=    0 NMatD0=    1 NMtDS0=    0 NMtDT0=    0
 Symmetry not used in FoFCou.
 End of G2Drv F.D. properties file   721 does not exist.
 End of G2Drv F.D. properties file   722 does not exist.
 End of G2Drv F.D. properties file   788 does not exist.
 Leave Link 1110 at Fri May 23 05:03:23 2025, MaxMem=  3758096384 cpu:              96.5 elap:              12.2
 (Enter /apps/easybuild-2022/easybuild/software/Compiler/NVHPC/22.11-CUDA-11.7.0/Gaussian/g16c01-CUDA-11.7.0/g16/l1002.exe)
 Minotr:  Closed shell wavefunction.
          IDoAtm=111111111111
          Direct CPHF calculation.
          Differentiating once with respect to nuclear coordinates.
          Requested convergence is 1.0D-08 RMS, and 1.0D-07 maximum.
          Secondary convergence is 1.0D-12 RMS, and 1.0D-12 maximum.
          NewPWx=T KeepS1=F KeepF1=F KeepIn=T MapXYZ=F SortEE=F KeepMc=T.
         3738 words used for storage of precomputed grid.
 Keep R1 ints in memory in canonical form, NReq=1117480330.
 FoFCou: FMM=F IPFlag=           0 FMFlag=           0 FMFlg1=           0
         NFxFlg=           0 DoJE=F BraDBF=F KetDBF=F FulRan=T
         wScrn=  0.000000 ICntrl=       600 IOpCl=  0 I1Cent=           0 NGrid=           0
         NMat0=    1 NMatS0=  33153 NMatT0=    0 NMatD0=    1 NMtDS0=    0 NMtDT0=    0
 Symmetry not used in FoFCou.
 Two-electron integral symmetry not used.
          MDV=    3758096384 using IRadAn=       1.
          Solving linear equations simultaneously, MaxMat=       0.
          There are    39 degrees of freedom in the 1st order CPHF.  IDoFFX=6 NUNeed=     0.
     33 vectors produced by pass  0 Test12= 2.61D-14 2.56D-09 XBig12= 2.24D-01 1.90D-01.
 AX will form    33 AO Fock derivatives at one time.
     33 vectors produced by pass  1 Test12= 2.61D-14 2.56D-09 XBig12= 3.59D-02 3.27D-02.
     33 vectors produced by pass  2 Test12= 2.61D-14 2.56D-09 XBig12= 1.42D-03 7.09D-03.
     33 vectors produced by pass  3 Test12= 2.61D-14 2.56D-09 XBig12= 4.43D-05 9.62D-04.
     33 vectors produced by pass  4 Test12= 2.61D-14 2.56D-09 XBig12= 6.94D-07 1.20D-04.
     33 vectors produced by pass  5 Test12= 2.61D-14 2.56D-09 XBig12= 8.90D-09 1.16D-05.
     33 vectors produced by pass  6 Test12= 2.61D-14 2.56D-09 XBig12= 7.69D-11 1.13D-06.
     26 vectors produced by pass  7 Test12= 2.61D-14 2.56D-09 XBig12= 5.71D-13 1.36D-07.
      8 vectors produced by pass  8 Test12= 2.61D-14 2.56D-09 XBig12= 3.69D-15 8.51D-09.
 InvSVY:  IOpt=1 It=  1 EMax= 1.11D-15
 Solved reduced A of dimension   265 with    33 vectors.
 End of Minotr F.D. properties file   721 does not exist.
 End of Minotr F.D. properties file   722 does not exist.
 End of Minotr F.D. properties file   788 does not exist.
 Leave Link 1002 at Fri May 23 05:03:45 2025, MaxMem=  3758096384 cpu:             172.5 elap:              22.1
 (Enter /apps/easybuild-2022/easybuild/software/Compiler/NVHPC/22.11-CUDA-11.7.0/Gaussian/g16c01-CUDA-11.7.0/g16/l701.exe)
 ... and contract with generalized density number  0.
 Compute integral second derivatives.
 R6Disp: Adding Grimme-D2 dispersion energy 2nd derivatives to the Hessian.
 Leave Link  701 at Fri May 23 05:03:45 2025, MaxMem=  3758096384 cpu:               0.5 elap:               0.1
 (Enter /apps/easybuild-2022/easybuild/software/Compiler/NVHPC/22.11-CUDA-11.7.0/Gaussian/g16c01-CUDA-11.7.0/g16/l702.exe)
 L702 exits ... SP integral derivatives will be done elsewhere.
 Leave Link  702 at Fri May 23 05:03:45 2025, MaxMem=  3758096384 cpu:               0.0 elap:               0.0
 (Enter /apps/easybuild-2022/easybuild/software/Compiler/NVHPC/22.11-CUDA-11.7.0/Gaussian/g16c01-CUDA-11.7.0/g16/l703.exe)
 Integral derivatives from FoFJK, PRISM(SPDF).
 Compute integral second derivatives, UseDBF=F ICtDFT=           0.
 Calling FoFJK, ICntrl=    100127 FMM=F ISym2X=0 I1Cent= 0 IOpClX= 0 NMat=1 NMatS=1 NMatT=0.
 FoFJK:  IHMeth= 1 ICntrl=  100127 DoSepK=T KAlg= 0 I1Cent=           0 FoldK=F
 IRaf=         1 NMat=       1 IRICut=       1 DoRegI=T DoRafI=F ISym2E= 0 IDoP0=0 IntGTp=1.
 FoFCou: FMM=F IPFlag=           0 FMFlag=      100000 FMFlg1=         800
         NFxFlg=           0 DoJE=F BraDBF=F KetDBF=F FulRan=T
         wScrn=  0.000000 ICntrl=    100527 IOpCl=  0 I1Cent=           0 NGrid=           0
         NMat0=    1 NMatS0=      1 NMatT0=    0 NMatD0=    1 NMtDS0=    0 NMtDT0=    0
 Symmetry not used in FoFCou.
 Leave Link  703 at Fri May 23 05:04:19 2025, MaxMem=  3758096384 cpu:             271.7 elap:              34.2
 (Enter /apps/easybuild-2022/easybuild/software/Compiler/NVHPC/22.11-CUDA-11.7.0/Gaussian/g16c01-CUDA-11.7.0/g16/l716.exe)
 Dipole        = 4.67358083D-01 7.16033988D-01 6.96415219D-01
 Polarizability= 0.00000000D+00 0.00000000D+00 0.00000000D+00
                 0.00000000D+00 0.00000000D+00 0.00000000D+00
 -------------------------------------------------------------------
 Center     Atomic                   Forces (Hartrees/Bohr)
 Number     Number              X              Y              Z
 -------------------------------------------------------------------
      1        6          -0.000883054    0.001253598    0.000636544
      2        6          -0.003147003    0.002684277    0.002433572
      3        9          -0.006806513    0.005648492    0.000262086
      4        9          -0.000291542    0.000669996    0.003035278
      5       16          -0.028804513   -0.029282879   -0.013690735
      6        8           0.025788560    0.023395599    0.005216508
      7        8          -0.011820686    0.004391174    0.010935716
      8        8           0.020594209   -0.019720326   -0.012738796
      9        9          -0.000793700    0.000143168    0.000280870
     10        9          -0.000051161    0.002774214    0.001374157
     11        9          -0.000158671    0.001359497    0.000441262
     12        1           0.006374075    0.006683188    0.001813538
 -------------------------------------------------------------------
 Cartesian Forces:  Max     0.029282879 RMS     0.011282895
 Force constants in Cartesian coordinates: 
                1             2             3             4             5 
      1  0.567552D+00
      2  0.197435D-01  0.574727D+00
      3 -0.107538D-01  0.753756D-02  0.564704D+00
      4 -0.827712D-01 -0.583098D-01 -0.325852D-01  0.402235D+00
      5 -0.744307D-01 -0.125887D+00 -0.483557D-01  0.660977D-01  0.547244D+00
      6 -0.302469D-01 -0.366920D-01 -0.597684D-01 -0.101736D+00  0.211471D-01
      7 -0.221508D-02  0.385442D-02  0.219239D-02 -0.137755D+00  0.877739D-01
      8  0.371184D-01 -0.224614D-01 -0.203188D-01  0.744754D-01 -0.182534D+00
      9  0.224687D-01 -0.178870D-01 -0.117964D-01  0.580948D-01 -0.817594D-01
     10 -0.718390D-02 -0.144882D-01  0.242468D-01 -0.102457D+00 -0.585552D-01
     11 -0.861974D-02 -0.163728D-01  0.408363D-01 -0.668834D-01 -0.173099D+00
     12  0.265034D-02  0.928956D-02 -0.123006D-01  0.856599D-01  0.116541D+00
     13 -0.122115D-01  0.106337D-01 -0.169543D-01 -0.314330D-01 -0.735053D-02
     14 -0.887964D-02  0.970790D-02 -0.106577D-01 -0.131253D-01  0.112978D-01
     15 -0.139309D-01 -0.112414D-01  0.585671D-02 -0.308459D-01  0.231761D-01
     16  0.927865D-03  0.229832D-02  0.169758D-02  0.715668D-02 -0.157556D-02
     17  0.848921D-03 -0.194508D-02 -0.170579D-03  0.687922D-03  0.611624D-03
     18  0.917785D-03  0.773891D-03 -0.125193D-02  0.344444D-03 -0.252293D-02
     19 -0.307894D-03 -0.470699D-02  0.718767D-02  0.215712D-02  0.525231D-02
     20  0.516839D-03 -0.582469D-02  0.342445D-02 -0.550536D-02 -0.464618D-02
     21  0.283172D-02  0.841392D-02 -0.232621D-02  0.247519D-01 -0.450282D-02
     22 -0.530725D-03  0.417102D-02 -0.274306D-03 -0.155149D-01 -0.188909D-01
     23  0.583328D-03  0.415357D-02  0.393411D-03 -0.480317D-02 -0.335034D-01
     24  0.801112D-03  0.720815D-02 -0.236655D-02 -0.389418D-02 -0.209722D-01
     25 -0.142501D+00 -0.684168D-01  0.782467D-01 -0.858533D-02 -0.974185D-02
     26 -0.658730D-01 -0.142001D+00  0.742627D-01 -0.154355D-01 -0.117452D-01
     27  0.828649D-01  0.792285D-01 -0.183365D+00  0.714428D-02  0.439165D-02
     28 -0.139531D+00  0.816178D-01  0.516976D-01 -0.294748D-02  0.250094D-02
     29  0.759744D-01 -0.191604D+00 -0.720572D-01  0.364269D-01 -0.270403D-01
     30  0.482221D-01 -0.715891D-01 -0.118151D+00  0.197724D-01 -0.164479D-01
     31 -0.180211D+00  0.235297D-01 -0.104335D+00 -0.276633D-01  0.941242D-02
     32  0.235033D-01 -0.844737D-01  0.248662D-01 -0.131052D-01  0.292164D-02
     33 -0.105383D+00  0.243660D-01 -0.179544D+00 -0.265617D-01  0.101031D-01
     34 -0.101702D-02  0.731395D-04 -0.366073D-03 -0.242149D-02 -0.492596D-03
     35 -0.485619D-03  0.198114D-02  0.239242D-03 -0.520316D-03 -0.362098D-02
     36 -0.441766D-03  0.591860D-03  0.310347D-03 -0.144461D-03 -0.798259D-03
                6             7             8             9            10 
      6  0.481152D+00
      7  0.858523D-01  0.179954D+00
      8 -0.921130D-01 -0.109853D+00  0.193731D+00
      9 -0.135046D+00 -0.122717D+00  0.115950D+00  0.185874D+00
     10  0.613464D-01 -0.203220D-01 -0.484151D-02  0.501042D-01  0.124838D+00
     11  0.113395D+00  0.642073D-02  0.255320D-01 -0.137990D-01  0.764860D-01
     12 -0.209952D+00  0.398326D-01  0.453338D-02 -0.484771D-01 -0.118722D+00
     13  0.520338D-02 -0.344539D-01  0.191489D-01  0.218280D-02  0.661180D-02
     14 -0.742756D-02  0.139168D-01 -0.146134D-01 -0.247891D-02  0.477585D-02
     15 -0.259992D-01  0.881087D-02 -0.902385D-02 -0.266550D-02 -0.924987D-02
     16  0.554650D-02 -0.245149D-02  0.235948D-03 -0.646498D-03 -0.411107D-03
     17  0.114114D-02 -0.191118D-02  0.149334D-02  0.378883D-03 -0.396396D-04
     18 -0.339772D-03 -0.694425D-03  0.107607D-02  0.871111D-03  0.138476D-03
     19 -0.594396D-02  0.292683D-02 -0.120490D-02 -0.182554D-02 -0.127766D-02
     20  0.902169D-02  0.487444D-03  0.194767D-02 -0.696553D-03  0.242851D-02
     21 -0.586628D-02 -0.644892D-02  0.362010D-02  0.406714D-02 -0.494773D-02
     22 -0.168173D-01  0.274603D-02 -0.448762D-02 -0.213990D-02 -0.226955D-03
     23 -0.803910D-02  0.435176D-02  0.560342D-02  0.462084D-02  0.283643D-02
     24 -0.499722D-02 -0.322422D-02  0.275181D-02  0.285136D-02 -0.140420D-02
     25  0.296233D-01  0.273707D-02 -0.201283D-02 -0.397887D-02 -0.417285D-02
     26  0.323951D-01 -0.144241D-02  0.500095D-03  0.222601D-04 -0.602325D-02
     27 -0.901049D-02 -0.271237D-02  0.127080D-03  0.372338D-02  0.395790D-03
     28  0.282298D-03  0.304937D-02 -0.242645D-02 -0.109530D-02  0.240701D-02
     29 -0.203319D-01 -0.387151D-02 -0.108079D-01 -0.556039D-02 -0.227105D-02
     30 -0.683006D-02 -0.194645D-02 -0.567538D-02 -0.170365D-02 -0.339941D-02
     31 -0.293143D-01  0.314979D-02 -0.460202D-02 -0.285729D-03  0.223859D-02
     32 -0.109072D-01 -0.158859D-02  0.225777D-02  0.893299D-03 -0.419341D-03
     33 -0.231691D-01  0.549774D-03 -0.783427D-03  0.222739D-02  0.143092D-02
     34 -0.379547D-02  0.263476D-02 -0.155047D-02 -0.161272D-03 -0.441617D-04
     35 -0.158899D-02  0.186151D-02 -0.648700D-03  0.316130D-03  0.111277D-03
     36 -0.172930D-03  0.505755D-03 -0.143706D-03  0.750902D-04  0.605816D-04
               11            12            13            14            15 
     11  0.179282D+00
     12 -0.150631D+00  0.290850D+00
     13 -0.448313D-02 -0.322447D-02  0.239203D+00
     14 -0.187881D-01  0.259868D-01  0.247896D+00  0.896369D+00
     15  0.131393D-01 -0.232413D-01 -0.896319D-01 -0.190381D+00  0.486200D+00
     16  0.104252D-02 -0.246557D-02  0.124177D-02  0.179697D-02  0.527979D-02
     17  0.812449D-03 -0.766736D-03 -0.142666D-01 -0.468458D-01  0.531336D-02
     18 -0.113656D-03  0.656092D-03 -0.611644D-02  0.237573D-02 -0.216520D-01
     19  0.323441D-02 -0.302959D-02 -0.120574D+00 -0.127976D+00  0.124166D+00
     20  0.625332D-03  0.217477D-02 -0.112785D+00 -0.267779D+00  0.219396D+00
     21  0.595956D-02 -0.995557D-02  0.128609D+00  0.266181D+00 -0.335157D+00
     22  0.338399D-03  0.198846D-03 -0.667473D-01 -0.144042D+00 -0.971646D-02
     23  0.721747D-02 -0.260145D-02 -0.150675D+00 -0.575533D+00 -0.593359D-01
     24 -0.285696D-02  0.154403D-02 -0.258980D-01 -0.899661D-01 -0.770771D-01
     25 -0.730013D-02 -0.874774D-03  0.219930D-03  0.668950D-03  0.209356D-02
     26 -0.800944D-02 -0.880802D-03 -0.159016D-02 -0.242533D-02  0.321267D-02
     27 -0.204866D-03  0.312345D-02  0.348631D-02  0.306700D-02 -0.577883D-02
     28  0.321379D-03 -0.115920D-02  0.232487D-02  0.346571D-03  0.238328D-02
     29  0.190192D-03  0.788210D-04 -0.911540D-03 -0.233664D-02  0.123356D-02
     30 -0.279374D-02  0.324348D-02  0.222216D-02  0.667135D-03 -0.919329D-03
     31  0.143565D-03 -0.294802D-03  0.654592D-03 -0.487427D-03  0.427566D-02
     32  0.227442D-02 -0.342396D-02 -0.184474D-02 -0.259495D-02  0.211286D-02
     33 -0.300504D-02  0.474251D-02  0.172673D-02 -0.130437D-03  0.202710D-02
     34 -0.700625D-03  0.142866D-02  0.151642D-01  0.251093D-01  0.636631D-02
     35  0.335482D-03 -0.300388D-03  0.162282D-01  0.135413D-01  0.239881D-02
     36  0.745873D-04 -0.233183D-03 -0.160540D-02  0.276407D-02 -0.159372D-02
               16            17            18            19            20 
     16  0.312443D+00
     17 -0.260254D+00  0.336289D+00
     18  0.145299D-01 -0.116923D-01  0.206984D-01
     19  0.523031D-03 -0.361381D-02  0.601631D-02  0.105682D+00
     20 -0.104900D-02  0.808767D-02 -0.256231D-03  0.128295D+00  0.275536D+00
     21 -0.207519D-02  0.682353D-03  0.228704D-02 -0.130620D+00 -0.260118D+00
     22 -0.362603D-01  0.527145D-01  0.126996D-01  0.101953D-01 -0.928748D-02
     23  0.220182D-01 -0.314742D-01 -0.902593D-02 -0.121225D-02 -0.105895D-01
     24  0.471338D-02 -0.178147D-01  0.438819D-02  0.991830D-02  0.299401D-01
     25 -0.389418D-03 -0.158285D-04 -0.307612D-03 -0.187001D-02 -0.249031D-03
     26 -0.510432D-03  0.374219D-03 -0.312318D-03  0.740012D-03  0.191026D-02
     27 -0.247453D-03 -0.341190D-04  0.683923D-03 -0.482609D-02 -0.242346D-02
     28  0.542007D-04 -0.482689D-03 -0.388356D-03  0.194474D-03 -0.261382D-03
     29 -0.804756D-03  0.649542D-03  0.156767D-03  0.469777D-04  0.132982D-02
     30 -0.615997D-03  0.291575D-03  0.322940D-03 -0.113810D-02 -0.533199D-03
     31 -0.767507D-03  0.163163D-03 -0.406465D-03  0.195956D-03  0.228006D-03
     32 -0.300101D-03  0.453817D-03 -0.916752D-04  0.103509D-02  0.123216D-02
     33 -0.865113D-03  0.291385D-03 -0.706287D-04 -0.646635D-03 -0.216465D-03
     34 -0.282067D+00  0.226170D+00 -0.267333D-01  0.215525D-02 -0.281819D-02
     35  0.237102D+00 -0.268507D+00  0.196326D-01  0.110430D-03 -0.182943D-02
     36 -0.248513D-01  0.223797D-01 -0.659338D-02  0.741649D-03  0.287255D-03
               21            22            23            24            25 
     21  0.332259D+00
     22 -0.353209D-02  0.124407D+00
     23 -0.117719D-01  0.129403D+00  0.628219D+00
     24  0.154103D-01  0.196074D-01  0.916079D-01  0.565748D-01
     25 -0.289947D-02 -0.130355D-03 -0.507059D-03 -0.802613D-03  0.165113D+00
     26 -0.287074D-02 -0.622892D-03 -0.158967D-03 -0.148318D-02  0.728524D-01
     27  0.194767D-02  0.330167D-03 -0.403486D-04  0.153912D-02 -0.131840D+00
     28 -0.349972D-03  0.621186D-04 -0.256836D-03 -0.243351D-03 -0.326716D-01
     29 -0.145145D-02 -0.440629D-03  0.351300D-03 -0.820156D-03  0.242008D-02
     30 -0.257556D-03 -0.328717D-03 -0.912465D-04 -0.192994D-05  0.476757D-01
     31 -0.178618D-02 -0.179674D-02 -0.258849D-02 -0.238310D-02  0.220694D-01
     32 -0.161472D-02 -0.100965D-02 -0.591369D-03 -0.140890D-02  0.123682D-01
     33 -0.935674D-03 -0.179614D-02 -0.239021D-02 -0.165594D-02 -0.170209D-01
     34 -0.353368D-02 -0.162033D-01  0.850698D-03  0.280950D-02  0.180547D-03
     35 -0.252754D-02 -0.784509D-02  0.630559D-02  0.381419D-02 -0.661439D-04
     36 -0.147292D-02  0.176887D-02 -0.332616D-02  0.379097D-02  0.852911D-04
               26            27            28            29            30 
     26  0.145892D+00
     27 -0.123821D+00  0.286091D+00
     28  0.147392D-01  0.467132D-01  0.214697D+00
     29  0.221628D-01 -0.342911D-02 -0.146136D+00  0.224679D+00
     30 -0.172205D-01 -0.353077D-01 -0.928057D-01  0.947478D-01  0.141125D+00
     31  0.316313D-02 -0.133426D-02 -0.479558D-01  0.395741D-01 -0.177711D-01
     32 -0.617961D-02  0.431033D-01  0.496487D-01 -0.171069D-01  0.188231D-01
     33  0.367288D-01 -0.635445D-01 -0.529117D-02  0.767616D-02  0.186340D-01
     34  0.296351D-05  0.257923D-04  0.316485D-03 -0.707807D-05  0.113102D-03
     35 -0.320312D-03  0.355604D-04  0.388661D-03 -0.467389D-03 -0.178484D-03
     36 -0.328673D-04 -0.102103D-03  0.256648D-03 -0.242865D-03 -0.154107D-03
               31            32            33            34            35 
     31  0.229770D+00
     32 -0.681811D-01  0.102214D+00
     33  0.153646D+00 -0.722236D-01  0.241390D+00
     34  0.315389D-03 -0.106621D-03  0.211460D-03  0.280986D+00
     35 -0.355062D-03 -0.407295D-03 -0.416272D-03 -0.246530D+00  0.253637D+00
     36 -0.107576D-04 -0.128790D-03 -0.100966D-03  0.236349D-01 -0.214248D-01
               36 
     36  0.624690D-02
 FormGI is forming the generalized inverse of G from B-inverse, IUseBI=4.
 Leave Link  716 at Fri May 23 05:04:19 2025, MaxMem=  3758096384 cpu:               0.0 elap:               0.0
 (Enter /apps/easybuild-2022/easybuild/software/Compiler/NVHPC/22.11-CUDA-11.7.0/Gaussian/g16c01-CUDA-11.7.0/g16/l103.exe)

 GradGradGradGradGradGradGradGradGradGradGradGradGradGradGradGradGradGrad
 Berny optimization.
 Red2BG is reusing G-inverse.
 Internal  Forces:  Max     0.047662389 RMS     0.010038135
 Search for a local minimum.
 Step number   1 out of a maximum of   62
 All quantities printed in internal units (Hartrees-Bohrs-Radians)
 RMS Force = .10038D-01 SwitMx=.10000D-02 MixMth= 1
 Mixed Optimization -- RFO/linear search
 Second derivative matrix not updated -- analytic derivatives used.
 ITU=  0
     Eigenvalues ---   -0.04128  -0.00637   0.00227   0.00324   0.00631
     Eigenvalues ---    0.01102   0.04511   0.05734   0.06983   0.08626
     Eigenvalues ---    0.09729   0.10109   0.10663   0.13009   0.15575
     Eigenvalues ---    0.15803   0.18590   0.20664   0.22834   0.24240
     Eigenvalues ---    0.24692   0.38663   0.39109   0.39577   0.41279
     Eigenvalues ---    0.50539   0.51595   0.56241   0.63192   0.63787
 Eigenvalue     1 is  -4.13D-02 should be greater than     0.000000 Eigenvector:
                          R8        A13       D19       D16       D10
   1                   -0.53184  -0.38689  -0.29041   0.27808   0.27041
                          D13       D20       A19       A18       A16
   1                    0.26972   0.18974  -0.17352  -0.16652   0.14866
 Eigenvalue     2 is  -6.37D-03 should be greater than     0.000000 Eigenvector:
                          R8        A13       D21       D19       A16
   1                    0.60865  -0.42143  -0.32102  -0.31259   0.27986
                          A15       A18       D14       D11       D17
   1                    0.19578   0.18056  -0.12669  -0.11797  -0.11497
 RFO step:  Lambda=-8.80156251D-02 EMin=-4.12843677D-02
 Linear search not attempted -- first point.
 Maximum step size (   0.300) exceeded in Quadratic search.
    -- Step size scaled by   0.314
 Iteration  1 RMS(Cart)=  0.07605878 RMS(Int)=  0.01180005
 Iteration  2 RMS(Cart)=  0.01558994 RMS(Int)=  0.00059162
 Iteration  3 RMS(Cart)=  0.00007517 RMS(Int)=  0.00058755
 Iteration  4 RMS(Cart)=  0.00000006 RMS(Int)=  0.00058755
 ITry= 1 IFail=0 DXMaxC= 3.82D-01 DCOld= 1.00D+10 DXMaxT= 3.00D-01 DXLimC= 3.00D+00 Rises=F
 Variable       Old X    -DE/DX   Delta X   Delta X   Delta X     New X
                                 (Linear)    (Quad)   (Total)
    R1        2.91843   0.00433   0.00000   0.00259   0.00259   2.92102
    R2        2.49448  -0.00053   0.00000   0.00065   0.00065   2.49513
    R3        2.50832   0.00239   0.00000   0.00207   0.00207   2.51039
    R4        2.51060  -0.00021   0.00000   0.00013   0.00013   2.51073
    R5        2.50086  -0.00748   0.00000  -0.00763  -0.00763   2.49323
    R6        2.47528   0.00208   0.00000   0.00135   0.00135   2.47663
    R7        3.77573  -0.00765   0.00000  -0.00570  -0.00570   3.77003
    R8        4.08025  -0.04766   0.00000  -0.28008  -0.28060   3.79964
    R9        2.74144  -0.00929   0.00000  -0.00911  -0.00911   2.73232
   R10        2.71264   0.01034   0.00000   0.00369   0.00357   2.71621
   R11        4.25724   0.01816   0.00000   0.01773   0.01827   4.27551
   R12        1.83328  -0.00023   0.00000  -0.00013  -0.00013   1.83316
    A1        1.93978  -0.00096   0.00000  -0.00206  -0.00206   1.93773
    A2        1.89689   0.00310   0.00000   0.00157   0.00157   1.89846
    A3        1.89342   0.00197   0.00000   0.00456   0.00456   1.89797
    A4        1.91750  -0.00149   0.00000  -0.00159  -0.00159   1.91591
    A5        1.90582  -0.00038   0.00000  -0.00011  -0.00010   1.90572
    A6        1.91010  -0.00221   0.00000  -0.00233  -0.00234   1.90776
    A7        1.91808   0.00448   0.00000   0.00501   0.00499   1.92307
    A8        1.94826  -0.00126   0.00000  -0.00247  -0.00246   1.94579
    A9        1.99418  -0.00535   0.00000  -0.00542  -0.00542   1.98876
   A10        1.92133   0.00068   0.00000   0.00403   0.00403   1.92537
   A11        1.83714  -0.00264   0.00000  -0.00600  -0.00599   1.83115
   A12        1.84022   0.00405   0.00000   0.00488   0.00488   1.84509
   A13        2.32672  -0.01277   0.00000  -0.04361  -0.04562   2.28110
   A14        1.84226   0.01299   0.00000   0.03165   0.02967   1.87193
   A15        1.63216  -0.00554   0.00000  -0.02294  -0.02160   1.61056
   A16        2.06435  -0.00757   0.00000  -0.02051  -0.02225   2.04210
   A17        2.18703  -0.00273   0.00000  -0.00888  -0.00833   2.17870
   A18        2.32571  -0.00735   0.00000  -0.06295  -0.06224   2.26348
   A19        2.83725  -0.00502   0.00000  -0.05094  -0.05125   2.78601
    D1        0.85953  -0.00206   0.00000  -0.00382  -0.00383   0.85571
    D2        2.99646   0.00108   0.00000   0.00314   0.00313   2.99959
    D3       -1.20071   0.00163   0.00000   0.00383   0.00383  -1.19688
    D4        2.97175  -0.00249   0.00000  -0.00605  -0.00606   2.96569
    D5       -1.17451   0.00065   0.00000   0.00091   0.00090  -1.17361
    D6        0.91150   0.00120   0.00000   0.00160   0.00160   0.91311
    D7       -1.23598  -0.00226   0.00000  -0.00535  -0.00536  -1.24133
    D8        0.90094   0.00088   0.00000   0.00160   0.00160   0.90255
    D9        2.98696   0.00143   0.00000   0.00229   0.00231   2.98927
   D10       -1.90121   0.01859   0.00000   0.08390   0.08377  -1.81745
   D11        0.88705  -0.00663   0.00000  -0.02702  -0.02703   0.86002
   D12        3.12426  -0.00795   0.00000  -0.03644  -0.03626   3.08800
   D13        2.27611   0.01795   0.00000   0.08495   0.08479   2.36090
   D14       -1.21882  -0.00726   0.00000  -0.02597  -0.02600  -1.24482
   D15        1.01839  -0.00858   0.00000  -0.03539  -0.03523   0.98316
   D16        0.24457   0.01658   0.00000   0.08091   0.08077   0.32534
   D17        3.03283  -0.00864   0.00000  -0.03000  -0.03003   3.00280
   D18       -1.01315  -0.00996   0.00000  -0.03942  -0.03925  -1.05240
   D19        2.13682  -0.01502   0.00000  -0.04897  -0.04756   2.08926
   D20       -0.61657   0.00979   0.00000   0.06590   0.06468  -0.55189
   D21       -1.19472   0.00197   0.00000   0.06212   0.06237  -1.13235
         Item               Value     Threshold  Converged?
 Maximum Force            0.047662     0.000450     NO 
 RMS     Force            0.010038     0.000300     NO 
 Maximum Displacement     0.382299     0.001800     NO 
 RMS     Displacement     0.088187     0.001200     NO 
 Predicted change in Energy=-2.556395D-02
 Lowest energy point so far.  Saving SCF results.
 GradGradGradGradGradGradGradGradGradGradGradGradGradGradGradGradGradGrad

 Leave Link  103 at Fri May 23 05:04:19 2025, MaxMem=  3758096384 cpu:               0.0 elap:               0.0
 (Enter /apps/easybuild-2022/easybuild/software/Compiler/NVHPC/22.11-CUDA-11.7.0/Gaussian/g16c01-CUDA-11.7.0/g16/l202.exe)
                          Input orientation:                          
 ---------------------------------------------------------------------
 Center     Atomic      Atomic             Coordinates (Angstroms)
 Number     Number       Type             X           Y           Z
 ---------------------------------------------------------------------
      1          6           0        1.172906    0.720617    0.791231
      2          6           0        0.413254   -0.533461    0.301828
      3          9           0        1.209325   -1.292406   -0.426857
      4          9           0       -0.076850   -1.219745    1.305033
      5         16           0       -1.138292   -0.128516   -0.885103
      6          8           0       -3.114254   -0.151702   -0.513765
      7          8           0       -0.672266    0.786639   -1.902890
      8          8           0       -1.412524   -1.523238   -1.098502
      9          9           0        1.807503    1.309180   -0.205886
     10          9           0        0.300837    1.565549    1.330067
     11          9           0        2.055298    0.352384    1.713743
     12          1           0       -3.763651    0.566722   -0.570141
 ---------------------------------------------------------------------
                    Distance matrix (angstroms):
                    1          2          3          4          5
     1  C    0.000000
     2  C    1.545735   0.000000
     3  F    2.353152   1.319359   0.000000
     4  F    2.364506   1.310575   2.158464   0.000000
     5  S    2.978718   1.995014   2.660063   2.667234   0.000000
     6  O    4.565490   3.640638   4.472370   3.697914   2.010685
     7  O    3.266085   2.789588   3.168830   3.830257   1.445883
     8  O    3.910297   2.504805   2.716336   2.766426   1.437356
     9  F    1.320365   2.365805   2.678600   3.497017   3.347539
    10  F    1.328442   2.340033   3.475635   2.810896   3.138140
    11  F    1.328623   2.339772   2.828988   2.680428   4.145393
    12  H    5.123145   4.406503   5.311062   4.505579   2.734056
                    6          7          8          9         10
     6  O    0.000000
     7  O    2.962002   0.000000
     8  O    2.262501   2.555494   0.000000
     9  F    5.143216   3.049939   4.380404   0.000000
    10  F    4.243998   3.464916   4.286509   2.166776   0.000000
    11  F    5.651564   4.550628   4.842776   2.159128   2.167282
    12  H    0.970066   3.373610   3.189811   5.632201   4.596576
                   11         12
    11  F    0.000000
    12  H    6.254778   0.000000
 Symmetry turned off by external request.
 Stoichiometry    C2HF5O3S
 Rotational constants (GHZ):           1.5926950           0.7189942           0.6809555
 Leave Link  202 at Fri May 23 05:04:20 2025, MaxMem=  3758096384 cpu:               0.0 elap:               0.0
 (Enter /apps/easybuild-2022/easybuild/software/Compiler/NVHPC/22.11-CUDA-11.7.0/Gaussian/g16c01-CUDA-11.7.0/g16/l301.exe)
 Standard basis: 6-311++G(d,p) (5D, 7F)
 Ernie: Thresh=  0.10000D-02 Tol=  0.10000D-05 Strict=F.
   257 basis functions,   419 primitive gaussians,   268 cartesian basis functions
    49 alpha electrons       49 beta electrons
       nuclear repulsion energy       890.9840370391 Hartrees.
 IExCor= 4639 DFT=T Ex+Corr=wB97XD ExCW=0 ScaHFX=  1.000000
 ScaDFX=  1.000000  1.000000  1.000000  1.000000 ScalE2=  1.000000  1.000000
 IRadAn=      5 IRanWt=     -1 IRanGd=            0 ICorTp=0 IEmpDi=121
 HFx  wShort=  0.000000 wLong=  0.200000 cFull=  0.222036 cShort=  0.000000 cLong=  0.777964
 DFx  wShort=  0.000000 wLong=  0.200000 cFull=  0.000000 cShort=  0.000000 cLong=  1.000000
 NAtoms=   12 NActive=   12 NUniq=   12 SFac= 1.00D+00 NAtFMM=   60 NAOKFM=F Big=F
 Integral buffers will be    131072 words long.
 Raffenetti 2 integral format.
 Two-electron integral symmetry is turned off.
 R6Disp:  Grimme-D2 Dispersion energy=       -0.0049786817 Hartrees.
 Nuclear repulsion after empirical dispersion term =      890.9790583574 Hartrees.
 Leave Link  301 at Fri May 23 05:04:20 2025, MaxMem=  3758096384 cpu:               0.0 elap:               0.1
 (Enter /apps/easybuild-2022/easybuild/software/Compiler/NVHPC/22.11-CUDA-11.7.0/Gaussian/g16c01-CUDA-11.7.0/g16/l302.exe)
 NPDir=0 NMtPBC=     1 NCelOv=     1 NCel=       1 NClECP=     1 NCelD=      1
         NCelK=      1 NCelE2=     1 NClLst=     1 CellRange=     0.0.
 One-electron integrals computed using PRISM.
 NBasis=   257 RedAO= T EigKep=  7.72D-05  NBF=   257
 NBsUse=   257 1.00D-06 EigRej= -1.00D+00 NBFU=   257
 Precomputing XC quadrature grid using
 IXCGrd= 4 IRadAn=           5 IRanWt=          -1 IRanGd=           0 AccXCQ= 0.00D+00.
 Generated NRdTot=       0 NPtTot=           0 NUsed=           0 NTot=          32
 NSgBfM=   268   268   268   268   268 MxSgAt=    12 MxSgA2=    12.
 Leave Link  302 at Fri May 23 05:04:20 2025, MaxMem=  3758096384 cpu:               0.5 elap:               0.1
 (Enter /apps/easybuild-2022/easybuild/software/Compiler/NVHPC/22.11-CUDA-11.7.0/Gaussian/g16c01-CUDA-11.7.0/g16/l303.exe)
 DipDrv:  MaxL=1.
 Leave Link  303 at Fri May 23 05:04:20 2025, MaxMem=  3758096384 cpu:               0.1 elap:               0.0
 (Enter /apps/easybuild-2022/easybuild/software/Compiler/NVHPC/22.11-CUDA-11.7.0/Gaussian/g16c01-CUDA-11.7.0/g16/l401.exe)
 Initial guess from the checkpoint file:  "2003846667223680600001_r13_insertion_ROR_12_8_5_6_IRC_R_prod.chk"
 B after Tr=    -0.031609   -0.016688   -0.012183
         Rot=    0.999984    0.000061    0.001378   -0.005547 Ang=   0.66 deg.
 Guess basis will be translated and rotated to current coordinates.
 JPrj=2 DoOrth=T DoCkMO=T.
 Generating alternative initial guess.
 ExpMin= 3.60D-02 ExpMax= 9.34D+04 ExpMxC= 3.17D+03 IAcc=3 IRadAn=         5 AccDes= 0.00D+00
 Harris functional with IExCor= 4639 and IRadAn=       5 diagonalized for initial guess.
 HarFok:  IExCor= 4639 AccDes= 0.00D+00 IRadAn=         5 IDoV= 1 UseB2=F ITyADJ=14
 ICtDFT=  3500011 ScaDFX=  1.000000  1.000000  1.000000  1.000000
 FoFCou: FMM=F IPFlag=           0 FMFlag=      100000 FMFlg1=           0
         NFxFlg=           0 DoJE=T BraDBF=F KetDBF=T FulRan=T
         wScrn=  0.000000 ICntrl=       500 IOpCl=  0 I1Cent=   200000004 NGrid=           0
         NMat0=    1 NMatS0=      1 NMatT0=    0 NMatD0=    1 NMtDS0=    0 NMtDT0=    0
 Symmetry not used in FoFCou.
 Harris En= -1167.08531812980    
 Leave Link  401 at Fri May 23 05:04:20 2025, MaxMem=  3758096384 cpu:               2.5 elap:               0.4
 (Enter /apps/easybuild-2022/easybuild/software/Compiler/NVHPC/22.11-CUDA-11.7.0/Gaussian/g16c01-CUDA-11.7.0/g16/l502.exe)
 Keep R1 ints in memory in canonical form, NReq=1117474609.
 FoFCou: FMM=F IPFlag=           0 FMFlag=           0 FMFlg1=           0
         NFxFlg=           0 DoJE=F BraDBF=F KetDBF=F FulRan=T
         wScrn=  0.000000 ICntrl=       600 IOpCl=  0 I1Cent=           0 NGrid=           0
         NMat0=    1 NMatS0=  33153 NMatT0=    0 NMatD0=    1 NMtDS0=    0 NMtDT0=    0
 Symmetry not used in FoFCou.
 Two-electron integral symmetry not used.
 Closed shell SCF:
 Using DIIS extrapolation, IDIIS=  1040.
 NGot=  3758096384 LenX=  2658793876 LenY=  2658721611
 Requested convergence on RMS density matrix=1.00D-08 within  32 cycles.
 Requested convergence on MAX density matrix=1.00D-06.
 Requested convergence on             energy=1.00D-06.
 No special actions if energy rises.

 Cycle   1  Pass 1  IDiag  1:
 E= -1199.70846637021    
 DIIS: error= 2.48D-03 at cycle   1 NSaved=   1.
 NSaved= 1 IEnMin= 1 EnMin= -1199.70846637021     IErMin= 1 ErrMin= 2.48D-03
 ErrMax= 2.48D-03  0.00D+00 EMaxC= 1.00D-01 BMatC= 5.81D-03 BMatP= 5.81D-03
 IDIUse=3 WtCom= 9.75D-01 WtEn= 2.48D-02
 Coeff-Com:  0.100D+01
 Coeff-En:   0.100D+01
 Coeff:      0.100D+01
 Gap=     0.747 Goal=   None    Shift=    0.000
 GapD=    0.747 DampG=2.000 DampE=1.000 DampFc=2.0000 IDamp=-1.
 RMSDP=9.32D-04 MaxDP=2.61D-02              OVMax= 4.03D-02

 Cycle   2  Pass 1  IDiag  1:
 E= -1199.71773873574     Delta-E=       -0.009272365526 Rises=F Damp=F
 DIIS: error= 2.04D-03 at cycle   2 NSaved=   2.
 NSaved= 2 IEnMin= 2 EnMin= -1199.71773873574     IErMin= 2 ErrMin= 2.04D-03
 ErrMax= 2.04D-03  0.00D+00 EMaxC= 1.00D-01 BMatC= 1.72D-03 BMatP= 5.81D-03
 IDIUse=3 WtCom= 9.80D-01 WtEn= 2.04D-02
 Coeff-Com:  0.197D+00 0.803D+00
 Coeff-En:   0.000D+00 0.100D+01
 Coeff:      0.193D+00 0.807D+00
 Gap=     0.287 Goal=   None    Shift=    0.000
 RMSDP=5.61D-04 MaxDP=4.36D-02 DE=-9.27D-03 OVMax= 2.43D-02

 Cycle   3  Pass 1  IDiag  1:
 E= -1199.71793785079     Delta-E=       -0.000199115055 Rises=F Damp=F
 DIIS: error= 2.51D-03 at cycle   3 NSaved=   3.
 NSaved= 3 IEnMin= 3 EnMin= -1199.71793785079     IErMin= 2 ErrMin= 2.04D-03
 ErrMax= 2.51D-03  0.00D+00 EMaxC= 1.00D-01 BMatC= 2.37D-03 BMatP= 1.72D-03
 IDIUse=3 WtCom= 1.66D-01 WtEn= 8.34D-01
 Coeff-Com: -0.125D+00 0.599D+00 0.525D+00
 Coeff-En:   0.000D+00 0.470D+00 0.530D+00
 Coeff:     -0.207D-01 0.491D+00 0.529D+00
 Gap=     0.294 Goal=   None    Shift=    0.000
 RMSDP=2.77D-04 MaxDP=1.76D-02 DE=-1.99D-04 OVMax= 2.46D-02

 Cycle   4  Pass 1  IDiag  1:
 E= -1199.71980549677     Delta-E=       -0.001867645981 Rises=F Damp=F
 DIIS: error= 8.95D-04 at cycle   4 NSaved=   4.
 NSaved= 4 IEnMin= 4 EnMin= -1199.71980549677     IErMin= 4 ErrMin= 8.95D-04
 ErrMax= 8.95D-04  0.00D+00 EMaxC= 1.00D-01 BMatC= 2.76D-04 BMatP= 1.72D-03
 IDIUse=3 WtCom= 9.91D-01 WtEn= 8.95D-03
 Coeff-Com: -0.429D-01 0.168D-02 0.264D+00 0.777D+00
 Coeff-En:   0.000D+00 0.000D+00 0.160D-01 0.984D+00
 Coeff:     -0.425D-01 0.166D-02 0.262D+00 0.779D+00
 Gap=     0.290 Goal=   None    Shift=    0.000
 RMSDP=1.28D-04 MaxDP=8.05D-03 DE=-1.87D-03 OVMax= 8.83D-03

 Cycle   5  Pass 1  IDiag  1:
 E= -1199.72011880300     Delta-E=       -0.000313306221 Rises=F Damp=F
 DIIS: error= 2.03D-04 at cycle   5 NSaved=   5.
 NSaved= 5 IEnMin= 5 EnMin= -1199.72011880300     IErMin= 5 ErrMin= 2.03D-04
 ErrMax= 2.03D-04  0.00D+00 EMaxC= 1.00D-01 BMatC= 2.79D-05 BMatP= 2.76D-04
 IDIUse=3 WtCom= 9.98D-01 WtEn= 2.03D-03
 Coeff-Com:  0.166D-01-0.234D+00-0.285D-01 0.487D+00 0.758D+00
 Coeff-En:   0.000D+00 0.000D+00 0.000D+00 0.000D+00 0.100D+01
 Coeff:      0.166D-01-0.233D+00-0.284D-01 0.486D+00 0.759D+00
 Gap=     0.289 Goal=   None    Shift=    0.000
 RMSDP=6.85D-05 MaxDP=2.18D-03 DE=-3.13D-04 OVMax= 5.06D-03

 Cycle   6  Pass 1  IDiag  1:
 E= -1199.72018129468     Delta-E=       -0.000062491681 Rises=F Damp=F
 DIIS: error= 7.01D-05 at cycle   6 NSaved=   6.
 NSaved= 6 IEnMin= 6 EnMin= -1199.72018129468     IErMin= 6 ErrMin= 7.01D-05
 ErrMax= 7.01D-05  0.00D+00 EMaxC= 1.00D-01 BMatC= 1.62D-06 BMatP= 2.79D-05
 IDIUse=1 WtCom= 1.00D+00 WtEn= 0.00D+00
 Coeff-Com:  0.874D-02-0.354D-01-0.380D-01-0.353D-01 0.101D+00 0.999D+00
 Coeff:      0.874D-02-0.354D-01-0.380D-01-0.353D-01 0.101D+00 0.999D+00
 Gap=     0.289 Goal=   None    Shift=    0.000
 RMSDP=2.86D-05 MaxDP=9.18D-04 DE=-6.25D-05 OVMax= 3.05D-03

 Cycle   7  Pass 1  IDiag  1:
 E= -1199.72019289012     Delta-E=       -0.000011595446 Rises=F Damp=F
 DIIS: error= 4.35D-05 at cycle   7 NSaved=   7.
 NSaved= 7 IEnMin= 7 EnMin= -1199.72019289012     IErMin= 7 ErrMin= 4.35D-05
 ErrMax= 4.35D-05  0.00D+00 EMaxC= 1.00D-01 BMatC= 6.14D-07 BMatP= 1.62D-06
 IDIUse=1 WtCom= 1.00D+00 WtEn= 0.00D+00
 Coeff-Com: -0.230D-03 0.290D-01-0.567D-02-0.986D-01-0.117D+00 0.335D+00
 Coeff-Com:  0.857D+00
 Coeff:     -0.230D-03 0.290D-01-0.567D-02-0.986D-01-0.117D+00 0.335D+00
 Coeff:      0.857D+00
 Gap=     0.289 Goal=   None    Shift=    0.000
 RMSDP=1.55D-05 MaxDP=5.43D-04 DE=-1.16D-05 OVMax= 1.82D-03

 Cycle   8  Pass 1  IDiag  1:
 E= -1199.72019616914     Delta-E=       -0.000003279017 Rises=F Damp=F
 DIIS: error= 2.46D-05 at cycle   8 NSaved=   8.
 NSaved= 8 IEnMin= 8 EnMin= -1199.72019616914     IErMin= 8 ErrMin= 2.46D-05
 ErrMax= 2.46D-05  0.00D+00 EMaxC= 1.00D-01 BMatC= 1.67D-07 BMatP= 6.14D-07
 IDIUse=1 WtCom= 1.00D+00 WtEn= 0.00D+00
 Coeff-Com: -0.238D-02 0.217D-01 0.751D-02-0.340D-01-0.784D-01-0.130D+00
 Coeff-Com:  0.335D+00 0.880D+00
 Coeff:     -0.238D-02 0.217D-01 0.751D-02-0.340D-01-0.784D-01-0.130D+00
 Coeff:      0.335D+00 0.880D+00
 Gap=     0.289 Goal=   None    Shift=    0.000
 RMSDP=1.02D-05 MaxDP=4.54D-04 DE=-3.28D-06 OVMax= 1.23D-03

 Cycle   9  Pass 1  IDiag  1:
 E= -1199.72019725905     Delta-E=       -0.000001089911 Rises=F Damp=F
 DIIS: error= 1.49D-05 at cycle   9 NSaved=   9.
 NSaved= 9 IEnMin= 9 EnMin= -1199.72019725905     IErMin= 9 ErrMin= 1.49D-05
 ErrMax= 1.49D-05  0.00D+00 EMaxC= 1.00D-01 BMatC= 3.41D-08 BMatP= 1.67D-07
 IDIUse=1 WtCom= 1.00D+00 WtEn= 0.00D+00
 Coeff-Com: -0.505D-03-0.349D-02 0.328D-02 0.234D-01 0.180D-01-0.145D+00
 Coeff-Com: -0.162D+00 0.196D+00 0.107D+01
 Coeff:     -0.505D-03-0.349D-02 0.328D-02 0.234D-01 0.180D-01-0.145D+00
 Coeff:     -0.162D+00 0.196D+00 0.107D+01
 Gap=     0.289 Goal=   None    Shift=    0.000
 RMSDP=7.27D-06 MaxDP=3.79D-04 DE=-1.09D-06 OVMax= 7.58D-04

 Cycle  10  Pass 1  IDiag  1:
 E= -1199.72019755064     Delta-E=       -0.000000291588 Rises=F Damp=F
 DIIS: error= 4.70D-06 at cycle  10 NSaved=  10.
 NSaved=10 IEnMin=10 EnMin= -1199.72019755064     IErMin=10 ErrMin= 4.70D-06
 ErrMax= 4.70D-06  0.00D+00 EMaxC= 1.00D-01 BMatC= 5.13D-09 BMatP= 3.41D-08
 IDIUse=1 WtCom= 1.00D+00 WtEn= 0.00D+00
 Coeff-Com:  0.400D-03-0.567D-02-0.887D-03 0.144D-01 0.202D-01-0.131D-01
 Coeff-Com: -0.970D-01-0.111D+00 0.223D+00 0.970D+00
 Coeff:      0.400D-03-0.567D-02-0.887D-03 0.144D-01 0.202D-01-0.131D-01
 Coeff:     -0.970D-01-0.111D+00 0.223D+00 0.970D+00
 Gap=     0.289 Goal=   None    Shift=    0.000
 RMSDP=2.41D-06 MaxDP=1.49D-04 DE=-2.92D-07 OVMax= 2.46D-04

 Cycle  11  Pass 1  IDiag  1:
 E= -1199.72019758289     Delta-E=       -0.000000032248 Rises=F Damp=F
 DIIS: error= 2.37D-06 at cycle  11 NSaved=  11.
 NSaved=11 IEnMin=11 EnMin= -1199.72019758289     IErMin=11 ErrMin= 2.37D-06
 ErrMax= 2.37D-06  0.00D+00 EMaxC= 1.00D-01 BMatC= 1.78D-09 BMatP= 5.13D-09
 IDIUse=1 WtCom= 1.00D+00 WtEn= 0.00D+00
 Coeff-Com:  0.255D-03-0.248D-02-0.891D-03 0.463D-02 0.761D-02 0.986D-02
 Coeff-Com: -0.291D-01-0.791D-01-0.231D-01 0.479D+00 0.634D+00
 Coeff:      0.255D-03-0.248D-02-0.891D-03 0.463D-02 0.761D-02 0.986D-02
 Coeff:     -0.291D-01-0.791D-01-0.231D-01 0.479D+00 0.634D+00
 Gap=     0.289 Goal=   None    Shift=    0.000
 RMSDP=6.81D-07 MaxDP=3.75D-05 DE=-3.22D-08 OVMax= 5.39D-05

 Cycle  12  Pass 1  IDiag  1:
 E= -1199.72019758668     Delta-E=       -0.000000003794 Rises=F Damp=F
 DIIS: error= 1.36D-06 at cycle  12 NSaved=  12.
 NSaved=12 IEnMin=12 EnMin= -1199.72019758668     IErMin=12 ErrMin= 1.36D-06
 ErrMax= 1.36D-06  0.00D+00 EMaxC= 1.00D-01 BMatC= 5.78D-10 BMatP= 1.78D-09
 IDIUse=1 WtCom= 1.00D+00 WtEn= 0.00D+00
 Coeff-Com:  0.147D-05 0.647D-03-0.164D-03-0.237D-02-0.312D-02 0.950D-02
 Coeff-Com:  0.210D-01-0.369D-03-0.932D-01-0.959D-01 0.386D+00 0.778D+00
 Coeff:      0.147D-05 0.647D-03-0.164D-03-0.237D-02-0.312D-02 0.950D-02
 Coeff:      0.210D-01-0.369D-03-0.932D-01-0.959D-01 0.386D+00 0.778D+00
 Gap=     0.289 Goal=   None    Shift=    0.000
 RMSDP=3.42D-07 MaxDP=1.43D-05 DE=-3.79D-09 OVMax= 2.85D-05

 Cycle  13  Pass 1  IDiag  1:
 E= -1199.72019758799     Delta-E=       -0.000000001311 Rises=F Damp=F
 DIIS: error= 5.00D-07 at cycle  13 NSaved=  13.
 NSaved=13 IEnMin=13 EnMin= -1199.72019758799     IErMin=13 ErrMin= 5.00D-07
 ErrMax= 5.00D-07  0.00D+00 EMaxC= 1.00D-01 BMatC= 4.59D-11 BMatP= 5.78D-10
 IDIUse=1 WtCom= 1.00D+00 WtEn= 0.00D+00
 Coeff-Com: -0.347D-04 0.573D-03 0.485D-04-0.144D-02-0.206D-02 0.174D-02
 Coeff-Com:  0.107D-01 0.963D-02-0.266D-01-0.995D-01 0.638D-01 0.190D+00
 Coeff-Com:  0.853D+00
 Coeff:     -0.347D-04 0.573D-03 0.485D-04-0.144D-02-0.206D-02 0.174D-02
 Coeff:      0.107D-01 0.963D-02-0.266D-01-0.995D-01 0.638D-01 0.190D+00
 Coeff:      0.853D+00
 Gap=     0.289 Goal=   None    Shift=    0.000
 RMSDP=1.40D-07 MaxDP=8.08D-06 DE=-1.31D-09 OVMax= 1.39D-05

 Cycle  14  Pass 1  IDiag  1:
 E= -1199.72019758816     Delta-E=       -0.000000000169 Rises=F Damp=F
 DIIS: error= 2.43D-07 at cycle  14 NSaved=  14.
 NSaved=14 IEnMin=14 EnMin= -1199.72019758816     IErMin=14 ErrMin= 2.43D-07
 ErrMax= 2.43D-07  0.00D+00 EMaxC= 1.00D-01 BMatC= 1.71D-11 BMatP= 4.59D-11
 IDIUse=1 WtCom= 1.00D+00 WtEn= 0.00D+00
 Coeff-Com: -0.123D-04 0.309D-04 0.457D-04 0.105D-03 0.102D-03-0.196D-02
 Coeff-Com: -0.171D-02 0.365D-02 0.153D-01-0.118D-01-0.607D-01-0.177D+00
 Coeff-Com:  0.320D+00 0.913D+00
 Coeff:     -0.123D-04 0.309D-04 0.457D-04 0.105D-03 0.102D-03-0.196D-02
 Coeff:     -0.171D-02 0.365D-02 0.153D-01-0.118D-01-0.607D-01-0.177D+00
 Coeff:      0.320D+00 0.913D+00
 Gap=     0.289 Goal=   None    Shift=    0.000
 RMSDP=7.64D-08 MaxDP=2.17D-06 DE=-1.69D-10 OVMax= 8.17D-06

 Cycle  15  Pass 1  IDiag  1:
 E= -1199.72019758828     Delta-E=       -0.000000000124 Rises=F Damp=F
 DIIS: error= 5.68D-08 at cycle  15 NSaved=  15.
 NSaved=15 IEnMin=15 EnMin= -1199.72019758828     IErMin=15 ErrMin= 5.68D-08
 ErrMax= 5.68D-08  0.00D+00 EMaxC= 1.00D-01 BMatC= 2.09D-12 BMatP= 1.71D-11
 IDIUse=1 WtCom= 1.00D+00 WtEn= 0.00D+00
 Coeff-Com:  0.265D-05-0.952D-04 0.399D-05 0.298D-03 0.406D-03-0.870D-03
 Coeff-Com: -0.258D-02-0.571D-03 0.983D-02 0.133D-01-0.267D-01-0.104D+00
 Coeff-Com: -0.304D-01 0.294D+00 0.847D+00
 Coeff:      0.265D-05-0.952D-04 0.399D-05 0.298D-03 0.406D-03-0.870D-03
 Coeff:     -0.258D-02-0.571D-03 0.983D-02 0.133D-01-0.267D-01-0.104D+00
 Coeff:     -0.304D-01 0.294D+00 0.847D+00
 Gap=     0.289 Goal=   None    Shift=    0.000
 RMSDP=2.69D-08 MaxDP=8.95D-07 DE=-1.24D-10 OVMax= 3.02D-06

 Cycle  16  Pass 1  IDiag  1:
 E= -1199.72019758833     Delta-E=       -0.000000000045 Rises=F Damp=F
 DIIS: error= 3.04D-08 at cycle  16 NSaved=  16.
[...]
   D18       -1.12044   0.00000   0.00000   0.00070   0.00070  -1.11973
   D19        1.55399  -0.00001   0.00000  -0.00044  -0.00044   1.55356
   D20       -0.41739   0.00001   0.00000  -0.00030  -0.00030  -0.41769
   D21       -0.53273   0.00001   0.00000   0.00051   0.00051  -0.53223
         Item               Value     Threshold  Converged?
 Maximum Force            0.000034     0.000450     YES
 RMS     Force            0.000011     0.000300     YES
 Maximum Displacement     0.001139     0.001800     YES
 RMS     Displacement     0.000492     0.001200     YES
 Predicted change in Energy=-2.864299D-08
 Optimization completed.
    -- Stationary point found.
                           ----------------------------
                           !   Optimized Parameters   !
                           ! (Angstroms and Degrees)  !
 --------------------------                            --------------------------
 ! Name  Definition              Value          Derivative Info.                !
 --------------------------------------------------------------------------------
 ! R1    R(1,2)                  1.5564         -DE/DX =    0.0                 !
 ! R2    R(1,9)                  1.3203         -DE/DX =    0.0                 !
 ! R3    R(1,10)                 1.3402         -DE/DX =    0.0                 !
 ! R4    R(1,11)                 1.326          -DE/DX =    0.0                 !
 ! R5    R(2,3)                  1.3326         -DE/DX =    0.0                 !
 ! R6    R(2,4)                  1.3322         -DE/DX =    0.0                 !
 ! R7    R(2,5)                  1.8779         -DE/DX =    0.0                 !
 ! R8    R(5,6)                  1.6007         -DE/DX =    0.0                 !
 ! R9    R(5,7)                  1.4367         -DE/DX =    0.0                 !
 ! R10   R(5,8)                  1.427          -DE/DX =    0.0                 !
 ! R11   R(6,8)                  2.4323         -DE/DX =    0.0                 !
 ! R12   R(6,12)                 0.9664         -DE/DX =    0.0                 !
 ! A1    A(2,1,9)              111.0603         -DE/DX =    0.0                 !
 ! A2    A(2,1,10)             109.8303         -DE/DX =    0.0                 !
 ! A3    A(2,1,11)             109.4115         -DE/DX =    0.0                 !
 ! A4    A(9,1,10)             108.942          -DE/DX =    0.0                 !
 ! A5    A(9,1,11)             109.1556         -DE/DX =    0.0                 !
 ! A6    A(10,1,11)            108.3926         -DE/DX =    0.0                 !
 ! A7    A(1,2,3)              108.9034         -DE/DX =    0.0                 !
 ! A8    A(1,2,4)              109.0424         -DE/DX =    0.0                 !
 ! A9    A(1,2,5)              114.2578         -DE/DX =    0.0                 !
 ! A10   A(3,2,4)              109.5547         -DE/DX =    0.0                 !
 ! A11   A(3,2,5)              106.8771         -DE/DX =    0.0                 !
 ! A12   A(4,2,5)              108.1241         -DE/DX =    0.0                 !
 ! A13   A(2,5,6)              100.508          -DE/DX =    0.0                 !
 ! A14   A(2,5,7)              107.499          -DE/DX =    0.0                 !
 ! A15   A(2,5,8)              106.1752         -DE/DX =    0.0                 !
 ! A16   A(6,5,7)              109.4728         -DE/DX =    0.0                 !
 ! A17   A(7,5,8)              123.9296         -DE/DX =    0.0                 !
 ! A18   A(5,6,12)             110.4388         -DE/DX =    0.0                 !
 ! A19   A(8,6,12)             141.692          -DE/DX =    0.0                 !
 ! D1    D(9,1,2,3)             47.9627         -DE/DX =    0.0                 !
 ! D2    D(9,1,2,4)            167.4654         -DE/DX =    0.0                 !
 ! D3    D(9,1,2,5)            -71.4373         -DE/DX =    0.0                 !
 ! D4    D(10,1,2,3)           168.5359         -DE/DX =    0.0                 !
 ! D5    D(10,1,2,4)           -71.9614         -DE/DX =    0.0                 !
 ! D6    D(10,1,2,5)            49.1359         -DE/DX =    0.0                 !
 ! D7    D(11,1,2,3)           -72.6017         -DE/DX =    0.0                 !
 ! D8    D(11,1,2,4)            46.901          -DE/DX =    0.0                 !
 ! D9    D(11,1,2,5)           167.9983         -DE/DX =    0.0                 !
 ! D10   D(1,2,5,6)            -74.7489         -DE/DX =    0.0                 !
 ! D11   D(1,2,5,7)             39.706          -DE/DX =    0.0                 !
 ! D12   D(1,2,5,8)            174.1996         -DE/DX =    0.0                 !
 ! D13   D(3,2,5,6)            164.7167         -DE/DX =    0.0                 !
 ! D14   D(3,2,5,7)            -80.8285         -DE/DX =    0.0                 !
 ! D15   D(3,2,5,8)             53.6652         -DE/DX =    0.0                 !
 ! D16   D(4,2,5,6)             46.8553         -DE/DX =    0.0                 !
 ! D17   D(4,2,5,7)            161.3101         -DE/DX =    0.0                 !
 ! D18   D(4,2,5,8)            -64.1962         -DE/DX =    0.0                 !
 ! D19   D(2,5,6,12)            89.0372         -DE/DX =    0.0                 !
 ! D20   D(7,5,6,12)           -23.9146         -DE/DX =    0.0                 !
 ! D21   D(5,6,8,12)           -30.5234         -DE/DX =    0.0                 !
 --------------------------------------------------------------------------------
 GradGradGradGradGradGradGradGradGradGradGradGradGradGradGradGradGradGrad

 Leave Link  103 at Fri May 23 05:10:15 2025, MaxMem=  3758096384 cpu:               0.0 elap:               0.0
 (Enter /apps/easybuild-2022/easybuild/software/Compiler/NVHPC/22.11-CUDA-11.7.0/Gaussian/g16c01-CUDA-11.7.0/g16/l9999.exe)

 ----------------------------------------------------------------------

 Electric dipole moment (input orientation):
 (Debye = 10**-18 statcoulomb cm , SI units = C m)
                  (au)            (Debye)         (10**-30 SI)
   Tot        0.111727D+01      0.283981D+01      0.947257D+01
   x         -0.126488D+00     -0.321500D+00     -0.107241D+01
   y          0.790964D+00      0.201043D+01      0.670607D+01
   z          0.778883D+00      0.197972D+01      0.660365D+01

 Dipole polarizability, Alpha (input orientation).
 (esu units = cm**3 , SI units = C**2 m**2 J**-1)
 Alpha(0;0):
               (au)            (10**-24 esu)      (10**-40 SI)
   iso        0.556946D+02      0.825309D+01      0.918280D+01
   aniso      0.606936D+01      0.899386D+00      0.100070D+01
   xx         0.562060D+02      0.832887D+01      0.926712D+01
   yx         0.991269D+00      0.146891D+00      0.163438D+00
   yy         0.555106D+02      0.822583D+01      0.915247D+01
   zx         0.320731D+01      0.475274D+00      0.528814D+00
   zy         0.899043D+00      0.133224D+00      0.148232D+00
   zz         0.553671D+02      0.820456D+01      0.912881D+01

 ----------------------------------------------------------------------

 Dipole orientation:
     6          1.72768977          0.08336304          1.78376677
     6          0.43170539         -1.05025931         -0.60077214
     9          2.08278081         -1.05496427         -2.50217518
     9         -0.28544381         -3.41128337         -0.10169433
    16         -2.41358550          0.75626110         -1.71149053
     8         -4.43910910         -0.06450587          0.37980248
     8         -1.85742076          3.40012971         -1.44425114
     8         -3.17709926         -0.39464633         -4.02755800
     9          2.90928142          2.21131382          1.23578793
     9         -0.00907814          0.54350359          3.56863303
     9          3.38115402         -1.56400914          2.69551225
     1         -4.38158873          1.07550205          1.80535828

 Electric dipole moment (dipole orientation):
 (Debye = 10**-18 statcoulomb cm , SI units = C m)
                  (au)            (Debye)         (10**-30 SI)
   Tot        0.111727D+01      0.283981D+01      0.947257D+01
   x          0.000000D+00      0.000000D+00      0.000000D+00
   y          0.000000D+00      0.000000D+00      0.000000D+00
   z          0.111727D+01      0.283981D+01      0.947257D+01

 Dipole polarizability, Alpha (dipole orientation).
 (esu units = cm**3 , SI units = C**2 m**2 J**-1)
 Alpha(0;0):
               (au)            (10**-24 esu)      (10**-40 SI)
   iso        0.556946D+02      0.825309D+01      0.918280D+01
   aniso      0.606936D+01      0.899386D+00      0.100070D+01
   xx         0.570170D+02      0.844904D+01      0.940083D+01
   yx        -0.145508D+01     -0.215620D+00     -0.239910D+00
   yy         0.543948D+02      0.806047D+01      0.896848D+01
   zx         0.288129D+01      0.426964D+00      0.475061D+00
   zy         0.374899D+00      0.555544D-01      0.618126D-01
   zz         0.556721D+02      0.824975D+01      0.917908D+01

 ----------------------------------------------------------------------
 Unable to Open any file for archive entry.
 1\1\GINC-SPARTAN-BM175\Freq\RwB97XD\6-311++G(d,p)\C2H1F5O3S1\AKHALILOV
 \23-May-2025\0\\#P Geom=AllCheck Guess=TCheck SCRF=Check GenChk RwB97X
 D/6-311++G(d,p) Freq\\Gaussian input prepared by ASE\\0,1\C,0.80256862
 15,0.7425135152,0.730318576\C,0.2364684824,-0.6059234757,0.1976917785\
 F,1.217375664,-1.2787373765,-0.4030719083\F,-0.2290675384,-1.317310564
 4,1.2233495849\S,-1.146135109,-0.4194789779,-1.0592945229\O,-2.3557005
 709,0.0072941559,-0.1016661786\O,-0.8039860548,0.6804434508,-1.9178587
 601\O,-1.4371259471,-1.7354034251,-1.5282863013\F,1.5091258578,1.36027
 37585,-0.1982387156\F,-0.2049793187,1.5393613524,1.1123378213\F,1.5751
 452973,0.511090321,1.7828793463\H,-2.3824063841,0.9678992659,0.0005972
 798\\Version=ES64L-G16RevC.01\HF=-1199.825891\RMSD=1.796e-09\RMSF=1.80
 3e-05\ZeroPoint=0.0521821\Thermal=0.0624498\ETot=-1199.7634412\HTot=-1
 199.762497\GTot=-1199.8101314\Dipole=-0.126488,0.7909642,0.7788831\Dip
 oleDeriv=1.6925872,-0.0810545,0.0537907,0.1575459,1.3882657,0.1074767,
 0.0386512,-0.094002,1.6503815,1.0549208,-0.1757809,-0.1605531,-0.34217
 89,0.7883312,-0.3036543,-0.1717328,-0.1555134,1.0228653,-0.7393298,0.2
 507242,0.1240356,0.3324794,-0.4356679,-0.1287632,0.1696405,-0.106439,-
 0.3358491,-0.3237131,-0.0698488,0.0959715,-0.0812155,-0.4658364,0.3574
 213,0.0382667,0.2778026,-0.7482901,1.9932711,0.0614045,-0.1190488,-0.0
 305525,2.1980399,0.0248123,-0.163081,0.1546896,2.0279342,-1.059169,0.2
 571209,0.2077497,0.3482783,-0.5880774,-0.1874141,0.3346637,-0.1875791,
 -0.724476,-0.6020286,-0.0504648,0.0294939,-0.0491733,-0.8787376,0.3692
 812,-0.0164956,0.2051235,-0.871612,-0.625056,-0.1670537,-0.1562187,-0.
 1853083,-0.979183,-0.2792244,-0.1521816,-0.1583296,-0.6666615,-0.50190
 12,-0.1926866,0.2136455,-0.2511081,-0.4590095,0.18744,0.1964909,0.1414
 196,-0.5363415,-0.6594238,0.2041935,0.0750454,0.271227,-0.5527416,-0.1
 705489,0.1109909,-0.1453497,-0.3677379,-0.5911324,0.0282528,-0.3913757
 ,-0.0520476,-0.3350479,-0.0319895,-0.4186798,0.049106,-0.775563,0.3609
 749,-0.0648067,0.0274641,-0.1179465,0.3196644,0.0551629,0.0334669,0.01
 90714,0.3253502\Polar=56.206003,0.9912694,55.5106434,3.2073102,0.89904
 26,55.3671235\PG=Unknown\NImag=0\\0.55350663,0.02899111,0.57303002,0.0
 0115275,0.00145968,0.56607247,-0.06923232,-0.02842593,-0.02747550,0.47
 088080,-0.05429445,-0.14407025,-0.05213690,-0.00787168,0.54652173,-0.0
 2739637,-0.02810991,-0.06442792,-0.04425088,-0.00605423,0.48594737,-0.
 01085236,0.00380245,0.00570513,-0.19500493,0.10474005,0.06742791,0.253
 78185,0.04057814,-0.01792308,-0.01457763,0.09515446,-0.15590438,-0.054
 10983,-0.13070371,0.16341018,0.02332812,-0.01250566,-0.00901708,0.0589
 1894,-0.05744344,-0.10404471,-0.12174993,0.07868439,0.13948529,-0.0065
 3482,-0.01232016,0.01866743,-0.08750233,-0.04357880,0.04330401,-0.0266
 6037,-0.01114286,0.05080155,0.11381066,-0.01250111,-0.01743489,0.04319
 614,-0.04430425,-0.16383185,0.10093488,-0.00050313,0.02410316,-0.00827
 440,0.06460369,0.17210926,0.00355309,0.00540830,-0.01331212,0.05181864
 ,0.11355629,-0.20207784,0.04091910,0.00273085,-0.03740678,-0.09805683,
 -0.14445822,0.27209981,0.00076595,-0.02247972,-0.02022632,-0.09174937,
 0.01718324,-0.06512971,-0.02444835,0.00883820,-0.00354008,0.00453416,-
 0.01246815,0.02327903,0.52383517,-0.02309269,0.03027285,-0.02190283,-0
 .01188903,-0.05333059,-0.00869447,0.02328653,-0.00898101,0.00373567,0.
 00908393,-0.01091945,0.02565482,0.16439202,1.17605802,-0.02196754,-0.0
 1573386,0.00450749,-0.05934133,0.01065505,-0.07933968,0.02670868,-0.01
 433913,0.00369109,-0.00633011,0.01163863,-0.02761813,-0.05269015,-0.04
 412367,0.66788675,-0.00102901,0.00788185,0.00276033,-0.00112216,0.0008
 8677,0.02861416,-0.01160567,0.00399989,-0.00289431,0.00046430,0.003234
 70,-0.00707201,-0.17356744,0.01966447,0.07571041,0.20545562,0.00530431
 ,-0.00866923,-0.00080945,0.00380823,0.00648709,-0.00716811,0.00321309,
 -0.00061521,0.00081279,0.00027167,0.00036154,0.00008537,0.04108165,-0.
 10287790,-0.03127885,-0.04749092,0.61810490,0.00799536,-0.00427773,-0.
 00492363,-0.00312081,0.00388353,-0.00386197,-0.00231085,0.00154681,0.0
 0103192,-0.00300086,-0.00154677,0.00636089,0.07697251,-0.01110737,-0.1
 1802445,-0.12375221,0.07933324,0.14229917,-0.00254472,0.00077777,0.007
 73321,0.01065057,0.00513345,-0.00263596,0.00115137,-0.00046017,-0.0002
 4671,-0.00152617,0.00396444,-0.00775111,-0.11617162,-0.09328117,0.0672
 7917,-0.00243471,-0.01817175,0.02880047,0.09239726,0.00214360,-0.01261
 224,0.00659443,-0.01607758,0.00216900,-0.00090363,0.00419127,-0.000150
 60,-0.00124670,0.00235478,-0.00072879,0.00562168,-0.09619155,-0.416561
 19,0.25442811,0.00125397,0.01286795,-0.00374596,0.11383713,0.42146207,
 0.00462617,0.00520715,-0.00035839,0.02315048,0.01120180,0.00314317,-0.
 01033731,0.00343468,0.00140189,-0.00440551,0.00398863,-0.01006495,0.07
 301608,0.26187452,-0.29177421,0.01602857,0.01713770,-0.01001662,-0.093
 25383,-0.28531784,0.29094322,-0.00223078,0.00980743,0.00022051,0.00284
 680,-0.02479767,-0.00128716,0.00141019,-0.00061538,-0.00040504,0.00078
 330,0.00378649,-0.00504682,-0.11321783,-0.12558664,-0.04903355,0.00845
 466,0.02912771,0.01343193,0.01664932,-0.00864907,-0.00088085,0.0872827
 6,0.00228577,0.00219135,0.00206278,0.01007350,-0.01814431,0.00558709,-
 0.00514020,0.00631834,0.00295948,0.00038089,0.00629447,-0.00632383,-0.
 11938188,-0.58379893,-0.17457298,-0.00211737,-0.01829996,-0.00743399,-
 0.00622013,-0.01413901,-0.01733803,0.12282936,0.61560049,-0.00010929,0
 .01019257,-0.00277557,0.00155126,-0.02833720,0.00004894,-0.00418906,0.
 00409756,0.00190769,0.00011227,0.00052853,0.00088456,-0.04841362,-0.17
 959956,-0.14882909,0.00030404,-0.02914865,0.00053924,0.01010566,0.0254
 5015,0.01676075,0.04090132,0.20143227,0.13519101,-0.14847376,-0.078184
 22,0.07680110,-0.01024189,-0.00633118,0.02424857,0.00469096,-0.0014478
 1,-0.00378568,-0.00282335,-0.00709687,-0.00048096,0.00025138,0.0002451
 0,0.00387914,-0.00023754,-0.00042791,-0.00145764,-0.00109320,0.0002147
 8,-0.00251445,-0.00047994,-0.00081007,-0.00111206,0.18348881,-0.072908
 17,-0.15291731,0.07165746,-0.02136907,-0.00957368,0.02924089,-0.000348
 09,-0.00024431,-0.00029727,-0.00544655,-0.01024271,0.00036847,0.003527
 63,-0.00599743,0.00513374,-0.00131139,0.00116830,-0.00030522,-0.000324
 60,0.00362537,-0.00251892,-0.00166835,-0.00010766,-0.00225167,0.085956
 68,0.15238418,0.08081449,0.07961802,-0.16676427,0.00827723,0.00219709,
 -0.00411764,-0.00319217,-0.00074984,0.00306837,0.00022065,-0.00025707,
 0.00248601,0.00239606,0.00604748,-0.00725464,-0.00045782,0.00016108,0.
 00226078,-0.00441020,-0.00409966,0.00149833,0.00051368,-0.00045886,0.0
 0183035,-0.13542851,-0.12142982,0.26000578,-0.15297616,0.08413735,0.03
 968860,-0.00715496,0.00314326,0.00332578,0.00288090,0.00051229,0.00057
 211,0.00319174,0.00148244,-0.00163727,-0.00847335,0.00709696,0.0048580
 8,0.00066947,-0.00505456,-0.00635876,0.00223811,-0.00148505,-0.0011649
 0,0.00184777,-0.00105305,0.00033866,-0.04850376,0.01230395,0.04554522,
 0.25888328,0.07865140,-0.17342065,-0.04661146,0.03862260,-0.01433377,-
 0.01253937,-0.00059274,-0.01171492,-0.00664069,-0.00315300,-0.00131275
 ,0.00117433,0.00598360,-0.00560101,0.00216749,-0.00437039,0.00230730,0
 .00101861,-0.00106665,0.00275825,-0.00126767,-0.00169627,0.00017383,-0
 .00127648,-0.00095286,0.02274476,-0.00197943,-0.14242198,0.18762362,0.
 03825470,-0.04808449,-0.09550325,0.01842029,-0.00795446,-0.00093353,-0
 .00050277,-0.00523704,-0.00191530,-0.00297374,-0.00336749,0.00313562,0
 .00333800,0.00220645,-0.00177551,-0.00229917,0.00029353,0.00147212,-0.
 00122951,-0.00159918,-0.00115793,-0.00048128,-0.00068993,0.00019052,0.
 04747743,-0.01258757,-0.02164544,-0.06718372,0.05426670,0.10825697,-0.
 15454585,0.00249361,-0.10513963,-0.01984643,0.00589859,-0.02763991,0.0
 0477675,-0.00436200,-0.00059151,0.00183285,0.00028533,0.00017093,0.003
 56507,-0.00255071,0.00464134,-0.00140330,0.00017976,-0.00034503,-0.000
 08841,0.00080085,-0.00132828,-0.00195590,-0.00192026,-0.00248654,0.022
 54462,0.00167435,0.00620514,-0.05378174,0.03396226,-0.03159105,0.19786
 998,0.00522239,-0.08118038,0.01006977,-0.01906956,0.00396176,-0.020313
 13,-0.00014394,0.00120218,0.00060253,-0.00060501,0.00135186,-0.0032958
 8,0.00446034,-0.00793761,0.00288759,-0.00166583,0.00198654,0.00103595,
 -0.00000031,0.00271124,-0.00107258,-0.00228555,-0.00037236,-0.00238242
 ,0.00885326,-0.00033100,0.04109762,0.04248449,-0.00638719,0.02435353,-
 0.03647709,0.08554963,-0.10693868,0.00455663,-0.21592153,-0.02821227,0
 .00933020,-0.03207650,0.00210154,-0.00141842,0.00217535,0.00199874,-0.
 00238924,0.00670132,0.00703367,-0.00323919,0.00285302,-0.00243091,0.00
 109453,0.00112714,-0.00135908,0.00030796,-0.00087370,-0.00284777,-0.00
 238365,-0.00262781,-0.00836246,0.03292344,-0.07037965,-0.01909674,0.01
 398881,0.01180054,0.15761632,-0.05248510,0.29740235,-0.00585281,0.0035
 1848,0.00011238,-0.00252377,-0.00011158,0.00141957,-0.00012034,-0.0003
 5106,-0.00040747,0.00043004,-0.00048358,0.00030420,-0.00532377,0.03263
 122,0.00628585,-0.02364424,-0.01184127,0.01314590,0.00077222,-0.002393
 12,-0.00293617,-0.00139034,0.00107344,0.00299736,0.00087767,-0.0000863
 9,-0.00048378,0.00117870,-0.00296597,-0.00122918,0.00103235,-0.0007731
 9,0.00049764,0.03456429,-0.00038029,0.00273380,0.00099801,0.00134833,0
 .00004925,0.00212982,-0.00180157,0.00049965,-0.00038672,-0.00044857,0.
 00025016,-0.00052218,0.00505461,-0.01032576,-0.00686213,0.02003425,-0.
 51282133,-0.05840109,-0.00418803,-0.00140205,0.00467056,-0.00025206,0.
 00428375,0.00129491,-0.00001889,-0.00050853,-0.00014662,-0.00114610,-0
 .00283745,-0.00160005,0.00001533,-0.00055468,-0.00028596,-0.01821699,0
 .52063318,-0.00331282,0.00226930,0.00242380,0.00026396,0.00110226,0.00
 174032,-0.00058026,-0.00006240,-0.00037773,-0.00033761,0.00000638,-0.0
 0118839,0.00396452,-0.03085184,-0.00432265,0.01548892,-0.03051318,-0.0
 1826459,-0.00303212,0.00451063,0.00049844,0.00491502,-0.00284035,-0.00
 312058,0.00073552,0.00006647,-0.00098798,0.00111295,-0.00230084,-0.001
 92483,0.00048821,-0.00049788,-0.00018052,-0.01970629,0.05911145,0.0257
 0470\\0.00000818,-0.00000205,-0.00000610,-0.00003350,-0.00001705,-0.00
 005929,0.00001005,0.00000565,0.00000103,0.00000470,-0.00001142,0.00001
 515,0.00002775,0.00000455,0.00005737,-0.00000544,-0.00002092,0.0000049
 9,-0.00001437,0.00000916,-0.00001627,0.00000068,0.00001858,0.00000668,
 -0.00000422,0.00000832,-0.00000117,0.00000588,0.00001567,0.00000569,0.
 00000230,0.00000201,-0.00000792,-0.00000200,-0.00001250,-0.00000015\\\
 @
 The archive entry for this job was punched.


 THE ONLY TROUBLE WITH A SURE THING IS THE UNCERTAINTY.
     -- FROM A TEABAG (BELONGING TO W.H.?)
 Job cpu time:       0 days  0 hours 10 minutes 17.5 seconds.
 Elapsed time:       0 days  0 hours  1 minutes 19.1 seconds.
 File lengths (MBytes):  RWF=     99 Int=      0 D2E=      0 Chk=      6 Scr=      1
 Normal termination of Gaussian 16 at Fri May 23 05:10:15 2025.
done
