 Entering Gaussian System, Link 0=g16
 Initial command:
 /apps/easybuild-2022/easybuild/software/Compiler/NVHPC/22.11-CUDA-11.7.0/Gaussian/g16c01-CUDA-11.7.0/g16/l1.exe "/tmp/Gau-141537.inp" -scrdir="/tmp/"
 Entering Link 1 = /apps/easybuild-2022/easybuild/software/Compiler/NVHPC/22.11-CUDA-11.7.0/Gaussian/g16c01-CUDA-11.7.0/g16/l1.exe PID=    141539.
  
 Copyright (c) 1988-2019, Gaussian, Inc.  All Rights Reserved.
  
 This is part of the Gaussian(R) 16 program.  It is based on
 the Gaussian(R) 09 system (copyright 2009, Gaussian, Inc.),
 the Gaussian(R) 03 system (copyright 2003, Gaussian, Inc.),
 the Gaussian(R) 98 system (copyright 1998, Gaussian, Inc.),
 the Gaussian(R) 94 system (copyright 1995, Gaussian, Inc.),
 the Gaussian 92(TM) system (copyright 1992, Gaussian, Inc.),
 the Gaussian 90(TM) system (copyright 1990, Gaussian, Inc.),
 the Gaussian 88(TM) system (copyright 1988, Gaussian, Inc.),
 the Gaussian 86(TM) system (copyright 1986, Carnegie Mellon
 University), and the Gaussian 82(TM) system (copyright 1983,
 Carnegie Mellon University). Gaussian is a federally registered
 trademark of Gaussian, Inc.
  
 This software contains proprietary and confidential information,
 including trade secrets, belonging to Gaussian, Inc.
  
 This software is provided under written license and may be
 used, copied, transmitted, or stored only in accord with that
 written license.
  
 The following legend is applicable only to US Government
 contracts under FAR:
  
                    RESTRICTED RIGHTS LEGEND
  
 Use, reproduction and disclosure by the US Government is
 subject to restrictions as set forth in subparagraphs (a)
 and (c) of the Commercial Computer Software - Restricted
 Rights clause in FAR 52.227-19.
  
 Gaussian, Inc.
 340 Quinnipiac St., Bldg. 40, Wallingford CT 06492
  
  
 ---------------------------------------------------------------
 Warning -- This program may not be used in any manner that
 competes with the business of Gaussian, Inc. or will provide
 assistance to any competitor of Gaussian, Inc.  The licensee
 of this program is prohibited from giving any competitor of
 Gaussian, Inc. access to this program.  By using this program,
 the user acknowledges that Gaussian, Inc. is engaged in the
 business of creating and licensing software in the field of
 computational chemistry and represents and warrants to the
 licensee that it is not a competitor of Gaussian, Inc. and that
 it will not use this program in any manner prohibited above.
 ---------------------------------------------------------------
  

 Cite this work as:
 Gaussian 16, Revision C.01,
 M. J. Frisch, G. W. Trucks, H. B. Schlegel, G. E. Scuseria, 
 M. A. Robb, J. R. Cheeseman, G. Scalmani, V. Barone, 
 G. A. Petersson, H. Nakatsuji, X. Li, M. Caricato, A. V. Marenich, 
 J. Bloino, B. G. Janesko, R. Gomperts, B. Mennucci, H. P. Hratchian, 
 J. V. Ortiz, A. F. Izmaylov, J. L. Sonnenberg, D. Williams-Young, 
 F. Ding, F. Lipparini, F. Egidi, J. Goings, B. Peng, A. Petrone, 
 T. Henderson, D. Ranasinghe, V. G. Zakrzewski, J. Gao, N. Rega, 
 G. Zheng, W. Liang, M. Hada, M. Ehara, K. Toyota, R. Fukuda, 
 J. Hasegawa, M. Ishida, T. Nakajima, Y. Honda, O. Kitao, H. Nakai, 
 T. Vreven, K. Throssell, J. A. Montgomery, Jr., J. E. Peralta, 
 F. Ogliaro, M. J. Bearpark, J. J. Heyd, E. N. Brothers, K. N. Kudin, 
 V. N. Staroverov, T. A. Keith, R. Kobayashi, J. Normand, 
 K. Raghavachari, A. P. Rendell, J. C. Burant, S. S. Iyengar, 
 J. Tomasi, M. Cossi, J. M. Millam, M. Klene, C. Adamo, R. Cammi, 
 J. W. Ochterski, R. L. Martin, K. Morokuma, O. Farkas, 
 J. B. Foresman, and D. J. Fox, Gaussian, Inc., Wallingford CT, 2019.
 
 ******************************************
 Gaussian 16:  ES64L-G16RevC.01  3-Jul-2019
                23-May-2025 
 ******************************************
 %mem=28GB
 %chk=2003846667223680600001_r12_insertion_R_12_8_5_IRC_R
 %nprocshared=8
 Will use up to    8 processors via shared memory.
 ----------------------------------------------------------------------
 #P wb97xd/6-311++G(d,p) Symm(None) scf(xqc) pop(None) geom(AllCheck,No
 KeepConstants) guess(Read) irc(RCFC,reverse,MaxPoints=100,StepSize=2)
 ----------------------------------------------------------------------
 1/10=5,18=10,22=2,26=3,29=20007,38=1,39=2,42=100,44=3,172=1/1,23;
 2/12=2,15=3,29=1,40=1/2;
 3/5=4,6=6,7=1111,11=2,14=-4,25=1,30=1,71=2,74=-58,116=-2,140=1/1,2,3;
 4/5=1/1;
 5/5=2,8=3,13=1,38=6/2,8;
 8/6=4,10=90,11=11/1;
 11/6=1,8=1,9=11,15=111,16=1,31=1/1,2,10;
 10/6=1,13=1,31=1/2;
 7/10=1,25=1,30=1/1,2,3,16;
 1/18=10,22=2,26=3,39=2,42=100,44=3/23(2);
 2/15=3,29=1/2;
 99/5=20/99;
 2/15=3,29=1/2;
 3/5=4,6=6,7=1111,11=2,14=-2,25=1,30=1,71=2,74=-58,140=1/1,2,3;
 4/5=5,16=3,69=1/1;
 5/5=2,8=3,13=1,38=5/2,8;
 8/6=4,10=90,11=11/1;
 11/6=1,8=1,9=11,15=111,16=1,31=1/1,2,10;
 10/6=1,13=1,31=1/2;
 7/10=1,25=1,30=1/1,2,3,16;
 1/18=10,22=2,26=3,39=2,42=100,44=3/23(-8);
 2/15=3,29=1/2;
 99/5=20,9=1/99;
 Leave Link    1 at Fri May 23 03:46:01 2025, MaxMem=  3758096384 cpu:               0.0 elap:               0.1
 (Enter /apps/easybuild-2022/easybuild/software/Compiler/NVHPC/22.11-CUDA-11.7.0/Gaussian/g16c01-CUDA-11.7.0/g16/l101.exe)
 Structure from the checkpoint file:  "2003846667223680600001_r12_insertion_R_12_8_5_IRC_R.chk"
 ------------------------------
 Gaussian input prepared by ASE
 ------------------------------
 Charge =  0 Multiplicity = 1
 Redundant internal coordinates found in file.  (old form).
 C,0,-0.8565661353,-0.1862668472,1.2891666072
 C,0,-0.080729212,0.3339790183,0.0436077162
 F,0,-0.3902867825,-0.4081121132,-1.0176122537
 F,0,-0.4074123779,1.6021103712,-0.1845575948
 S,0,1.7834094558,0.2622842938,0.2412078172
 O,0,2.202300887,1.4820508801,1.0484770959
 O,0,2.1303618584,-1.0545886043,0.6706490456
 O,0,2.3372090655,0.833741412,-1.0566978625
 F,0,-0.7323626657,-1.4979523831,1.4011215706
 F,0,-0.3871073815,0.3976467574,2.3864826172
 F,0,-2.1415215583,0.1178833206,1.1514080092
 H,0,2.5931218464,1.7152498944,-0.1549547679
 Recover connectivity data from disk.
 ITRead=  0  0  0  0  0  0  0  0  0  0  0  0
 MicOpt= -1 -1 -1 -1 -1 -1 -1 -1 -1 -1 -1 -1
 NAtoms=     12 NQM=       12 NQMF=       0 NMMI=      0 NMMIF=      0
                NMic=       0 NMicF=      0.
                    Isotopes and Nuclear Properties:
 (Nuclear quadrupole moments (NQMom) in fm**2, nuclear magnetic moments (NMagM)
  in nuclear magnetons)

  Atom         1           2           3           4           5           6           7           8           9          10
 IAtWgt=          12          12          19          19          32          16          16          16          19          19
 AtmWgt=  12.0000000  12.0000000  18.9984032  18.9984032  31.9720718  15.9949146  15.9949146  15.9949146  18.9984032  18.9984032
 NucSpn=           0           0           1           1           0           0           0           0           1           1
 AtZEff=   3.6000000   3.6000000   6.7500000   6.7500000  13.6000000   5.6000000   5.6000000   5.6000000   6.7500000   6.7500000
 NQMom=    0.0000000   0.0000000   0.0000000   0.0000000   0.0000000   0.0000000   0.0000000   0.0000000   0.0000000   0.0000000
 NMagM=    0.0000000   0.0000000   2.6288670   2.6288670   0.0000000   0.0000000   0.0000000   0.0000000   2.6288670   2.6288670
 AtZNuc=   6.0000000   6.0000000   9.0000000   9.0000000  16.0000000   8.0000000   8.0000000   8.0000000   9.0000000   9.0000000

  Atom        11          12
 IAtWgt=          19           1
 AtmWgt=  18.9984032   1.0078250
 NucSpn=           1           1
 AtZEff=   6.7500000   1.0000000
 NQMom=    0.0000000   0.0000000
 NMagM=    2.6288670   2.7928460
 AtZNuc=   9.0000000   1.0000000
 Leave Link  101 at Fri May 23 03:46:02 2025, MaxMem=  3758096384 cpu:               0.2 elap:               0.2
 (Enter /apps/easybuild-2022/easybuild/software/Compiler/NVHPC/22.11-CUDA-11.7.0/Gaussian/g16c01-CUDA-11.7.0/g16/l123.exe)
 IRC-IRC-IRC-IRC-IRC-IRC-IRC-IRC-IRC-IRC-IRC-IRC-IRC-IRC-IRC-IRC-IRC-IRC
 ------------------------------------------------------------------------
 INPUT DATA FOR L123
 ------------------------------------------------------------------------
 GENERAL PARAMETERS:
 Rxn path following direction = Reverse
 Maximum points per path      = 100
 Step size                    =   0.020 bohr
 Integration scheme           = HPC                                 
    Redo corrector integration= Yes                                 
    DWI Weight Power          =  2
    DWI will use Hessian update vectors when possible.
    Max correction cycles     =  20
 Initial Hessian              = ReadFC from chk
 Hessian evaluation           = All updating
 Hessian updating method      = Bofill                              
 ------------------------------------------------------------------------
          ******** Start new reaction path calculation ********
 RCFC Option Requested - Data Read From Chk File:
 "2003846667223680600001_r12_insertion_R_12_8_5_IRC_R.chk"
   Energy From Chk =  -1199.7670193

 Current Structure is TS -> form Hessian eigenvectors.
                            Recovering Hessian eigenvectors from chk file.
 Supplied step size of   0.0200 bohr.
    Integration on MW PES will use step size of   0.0209 sqrt(amu)*bohr.
 Point Number:   0          Path Number:   1
 Calculating another point on the path.
 Point Number  1 in REVERSE path direction.
 Using LQA Reaction Path Following.
 IRC-IRC-IRC-IRC-IRC-IRC-IRC-IRC-IRC-IRC-IRC-IRC-IRC-IRC-IRC-IRC-IRC-IRC
 Leave Link  123 at Fri May 23 03:46:02 2025, MaxMem=  3758096384 cpu:               0.0 elap:               0.0
 (Enter /apps/easybuild-2022/easybuild/software/Compiler/NVHPC/22.11-CUDA-11.7.0/Gaussian/g16c01-CUDA-11.7.0/g16/l202.exe)
                          Input orientation:                          
 ---------------------------------------------------------------------
 Center     Atomic      Atomic             Coordinates (Angstroms)
 Number     Number       Type             X           Y           Z
 ---------------------------------------------------------------------
      1          6           0       -1.246472   -0.366712    0.763336
      2          6           0       -0.470638    0.153544   -0.482161
      3          9           0       -0.780159   -0.588539   -1.543400
      4          9           0       -0.797300    1.421678   -0.710361
      5         16           0        1.393546    0.081740   -0.284947
      6          8           0        1.812616    1.301936    0.522534
      7          8           0        1.740469   -1.234993    0.144946
      8          8           0        1.947124    0.652955   -1.582461
      9          9           0       -1.122250   -1.678387    0.875317
     10          9           0       -0.776988    0.217215    1.860680
     11          9           0       -2.531412   -0.062553    0.625606
     12          1           0        2.202591    1.537915   -0.670687
 ---------------------------------------------------------------------
                    Distance matrix (angstroms):
                    1          2          3          4          5
     1  C    0.000000
     2  C    1.556870   0.000000
     3  F    2.363828   1.331435   0.000000
     4  F    2.360481   1.329266   2.176056   0.000000
     5  S    2.875709   1.875961   2.599611   2.603117   0.000000
     6  O    3.492906   2.746173   3.816342   2.888950   1.522013
     7  O    3.171456   2.685198   3.101932   3.772230   1.427918
     8  O    4.091642   2.702896   2.996817   2.980496   1.521932
     9  F    1.322295   2.371353   2.674881   3.497194   3.282299
    10  F    1.328740   2.363643   3.498144   2.839259   3.055043
    11  F    1.327612   2.349603   2.836923   2.644786   4.031776
    12  H    4.192857   3.016318   3.765665   3.002404   1.709910
                    6          7          8          9         10
     6  O    0.000000
     7  O    2.565889   0.000000
     8  O    2.206869   2.567292   0.000000
     9  F    4.197645   2.987507   4.571311   0.000000
    10  F    3.110194   3.374943   4.412015   2.164129   0.000000
    11  F    4.554452   4.455851   5.044283   2.158475   2.163719
    12  H    1.277318   2.927085   1.296051   4.877426   4.126737
                   11         12
    11  F    0.000000
    12  H    5.162620   0.000000
 Symmetry turned off by external request.
 Stoichiometry    C2HF5O3S
 Rotational constants (GHZ):           1.6111884           0.8167106           0.7728430
 Leave Link  202 at Fri May 23 03:46:02 2025, MaxMem=  3758096384 cpu:               0.0 elap:               0.0
 (Enter /apps/easybuild-2022/easybuild/software/Compiler/NVHPC/22.11-CUDA-11.7.0/Gaussian/g16c01-CUDA-11.7.0/g16/l301.exe)
 Standard basis: 6-311++G(d,p) (5D, 7F)
 Ernie: Thresh=  0.10000D-02 Tol=  0.10000D-05 Strict=F.
   257 basis functions,   419 primitive gaussians,   268 cartesian basis functions
    49 alpha electrons       49 beta electrons
       nuclear repulsion energy       923.1740789336 Hartrees.
 IExCor= 4639 DFT=T Ex+Corr=wB97XD ExCW=0 ScaHFX=  1.000000
 ScaDFX=  1.000000  1.000000  1.000000  1.000000 ScalE2=  1.000000  1.000000
 IRadAn=      5 IRanWt=     -1 IRanGd=            0 ICorTp=0 IEmpDi=121
 HFx  wShort=  0.000000 wLong=  0.200000 cFull=  0.222036 cShort=  0.000000 cLong=  0.777964
 DFx  wShort=  0.000000 wLong=  0.200000 cFull=  0.000000 cShort=  0.000000 cLong=  1.000000
 NAtoms=   12 NActive=   12 NUniq=   12 SFac= 1.00D+00 NAtFMM=   60 NAOKFM=F Big=F
 Integral buffers will be    131072 words long.
 Raffenetti 2 integral format.
 Two-electron integral symmetry is turned off.
 R6Disp:  Grimme-D2 Dispersion energy=       -0.0054769218 Hartrees.
 Nuclear repulsion after empirical dispersion term =      923.1686020119 Hartrees.
 Leave Link  301 at Fri May 23 03:46:02 2025, MaxMem=  3758096384 cpu:               0.0 elap:               0.0
 (Enter /apps/easybuild-2022/easybuild/software/Compiler/NVHPC/22.11-CUDA-11.7.0/Gaussian/g16c01-CUDA-11.7.0/g16/l302.exe)
 NPDir=0 NMtPBC=     1 NCelOv=     1 NCel=       1 NClECP=     1 NCelD=      1
         NCelK=      1 NCelE2=     1 NClLst=     1 CellRange=     0.0.
 One-electron integrals computed using PRISM.
 NBasis=   257 RedAO= T EigKep=  7.18D-05  NBF=   257
 NBsUse=   257 1.00D-06 EigRej= -1.00D+00 NBFU=   257
 Precomputing XC quadrature grid using
 IXCGrd= 4 IRadAn=           5 IRanWt=          -1 IRanGd=           0 AccXCQ= 0.00D+00.
 Generated NRdTot=       0 NPtTot=           0 NUsed=           0 NTot=          32
 NSgBfM=   268   268   268   268   268 MxSgAt=    12 MxSgA2=    12.
 Leave Link  302 at Fri May 23 03:46:02 2025, MaxMem=  3758096384 cpu:               0.4 elap:               0.1
 (Enter /apps/easybuild-2022/easybuild/software/Compiler/NVHPC/22.11-CUDA-11.7.0/Gaussian/g16c01-CUDA-11.7.0/g16/l303.exe)
 DipDrv:  MaxL=1.
 Leave Link  303 at Fri May 23 03:46:02 2025, MaxMem=  3758096384 cpu:               0.1 elap:               0.0
 (Enter /apps/easybuild-2022/easybuild/software/Compiler/NVHPC/22.11-CUDA-11.7.0/Gaussian/g16c01-CUDA-11.7.0/g16/l401.exe)
 Initial guess from the checkpoint file:  "2003846667223680600001_r12_insertion_R_12_8_5_IRC_R.chk"
 B after Tr=    -0.736754   -0.340912   -0.993575
         Rot=    1.000000   -0.000021    0.000015   -0.000004 Ang=  -0.00 deg.
 Guess basis will be translated and rotated to current coordinates.
 JPrj=2 DoOrth=T DoCkMO=T.
 Leave Link  401 at Fri May 23 03:46:02 2025, MaxMem=  3758096384 cpu:               0.2 elap:               0.2
 (Enter /apps/easybuild-2022/easybuild/software/Compiler/NVHPC/22.11-CUDA-11.7.0/Gaussian/g16c01-CUDA-11.7.0/g16/l502.exe)
 Keep R1 ints in memory in canonical form, NReq=1117474609.
 FoFCou: FMM=F IPFlag=           0 FMFlag=           0 FMFlg1=           0
         NFxFlg=           0 DoJE=F BraDBF=F KetDBF=F FulRan=T
         wScrn=  0.000000 ICntrl=       600 IOpCl=  0 I1Cent=           0 NGrid=           0
         NMat0=    1 NMatS0=  33153 NMatT0=    0 NMatD0=    1 NMtDS0=    0 NMtDT0=    0
 Symmetry not used in FoFCou.
 Two-electron integral symmetry not used.
 Closed shell SCF:
 Using DIIS extrapolation, IDIIS=  1040.
 NGot=  3758096384 LenX=  2658793876 LenY=  2658721611
 Requested convergence on RMS density matrix=1.00D-08 within  32 cycles.
 Requested convergence on MAX density matrix=1.00D-06.
 Requested convergence on             energy=1.00D-06.
 No special actions if energy rises.

 Cycle   1  Pass 1  IDiag  1:
 E= -1199.76699367402    
 DIIS: error= 5.94D-04 at cycle   1 NSaved=   1.
 NSaved= 1 IEnMin= 1 EnMin= -1199.76699367402     IErMin= 1 ErrMin= 5.94D-04
 ErrMax= 5.94D-04  0.00D+00 EMaxC= 1.00D-01 BMatC= 3.92D-05 BMatP= 3.92D-05
 IDIUse=3 WtCom= 9.94D-01 WtEn= 5.94D-03
 Coeff-Com:  0.100D+01
 Coeff-En:   0.100D+01
 Coeff:      0.100D+01
 Gap=     0.469 Goal=   None    Shift=    0.000
 RMSDP=6.21D-05 MaxDP=1.60D-03              OVMax= 3.04D-03

 Cycle   2  Pass 1  IDiag  1:
 E= -1199.76704094205     Delta-E=       -0.000047268026 Rises=F Damp=F
 DIIS: error= 3.21D-04 at cycle   2 NSaved=   2.
 NSaved= 2 IEnMin= 2 EnMin= -1199.76704094205     IErMin= 2 ErrMin= 3.21D-04
 ErrMax= 3.21D-04  0.00D+00 EMaxC= 1.00D-01 BMatC= 7.77D-06 BMatP= 3.92D-05
 IDIUse=3 WtCom= 9.97D-01 WtEn= 3.21D-03
 Coeff-Com:  0.157D+00 0.843D+00
 Coeff-En:   0.000D+00 0.100D+01
 Coeff:      0.157D+00 0.843D+00
 Gap=     0.469 Goal=   None    Shift=    0.000
 RMSDP=2.08D-05 MaxDP=6.94D-04 DE=-4.73D-05 OVMax= 1.72D-03

 Cycle   3  Pass 1  IDiag  1:
 E= -1199.76704253573     Delta-E=       -0.000001593688 Rises=F Damp=F
 DIIS: error= 3.11D-04 at cycle   3 NSaved=   3.
 NSaved= 3 IEnMin= 3 EnMin= -1199.76704253573     IErMin= 3 ErrMin= 3.11D-04
 ErrMax= 3.11D-04  0.00D+00 EMaxC= 1.00D-01 BMatC= 9.21D-06 BMatP= 7.77D-06
 IDIUse=3 WtCom= 3.62D-01 WtEn= 6.38D-01
 Coeff-Com: -0.973D-01 0.553D+00 0.544D+00
 Coeff-En:   0.000D+00 0.432D+00 0.568D+00
 Coeff:     -0.352D-01 0.476D+00 0.559D+00
 Gap=     0.469 Goal=   None    Shift=    0.000
 RMSDP=2.42D-05 MaxDP=6.04D-04 DE=-1.59D-06 OVMax= 8.21D-04

 Cycle   4  Pass 1  IDiag  1:
 E= -1199.76704888141     Delta-E=       -0.000006345674 Rises=F Damp=F
 DIIS: error= 9.32D-05 at cycle   4 NSaved=   4.
 NSaved= 4 IEnMin= 4 EnMin= -1199.76704888141     IErMin= 4 ErrMin= 9.32D-05
 ErrMax= 9.32D-05  0.00D+00 EMaxC= 1.00D-01 BMatC= 5.79D-07 BMatP= 7.77D-06
 IDIUse=1 WtCom= 1.00D+00 WtEn= 0.00D+00
 Coeff-Com:  0.238D-03-0.190D+00 0.101D+00 0.109D+01
 Coeff:      0.238D-03-0.190D+00 0.101D+00 0.109D+01
 Gap=     0.469 Goal=   None    Shift=    0.000
 RMSDP=4.92D-06 MaxDP=1.45D-04 DE=-6.35D-06 OVMax= 4.76D-04

 Cycle   5  Pass 1  IDiag  1:
 E= -1199.76704947922     Delta-E=       -0.000000597813 Rises=F Damp=F
 DIIS: error= 5.05D-06 at cycle   5 NSaved=   5.
 NSaved= 5 IEnMin= 5 EnMin= -1199.76704947922     IErMin= 5 ErrMin= 5.05D-06
 ErrMax= 5.05D-06  0.00D+00 EMaxC= 1.00D-01 BMatC= 8.06D-09 BMatP= 5.79D-07
 IDIUse=1 WtCom= 1.00D+00 WtEn= 0.00D+00
 Coeff-Com:  0.822D-02-0.852D-01-0.336D-01 0.219D+00 0.892D+00
 Coeff:      0.822D-02-0.852D-01-0.336D-01 0.219D+00 0.892D+00
 Gap=     0.469 Goal=   None    Shift=    0.000
 RMSDP=1.58D-06 MaxDP=4.65D-05 DE=-5.98D-07 OVMax= 8.65D-05

 Cycle   6  Pass 1  IDiag  1:
 E= -1199.76704949345     Delta-E=       -0.000000014226 Rises=F Damp=F
 DIIS: error= 2.65D-06 at cycle   6 NSaved=   6.
 NSaved= 6 IEnMin= 6 EnMin= -1199.76704949345     IErMin= 6 ErrMin= 2.65D-06
 ErrMax= 2.65D-06  0.00D+00 EMaxC= 1.00D-01 BMatC= 2.51D-09 BMatP= 8.06D-09
 IDIUse=1 WtCom= 1.00D+00 WtEn= 0.00D+00
 Coeff-Com:  0.407D-02-0.264D-01-0.271D-01 0.187D-01 0.446D+00 0.584D+00
 Coeff:      0.407D-02-0.264D-01-0.271D-01 0.187D-01 0.446D+00 0.584D+00
 Gap=     0.469 Goal=   None    Shift=    0.000
 RMSDP=3.40D-07 MaxDP=1.04D-05 DE=-1.42D-08 OVMax= 1.67D-05

 Cycle   7  Pass 1  IDiag  1:
 E= -1199.76704949527     Delta-E=       -0.000000001822 Rises=F Damp=F
 DIIS: error= 4.68D-07 at cycle   7 NSaved=   7.
 NSaved= 7 IEnMin= 7 EnMin= -1199.76704949527     IErMin= 7 ErrMin= 4.68D-07
 ErrMax= 4.68D-07  0.00D+00 EMaxC= 1.00D-01 BMatC= 9.08D-11 BMatP= 2.51D-09
 IDIUse=1 WtCom= 1.00D+00 WtEn= 0.00D+00
 Coeff-Com: -0.361D-03 0.741D-02-0.148D-02-0.280D-01-0.337D-01 0.111D+00
 Coeff-Com:  0.945D+00
 Coeff:     -0.361D-03 0.741D-02-0.148D-02-0.280D-01-0.337D-01 0.111D+00
 Coeff:      0.945D+00
 Gap=     0.469 Goal=   None    Shift=    0.000
 RMSDP=1.40D-07 MaxDP=4.70D-06 DE=-1.82D-09 OVMax= 8.54D-06

 Cycle   8  Pass 1  IDiag  1:
 E= -1199.76704949544     Delta-E=       -0.000000000172 Rises=F Damp=F
 DIIS: error= 1.17D-07 at cycle   8 NSaved=   8.
 NSaved= 8 IEnMin= 8 EnMin= -1199.76704949544     IErMin= 8 ErrMin= 1.17D-07
 ErrMax= 1.17D-07  0.00D+00 EMaxC= 1.00D-01 BMatC= 4.75D-12 BMatP= 9.08D-11
 IDIUse=1 WtCom= 1.00D+00 WtEn= 0.00D+00
 Coeff-Com: -0.307D-03 0.323D-02 0.119D-02-0.805D-02-0.329D-01-0.526D-02
 Coeff-Com:  0.203D+00 0.839D+00
 Coeff:     -0.307D-03 0.323D-02 0.119D-02-0.805D-02-0.329D-01-0.526D-02
 Coeff:      0.203D+00 0.839D+00
 Gap=     0.469 Goal=   None    Shift=    0.000
 RMSDP=2.70D-08 MaxDP=6.93D-07 DE=-1.72D-10 OVMax= 1.89D-06

 Cycle   9  Pass 1  IDiag  1:
 E= -1199.76704949538     Delta-E=        0.000000000063 Rises=F Damp=F
 DIIS: error= 5.04D-08 at cycle   9 NSaved=   9.
 NSaved= 9 IEnMin= 8 EnMin= -1199.76704949544     IErMin= 9 ErrMin= 5.04D-08
 ErrMax= 5.04D-08  0.00D+00 EMaxC= 1.00D-01 BMatC= 1.57D-12 BMatP= 4.75D-12
 IDIUse=1 WtCom= 1.00D+00 WtEn= 0.00D+00
 Coeff-Com: -0.123D-03 0.962D-03 0.757D-03-0.159D-02-0.135D-01-0.125D-01
 Coeff-Com:  0.132D-01 0.402D+00 0.610D+00
 Coeff:     -0.123D-03 0.962D-03 0.757D-03-0.159D-02-0.135D-01-0.125D-01
 Coeff:      0.132D-01 0.402D+00 0.610D+00
 Gap=     0.469 Goal=   None    Shift=    0.000
 RMSDP=9.50D-09 MaxDP=4.82D-07 DE= 6.28D-11 OVMax= 5.01D-07

 SCF Done:  E(RwB97XD) =  -1199.76704950     A.U. after    9 cycles
            NFock=  9  Conv=0.95D-08     -V/T= 2.0020
 KE= 1.197375614460D+03 PE=-4.692301962013D+03 EE= 1.371990696045D+03
 Leave Link  502 at Fri May 23 03:46:11 2025, MaxMem=  3758096384 cpu:              44.3 elap:               8.5
 (Enter /apps/easybuild-2022/easybuild/software/Compiler/NVHPC/22.11-CUDA-11.7.0/Gaussian/g16c01-CUDA-11.7.0/g16/l508.exe)
 QCSCF skips out because SCF is already converged.
 Leave Link  508 at Fri May 23 03:46:11 2025, MaxMem=  3758096384 cpu:               0.0 elap:               0.0
 (Enter /apps/easybuild-2022/easybuild/software/Compiler/NVHPC/22.11-CUDA-11.7.0/Gaussian/g16c01-CUDA-11.7.0/g16/l801.exe)
 DoSCS=F DFT=T ScalE2(SS,OS)=  1.000000  1.000000
 Range of M.O.s used for correlation:     1   257
 NBasis=   257 NAE=    49 NBE=    49 NFC=     0 NFV=     0
 NROrb=    257 NOA=    49 NOB=    49 NVA=   208 NVB=   208

 **** Warning!!: The largest alpha MO coefficient is  0.30397078D+02

 Leave Link  801 at Fri May 23 03:46:11 2025, MaxMem=  3758096384 cpu:               0.0 elap:               0.0
 (Enter /apps/easybuild-2022/easybuild/software/Compiler/NVHPC/22.11-CUDA-11.7.0/Gaussian/g16c01-CUDA-11.7.0/g16/l1101.exe)
 Leave Link 1101 at Fri May 23 03:46:11 2025, MaxMem=  3758096384 cpu:               0.0 elap:               0.0
 (Enter /apps/easybuild-2022/easybuild/software/Compiler/NVHPC/22.11-CUDA-11.7.0/Gaussian/g16c01-CUDA-11.7.0/g16/l1102.exe)
 Symmetrizing basis deriv contribution to polar:
 IMax=3 JMax=2 DiffMx= 0.00D+00
 Leave Link 1102 at Fri May 23 03:46:11 2025, MaxMem=  3758096384 cpu:               0.1 elap:               0.0
 (Enter /apps/easybuild-2022/easybuild/software/Compiler/NVHPC/22.11-CUDA-11.7.0/Gaussian/g16c01-CUDA-11.7.0/g16/l1110.exe)
 Leave Link 1110 at Fri May 23 03:46:11 2025, MaxMem=  3758096384 cpu:               0.0 elap:               0.0
 (Enter /apps/easybuild-2022/easybuild/software/Compiler/NVHPC/22.11-CUDA-11.7.0/Gaussian/g16c01-CUDA-11.7.0/g16/l1002.exe)
 Minotr:  Closed shell wavefunction.
 Leave Link 1002 at Fri May 23 03:46:11 2025, MaxMem=  3758096384 cpu:               0.0 elap:               0.0
 (Enter /apps/easybuild-2022/easybuild/software/Compiler/NVHPC/22.11-CUDA-11.7.0/Gaussian/g16c01-CUDA-11.7.0/g16/l701.exe)
 ... and contract with generalized density number  0.
 Compute integral first derivatives.
 R6Disp: Adding Grimme-D2 dispersion energy 1st derivatives to the gradient.
 Leave Link  701 at Fri May 23 03:46:11 2025, MaxMem=  3758096384 cpu:               0.3 elap:               0.1
 (Enter /apps/easybuild-2022/easybuild/software/Compiler/NVHPC/22.11-CUDA-11.7.0/Gaussian/g16c01-CUDA-11.7.0/g16/l702.exe)
 L702 exits ... SP integral derivatives will be done elsewhere.
 Leave Link  702 at Fri May 23 03:46:11 2025, MaxMem=  3758096384 cpu:               0.0 elap:               0.0
 (Enter /apps/easybuild-2022/easybuild/software/Compiler/NVHPC/22.11-CUDA-11.7.0/Gaussian/g16c01-CUDA-11.7.0/g16/l703.exe)
 Integral derivatives from FoFJK, PRISM(SPDF).
 Compute integral first derivatives, UseDBF=F ICtDFT=           0.
 Calling FoFJK, ICntrl=      2127 FMM=F ISym2X=0 I1Cent= 0 IOpClX= 0 NMat=1 NMatS=1 NMatT=0.
 FoFJK:  IHMeth= 1 ICntrl=    2127 DoSepK=T KAlg= 0 I1Cent=           0 FoldK=F
 IRaf=         1 NMat=       1 IRICut=       1 DoRegI=T DoRafI=F ISym2E= 0 IDoP0=0 IntGTp=1.
 FoFCou: FMM=F IPFlag=           0 FMFlag=      100000 FMFlg1=         800
         NFxFlg=           0 DoJE=F BraDBF=F KetDBF=F FulRan=T
         wScrn=  0.000000 ICntrl=      2527 IOpCl=  0 I1Cent=           0 NGrid=           0
         NMat0=    1 NMatS0=      1 NMatT0=    0 NMatD0=    1 NMtDS0=    0 NMtDT0=    0
 Symmetry not used in FoFCou.
 Leave Link  703 at Fri May 23 03:46:15 2025, MaxMem=  3758096384 cpu:              31.1 elap:               4.0
 (Enter /apps/easybuild-2022/easybuild/software/Compiler/NVHPC/22.11-CUDA-11.7.0/Gaussian/g16c01-CUDA-11.7.0/g16/l716.exe)
 Dipole        =-3.60049393D-01 3.75298234D-01-8.37304118D-02
 Polarizability= 0.00000000D+00 0.00000000D+00 0.00000000D+00
                 0.00000000D+00 0.00000000D+00 0.00000000D+00
 -------------------------------------------------------------------
 Center     Atomic                   Forces (Hartrees/Bohr)
 Number     Number              X              Y              Z
 -------------------------------------------------------------------
      1        6          -0.000057504   -0.000025436   -0.000076049
      2        6          -0.000066272    0.000003867    0.000119994
      3        9           0.000073630    0.000045146    0.000092901
      4        9           0.000000483    0.000018296    0.000017944
      5       16           0.000207031   -0.000892632   -0.002906050
      6        8           0.000844656    0.001335627   -0.000561719
      7        8          -0.000025785    0.000132707    0.000433288
      8        8          -0.000826093   -0.001475457    0.000170655
      9        9          -0.000000817    0.000009387    0.000010533
     10        9           0.000032261    0.000023429    0.000020100
     11        9          -0.000014235    0.000003104    0.000022090
     12        1          -0.000167354    0.000821962    0.002656315
 -------------------------------------------------------------------
 Cartesian Forces:  Max     0.002906050 RMS     0.000799306
 Leave Link  716 at Fri May 23 03:46:15 2025, MaxMem=  3758096384 cpu:               0.0 elap:               0.0
 (Enter /apps/easybuild-2022/easybuild/software/Compiler/NVHPC/22.11-CUDA-11.7.0/Gaussian/g16c01-CUDA-11.7.0/g16/l123.exe)
 IRC-IRC-IRC-IRC-IRC-IRC-IRC-IRC-IRC-IRC-IRC-IRC-IRC-IRC-IRC-IRC-IRC-IRC
 Pt  1 Step number   1 out of a maximum of  20
 Using modified Bulirsch-Stoer corrector integration.
   Using distance weighted interpolants to fit PES.
 PreDWI: IReCr0= 2 IReCr1= 1 IReCr2= 1 IReCr3= 1
 Modified Bulirsch-Stoer Extrapolation Cycles:
    EPS =    0.000010000000000
    Cycle     1 NS=    48
      PEZero:  N= 2 I= 1 D=  5.44D-05 Err=  1.49D-04
    Cycle     2 NS=    64 Truncation Error =  0.000149313
      PEZero:  N= 3 I= 2 D=  5.44D-05 Err=  9.95D-05
      PEZero:  N= 3 I= 1 D=  1.09D-04 Err=  5.12D-10
    Cycle     3 NS=    96 Truncation Error =  0.000000001
 BS completed in    3 cycles and     208 integration steps.
 Maximum DWI energy   std dev =  0.000000006 at pt    56
 Maximum DWI gradient std dev =  0.001262845 at pt     2
 SUMMARY OF CORRECTOR INTEGRATION:
   Predictor End Point Energy = -1199.767049
   Old End Point Energy       = -1199.767049
   Corrected End Point Energy = -1199.767049
   Predictor End-Start Dist.  =     0.020884
   Old End-Start Dist.        =     0.020884
   New End-Start Dist.        =     0.020884
   New End-Old End Dist.      =     0.000021
 CORRECTOR INTEGRATION CONVERGENCE:
   Recorrection delta-x convergence threshold:    0.010000
   Delta-x Convergence Met
 Point Number:   1          Path Number:   1
                    CURRENT STRUCTURE
                Cartesian Coordinates (Ang):                
 ---------------------------------------------------------------------
 Center     Atomic                     Coordinates (Angstroms)
 Number     Number                        X           Y           Z
 ---------------------------------------------------------------------
      1          6                   -1.246472   -0.366712    0.763336
      2          6                   -0.470638    0.153544   -0.482161
      3          9                   -0.780159   -0.588539   -1.543400
      4          9                   -0.797300    1.421678   -0.710361
      5         16                    1.393547    0.081741   -0.284947
      6          8                    1.812616    1.301935    0.522535
      7          8                    1.740469   -1.234993    0.144946
      8          8                    1.947124    0.652954   -1.582462
      9          9                   -1.122250   -1.678387    0.875317
     10          9                   -0.776988    0.217215    1.860680
     11          9                   -2.531412   -0.062553    0.625606
     12          1                    2.202594    1.537919   -0.670687
 ---------------------------------------------------------------------
   CHANGE IN THE REACTION COORDINATE =    0.02088
   NET REACTION COORDINATE UP TO THIS POINT =    0.02088
  # OF POINTS ALONG THE PATH =   1
  # OF STEPS =   1

 Calculating another point on the path.
 Point Number  2 in REVERSE path direction.
 Using LQA Reaction Path Following.
   LQA: T_Est iteration completed in    3 iterations.
 IRC-IRC-IRC-IRC-IRC-IRC-IRC-IRC-IRC-IRC-IRC-IRC-IRC-IRC-IRC-IRC-IRC-IRC
 Leave Link  123 at Fri May 23 03:46:15 2025, MaxMem=  3758096384 cpu:               0.1 elap:               0.2
 (Enter /apps/easybuild-2022/easybuild/software/Compiler/NVHPC/22.11-CUDA-11.7.0/Gaussian/g16c01-CUDA-11.7.0/g16/l202.exe)
                          Input orientation:                          
 ---------------------------------------------------------------------
 Center     Atomic      Atomic             Coordinates (Angstroms)
 Number     Number       Type             X           Y           Z
 ---------------------------------------------------------------------
      1          6           0       -1.246490   -0.366720    0.763311
      2          6           0       -0.470659    0.153545   -0.482123
      3          9           0       -0.780144   -0.588530   -1.543382
      4          9           0       -0.797300    1.421681   -0.710357
      5         16           0        1.393571    0.081634   -0.285294
      6          8           0        1.812818    1.302255    0.522400
      7          8           0        1.740463   -1.234961    0.145049
      8          8           0        1.946927    0.652602   -1.582421
      9          9           0       -1.122250   -1.678385    0.875319
     10          9           0       -0.776981    0.217220    1.860684
     11          9           0       -2.531414   -0.062552    0.625610
     12          1           0        2.201955    1.541028   -0.660616
 ---------------------------------------------------------------------
                    Distance matrix (angstroms):
                    1          2          3          4          5
     1  C    0.000000
     2  C    1.556822   0.000000
     3  F    2.363792   1.331438   0.000000
     4  F    2.360476   1.329269   2.176046   0.000000
     5  S    2.875851   1.875971   2.599412   2.603137   0.000000
     6  O    3.493262   2.746428   3.816540   2.889060   1.522515
     7  O    3.171431   2.685210   3.101956   3.772228   1.427918
     8  O    4.091380   2.702672   2.996473   2.980396   1.521429
     9  F    1.322289   2.371326   2.674871   3.497195   3.282384
    10  F    1.328778   2.363606   3.498129   2.839259   3.055308
    11  F    1.327596   2.349571   2.836922   2.644790   4.031879
    12  H    4.190327   3.016593   3.769245   3.002041   1.710024
                    6          7          8          9         10
     6  O    0.000000
     7  O    2.566143   0.000000
     8  O    2.206877   2.567036   0.000000
     9  F    4.198022   2.987481   4.570977   0.000000
    10  F    3.110525   3.374871   4.411826   2.164133   0.000000
    11  F    4.554745   4.455829   5.044045   2.158475   2.163727
    12  H    1.268057   2.927146   1.305398   4.875865   4.121103
                   11         12
    11  F    0.000000
    12  H    5.160488   0.000000
 Symmetry turned off by external request.
 Stoichiometry    C2HF5O3S
 Rotational constants (GHZ):           1.6111259           0.8166936           0.7728725
 Leave Link  202 at Fri May 23 03:46:15 2025, MaxMem=  3758096384 cpu:               0.0 elap:               0.0
 (Enter /apps/easybuild-2022/easybuild/software/Compiler/NVHPC/22.11-CUDA-11.7.0/Gaussian/g16c01-CUDA-11.7.0/g16/l301.exe)
 Standard basis: 6-311++G(d,p) (5D, 7F)
 Ernie: Thresh=  0.10000D-02 Tol=  0.10000D-05 Strict=F.
   257 basis functions,   419 primitive gaussians,   268 cartesian basis functions
    49 alpha electrons       49 beta electrons
       nuclear repulsion energy       923.1741279386 Hartrees.
 IExCor= 4639 DFT=T Ex+Corr=wB97XD ExCW=0 ScaHFX=  1.000000
 ScaDFX=  1.000000  1.000000  1.000000  1.000000 ScalE2=  1.000000  1.000000
 IRadAn=      5 IRanWt=     -1 IRanGd=            0 ICorTp=0 IEmpDi=121
 HFx  wShort=  0.000000 wLong=  0.200000 cFull=  0.222036 cShort=  0.000000 cLong=  0.777964
 DFx  wShort=  0.000000 wLong=  0.200000 cFull=  0.000000 cShort=  0.000000 cLong=  1.000000
 NAtoms=   12 NActive=   12 NUniq=   12 SFac= 1.00D+00 NAtFMM=   60 NAOKFM=F Big=F
 Integral buffers will be    131072 words long.
 Raffenetti 2 integral format.
 Two-electron integral symmetry is turned off.
 R6Disp:  Grimme-D2 Dispersion energy=       -0.0054770729 Hartrees.
 Nuclear repulsion after empirical dispersion term =      923.1686508658 Hartrees.
 Leave Link  301 at Fri May 23 03:46:15 2025, MaxMem=  3758096384 cpu:               0.0 elap:               0.0
 (Enter /apps/easybuild-2022/easybuild/software/Compiler/NVHPC/22.11-CUDA-11.7.0/Gaussian/g16c01-CUDA-11.7.0/g16/l302.exe)
 NPDir=0 NMtPBC=     1 NCelOv=     1 NCel=       1 NClECP=     1 NCelD=      1
         NCelK=      1 NCelE2=     1 NClLst=     1 CellRange=     0.0.
 One-electron integrals computed using PRISM.
 NBasis=   257 RedAO= T EigKep=  7.18D-05  NBF=   257
 NBsUse=   257 1.00D-06 EigRej= -1.00D+00 NBFU=   257
 Precomputing XC quadrature grid using
 IXCGrd= 4 IRadAn=           5 IRanWt=          -1 IRanGd=           0 AccXCQ= 0.00D+00.
 Generated NRdTot=       0 NPtTot=           0 NUsed=           0 NTot=          32
 NSgBfM=   268   268   268   268   268 MxSgAt=    12 MxSgA2=    12.
 Leave Link  302 at Fri May 23 03:46:15 2025, MaxMem=  3758096384 cpu:               0.5 elap:               0.1
 (Enter /apps/easybuild-2022/easybuild/software/Compiler/NVHPC/22.11-CUDA-11.7.0/Gaussian/g16c01-CUDA-11.7.0/g16/l303.exe)
 DipDrv:  MaxL=1.
 Leave Link  303 at Fri May 23 03:46:15 2025, MaxMem=  3758096384 cpu:               0.1 elap:               0.0
 (Enter /apps/easybuild-2022/easybuild/software/Compiler/NVHPC/22.11-CUDA-11.7.0/Gaussian/g16c01-CUDA-11.7.0/g16/l401.exe)
 Initial guess from the checkpoint file:  "2003846667223680600001_r12_insertion_R_12_8_5_IRC_R.chk"
 B after Tr=    -0.000007    0.000028    0.000093
         Rot=    1.000000   -0.000021    0.000015   -0.000004 Ang=  -0.00 deg.
 Guess basis will be translated and rotated to current coordinates.
 JPrj=2 DoOrth=T DoCkMO=T.
 Generating alternative initial guess.
 ExpMin= 3.60D-02 ExpMax= 9.34D+04 ExpMxC= 3.17D+03 IAcc=3 IRadAn=         5 AccDes= 0.00D+00
 Harris functional with IExCor= 4639 and IRadAn=       5 diagonalized for initial guess.
 HarFok:  IExCor= 4639 AccDes= 0.00D+00 IRadAn=         5 IDoV= 1 UseB2=F ITyADJ=14
 ICtDFT=  3500011 ScaDFX=  1.000000  1.000000  1.000000  1.000000
 FoFCou: FMM=F IPFlag=           0 FMFlag=      100000 FMFlg1=           0
         NFxFlg=           0 DoJE=T BraDBF=F KetDBF=T FulRan=T
         wScrn=  0.000000 ICntrl=       500 IOpCl=  0 I1Cent=   200000004 NGrid=           0
         NMat0=    1 NMatS0=      1 NMatT0=    0 NMatD0=    1 NMtDS0=    0 NMtDT0=    0
 Symmetry not used in FoFCou.
 Harris En= -1167.06106507057    
 Leave Link  401 at Fri May 23 03:46:16 2025, MaxMem=  3758096384 cpu:               2.5 elap:               0.4
 (Enter /apps/easybuild-2022/easybuild/software/Compiler/NVHPC/22.11-CUDA-11.7.0/Gaussian/g16c01-CUDA-11.7.0/g16/l502.exe)
 Keep R1 ints in memory in canonical form, NReq=1117474609.
 FoFCou: FMM=F IPFlag=           0 FMFlag=           0 FMFlg1=           0
         NFxFlg=           0 DoJE=F BraDBF=F KetDBF=F FulRan=T
         wScrn=  0.000000 ICntrl=       600 IOpCl=  0 I1Cent=           0 NGrid=           0
         NMat0=    1 NMatS0=  33153 NMatT0=    0 NMatD0=    1 NMtDS0=    0 NMtDT0=    0
 Symmetry not used in FoFCou.
 Two-electron integral symmetry not used.
 Closed shell SCF:
 Using DIIS extrapolation, IDIIS=  1040.
 NGot=  3758096384 LenX=  2658793876 LenY=  2658721611
 Requested convergence on RMS density matrix=1.00D-08 within  32 cycles.
 Requested convergence on MAX density matrix=1.00D-06.
 Requested convergence on             energy=1.00D-06.
 No special actions if energy rises.

 Cycle   1  Pass 1  IDiag  1:
 E= -1199.76708433675    
 DIIS: error= 5.94D-04 at cycle   1 NSaved=   1.
 NSaved= 1 IEnMin= 1 EnMin= -1199.76708433675     IErMin= 1 ErrMin= 5.94D-04
 ErrMax= 5.94D-04  0.00D+00 EMaxC= 1.00D-01 BMatC= 3.92D-05 BMatP= 3.92D-05
 IDIUse=3 WtCom= 9.94D-01 WtEn= 5.94D-03
 Coeff-Com:  0.100D+01
 Coeff-En:   0.100D+01
 Coeff:      0.100D+01
 Gap=     0.729 Goal=   None    Shift=    0.000
 RMSDP=6.23D-05 MaxDP=1.61D-03              OVMax= 3.02D-03

 Cycle   2  Pass 1  IDiag  1:
 E= -1199.76713155885     Delta-E=       -0.000047222098 Rises=F Damp=F
 DIIS: error= 3.21D-04 at cycle   2 NSaved=   2.
 NSaved= 2 IEnMin= 2 EnMin= -1199.76713155885     IErMin= 2 ErrMin= 3.21D-04
 ErrMax= 3.21D-04  0.00D+00 EMaxC= 1.00D-01 BMatC= 7.77D-06 BMatP= 3.92D-05
 IDIUse=3 WtCom= 9.97D-01 WtEn= 3.21D-03
 Coeff-Com:  0.158D+00 0.842D+00
 Coeff-En:   0.000D+00 0.100D+01
 Coeff:      0.157D+00 0.843D+00
 Gap=     0.469 Goal=   None    Shift=    0.000
 RMSDP=2.08D-05 MaxDP=6.83D-04 DE=-4.72D-05 OVMax= 1.72D-03

 Cycle   3  Pass 1  IDiag  1:
 E= -1199.76713315412     Delta-E=       -0.000001595268 Rises=F Damp=F
 DIIS: error= 3.10D-04 at cycle   3 NSaved=   3.
 NSaved= 3 IEnMin= 3 EnMin= -1199.76713315412     IErMin= 3 ErrMin= 3.10D-04
 ErrMax= 3.10D-04  0.00D+00 EMaxC= 1.00D-01 BMatC= 9.20D-06 BMatP= 7.77D-06
 IDIUse=3 WtCom= 3.62D-01 WtEn= 6.38D-01
 Coeff-Com: -0.972D-01 0.553D+00 0.544D+00
 Coeff-En:   0.000D+00 0.432D+00 0.568D+00
 Coeff:     -0.352D-01 0.476D+00 0.560D+00
 Gap=     0.469 Goal=   None    Shift=    0.000
 RMSDP=2.42D-05 MaxDP=6.08D-04 DE=-1.60D-06 OVMax= 8.21D-04

 Cycle   4  Pass 1  IDiag  1:
 E= -1199.76713949085     Delta-E=       -0.000006336735 Rises=F Damp=F
 DIIS: error= 9.28D-05 at cycle   4 NSaved=   4.
 NSaved= 4 IEnMin= 4 EnMin= -1199.76713949085     IErMin= 4 ErrMin= 9.28D-05
 ErrMax= 9.28D-05  0.00D+00 EMaxC= 1.00D-01 BMatC= 5.78D-07 BMatP= 7.77D-06
 IDIUse=1 WtCom= 1.00D+00 WtEn= 0.00D+00
 Coeff-Com: -0.879D-08-0.189D+00 0.102D+00 0.109D+01
 Coeff:     -0.879D-08-0.189D+00 0.102D+00 0.109D+01
 Gap=     0.469 Goal=   None    Shift=    0.000
 RMSDP=4.90D-06 MaxDP=1.44D-04 DE=-6.34D-06 OVMax= 4.75D-04

 Cycle   5  Pass 1  IDiag  1:
 E= -1199.76714008678     Delta-E=       -0.000000595923 Rises=F Damp=F
 DIIS: error= 5.07D-06 at cycle   5 NSaved=   5.
 NSaved= 5 IEnMin= 5 EnMin= -1199.76714008678     IErMin= 5 ErrMin= 5.07D-06
 ErrMax= 5.07D-06  0.00D+00 EMaxC= 1.00D-01 BMatC= 8.46D-09 BMatP= 5.78D-07
 IDIUse=1 WtCom= 1.00D+00 WtEn= 0.00D+00
 Coeff-Com:  0.818D-02-0.871D-01-0.323D-01 0.231D+00 0.880D+00
 Coeff:      0.818D-02-0.871D-01-0.323D-01 0.231D+00 0.880D+00
 Gap=     0.469 Goal=   None    Shift=    0.000
 RMSDP=1.58D-06 MaxDP=4.48D-05 DE=-5.96D-07 OVMax= 8.61D-05

 Cycle   6  Pass 1  IDiag  1:
 E= -1199.76714010112     Delta-E=       -0.000000014346 Rises=F Damp=F
 DIIS: error= 2.86D-06 at cycle   6 NSaved=   6.
 NSaved= 6 IEnMin= 6 EnMin= -1199.76714010112     IErMin= 6 ErrMin= 2.86D-06
 ErrMax= 2.86D-06  0.00D+00 EMaxC= 1.00D-01 BMatC= 2.77D-09 BMatP= 8.46D-09
 IDIUse=1 WtCom= 1.00D+00 WtEn= 0.00D+00
 Coeff-Com:  0.416D-02-0.272D-01-0.275D-01 0.202D-01 0.449D+00 0.581D+00
 Coeff:      0.416D-02-0.272D-01-0.275D-01 0.202D-01 0.449D+00 0.581D+00
 Gap=     0.469 Goal=   None    Shift=    0.000
 RMSDP=3.75D-07 MaxDP=1.17D-05 DE=-1.43D-08 OVMax= 1.78D-05

 Cycle   7  Pass 1  IDiag  1:
 E= -1199.76714010318     Delta-E=       -0.000000002057 Rises=F Damp=F
 DIIS: error= 4.74D-07 at cycle   7 NSaved=   7.
 NSaved= 7 IEnMin= 7 EnMin= -1199.76714010318     IErMin= 7 ErrMin= 4.74D-07
 ErrMax= 4.74D-07  0.00D+00 EMaxC= 1.00D-01 BMatC= 9.52D-11 BMatP= 2.77D-09
 IDIUse=1 WtCom= 1.00D+00 WtEn= 0.00D+00
 Coeff-Com: -0.286D-03 0.690D-02-0.196D-02-0.276D-01-0.258D-01 0.110D+00
 Coeff-Com:  0.939D+00
 Coeff:     -0.286D-03 0.690D-02-0.196D-02-0.276D-01-0.258D-01 0.110D+00
 Coeff:      0.939D+00
 Gap=     0.469 Goal=   None    Shift=    0.000
 RMSDP=1.45D-07 MaxDP=4.69D-06 DE=-2.06D-09 OVMax= 8.60D-06

 Cycle   8  Pass 1  IDiag  1:
 E= -1199.76714010331     Delta-E=       -0.000000000135 Rises=F Damp=F
 DIIS: error= 1.92D-07 at cycle   8 NSaved=   8.
 NSaved= 8 IEnMin= 8 EnMin= -1199.76714010331     IErMin= 8 ErrMin= 1.92D-07
 ErrMax= 1.92D-07  0.00D+00 EMaxC= 1.00D-01 BMatC= 1.37D-11 BMatP= 9.52D-11
 IDIUse=1 WtCom= 1.00D+00 WtEn= 0.00D+00
 Coeff-Com: -0.354D-03 0.446D-02 0.790D-03-0.130D-01-0.367D-01 0.130D-01
 Coeff-Com:  0.376D+00 0.656D+00
 Coeff:     -0.354D-03 0.446D-02 0.790D-03-0.130D-01-0.367D-01 0.130D-01
 Coeff:      0.376D+00 0.656D+00
 Gap=     0.469 Goal=   None    Shift=    0.000
 RMSDP=3.08D-08 MaxDP=6.51D-07 DE=-1.35D-10 OVMax= 1.80D-06

 Cycle   9  Pass 1  IDiag  1:
 E= -1199.76714010324     Delta-E=        0.000000000074 Rises=F Damp=F
 DIIS: error= 8.24D-08 at cycle   9 NSaved=   9.
 NSaved= 9 IEnMin= 8 EnMin= -1199.76714010331     IErMin= 9 ErrMin= 8.24D-08
 ErrMax= 8.24D-08  0.00D+00 EMaxC= 1.00D-01 BMatC= 3.85D-12 BMatP= 1.37D-11
 IDIUse=1 WtCom= 1.00D+00 WtEn= 0.00D+00
 Coeff-Com: -0.156D-03 0.130D-02 0.894D-03-0.238D-02-0.169D-01-0.138D-01
 Coeff-Com:  0.314D-01 0.364D+00 0.636D+00
 Coeff:     -0.156D-03 0.130D-02 0.894D-03-0.238D-02-0.169D-01-0.138D-01
 Coeff:      0.314D-01 0.364D+00 0.636D+00
 Gap=     0.469 Goal=   None    Shift=    0.000
 RMSDP=1.31D-08 MaxDP=6.62D-07 DE= 7.37D-11 OVMax= 8.09D-07

 Cycle  10  Pass 1  IDiag  1:
 E= -1199.76714010329     Delta-E=       -0.000000000049 Rises=F Damp=F
 DIIS: error= 1.35D-08 at cycle  10 NSaved=  10.
 NSaved=10 IEnMin= 8 EnMin= -1199.76714010331     IErMin=10 ErrMin= 1.35D-08
 ErrMax= 1.35D-08  0.00D+00 EMaxC= 1.00D-01 BMatC= 1.23D-13 BMatP= 3.85D-12
 IDIUse=1 WtCom= 1.00D+00 WtEn= 0.00D+00
 Coeff-Com: -0.164D-04 0.209D-04 0.188D-03 0.284D-03-0.165D-02-0.448D-02
 Coeff-Com: -0.210D-01 0.411D-01 0.173D+00 0.813D+00
 Coeff:     -0.164D-04 0.209D-04 0.188D-03 0.284D-03-0.165D-02-0.448D-02
 Coeff:     -0.210D-01 0.411D-01 0.173D+00 0.813D+00
 Gap=     0.469 Goal=   None    Shift=    0.000
 RMSDP=3.83D-09 MaxDP=1.17D-07 DE=-4.91D-11 OVMax= 2.45D-07

 SCF Done:  E(RwB97XD) =  -1199.76714010     A.U. after   10 cycles
            NFock= 10  Conv=0.38D-08     -V/T= 2.0020
 KE= 1.197375835615D+03 PE=-4.692300544977D+03 EE= 1.371988918393D+03
 Leave Link  502 at Fri May 23 03:46:25 2025, MaxMem=  3758096384 cpu:              49.0 elap:               9.4
 (Enter /apps/easybuild-2022/easybuild/software/Compiler/NVHPC/22.11-CUDA-11.7.0/Gaussian/g16c01-CUDA-11.7.0/g16/l508.exe)
 QCSCF skips out because SCF is already converged.
 Leave Link  508 at Fri May 23 03:46:25 2025, MaxMem=  3758096384 cpu:               0.0 elap:               0.0
 (Enter /apps/easybuild-2022/easybuild/software/Compiler/NVHPC/22.11-CUDA-11.7.0/Gaussian/g16c01-CUDA-11.7.0/g16/l801.exe)
 DoSCS=F DFT=T ScalE2(SS,OS)=  1.000000  1.000000
 Range of M.O.s used for correlation:     1   257
 NBasis=   257 NAE=    49 NBE=    49 NFC=     0 NFV=     0
 NROrb=    257 NOA=    49 NOB=    49 NVA=   208 NVB=   208

 **** Warning!!: The largest alpha MO coefficient is  0.30371734D+02

 Leave Link  801 at Fri May 23 03:46:25 2025, MaxMem=  3758096384 cpu:               0.0 elap:               0.0
 (Enter /apps/easybuild-2022/easybuild/software/Compiler/NVHPC/22.11-CUDA-11.7.0/Gaussian/g16c01-CUDA-11.7.0/g16/l1101.exe)
 Leave Link 1101 at Fri May 23 03:46:25 2025, MaxMem=  3758096384 cpu:               0.0 elap:               0.0
 (Enter /apps/easybuild-2022/easybuild/software/Compiler/NVHPC/22.11-CUDA-11.7.0/Gaussian/g16c01-CUDA-11.7.0/g16/l1102.exe)
 Symmetrizing basis deriv contribution to polar:
 IMax=3 JMax=2 DiffMx= 0.00D+00
 Leave Link 1102 at Fri May 23 03:46:25 2025, MaxMem=  3758096384 cpu:               0.0 elap:               0.0
 (Enter /apps/easybuild-2022/easybuild/software/Compiler/NVHPC/22.11-CUDA-11.7.0/Gaussian/g16c01-CUDA-11.7.0/g16/l1110.exe)
 Leave Link 1110 at Fri May 23 03:46:25 2025, MaxMem=  3758096384 cpu:               0.0 elap:               0.0
 (Enter /apps/easybuild-2022/easybuild/software/Compiler/NVHPC/22.11-CUDA-11.7.0/Gaussian/g16c01-CUDA-11.7.0/g16/l1002.exe)
 Minotr:  Closed shell wavefunction.
 Leave Link 1002 at Fri May 23 03:46:25 2025, MaxMem=  3758096384 cpu:               0.0 elap:               0.0
 (Enter /apps/easybuild-2022/easybuild/software/Compiler/NVHPC/22.11-CUDA-11.7.0/Gaussian/g16c01-CUDA-11.7.0/g16/l701.exe)
 ... and contract with generalized density number  0.
 Compute integral first derivatives.
 R6Disp: Adding Grimme-D2 dispersion energy 1st derivatives to the gradient.
 Leave Link  701 at Fri May 23 03:46:25 2025, MaxMem=  3758096384 cpu:               0.3 elap:               0.1
 (Enter /apps/easybuild-2022/easybuild/software/Compiler/NVHPC/22.11-CUDA-11.7.0/Gaussian/g16c01-CUDA-11.7.0/g16/l702.exe)
 L702 exits ... SP integral derivatives will be done elsewhere.
 Leave Link  702 at Fri May 23 03:46:25 2025, MaxMem=  3758096384 cpu:               0.0 elap:               0.0
 (Enter /apps/easybuild-2022/easybuild/software/Compiler/NVHPC/22.11-CUDA-11.7.0/Gaussian/g16c01-CUDA-11.7.0/g16/l703.exe)
 Integral derivatives from FoFJK, PRISM(SPDF).
 Compute integral first derivatives, UseDBF=F ICtDFT=           0.
 Calling FoFJK, ICntrl=      2127 FMM=F ISym2X=0 I1Cent= 0 IOpClX= 0 NMat=1 NMatS=1 NMatT=0.
 FoFJK:  IHMeth= 1 ICntrl=    2127 DoSepK=T KAlg= 0 I1Cent=           0 FoldK=F
 IRaf=         1 NMat=       1 IRICut=       1 DoRegI=T DoRafI=F ISym2E= 0 IDoP0=0 IntGTp=1.
 FoFCou: FMM=F IPFlag=           0 FMFlag=      100000 FMFlg1=         800
         NFxFlg=           0 DoJE=F BraDBF=F KetDBF=F FulRan=T
         wScrn=  0.000000 ICntrl=      2527 IOpCl=  0 I1Cent=           0 NGrid=           0
         NMat0=    1 NMatS0=      1 NMatT0=    0 NMatD0=    1 NMtDS0=    0 NMtDT0=    0
 Symmetry not used in FoFCou.
 Leave Link  703 at Fri May 23 03:46:30 2025, MaxMem=  3758096384 cpu:              33.4 elap:               4.3
 (Enter /apps/easybuild-2022/easybuild/software/Compiler/NVHPC/22.11-CUDA-11.7.0/Gaussian/g16c01-CUDA-11.7.0/g16/l716.exe)
 Dipole        =-3.61136937D-01 3.80216216D-01-6.77180629D-02
 Polarizability= 0.00000000D+00 0.00000000D+00 0.00000000D+00
                 0.00000000D+00 0.00000000D+00 0.00000000D+00
 -------------------------------------------------------------------
 Center     Atomic                   Forces (Hartrees/Bohr)
 Number     Number              X              Y              Z
 -------------------------------------------------------------------
      1        6          -0.000113742   -0.000052433   -0.000151882
      2        6          -0.000132218    0.000007395    0.000240123
      3        9           0.000147283    0.000090015    0.000185959
      4        9          -0.000000945    0.000036432    0.000036527
      5       16           0.000424996   -0.001769141   -0.005812893
      6        8           0.001679821    0.002660550   -0.001106963
      7        8          -0.000050923    0.000268556    0.000864575
      8        8          -0.001655829   -0.002964842    0.000324404
      9        9           0.000000364    0.000017409    0.000021073
     10        9           0.000065136    0.000045711    0.000040691
     11        9          -0.000028269    0.000003504    0.000045143
     12        1          -0.000335674    0.001656842    0.005313243
 -------------------------------------------------------------------
 Cartesian Forces:  Max     0.005812893 RMS     0.001598318
 Leave Link  716 at Fri May 23 03:46:30 2025, MaxMem=  3758096384 cpu:               0.0 elap:               0.0
 (Enter /apps/easybuild-2022/easybuild/software/Compiler/NVHPC/22.11-CUDA-11.7.0/Gaussian/g16c01-CUDA-11.7.0/g16/l123.exe)
 IRC-IRC-IRC-IRC-IRC-IRC-IRC-IRC-IRC-IRC-IRC-IRC-IRC-IRC-IRC-IRC-IRC-IRC
 Pt  2 Step number   1 out of a maximum of  20
 Using modified Bulirsch-Stoer corrector integration.
   Using distance weighted interpolants to fit PES.
 PreDWI: IReCr0= 2 IReCr1= 1 IReCr2= 1 IReCr3= 1
 Modified Bulirsch-Stoer Extrapolation Cycles:
    EPS =    0.000010000000000
    Cycle     1 NS=    48
      PEZero:  N= 2 I= 1 D=  1.09D-04 Err=  2.71D-07
    Cycle     2 NS=    64 Truncation Error =  0.000000271
 BS completed in    2 cycles and     112 integration steps.
 Maximum DWI energy   std dev =  0.000000013 at pt    41
 Maximum DWI gradient std dev =  0.001173103 at pt    36
 SUMMARY OF CORRECTOR INTEGRATION:
   Predictor End Point Energy = -1199.767140
   Old End Point Energy       = -1199.767140
   Corrected End Point Energy = -1199.767140
   Predictor End-Start Dist.  =     0.020877
   Old End-Start Dist.        =     0.020877
   New End-Start Dist.        =     0.020877
   New End-Old End Dist.      =     0.000026
 CORRECTOR INTEGRATION CONVERGENCE:
   Recorrection delta-x convergence threshold:    0.010000
   Delta-x Convergence Met
 Point Number:   2          Path Number:   1
                    CURRENT STRUCTURE
                Cartesian Coordinates (Ang):                
 ---------------------------------------------------------------------
 Center     Atomic                     Coordinates (Angstroms)
 Number     Number                        X           Y           Z
 ---------------------------------------------------------------------
      1          6                   -1.246490   -0.366720    0.763311
      2          6                   -0.470659    0.153545   -0.482123
      3          9                   -0.780144   -0.588530   -1.543382
      4          9                   -0.797300    1.421681   -0.710357
      5         16                    1.393572    0.081634   -0.285294
      6          8                    1.812817    1.302254    0.522401
      7          8                    1.740463   -1.234961    0.145049
      8          8                    1.946927    0.652601   -1.582422
      9          9                   -1.122250   -1.678385    0.875319
     10          9                   -0.776982    0.217220    1.860684
     11          9                   -2.531414   -0.062552    0.625610
     12          1                    2.201956    1.541039   -0.660619
 ---------------------------------------------------------------------
   CHANGE IN THE REACTION COORDINATE =    0.02088
   NET REACTION COORDINATE UP TO THIS POINT =    0.04176
  # OF POINTS ALONG THE PATH =   2
  # OF STEPS =   1

 Calculating another point on the path.
 Point Number  3 in REVERSE path direction.
 Using LQA Reaction Path Following.
   LQA: T_Est iteration completed in    3 iterations.
 IRC-IRC-IRC-IRC-IRC-IRC-IRC-IRC-IRC-IRC-IRC-IRC-IRC-IRC-IRC-IRC-IRC-IRC
 Leave Link  123 at Fri May 23 03:46:30 2025, MaxMem=  3758096384 cpu:               0.1 elap:               0.0
 (Enter /apps/easybuild-2022/easybuild/software/Compiler/NVHPC/22.11-CUDA-11.7.0/Gaussian/g16c01-CUDA-11.7.0/g16/l202.exe)
                          Input orientation:                          
 ---------------------------------------------------------------------
 Center     Atomic      Atomic             Coordinates (Angstroms)
 Number     Number       Type             X           Y           Z
 ---------------------------------------------------------------------
      1          6           0       -1.246508   -0.366728    0.763287
      2          6           0       -0.470680    0.153546   -0.482084
      3          9           0       -0.780130   -0.588521   -1.543363
      4          9           0       -0.797300    1.421685   -0.710353
      5         16           0        1.393597    0.081529   -0.285641
      6          8           0        1.813018    1.302571    0.522269
      7          8           0        1.740456   -1.234929    0.145152
      8          8           0        1.946729    0.652247   -1.582383
      9          9           0       -1.122250   -1.678383    0.875321
     10          9           0       -0.776975    0.217224    1.860688
     11          9           0       -2.531417   -0.062552    0.625615
     12          1           0        2.201316    1.544173   -0.650554
 ---------------------------------------------------------------------
                    Distance matrix (angstroms):
                    1          2          3          4          5
     1  C    0.000000
     2  C    1.556774   0.000000
     3  F    2.363755   1.331441   0.000000
     4  F    2.360472   1.329272   2.176035   0.000000
     5  S    2.875994   1.875981   2.599215   2.603157   0.000000
     6  O    3.493615   2.746681   3.816737   2.889170   1.523016
     7  O    3.171407   2.685221   3.101980   3.772227   1.427920
     8  O    4.091118   2.702448   2.996129   2.980296   1.520926
     9  F    1.322283   2.371299   2.674860   3.497196   3.282470
    10  F    1.328815   2.363568   3.498114   2.839259   3.055573
    11  F    1.327580   2.349539   2.836920   2.644794   4.031983
    12  H    4.187837   3.016917   3.772865   3.001712   1.710233
                    6          7          8          9         10
     6  O    0.000000
     7  O    2.566396   0.000000
     8  O    2.206890   2.566780   0.000000
     9  F    4.198396   2.987455   4.570644   0.000000
    10  F    3.110853   3.374800   4.411638   2.164138   0.000000
    11  F    4.555036   4.455807   5.043807   2.158476   2.163735
    12  H    1.258833   2.927276   1.314782   4.874346   4.115501
                   11         12
    11  F    0.000000
    12  H    5.158385   0.000000
 Symmetry turned off by external request.
 Stoichiometry    C2HF5O3S
 Rotational constants (GHZ):           1.6110617           0.8166763           0.7729018
 Leave Link  202 at Fri May 23 03:46:30 2025, MaxMem=  3758096384 cpu:               0.0 elap:               0.0
 (Enter /apps/easybuild-2022/easybuild/software/Compiler/NVHPC/22.11-CUDA-11.7.0/Gaussian/g16c01-CUDA-11.7.0/g16/l301.exe)
 Standard basis: 6-311++G(d,p) (5D, 7F)
 Ernie: Thresh=  0.10000D-02 Tol=  0.10000D-05 Strict=F.
   257 basis functions,   419 primitive gaussians,   268 cartesian basis functions
    49 alpha electrons       49 beta electrons
       nuclear repulsion energy       923.1742783296 Hartrees.
 IExCor= 4639 DFT=T Ex+Corr=wB97XD ExCW=0 ScaHFX=  1.000000
 ScaDFX=  1.000000  1.000000  1.000000  1.000000 ScalE2=  1.000000  1.000000
 IRadAn=      5 IRanWt=     -1 IRanGd=            0 ICorTp=0 IEmpDi=121
 HFx  wShort=  0.000000 wLong=  0.200000 cFull=  0.222036 cShort=  0.000000 cLong=  0.777964
 DFx  wShort=  0.000000 wLong=  0.200000 cFull=  0.000000 cShort=  0.000000 cLong=  1.000000
 NAtoms=   12 NActive=   12 NUniq=   12 SFac= 1.00D+00 NAtFMM=   60 NAOKFM=F Big=F
 Integral buffers will be    131072 words long.
 Raffenetti 2 integral format.
 Two-electron integral symmetry is turned off.
 R6Disp:  Grimme-D2 Dispersion energy=       -0.0054772181 Hartrees.
 Nuclear repulsion after empirical dispersion term =      923.1688011115 Hartrees.
 Leave Link  301 at Fri May 23 03:46:30 2025, MaxMem=  3758096384 cpu:               0.1 elap:               0.0
 (Enter /apps/easybuild-2022/easybuild/software/Compiler/NVHPC/22.11-CUDA-11.7.0/Gaussian/g16c01-CUDA-11.7.0/g16/l302.exe)
 NPDir=0 NMtPBC=     1 NCelOv=     1 NCel=       1 NClECP=     1 NCelD=      1
         NCelK=      1 NCelE2=     1 NClLst=     1 CellRange=     0.0.
 One-electron integrals computed using PRISM.
 NBasis=   257 RedAO= T EigKep=  7.18D-05  NBF=   257
 NBsUse=   257 1.00D-06 EigRej= -1.00D+00 NBFU=   257
 Precomputing XC quadrature grid using
 IXCGrd= 4 IRadAn=           5 IRanWt=          -1 IRanGd=           0 AccXCQ= 0.00D+00.
 Generated NRdTot=       0 NPtTot=           0 NUsed=           0 NTot=          32
 NSgBfM=   268   268   268   268   268 MxSgAt=    12 MxSgA2=    12.
 Leave Link  302 at Fri May 23 03:46:30 2025, MaxMem=  3758096384 cpu:               0.5 elap:               0.1
 (Enter /apps/easybuild-2022/easybuild/software/Compiler/NVHPC/22.11-CUDA-11.7.0/Gaussian/g16c01-CUDA-11.7.0/g16/l303.exe)
 DipDrv:  MaxL=1.
 Leave Link  303 at Fri May 23 03:46:30 2025, MaxMem=  3758096384 cpu:               0.1 elap:               0.0
 (Enter /apps/easybuild-2022/easybuild/software/Compiler/NVHPC/22.11-CUDA-11.7.0/Gaussian/g16c01-CUDA-11.7.0/g16/l401.exe)
 Initial guess from the checkpoint file:  "2003846667223680600001_r12_insertion_R_12_8_5_IRC_R.chk"
 B after Tr=    -0.000007    0.000028    0.000093
         Rot=    1.000000   -0.000021    0.000015   -0.000004 Ang=  -0.00 deg.
 Guess basis will be translated and rotated to current coordinates.
 JPrj=2 DoOrth=T DoCkMO=T.
 Generating alternative initial guess.
 ExpMin= 3.60D-02 ExpMax= 9.34D+04 ExpMxC= 3.17D+03 IAcc=3 IRadAn=         5 AccDes= 0.00D+00
 Harris functional with IExCor= 4639 and IRadAn=       5 diagonalized for initial guess.
 HarFok:  IExCor= 4639 AccDes= 0.00D+00 IRadAn=         5 IDoV= 1 UseB2=F ITyADJ=14
 ICtDFT=  3500011 ScaDFX=  1.000000  1.000000  1.000000  1.000000
 FoFCou: FMM=F IPFlag=           0 FMFlag=      100000 FMFlg1=           0
         NFxFlg=           0 DoJE=T BraDBF=F KetDBF=T FulRan=T
         wScrn=  0.000000 ICntrl=       500 IOpCl=  0 I1Cent=   200000004 NGrid=           0
         NMat0=    1 NMatS0=      1 NMatT0=    0 NMatD0=    1 NMtDS0=    0 NMtDT0=    0
 Symmetry not used in FoFCou.
 Harris En= -1167.06117480869    
 Leave Link  401 at Fri May 23 03:46:30 2025, MaxMem=  3758096384 cpu:               2.6 elap:               0.4
 (Enter /apps/easybuild-2022/easybuild/software/Compiler/NVHPC/22.11-CUDA-11.7.0/Gaussian/g16c01-CUDA-11.7.0/g16/l502.exe)
 Keep R1 ints in memory in canonical form, NReq=1117474609.
 FoFCou: FMM=F IPFlag=           0 FMFlag=           0 FMFlg1=           0
         NFxFlg=           0 DoJE=F BraDBF=F KetDBF=F FulRan=T
         wScrn=  0.000000 ICntrl=       600 IOpCl=  0 I1Cent=           0 NGrid=           0
         NMat0=    1 NMatS0=  33153 NMatT0=    0 NMatD0=    1 NMtDS0=    0 NMtDT0=    0
 Symmetry not used in FoFCou.
 Two-electron integral symmetry not used.
 Closed shell SCF:
 Using DIIS extrapolation, IDIIS=  1040.
 NGot=  3758096384 LenX=  2658793876 LenY=  2658721611
 Requested convergence on RMS density matrix=1.00D-08 within  32 cycles.
 Requested convergence on MAX density matrix=1.00D-06.
 Requested convergence on             energy=1.00D-06.
 No special actions if energy rises.

 Cycle   1  Pass 1  IDiag  1:
 E= -1199.76723534396    
 DIIS: error= 5.93D-04 at cycle   1 NSaved=   1.
 NSaved= 1 IEnMin= 1 EnMin= -1199.76723534396     IErMin= 1 ErrMin= 5.93D-04
 ErrMax= 5.93D-04  0.00D+00 EMaxC= 1.00D-01 BMatC= 3.92D-05 BMatP= 3.92D-05
 IDIUse=3 WtCom= 9.94D-01 WtEn= 5.93D-03
 Coeff-Com:  0.100D+01
 Coeff-En:   0.100D+01
 Coeff:      0.100D+01
 Gap=     0.729 Goal=   None    Shift=    0.000
 RMSDP=6.25D-05 MaxDP=1.62D-03              OVMax= 3.02D-03

 Cycle   2  Pass 1  IDiag  1:
 E= -1199.76728250546     Delta-E=       -0.000047161495 Rises=F Damp=F
 DIIS: error= 3.20D-04 at cycle   2 NSaved=   2.
 NSaved= 2 IEnMin= 2 EnMin= -1199.76728250546     IErMin= 2 ErrMin= 3.20D-04
 ErrMax= 3.20D-04  0.00D+00 EMaxC= 1.00D-01 BMatC= 7.77D-06 BMatP= 3.92D-05
 IDIUse=3 WtCom= 9.97D-01 WtEn= 3.20D-03
 Coeff-Com:  0.158D+00 0.842D+00
 Coeff-En:   0.000D+00 0.100D+01
 Coeff:      0.157D+00 0.843D+00
 Gap=     0.470 Goal=   None    Shift=    0.000
 RMSDP=2.08D-05 MaxDP=6.71D-04 DE=-4.72D-05 OVMax= 1.72D-03

 Cycle   3  Pass 1  IDiag  1:
 E= -1199.76728410065     Delta-E=       -0.000001595194 Rises=F Damp=F
 DIIS: error= 3.10D-04 at cycle   3 NSaved=   3.
 NSaved= 3 IEnMin= 3 EnMin= -1199.76728410065     IErMin= 3 ErrMin= 3.10D-04
 ErrMax= 3.10D-04  0.00D+00 EMaxC= 1.00D-01 BMatC= 9.18D-06 BMatP= 7.77D-06
 IDIUse=3 WtCom= 3.62D-01 WtEn= 6.38D-01
 Coeff-Com: -0.971D-01 0.553D+00 0.544D+00
 Coeff-En:   0.000D+00 0.432D+00 0.568D+00
 Coeff:     -0.352D-01 0.475D+00 0.560D+00
 Gap=     0.470 Goal=   None    Shift=    0.000
 RMSDP=2.42D-05 MaxDP=6.12D-04 DE=-1.60D-06 OVMax= 8.17D-04

 Cycle   4  Pass 1  IDiag  1:
 E= -1199.76729042577     Delta-E=       -0.000006325119 Rises=F Damp=F
 DIIS: error= 9.22D-05 at cycle   4 NSaved=   4.
 NSaved= 4 IEnMin= 4 EnMin= -1199.76729042577     IErMin= 4 ErrMin= 9.22D-05
 ErrMax= 9.22D-05  0.00D+00 EMaxC= 1.00D-01 BMatC= 5.75D-07 BMatP= 7.77D-06
 IDIUse=1 WtCom= 1.00D+00 WtEn= 0.00D+00
 Coeff-Com: -0.385D-03-0.186D+00 0.103D+00 0.108D+01
 Coeff:     -0.385D-03-0.186D+00 0.103D+00 0.108D+01
 Gap=     0.470 Goal=   None    Shift=    0.000
 RMSDP=4.88D-06 MaxDP=1.42D-04 DE=-6.33D-06 OVMax= 4.72D-04

 Cycle   5  Pass 1  IDiag  1:
 E= -1199.76729101823     Delta-E=       -0.000000592464 Rises=F Damp=F
 DIIS: error= 5.13D-06 at cycle   5 NSaved=   5.
 NSaved= 5 IEnMin= 5 EnMin= -1199.76729101823     IErMin= 5 ErrMin= 5.13D-06
 ErrMax= 5.13D-06  0.00D+00 EMaxC= 1.00D-01 BMatC= 9.16D-09 BMatP= 5.75D-07
 IDIUse=1 WtCom= 1.00D+00 WtEn= 0.00D+00
 Coeff-Com:  0.813D-02-0.902D-01-0.301D-01 0.250D+00 0.862D+00
 Coeff:      0.813D-02-0.902D-01-0.301D-01 0.250D+00 0.862D+00
 Gap=     0.470 Goal=   None    Shift=    0.000
 RMSDP=1.58D-06 MaxDP=4.32D-05 DE=-5.92D-07 OVMax= 8.55D-05

 Cycle   6  Pass 1  IDiag  1:
 E= -1199.76729103275     Delta-E=       -0.000000014512 Rises=F Damp=F
 DIIS: error= 3.18D-06 at cycle   6 NSaved=   6.
 NSaved= 6 IEnMin= 6 EnMin= -1199.76729103275     IErMin= 6 ErrMin= 3.18D-06
 ErrMax= 3.18D-06  0.00D+00 EMaxC= 1.00D-01 BMatC= 3.17D-09 BMatP= 9.16D-09
 IDIUse=1 WtCom= 1.00D+00 WtEn= 0.00D+00
 Coeff-Com:  0.427D-02-0.281D-01-0.280D-01 0.221D-01 0.450D+00 0.580D+00
 Coeff:      0.427D-02-0.281D-01-0.280D-01 0.221D-01 0.450D+00 0.580D+00
 Gap=     0.470 Goal=   None    Shift=    0.000
 RMSDP=4.21D-07 MaxDP=1.42D-05 DE=-1.45D-08 OVMax= 1.94D-05

 Cycle   7  Pass 1  IDiag  1:
 E= -1199.76729103516     Delta-E=       -0.000000002413 Rises=F Damp=F
 DIIS: error= 4.81D-07 at cycle   7 NSaved=   7.
 NSaved= 7 IEnMin= 7 EnMin= -1199.76729103516     IErMin= 7 ErrMin= 4.81D-07
 ErrMax= 4.81D-07  0.00D+00 EMaxC= 1.00D-01 BMatC= 1.02D-10 BMatP= 3.17D-09
 IDIUse=1 WtCom= 1.00D+00 WtEn= 0.00D+00
 Coeff-Com: -0.165D-03 0.607D-02-0.271D-02-0.268D-01-0.136D-01 0.110D+00
 Coeff-Com:  0.927D+00
 Coeff:     -0.165D-03 0.607D-02-0.271D-02-0.268D-01-0.136D-01 0.110D+00
 Coeff:      0.927D+00
 Gap=     0.470 Goal=   None    Shift=    0.000
 RMSDP=1.50D-07 MaxDP=4.65D-06 DE=-2.41D-09 OVMax= 8.64D-06

 Cycle   8  Pass 1  IDiag  1:
 E= -1199.76729103534     Delta-E=       -0.000000000177 Rises=F Damp=F
 DIIS: error= 2.67D-07 at cycle   8 NSaved=   8.
 NSaved= 8 IEnMin= 8 EnMin= -1199.76729103534     IErMin= 8 ErrMin= 2.67D-07
 ErrMax= 2.67D-07  0.00D+00 EMaxC= 1.00D-01 BMatC= 2.67D-11 BMatP= 1.02D-10
 IDIUse=1 WtCom= 1.00D+00 WtEn= 0.00D+00
 Coeff-Com: -0.375D-03 0.505D-02 0.574D-03-0.154D-01-0.381D-01 0.163D-01
 Coeff-Com:  0.457D+00 0.574D+00
 Coeff:     -0.375D-03 0.505D-02 0.574D-03-0.154D-01-0.381D-01 0.163D-01
 Coeff:      0.457D+00 0.574D+00
 Gap=     0.470 Goal=   None    Shift=    0.000
 RMSDP=3.53D-08 MaxDP=9.13D-07 DE=-1.77D-10 OVMax= 1.88D-06

 Cycle   9  Pass 1  IDiag  1:
 E= -1199.76729103531     Delta-E=        0.000000000025 Rises=F Damp=F
 DIIS: error= 6.70D-08 at cycle   9 NSaved=   9.
 NSaved= 9 IEnMin= 8 EnMin= -1199.76729103534     IErMin= 9 ErrMin= 6.70D-08
 ErrMax= 6.70D-08  0.00D+00 EMaxC= 1.00D-01 BMatC= 3.36D-12 BMatP= 2.67D-11
 IDIUse=1 WtCom= 1.00D+00 WtEn= 0.00D+00
 Coeff-Com: -0.162D-03 0.136D-02 0.915D-03-0.252D-02-0.171D-01-0.144D-01
 Coeff-Com:  0.334D-01 0.270D+00 0.728D+00
 Coeff:     -0.162D-03 0.136D-02 0.915D-03-0.252D-02-0.171D-01-0.144D-01
 Coeff:      0.334D-01 0.270D+00 0.728D+00
 Gap=     0.470 Goal=   None    Shift=    0.000
 RMSDP=1.43D-08 MaxDP=6.70D-07 DE= 2.50D-11 OVMax= 9.68D-07

 Cycle  10  Pass 1  IDiag  1:
 E= -1199.76729103536     Delta-E=       -0.000000000045 Rises=F Damp=F
 DIIS: error= 1.45D-08 at cycle  10 NSaved=  10.
 NSaved=10 IEnMin=10 EnMin= -1199.76729103536     IErMin=10 ErrMin= 1.45D-08
 ErrMax= 1.45D-08  0.00D+00 EMaxC= 1.00D-01 BMatC= 1.16D-13 BMatP= 3.36D-12
 IDIUse=1 WtCom= 1.00D+00 WtEn= 0.00D+00
 Coeff-Com: -0.190D-04 0.405D-04 0.204D-03 0.255D-03-0.187D-02-0.443D-02
 Coeff-Com: -0.206D-01 0.274D-01 0.180D+00 0.819D+00
 Coeff:     -0.190D-04 0.405D-04 0.204D-03 0.255D-03-0.187D-02-0.443D-02
 Coeff:     -0.206D-01 0.274D-01 0.180D+00 0.819D+00
 Gap=     0.470 Goal=   None    Shift=    0.000
 RMSDP=3.94D-09 MaxDP=1.41D-07 DE=-4.55D-11 OVMax= 2.50D-07

 SCF Done:  E(RwB97XD) =  -1199.76729104     A.U. after   10 cycles
            NFock= 10  Conv=0.39D-08     -V/T= 2.0020
 KE= 1.197376266155D+03 PE=-4.692299601082D+03 EE= 1.371987242780D+03
 Leave Link  502 at Fri May 23 03:46:40 2025, MaxMem=  3758096384 cpu:              49.2 elap:               9.5
 (Enter /apps/easybuild-2022/easybuild/software/Compiler/NVHPC/22.11-CUDA-11.7.0/Gaussian/g16c01-CUDA-11.7.0/g16/l508.exe)
 QCSCF skips out because SCF is already converged.
 Leave Link  508 at Fri May 23 03:46:40 2025, MaxMem=  3758096384 cpu:               0.0 elap:               0.0
 (Enter /apps/easybuild-2022/easybuild/software/Compiler/NVHPC/22.11-CUDA-11.7.0/Gaussian/g16c01-CUDA-11.7.0/g16/l801.exe)
 DoSCS=F DFT=T ScalE2(SS,OS)=  1.000000  1.000000
 Range of M.O.s used for correlation:     1   257
 NBasis=   257 NAE=    49 NBE=    49 NFC=     0 NFV=     0
 NROrb=    257 NOA=    49 NOB=    49 NVA=   208 NVB=   208

 **** Warning!!: The largest alpha MO coefficient is  0.30352728D+02

 Leave Link  801 at Fri May 23 03:46:40 2025, MaxMem=  3758096384 cpu:               0.0 elap:               0.0
 (Enter /apps/easybuild-2022/easybuild/software/Compiler/NVHPC/22.11-CUDA-11.7.0/Gaussian/g16c01-CUDA-11.7.0/g16/l1101.exe)
 Leave Link 1101 at Fri May 23 03:46:40 2025, MaxMem=  3758096384 cpu:               0.0 elap:               0.0
 (Enter /apps/easybuild-2022/easybuild/software/Compiler/NVHPC/22.11-CUDA-11.7.0/Gaussian/g16c01-CUDA-11.7.0/g16/l1102.exe)
 Symmetrizing basis deriv contribution to polar:
 IMax=3 JMax=2 DiffMx= 0.00D+00
 Leave Link 1102 at Fri May 23 03:46:40 2025, MaxMem=  3758096384 cpu:               0.1 elap:               0.0
 (Enter /apps/easybuild-2022/easybuild/software/Compiler/NVHPC/22.11-CUDA-11.7.0/Gaussian/g16c01-CUDA-11.7.0/g16/l1110.exe)
 Leave Link 1110 at Fri May 23 03:46:40 2025, MaxMem=  3758096384 cpu:               0.0 elap:               0.0
 (Enter /apps/easybuild-2022/easybuild/software/Compiler/NVHPC/22.11-CUDA-11.7.0/Gaussian/g16c01-CUDA-11.7.0/g16/l1002.exe)
 Minotr:  Closed shell wavefunction.
 Leave Link 1002 at Fri May 23 03:46:40 2025, MaxMem=  3758096384 cpu:               0.0 elap:               0.0
 (Enter /apps/easybuild-2022/easybuild/software/Compiler/NVHPC/22.11-CUDA-11.7.0/Gaussian/g16c01-CUDA-11.7.0/g16/l701.exe)
 ... and contract with generalized density number  0.
 Compute integral first derivatives.
 R6Disp: Adding Grimme-D2 dispersion energy 1st derivatives to the gradient.
 Leave Link  701 at Fri May 23 03:46:40 2025, MaxMem=  3758096384 cpu:               0.4 elap:               0.1
 (Enter /apps/easybuild-2022/easybuild/software/Compiler/NVHPC/22.11-CUDA-11.7.0/Gaussian/g16c01-CUDA-11.7.0/g16/l702.exe)
 L702 exits ... SP integral derivatives will be done elsewhere.
 Leave Link  702 at Fri May 23 03:46:40 2025, MaxMem=  3758096384 cpu:               0.0 elap:               0.0
 (Enter /apps/easybuild-2022/easybuild/software/Compiler/NVHPC/22.11-CUDA-11.7.0/Gaussian/g16c01-CUDA-11.7.0/g16/l703.exe)
 Integral derivatives from FoFJK, PRISM(SPDF).
 Compute integral first derivatives, UseDBF=F ICtDFT=           0.
 Calling FoFJK, ICntrl=      2127 FMM=F ISym2X=0 I1Cent= 0 IOpClX= 0 NMat=1 NMatS=1 NMatT=0.
 FoFJK:  IHMeth= 1 ICntrl=    2127 DoSepK=T KAlg= 0 I1Cent=           0 FoldK=F
 IRaf=         1 NMat=       1 IRICut=       1 DoRegI=T DoRafI=F ISym2E= 0 IDoP0=0 IntGTp=1.
 FoFCou: FMM=F IPFlag=           0 FMFlag=      100000 FMFlg1=         800
         NFxFlg=           0 DoJE=F BraDBF=F KetDBF=F FulRan=T
         wScrn=  0.000000 ICntrl=      2527 IOpCl=  0 I1Cent=           0 NGrid=           0
         NMat0=    1 NMatS0=      1 NMatT0=    0 NMatD0=    1 NMtDS0=    0 NMtDT0=    0
 Symmetry not used in FoFCou.
 Leave Link  703 at Fri May 23 03:46:44 2025, MaxMem=  3758096384 cpu:              32.4 elap:               4.1
 (Enter /apps/easybuild-2022/easybuild/software/Compiler/NVHPC/22.11-CUDA-11.7.0/Gaussian/g16c01-CUDA-11.7.0/g16/l716.exe)
 Dipole        =-3.62172899D-01 3.85211920D-01-5.17663107D-02
 Polarizability= 0.00000000D+00 0.00000000D+00 0.00000000D+00
                 0.00000000D+00 0.00000000D+00 0.00000000D+00
 -------------------------------------------------------------------
 Center     Atomic                   Forces (Hartrees/Bohr)
 Number     Number              X              Y              Z
 -------------------------------------------------------------------
      1        6          -0.000169385   -0.000079065   -0.000227553
      2        6          -0.000197671    0.000011175    0.000359965
      3        9           0.000220750    0.000134886    0.000278892
      4        9          -0.000002715    0.000054741    0.000055034
      5       16           0.000653973   -0.002627031   -0.008716747
      6        8           0.002502195    0.003972865   -0.001626849
      7        8          -0.000076590    0.000404716    0.001294725
      8        8          -0.002486592   -0.004461834    0.000469773
      9        9           0.000001478    0.000025250    0.000031609
     10        9           0.000097663    0.000067858    0.000061255
     11        9          -0.000042442    0.000003850    0.000068157
     12        1          -0.000500664    0.002492589    0.007951738
 -------------------------------------------------------------------
 Cartesian Forces:  Max     0.008716747 RMS     0.002393775
 Leave Link  716 at Fri May 23 03:46:44 2025, MaxMem=  3758096384 cpu:               0.0 elap:               0.0
 (Enter /apps/easybuild-2022/easybuild/software/Compiler/NVHPC/22.11-CUDA-11.7.0/Gaussian/g16c01-CUDA-11.7.0/g16/l123.exe)
 IRC-IRC-IRC-IRC-IRC-IRC-IRC-IRC-IRC-IRC-IRC-IRC-IRC-IRC-IRC-IRC-IRC-IRC
 Pt  3 Step number   1 out of a maximum of  20
 Using modified Bulirsch-Stoer corrector integration.
   Using distance weighted interpolants to fit PES.
 PreDWI: IReCr0= 2 IReCr1= 1 IReCr2= 1 IReCr3= 1
 Modified Bulirsch-Stoer Extrapolation Cycles:
    EPS =    0.000010000000000
    Cycle     1 NS=    48
      PEZero:  N= 2 I= 1 D=  1.09D-04 Err=  2.27D-07
    Cycle     2 NS=    64 Truncation Error =  0.000000227
 BS completed in    2 cycles and     112 integration steps.
 Maximum DWI energy   std dev =  0.000000016 at pt    50
 Maximum DWI gradient std dev =  0.000678824 at pt    28
 SUMMARY OF CORRECTOR INTEGRATION:
   Predictor End Point Energy = -1199.767291
   Old End Point Energy       = -1199.767291
   Corrected End Point Energy = -1199.767291
   Predictor End-Start Dist.  =     0.020878
   Old End-Start Dist.        =     0.020878
   New End-Start Dist.        =     0.020878
   New End-Old End Dist.      =     0.000016
 CORRECTOR INTEGRATION CONVERGENCE:
   Recorrection delta-x convergence threshold:    0.010000
   Delta-x Convergence Met
 Point Number:   3          Path Number:   1
                    CURRENT STRUCTURE
                Cartesian Coordinates (Ang):                
 ---------------------------------------------------------------------
 Center     Atomic                     Coordinates (Angstroms)
 Number     Number                        X           Y           Z
 ---------------------------------------------------------------------
      1          6                   -1.246508   -0.366728    0.763287
      2          6                   -0.470680    0.153546   -0.482084
      3          9                   -0.780130   -0.588521   -1.543363
      4          9                   -0.797300    1.421685   -0.710353
      5         16                    1.393597    0.081529   -0.285641
      6          8                    1.813017    1.302571    0.522270
      7          8                    1.740456   -1.234929    0.145152
      8          8                    1.946729    0.652247   -1.582384
      9          9                   -1.122250   -1.678383    0.875321
     10          9                   -0.776975    0.217224    1.860688
     11          9                   -2.531417   -0.062552    0.625615
     12          1                    2.201319    1.544179   -0.650556
 ---------------------------------------------------------------------
   CHANGE IN THE REACTION COORDINATE =    0.02088
   NET REACTION COORDINATE UP TO THIS POINT =    0.06264
  # OF POINTS ALONG THE PATH =   3
  # OF STEPS =   1

 Calculating another point on the path.
 Point Number  4 in REVERSE path direction.
 Using LQA Reaction Path Following.
   LQA: T_Est iteration completed in    3 iterations.
 IRC-IRC-IRC-IRC-IRC-IRC-IRC-IRC-IRC-IRC-IRC-IRC-IRC-IRC-IRC-IRC-IRC-IRC
 Leave Link  123 at Fri May 23 03:46:44 2025, MaxMem=  3758096384 cpu:               0.1 elap:               0.0
 (Enter /apps/easybuild-2022/easybuild/software/Compiler/NVHPC/22.11-CUDA-11.7.0/Gaussian/g16c01-CUDA-11.7.0/g16/l202.exe)
                          Input orientation:                          
 ---------------------------------------------------------------------
 Center     Atomic      Atomic             Coordinates (Angstroms)
 Number     Number       Type             X           Y           Z
 ---------------------------------------------------------------------
      1          6           0       -1.246526   -0.366737    0.763263
      2          6           0       -0.470701    0.153547   -0.482046
      3          9           0       -0.780115   -0.588512   -1.543344
      4          9           0       -0.797300    1.421689   -0.710350
      5         16           0        1.393624    0.081425   -0.285989
      6          8           0        1.813217    1.302887    0.522141
      7          8           0        1.740450   -1.234896    0.145256
      8          8           0        1.946531    0.651891   -1.582347
      9          9           0       -1.122250   -1.678382    0.875323
     10          9           0       -0.776968    0.217229    1.860692
     11          9           0       -2.531420   -0.062552    0.625619
     12          1           0        2.200684    1.547333   -0.640496
 ---------------------------------------------------------------------
                    Distance matrix (angstroms):
                    1          2          3          4          5
     1  C    0.000000
     2  C    1.556726   0.000000
     3  F    2.363718   1.331444   0.000000
     4  F    2.360467   1.329275   2.176025   0.000000
     5  S    2.876138   1.875992   2.599018   2.603178   0.000000
     6  O    3.493967   2.746935   3.816935   2.889281   1.523517
     7  O    3.171382   2.685232   3.102004   3.772225   1.427922
     8  O    4.090855   2.702224   2.995783   2.980197   1.520421
     9  F    1.322276   2.371272   2.674850   3.497197   3.282557
    10  F    1.328853   2.363531   3.498098   2.839259   3.055839
    11  F    1.327565   2.349508   2.836919   2.644798   4.032087
    12  H    4.185386   3.017290   3.776524   3.001429   1.710529
                    6          7          8          9         10
     6  O    0.000000
     7  O    2.566649   0.000000
     8  O    2.206907   2.566524   0.000000
     9  F    4.198770   2.987429   4.570309   0.000000
    10  F    3.111179   3.374728   4.411451   2.164142   0.000000
    11  F    4.555327   4.455785   5.043569   2.158476   2.163743
    12  H    1.249644   2.927460   1.324195   4.872867   4.109931
                   11         12
    11  F    0.000000
    12  H    5.156315   0.000000
 Symmetry turned off by external request.
 Stoichiometry    C2HF5O3S
 Rotational constants (GHZ):           1.6109959           0.8166588           0.7729310
 Leave Link  202 at Fri May 23 03:46:44 2025, MaxMem=  3758096384 cpu:               0.0 elap:               0.0
 (Enter /apps/easybuild-2022/easybuild/software/Compiler/NVHPC/22.11-CUDA-11.7.0/Gaussian/g16c01-CUDA-11.7.0/g16/l301.exe)
 Standard basis: 6-311++G(d,p) (5D, 7F)
 Ernie: Thresh=  0.10000D-02 Tol=  0.10000D-05 Strict=F.
   257 basis functions,   419 primitive gaussians,   268 cartesian basis functions
    49 alpha electrons       49 beta electrons
       nuclear repulsion energy       923.1745986211 Hartrees.
 IExCor= 4639 DFT=T Ex+Corr=wB97XD ExCW=0 ScaHFX=  1.000000
 ScaDFX=  1.000000  1.000000  1.000000  1.000000 ScalE2=  1.000000  1.000000
 IRadAn=      5 IRanWt=     -1 IRanGd=            0 ICorTp=0 IEmpDi=121
 HFx  wShort=  0.000000 wLong=  0.200000 cFull=  0.222036 cShort=  0.000000 cLong=  0.777964
 DFx  wShort=  0.000000 wLong=  0.200000 cFull=  0.000000 cShort=  0.000000 cLong=  1.000000
 NAtoms=   12 NActive=   12 NUniq=   12 SFac= 1.00D+00 NAtFMM=   60 NAOKFM=F Big=F
 Integral buffers will be    131072 words long.
 Raffenetti 2 integral format.
 Two-electron integral symmetry is turned off.
 R6Disp:  Grimme-D2 Dispersion energy=       -0.0054773568 Hartrees.
 Nuclear repulsion after empirical dispersion term =      923.1691212642 Hartrees.
 Leave Link  301 at Fri May 23 03:46:45 2025, MaxMem=  3758096384 cpu:               0.0 elap:               0.0
 (Enter /apps/easybuild-2022/easybuild/software/Compiler/NVHPC/22.11-CUDA-11.7.0/Gaussian/g16c01-CUDA-11.7.0/g16/l302.exe)
 NPDir=0 NMtPBC=     1 NCelOv=     1 NCel=       1 NClECP=     1 NCelD=      1
         NCelK=      1 NCelE2=     1 NClLst=     1 CellRange=     0.0.
 One-electron integrals computed using PRISM.
 NBasis=   257 RedAO= T EigKep=  7.18D-05  NBF=   257
 NBsUse=   257 1.00D-06 EigRej= -1.00D+00 NBFU=   257
 Precomputing XC quadrature grid using
 IXCGrd= 4 IRadAn=           5 IRanWt=          -1 IRanGd=           0 AccXCQ= 0.00D+00.
 Generated NRdTot=       0 NPtTot=           0 NUsed=           0 NTot=          32
 NSgBfM=   268   268   268   268   268 MxSgAt=    12 MxSgA2=    12.
[...]
 DIIS: error= 1.52D-06 at cycle   5 NSaved=   5.
 NSaved= 5 IEnMin= 5 EnMin= -1199.81848170272     IErMin= 5 ErrMin= 1.52D-06
 ErrMax= 1.52D-06  0.00D+00 EMaxC= 1.00D-01 BMatC= 1.20D-09 BMatP= 3.97D-09
 IDIUse=1 WtCom= 1.00D+00 WtEn= 0.00D+00
 Coeff-Com:  0.313D-02-0.463D-01-0.148D-01 0.478D+00 0.580D+00
 Coeff:      0.313D-02-0.463D-01-0.148D-01 0.478D+00 0.580D+00
 Gap=     0.465 Goal=   None    Shift=    0.000
 RMSDP=3.59D-07 MaxDP=1.80D-05 DE=-4.63D-09 OVMax= 8.38D-06

 Cycle   6  Pass 1  IDiag  1:
 E= -1199.81848170352     Delta-E=       -0.000000000802 Rises=F Damp=F
 DIIS: error= 5.19D-07 at cycle   6 NSaved=   6.
 NSaved= 6 IEnMin= 6 EnMin= -1199.81848170352     IErMin= 6 ErrMin= 5.19D-07
 ErrMax= 5.19D-07  0.00D+00 EMaxC= 1.00D-01 BMatC= 1.20D-10 BMatP= 1.20D-09
 IDIUse=1 WtCom= 1.00D+00 WtEn= 0.00D+00
 Coeff-Com:  0.263D-02-0.189D-01-0.161D-01 0.360D-01 0.252D+00 0.744D+00
 Coeff:      0.263D-02-0.189D-01-0.161D-01 0.360D-01 0.252D+00 0.744D+00
 Gap=     0.465 Goal=   None    Shift=    0.000
 RMSDP=9.69D-08 MaxDP=3.50D-06 DE=-8.02D-10 OVMax= 3.11D-06

 Cycle   7  Pass 1  IDiag  1:
 E= -1199.81848170366     Delta-E=       -0.000000000132 Rises=F Damp=F
 DIIS: error= 8.69D-08 at cycle   7 NSaved=   7.
 NSaved= 7 IEnMin= 7 EnMin= -1199.81848170366     IErMin= 7 ErrMin= 8.69D-08
 ErrMax= 8.69D-08  0.00D+00 EMaxC= 1.00D-01 BMatC= 6.72D-12 BMatP= 1.20D-10
 IDIUse=1 WtCom= 1.00D+00 WtEn= 0.00D+00
 Coeff-Com:  0.791D-03-0.414D-02-0.496D-02-0.120D-01 0.543D-01 0.254D+00
 Coeff-Com:  0.712D+00
 Coeff:      0.791D-03-0.414D-02-0.496D-02-0.120D-01 0.543D-01 0.254D+00
 Coeff:      0.712D+00
 Gap=     0.465 Goal=   None    Shift=    0.000
 RMSDP=3.44D-08 MaxDP=1.62D-06 DE=-1.32D-10 OVMax= 9.60D-07

 Cycle   8  Pass 1  IDiag  1:
 E= -1199.81848170364     Delta-E=        0.000000000018 Rises=F Damp=F
 DIIS: error= 5.95D-08 at cycle   8 NSaved=   8.
 NSaved= 8 IEnMin= 7 EnMin= -1199.81848170366     IErMin= 8 ErrMin= 5.95D-08
 ErrMax= 5.95D-08  0.00D+00 EMaxC= 1.00D-01 BMatC= 1.60D-12 BMatP= 6.72D-12
 IDIUse=1 WtCom= 1.00D+00 WtEn= 0.00D+00
 Coeff-Com: -0.174D-03 0.194D-02 0.106D-02-0.114D-01-0.271D-01-0.382D-01
 Coeff-Com:  0.329D+00 0.745D+00
 Coeff:     -0.174D-03 0.194D-02 0.106D-02-0.114D-01-0.271D-01-0.382D-01
 Coeff:      0.329D+00 0.745D+00
 Gap=     0.465 Goal=   None    Shift=    0.000
 RMSDP=1.45D-08 MaxDP=5.78D-07 DE= 1.82D-11 OVMax= 4.66D-07

 Cycle   9  Pass 1  IDiag  1:
 E= -1199.81848170373     Delta-E=       -0.000000000093 Rises=F Damp=F
 DIIS: error= 1.11D-08 at cycle   9 NSaved=   9.
 NSaved= 9 IEnMin= 9 EnMin= -1199.81848170373     IErMin= 9 ErrMin= 1.11D-08
 ErrMax= 1.11D-08  0.00D+00 EMaxC= 1.00D-01 BMatC= 4.43D-14 BMatP= 1.60D-12
 IDIUse=1 WtCom= 1.00D+00 WtEn= 0.00D+00
 Coeff-Com: -0.677D-04 0.538D-03 0.455D-03-0.135D-02-0.852D-02-0.216D-01
 Coeff-Com:  0.192D-01 0.150D+00 0.862D+00
 Coeff:     -0.677D-04 0.538D-03 0.455D-03-0.135D-02-0.852D-02-0.216D-01
 Coeff:      0.192D-01 0.150D+00 0.862D+00
 Gap=     0.465 Goal=   None    Shift=    0.000
 RMSDP=4.41D-09 MaxDP=2.14D-07 DE=-9.32D-11 OVMax= 1.29D-07

 SCF Done:  E(RwB97XD) =  -1199.81848170     A.U. after    9 cycles
            NFock=  9  Conv=0.44D-08     -V/T= 2.0020
 KE= 1.197425136929D+03 PE=-4.688225366437D+03 EE= 1.370127752317D+03
 Leave Link  502 at Fri May 23 04:09:14 2025, MaxMem=  3758096384 cpu:              43.9 elap:               8.5
 (Enter /apps/easybuild-2022/easybuild/software/Compiler/NVHPC/22.11-CUDA-11.7.0/Gaussian/g16c01-CUDA-11.7.0/g16/l508.exe)
 QCSCF skips out because SCF is already converged.
 Leave Link  508 at Fri May 23 04:09:15 2025, MaxMem=  3758096384 cpu:               0.0 elap:               0.0
 (Enter /apps/easybuild-2022/easybuild/software/Compiler/NVHPC/22.11-CUDA-11.7.0/Gaussian/g16c01-CUDA-11.7.0/g16/l801.exe)
 DoSCS=F DFT=T ScalE2(SS,OS)=  1.000000  1.000000
 Range of M.O.s used for correlation:     1   257
 NBasis=   257 NAE=    49 NBE=    49 NFC=     0 NFV=     0
 NROrb=    257 NOA=    49 NOB=    49 NVA=   208 NVB=   208

 **** Warning!!: The largest alpha MO coefficient is  0.30870926D+02

 Leave Link  801 at Fri May 23 04:09:15 2025, MaxMem=  3758096384 cpu:               0.0 elap:               0.0
 (Enter /apps/easybuild-2022/easybuild/software/Compiler/NVHPC/22.11-CUDA-11.7.0/Gaussian/g16c01-CUDA-11.7.0/g16/l1101.exe)
 Leave Link 1101 at Fri May 23 04:09:15 2025, MaxMem=  3758096384 cpu:               0.0 elap:               0.0
 (Enter /apps/easybuild-2022/easybuild/software/Compiler/NVHPC/22.11-CUDA-11.7.0/Gaussian/g16c01-CUDA-11.7.0/g16/l1102.exe)
 Symmetrizing basis deriv contribution to polar:
 IMax=3 JMax=2 DiffMx= 0.00D+00
 Leave Link 1102 at Fri May 23 04:09:15 2025, MaxMem=  3758096384 cpu:               0.0 elap:               0.0
 (Enter /apps/easybuild-2022/easybuild/software/Compiler/NVHPC/22.11-CUDA-11.7.0/Gaussian/g16c01-CUDA-11.7.0/g16/l1110.exe)
 Leave Link 1110 at Fri May 23 04:09:15 2025, MaxMem=  3758096384 cpu:               0.0 elap:               0.0
 (Enter /apps/easybuild-2022/easybuild/software/Compiler/NVHPC/22.11-CUDA-11.7.0/Gaussian/g16c01-CUDA-11.7.0/g16/l1002.exe)
 Minotr:  Closed shell wavefunction.
 Leave Link 1002 at Fri May 23 04:09:15 2025, MaxMem=  3758096384 cpu:               0.0 elap:               0.0
 (Enter /apps/easybuild-2022/easybuild/software/Compiler/NVHPC/22.11-CUDA-11.7.0/Gaussian/g16c01-CUDA-11.7.0/g16/l701.exe)
 ... and contract with generalized density number  0.
 Compute integral first derivatives.
 R6Disp: Adding Grimme-D2 dispersion energy 1st derivatives to the gradient.
 Leave Link  701 at Fri May 23 04:09:15 2025, MaxMem=  3758096384 cpu:               0.3 elap:               0.1
 (Enter /apps/easybuild-2022/easybuild/software/Compiler/NVHPC/22.11-CUDA-11.7.0/Gaussian/g16c01-CUDA-11.7.0/g16/l702.exe)
 L702 exits ... SP integral derivatives will be done elsewhere.
 Leave Link  702 at Fri May 23 04:09:15 2025, MaxMem=  3758096384 cpu:               0.0 elap:               0.0
 (Enter /apps/easybuild-2022/easybuild/software/Compiler/NVHPC/22.11-CUDA-11.7.0/Gaussian/g16c01-CUDA-11.7.0/g16/l703.exe)
 Integral derivatives from FoFJK, PRISM(SPDF).
 Compute integral first derivatives, UseDBF=F ICtDFT=           0.
 Calling FoFJK, ICntrl=      2127 FMM=F ISym2X=0 I1Cent= 0 IOpClX= 0 NMat=1 NMatS=1 NMatT=0.
 FoFJK:  IHMeth= 1 ICntrl=    2127 DoSepK=T KAlg= 0 I1Cent=           0 FoldK=F
 IRaf=         1 NMat=       1 IRICut=       1 DoRegI=T DoRafI=F ISym2E= 0 IDoP0=0 IntGTp=1.
 FoFCou: FMM=F IPFlag=           0 FMFlag=      100000 FMFlg1=         800
         NFxFlg=           0 DoJE=F BraDBF=F KetDBF=F FulRan=T
         wScrn=  0.000000 ICntrl=      2527 IOpCl=  0 I1Cent=           0 NGrid=           0
         NMat0=    1 NMatS0=      1 NMatT0=    0 NMatD0=    1 NMtDS0=    0 NMtDT0=    0
 Symmetry not used in FoFCou.
 Leave Link  703 at Fri May 23 04:09:19 2025, MaxMem=  3758096384 cpu:              30.8 elap:               3.9
 (Enter /apps/easybuild-2022/easybuild/software/Compiler/NVHPC/22.11-CUDA-11.7.0/Gaussian/g16c01-CUDA-11.7.0/g16/l716.exe)
 Dipole        =-1.63541292D-01 8.19070210D-01 2.13523101D-01
 Polarizability= 0.00000000D+00 0.00000000D+00 0.00000000D+00
                 0.00000000D+00 0.00000000D+00 0.00000000D+00
 -------------------------------------------------------------------
 Center     Atomic                   Forces (Hartrees/Bohr)
 Number     Number              X              Y              Z
 -------------------------------------------------------------------
      1        6           0.001128925    0.000343679    0.000297114
      2        6           0.002177988    0.001174537    0.000092922
      3        9           0.000360666    0.000789088    0.001389877
      4        9          -0.001096375    0.001612060    0.000571643
      5       16           0.008549628    0.006297958   -0.017842645
      6        8          -0.007065619   -0.008169267    0.019331324
      7        8           0.000108166    0.009228752    0.006749690
      8        8          -0.003438583   -0.013398202   -0.014573710
      9        9          -0.000025277    0.000226324   -0.000063323
     10        9          -0.000230518    0.000146867    0.000694244
     11        9           0.000563202   -0.000056114    0.000049328
     12        1          -0.001032203    0.001804318    0.003303535
 -------------------------------------------------------------------
 Cartesian Forces:  Max     0.019331324 RMS     0.006425953
 Leave Link  716 at Fri May 23 04:09:19 2025, MaxMem=  3758096384 cpu:               0.0 elap:               0.0
 (Enter /apps/easybuild-2022/easybuild/software/Compiler/NVHPC/22.11-CUDA-11.7.0/Gaussian/g16c01-CUDA-11.7.0/g16/l123.exe)
 IRC-IRC-IRC-IRC-IRC-IRC-IRC-IRC-IRC-IRC-IRC-IRC-IRC-IRC-IRC-IRC-IRC-IRC
 Pt100 Step number   1 out of a maximum of  20
 Using modified Bulirsch-Stoer corrector integration.
   Using distance weighted interpolants to fit PES.
 PreDWI: IReCr0= 2 IReCr1= 1 IReCr2= 1 IReCr3= 1
 Modified Bulirsch-Stoer Extrapolation Cycles:
    EPS =    0.000010000000000
    Cycle     1 NS=    48
      PEZero:  N= 2 I= 1 D=  1.09D-04 Err=  1.05D-06
    Cycle     2 NS=    64 Truncation Error =  0.000001048
 BS completed in    2 cycles and     112 integration steps.
 Maximum DWI energy   std dev =  0.000000001 at pt    47
 Maximum DWI gradient std dev =  0.000326600 at pt    29
 SUMMARY OF CORRECTOR INTEGRATION:
   Predictor End Point Energy = -1199.818482
   Old End Point Energy       = -1199.818482
   Corrected End Point Energy = -1199.818482
   Predictor End-Start Dist.  =     0.020880
   Old End-Start Dist.        =     0.020880
   New End-Start Dist.        =     0.020880
   New End-Old End Dist.      =     0.000008
 CORRECTOR INTEGRATION CONVERGENCE:
   Recorrection delta-x convergence threshold:    0.010000
   Delta-x Convergence Met
 Point Number: 100          Path Number:   1
                    CURRENT STRUCTURE
                Cartesian Coordinates (Ang):                
 ---------------------------------------------------------------------
 Center     Atomic                     Coordinates (Angstroms)
 Number     Number                        X           Y           Z
 ---------------------------------------------------------------------
      1          6                   -1.245178   -0.366658    0.762846
      2          6                   -0.466701    0.157455   -0.476079
      3          9                   -0.777670   -0.586194   -1.538566
      4          9                   -0.799321    1.424501   -0.708904
      5         16                    1.412982    0.083493   -0.350906
      6          8                    1.805197    1.311626    0.597551
      7          8                    1.737588   -1.209537    0.172199
      8          8                    1.914083    0.578822   -1.608280
      9          9                   -1.122583   -1.678057    0.875436
     10          9                   -0.776793    0.217759    1.861391
     11          9                   -2.532120   -0.062705    0.626471
     12          1                    2.218737    1.942826   -0.008670
 ---------------------------------------------------------------------
   CHANGE IN THE REACTION COORDINATE =    0.02088
   NET REACTION COORDINATE UP TO THIS POINT =    2.08795
  # OF POINTS ALONG THE PATH = 100
  # OF STEPS =   1

 Maximum number of steps reached.
 Calculation of REVERSE path complete.
 Reaction path calculation complete.
 
 Energies reported relative to the TS energy of       -1199.767019
 --------------------------------------------------------------------------
    Summary of reaction path following
 --------------------------------------------------------------------------
                        Energy    RxCoord
   1                   -0.05146  -2.08795
   2                   -0.05126  -2.06707
   3                   -0.05105  -2.04619
   4                   -0.05084  -2.02531
   5                   -0.05062  -2.00443
   6                   -0.05040  -1.98355
   7                   -0.05018  -1.96267
   8                   -0.04995  -1.94179
   9                   -0.04971  -1.92091
  10                   -0.04948  -1.90003
  11                   -0.04923  -1.87915
  12                   -0.04899  -1.85827
  13                   -0.04873  -1.83739
  14                   -0.04848  -1.81651
  15                   -0.04821  -1.79563
  16                   -0.04795  -1.77475
  17                   -0.04767  -1.75387
  18                   -0.04739  -1.73299
  19                   -0.04711  -1.71211
  20                   -0.04682  -1.69123
  21                   -0.04652  -1.67035
  22                   -0.04622  -1.64948
  23                   -0.04591  -1.62860
  24                   -0.04560  -1.60772
  25                   -0.04528  -1.58684
  26                   -0.04495  -1.56596
  27                   -0.04461  -1.54508
  28                   -0.04427  -1.52420
  29                   -0.04392  -1.50332
  30                   -0.04356  -1.48244
  31                   -0.04319  -1.46156
  32                   -0.04282  -1.44068
  33                   -0.04243  -1.41980
  34                   -0.04204  -1.39892
  35                   -0.04164  -1.37804
  36                   -0.04123  -1.35716
  37                   -0.04081  -1.33628
  38                   -0.04038  -1.31540
  39                   -0.03995  -1.29452
  40                   -0.03950  -1.27364
  41                   -0.03904  -1.25276
  42                   -0.03857  -1.23188
  43                   -0.03809  -1.21100
  44                   -0.03760  -1.19012
  45                   -0.03710  -1.16924
  46                   -0.03659  -1.14837
  47                   -0.03607  -1.12749
  48                   -0.03553  -1.10661
  49                   -0.03499  -1.08573
  50                   -0.03443  -1.06485
  51                   -0.03386  -1.04397
  52                   -0.03328  -1.02309
  53                   -0.03268  -1.00221
  54                   -0.03207  -0.98133
  55                   -0.03145  -0.96045
  56                   -0.03081  -0.93957
  57                   -0.03016  -0.91869
  58                   -0.02950  -0.89781
  59                   -0.02882  -0.87693
  60                   -0.02813  -0.85605
  61                   -0.02742  -0.83517
  62                   -0.02670  -0.81429
  63                   -0.02597  -0.79341
  64                   -0.02521  -0.77253
  65                   -0.02445  -0.75166
  66                   -0.02366  -0.73078
  67                   -0.02286  -0.70990
  68                   -0.02204  -0.68902
  69                   -0.02121  -0.66814
  70                   -0.02036  -0.64726
  71                   -0.01950  -0.62638
  72                   -0.01862  -0.60550
  73                   -0.01773  -0.58463
  74                   -0.01683  -0.56375
  75                   -0.01592  -0.54287
  76                   -0.01501  -0.52199
  77                   -0.01409  -0.50111
  78                   -0.01318  -0.48023
  79                   -0.01227  -0.45935
  80                   -0.01136  -0.43847
  81                   -0.01047  -0.41759
  82                   -0.00959  -0.39671
  83                   -0.00872  -0.37583
  84                   -0.00788  -0.35495
  85                   -0.00707  -0.33407
  86                   -0.00629  -0.31319
  87                   -0.00554  -0.29231
  88                   -0.00482  -0.27143
  89                   -0.00414  -0.25055
  90                   -0.00351  -0.22967
  91                   -0.00292  -0.20879
  92                   -0.00239  -0.18791
  93                   -0.00190  -0.16703
  94                   -0.00146  -0.14616
  95                   -0.00108  -0.12528
  96                   -0.00075  -0.10440
  97                   -0.00048  -0.08352
  98                   -0.00027  -0.06264
  99                   -0.00012  -0.04176
 100                   -0.00003  -0.02088
 101                    0.00000   0.00000
 --------------------------------------------------------------------------
 
 Total number of points:                  100
 Total number of gradient calculations:   100
 Total number of Hessian calculations:      0
 IRC-IRC-IRC-IRC-IRC-IRC-IRC-IRC-IRC-IRC-IRC-IRC-IRC-IRC-IRC-IRC-IRC-IRC
 Leave Link  123 at Fri May 23 04:09:19 2025, MaxMem=  3758096384 cpu:               0.0 elap:               0.0
 (Enter /apps/easybuild-2022/easybuild/software/Compiler/NVHPC/22.11-CUDA-11.7.0/Gaussian/g16c01-CUDA-11.7.0/g16/l202.exe)
                          Input orientation:                          
 ---------------------------------------------------------------------
 Center     Atomic      Atomic             Coordinates (Angstroms)
 Number     Number       Type             X           Y           Z
 ---------------------------------------------------------------------
      1          6           0       -1.245178   -0.366658    0.762846
      2          6           0       -0.466701    0.157455   -0.476079
      3          9           0       -0.777670   -0.586194   -1.538566
      4          9           0       -0.799321    1.424501   -0.708904
      5         16           0        1.412982    0.083493   -0.350906
      6          8           0        1.805197    1.311626    0.597551
      7          8           0        1.737588   -1.209537    0.172199
      8          8           0        1.914083    0.578822   -1.608280
      9          9           0       -1.122583   -1.678057    0.875436
     10          9           0       -0.776793    0.217759    1.861391
     11          9           0       -2.532120   -0.062705    0.626471
     12          1           0        2.218740    1.942829   -0.008671
 ---------------------------------------------------------------------
                    Distance matrix (angstroms):
                    1          2          3          4          5
     1  C    0.000000
     2  C    1.554238   0.000000
     3  F    2.358655   1.333639   0.000000
     4  F    2.360739   1.330507   2.175247   0.000000
     5  S    2.917000   1.885297   2.580304   2.611656   0.000000
     6  O    3.485506   2.765197   3.851742   2.916004   1.600536
     7  O    3.155345   2.673541   3.105124   3.761702   1.432108
     8  O    4.061662   2.669749   2.933880   2.981042   1.441334
     9  F    1.321920   2.371893   2.671804   3.498643   3.322057
    10  F    1.329560   2.358720   3.493715   2.839568   3.115669
    11  F    1.329362   2.351604   2.835405   2.645298   4.066997
    12  H    4.234111   3.258470   4.208920   3.141286   2.055117
                    6          7          8          9         10
     6  O    0.000000
     7  O    2.557686   0.000000
     8  O    2.326918   2.529720   0.000000
     9  F    4.193724   2.982387   4.525891   0.000000
    10  F    3.075794   3.348530   4.405655   2.164670   0.000000
    11  F    4.549938   4.444321   5.017408   2.158272   2.164454
    12  H    0.967957   3.194000   2.124166   5.005687   3.930167
                   11         12
    11  F    0.000000
    12  H    5.195791   0.000000
 Symmetry turned off by external request.
 Stoichiometry    C2HF5O3S
 Rotational constants (GHZ):           1.5920937           0.8144790           0.7745569
 Leave Link  202 at Fri May 23 04:09:19 2025, MaxMem=  3758096384 cpu:               0.0 elap:               0.0
 (Enter /apps/easybuild-2022/easybuild/software/Compiler/NVHPC/22.11-CUDA-11.7.0/Gaussian/g16c01-CUDA-11.7.0/g16/l9999.exe)

 This type of calculation cannot be archived.


 I DON'T EXACTLY UNDERSTAND WHAT YOU ARE SAYING,
 BUT YOU ARE ABSOLUTELY RIGHT.
     M.S.GORDON, IN A NDSU FACULTY MEETING
 Job cpu time:       0 days  2 hours 16 minutes 11.4 seconds.
 Elapsed time:       0 days  0 hours 22 minutes 58.9 seconds.
 File lengths (MBytes):  RWF=     31 Int=      0 D2E=      0 Chk=      8 Scr=      1
 Normal termination of Gaussian 16 at Fri May 23 04:09:19 2025.
done
