 Entering Gaussian System, Link 0=g16
 Initial command:
 /apps/easybuild-2022/easybuild/software/Compiler/NVHPC/22.11-CUDA-11.7.0/Gaussian/g16c01-CUDA-11.7.0/g16/l1.exe "/tmp/Gau-44790.inp" -scrdir="/tmp/"
 Entering Link 1 = /apps/easybuild-2022/easybuild/software/Compiler/NVHPC/22.11-CUDA-11.7.0/Gaussian/g16c01-CUDA-11.7.0/g16/l1.exe PID=     44791.
  
 Copyright (c) 1988-2019, Gaussian, Inc.  All Rights Reserved.
  
 This is part of the Gaussian(R) 16 program.  It is based on
 the Gaussian(R) 09 system (copyright 2009, Gaussian, Inc.),
 the Gaussian(R) 03 system (copyright 2003, Gaussian, Inc.),
 the Gaussian(R) 98 system (copyright 1998, Gaussian, Inc.),
 the Gaussian(R) 94 system (copyright 1995, Gaussian, Inc.),
 the Gaussian 92(TM) system (copyright 1992, Gaussian, Inc.),
 the Gaussian 90(TM) system (copyright 1990, Gaussian, Inc.),
 the Gaussian 88(TM) system (copyright 1988, Gaussian, Inc.),
 the Gaussian 86(TM) system (copyright 1986, Carnegie Mellon
 University), and the Gaussian 82(TM) system (copyright 1983,
 Carnegie Mellon University). Gaussian is a federally registered
 trademark of Gaussian, Inc.
  
 This software contains proprietary and confidential information,
 including trade secrets, belonging to Gaussian, Inc.
  
 This software is provided under written license and may be
 used, copied, transmitted, or stored only in accord with that
 written license.
  
 The following legend is applicable only to US Government
 contracts under FAR:
  
                    RESTRICTED RIGHTS LEGEND
  
 Use, reproduction and disclosure by the US Government is
 subject to restrictions as set forth in subparagraphs (a)
 and (c) of the Commercial Computer Software - Restricted
 Rights clause in FAR 52.227-19.
  
 Gaussian, Inc.
 340 Quinnipiac St., Bldg. 40, Wallingford CT 06492
  
  
 ---------------------------------------------------------------
 Warning -- This program may not be used in any manner that
 competes with the business of Gaussian, Inc. or will provide
 assistance to any competitor of Gaussian, Inc.  The licensee
 of this program is prohibited from giving any competitor of
 Gaussian, Inc. access to this program.  By using this program,
 the user acknowledges that Gaussian, Inc. is engaged in the
 business of creating and licensing software in the field of
 computational chemistry and represents and warrants to the
 licensee that it is not a competitor of Gaussian, Inc. and that
 it will not use this program in any manner prohibited above.
 ---------------------------------------------------------------
  

 Cite this work as:
 Gaussian 16, Revision C.01,
 M. J. Frisch, G. W. Trucks, H. B. Schlegel, G. E. Scuseria, 
 M. A. Robb, J. R. Cheeseman, G. Scalmani, V. Barone, 
 G. A. Petersson, H. Nakatsuji, X. Li, M. Caricato, A. V. Marenich, 
 J. Bloino, B. G. Janesko, R. Gomperts, B. Mennucci, H. P. Hratchian, 
 J. V. Ortiz, A. F. Izmaylov, J. L. Sonnenberg, D. Williams-Young, 
 F. Ding, F. Lipparini, F. Egidi, J. Goings, B. Peng, A. Petrone, 
 T. Henderson, D. Ranasinghe, V. G. Zakrzewski, J. Gao, N. Rega, 
 G. Zheng, W. Liang, M. Hada, M. Ehara, K. Toyota, R. Fukuda, 
 J. Hasegawa, M. Ishida, T. Nakajima, Y. Honda, O. Kitao, H. Nakai, 
 T. Vreven, K. Throssell, J. A. Montgomery, Jr., J. E. Peralta, 
 F. Ogliaro, M. J. Bearpark, J. J. Heyd, E. N. Brothers, K. N. Kudin, 
 V. N. Staroverov, T. A. Keith, R. Kobayashi, J. Normand, 
 K. Raghavachari, A. P. Rendell, J. C. Burant, S. S. Iyengar, 
 J. Tomasi, M. Cossi, J. M. Millam, M. Klene, C. Adamo, R. Cammi, 
 J. W. Ochterski, R. L. Martin, K. Morokuma, O. Farkas, 
 J. B. Foresman, and D. J. Fox, Gaussian, Inc., Wallingford CT, 2019.
 
 ******************************************
 Gaussian 16:  ES64L-G16RevC.01  3-Jul-2019
                23-May-2025 
 ******************************************
 %mem=28GB
 %chk=2003846667223680600001_r12_insertion_R_9_1_2_IRC_R
 %nprocshared=8
 Will use up to    8 processors via shared memory.
 ----------------------------------------------------------------------
 #P wb97xd/6-311++G(d,p) Symm(None) scf(xqc) pop(None) geom(AllCheck,No
 KeepConstants) guess(Read) irc(RCFC,reverse,MaxPoints=100,StepSize=2)
 ----------------------------------------------------------------------
 1/10=5,18=10,22=2,26=3,29=20007,38=1,39=2,42=100,44=3,172=1/1,23;
 2/12=2,15=3,29=1,40=1/2;
 3/5=4,6=6,7=1111,11=2,14=-4,25=1,30=1,71=2,74=-58,116=-2,140=1/1,2,3;
 4/5=1/1;
 5/5=2,8=3,13=1,38=6/2,8;
 8/6=4,10=90,11=11/1;
 11/6=1,8=1,9=11,15=111,16=1,31=1/1,2,10;
 10/6=1,13=1,31=1/2;
 7/10=1,25=1,30=1/1,2,3,16;
 1/18=10,22=2,26=3,39=2,42=100,44=3/23(2);
 2/15=3,29=1/2;
 99/5=20/99;
 2/15=3,29=1/2;
 3/5=4,6=6,7=1111,11=2,14=-2,25=1,30=1,71=2,74=-58,140=1/1,2,3;
 4/5=5,16=3,69=1/1;
 5/5=2,8=3,13=1,38=5/2,8;
 8/6=4,10=90,11=11/1;
 11/6=1,8=1,9=11,15=111,16=1,31=1/1,2,10;
 10/6=1,13=1,31=1/2;
 7/10=1,25=1,30=1/1,2,3,16;
 1/18=10,22=2,26=3,39=2,42=100,44=3/23(-8);
 2/15=3,29=1/2;
 99/5=20,9=1/99;
 Leave Link    1 at Fri May 23 03:41:21 2025, MaxMem=  3758096384 cpu:               0.0 elap:               0.1
 (Enter /apps/easybuild-2022/easybuild/software/Compiler/NVHPC/22.11-CUDA-11.7.0/Gaussian/g16c01-CUDA-11.7.0/g16/l101.exe)
 Structure from the checkpoint file:  "2003846667223680600001_r12_insertion_R_9_1_2_IRC_R.chk"
 ------------------------------
 Gaussian input prepared by ASE
 ------------------------------
 Charge =  0 Multiplicity = 1
 Redundant internal coordinates found in file.  (old form).
 C,0,-1.6271733994,0.1081747398,0.9918846187
 C,0,0.1601389639,0.5188403459,0.4007111884
 F,0,-0.0910988593,0.111065365,-0.8475131644
 F,0,0.0173495714,1.817776549,0.6026023854
 S,0,2.050930528,0.2512667844,0.5313803779
 O,0,2.5221754914,0.8842058772,1.723155713
 O,0,2.3423576259,-1.1132503701,0.1818853511
 O,0,2.5041166293,1.194960807,-0.7013726545
 F,0,-0.0103109124,-0.4959791216,1.7027148179
 F,0,-2.1793686746,0.6541517702,2.0134769838
 F,0,-2.2272970694,-0.9936376461,0.7199805276
 H,0,2.5886081052,0.6604528993,-1.500615145
 Recover connectivity data from disk.
 ITRead=  0  0  0  0  0  0  0  0  0  0  0  0
 MicOpt= -1 -1 -1 -1 -1 -1 -1 -1 -1 -1 -1 -1
 NAtoms=     12 NQM=       12 NQMF=       0 NMMI=      0 NMMIF=      0
                NMic=       0 NMicF=      0.
                    Isotopes and Nuclear Properties:
 (Nuclear quadrupole moments (NQMom) in fm**2, nuclear magnetic moments (NMagM)
  in nuclear magnetons)

  Atom         1           2           3           4           5           6           7           8           9          10
 IAtWgt=          12          12          19          19          32          16          16          16          19          19
 AtmWgt=  12.0000000  12.0000000  18.9984032  18.9984032  31.9720718  15.9949146  15.9949146  15.9949146  18.9984032  18.9984032
 NucSpn=           0           0           1           1           0           0           0           0           1           1
 AtZEff=   3.6000000   3.6000000   6.7500000   6.7500000  13.6000000   5.6000000   5.6000000   5.6000000   6.7500000   6.7500000
 NQMom=    0.0000000   0.0000000   0.0000000   0.0000000   0.0000000   0.0000000   0.0000000   0.0000000   0.0000000   0.0000000
 NMagM=    0.0000000   0.0000000   2.6288670   2.6288670   0.0000000   0.0000000   0.0000000   0.0000000   2.6288670   2.6288670
 AtZNuc=   6.0000000   6.0000000   9.0000000   9.0000000  16.0000000   8.0000000   8.0000000   8.0000000   9.0000000   9.0000000

  Atom        11          12
 IAtWgt=          19           1
 AtmWgt=  18.9984032   1.0078250
 NucSpn=           1           1
 AtZEff=   6.7500000   1.0000000
 NQMom=    0.0000000   0.0000000
 NMagM=    2.6288670   2.7928460
 AtZNuc=   9.0000000   1.0000000
 Leave Link  101 at Fri May 23 03:41:21 2025, MaxMem=  3758096384 cpu:               0.2 elap:               0.2
 (Enter /apps/easybuild-2022/easybuild/software/Compiler/NVHPC/22.11-CUDA-11.7.0/Gaussian/g16c01-CUDA-11.7.0/g16/l123.exe)
 IRC-IRC-IRC-IRC-IRC-IRC-IRC-IRC-IRC-IRC-IRC-IRC-IRC-IRC-IRC-IRC-IRC-IRC
 ------------------------------------------------------------------------
 INPUT DATA FOR L123
 ------------------------------------------------------------------------
 GENERAL PARAMETERS:
 Rxn path following direction = Reverse
 Maximum points per path      = 100
 Step size                    =   0.020 bohr
 Integration scheme           = HPC                                 
    Redo corrector integration= Yes                                 
    DWI Weight Power          =  2
    DWI will use Hessian update vectors when possible.
    Max correction cycles     =  20
 Initial Hessian              = ReadFC from chk
 Hessian evaluation           = All updating
 Hessian updating method      = Bofill                              
 ------------------------------------------------------------------------
          ******** Start new reaction path calculation ********
 RCFC Option Requested - Data Read From Chk File:
 "2003846667223680600001_r12_insertion_R_9_1_2_IRC_R.chk"
   Energy From Chk =  -1199.6423753

 Current Structure is TS -> form Hessian eigenvectors.
                            Recovering Hessian eigenvectors from chk file.
 Supplied step size of   0.0200 bohr.
    Integration on MW PES will use step size of   0.0763 sqrt(amu)*bohr.
 Point Number:   0          Path Number:   1
 Calculating another point on the path.
 Point Number  1 in REVERSE path direction.
 Using LQA Reaction Path Following.
 IRC-IRC-IRC-IRC-IRC-IRC-IRC-IRC-IRC-IRC-IRC-IRC-IRC-IRC-IRC-IRC-IRC-IRC
 Leave Link  123 at Fri May 23 03:41:21 2025, MaxMem=  3758096384 cpu:               0.0 elap:               0.0
 (Enter /apps/easybuild-2022/easybuild/software/Compiler/NVHPC/22.11-CUDA-11.7.0/Gaussian/g16c01-CUDA-11.7.0/g16/l202.exe)
                          Input orientation:                          
 ---------------------------------------------------------------------
 Center     Atomic      Atomic             Coordinates (Angstroms)
 Number     Number       Type             X           Y           Z
 ---------------------------------------------------------------------
      1          6           0       -2.036624   -0.156296    0.338854
      2          6           0       -0.259792    0.257843   -0.256284
      3          9           0       -0.507067   -0.150623   -1.504777
      4          9           0       -0.398536    1.556930   -0.053676
      5         16           0        1.634441   -0.011140   -0.123911
      6          8           0        2.106220    0.621903    1.067680
      7          8           0        1.926474   -1.375549   -0.473566
      8          8           0        2.088181    0.932650   -1.356780
      9          9           0       -0.428075   -0.760937    1.050856
     10          9           0       -2.593454    0.392512    1.356864
     11          9           0       -2.641409   -1.255094    0.063569
     12          1           0        2.172467    0.397997   -2.155949
 ---------------------------------------------------------------------
                    Distance matrix (angstroms):
                    1          2          3          4          5
     1  C    0.000000
     2  C    1.919071   0.000000
     3  F    2.395528   1.336685   0.000000
     4  F    2.402614   1.322092   2.243483   0.000000
     5  S    3.702964   1.917809   2.551921   2.568418   0.000000
     6  O    4.277843   2.735587   3.747480   2.899227   1.429408
     7  O    4.225252   2.737689   2.913067   3.765822   1.438456
     8  O    4.590751   2.679447   2.816149   2.876034   1.617586
     9  F    1.860099   1.665787   2.628685   2.567756   2.489226
    10  F    1.283587   2.840134   3.582876   2.857124   4.497858
    11  F    1.284096   2.839610   2.869665   3.598847   4.457068
    12  H    4.924198   3.089378   2.811567   3.517490   2.141505
                    6          7          8          9         10
     6  O    0.000000
     7  O    2.529340   0.000000
     8  O    2.444360   2.476691   0.000000
     9  F    2.887072   2.871500   3.872530   0.000000
    10  F    4.714148   5.187125   5.438136   2.472439   0.000000
    11  F    5.203012   4.600932   5.401170   2.473413   2.095117
    12  H    3.232074   2.456906   0.965209   4.288303   5.920633
                   11         12
    11  F    0.000000
    12  H    5.552690   0.000000
 Symmetry turned off by external request.
 Stoichiometry    C2HF5O3S
 Rotational constants (GHZ):           1.8679656           0.6557794           0.6452694
 Leave Link  202 at Fri May 23 03:41:21 2025, MaxMem=  3758096384 cpu:               0.0 elap:               0.0
 (Enter /apps/easybuild-2022/easybuild/software/Compiler/NVHPC/22.11-CUDA-11.7.0/Gaussian/g16c01-CUDA-11.7.0/g16/l301.exe)
 Standard basis: 6-311++G(d,p) (5D, 7F)
 Ernie: Thresh=  0.10000D-02 Tol=  0.10000D-05 Strict=F.
   257 basis functions,   419 primitive gaussians,   268 cartesian basis functions
    49 alpha electrons       49 beta electrons
       nuclear repulsion energy       895.6665806766 Hartrees.
 IExCor= 4639 DFT=T Ex+Corr=wB97XD ExCW=0 ScaHFX=  1.000000
 ScaDFX=  1.000000  1.000000  1.000000  1.000000 ScalE2=  1.000000  1.000000
 IRadAn=      5 IRanWt=     -1 IRanGd=            0 ICorTp=0 IEmpDi=121
 HFx  wShort=  0.000000 wLong=  0.200000 cFull=  0.222036 cShort=  0.000000 cLong=  0.777964
 DFx  wShort=  0.000000 wLong=  0.200000 cFull=  0.000000 cShort=  0.000000 cLong=  1.000000
 NAtoms=   12 NActive=   12 NUniq=   12 SFac= 1.00D+00 NAtFMM=   60 NAOKFM=F Big=F
 Integral buffers will be    131072 words long.
 Raffenetti 2 integral format.
 Two-electron integral symmetry is turned off.
 R6Disp:  Grimme-D2 Dispersion energy=       -0.0052151190 Hartrees.
 Nuclear repulsion after empirical dispersion term =      895.6613655576 Hartrees.
 Leave Link  301 at Fri May 23 03:41:22 2025, MaxMem=  3758096384 cpu:               0.0 elap:               0.0
 (Enter /apps/easybuild-2022/easybuild/software/Compiler/NVHPC/22.11-CUDA-11.7.0/Gaussian/g16c01-CUDA-11.7.0/g16/l302.exe)
 NPDir=0 NMtPBC=     1 NCelOv=     1 NCel=       1 NClECP=     1 NCelD=      1
         NCelK=      1 NCelE2=     1 NClLst=     1 CellRange=     0.0.
 One-electron integrals computed using PRISM.
 NBasis=   257 RedAO= T EigKep=  9.65D-05  NBF=   257
 NBsUse=   257 1.00D-06 EigRej= -1.00D+00 NBFU=   257
 Precomputing XC quadrature grid using
 IXCGrd= 4 IRadAn=           5 IRanWt=          -1 IRanGd=           0 AccXCQ= 0.00D+00.
 Generated NRdTot=       0 NPtTot=           0 NUsed=           0 NTot=          32
 NSgBfM=   268   268   268   268   268 MxSgAt=    12 MxSgA2=    12.
 Leave Link  302 at Fri May 23 03:41:22 2025, MaxMem=  3758096384 cpu:               0.5 elap:               0.1
 (Enter /apps/easybuild-2022/easybuild/software/Compiler/NVHPC/22.11-CUDA-11.7.0/Gaussian/g16c01-CUDA-11.7.0/g16/l303.exe)
 DipDrv:  MaxL=1.
 Leave Link  303 at Fri May 23 03:41:22 2025, MaxMem=  3758096384 cpu:               0.1 elap:               0.0
 (Enter /apps/easybuild-2022/easybuild/software/Compiler/NVHPC/22.11-CUDA-11.7.0/Gaussian/g16c01-CUDA-11.7.0/g16/l401.exe)
 Initial guess from the checkpoint file:  "2003846667223680600001_r12_insertion_R_9_1_2_IRC_R.chk"
 B after Tr=    -0.785569   -0.495660   -1.238664
         Rot=    1.000000    0.000001   -0.000003   -0.000002 Ang=   0.00 deg.
 Guess basis will be translated and rotated to current coordinates.
 JPrj=2 DoOrth=T DoCkMO=T.
 Leave Link  401 at Fri May 23 03:41:22 2025, MaxMem=  3758096384 cpu:               0.2 elap:               0.2
 (Enter /apps/easybuild-2022/easybuild/software/Compiler/NVHPC/22.11-CUDA-11.7.0/Gaussian/g16c01-CUDA-11.7.0/g16/l502.exe)
 Keep R1 ints in memory in canonical form, NReq=1117474609.
 FoFCou: FMM=F IPFlag=           0 FMFlag=           0 FMFlg1=           0
         NFxFlg=           0 DoJE=F BraDBF=F KetDBF=F FulRan=T
         wScrn=  0.000000 ICntrl=       600 IOpCl=  0 I1Cent=           0 NGrid=           0
         NMat0=    1 NMatS0=  33153 NMatT0=    0 NMatD0=    1 NMtDS0=    0 NMtDT0=    0
 Symmetry not used in FoFCou.
 Two-electron integral symmetry not used.
 Closed shell SCF:
 Using DIIS extrapolation, IDIIS=  1040.
 NGot=  3758096384 LenX=  2658793876 LenY=  2658721611
 Requested convergence on RMS density matrix=1.00D-08 within  32 cycles.
 Requested convergence on MAX density matrix=1.00D-06.
 Requested convergence on             energy=1.00D-06.
 No special actions if energy rises.

 Cycle   1  Pass 1  IDiag  1:
 E= -1199.64228688901    
 DIIS: error= 2.98D-04 at cycle   1 NSaved=   1.
 NSaved= 1 IEnMin= 1 EnMin= -1199.64228688901     IErMin= 1 ErrMin= 2.98D-04
 ErrMax= 2.98D-04  0.00D+00 EMaxC= 1.00D-01 BMatC= 6.23D-05 BMatP= 6.23D-05
 IDIUse=3 WtCom= 9.97D-01 WtEn= 2.98D-03
 Coeff-Com:  0.100D+01
 Coeff-En:   0.100D+01
 Coeff:      0.100D+01
 Gap=     0.372 Goal=   None    Shift=    0.000
 RMSDP=1.04D-04 MaxDP=5.86D-03              OVMax= 4.23D-03

 Cycle   2  Pass 1  IDiag  1:
 E= -1199.64239868347     Delta-E=       -0.000111794461 Rises=F Damp=F
 DIIS: error= 1.33D-04 at cycle   2 NSaved=   2.
 NSaved= 2 IEnMin= 2 EnMin= -1199.64239868347     IErMin= 2 ErrMin= 1.33D-04
 ErrMax= 1.33D-04  0.00D+00 EMaxC= 1.00D-01 BMatC= 4.48D-06 BMatP= 6.23D-05
 IDIUse=3 WtCom= 9.99D-01 WtEn= 1.33D-03
 Coeff-Com: -0.107D+00 0.111D+01
 Coeff-En:   0.000D+00 0.100D+01
 Coeff:     -0.107D+00 0.111D+01
 Gap=     0.370 Goal=   None    Shift=    0.000
 RMSDP=2.85D-05 MaxDP=1.48D-03 DE=-1.12D-04 OVMax= 2.53D-03

 Cycle   3  Pass 1  IDiag  1:
 E= -1199.64240931135     Delta-E=       -0.000010627881 Rises=F Damp=F
 DIIS: error= 1.08D-04 at cycle   3 NSaved=   3.
 NSaved= 3 IEnMin= 3 EnMin= -1199.64240931135     IErMin= 3 ErrMin= 1.08D-04
 ErrMax= 1.08D-04  0.00D+00 EMaxC= 1.00D-01 BMatC= 4.65D-06 BMatP= 4.48D-06
 IDIUse=3 WtCom= 9.99D-01 WtEn= 1.08D-03
 Coeff-Com: -0.120D+00 0.615D+00 0.505D+00
 Coeff-En:   0.000D+00 0.000D+00 0.100D+01
 Coeff:     -0.120D+00 0.614D+00 0.505D+00
 Gap=     0.370 Goal=   None    Shift=    0.000
 RMSDP=9.34D-06 MaxDP=3.37D-04 DE=-1.06D-05 OVMax= 4.16D-04

 Cycle   4  Pass 1  IDiag  1:
 E= -1199.64241276122     Delta-E=       -0.000003449869 Rises=F Damp=F
 DIIS: error= 4.12D-05 at cycle   4 NSaved=   4.
 NSaved= 4 IEnMin= 4 EnMin= -1199.64241276122     IErMin= 4 ErrMin= 4.12D-05
 ErrMax= 4.12D-05  0.00D+00 EMaxC= 1.00D-01 BMatC= 2.85D-07 BMatP= 4.48D-06
 IDIUse=1 WtCom= 1.00D+00 WtEn= 0.00D+00
 Coeff-Com:  0.957D-03-0.119D+00 0.120D+00 0.998D+00
 Coeff:      0.957D-03-0.119D+00 0.120D+00 0.998D+00
 Gap=     0.370 Goal=   None    Shift=    0.000
 RMSDP=7.80D-06 MaxDP=4.76D-04 DE=-3.45D-06 OVMax= 7.16D-04

 Cycle   5  Pass 1  IDiag  1:
 E= -1199.64241349837     Delta-E=       -0.000000737156 Rises=F Damp=F
 DIIS: error= 1.56D-05 at cycle   5 NSaved=   5.
 NSaved= 5 IEnMin= 5 EnMin= -1199.64241349837     IErMin= 5 ErrMin= 1.56D-05
 ErrMax= 1.56D-05  0.00D+00 EMaxC= 1.00D-01 BMatC= 8.38D-08 BMatP= 2.85D-07
 IDIUse=1 WtCom= 1.00D+00 WtEn= 0.00D+00
 Coeff-Com:  0.130D-01-0.125D+00-0.158D-01 0.468D+00 0.660D+00
 Coeff:      0.130D-01-0.125D+00-0.158D-01 0.468D+00 0.660D+00
 Gap=     0.370 Goal=   None    Shift=    0.000
 RMSDP=2.51D-06 MaxDP=1.35D-04 DE=-7.37D-07 OVMax= 1.68D-04

 Cycle   6  Pass 1  IDiag  1:
 E= -1199.64241360594     Delta-E=       -0.000000107568 Rises=F Damp=F
 DIIS: error= 4.38D-06 at cycle   6 NSaved=   6.
 NSaved= 6 IEnMin= 6 EnMin= -1199.64241360594     IErMin= 6 ErrMin= 4.38D-06
 ErrMax= 4.38D-06  0.00D+00 EMaxC= 1.00D-01 BMatC= 1.06D-08 BMatP= 8.38D-08
 IDIUse=1 WtCom= 1.00D+00 WtEn= 0.00D+00
 Coeff-Com:  0.467D-02-0.201D-01-0.417D-01-0.483D-01 0.247D+00 0.859D+00
 Coeff:      0.467D-02-0.201D-01-0.417D-01-0.483D-01 0.247D+00 0.859D+00
 Gap=     0.370 Goal=   None    Shift=    0.000
 RMSDP=1.50D-06 MaxDP=9.54D-05 DE=-1.08D-07 OVMax= 1.14D-04

 Cycle   7  Pass 1  IDiag  1:
 E= -1199.64241362588     Delta-E=       -0.000000019934 Rises=F Damp=F
 DIIS: error= 1.77D-06 at cycle   7 NSaved=   7.
 NSaved= 7 IEnMin= 7 EnMin= -1199.64241362588     IErMin= 7 ErrMin= 1.77D-06
 ErrMax= 1.77D-06  0.00D+00 EMaxC= 1.00D-01 BMatC= 1.45D-09 BMatP= 1.06D-08
 IDIUse=1 WtCom= 1.00D+00 WtEn= 0.00D+00
 Coeff-Com:  0.423D-03 0.666D-02-0.151D-01-0.721D-01 0.277D-01 0.359D+00
 Coeff-Com:  0.693D+00
 Coeff:      0.423D-03 0.666D-02-0.151D-01-0.721D-01 0.277D-01 0.359D+00
 Coeff:      0.693D+00
 Gap=     0.370 Goal=   None    Shift=    0.000
 RMSDP=4.45D-07 MaxDP=1.70D-05 DE=-1.99D-08 OVMax= 2.22D-05

 Cycle   8  Pass 1  IDiag  1:
 E= -1199.64241362757     Delta-E=       -0.000000001693 Rises=F Damp=F
 DIIS: error= 6.64D-07 at cycle   8 NSaved=   8.
 NSaved= 8 IEnMin= 8 EnMin= -1199.64241362757     IErMin= 8 ErrMin= 6.64D-07
 ErrMax= 6.64D-07  0.00D+00 EMaxC= 1.00D-01 BMatC= 2.29D-10 BMatP= 1.45D-09
 IDIUse=1 WtCom= 1.00D+00 WtEn= 0.00D+00
 Coeff-Com: -0.505D-03 0.624D-02 0.237D-04-0.251D-01-0.260D-01 0.254D-01
 Coeff-Com:  0.313D+00 0.707D+00
 Coeff:     -0.505D-03 0.624D-02 0.237D-04-0.251D-01-0.260D-01 0.254D-01
 Coeff:      0.313D+00 0.707D+00
 Gap=     0.370 Goal=   None    Shift=    0.000
 RMSDP=1.38D-07 MaxDP=4.47D-06 DE=-1.69D-09 OVMax= 7.51D-06

 Cycle   9  Pass 1  IDiag  1:
 E= -1199.64241362774     Delta-E=       -0.000000000171 Rises=F Damp=F
 DIIS: error= 2.66D-07 at cycle   9 NSaved=   9.
 NSaved= 9 IEnMin= 9 EnMin= -1199.64241362774     IErMin= 9 ErrMin= 2.66D-07
 ErrMax= 2.66D-07  0.00D+00 EMaxC= 1.00D-01 BMatC= 2.28D-11 BMatP= 2.29D-10
 IDIUse=1 WtCom= 1.00D+00 WtEn= 0.00D+00
 Coeff-Com: -0.257D-03 0.156D-02 0.183D-02-0.132D-02-0.124D-01-0.361D-01
 Coeff-Com:  0.273D-01 0.265D+00 0.754D+00
 Coeff:     -0.257D-03 0.156D-02 0.183D-02-0.132D-02-0.124D-01-0.361D-01
 Coeff:      0.273D-01 0.265D+00 0.754D+00
 Gap=     0.370 Goal=   None    Shift=    0.000
 RMSDP=5.30D-08 MaxDP=2.50D-06 DE=-1.71D-10 OVMax= 3.01D-06

 Cycle  10  Pass 1  IDiag  1:
 E= -1199.64241362778     Delta-E=       -0.000000000035 Rises=F Damp=F
 DIIS: error= 8.93D-08 at cycle  10 NSaved=  10.
 NSaved=10 IEnMin=10 EnMin= -1199.64241362778     IErMin=10 ErrMin= 8.93D-08
 ErrMax= 8.93D-08  0.00D+00 EMaxC= 1.00D-01 BMatC= 2.04D-12 BMatP= 2.28D-11
 IDIUse=1 WtCom= 1.00D+00 WtEn= 0.00D+00
 Coeff-Com:  0.278D-04-0.655D-03 0.468D-03 0.349D-02 0.179D-02-0.111D-01
 Coeff-Com: -0.391D-01-0.481D-01 0.133D+00 0.960D+00
 Coeff:      0.278D-04-0.655D-03 0.468D-03 0.349D-02 0.179D-02-0.111D-01
 Coeff:     -0.391D-01-0.481D-01 0.133D+00 0.960D+00
 Gap=     0.370 Goal=   None    Shift=    0.000
 RMSDP=2.00D-08 MaxDP=6.31D-07 DE=-3.50D-11 OVMax= 1.50D-06

 Cycle  11  Pass 1  IDiag  1:
 E= -1199.64241362777     Delta-E=        0.000000000010 Rises=F Damp=F
 DIIS: error= 3.89D-08 at cycle  11 NSaved=  11.
 NSaved=11 IEnMin=10 EnMin= -1199.64241362778     IErMin=11 ErrMin= 3.89D-08
 ErrMax= 3.89D-08  0.00D+00 EMaxC= 1.00D-01 BMatC= 7.55D-13 BMatP= 2.04D-12
 IDIUse=1 WtCom= 1.00D+00 WtEn= 0.00D+00
 Coeff-Com:  0.469D-04-0.550D-03 0.618D-04 0.209D-02 0.235D-02-0.217D-02
 Coeff-Com: -0.239D-01-0.540D-01-0.180D-01 0.475D+00 0.619D+00
 Coeff:      0.469D-04-0.550D-03 0.618D-04 0.209D-02 0.235D-02-0.217D-02
 Coeff:     -0.239D-01-0.540D-01-0.180D-01 0.475D+00 0.619D+00
 Gap=     0.370 Goal=   None    Shift=    0.000
 RMSDP=7.49D-09 MaxDP=3.06D-07 DE= 1.00D-11 OVMax= 4.32D-07

 SCF Done:  E(RwB97XD) =  -1199.64241363     A.U. after   11 cycles
            NFock= 11  Conv=0.75D-08     -V/T= 2.0020
 KE= 1.197265714468D+03 PE=-4.638428814939D+03 EE= 1.345859321285D+03
 Leave Link  502 at Fri May 23 03:41:32 2025, MaxMem=  3758096384 cpu:              52.2 elap:              10.2
 (Enter /apps/easybuild-2022/easybuild/software/Compiler/NVHPC/22.11-CUDA-11.7.0/Gaussian/g16c01-CUDA-11.7.0/g16/l508.exe)
 QCSCF skips out because SCF is already converged.
 Leave Link  508 at Fri May 23 03:41:32 2025, MaxMem=  3758096384 cpu:               0.0 elap:               0.0
 (Enter /apps/easybuild-2022/easybuild/software/Compiler/NVHPC/22.11-CUDA-11.7.0/Gaussian/g16c01-CUDA-11.7.0/g16/l801.exe)
 DoSCS=F DFT=T ScalE2(SS,OS)=  1.000000  1.000000
 Range of M.O.s used for correlation:     1   257
 NBasis=   257 NAE=    49 NBE=    49 NFC=     0 NFV=     0
 NROrb=    257 NOA=    49 NOB=    49 NVA=   208 NVB=   208

 **** Warning!!: The largest alpha MO coefficient is  0.29684429D+02

 Leave Link  801 at Fri May 23 03:41:32 2025, MaxMem=  3758096384 cpu:               0.0 elap:               0.0
 (Enter /apps/easybuild-2022/easybuild/software/Compiler/NVHPC/22.11-CUDA-11.7.0/Gaussian/g16c01-CUDA-11.7.0/g16/l1101.exe)
 Leave Link 1101 at Fri May 23 03:41:32 2025, MaxMem=  3758096384 cpu:               0.0 elap:               0.0
 (Enter /apps/easybuild-2022/easybuild/software/Compiler/NVHPC/22.11-CUDA-11.7.0/Gaussian/g16c01-CUDA-11.7.0/g16/l1102.exe)
 Symmetrizing basis deriv contribution to polar:
 IMax=3 JMax=2 DiffMx= 0.00D+00
 Leave Link 1102 at Fri May 23 03:41:32 2025, MaxMem=  3758096384 cpu:               0.0 elap:               0.0
 (Enter /apps/easybuild-2022/easybuild/software/Compiler/NVHPC/22.11-CUDA-11.7.0/Gaussian/g16c01-CUDA-11.7.0/g16/l1110.exe)
 Leave Link 1110 at Fri May 23 03:41:32 2025, MaxMem=  3758096384 cpu:               0.1 elap:               0.0
 (Enter /apps/easybuild-2022/easybuild/software/Compiler/NVHPC/22.11-CUDA-11.7.0/Gaussian/g16c01-CUDA-11.7.0/g16/l1002.exe)
 Minotr:  Closed shell wavefunction.
 Leave Link 1002 at Fri May 23 03:41:32 2025, MaxMem=  3758096384 cpu:               0.1 elap:               0.0
 (Enter /apps/easybuild-2022/easybuild/software/Compiler/NVHPC/22.11-CUDA-11.7.0/Gaussian/g16c01-CUDA-11.7.0/g16/l701.exe)
 ... and contract with generalized density number  0.
 Compute integral first derivatives.
 R6Disp: Adding Grimme-D2 dispersion energy 1st derivatives to the gradient.
 Leave Link  701 at Fri May 23 03:41:32 2025, MaxMem=  3758096384 cpu:               0.5 elap:               0.1
 (Enter /apps/easybuild-2022/easybuild/software/Compiler/NVHPC/22.11-CUDA-11.7.0/Gaussian/g16c01-CUDA-11.7.0/g16/l702.exe)
 L702 exits ... SP integral derivatives will be done elsewhere.
 Leave Link  702 at Fri May 23 03:41:32 2025, MaxMem=  3758096384 cpu:               0.0 elap:               0.0
 (Enter /apps/easybuild-2022/easybuild/software/Compiler/NVHPC/22.11-CUDA-11.7.0/Gaussian/g16c01-CUDA-11.7.0/g16/l703.exe)
 Integral derivatives from FoFJK, PRISM(SPDF).
 Compute integral first derivatives, UseDBF=F ICtDFT=           0.
 Calling FoFJK, ICntrl=      2127 FMM=F ISym2X=0 I1Cent= 0 IOpClX= 0 NMat=1 NMatS=1 NMatT=0.
 FoFJK:  IHMeth= 1 ICntrl=    2127 DoSepK=T KAlg= 0 I1Cent=           0 FoldK=F
 IRaf=         1 NMat=       1 IRICut=       1 DoRegI=T DoRafI=F ISym2E= 0 IDoP0=0 IntGTp=1.
 FoFCou: FMM=F IPFlag=           0 FMFlag=      100000 FMFlg1=         800
         NFxFlg=           0 DoJE=F BraDBF=F KetDBF=F FulRan=T
         wScrn=  0.000000 ICntrl=      2527 IOpCl=  0 I1Cent=           0 NGrid=           0
         NMat0=    1 NMatS0=      1 NMatT0=    0 NMatD0=    1 NMtDS0=    0 NMtDT0=    0
 Symmetry not used in FoFCou.
 Leave Link  703 at Fri May 23 03:41:37 2025, MaxMem=  3758096384 cpu:              32.8 elap:               4.2
 (Enter /apps/easybuild-2022/easybuild/software/Compiler/NVHPC/22.11-CUDA-11.7.0/Gaussian/g16c01-CUDA-11.7.0/g16/l716.exe)
 Dipole        =-1.31423529D+00 2.25487851D-01-1.09500920D+00
 Polarizability= 0.00000000D+00 0.00000000D+00 0.00000000D+00
                 0.00000000D+00 0.00000000D+00 0.00000000D+00
 -------------------------------------------------------------------
 Center     Atomic                   Forces (Hartrees/Bohr)
 Number     Number              X              Y              Z
 -------------------------------------------------------------------
      1        6           0.001886033   -0.000663469    0.000750444
      2        6          -0.001265505    0.000395893   -0.000465585
      3        9          -0.000131143    0.000284397   -0.000825863
      4        9          -0.000088787    0.000668046   -0.000374298
      5       16          -0.000610060   -0.000099247    0.000148590
      6        8          -0.000102002   -0.000012115    0.000002151
      7        8          -0.000076802   -0.000006863    0.000010763
      8        8          -0.000095256   -0.000012960    0.000031843
      9        9          -0.001007899   -0.001248703    0.001690780
     10        9           0.000758551    0.000304376   -0.000534545
     11        9           0.000744001    0.000395279   -0.000437467
     12        1          -0.000011129   -0.000004634    0.000003187
 -------------------------------------------------------------------
 Cartesian Forces:  Max     0.001886033 RMS     0.000658909
 Leave Link  716 at Fri May 23 03:41:37 2025, MaxMem=  3758096384 cpu:               0.0 elap:               0.0
 (Enter /apps/easybuild-2022/easybuild/software/Compiler/NVHPC/22.11-CUDA-11.7.0/Gaussian/g16c01-CUDA-11.7.0/g16/l123.exe)
 IRC-IRC-IRC-IRC-IRC-IRC-IRC-IRC-IRC-IRC-IRC-IRC-IRC-IRC-IRC-IRC-IRC-IRC
 Pt  1 Step number   1 out of a maximum of  20
 Using modified Bulirsch-Stoer corrector integration.
   Using distance weighted interpolants to fit PES.
 PreDWI: IReCr0= 2 IReCr1= 1 IReCr2= 1 IReCr3= 1
 Modified Bulirsch-Stoer Extrapolation Cycles:
    EPS =    0.000010000000000
    Cycle     1 NS=    48
      PEZero:  N= 2 I= 1 D=  1.99D-04 Err=  3.21D-04
    Cycle     2 NS=    64 Truncation Error =  0.000321214
      PEZero:  N= 3 I= 2 D=  1.99D-04 Err=  2.14D-04
      PEZero:  N= 3 I= 1 D=  3.97D-04 Err=  8.76D-09
    Cycle     3 NS=    96 Truncation Error =  0.000000009
 BS completed in    3 cycles and     208 integration steps.
 Maximum DWI energy   std dev =  0.000000106 at pt    42
 Maximum DWI gradient std dev =  0.007839252 at pt     1
 SUMMARY OF CORRECTOR INTEGRATION:
   Predictor End Point Energy = -1199.642414
   Old End Point Energy       = -1199.642414
   Corrected End Point Energy = -1199.642414
   Predictor End-Start Dist.  =     0.076301
   Old End-Start Dist.        =     0.076301
   New End-Start Dist.        =     0.076300
   New End-Old End Dist.      =     0.000368
 CORRECTOR INTEGRATION CONVERGENCE:
   Recorrection delta-x convergence threshold:    0.010000
   Delta-x Convergence Met
 Point Number:   1          Path Number:   1
                    CURRENT STRUCTURE
                Cartesian Coordinates (Ang):                
 ---------------------------------------------------------------------
 Center     Atomic                     Coordinates (Angstroms)
 Number     Number                        X           Y           Z
 ---------------------------------------------------------------------
      1          6                   -2.036607   -0.156305    0.338870
      2          6                   -0.259789    0.257853   -0.256295
      3          9                   -0.507069   -0.150623   -1.504767
      4          9                   -0.398535    1.556925   -0.053673
      5         16                    1.634450   -0.011141   -0.123913
      6          8                    2.106223    0.621899    1.067681
      7          8                    1.926473   -1.375551   -0.473568
      8          8                    2.088183    0.932648   -1.356779
      9          9                   -0.428098   -0.760924    1.050837
     10          9                   -2.593458    0.392511    1.356868
     11          9                   -2.641414   -1.255093    0.063573
     12          1                    2.172469    0.397997   -2.155950
 ---------------------------------------------------------------------
   CHANGE IN THE REACTION COORDINATE =    0.07630
   NET REACTION COORDINATE UP TO THIS POINT =    0.07630
  # OF POINTS ALONG THE PATH =   1
  # OF STEPS =   1

 Calculating another point on the path.
 Point Number  2 in REVERSE path direction.
 Using LQA Reaction Path Following.
   LQA: T_Est iteration completed in    3 iterations.
 IRC-IRC-IRC-IRC-IRC-IRC-IRC-IRC-IRC-IRC-IRC-IRC-IRC-IRC-IRC-IRC-IRC-IRC
 Leave Link  123 at Fri May 23 03:41:37 2025, MaxMem=  3758096384 cpu:               0.1 elap:               0.1
 (Enter /apps/easybuild-2022/easybuild/software/Compiler/NVHPC/22.11-CUDA-11.7.0/Gaussian/g16c01-CUDA-11.7.0/g16/l202.exe)
                          Input orientation:                          
 ---------------------------------------------------------------------
 Center     Atomic      Atomic             Coordinates (Angstroms)
 Number     Number       Type             X           Y           Z
 ---------------------------------------------------------------------
      1          6           0       -2.030336   -0.158505    0.341349
      2          6           0       -0.264017    0.259156   -0.257826
      3          9           0       -0.507343   -0.150027   -1.506534
      4          9           0       -0.398721    1.558355   -0.054465
      5         16           0        1.633675   -0.011264   -0.123726
      6          8           0        2.105971    0.621873    1.067689
      7          8           0        1.926285   -1.375570   -0.473540
      8          8           0        2.087949    0.932619   -1.356705
      9          9           0       -0.430214   -0.763573    1.054424
     10          9           0       -2.591854    0.393152    1.355746
     11          9           0       -2.639837   -1.254265    0.062652
     12          1           0        2.172027    0.397827   -2.155806
 ---------------------------------------------------------------------
                    Distance matrix (angstroms):
                    1          2          3          4          5
     1  C    0.000000
     2  C    1.911370   0.000000
     3  F    2.394629   1.336380   0.000000
     4  F    2.401342   1.321900   2.244743   0.000000
     5  S    3.696342   1.921547   2.552523   2.568878   0.000000
     6  O    4.271486   2.739598   3.748582   2.899950   1.429474
     7  O    4.219021   2.741584   2.914032   3.766855   1.438513
     8  O    4.586307   2.681945   2.816046   2.875918   1.617875
     9  F    1.853368   1.672003   2.634558   2.573320   2.492717
    10  F    1.283990   2.835559   3.582301   2.855910   4.495273
    11  F    1.284466   2.835078   2.868660   3.598214   4.454513
    12  H    4.919872   3.091257   2.810823   3.517273   2.141619
                    6          7          8          9         10
     6  O    0.000000
     7  O    2.529319   0.000000
     8  O    2.444294   2.476661   0.000000
     9  F    2.889960   2.874422   3.877080   0.000000
    10  F    4.712202   5.185388   5.435896   2.470121   0.000000
    11  F    5.201219   4.599096   5.398981   2.471199   2.094846
    12  H    3.231947   2.456694   0.965212   4.292562   5.918242
                   11         12
    11  F    0.000000
    12  H    5.550225   0.000000
 Symmetry turned off by external request.
 Stoichiometry    C2HF5O3S
 Rotational constants (GHZ):           1.8655389           0.6560928           0.6457936
 Leave Link  202 at Fri May 23 03:41:37 2025, MaxMem=  3758096384 cpu:               0.0 elap:               0.0
 (Enter /apps/easybuild-2022/easybuild/software/Compiler/NVHPC/22.11-CUDA-11.7.0/Gaussian/g16c01-CUDA-11.7.0/g16/l301.exe)
 Standard basis: 6-311++G(d,p) (5D, 7F)
 Ernie: Thresh=  0.10000D-02 Tol=  0.10000D-05 Strict=F.
   257 basis functions,   419 primitive gaussians,   268 cartesian basis functions
    49 alpha electrons       49 beta electrons
       nuclear repulsion energy       895.5840354800 Hartrees.
 IExCor= 4639 DFT=T Ex+Corr=wB97XD ExCW=0 ScaHFX=  1.000000
 ScaDFX=  1.000000  1.000000  1.000000  1.000000 ScalE2=  1.000000  1.000000
 IRadAn=      5 IRanWt=     -1 IRanGd=            0 ICorTp=0 IEmpDi=121
 HFx  wShort=  0.000000 wLong=  0.200000 cFull=  0.222036 cShort=  0.000000 cLong=  0.777964
 DFx  wShort=  0.000000 wLong=  0.200000 cFull=  0.000000 cShort=  0.000000 cLong=  1.000000
 NAtoms=   12 NActive=   12 NUniq=   12 SFac= 1.00D+00 NAtFMM=   60 NAOKFM=F Big=F
 Integral buffers will be    131072 words long.
 Raffenetti 2 integral format.
 Two-electron integral symmetry is turned off.
 R6Disp:  Grimme-D2 Dispersion energy=       -0.0052191547 Hartrees.
 Nuclear repulsion after empirical dispersion term =      895.5788163252 Hartrees.
 Leave Link  301 at Fri May 23 03:41:37 2025, MaxMem=  3758096384 cpu:               0.0 elap:               0.0
 (Enter /apps/easybuild-2022/easybuild/software/Compiler/NVHPC/22.11-CUDA-11.7.0/Gaussian/g16c01-CUDA-11.7.0/g16/l302.exe)
 NPDir=0 NMtPBC=     1 NCelOv=     1 NCel=       1 NClECP=     1 NCelD=      1
         NCelK=      1 NCelE2=     1 NClLst=     1 CellRange=     0.0.
 One-electron integrals computed using PRISM.
 NBasis=   257 RedAO= T EigKep=  9.78D-05  NBF=   257
 NBsUse=   257 1.00D-06 EigRej= -1.00D+00 NBFU=   257
 Precomputing XC quadrature grid using
 IXCGrd= 4 IRadAn=           5 IRanWt=          -1 IRanGd=           0 AccXCQ= 0.00D+00.
 Generated NRdTot=       0 NPtTot=           0 NUsed=           0 NTot=          32
 NSgBfM=   268   268   268   268   268 MxSgAt=    12 MxSgA2=    12.
 Leave Link  302 at Fri May 23 03:41:37 2025, MaxMem=  3758096384 cpu:               0.5 elap:               0.1
 (Enter /apps/easybuild-2022/easybuild/software/Compiler/NVHPC/22.11-CUDA-11.7.0/Gaussian/g16c01-CUDA-11.7.0/g16/l303.exe)
 DipDrv:  MaxL=1.
 Leave Link  303 at Fri May 23 03:41:37 2025, MaxMem=  3758096384 cpu:               0.1 elap:               0.0
 (Enter /apps/easybuild-2022/easybuild/software/Compiler/NVHPC/22.11-CUDA-11.7.0/Gaussian/g16c01-CUDA-11.7.0/g16/l401.exe)
 Initial guess from the checkpoint file:  "2003846667223680600001_r12_insertion_R_9_1_2_IRC_R.chk"
 B after Tr=    -0.000010   -0.000010    0.000012
         Rot=    1.000000   -0.000001   -0.000004   -0.000001 Ang=  -0.00 deg.
 Guess basis will be translated and rotated to current coordinates.
 JPrj=2 DoOrth=T DoCkMO=T.
 Generating alternative initial guess.
 ExpMin= 3.60D-02 ExpMax= 9.34D+04 ExpMxC= 3.17D+03 IAcc=3 IRadAn=         5 AccDes= 0.00D+00
 Harris functional with IExCor= 4639 and IRadAn=       5 diagonalized for initial guess.
 HarFok:  IExCor= 4639 AccDes= 0.00D+00 IRadAn=         5 IDoV= 1 UseB2=F ITyADJ=14
 ICtDFT=  3500011 ScaDFX=  1.000000  1.000000  1.000000  1.000000
 FoFCou: FMM=F IPFlag=           0 FMFlag=      100000 FMFlg1=           0
         NFxFlg=           0 DoJE=T BraDBF=F KetDBF=T FulRan=T
         wScrn=  0.000000 ICntrl=       500 IOpCl=  0 I1Cent=   200000004 NGrid=           0
         NMat0=    1 NMatS0=      1 NMatT0=    0 NMatD0=    1 NMtDS0=    0 NMtDT0=    0
 Symmetry not used in FoFCou.
 Harris En= -1166.99678795917    
 Leave Link  401 at Fri May 23 03:41:37 2025, MaxMem=  3758096384 cpu:               2.5 elap:               0.4
 (Enter /apps/easybuild-2022/easybuild/software/Compiler/NVHPC/22.11-CUDA-11.7.0/Gaussian/g16c01-CUDA-11.7.0/g16/l502.exe)
 Keep R1 ints in memory in canonical form, NReq=1117474609.
 FoFCou: FMM=F IPFlag=           0 FMFlag=           0 FMFlg1=           0
         NFxFlg=           0 DoJE=F BraDBF=F KetDBF=F FulRan=T
         wScrn=  0.000000 ICntrl=       600 IOpCl=  0 I1Cent=           0 NGrid=           0
         NMat0=    1 NMatS0=  33153 NMatT0=    0 NMatD0=    1 NMtDS0=    0 NMtDT0=    0
 Symmetry not used in FoFCou.
 Two-electron integral symmetry not used.
 Closed shell SCF:
 Using DIIS extrapolation, IDIIS=  1040.
 NGot=  3758096384 LenX=  2658793876 LenY=  2658721611
 Requested convergence on RMS density matrix=1.00D-08 within  32 cycles.
 Requested convergence on MAX density matrix=1.00D-06.
 Requested convergence on             energy=1.00D-06.
 No special actions if energy rises.

 Cycle   1  Pass 1  IDiag  1:
 E= -1199.64240085535    
 DIIS: error= 2.97D-04 at cycle   1 NSaved=   1.
 NSaved= 1 IEnMin= 1 EnMin= -1199.64240085535     IErMin= 1 ErrMin= 2.97D-04
 ErrMax= 2.97D-04  0.00D+00 EMaxC= 1.00D-01 BMatC= 6.31D-05 BMatP= 6.31D-05
 IDIUse=3 WtCom= 9.97D-01 WtEn= 2.97D-03
 Coeff-Com:  0.100D+01
 Coeff-En:   0.100D+01
 Coeff:      0.100D+01
 Gap=     0.733 Goal=   None    Shift=    0.000
 RMSDP=1.06D-04 MaxDP=6.05D-03              OVMax= 4.17D-03

 Cycle   2  Pass 1  IDiag  1:
 E= -1199.64251441928     Delta-E=       -0.000113563930 Rises=F Damp=F
 DIIS: error= 1.30D-04 at cycle   2 NSaved=   2.
 NSaved= 2 IEnMin= 2 EnMin= -1199.64251441928     IErMin= 2 ErrMin= 1.30D-04
 ErrMax= 1.30D-04  0.00D+00 EMaxC= 1.00D-01 BMatC= 4.53D-06 BMatP= 6.31D-05
 IDIUse=3 WtCom= 9.99D-01 WtEn= 1.30D-03
 Coeff-Com: -0.109D+00 0.111D+01
 Coeff-En:   0.000D+00 0.100D+01
 Coeff:     -0.109D+00 0.111D+01
 Gap=     0.369 Goal=   None    Shift=    0.000
 RMSDP=2.87D-05 MaxDP=1.50D-03 DE=-1.14D-04 OVMax= 2.52D-03

 Cycle   3  Pass 1  IDiag  1:
 E= -1199.64252533158     Delta-E=       -0.000010912309 Rises=F Damp=F
 DIIS: error= 1.06D-04 at cycle   3 NSaved=   3.
 NSaved= 3 IEnMin= 3 EnMin= -1199.64252533158     IErMin= 3 ErrMin= 1.06D-04
 ErrMax= 1.06D-04  0.00D+00 EMaxC= 1.00D-01 BMatC= 4.60D-06 BMatP= 4.53D-06
 IDIUse=3 WtCom= 9.99D-01 WtEn= 1.06D-03
 Coeff-Com: -0.119D+00 0.612D+00 0.507D+00
 Coeff-En:   0.000D+00 0.000D+00 0.100D+01
 Coeff:     -0.119D+00 0.612D+00 0.507D+00
 Gap=     0.369 Goal=   None    Shift=    0.000
 RMSDP=9.35D-06 MaxDP=3.33D-04 DE=-1.09D-05 OVMax= 4.10D-04

 Cycle   4  Pass 1  IDiag  1:
 E= -1199.64252876382     Delta-E=       -0.000003432231 Rises=F Damp=F
 DIIS: error= 4.14D-05 at cycle   4 NSaved=   4.
 NSaved= 4 IEnMin= 4 EnMin= -1199.64252876382     IErMin= 4 ErrMin= 4.14D-05
 ErrMax= 4.14D-05  0.00D+00 EMaxC= 1.00D-01 BMatC= 3.02D-07 BMatP= 4.53D-06
 IDIUse=1 WtCom= 1.00D+00 WtEn= 0.00D+00
 Coeff-Com:  0.401D-03-0.116D+00 0.129D+00 0.988D+00
 Coeff:      0.401D-03-0.116D+00 0.129D+00 0.988D+00
 Gap=     0.369 Goal=   None    Shift=    0.000
 RMSDP=7.89D-06 MaxDP=4.85D-04 DE=-3.43D-06 OVMax= 7.20D-04

 Cycle   5  Pass 1  IDiag  1:
 E= -1199.64252952739     Delta-E=       -0.000000763571 Rises=F Damp=F
 DIIS: error= 1.60D-05 at cycle   5 NSaved=   5.
 NSaved= 5 IEnMin= 5 EnMin= -1199.64252952739     IErMin= 5 ErrMin= 1.60D-05
 ErrMax= 1.60D-05  0.00D+00 EMaxC= 1.00D-01 BMatC= 8.78D-08 BMatP= 3.02D-07
 IDIUse=1 WtCom= 1.00D+00 WtEn= 0.00D+00
 Coeff-Com:  0.131D-01-0.127D+00-0.134D-01 0.466D+00 0.661D+00
 Coeff:      0.131D-01-0.127D+00-0.134D-01 0.466D+00 0.661D+00
 Gap=     0.369 Goal=   None    Shift=    0.000
 RMSDP=2.56D-06 MaxDP=1.40D-04 DE=-7.64D-07 OVMax= 1.71D-04

 Cycle   6  Pass 1  IDiag  1:
 E= -1199.64252964143     Delta-E=       -0.000000114042 Rises=F Damp=F
 DIIS: error= 4.37D-06 at cycle   6 NSaved=   6.
 NSaved= 6 IEnMin= 6 EnMin= -1199.64252964143     IErMin= 6 ErrMin= 4.37D-06
 ErrMax= 4.37D-06  0.00D+00 EMaxC= 1.00D-01 BMatC= 1.09D-08 BMatP= 8.78D-08
 IDIUse=1 WtCom= 1.00D+00 WtEn= 0.00D+00
 Coeff-Com:  0.478D-02-0.208D-01-0.425D-01-0.481D-01 0.246D+00 0.861D+00
 Coeff:      0.478D-02-0.208D-01-0.425D-01-0.481D-01 0.246D+00 0.861D+00
 Gap=     0.369 Goal=   None    Shift=    0.000
 RMSDP=1.53D-06 MaxDP=9.84D-05 DE=-1.14D-07 OVMax= 1.16D-04

 Cycle   7  Pass 1  IDiag  1:
 E= -1199.64252966225     Delta-E=       -0.000000020824 Rises=F Damp=F
 DIIS: error= 1.77D-06 at cycle   7 NSaved=   7.
 NSaved= 7 IEnMin= 7 EnMin= -1199.64252966225     IErMin= 7 ErrMin= 1.77D-06
 ErrMax= 1.77D-06  0.00D+00 EMaxC= 1.00D-01 BMatC= 1.51D-09 BMatP= 1.09D-08
 IDIUse=1 WtCom= 1.00D+00 WtEn= 0.00D+00
 Coeff-Com:  0.447D-03 0.664D-02-0.155D-01-0.715D-01 0.270D-01 0.359D+00
 Coeff-Com:  0.694D+00
 Coeff:      0.447D-03 0.664D-02-0.155D-01-0.715D-01 0.270D-01 0.359D+00
 Coeff:      0.694D+00
 Gap=     0.369 Goal=   None    Shift=    0.000
 RMSDP=4.52D-07 MaxDP=1.72D-05 DE=-2.08D-08 OVMax= 2.25D-05

 Cycle   8  Pass 1  IDiag  1:
 E= -1199.64252966398     Delta-E=       -0.000000001731 Rises=F Damp=F
 DIIS: error= 6.59D-07 at cycle   8 NSaved=   8.
 NSaved= 8 IEnMin= 8 EnMin= -1199.64252966398     IErMin= 8 ErrMin= 6.59D-07
 ErrMax= 6.59D-07  0.00D+00 EMaxC= 1.00D-01 BMatC= 2.40D-10 BMatP= 1.51D-09
 IDIUse=1 WtCom= 1.00D+00 WtEn= 0.00D+00
 Coeff-Com: -0.508D-03 0.633D-02-0.903D-04-0.250D-01-0.262D-01 0.251D-01
 Coeff-Com:  0.314D+00 0.707D+00
 Coeff:     -0.508D-03 0.633D-02-0.903D-04-0.250D-01-0.262D-01 0.251D-01
 Coeff:      0.314D+00 0.707D+00
 Gap=     0.369 Goal=   None    Shift=    0.000
 RMSDP=1.42D-07 MaxDP=4.60D-06 DE=-1.73D-09 OVMax= 7.59D-06

 Cycle   9  Pass 1  IDiag  1:
 E= -1199.64252966424     Delta-E=       -0.000000000254 Rises=F Damp=F
 DIIS: error= 2.75D-07 at cycle   9 NSaved=   9.
 NSaved= 9 IEnMin= 9 EnMin= -1199.64252966424     IErMin= 9 ErrMin= 2.75D-07
 ErrMax= 2.75D-07  0.00D+00 EMaxC= 1.00D-01 BMatC= 2.46D-11 BMatP= 2.40D-10
 IDIUse=1 WtCom= 1.00D+00 WtEn= 0.00D+00
 Coeff-Com: -0.264D-03 0.160D-02 0.185D-02-0.136D-02-0.125D-01-0.367D-01
 Coeff-Com:  0.277D-01 0.268D+00 0.751D+00
 Coeff:     -0.264D-03 0.160D-02 0.185D-02-0.136D-02-0.125D-01-0.367D-01
 Coeff:      0.277D-01 0.268D+00 0.751D+00
 Gap=     0.369 Goal=   None    Shift=    0.000
 RMSDP=5.47D-08 MaxDP=2.56D-06 DE=-2.54D-10 OVMax= 3.25D-06

 Cycle  10  Pass 1  IDiag  1:
 E= -1199.64252966435     Delta-E=       -0.000000000117 Rises=F Damp=F
 DIIS: error= 8.82D-08 at cycle  10 NSaved=  10.
 NSaved=10 IEnMin=10 EnMin= -1199.64252966435     IErMin=10 ErrMin= 8.82D-08
 ErrMax= 8.82D-08  0.00D+00 EMaxC= 1.00D-01 BMatC= 2.26D-12 BMatP= 2.46D-11
 IDIUse=1 WtCom= 1.00D+00 WtEn= 0.00D+00
 Coeff-Com:  0.250D-04-0.649D-03 0.520D-03 0.350D-02 0.179D-02-0.115D-01
 Coeff-Com: -0.394D-01-0.458D-01 0.139D+00 0.952D+00
 Coeff:      0.250D-04-0.649D-03 0.520D-03 0.350D-02 0.179D-02-0.115D-01
 Coeff:     -0.394D-01-0.458D-01 0.139D+00 0.952D+00
 Gap=     0.369 Goal=   None    Shift=    0.000
 RMSDP=2.01D-08 MaxDP=6.22D-07 DE=-1.17D-10 OVMax= 1.56D-06

 Cycle  11  Pass 1  IDiag  1:
 E= -1199.64252966431     Delta-E=        0.000000000046 Rises=F Damp=F
 DIIS: error= 4.00D-08 at cycle  11 NSaved=  11.
 NSaved=11 IEnMin=10 EnMin= -1199.64252966435     IErMin=11 ErrMin= 4.00D-08
 ErrMax= 4.00D-08  0.00D+00 EMaxC= 1.00D-01 BMatC= 7.99D-13 BMatP= 2.26D-12
 IDIUse=1 WtCom= 1.00D+00 WtEn= 0.00D+00
 Coeff-Com:  0.476D-04-0.562D-03 0.780D-04 0.209D-02 0.243D-02-0.221D-02
 Coeff-Com: -0.243D-01-0.540D-01-0.163D-01 0.467D+00 0.626D+00
 Coeff:      0.476D-04-0.562D-03 0.780D-04 0.209D-02 0.243D-02-0.221D-02
 Coeff:     -0.243D-01-0.540D-01-0.163D-01 0.467D+00 0.626D+00
 Gap=     0.369 Goal=   None    Shift=    0.000
 RMSDP=7.76D-09 MaxDP=3.04D-07 DE= 4.59D-11 OVMax= 4.72D-07

 SCF Done:  E(RwB97XD) =  -1199.64252966     A.U. after   11 cycles
            NFock= 11  Conv=0.78D-08     -V/T= 2.0020
 KE= 1.197258131079D+03 PE=-4.638260080741D+03 EE= 1.345780603672D+03
 Leave Link  502 at Fri May 23 03:41:48 2025, MaxMem=  3758096384 cpu:              52.9 elap:              10.4
 (Enter /apps/easybuild-2022/easybuild/software/Compiler/NVHPC/22.11-CUDA-11.7.0/Gaussian/g16c01-CUDA-11.7.0/g16/l508.exe)
 QCSCF skips out because SCF is already converged.
 Leave Link  508 at Fri May 23 03:41:48 2025, MaxMem=  3758096384 cpu:               0.0 elap:               0.0
 (Enter /apps/easybuild-2022/easybuild/software/Compiler/NVHPC/22.11-CUDA-11.7.0/Gaussian/g16c01-CUDA-11.7.0/g16/l801.exe)
 DoSCS=F DFT=T ScalE2(SS,OS)=  1.000000  1.000000
 Range of M.O.s used for correlation:     1   257
 NBasis=   257 NAE=    49 NBE=    49 NFC=     0 NFV=     0
 NROrb=    257 NOA=    49 NOB=    49 NVA=   208 NVB=   208

 **** Warning!!: The largest alpha MO coefficient is  0.29683953D+02

 Leave Link  801 at Fri May 23 03:41:48 2025, MaxMem=  3758096384 cpu:               0.0 elap:               0.0
 (Enter /apps/easybuild-2022/easybuild/software/Compiler/NVHPC/22.11-CUDA-11.7.0/Gaussian/g16c01-CUDA-11.7.0/g16/l1101.exe)
 Leave Link 1101 at Fri May 23 03:41:48 2025, MaxMem=  3758096384 cpu:               0.0 elap:               0.0
 (Enter /apps/easybuild-2022/easybuild/software/Compiler/NVHPC/22.11-CUDA-11.7.0/Gaussian/g16c01-CUDA-11.7.0/g16/l1102.exe)
 Symmetrizing basis deriv contribution to polar:
 IMax=3 JMax=2 DiffMx= 0.00D+00
 Leave Link 1102 at Fri May 23 03:41:48 2025, MaxMem=  3758096384 cpu:               0.1 elap:               0.0
 (Enter /apps/easybuild-2022/easybuild/software/Compiler/NVHPC/22.11-CUDA-11.7.0/Gaussian/g16c01-CUDA-11.7.0/g16/l1110.exe)
 Leave Link 1110 at Fri May 23 03:41:48 2025, MaxMem=  3758096384 cpu:               0.0 elap:               0.0
 (Enter /apps/easybuild-2022/easybuild/software/Compiler/NVHPC/22.11-CUDA-11.7.0/Gaussian/g16c01-CUDA-11.7.0/g16/l1002.exe)
 Minotr:  Closed shell wavefunction.
 Leave Link 1002 at Fri May 23 03:41:48 2025, MaxMem=  3758096384 cpu:               0.0 elap:               0.0
 (Enter /apps/easybuild-2022/easybuild/software/Compiler/NVHPC/22.11-CUDA-11.7.0/Gaussian/g16c01-CUDA-11.7.0/g16/l701.exe)
 ... and contract with generalized density number  0.
 Compute integral first derivatives.
 R6Disp: Adding Grimme-D2 dispersion energy 1st derivatives to the gradient.
 Leave Link  701 at Fri May 23 03:41:48 2025, MaxMem=  3758096384 cpu:               0.3 elap:               0.1
 (Enter /apps/easybuild-2022/easybuild/software/Compiler/NVHPC/22.11-CUDA-11.7.0/Gaussian/g16c01-CUDA-11.7.0/g16/l702.exe)
 L702 exits ... SP integral derivatives will be done elsewhere.
 Leave Link  702 at Fri May 23 03:41:48 2025, MaxMem=  3758096384 cpu:               0.0 elap:               0.0
 (Enter /apps/easybuild-2022/easybuild/software/Compiler/NVHPC/22.11-CUDA-11.7.0/Gaussian/g16c01-CUDA-11.7.0/g16/l703.exe)
 Integral derivatives from FoFJK, PRISM(SPDF).
 Compute integral first derivatives, UseDBF=F ICtDFT=           0.
 Calling FoFJK, ICntrl=      2127 FMM=F ISym2X=0 I1Cent= 0 IOpClX= 0 NMat=1 NMatS=1 NMatT=0.
 FoFJK:  IHMeth= 1 ICntrl=    2127 DoSepK=T KAlg= 0 I1Cent=           0 FoldK=F
 IRaf=         1 NMat=       1 IRICut=       1 DoRegI=T DoRafI=F ISym2E= 0 IDoP0=0 IntGTp=1.
 FoFCou: FMM=F IPFlag=           0 FMFlag=      100000 FMFlg1=         800
         NFxFlg=           0 DoJE=F BraDBF=F KetDBF=F FulRan=T
         wScrn=  0.000000 ICntrl=      2527 IOpCl=  0 I1Cent=           0 NGrid=           0
         NMat0=    1 NMatS0=      1 NMatT0=    0 NMatD0=    1 NMtDS0=    0 NMtDT0=    0
 Symmetry not used in FoFCou.
 Leave Link  703 at Fri May 23 03:41:52 2025, MaxMem=  3758096384 cpu:              33.2 elap:               4.2
 (Enter /apps/easybuild-2022/easybuild/software/Compiler/NVHPC/22.11-CUDA-11.7.0/Gaussian/g16c01-CUDA-11.7.0/g16/l716.exe)
 Dipole        =-1.32542119D+00 2.28749879D-01-1.09829626D+00
 Polarizability= 0.00000000D+00 0.00000000D+00 0.00000000D+00
                 0.00000000D+00 0.00000000D+00 0.00000000D+00
 -------------------------------------------------------------------
 Center     Atomic                   Forces (Hartrees/Bohr)
 Number     Number              X              Y              Z
 -------------------------------------------------------------------
      1        6           0.003825873   -0.001353797    0.001531263
      2        6          -0.002561601    0.000804158   -0.000951282
      3        9          -0.000259358    0.000570719   -0.001664534
      4        9          -0.000178369    0.001345303   -0.000757498
      5       16          -0.001215167   -0.000198127    0.000295929
      6        8          -0.000204922   -0.000019143    0.000004679
      7        8          -0.000151443   -0.000011750    0.000024729
      8        8          -0.000190698   -0.000024886    0.000063474
      9        9          -0.002083754   -0.002502465    0.003392988
     10        9           0.001533314    0.000607928   -0.001071421
     11        9           0.001508944    0.000790857   -0.000874884
     12        1          -0.000022817   -0.000008798    0.000006556
 -------------------------------------------------------------------
 Cartesian Forces:  Max     0.003825873 RMS     0.001331996
 Leave Link  716 at Fri May 23 03:41:52 2025, MaxMem=  3758096384 cpu:               0.0 elap:               0.0
 (Enter /apps/easybuild-2022/easybuild/software/Compiler/NVHPC/22.11-CUDA-11.7.0/Gaussian/g16c01-CUDA-11.7.0/g16/l123.exe)
 IRC-IRC-IRC-IRC-IRC-IRC-IRC-IRC-IRC-IRC-IRC-IRC-IRC-IRC-IRC-IRC-IRC-IRC
 Pt  2 Step number   1 out of a maximum of  20
 Using modified Bulirsch-Stoer corrector integration.
   Using distance weighted interpolants to fit PES.
 PreDWI: IReCr0= 2 IReCr1= 1 IReCr2= 1 IReCr3= 1
 Modified Bulirsch-Stoer Extrapolation Cycles:
    EPS =    0.000010000000000
    Cycle     1 NS=    48
      PEZero:  N= 2 I= 1 D=  3.97D-04 Err=  3.02D-06
    Cycle     2 NS=    64 Truncation Error =  0.000003020
 BS completed in    2 cycles and     112 integration steps.
 Maximum DWI energy   std dev =  0.000000129 at pt    46
 Maximum DWI gradient std dev =  0.004821677 at pt    36
 SUMMARY OF CORRECTOR INTEGRATION:
   Predictor End Point Energy = -1199.642530
   Old End Point Energy       = -1199.642530
   Corrected End Point Energy = -1199.642530
   Predictor End-Start Dist.  =     0.076275
   Old End-Start Dist.        =     0.076275
   New End-Start Dist.        =     0.076274
   New End-Old End Dist.      =     0.000372
 CORRECTOR INTEGRATION CONVERGENCE:
   Recorrection delta-x convergence threshold:    0.010000
   Delta-x Convergence Met
 Point Number:   2          Path Number:   1
                    CURRENT STRUCTURE
                Cartesian Coordinates (Ang):                
 ---------------------------------------------------------------------
 Center     Atomic                     Coordinates (Angstroms)
 Number     Number                        X           Y           Z
 ---------------------------------------------------------------------
      1          6                   -2.030319   -0.158516    0.341366
      2          6                   -0.264015    0.259164   -0.257838
      3          9                   -0.507343   -0.150027   -1.506524
      4          9                   -0.398721    1.558347   -0.054463
      5         16                    1.633683   -0.011264   -0.123728
      6          8                    2.105971    0.621873    1.067689
      7          8                    1.926285   -1.375570   -0.473540
      8          8                    2.087949    0.932618   -1.356704
      9          9                   -0.430236   -0.763558    1.054404
     10          9                   -2.591856    0.393150    1.355750
     11          9                   -2.639839   -1.254266    0.062656
     12          1                    2.172026    0.397829   -2.155808
 ---------------------------------------------------------------------
   CHANGE IN THE REACTION COORDINATE =    0.07627
   NET REACTION COORDINATE UP TO THIS POINT =    0.15257
  # OF POINTS ALONG THE PATH =   2
  # OF STEPS =   1

 Calculating another point on the path.
 Point Number  3 in REVERSE path direction.
 Using LQA Reaction Path Following.
   LQA: T_Est iteration completed in    3 iterations.
 IRC-IRC-IRC-IRC-IRC-IRC-IRC-IRC-IRC-IRC-IRC-IRC-IRC-IRC-IRC-IRC-IRC-IRC
 Leave Link  123 at Fri May 23 03:41:53 2025, MaxMem=  3758096384 cpu:               0.1 elap:               0.0
 (Enter /apps/easybuild-2022/easybuild/software/Compiler/NVHPC/22.11-CUDA-11.7.0/Gaussian/g16c01-CUDA-11.7.0/g16/l202.exe)
                          Input orientation:                          
 ---------------------------------------------------------------------
 Center     Atomic      Atomic             Coordinates (Angstroms)
 Number     Number       Type             X           Y           Z
 ---------------------------------------------------------------------
      1          6           0       -2.024012   -0.160744    0.343880
      2          6           0       -0.268240    0.260483   -0.259396
      3          9           0       -0.507613   -0.149435   -1.508272
      4          9           0       -0.398906    1.559761   -0.055254
      5         16           0        1.632927   -0.011386   -0.123544
      6          8           0        2.105720    0.621851    1.067698
      7          8           0        1.926101   -1.375588   -0.473509
      8          8           0        2.087717    0.932589   -1.356629
      9          9           0       -0.432413   -0.766171    1.057946
     10          9           0       -2.590257    0.393782    1.354639
     11          9           0       -2.638264   -1.253446    0.061746
     12          1           0        2.171580    0.397666   -2.155669
 ---------------------------------------------------------------------
                    Distance matrix (angstroms):
                    1          2          3          4          5
     1  C    0.000000
     2  C    1.903709   0.000000
     3  F    2.393755   1.336048   0.000000
     4  F    2.400086   1.321692   2.245981   0.000000
     5  S    3.689715   1.925307   2.553125   2.569341   0.000000
     6  O    4.265097   2.743620   3.749669   2.900663   1.429538
     7  O    4.212762   2.745488   2.914987   3.767873   1.438567
     8  O    4.581857   2.684433   2.815938   2.875798   1.618153
     9  F    1.846515   1.678201   2.640358   2.578816   2.496246
    10  F    1.284432   2.831014   3.581725   2.854702   4.492713
    11  F    1.284875   2.830570   2.867660   3.597576   4.451980
    12  H    4.915543   3.093121   2.810075   3.517046   2.141729
                    6          7          8          9         10
     6  O    0.000000
     7  O    2.529297   0.000000
     8  O    2.444226   2.476631   0.000000
     9  F    2.892891   2.877383   3.881624   0.000000
    10  F    4.710261   5.183656   5.433666   2.467754   0.000000
    11  F    5.199430   4.597266   5.396798   2.468934   2.094574
    12  H    3.231825   2.456492   0.965216   4.296815   5.915858
                   11         12
    11  F    0.000000
    12  H    5.547766   0.000000
 Symmetry turned off by external request.
 Stoichiometry    C2HF5O3S
 Rotational constants (GHZ):           1.8631440           0.6564046           0.6463154
 Leave Link  202 at Fri May 23 03:41:53 2025, MaxMem=  3758096384 cpu:               0.0 elap:               0.0
 (Enter /apps/easybuild-2022/easybuild/software/Compiler/NVHPC/22.11-CUDA-11.7.0/Gaussian/g16c01-CUDA-11.7.0/g16/l301.exe)
 Standard basis: 6-311++G(d,p) (5D, 7F)
 Ernie: Thresh=  0.10000D-02 Tol=  0.10000D-05 Strict=F.
   257 basis functions,   419 primitive gaussians,   268 cartesian basis functions
    49 alpha electrons       49 beta electrons
       nuclear repulsion energy       895.5049769998 Hartrees.
 IExCor= 4639 DFT=T Ex+Corr=wB97XD ExCW=0 ScaHFX=  1.000000
 ScaDFX=  1.000000  1.000000  1.000000  1.000000 ScalE2=  1.000000  1.000000
 IRadAn=      5 IRanWt=     -1 IRanGd=            0 ICorTp=0 IEmpDi=121
 HFx  wShort=  0.000000 wLong=  0.200000 cFull=  0.222036 cShort=  0.000000 cLong=  0.777964
 DFx  wShort=  0.000000 wLong=  0.200000 cFull=  0.000000 cShort=  0.000000 cLong=  1.000000
 NAtoms=   12 NActive=   12 NUniq=   12 SFac= 1.00D+00 NAtFMM=   60 NAOKFM=F Big=F
 Integral buffers will be    131072 words long.
 Raffenetti 2 integral format.
 Two-electron integral symmetry is turned off.
 R6Disp:  Grimme-D2 Dispersion energy=       -0.0052231487 Hartrees.
 Nuclear repulsion after empirical dispersion term =      895.4997538511 Hartrees.
 Leave Link  301 at Fri May 23 03:41:53 2025, MaxMem=  3758096384 cpu:               0.0 elap:               0.0
 (Enter /apps/easybuild-2022/easybuild/software/Compiler/NVHPC/22.11-CUDA-11.7.0/Gaussian/g16c01-CUDA-11.7.0/g16/l302.exe)
 NPDir=0 NMtPBC=     1 NCelOv=     1 NCel=       1 NClECP=     1 NCelD=      1
         NCelK=      1 NCelE2=     1 NClLst=     1 CellRange=     0.0.
 One-electron integrals computed using PRISM.
 NBasis=   257 RedAO= T EigKep=  9.91D-05  NBF=   257
 NBsUse=   257 1.00D-06 EigRej= -1.00D+00 NBFU=   257
 Precomputing XC quadrature grid using
 IXCGrd= 4 IRadAn=           5 IRanWt=          -1 IRanGd=           0 AccXCQ= 0.00D+00.
 Generated NRdTot=       0 NPtTot=           0 NUsed=           0 NTot=          32
 NSgBfM=   268   268   268   268   268 MxSgAt=    12 MxSgA2=    12.
 Leave Link  302 at Fri May 23 03:41:53 2025, MaxMem=  3758096384 cpu:               0.5 elap:               0.1
 (Enter /apps/easybuild-2022/easybuild/software/Compiler/NVHPC/22.11-CUDA-11.7.0/Gaussian/g16c01-CUDA-11.7.0/g16/l303.exe)
 DipDrv:  MaxL=1.
 Leave Link  303 at Fri May 23 03:41:53 2025, MaxMem=  3758096384 cpu:               0.1 elap:               0.0
 (Enter /apps/easybuild-2022/easybuild/software/Compiler/NVHPC/22.11-CUDA-11.7.0/Gaussian/g16c01-CUDA-11.7.0/g16/l401.exe)
 Initial guess from the checkpoint file:  "2003846667223680600001_r12_insertion_R_9_1_2_IRC_R.chk"
 B after Tr=    -0.000009   -0.000010    0.000012
         Rot=    1.000000    0.000000   -0.000004   -0.000002 Ang=   0.00 deg.
 Guess basis will be translated and rotated to current coordinates.
 JPrj=2 DoOrth=T DoCkMO=T.
 Generating alternative initial guess.
 ExpMin= 3.60D-02 ExpMax= 9.34D+04 ExpMxC= 3.17D+03 IAcc=3 IRadAn=         5 AccDes= 0.00D+00
 Harris functional with IExCor= 4639 and IRadAn=       5 diagonalized for initial guess.
 HarFok:  IExCor= 4639 AccDes= 0.00D+00 IRadAn=         5 IDoV= 1 UseB2=F ITyADJ=14
 ICtDFT=  3500011 ScaDFX=  1.000000  1.000000  1.000000  1.000000
 FoFCou: FMM=F IPFlag=           0 FMFlag=      100000 FMFlg1=           0
         NFxFlg=           0 DoJE=T BraDBF=F KetDBF=T FulRan=T
         wScrn=  0.000000 ICntrl=       500 IOpCl=  0 I1Cent=   200000004 NGrid=           0
         NMat0=    1 NMatS0=      1 NMatT0=    0 NMatD0=    1 NMtDS0=    0 NMtDT0=    0
 Symmetry not used in FoFCou.
 Harris En= -1166.99727091108    
 Leave Link  401 at Fri May 23 03:41:53 2025, MaxMem=  3758096384 cpu:               2.6 elap:               0.4
 (Enter /apps/easybuild-2022/easybuild/software/Compiler/NVHPC/22.11-CUDA-11.7.0/Gaussian/g16c01-CUDA-11.7.0/g16/l502.exe)
 Keep R1 ints in memory in canonical form, NReq=1117474609.
 FoFCou: FMM=F IPFlag=           0 FMFlag=           0 FMFlg1=           0
         NFxFlg=           0 DoJE=F BraDBF=F KetDBF=F FulRan=T
         wScrn=  0.000000 ICntrl=       600 IOpCl=  0 I1Cent=           0 NGrid=           0
         NMat0=    1 NMatS0=  33153 NMatT0=    0 NMatD0=    1 NMtDS0=    0 NMtDT0=    0
 Symmetry not used in FoFCou.
 Two-electron integral symmetry not used.
 Closed shell SCF:
 Using DIIS extrapolation, IDIIS=  1040.
 NGot=  3758096384 LenX=  2658793876 LenY=  2658721611
 Requested convergence on RMS density matrix=1.00D-08 within  32 cycles.
 Requested convergence on MAX density matrix=1.00D-06.
 Requested convergence on             energy=1.00D-06.
 No special actions if energy rises.

 Cycle   1  Pass 1  IDiag  1:
 E= -1199.64259433228    
 DIIS: error= 2.95D-04 at cycle   1 NSaved=   1.
 NSaved= 1 IEnMin= 1 EnMin= -1199.64259433228     IErMin= 1 ErrMin= 2.95D-04
 ErrMax= 2.95D-04  0.00D+00 EMaxC= 1.00D-01 BMatC= 6.39D-05 BMatP= 6.39D-05
 IDIUse=3 WtCom= 9.97D-01 WtEn= 2.95D-03
 Coeff-Com:  0.100D+01
 Coeff-En:   0.100D+01
 Coeff:      0.100D+01
 Gap=     0.734 Goal=   None    Shift=    0.000
 RMSDP=1.07D-04 MaxDP=6.27D-03              OVMax= 4.15D-03

 Cycle   2  Pass 1  IDiag  1:
 E= -1199.64270952557     Delta-E=       -0.000115193298 Rises=F Damp=F
 DIIS: error= 1.26D-04 at cycle   2 NSaved=   2.
 NSaved= 2 IEnMin= 2 EnMin= -1199.64270952557     IErMin= 2 ErrMin= 1.26D-04
 ErrMax= 1.26D-04  0.00D+00 EMaxC= 1.00D-01 BMatC= 4.58D-06 BMatP= 6.39D-05
 IDIUse=3 WtCom= 9.99D-01 WtEn= 1.26D-03
 Coeff-Com: -0.110D+00 0.111D+01
 Coeff-En:   0.000D+00 0.100D+01
 Coeff:     -0.110D+00 0.111D+01
 Gap=     0.369 Goal=   None    Shift=    0.000
 RMSDP=2.90D-05 MaxDP=1.52D-03 DE=-1.15D-04 OVMax= 2.50D-03

 Cycle   3  Pass 1  IDiag  1:
 E= -1199.64272069549     Delta-E=       -0.000011169911 Rises=F Damp=F
 DIIS: error= 1.04D-04 at cycle   3 NSaved=   3.
 NSaved= 3 IEnMin= 3 EnMin= -1199.64272069549     IErMin= 3 ErrMin= 1.04D-04
 ErrMax= 1.04D-04  0.00D+00 EMaxC= 1.00D-01 BMatC= 4.56D-06 BMatP= 4.58D-06
 IDIUse=3 WtCom= 9.99D-01 WtEn= 1.04D-03
 Coeff-Com: -0.119D+00 0.610D+00 0.509D+00
 Coeff-En:   0.000D+00 0.000D+00 0.100D+01
 Coeff:     -0.119D+00 0.609D+00 0.510D+00
 Gap=     0.369 Goal=   None    Shift=    0.000
 RMSDP=9.36D-06 MaxDP=3.29D-04 DE=-1.12D-05 OVMax= 4.04D-04

 Cycle   4  Pass 1  IDiag  1:
 E= -1199.64272411424     Delta-E=       -0.000003418758 Rises=F Damp=F
 DIIS: error= 4.11D-05 at cycle   4 NSaved=   4.
 NSaved= 4 IEnMin= 4 EnMin= -1199.64272411424     IErMin= 4 ErrMin= 4.11D-05
 ErrMax= 4.11D-05  0.00D+00 EMaxC= 1.00D-01 BMatC= 3.18D-07 BMatP= 4.56D-06
 IDIUse=1 WtCom= 1.00D+00 WtEn= 0.00D+00
 Coeff-Com: -0.227D-03-0.114D+00 0.137D+00 0.977D+00
 Coeff:     -0.227D-03-0.114D+00 0.137D+00 0.977D+00
 Gap=     0.369 Goal=   None    Shift=    0.000
 RMSDP=7.96D-06 MaxDP=4.93D-04 DE=-3.42D-06 OVMax= 7.22D-04

 Cycle   5  Pass 1  IDiag  1:
 E= -1199.64272490213     Delta-E=       -0.000000787891 Rises=F Damp=F
 DIIS: error= 1.64D-05 at cycle   5 NSaved=   5.
 NSaved= 5 IEnMin= 5 EnMin= -1199.64272490213     IErMin= 5 ErrMin= 1.64D-05
 ErrMax= 1.64D-05  0.00D+00 EMaxC= 1.00D-01 BMatC= 9.22D-08 BMatP= 3.18D-07
 IDIUse=1 WtCom= 1.00D+00 WtEn= 0.00D+00
 Coeff-Com:  0.132D-01-0.128D+00-0.112D-01 0.465D+00 0.662D+00
 Coeff:      0.132D-01-0.128D+00-0.112D-01 0.465D+00 0.662D+00
 Gap=     0.369 Goal=   None    Shift=    0.000
 RMSDP=2.61D-06 MaxDP=1.45D-04 DE=-7.88D-07 OVMax= 1.73D-04

 Cycle   6  Pass 1  IDiag  1:
 E= -1199.64272502290     Delta-E=       -0.000000120762 Rises=F Damp=F
 DIIS: error= 4.56D-06 at cycle   6 NSaved=   6.
 NSaved= 6 IEnMin= 6 EnMin= -1199.64272502290     IErMin= 6 ErrMin= 4.56D-06
 ErrMax= 4.56D-06  0.00D+00 EMaxC= 1.00D-01 BMatC= 1.12D-08 BMatP= 9.22D-08
 IDIUse=1 WtCom= 1.00D+00 WtEn= 0.00D+00
 Coeff-Com:  0.488D-02-0.215D-01-0.432D-01-0.479D-01 0.244D+00 0.864D+00
 Coeff:      0.488D-02-0.215D-01-0.432D-01-0.479D-01 0.244D+00 0.864D+00
 Gap=     0.369 Goal=   None    Shift=    0.000
 RMSDP=1.57D-06 MaxDP=1.01D-04 DE=-1.21D-07 OVMax= 1.18D-04

 Cycle   7  Pass 1  IDiag  1:
 E= -1199.64272504469     Delta-E=       -0.000000021792 Rises=F Damp=F
 DIIS: error= 1.76D-06 at cycle   7 NSaved=   7.
 NSaved= 7 IEnMin= 7 EnMin= -1199.64272504469     IErMin= 7 ErrMin= 1.76D-06
 ErrMax= 1.76D-06  0.00D+00 EMaxC= 1.00D-01 BMatC= 1.57D-09 BMatP= 1.12D-08
 IDIUse=1 WtCom= 1.00D+00 WtEn= 0.00D+00
 Coeff-Com:  0.476D-03 0.660D-02-0.159D-01-0.712D-01 0.261D-01 0.361D+00
 Coeff-Com:  0.693D+00
 Coeff:      0.476D-03 0.660D-02-0.159D-01-0.712D-01 0.261D-01 0.361D+00
 Coeff:      0.693D+00
 Gap=     0.369 Goal=   None    Shift=    0.000
 RMSDP=4.60D-07 MaxDP=1.75D-05 DE=-2.18D-08 OVMax= 2.28D-05

 Cycle   8  Pass 1  IDiag  1:
 E= -1199.64272504650     Delta-E=       -0.000000001807 Rises=F Damp=F
 DIIS: error= 6.47D-07 at cycle   8 NSaved=   8.
 NSaved= 8 IEnMin= 8 EnMin= -1199.64272504650     IErMin= 8 ErrMin= 6.47D-07
 ErrMax= 6.47D-07  0.00D+00 EMaxC= 1.00D-01 BMatC= 2.50D-10 BMatP= 1.57D-09
 IDIUse=1 WtCom= 1.00D+00 WtEn= 0.00D+00
 Coeff-Com: -0.510D-03 0.639D-02-0.198D-03-0.249D-01-0.263D-01 0.248D-01
 Coeff-Com:  0.312D+00 0.708D+00
 Coeff:     -0.510D-03 0.639D-02-0.198D-03-0.249D-01-0.263D-01 0.248D-01
 Coeff:      0.312D+00 0.708D+00
 Gap=     0.369 Goal=   None    Shift=    0.000
 RMSDP=1.47D-07 MaxDP=4.81D-06 DE=-1.81D-09 OVMax= 7.88D-06

 Cycle   9  Pass 1  IDiag  1:
 E= -1199.64272504674     Delta-E=       -0.000000000241 Rises=F Damp=F
 DIIS: error= 2.84D-07 at cycle   9 NSaved=   9.
 NSaved= 9 IEnMin= 9 EnMin= -1199.64272504674     IErMin= 9 ErrMin= 2.84D-07
 ErrMax= 2.84D-07  0.00D+00 EMaxC= 1.00D-01 BMatC= 2.66D-11 BMatP= 2.50D-10
 IDIUse=1 WtCom= 1.00D+00 WtEn= 0.00D+00
 Coeff-Com: -0.271D-03 0.166D-02 0.185D-02-0.147D-02-0.127D-01-0.371D-01
 Coeff-Com:  0.288D-01 0.274D+00 0.745D+00
 Coeff:     -0.271D-03 0.166D-02 0.185D-02-0.147D-02-0.127D-01-0.371D-01
 Coeff:      0.288D-01 0.274D+00 0.745D+00
 Gap=     0.369 Goal=   None    Shift=    0.000
 RMSDP=5.62D-08 MaxDP=2.60D-06 DE=-2.41D-10 OVMax= 3.47D-06

 Cycle  10  Pass 1  IDiag  1:
 E= -1199.64272504685     Delta-E=       -0.000000000110 Rises=F Damp=F
 DIIS: error= 8.61D-08 at cycle  10 NSaved=  10.
 NSaved=10 IEnMin=10 EnMin= -1199.64272504685     IErMin=10 ErrMin= 8.61D-08
 ErrMax= 8.61D-08  0.00D+00 EMaxC= 1.00D-01 BMatC= 2.53D-12 BMatP= 2.66D-11
 IDIUse=1 WtCom= 1.00D+00 WtEn= 0.00D+00
 Coeff-Com:  0.202D-04-0.629D-03 0.576D-03 0.348D-02 0.170D-02-0.121D-01
 Coeff-Com: -0.393D-01-0.419D-01 0.149D+00 0.939D+00
 Coeff:      0.202D-04-0.629D-03 0.576D-03 0.348D-02 0.170D-02-0.121D-01
 Coeff:     -0.393D-01-0.419D-01 0.149D+00 0.939D+00
 Gap=     0.369 Goal=   None    Shift=    0.000
 RMSDP=2.02D-08 MaxDP=6.08D-07 DE=-1.10D-10 OVMax= 1.60D-06

 Cycle  11  Pass 1  IDiag  1:
 E= -1199.64272504680     Delta-E=        0.000000000044 Rises=F Damp=F
 DIIS: error= 4.07D-08 at cycle  11 NSaved=  11.
 NSaved=11 IEnMin=10 EnMin= -1199.64272504685     IErMin=11 ErrMin= 4.07D-08
 ErrMax= 4.07D-08  0.00D+00 EMaxC= 1.00D-01 BMatC= 8.49D-13 BMatP= 2.53D-12
 IDIUse=1 WtCom= 1.00D+00 WtEn= 0.00D+00
 Coeff-Com:  0.480D-04-0.572D-03 0.934D-04 0.210D-02 0.249D-02-0.228D-02
 Coeff-Com: -0.246D-01-0.541D-01-0.144D-01 0.456D+00 0.635D+00
 Coeff:      0.480D-04-0.572D-03 0.934D-04 0.210D-02 0.249D-02-0.228D-02
 Coeff:     -0.246D-01-0.541D-01-0.144D-01 0.456D+00 0.635D+00
 Gap=     0.369 Goal=   None    Shift=    0.000
 RMSDP=8.03D-09 MaxDP=2.99D-07 DE= 4.41D-11 OVMax= 5.16D-07

 SCF Done:  E(RwB97XD) =  -1199.64272505     A.U. after   11 cycles
            NFock= 11  Conv=0.80D-08     -V/T= 2.0020
 KE= 1.197250673973D+03 PE=-4.638097911116D+03 EE= 1.345704758245D+03
 Leave Link  502 at Fri May 23 03:42:03 2025, MaxMem=  3758096384 cpu:              52.7 elap:              10.3
 (Enter /apps/easybuild-2022/easybuild/software/Compiler/NVHPC/22.11-CUDA-11.7.0/Gaussian/g16c01-CUDA-11.7.0/g16/l508.exe)
 QCSCF skips out because SCF is already converged.
 Leave Link  508 at Fri May 23 03:42:03 2025, MaxMem=  3758096384 cpu:               0.0 elap:               0.0
 (Enter /apps/easybuild-2022/easybuild/software/Compiler/NVHPC/22.11-CUDA-11.7.0/Gaussian/g16c01-CUDA-11.7.0/g16/l801.exe)
 DoSCS=F DFT=T ScalE2(SS,OS)=  1.000000  1.000000
 Range of M.O.s used for correlation:     1   257
 NBasis=   257 NAE=    49 NBE=    49 NFC=     0 NFV=     0
 NROrb=    257 NOA=    49 NOB=    49 NVA=   208 NVB=   208

 **** Warning!!: The largest alpha MO coefficient is  0.29713334D+02

 Leave Link  801 at Fri May 23 03:42:04 2025, MaxMem=  3758096384 cpu:               0.1 elap:               0.0
 (Enter /apps/easybuild-2022/easybuild/software/Compiler/NVHPC/22.11-CUDA-11.7.0/Gaussian/g16c01-CUDA-11.7.0/g16/l1101.exe)
 Leave Link 1101 at Fri May 23 03:42:04 2025, MaxMem=  3758096384 cpu:               0.0 elap:               0.0
 (Enter /apps/easybuild-2022/easybuild/software/Compiler/NVHPC/22.11-CUDA-11.7.0/Gaussian/g16c01-CUDA-11.7.0/g16/l1102.exe)
 Symmetrizing basis deriv contribution to polar:
 IMax=3 JMax=2 DiffMx= 0.00D+00
 Leave Link 1102 at Fri May 23 03:42:04 2025, MaxMem=  3758096384 cpu:               0.1 elap:               0.0
 (Enter /apps/easybuild-2022/easybuild/software/Compiler/NVHPC/22.11-CUDA-11.7.0/Gaussian/g16c01-CUDA-11.7.0/g16/l1110.exe)
 Leave Link 1110 at Fri May 23 03:42:04 2025, MaxMem=  3758096384 cpu:               0.0 elap:               0.0
 (Enter /apps/easybuild-2022/easybuild/software/Compiler/NVHPC/22.11-CUDA-11.7.0/Gaussian/g16c01-CUDA-11.7.0/g16/l1002.exe)
 Minotr:  Closed shell wavefunction.
 Leave Link 1002 at Fri May 23 03:42:04 2025, MaxMem=  3758096384 cpu:               0.0 elap:               0.0
 (Enter /apps/easybuild-2022/easybuild/software/Compiler/NVHPC/22.11-CUDA-11.7.0/Gaussian/g16c01-CUDA-11.7.0/g16/l701.exe)
 ... and contract with generalized density number  0.
 Compute integral first derivatives.
 R6Disp: Adding Grimme-D2 dispersion energy 1st derivatives to the gradient.
 Leave Link  701 at Fri May 23 03:42:04 2025, MaxMem=  3758096384 cpu:               0.3 elap:               0.1
 (Enter /apps/easybuild-2022/easybuild/software/Compiler/NVHPC/22.11-CUDA-11.7.0/Gaussian/g16c01-CUDA-11.7.0/g16/l702.exe)
 L702 exits ... SP integral derivatives will be done elsewhere.
 Leave Link  702 at Fri May 23 03:42:04 2025, MaxMem=  3758096384 cpu:               0.0 elap:               0.0
 (Enter /apps/easybuild-2022/easybuild/software/Compiler/NVHPC/22.11-CUDA-11.7.0/Gaussian/g16c01-CUDA-11.7.0/g16/l703.exe)
 Integral derivatives from FoFJK, PRISM(SPDF).
 Compute integral first derivatives, UseDBF=F ICtDFT=           0.
 Calling FoFJK, ICntrl=      2127 FMM=F ISym2X=0 I1Cent= 0 IOpClX= 0 NMat=1 NMatS=1 NMatT=0.
 FoFJK:  IHMeth= 1 ICntrl=    2127 DoSepK=T KAlg= 0 I1Cent=           0 FoldK=F
 IRaf=         1 NMat=       1 IRICut=       1 DoRegI=T DoRafI=F ISym2E= 0 IDoP0=0 IntGTp=1.
 FoFCou: FMM=F IPFlag=           0 FMFlag=      100000 FMFlg1=         800
         NFxFlg=           0 DoJE=F BraDBF=F KetDBF=F FulRan=T
         wScrn=  0.000000 ICntrl=      2527 IOpCl=  0 I1Cent=           0 NGrid=           0
         NMat0=    1 NMatS0=      1 NMatT0=    0 NMatD0=    1 NMtDS0=    0 NMtDT0=    0
 Symmetry not used in FoFCou.
 Leave Link  703 at Fri May 23 03:42:08 2025, MaxMem=  3758096384 cpu:              34.1 elap:               4.4
 (Enter /apps/easybuild-2022/easybuild/software/Compiler/NVHPC/22.11-CUDA-11.7.0/Gaussian/g16c01-CUDA-11.7.0/g16/l716.exe)
 Dipole        =-1.33536318D+00 2.31958699D-01-1.10164361D+00
 Polarizability= 0.00000000D+00 0.00000000D+00 0.00000000D+00
                 0.00000000D+00 0.00000000D+00 0.00000000D+00
 -------------------------------------------------------------------
 Center     Atomic                   Forces (Hartrees/Bohr)
 Number     Number              X              Y              Z
 -------------------------------------------------------------------
      1        6           0.005812248   -0.002068353    0.002342058
      2        6          -0.003855462    0.001213376   -0.001438232
      3        9          -0.000390529    0.000860688   -0.002515898
      4        9          -0.000269179    0.002033614   -0.001147766
      5       16          -0.001813254   -0.000294868    0.000442991
      6        8          -0.000307540   -0.000026355    0.000008570
      7        8          -0.000225274   -0.000019961    0.000038694
      8        8          -0.000286275   -0.000037179    0.000095180
      9        9          -0.003240691   -0.003747424    0.005087102
     10        9           0.002322307    0.000911634   -0.001609602
     11        9           0.002288454    0.001187526   -0.001312858
     12        1          -0.000034804   -0.000012698    0.000009761
 -------------------------------------------------------------------
 Cartesian Forces:  Max     0.005812248 RMS     0.002014682
 Leave Link  716 at Fri May 23 03:42:08 2025, MaxMem=  3758096384 cpu:               0.0 elap:               0.0
 (Enter /apps/easybuild-2022/easybuild/software/Compiler/NVHPC/22.11-CUDA-11.7.0/Gaussian/g16c01-CUDA-11.7.0/g16/l123.exe)
 IRC-IRC-IRC-IRC-IRC-IRC-IRC-IRC-IRC-IRC-IRC-IRC-IRC-IRC-IRC-IRC-IRC-IRC
 Pt  3 Step number   1 out of a maximum of  20
 Using modified Bulirsch-Stoer corrector integration.
   Using distance weighted interpolants to fit PES.
 PreDWI: IReCr0= 2 IReCr1= 1 IReCr2= 1 IReCr3= 1
 Modified Bulirsch-Stoer Extrapolation Cycles:
    EPS =    0.000010000000000
    Cycle     1 NS=    48
      PEZero:  N= 2 I= 1 D=  3.97D-04 Err=  3.66D-06
    Cycle     2 NS=    64 Truncation Error =  0.000003659
 BS completed in    2 cycles and     112 integration steps.
 Maximum DWI energy   std dev =  0.000000086 at pt    34
 Maximum DWI gradient std dev =  0.003055697 at pt    28
 SUMMARY OF CORRECTOR INTEGRATION:
   Predictor End Point Energy = -1199.642725
   Old End Point Energy       = -1199.642725
   Corrected End Point Energy = -1199.642725
   Predictor End-Start Dist.  =     0.076279
   Old End-Start Dist.        =     0.076279
   New End-Start Dist.        =     0.076279
   New End-Old End Dist.      =     0.000261
 CORRECTOR INTEGRATION CONVERGENCE:
   Recorrection delta-x convergence threshold:    0.010000
   Delta-x Convergence Met
 Point Number:   3          Path Number:   1
                    CURRENT STRUCTURE
                Cartesian Coordinates (Ang):                
 ---------------------------------------------------------------------
 Center     Atomic                     Coordinates (Angstroms)
 Number     Number                        X           Y           Z
 ---------------------------------------------------------------------
      1          6                   -2.024001   -0.160753    0.343893
      2          6                   -0.268233    0.260484   -0.259399
      3          9                   -0.507613   -0.149435   -1.508267
      4          9                   -0.398906    1.559756   -0.055254
      5         16                    1.632932   -0.011386   -0.123545
      6          8                    2.105720    0.621851    1.067697
      7          8                    1.926101   -1.375588   -0.473509
      8          8                    2.087716    0.932588   -1.356629
      9          9                   -0.432431   -0.766160    1.057933
     10          9                   -2.590257    0.393781    1.354641
     11          9                   -2.638264   -1.253447    0.061748
     12          1                    2.171577    0.397667   -2.155671
 ---------------------------------------------------------------------
   CHANGE IN THE REACTION COORDINATE =    0.07628
   NET REACTION COORDINATE UP TO THIS POINT =    0.22885
  # OF POINTS ALONG THE PATH =   3
  # OF STEPS =   1

 Calculating another point on the path.
 Point Number  4 in REVERSE path direction.
 Using LQA Reaction Path Following.
   LQA: T_Est iteration completed in    3 iterations.
 IRC-IRC-IRC-IRC-IRC-IRC-IRC-IRC-IRC-IRC-IRC-IRC-IRC-IRC-IRC-IRC-IRC-IRC
 Leave Link  123 at Fri May 23 03:42:08 2025, MaxMem=  3758096384 cpu:               0.1 elap:               0.0
 (Enter /apps/easybuild-2022/easybuild/software/Compiler/NVHPC/22.11-CUDA-11.7.0/Gaussian/g16c01-CUDA-11.7.0/g16/l202.exe)
                          Input orientation:                          
 ---------------------------------------------------------------------
 Center     Atomic      Atomic             Coordinates (Angstroms)
 Number     Number       Type             X           Y           Z
 ---------------------------------------------------------------------
      1          6           0       -2.017661   -0.163005    0.346441
      2          6           0       -0.272438    0.261808   -0.260967
      3          9           0       -0.507880   -0.148844   -1.510001
      4          9           0       -0.399089    1.561158   -0.056044
      5         16           0        1.632192   -0.011506   -0.123364
      6          8           0        2.105470    0.621830    1.067706
      7          8           0        1.925918   -1.375606   -0.473477
      8          8           0        2.087483    0.932558   -1.356551
      9          9           0       -0.434674   -0.768737    1.061432
     10          9           0       -2.588658    0.394407    1.353538
     11          9           0       -2.636688   -1.252634    0.060847
     12          1           0        2.171124    0.397510   -2.155537
 ---------------------------------------------------------------------
                    Distance matrix (angstroms):
                    1          2          3          4          5
     1  C    0.000000
     2  C    1.896105   0.000000
     3  F    2.392910   1.335722   0.000000
     4  F    2.398855   1.321493   2.247206   0.000000
     5  S    3.683083   1.929055   2.553729   2.569807   0.000000
     6  O    4.258685   2.747624   3.750748   2.901374   1.429599
     7  O    4.206481   2.749374   2.915939   3.768885   1.438618
     8  O    4.577407   2.686901   2.815828   2.875674   1.618425
     9  F    1.839557   1.684364   2.646109   2.584266   2.499815
    10  F    1.284909   2.826497   3.581148   2.853496   4.490165
    11  F    1.285321   2.826089   2.866660   3.596935   4.449458
[...]
 NSaved= 5 IEnMin= 5 EnMin= -1199.80010311043     IErMin= 5 ErrMin= 4.28D-06
 ErrMax= 4.28D-06  0.00D+00 EMaxC= 1.00D-01 BMatC= 5.24D-09 BMatP= 3.02D-08
 IDIUse=1 WtCom= 1.00D+00 WtEn= 0.00D+00
 Coeff-Com:  0.215D-02-0.405D-01 0.280D-01 0.372D+00 0.639D+00
 Coeff:      0.215D-02-0.405D-01 0.280D-01 0.372D+00 0.639D+00
 Gap=     0.431 Goal=   None    Shift=    0.000
 RMSDP=5.65D-07 MaxDP=2.82D-05 DE=-2.45D-08 OVMax= 2.07D-05

 Cycle   6  Pass 1  IDiag  1:
 E= -1199.80010311442     Delta-E=       -0.000000003990 Rises=F Damp=F
 DIIS: error= 1.09D-06 at cycle   6 NSaved=   6.
 NSaved= 6 IEnMin= 6 EnMin= -1199.80010311442     IErMin= 6 ErrMin= 1.09D-06
 ErrMax= 1.09D-06  0.00D+00 EMaxC= 1.00D-01 BMatC= 5.53D-10 BMatP= 5.24D-09
 IDIUse=1 WtCom= 1.00D+00 WtEn= 0.00D+00
 Coeff-Com:  0.225D-02-0.209D-01-0.562D-02 0.706D-01 0.281D+00 0.672D+00
 Coeff:      0.225D-02-0.209D-01-0.562D-02 0.706D-01 0.281D+00 0.672D+00
 Gap=     0.431 Goal=   None    Shift=    0.000
 RMSDP=1.72D-07 MaxDP=6.01D-06 DE=-3.99D-09 OVMax= 6.68D-06

 Cycle   7  Pass 1  IDiag  1:
 E= -1199.80010311495     Delta-E=       -0.000000000523 Rises=F Damp=F
 DIIS: error= 3.17D-07 at cycle   7 NSaved=   7.
 NSaved= 7 IEnMin= 7 EnMin= -1199.80010311495     IErMin= 7 ErrMin= 3.17D-07
 ErrMax= 3.17D-07  0.00D+00 EMaxC= 1.00D-01 BMatC= 4.85D-11 BMatP= 5.53D-10
 IDIUse=1 WtCom= 1.00D+00 WtEn= 0.00D+00
 Coeff-Com:  0.632D-03-0.348D-02-0.634D-02-0.166D-01 0.371D-01 0.252D+00
 Coeff-Com:  0.737D+00
 Coeff:      0.632D-03-0.348D-02-0.634D-02-0.166D-01 0.371D-01 0.252D+00
 Coeff:      0.737D+00
 Gap=     0.431 Goal=   None    Shift=    0.000
 RMSDP=6.65D-08 MaxDP=2.41D-06 DE=-5.23D-10 OVMax= 3.00D-06

 Cycle   8  Pass 1  IDiag  1:
 E= -1199.80010311500     Delta-E=       -0.000000000055 Rises=F Damp=F
 DIIS: error= 9.79D-08 at cycle   8 NSaved=   8.
 NSaved= 8 IEnMin= 8 EnMin= -1199.80010311500     IErMin= 8 ErrMin= 9.79D-08
 ErrMax= 9.79D-08  0.00D+00 EMaxC= 1.00D-01 BMatC= 4.54D-12 BMatP= 4.85D-11
 IDIUse=1 WtCom= 1.00D+00 WtEn= 0.00D+00
 Coeff-Com: -0.137D-03 0.206D-02-0.125D-02-0.154D-01-0.253D-01-0.139D-01
 Coeff-Com:  0.216D+00 0.838D+00
 Coeff:     -0.137D-03 0.206D-02-0.125D-02-0.154D-01-0.253D-01-0.139D-01
 Coeff:      0.216D+00 0.838D+00
 Gap=     0.431 Goal=   None    Shift=    0.000
 RMSDP=2.67D-08 MaxDP=1.04D-06 DE=-5.50D-11 OVMax= 1.48D-06

 Cycle   9  Pass 1  IDiag  1:
 E= -1199.80010311500     Delta-E=        0.000000000000 Rises=F Damp=F
 DIIS: error= 4.07D-08 at cycle   9 NSaved=   9.
 NSaved= 9 IEnMin= 8 EnMin= -1199.80010311500     IErMin= 9 ErrMin= 4.07D-08
 ErrMax= 4.07D-08  0.00D+00 EMaxC= 1.00D-01 BMatC= 5.63D-13 BMatP= 4.54D-12
 IDIUse=1 WtCom= 1.00D+00 WtEn= 0.00D+00
 Coeff-Com: -0.119D-03 0.116D-02 0.181D-03-0.403D-02-0.118D-01-0.282D-01
 Coeff-Com: -0.607D-03 0.286D+00 0.758D+00
 Coeff:     -0.119D-03 0.116D-02 0.181D-03-0.403D-02-0.118D-01-0.282D-01
 Coeff:     -0.607D-03 0.286D+00 0.758D+00
 Gap=     0.431 Goal=   None    Shift=    0.000
 RMSDP=9.15D-09 MaxDP=4.08D-07 DE= 0.00D+00 OVMax= 4.67D-07

 SCF Done:  E(RwB97XD) =  -1199.80010312     A.U. after    9 cycles
            NFock=  9  Conv=0.91D-08     -V/T= 2.0022
 KE= 1.197208746054D+03 PE=-4.645659863464D+03 EE= 1.349111238861D+03
 Leave Link  502 at Fri May 23 04:06:14 2025, MaxMem=  3758096384 cpu:              46.3 elap:               8.9
 (Enter /apps/easybuild-2022/easybuild/software/Compiler/NVHPC/22.11-CUDA-11.7.0/Gaussian/g16c01-CUDA-11.7.0/g16/l508.exe)
 QCSCF skips out because SCF is already converged.
 Leave Link  508 at Fri May 23 04:06:14 2025, MaxMem=  3758096384 cpu:               0.0 elap:               0.0
 (Enter /apps/easybuild-2022/easybuild/software/Compiler/NVHPC/22.11-CUDA-11.7.0/Gaussian/g16c01-CUDA-11.7.0/g16/l801.exe)
 DoSCS=F DFT=T ScalE2(SS,OS)=  1.000000  1.000000
 Range of M.O.s used for correlation:     1   257
 NBasis=   257 NAE=    49 NBE=    49 NFC=     0 NFV=     0
 NROrb=    257 NOA=    49 NOB=    49 NVA=   208 NVB=   208

 **** Warning!!: The largest alpha MO coefficient is  0.33659798D+02

 Leave Link  801 at Fri May 23 04:06:14 2025, MaxMem=  3758096384 cpu:               0.0 elap:               0.0
 (Enter /apps/easybuild-2022/easybuild/software/Compiler/NVHPC/22.11-CUDA-11.7.0/Gaussian/g16c01-CUDA-11.7.0/g16/l1101.exe)
 Leave Link 1101 at Fri May 23 04:06:14 2025, MaxMem=  3758096384 cpu:               0.0 elap:               0.0
 (Enter /apps/easybuild-2022/easybuild/software/Compiler/NVHPC/22.11-CUDA-11.7.0/Gaussian/g16c01-CUDA-11.7.0/g16/l1102.exe)
 Symmetrizing basis deriv contribution to polar:
 IMax=3 JMax=2 DiffMx= 0.00D+00
 Leave Link 1102 at Fri May 23 04:06:14 2025, MaxMem=  3758096384 cpu:               0.0 elap:               0.0
 (Enter /apps/easybuild-2022/easybuild/software/Compiler/NVHPC/22.11-CUDA-11.7.0/Gaussian/g16c01-CUDA-11.7.0/g16/l1110.exe)
 Leave Link 1110 at Fri May 23 04:06:14 2025, MaxMem=  3758096384 cpu:               0.0 elap:               0.0
 (Enter /apps/easybuild-2022/easybuild/software/Compiler/NVHPC/22.11-CUDA-11.7.0/Gaussian/g16c01-CUDA-11.7.0/g16/l1002.exe)
 Minotr:  Closed shell wavefunction.
 Leave Link 1002 at Fri May 23 04:06:14 2025, MaxMem=  3758096384 cpu:               0.0 elap:               0.0
 (Enter /apps/easybuild-2022/easybuild/software/Compiler/NVHPC/22.11-CUDA-11.7.0/Gaussian/g16c01-CUDA-11.7.0/g16/l701.exe)
 ... and contract with generalized density number  0.
 Compute integral first derivatives.
 R6Disp: Adding Grimme-D2 dispersion energy 1st derivatives to the gradient.
 Leave Link  701 at Fri May 23 04:06:15 2025, MaxMem=  3758096384 cpu:               0.3 elap:               0.1
 (Enter /apps/easybuild-2022/easybuild/software/Compiler/NVHPC/22.11-CUDA-11.7.0/Gaussian/g16c01-CUDA-11.7.0/g16/l702.exe)
 L702 exits ... SP integral derivatives will be done elsewhere.
 Leave Link  702 at Fri May 23 04:06:15 2025, MaxMem=  3758096384 cpu:               0.0 elap:               0.0
 (Enter /apps/easybuild-2022/easybuild/software/Compiler/NVHPC/22.11-CUDA-11.7.0/Gaussian/g16c01-CUDA-11.7.0/g16/l703.exe)
 Integral derivatives from FoFJK, PRISM(SPDF).
 Compute integral first derivatives, UseDBF=F ICtDFT=           0.
 Calling FoFJK, ICntrl=      2127 FMM=F ISym2X=0 I1Cent= 0 IOpClX= 0 NMat=1 NMatS=1 NMatT=0.
 FoFJK:  IHMeth= 1 ICntrl=    2127 DoSepK=T KAlg= 0 I1Cent=           0 FoldK=F
 IRaf=         1 NMat=       1 IRICut=       1 DoRegI=T DoRafI=F ISym2E= 0 IDoP0=0 IntGTp=1.
 FoFCou: FMM=F IPFlag=           0 FMFlag=      100000 FMFlg1=         800
         NFxFlg=           0 DoJE=F BraDBF=F KetDBF=F FulRan=T
         wScrn=  0.000000 ICntrl=      2527 IOpCl=  0 I1Cent=           0 NGrid=           0
         NMat0=    1 NMatS0=      1 NMatT0=    0 NMatD0=    1 NMtDS0=    0 NMtDT0=    0
 Symmetry not used in FoFCou.
 Leave Link  703 at Fri May 23 04:06:19 2025, MaxMem=  3758096384 cpu:              33.5 elap:               4.3
 (Enter /apps/easybuild-2022/easybuild/software/Compiler/NVHPC/22.11-CUDA-11.7.0/Gaussian/g16c01-CUDA-11.7.0/g16/l716.exe)
 Dipole        =-4.70525038D-01 1.19485548D-01-1.03582607D+00
 Polarizability= 0.00000000D+00 0.00000000D+00 0.00000000D+00
                 0.00000000D+00 0.00000000D+00 0.00000000D+00
 -------------------------------------------------------------------
 Center     Atomic                   Forces (Hartrees/Bohr)
 Number     Number              X              Y              Z
 -------------------------------------------------------------------
      1        6           0.009943544   -0.002951318    0.003117384
      2        6           0.003333547   -0.000163413    0.000222272
      3        9          -0.007064676    0.009054235   -0.001597239
      4        9          -0.006908363    0.001039623   -0.009433456
      5       16          -0.010537701    0.000143638    0.000100926
      6        8          -0.007712064   -0.000604667    0.001117591
      7        8          -0.007528288   -0.000572178    0.001480889
      8        8          -0.004189557   -0.000790313    0.001439547
      9        9          -0.009706469   -0.015151274    0.019159185
     10        9           0.020374163    0.007308191   -0.006380878
     11        9           0.020432028    0.002626027   -0.009236526
     12        1          -0.000436164    0.000061448    0.000010306
 -------------------------------------------------------------------
 Cartesian Forces:  Max     0.020432028 RMS     0.008100568
 Leave Link  716 at Fri May 23 04:06:19 2025, MaxMem=  3758096384 cpu:               0.0 elap:               0.0
 (Enter /apps/easybuild-2022/easybuild/software/Compiler/NVHPC/22.11-CUDA-11.7.0/Gaussian/g16c01-CUDA-11.7.0/g16/l123.exe)
 IRC-IRC-IRC-IRC-IRC-IRC-IRC-IRC-IRC-IRC-IRC-IRC-IRC-IRC-IRC-IRC-IRC-IRC
 Pt100 Step number   1 out of a maximum of  20
 Using modified Bulirsch-Stoer corrector integration.
   Using distance weighted interpolants to fit PES.
 PreDWI: IReCr0= 2 IReCr1= 1 IReCr2= 1 IReCr3= 1
 Modified Bulirsch-Stoer Extrapolation Cycles:
    EPS =    0.000010000000000
    Cycle     1 NS=    48
      PEZero:  N= 2 I= 1 D=  3.97D-04 Err=  2.39D-06
    Cycle     2 NS=    64 Truncation Error =  0.000002391
 BS completed in    2 cycles and     112 integration steps.
 Maximum DWI energy   std dev =  0.000000000 at pt    45
 Maximum DWI gradient std dev =  0.000131310 at pt    29
 SUMMARY OF CORRECTOR INTEGRATION:
   Predictor End Point Energy = -1199.800103
   Old End Point Energy       = -1199.800103
   Corrected End Point Energy = -1199.800103
   Predictor End-Start Dist.  =     0.076286
   Old End-Start Dist.        =     0.076286
   New End-Start Dist.        =     0.076286
   New End-Old End Dist.      =     0.000012
 CORRECTOR INTEGRATION CONVERGENCE:
   Recorrection delta-x convergence threshold:    0.010000
   Delta-x Convergence Met
 Point Number: 100          Path Number:   1
                    CURRENT STRUCTURE
                Cartesian Coordinates (Ang):                
 ---------------------------------------------------------------------
 Center     Atomic                     Coordinates (Angstroms)
 Number     Number                        X           Y           Z
 ---------------------------------------------------------------------
      1          6                   -1.539961   -0.352286    0.562237
      2          6                   -0.411670    0.344771   -0.364957
      3          9                   -0.578940   -0.031114   -1.634698
      4          9                   -0.465559    1.657914   -0.188364
      5         16                    1.557143   -0.019466   -0.111785
      6          8                    2.041655    0.616150    1.073947
      7          8                    1.869496   -1.379883   -0.460813
      8          8                    2.037808    0.920370   -1.334558
      9          9                   -0.736130   -1.012735    1.387384
     10          9                   -2.338652    0.462833    1.255402
     11          9                   -2.387589   -1.192465   -0.034956
     12          1                    2.085252    0.399614   -2.146759
 ---------------------------------------------------------------------
   CHANGE IN THE REACTION COORDINATE =    0.07629
   NET REACTION COORDINATE UP TO THIS POINT =    7.62847
  # OF POINTS ALONG THE PATH = 100
  # OF STEPS =   1

 Maximum number of steps reached.
 Calculation of REVERSE path complete.
 Reaction path calculation complete.
 
 Energies reported relative to the TS energy of       -1199.642375
 --------------------------------------------------------------------------
    Summary of reaction path following
 --------------------------------------------------------------------------
                        Energy    RxCoord
   1                   -0.15773  -7.62847
   2                   -0.15686  -7.55218
   3                   -0.15596  -7.47590
   4                   -0.15505  -7.39961
   5                   -0.15411  -7.32332
   6                   -0.15316  -7.24704
   7                   -0.15218  -7.17075
   8                   -0.15117  -7.09447
   9                   -0.15015  -7.01818
  10                   -0.14910  -6.94190
  11                   -0.14803  -6.86561
  12                   -0.14694  -6.78932
  13                   -0.14583  -6.71304
  14                   -0.14469  -6.63675
  15                   -0.14353  -6.56047
  16                   -0.14234  -6.48418
  17                   -0.14113  -6.40790
  18                   -0.13989  -6.33161
  19                   -0.13863  -6.25533
  20                   -0.13735  -6.17904
  21                   -0.13604  -6.10276
  22                   -0.13470  -6.02647
  23                   -0.13334  -5.95018
  24                   -0.13195  -5.87390
  25                   -0.13053  -5.79761
  26                   -0.12909  -5.72133
  27                   -0.12761  -5.64504
  28                   -0.12611  -5.56876
  29                   -0.12458  -5.49248
  30                   -0.12303  -5.41619
  31                   -0.12144  -5.33991
  32                   -0.11982  -5.26362
  33                   -0.11816  -5.18734
  34                   -0.11648  -5.11105
  35                   -0.11476  -5.03477
  36                   -0.11301  -4.95849
  37                   -0.11123  -4.88220
  38                   -0.10941  -4.80592
  39                   -0.10756  -4.72964
  40                   -0.10567  -4.65335
  41                   -0.10374  -4.57707
  42                   -0.10178  -4.50078
  43                   -0.09978  -4.42450
  44                   -0.09775  -4.34822
  45                   -0.09568  -4.27193
  46                   -0.09358  -4.19565
  47                   -0.09144  -4.11936
  48                   -0.08927  -4.04308
  49                   -0.08707  -3.96680
  50                   -0.08484  -3.89051
  51                   -0.08259  -3.81423
  52                   -0.08030  -3.73794
  53                   -0.07800  -3.66166
  54                   -0.07567  -3.58537
  55                   -0.07332  -3.50909
  56                   -0.07096  -3.43280
  57                   -0.06859  -3.35652
  58                   -0.06620  -3.28023
  59                   -0.06381  -3.20395
  60                   -0.06142  -3.12766
  61                   -0.05902  -3.05138
  62                   -0.05663  -2.97509
  63                   -0.05424  -2.89881
  64                   -0.05187  -2.82252
  65                   -0.04950  -2.74624
  66                   -0.04716  -2.66995
  67                   -0.04483  -2.59367
  68                   -0.04253  -2.51738
  69                   -0.04025  -2.44110
  70                   -0.03801  -2.36481
  71                   -0.03579  -2.28853
  72                   -0.03362  -2.21224
  73                   -0.03148  -2.13596
  74                   -0.02940  -2.05967
  75                   -0.02736  -1.98339
  76                   -0.02539  -1.90710
  77                   -0.02347  -1.83081
  78                   -0.02160  -1.75453
  79                   -0.01980  -1.67825
  80                   -0.01807  -1.60196
  81                   -0.01640  -1.52568
  82                   -0.01481  -1.44939
  83                   -0.01328  -1.37311
  84                   -0.01184  -1.29682
  85                   -0.01047  -1.22054
  86                   -0.00918  -1.14425
  87                   -0.00797  -1.06797
  88                   -0.00685  -0.99168
  89                   -0.00582  -0.91540
  90                   -0.00487  -0.83912
  91                   -0.00401  -0.76283
  92                   -0.00323  -0.68655
  93                   -0.00254  -0.61026
  94                   -0.00194  -0.53398
  95                   -0.00142  -0.45770
  96                   -0.00098  -0.38142
  97                   -0.00063  -0.30513
  98                   -0.00035  -0.22885
  99                   -0.00015  -0.15257
 100                   -0.00004  -0.07630
 101                    0.00000   0.00000
 --------------------------------------------------------------------------
 
 Total number of points:                  100
 Total number of gradient calculations:   100
 Total number of Hessian calculations:      0
 IRC-IRC-IRC-IRC-IRC-IRC-IRC-IRC-IRC-IRC-IRC-IRC-IRC-IRC-IRC-IRC-IRC-IRC
 Leave Link  123 at Fri May 23 04:06:19 2025, MaxMem=  3758096384 cpu:               0.0 elap:               0.0
 (Enter /apps/easybuild-2022/easybuild/software/Compiler/NVHPC/22.11-CUDA-11.7.0/Gaussian/g16c01-CUDA-11.7.0/g16/l202.exe)
                          Input orientation:                          
 ---------------------------------------------------------------------
 Center     Atomic      Atomic             Coordinates (Angstroms)
 Number     Number       Type             X           Y           Z
 ---------------------------------------------------------------------
      1          6           0       -1.539960   -0.352286    0.562236
      2          6           0       -0.411670    0.344770   -0.364956
      3          9           0       -0.578940   -0.031114   -1.634698
      4          9           0       -0.465559    1.657914   -0.188364
      5         16           0        1.557143   -0.019466   -0.111785
      6          8           0        2.041655    0.616150    1.073947
      7          8           0        1.869496   -1.379883   -0.460813
      8          8           0        2.037808    0.920370   -1.334558
      9          9           0       -0.736129   -1.012735    1.387384
     10          9           0       -2.338652    0.462833    1.255402
     11          9           0       -2.387589   -1.192465   -0.034956
     12          1           0        2.085251    0.399613   -2.146759
 ---------------------------------------------------------------------
                    Distance matrix (angstroms):
                    1          2          3          4          5
     1  C    0.000000
     2  C    1.618212   0.000000
     3  F    2.419345   1.334733   0.000000
     4  F    2.399717   1.326060   2.226556   0.000000
     5  S    3.187024   2.018165   2.623404   2.628838   0.000000
     6  O    3.745355   2.857077   3.824032   2.994131   1.429937
     7  O    3.704994   2.861352   3.031835   3.841214   1.438791
     8  O    4.244750   2.696550   2.800495   2.850364   1.615396
     9  F    1.327858   2.240265   3.181394   3.112645   2.914308
    10  F    1.335217   2.520468   3.419539   2.649747   4.156805
    11  F    1.334547   2.525124   2.679389   3.441279   4.116156
    12  H    4.587610   3.067971   2.746934   3.453297   2.143745
                    6          7          8          9         10
     6  O    0.000000
     7  O    2.523742   0.000000
     8  O    2.427645   2.466359   0.000000
     9  F    3.235366   3.215574   4.340575   0.000000
    10  F    4.386744   4.904030   5.105940   2.182384   0.000000
    11  F    4.911106   4.282436   5.073182   2.186933   2.099388
    12  H    3.228271   2.460807   0.965976   4.737624   5.581184
                   11         12
    11  F    0.000000
    12  H    5.196223   0.000000
 Symmetry turned off by external request.
 Stoichiometry    C2HF5O3S
 Rotational constants (GHZ):           1.6591525           0.7166149           0.6938471
 Leave Link  202 at Fri May 23 04:06:19 2025, MaxMem=  3758096384 cpu:               0.0 elap:               0.0
 (Enter /apps/easybuild-2022/easybuild/software/Compiler/NVHPC/22.11-CUDA-11.7.0/Gaussian/g16c01-CUDA-11.7.0/g16/l9999.exe)

 This type of calculation cannot be archived.


 LET US PLACE AT THE END OF EVERY CHAPTER.....THE
 TWO LETTERS USED BY THE ROMAN JUDGES WHEN THEY DID
 NOT UNDERSTAND A PLEADING.
 N. L. -NON LIQUET- IT IS NOT CLEAR.
                                              -- VOLTAIRE
 Job cpu time:       0 days  2 hours 24 minutes 58.2 seconds.
 Elapsed time:       0 days  0 hours 24 minutes 39.7 seconds.
 File lengths (MBytes):  RWF=     31 Int=      0 D2E=      0 Chk=      8 Scr=      1
 Normal termination of Gaussian 16 at Fri May 23 04:06:19 2025.
done
