 Entering Gaussian System, Link 0=g16
 Initial command:
 /apps/easybuild-2022/easybuild/software/Compiler/NVHPC/22.11-CUDA-11.7.0/Gaussian/g16c01-CUDA-11.7.0/g16/l1.exe "/tmp/Gau-119109.inp" -scrdir="/tmp/"
 Entering Link 1 = /apps/easybuild-2022/easybuild/software/Compiler/NVHPC/22.11-CUDA-11.7.0/Gaussian/g16c01-CUDA-11.7.0/g16/l1.exe PID=    119110.
  
 Copyright (c) 1988-2019, Gaussian, Inc.  All Rights Reserved.
  
 This is part of the Gaussian(R) 16 program.  It is based on
 the Gaussian(R) 09 system (copyright 2009, Gaussian, Inc.),
 the Gaussian(R) 03 system (copyright 2003, Gaussian, Inc.),
 the Gaussian(R) 98 system (copyright 1998, Gaussian, Inc.),
 the Gaussian(R) 94 system (copyright 1995, Gaussian, Inc.),
 the Gaussian 92(TM) system (copyright 1992, Gaussian, Inc.),
 the Gaussian 90(TM) system (copyright 1990, Gaussian, Inc.),
 the Gaussian 88(TM) system (copyright 1988, Gaussian, Inc.),
 the Gaussian 86(TM) system (copyright 1986, Carnegie Mellon
 University), and the Gaussian 82(TM) system (copyright 1983,
 Carnegie Mellon University). Gaussian is a federally registered
 trademark of Gaussian, Inc.
  
 This software contains proprietary and confidential information,
 including trade secrets, belonging to Gaussian, Inc.
  
 This software is provided under written license and may be
 used, copied, transmitted, or stored only in accord with that
 written license.
  
 The following legend is applicable only to US Government
 contracts under FAR:
  
                    RESTRICTED RIGHTS LEGEND
  
 Use, reproduction and disclosure by the US Government is
 subject to restrictions as set forth in subparagraphs (a)
 and (c) of the Commercial Computer Software - Restricted
 Rights clause in FAR 52.227-19.
  
 Gaussian, Inc.
 340 Quinnipiac St., Bldg. 40, Wallingford CT 06492
  
  
 ---------------------------------------------------------------
 Warning -- This program may not be used in any manner that
 competes with the business of Gaussian, Inc. or will provide
 assistance to any competitor of Gaussian, Inc.  The licensee
 of this program is prohibited from giving any competitor of
 Gaussian, Inc. access to this program.  By using this program,
 the user acknowledges that Gaussian, Inc. is engaged in the
 business of creating and licensing software in the field of
 computational chemistry and represents and warrants to the
 licensee that it is not a competitor of Gaussian, Inc. and that
 it will not use this program in any manner prohibited above.
 ---------------------------------------------------------------
  

 Cite this work as:
 Gaussian 16, Revision C.01,
 M. J. Frisch, G. W. Trucks, H. B. Schlegel, G. E. Scuseria, 
 M. A. Robb, J. R. Cheeseman, G. Scalmani, V. Barone, 
 G. A. Petersson, H. Nakatsuji, X. Li, M. Caricato, A. V. Marenich, 
 J. Bloino, B. G. Janesko, R. Gomperts, B. Mennucci, H. P. Hratchian, 
 J. V. Ortiz, A. F. Izmaylov, J. L. Sonnenberg, D. Williams-Young, 
 F. Ding, F. Lipparini, F. Egidi, J. Goings, B. Peng, A. Petrone, 
 T. Henderson, D. Ranasinghe, V. G. Zakrzewski, J. Gao, N. Rega, 
 G. Zheng, W. Liang, M. Hada, M. Ehara, K. Toyota, R. Fukuda, 
 J. Hasegawa, M. Ishida, T. Nakajima, Y. Honda, O. Kitao, H. Nakai, 
 T. Vreven, K. Throssell, J. A. Montgomery, Jr., J. E. Peralta, 
 F. Ogliaro, M. J. Bearpark, J. J. Heyd, E. N. Brothers, K. N. Kudin, 
 V. N. Staroverov, T. A. Keith, R. Kobayashi, J. Normand, 
 K. Raghavachari, A. P. Rendell, J. C. Burant, S. S. Iyengar, 
 J. Tomasi, M. Cossi, J. M. Millam, M. Klene, C. Adamo, R. Cammi, 
 J. W. Ochterski, R. L. Martin, K. Morokuma, O. Farkas, 
 J. B. Foresman, and D. J. Fox, Gaussian, Inc., Wallingford CT, 2019.
 
 ******************************************
 Gaussian 16:  ES64L-G16RevC.01  3-Jul-2019
                23-May-2025 
 ******************************************
 %mem=28GB
 %chk=2003846667223680600001_r12_insertion_R_6_5_8
 %nprocshared=8
 Will use up to    8 processors via shared memory.
 ----------------------------------------------------------------------
 #P wb97xd/6-311++G(d,p) Symm(None) scf(xqc) pop(None) opt(NoFreeze,TS,
 CalcAll,NoEigentest,MaxCycle=999)
 ----------------------------------------------------------------------
 1/5=1,6=999,10=4,11=1,18=20,26=3,29=2000,38=1/1,3;
 2/9=110,12=2,15=3,17=6,18=5,40=1/2;
 3/5=4,6=6,7=1111,11=2,25=1,30=1,71=2,74=-58,140=1/1,2,3;
 4//1;
 5/5=2,8=3,13=1,38=5/2,8;
 8/6=4,10=90,11=11/1;
 11/6=1,8=1,9=11,15=111,16=1,31=1/1,2,10;
 10/6=1,31=1/2;
 7/10=1,25=1,30=1/1,2,3,16;
 1/5=1,6=999,10=4,11=1,18=20,26=3/3(3);
 2/9=110,15=3/2;
 7/8=1,9=1,25=1,30=1,44=-1/16;
 99//99;
 2/9=110,15=3/2;
 3/5=4,6=6,7=1111,11=2,25=1,30=1,71=2,74=-58,140=1/1,2,3;
 4/5=5,16=3,69=1/1;
 5/5=2,8=3,13=1,38=5/2,8;
 8/6=4,10=90,11=11/1;
 11/6=1,8=1,9=11,15=111,16=1,31=1/1,2,10;
 10/6=1,31=1/2;
 7/10=1,25=1,30=1/1,2,3,16;
 1/5=1,6=999,10=4,11=1,18=20,26=3/3(-8);
 2/9=110,15=3/2;
 7/8=1,9=1,25=1,30=1,44=-1/16;
 99//99;
 Leave Link    1 at Fri May 23 03:16:54 2025, MaxMem=  3758096384 cpu:               0.0 elap:               0.0
 (Enter /apps/easybuild-2022/easybuild/software/Compiler/NVHPC/22.11-CUDA-11.7.0/Gaussian/g16c01-CUDA-11.7.0/g16/l101.exe)
 ------------------------------
 Gaussian input prepared by ASE
 ------------------------------
 Symbolic Z-matrix:
 Charge =  0 Multiplicity = 1
 C                    -0.87371  -0.13397   1.37399 
 C                    -0.13006   0.33047   0.07199 
 F                    -0.71829  -0.25553  -1.00321 
 F                    -0.36568   1.63623  -0.12468 
 S                     1.6348   -0.04656   0.12109 
 O                     2.48113   0.93459   1.17464 
 O                     1.86369  -1.26939  -0.32375 
 O                     2.57402   1.25347  -0.69611 
 F                    -0.23907  -1.11629   2.0044 
 F                    -0.99805   0.85674   2.26204 
 F                    -2.09346  -0.57622   1.12978 
 H                     2.9151    1.98449  -0.17189 
 
 ITRead=  0  0  0  0  0  0  0  0  0  0  0  0
 MicOpt= -1 -1 -1 -1 -1 -1 -1 -1 -1 -1 -1 -1
 NAtoms=     12 NQM=       12 NQMF=       0 NMMI=      0 NMMIF=      0
                NMic=       0 NMicF=      0.
                    Isotopes and Nuclear Properties:
 (Nuclear quadrupole moments (NQMom) in fm**2, nuclear magnetic moments (NMagM)
  in nuclear magnetons)

  Atom         1           2           3           4           5           6           7           8           9          10
 IAtWgt=          12          12          19          19          32          16          16          16          19          19
 AtmWgt=  12.0000000  12.0000000  18.9984032  18.9984032  31.9720718  15.9949146  15.9949146  15.9949146  18.9984032  18.9984032
 NucSpn=           0           0           1           1           0           0           0           0           1           1
 AtZEff=  -0.0000000  -0.0000000  -0.0000000  -0.0000000  -0.0000000  -0.0000000  -0.0000000  -0.0000000  -0.0000000  -0.0000000
 NQMom=    0.0000000   0.0000000   0.0000000   0.0000000   0.0000000   0.0000000   0.0000000   0.0000000   0.0000000   0.0000000
 NMagM=    0.0000000   0.0000000   2.6288670   2.6288670   0.0000000   0.0000000   0.0000000   0.0000000   2.6288670   2.6288670
 AtZNuc=   6.0000000   6.0000000   9.0000000   9.0000000  16.0000000   8.0000000   8.0000000   8.0000000   9.0000000   9.0000000

  Atom        11          12
 IAtWgt=          19           1
 AtmWgt=  18.9984032   1.0078250
 NucSpn=           1           1
 AtZEff=  -0.0000000  -0.0000000
 NQMom=    0.0000000   0.0000000
 NMagM=    2.6288670   2.7928460
 AtZNuc=   9.0000000   1.0000000
 Leave Link  101 at Fri May 23 03:16:55 2025, MaxMem=  3758096384 cpu:               0.2 elap:               0.2
 (Enter /apps/easybuild-2022/easybuild/software/Compiler/NVHPC/22.11-CUDA-11.7.0/Gaussian/g16c01-CUDA-11.7.0/g16/l103.exe)

 GradGradGradGradGradGradGradGradGradGradGradGradGradGradGradGradGradGrad
 Berny optimization.
 Initialization pass.
                           ----------------------------
                           !    Initial Parameters    !
                           ! (Angstroms and Degrees)  !
 --------------------------                            --------------------------
 ! Name  Definition              Value          Derivative Info.                !
 --------------------------------------------------------------------------------
 ! R1    R(1,2)                  1.5697         calculate D2E/DX2 analytically  !
 ! R2    R(1,9)                  1.3286         calculate D2E/DX2 analytically  !
 ! R3    R(1,10)                 1.3363         calculate D2E/DX2 analytically  !
 ! R4    R(1,11)                 1.3202         calculate D2E/DX2 analytically  !
 ! R5    R(2,3)                  1.3585         calculate D2E/DX2 analytically  !
 ! R6    R(2,4)                  1.3413         calculate D2E/DX2 analytically  !
 ! R7    R(2,5)                  1.8053         calculate D2E/DX2 analytically  !
 ! R8    R(5,6)                  1.67           calculate D2E/DX2 analytically  !
 ! R9    R(5,7)                  1.3212         calculate D2E/DX2 analytically  !
 ! R10   R(5,8)                  1.8            calculate D2E/DX2 analytically  !
 ! R11   R(8,12)                 0.962          calculate D2E/DX2 analytically  !
 ! A1    A(2,1,9)              112.7087         calculate D2E/DX2 analytically  !
 ! A2    A(2,1,10)             112.0836         calculate D2E/DX2 analytically  !
 ! A3    A(2,1,11)             112.5432         calculate D2E/DX2 analytically  !
 ! A4    A(9,1,10)             106.098          calculate D2E/DX2 analytically  !
 ! A5    A(9,1,11)             106.3449         calculate D2E/DX2 analytically  !
 ! A6    A(10,1,11)            106.5777         calculate D2E/DX2 analytically  !
 ! A7    A(1,2,3)              108.8883         calculate D2E/DX2 analytically  !
 ! A8    A(1,2,4)              109.052          calculate D2E/DX2 analytically  !
 ! A9    A(1,2,5)              112.2583         calculate D2E/DX2 analytically  !
 ! A10   A(3,2,4)              103.1684         calculate D2E/DX2 analytically  !
 ! A11   A(3,2,5)              110.7768         calculate D2E/DX2 analytically  !
 ! A12   A(4,2,5)              112.2725         calculate D2E/DX2 analytically  !
 ! A13   A(2,5,6)              112.9467         calculate D2E/DX2 analytically  !
 ! A14   A(2,5,7)              110.7012         calculate D2E/DX2 analytically  !
 ! A15   A(2,5,8)              110.2984         calculate D2E/DX2 analytically  !
 ! A16   A(6,5,7)              131.9421         calculate D2E/DX2 analytically  !
 ! A17   A(6,5,8)               66.2752         calculate D2E/DX2 analytically  !
 ! A18   A(7,5,8)              115.1636         calculate D2E/DX2 analytically  !
 ! A19   A(5,8,12)             119.1049         calculate D2E/DX2 analytically  !
 ! D1    D(9,1,2,3)             99.129          calculate D2E/DX2 analytically  !
 ! D2    D(9,1,2,4)           -148.9769         calculate D2E/DX2 analytically  !
 ! D3    D(9,1,2,5)            -23.9052         calculate D2E/DX2 analytically  !
 ! D4    D(10,1,2,3)          -141.2559         calculate D2E/DX2 analytically  !
 ! D5    D(10,1,2,4)           -29.3618         calculate D2E/DX2 analytically  !
 ! D6    D(10,1,2,5)            95.7099         calculate D2E/DX2 analytically  !
 ! D7    D(11,1,2,3)           -21.1372         calculate D2E/DX2 analytically  !
 ! D8    D(11,1,2,4)            90.7569         calculate D2E/DX2 analytically  !
 ! D9    D(11,1,2,5)          -144.1714         calculate D2E/DX2 analytically  !
 ! D10   D(1,2,5,6)            -72.4464         calculate D2E/DX2 analytically  !
 ! D11   D(1,2,5,7)             86.9277         calculate D2E/DX2 analytically  !
 ! D12   D(1,2,5,8)           -144.4323         calculate D2E/DX2 analytically  !
 ! D13   D(3,2,5,6)            165.5887         calculate D2E/DX2 analytically  !
 ! D14   D(3,2,5,7)            -35.0372         calculate D2E/DX2 analytically  !
 ! D15   D(3,2,5,8)             93.6027         calculate D2E/DX2 analytically  !
 ! D16   D(4,2,5,6)             50.8364         calculate D2E/DX2 analytically  !
 ! D17   D(4,2,5,7)           -149.7895         calculate D2E/DX2 analytically  !
 ! D18   D(4,2,5,8)            -21.1495         calculate D2E/DX2 analytically  !
 ! D19   D(2,5,8,12)            92.3755         calculate D2E/DX2 analytically  !
 ! D20   D(6,5,8,12)           -14.5726         calculate D2E/DX2 analytically  !
 ! D21   D(7,5,8,12)          -141.4543         calculate D2E/DX2 analytically  !
 --------------------------------------------------------------------------------
 Trust Radius=3.00D-01 FncErr=1.00D-07 GrdErr=1.00D-06 EigMax=2.50D+02 EigMin=1.00D-04
 Number of steps in this run=    100 maximum allowed number of steps=    100.
 Search for a saddle point of order  1.
 GradGradGradGradGradGradGradGradGradGradGradGradGradGradGradGradGradGrad

 Leave Link  103 at Fri May 23 03:16:55 2025, MaxMem=  3758096384 cpu:               0.0 elap:               0.0
 (Enter /apps/easybuild-2022/easybuild/software/Compiler/NVHPC/22.11-CUDA-11.7.0/Gaussian/g16c01-CUDA-11.7.0/g16/l202.exe)
                          Input orientation:                          
 ---------------------------------------------------------------------
 Center     Atomic      Atomic             Coordinates (Angstroms)
 Number     Number       Type             X           Y           Z
 ---------------------------------------------------------------------
      1          6           0       -0.873707   -0.133969    1.373990
      2          6           0       -0.130057    0.330473    0.071991
      3          9           0       -0.718289   -0.255534   -1.003215
      4          9           0       -0.365683    1.636231   -0.124676
      5         16           0        1.634801   -0.046558    0.121085
      6          8           0        2.481126    0.934590    1.174641
      7          8           0        1.863693   -1.269386   -0.323751
      8          8           0        2.574024    1.253465   -0.696105
      9          9           0       -0.239074   -1.116287    2.004403
     10          9           0       -0.998051    0.856737    2.262036
     11          9           0       -2.093456   -0.576220    1.129776
     12          1           0        2.915097    1.984485   -0.171890
 ---------------------------------------------------------------------
                    Distance matrix (angstroms):
                    1          2          3          4          5
     1  C    0.000000
     2  C    1.569689   0.000000
     3  F    2.385380   1.358488   0.000000
     4  F    2.374383   1.341343   2.115405   0.000000
     5  S    2.805356   1.805349   2.616248   2.625664   0.000000
     6  O    3.526537   2.898115   4.049161   3.207000   1.669999
     7  O    3.415385   2.586735   2.855906   3.667746   1.321204
     8  O    4.254070   2.958706   3.634655   3.019092   1.800000
     9  F    1.328581   2.416447   3.164855   3.482149   2.864021
    10  F    1.336258   2.413848   3.460820   2.589188   3.511627
    11  F    1.320233   2.407475   2.558041   3.074701   3.898448
    12  H    4.607888   3.473931   4.348595   3.299550   2.418704
                    6          7          8          9         10
     6  O    0.000000
     7  O    2.735674   0.000000
     8  O    1.900001   2.647262   0.000000
     9  F    3.506293   3.140919   4.563112   0.000000
    10  F    3.645979   4.404120   4.654859   2.129611   0.000000
    11  F    4.817817   4.272265   5.335444   2.120230   2.129622
    12  H    1.761748   3.422892   0.962041   4.929486   4.744316
                   11         12
    11  F    0.000000
    12  H    5.773833   0.000000
 Symmetry turned off by external request.
 Stoichiometry    C2HF5O3S
 Rotational constants (GHZ):           1.5715798           0.7587949           0.7421935
 Leave Link  202 at Fri May 23 03:16:55 2025, MaxMem=  3758096384 cpu:               0.0 elap:               0.0
 (Enter /apps/easybuild-2022/easybuild/software/Compiler/NVHPC/22.11-CUDA-11.7.0/Gaussian/g16c01-CUDA-11.7.0/g16/l301.exe)
 Standard basis: 6-311++G(d,p) (5D, 7F)
 Ernie: Thresh=  0.10000D-02 Tol=  0.10000D-05 Strict=F.
   257 basis functions,   419 primitive gaussians,   268 cartesian basis functions
    49 alpha electrons       49 beta electrons
       nuclear repulsion energy       906.4668326570 Hartrees.
 IExCor= 4639 DFT=T Ex+Corr=wB97XD ExCW=0 ScaHFX=  1.000000
 ScaDFX=  1.000000  1.000000  1.000000  1.000000 ScalE2=  1.000000  1.000000
 IRadAn=      5 IRanWt=     -1 IRanGd=            0 ICorTp=0 IEmpDi=121
 HFx  wShort=  0.000000 wLong=  0.200000 cFull=  0.222036 cShort=  0.000000 cLong=  0.777964
 DFx  wShort=  0.000000 wLong=  0.200000 cFull=  0.000000 cShort=  0.000000 cLong=  1.000000
 NAtoms=   12 NActive=   12 NUniq=   12 SFac= 1.00D+00 NAtFMM=   60 NAOKFM=F Big=F
 Integral buffers will be    131072 words long.
 Raffenetti 2 integral format.
 Two-electron integral symmetry is turned off.
 R6Disp:  Grimme-D2 Dispersion energy=       -0.0051471494 Hartrees.
 Nuclear repulsion after empirical dispersion term =      906.4616855076 Hartrees.
 Leave Link  301 at Fri May 23 03:16:55 2025, MaxMem=  3758096384 cpu:               0.0 elap:               0.0
 (Enter /apps/easybuild-2022/easybuild/software/Compiler/NVHPC/22.11-CUDA-11.7.0/Gaussian/g16c01-CUDA-11.7.0/g16/l302.exe)
 NPDir=0 NMtPBC=     1 NCelOv=     1 NCel=       1 NClECP=     1 NCelD=      1
         NCelK=      1 NCelE2=     1 NClLst=     1 CellRange=     0.0.
 One-electron integrals computed using PRISM.
 NBasis=   257 RedAO= T EigKep=  7.56D-05  NBF=   257
 NBsUse=   257 1.00D-06 EigRej= -1.00D+00 NBFU=   257
 Precomputing XC quadrature grid using
 IXCGrd= 4 IRadAn=           5 IRanWt=          -1 IRanGd=           0 AccXCQ= 0.00D+00.
 Generated NRdTot=       0 NPtTot=           0 NUsed=           0 NTot=          32
 NSgBfM=   268   268   268   268   268 MxSgAt=    12 MxSgA2=    12.
 Leave Link  302 at Fri May 23 03:16:55 2025, MaxMem=  3758096384 cpu:               0.5 elap:               0.1
 (Enter /apps/easybuild-2022/easybuild/software/Compiler/NVHPC/22.11-CUDA-11.7.0/Gaussian/g16c01-CUDA-11.7.0/g16/l303.exe)
 DipDrv:  MaxL=1.
 Leave Link  303 at Fri May 23 03:16:55 2025, MaxMem=  3758096384 cpu:               0.1 elap:               0.0
 (Enter /apps/easybuild-2022/easybuild/software/Compiler/NVHPC/22.11-CUDA-11.7.0/Gaussian/g16c01-CUDA-11.7.0/g16/l401.exe)
 ExpMin= 3.60D-02 ExpMax= 9.34D+04 ExpMxC= 3.17D+03 IAcc=3 IRadAn=         5 AccDes= 0.00D+00
 Harris functional with IExCor= 4639 and IRadAn=       5 diagonalized for initial guess.
 HarFok:  IExCor= 4639 AccDes= 0.00D+00 IRadAn=         5 IDoV= 1 UseB2=F ITyADJ=14
 ICtDFT=  3500011 ScaDFX=  1.000000  1.000000  1.000000  1.000000
 FoFCou: FMM=F IPFlag=           0 FMFlag=      100000 FMFlg1=           0
         NFxFlg=           0 DoJE=T BraDBF=F KetDBF=T FulRan=T
         wScrn=  0.000000 ICntrl=       500 IOpCl=  0 I1Cent=   200000004 NGrid=           0
         NMat0=    1 NMatS0=      1 NMatT0=    0 NMatD0=    1 NMtDS0=    0 NMtDT0=    0
 Symmetry not used in FoFCou.
 Harris En= -1166.96742411629    
 JPrj=0 DoOrth=F DoCkMO=F.
 Leave Link  401 at Fri May 23 03:16:55 2025, MaxMem=  3758096384 cpu:               2.4 elap:               0.3
 (Enter /apps/easybuild-2022/easybuild/software/Compiler/NVHPC/22.11-CUDA-11.7.0/Gaussian/g16c01-CUDA-11.7.0/g16/l502.exe)
 Keep R1 ints in memory in canonical form, NReq=1117474609.
 FoFCou: FMM=F IPFlag=           0 FMFlag=           0 FMFlg1=           0
         NFxFlg=           0 DoJE=F BraDBF=F KetDBF=F FulRan=T
         wScrn=  0.000000 ICntrl=       600 IOpCl=  0 I1Cent=           0 NGrid=           0
         NMat0=    1 NMatS0=  33153 NMatT0=    0 NMatD0=    1 NMtDS0=    0 NMtDT0=    0
 Symmetry not used in FoFCou.
 Two-electron integral symmetry not used.
 Closed shell SCF:
 Using DIIS extrapolation, IDIIS=  1040.
 NGot=  3758096384 LenX=  2658793876 LenY=  2658721611
 Requested convergence on RMS density matrix=1.00D-08 within  32 cycles.
 Requested convergence on MAX density matrix=1.00D-06.
 Requested convergence on             energy=1.00D-06.
 No special actions if energy rises.

 Cycle   1  Pass 1  IDiag  1:
 E= -1198.81860145328    
 DIIS: error= 1.25D-01 at cycle   1 NSaved=   1.
 NSaved= 1 IEnMin= 1 EnMin= -1198.81860145328     IErMin= 1 ErrMin= 1.25D-01
 ErrMax= 1.25D-01  0.00D+00 EMaxC= 1.00D-01 BMatC= 3.41D+00 BMatP= 3.41D+00
 IDIUse=3 WtCom= 0.00D+00 WtEn= 1.00D+00
 Coeff-Com:  0.100D+01
 Coeff-En:   0.100D+01
 Coeff:      0.100D+01
 Gap=     0.338 Goal=   None    Shift=    0.000
 GapD=    0.338 DampG=1.000 DampE=0.250 DampFc=0.2500 IDamp=-1.
 Damping current iteration by 2.50D-01
 RMSDP=1.36D-02 MaxDP=8.55D-01              OVMax= 3.11D-01

 Cycle   2  Pass 1  IDiag  1:
 E= -1199.06980739014     Delta-E=       -0.251205936856 Rises=F Damp=T
 DIIS: error= 8.98D-02 at cycle   2 NSaved=   2.
 NSaved= 2 IEnMin= 2 EnMin= -1199.06980739014     IErMin= 2 ErrMin= 8.98D-02
 ErrMax= 8.98D-02  0.00D+00 EMaxC= 1.00D-01 BMatC= 1.51D+00 BMatP= 3.41D+00
 IDIUse=3 WtCom= 1.02D-01 WtEn= 8.98D-01
 Coeff-Com: -0.162D+01 0.262D+01
 Coeff-En:   0.000D+00 0.100D+01
 Coeff:     -0.165D+00 0.116D+01
 Gap=     0.224 Goal=   None    Shift=    0.000
 RMSDP=4.39D-03 MaxDP=2.89D-01 DE=-2.51D-01 OVMax= 2.24D-01

 Cycle   3  Pass 1  IDiag  1:
 E= -1199.52903514685     Delta-E=       -0.459227756713 Rises=F Damp=F
 DIIS: error= 2.88D-02 at cycle   3 NSaved=   3.
 NSaved= 3 IEnMin= 3 EnMin= -1199.52903514685     IErMin= 3 ErrMin= 2.88D-02
 ErrMax= 2.88D-02  0.00D+00 EMaxC= 1.00D-01 BMatC= 1.65D-01 BMatP= 1.51D+00
 IDIUse=3 WtCom= 7.12D-01 WtEn= 2.88D-01
 Coeff-Com:  0.184D+00-0.511D-01 0.867D+00
 Coeff-En:   0.000D+00 0.000D+00 0.100D+01
 Coeff:      0.131D+00-0.364D-01 0.905D+00
 Gap=     0.238 Goal=   None    Shift=    0.000
 RMSDP=2.07D-03 MaxDP=1.01D-01 DE=-4.59D-01 OVMax= 6.60D-02

 Cycle   4  Pass 1  IDiag  1:
 E= -1199.56172558094     Delta-E=       -0.032690434092 Rises=F Damp=F
 DIIS: error= 1.43D-02 at cycle   4 NSaved=   4.
 NSaved= 4 IEnMin= 4 EnMin= -1199.56172558094     IErMin= 4 ErrMin= 1.43D-02
 ErrMax= 1.43D-02  0.00D+00 EMaxC= 1.00D-01 BMatC= 6.42D-02 BMatP= 1.65D-01
 IDIUse=3 WtCom= 8.57D-01 WtEn= 1.43D-01
 Coeff-Com:  0.247D+00-0.297D+00 0.500D+00 0.549D+00
 Coeff-En:   0.000D+00 0.000D+00 0.319D+00 0.681D+00
 Coeff:      0.212D+00-0.254D+00 0.474D+00 0.568D+00
 Gap=     0.273 Goal=   None    Shift=    0.000
 RMSDP=1.57D-03 MaxDP=8.97D-02 DE=-3.27D-02 OVMax= 4.98D-02

 Cycle   5  Pass 1  IDiag  1:
 E= -1199.59798971231     Delta-E=       -0.036264131370 Rises=F Damp=F
 DIIS: error= 2.89D-03 at cycle   5 NSaved=   5.
 NSaved= 5 IEnMin= 5 EnMin= -1199.59798971231     IErMin= 5 ErrMin= 2.89D-03
 ErrMax= 2.89D-03  0.00D+00 EMaxC= 1.00D-01 BMatC= 3.89D-03 BMatP= 6.42D-02
 IDIUse=3 WtCom= 9.71D-01 WtEn= 2.89D-02
 Coeff-Com:  0.927D-01-0.122D+00 0.163D+00 0.280D+00 0.586D+00
 Coeff-En:   0.000D+00 0.000D+00 0.000D+00 0.000D+00 0.100D+01
 Coeff:      0.900D-01-0.119D+00 0.159D+00 0.272D+00 0.598D+00
 Gap=     0.263 Goal=   None    Shift=    0.000
 RMSDP=2.89D-04 MaxDP=1.08D-02 DE=-3.63D-02 OVMax= 1.49D-02

 Cycle   6  Pass 1  IDiag  1:
 E= -1199.60041833325     Delta-E=       -0.002428620935 Rises=F Damp=F
 DIIS: error= 7.90D-04 at cycle   6 NSaved=   6.
 NSaved= 6 IEnMin= 6 EnMin= -1199.60041833325     IErMin= 6 ErrMin= 7.90D-04
 ErrMax= 7.90D-04  0.00D+00 EMaxC= 1.00D-01 BMatC= 1.64D-04 BMatP= 3.89D-03
 IDIUse=3 WtCom= 9.92D-01 WtEn= 7.90D-03
 Coeff-Com:  0.266D-01-0.365D-01 0.308D-01 0.615D-01 0.231D+00 0.687D+00
 Coeff-En:   0.000D+00 0.000D+00 0.000D+00 0.000D+00 0.000D+00 0.100D+01
 Coeff:      0.264D-01-0.362D-01 0.306D-01 0.611D-01 0.229D+00 0.689D+00
 Gap=     0.265 Goal=   None    Shift=    0.000
 RMSDP=1.02D-04 MaxDP=4.94D-03 DE=-2.43D-03 OVMax= 4.79D-03

 Cycle   7  Pass 1  IDiag  1:
 E= -1199.60054721598     Delta-E=       -0.000128882729 Rises=F Damp=F
 DIIS: error= 2.32D-04 at cycle   7 NSaved=   7.
 NSaved= 7 IEnMin= 7 EnMin= -1199.60054721598     IErMin= 7 ErrMin= 2.32D-04
 ErrMax= 2.32D-04  0.00D+00 EMaxC= 1.00D-01 BMatC= 2.76D-05 BMatP= 1.64D-04
 IDIUse=3 WtCom= 9.98D-01 WtEn= 2.32D-03
 Coeff-Com: -0.121D-02 0.111D-02-0.100D-01-0.141D-01 0.223D-01 0.343D+00
 Coeff-Com:  0.659D+00
 Coeff-En:   0.000D+00 0.000D+00 0.000D+00 0.000D+00 0.000D+00 0.000D+00
 Coeff-En:   0.100D+01
 Coeff:     -0.121D-02 0.111D-02-0.997D-02-0.141D-01 0.223D-01 0.342D+00
 Coeff:      0.660D+00
 Gap=     0.265 Goal=   None    Shift=    0.000
 RMSDP=6.40D-05 MaxDP=3.85D-03 DE=-1.29D-04 OVMax= 3.36D-03

 Cycle   8  Pass 1  IDiag  1:
 E= -1199.60058085268     Delta-E=       -0.000033636701 Rises=F Damp=F
 DIIS: error= 9.62D-05 at cycle   8 NSaved=   8.
 NSaved= 8 IEnMin= 8 EnMin= -1199.60058085268     IErMin= 8 ErrMin= 9.62D-05
 ErrMax= 9.62D-05  0.00D+00 EMaxC= 1.00D-01 BMatC= 2.38D-06 BMatP= 2.76D-05
 IDIUse=1 WtCom= 1.00D+00 WtEn= 0.00D+00
 Coeff-Com: -0.477D-02 0.638D-02-0.723D-02-0.114D-01-0.262D-01-0.696D-02
 Coeff-Com:  0.174D+00 0.876D+00
 Coeff:     -0.477D-02 0.638D-02-0.723D-02-0.114D-01-0.262D-01-0.696D-02
 Coeff:      0.174D+00 0.876D+00
 Gap=     0.265 Goal=   None    Shift=    0.000
 RMSDP=2.64D-05 MaxDP=1.05D-03 DE=-3.36D-05 OVMax= 3.06D-03

 Cycle   9  Pass 1  IDiag  1:
 E= -1199.60059192800     Delta-E=       -0.000011075315 Rises=F Damp=F
 DIIS: error= 7.97D-05 at cycle   9 NSaved=   9.
 NSaved= 9 IEnMin= 9 EnMin= -1199.60059192800     IErMin= 9 ErrMin= 7.97D-05
 ErrMax= 7.97D-05  0.00D+00 EMaxC= 1.00D-01 BMatC= 5.20D-07 BMatP= 2.38D-06
 IDIUse=1 WtCom= 1.00D+00 WtEn= 0.00D+00
 Coeff-Com: -0.512D-03 0.736D-03 0.750D-03 0.178D-02-0.457D-02-0.457D-01
 Coeff-Com: -0.113D+00-0.776D-01 0.124D+01
 Coeff:     -0.512D-03 0.736D-03 0.750D-03 0.178D-02-0.457D-02-0.457D-01
 Coeff:     -0.113D+00-0.776D-01 0.124D+01
 Gap=     0.265 Goal=   None    Shift=    0.000
 RMSDP=2.29D-05 MaxDP=5.46D-04 DE=-1.11D-05 OVMax= 3.13D-03

 Cycle  10  Pass 1  IDiag  1:
 E= -1199.60059780744     Delta-E=       -0.000005879449 Rises=F Damp=F
 DIIS: error= 3.67D-05 at cycle  10 NSaved=  10.
 NSaved=10 IEnMin=10 EnMin= -1199.60059780744     IErMin=10 ErrMin= 3.67D-05
 ErrMax= 3.67D-05  0.00D+00 EMaxC= 1.00D-01 BMatC= 3.79D-07 BMatP= 5.20D-07
 IDIUse=1 WtCom= 1.00D+00 WtEn= 0.00D+00
 Coeff-Com:  0.101D-02-0.133D-02 0.241D-02 0.421D-02 0.478D-02-0.234D-01
 Coeff-Com: -0.122D+00-0.341D+00 0.771D+00 0.704D+00
 Coeff:      0.101D-02-0.133D-02 0.241D-02 0.421D-02 0.478D-02-0.234D-01
 Coeff:     -0.122D+00-0.341D+00 0.771D+00 0.704D+00
 Gap=     0.265 Goal=   None    Shift=    0.000
 RMSDP=1.39D-05 MaxDP=3.20D-04 DE=-5.88D-06 OVMax= 1.78D-03

 Cycle  11  Pass 1  IDiag  1:
 E= -1199.60059983120     Delta-E=       -0.000002023754 Rises=F Damp=F
 DIIS: error= 2.57D-05 at cycle  11 NSaved=  11.
 NSaved=11 IEnMin=11 EnMin= -1199.60059983120     IErMin=11 ErrMin= 2.57D-05
 ErrMax= 2.57D-05  0.00D+00 EMaxC= 1.00D-01 BMatC= 4.86D-08 BMatP= 3.79D-07
 IDIUse=1 WtCom= 1.00D+00 WtEn= 0.00D+00
 Coeff-Com:  0.411D-03-0.558D-03 0.148D-03 0.175D-04 0.230D-02 0.127D-01
 Coeff-Com:  0.223D-01-0.244D-01-0.272D+00-0.507D-03 0.126D+01
 Coeff:      0.411D-03-0.558D-03 0.148D-03 0.175D-04 0.230D-02 0.127D-01
 Coeff:      0.223D-01-0.244D-01-0.272D+00-0.507D-03 0.126D+01
 Gap=     0.265 Goal=   None    Shift=    0.000
 RMSDP=1.19D-05 MaxDP=3.64D-04 DE=-2.02D-06 OVMax= 1.43D-03

 Cycle  12  Pass 1  IDiag  1:
 E= -1199.60060057726     Delta-E=       -0.000000746067 Rises=F Damp=F
 DIIS: error= 9.94D-06 at cycle  12 NSaved=  12.
 NSaved=12 IEnMin=12 EnMin= -1199.60060057726     IErMin=12 ErrMin= 9.94D-06
 ErrMax= 9.94D-06  0.00D+00 EMaxC= 1.00D-01 BMatC= 3.00D-08 BMatP= 4.86D-08
 IDIUse=1 WtCom= 1.00D+00 WtEn= 0.00D+00
 Coeff-Com: -0.449D-04 0.528D-04-0.490D-03-0.979D-03 0.127D-03 0.133D-01
 Coeff-Com:  0.389D-01 0.593D-01-0.332D+00-0.184D+00 0.702D+00 0.704D+00
 Coeff:     -0.449D-04 0.528D-04-0.490D-03-0.979D-03 0.127D-03 0.133D-01
 Coeff:      0.389D-01 0.593D-01-0.332D+00-0.184D+00 0.702D+00 0.704D+00
 Gap=     0.265 Goal=   None    Shift=    0.000
 RMSDP=5.87D-06 MaxDP=2.67D-04 DE=-7.46D-07 OVMax= 5.94D-04

 Cycle  13  Pass 1  IDiag  1:
 E= -1199.60060071480     Delta-E=       -0.000000137533 Rises=F Damp=F
 DIIS: error= 3.96D-06 at cycle  13 NSaved=  13.
 NSaved=13 IEnMin=13 EnMin= -1199.60060071480     IErMin=13 ErrMin= 3.96D-06
 ErrMax= 3.96D-06  0.00D+00 EMaxC= 1.00D-01 BMatC= 3.77D-09 BMatP= 3.00D-08
 IDIUse=1 WtCom= 1.00D+00 WtEn= 0.00D+00
 Coeff-Com: -0.197D-03 0.265D-03-0.156D-03-0.145D-03-0.523D-03 0.447D-03
 Coeff-Com:  0.144D-02 0.184D-01 0.686D-03-0.349D-01-0.190D+00 0.152D+00
 Coeff-Com:  0.105D+01
 Coeff:     -0.197D-03 0.265D-03-0.156D-03-0.145D-03-0.523D-03 0.447D-03
 Coeff:      0.144D-02 0.184D-01 0.686D-03-0.349D-01-0.190D+00 0.152D+00
 Coeff:      0.105D+01
 Gap=     0.265 Goal=   None    Shift=    0.000
 RMSDP=2.99D-06 MaxDP=1.71D-04 DE=-1.38D-07 OVMax= 2.58D-04

 Cycle  14  Pass 1  IDiag  1:
 E= -1199.60060073652     Delta-E=       -0.000000021721 Rises=F Damp=F
 DIIS: error= 1.26D-06 at cycle  14 NSaved=  14.
 NSaved=14 IEnMin=14 EnMin= -1199.60060073652     IErMin=14 ErrMin= 1.26D-06
 ErrMax= 1.26D-06  0.00D+00 EMaxC= 1.00D-01 BMatC= 7.61D-10 BMatP= 3.77D-09
 IDIUse=1 WtCom= 1.00D+00 WtEn= 0.00D+00
 Coeff-Com: -0.103D-03 0.138D-03-0.286D-04 0.599D-04-0.166D-03-0.111D-02
 Coeff-Com: -0.240D-02 0.649D-04 0.290D-01 0.692D-02-0.129D+00-0.686D-02
 Coeff-Com:  0.305D+00 0.799D+00
 Coeff:     -0.103D-03 0.138D-03-0.286D-04 0.599D-04-0.166D-03-0.111D-02
 Coeff:     -0.240D-02 0.649D-04 0.290D-01 0.692D-02-0.129D+00-0.686D-02
 Coeff:      0.305D+00 0.799D+00
 Gap=     0.265 Goal=   None    Shift=    0.000
 RMSDP=8.10D-07 MaxDP=5.23D-05 DE=-2.17D-08 OVMax= 5.13D-05

 Cycle  15  Pass 1  IDiag  1:
 E= -1199.60060073857     Delta-E=       -0.000000002055 Rises=F Damp=F
 DIIS: error= 5.47D-07 at cycle  15 NSaved=  15.
 NSaved=15 IEnMin=15 EnMin= -1199.60060073857     IErMin=15 ErrMin= 5.47D-07
 ErrMax= 5.47D-07  0.00D+00 EMaxC= 1.00D-01 BMatC= 1.86D-10 BMatP= 7.61D-10
 IDIUse=1 WtCom= 1.00D+00 WtEn= 0.00D+00
 Coeff-Com: -0.128D-04 0.164D-04-0.740D-05 0.219D-04 0.505D-04-0.339D-03
 Coeff-Com: -0.602D-04-0.465D-02 0.464D-02 0.114D-01 0.152D-01-0.222D-01
 Coeff-Com: -0.194D+00 0.553D-01 0.113D+01
 Coeff:     -0.128D-04 0.164D-04-0.740D-05 0.219D-04 0.505D-04-0.339D-03
 Coeff:     -0.602D-04-0.465D-02 0.464D-02 0.114D-01 0.152D-01-0.222D-01
 Coeff:     -0.194D+00 0.553D-01 0.113D+01
 Gap=     0.265 Goal=   None    Shift=    0.000
 RMSDP=4.97D-07 MaxDP=2.44D-05 DE=-2.06D-09 OVMax= 3.26D-05

 Cycle  16  Pass 1  IDiag  1:
 E= -1199.60060073942     Delta-E=       -0.000000000846 Rises=F Damp=F
 DIIS: error= 2.85D-07 at cycle  16 NSaved=  16.
 NSaved=16 IEnMin=16 EnMin= -1199.60060073942     IErMin=16 ErrMin= 2.85D-07
 ErrMax= 2.85D-07  0.00D+00 EMaxC= 1.00D-01 BMatC= 3.60D-11 BMatP= 1.86D-10
 IDIUse=1 WtCom= 1.00D+00 WtEn= 0.00D+00
 Coeff-Com:  0.202D-05-0.291D-05-0.523D-05-0.763D-05 0.307D-04 0.722D-04
 Coeff-Com:  0.349D-03-0.139D-02-0.304D-02 0.349D-02 0.206D-01-0.121D-02
 Coeff-Com: -0.102D+00-0.126D+00 0.345D+00 0.864D+00
 Coeff:      0.202D-05-0.291D-05-0.523D-05-0.763D-05 0.307D-04 0.722D-04
 Coeff:      0.349D-03-0.139D-02-0.304D-02 0.349D-02 0.206D-01-0.121D-02
 Coeff:     -0.102D+00-0.126D+00 0.345D+00 0.864D+00
 Gap=     0.265 Goal=   None    Shift=    0.000
 RMSDP=1.81D-07 MaxDP=7.84D-06 DE=-8.46D-10 OVMax= 1.48D-05

 Cycle  17  Pass 1  IDiag  1:
 E= -1199.60060073953     Delta-E=       -0.000000000109 Rises=F Damp=F
 DIIS: error= 1.79D-07 at cycle  17 NSaved=  17.
 NSaved=17 IEnMin=17 EnMin= -1199.60060073953     IErMin=17 ErrMin= 1.79D-07
 ErrMax= 1.79D-07  0.00D+00 EMaxC= 1.00D-01 BMatC= 1.06D-11 BMatP= 3.60D-11
 IDIUse=1 WtCom= 1.00D+00 WtEn= 0.00D+00
 Coeff-Com:  0.197D-05-0.230D-05-0.484D-06-0.136D-04-0.138D-04 0.195D-03
 Coeff-Com:  0.101D-03 0.174D-02-0.316D-02-0.324D-02-0.264D-02 0.120D-01
 Coeff-Com:  0.552D-01-0.675D-01-0.412D+00 0.308D+00 0.111D+01
 Coeff:      0.197D-05-0.230D-05-0.484D-06-0.136D-04-0.138D-04 0.195D-03
 Coeff:      0.101D-03 0.174D-02-0.316D-02-0.324D-02-0.264D-02 0.120D-01
 Coeff:      0.552D-01-0.675D-01-0.412D+00 0.308D+00 0.111D+01
 Gap=     0.265 Goal=   None    Shift=    0.000
 RMSDP=1.62D-07 MaxDP=7.92D-06 DE=-1.09D-10 OVMax= 1.38D-05

 Cycle  18  Pass 1  IDiag  1:
 E= -1199.60060073969     Delta-E=       -0.000000000159 Rises=F Damp=F
 DIIS: error= 4.93D-08 at cycle  18 NSaved=  18.
 NSaved=18 IEnMin=18 EnMin= -1199.60060073969     IErMin=18 ErrMin= 4.93D-08
 ErrMax= 4.93D-08  0.00D+00 EMaxC= 1.00D-01 BMatC= 6.27D-13 BMatP= 1.06D-11
 IDIUse=1 WtCom= 1.00D+00 WtEn= 0.00D+00
 Coeff-Com: -0.973D-06 0.135D-05 0.487D-06 0.704D-06-0.537D-05-0.123D-04
 Coeff-Com: -0.663D-04 0.137D-03 0.712D-03-0.273D-03-0.418D-02-0.645D-04
 Coeff-Com:  0.164D-01 0.255D-01-0.584D-01-0.128D+00-0.578D-03 0.115D+01
 Coeff:     -0.973D-06 0.135D-05 0.487D-06 0.704D-06-0.537D-05-0.123D-04
 Coeff:     -0.663D-04 0.137D-03 0.712D-03-0.273D-03-0.418D-02-0.645D-04
 Coeff:      0.164D-01 0.255D-01-0.584D-01-0.128D+00-0.578D-03 0.115D+01
 Gap=     0.265 Goal=   None    Shift=    0.000
 RMSDP=4.95D-08 MaxDP=2.33D-06 DE=-1.59D-10 OVMax= 3.81D-06

 Cycle  19  Pass 1  IDiag  1:
 E= -1199.60060073957     Delta-E=        0.000000000118 Rises=F Damp=F
 DIIS: error= 1.10D-08 at cycle  19 NSaved=  19.
 NSaved=19 IEnMin=18 EnMin= -1199.60060073969     IErMin=19 ErrMin= 1.10D-08
 ErrMax= 1.10D-08  0.00D+00 EMaxC= 1.00D-01 BMatC= 8.96D-14 BMatP= 6.27D-13
 IDIUse=1 WtCom= 1.00D+00 WtEn= 0.00D+00
 Coeff-Com: -0.781D-06 0.102D-05-0.384D-06 0.662D-06-0.141D-05-0.222D-04
 Coeff-Com: -0.233D-05-0.849D-04 0.354D-03 0.145D-03-0.607D-03-0.925D-03
 Coeff-Com: -0.114D-02 0.123D-01 0.258D-01-0.636D-01-0.113D+00 0.308D+00
 Coeff-Com:  0.833D+00
 Coeff:     -0.781D-06 0.102D-05-0.384D-06 0.662D-06-0.141D-05-0.222D-04
 Coeff:     -0.233D-05-0.849D-04 0.354D-03 0.145D-03-0.607D-03-0.925D-03
 Coeff:     -0.114D-02 0.123D-01 0.258D-01-0.636D-01-0.113D+00 0.308D+00
 Coeff:      0.833D+00
 Gap=     0.265 Goal=   None    Shift=    0.000
 RMSDP=9.86D-09 MaxDP=5.05D-07 DE= 1.18D-10 OVMax= 6.19D-07

 SCF Done:  E(RwB97XD) =  -1199.60060074     A.U. after   19 cycles
            NFock= 19  Conv=0.99D-08     -V/T= 2.0017
 KE= 1.197620028965D+03 PE=-4.659091338596D+03 EE= 1.355409023384D+03
 Leave Link  502 at Fri May 23 03:17:11 2025, MaxMem=  3758096384 cpu:              78.3 elap:              16.2
 (Enter /apps/easybuild-2022/easybuild/software/Compiler/NVHPC/22.11-CUDA-11.7.0/Gaussian/g16c01-CUDA-11.7.0/g16/l508.exe)
 QCSCF skips out because SCF is already converged.
 Leave Link  508 at Fri May 23 03:17:11 2025, MaxMem=  3758096384 cpu:               0.0 elap:               0.0
 (Enter /apps/easybuild-2022/easybuild/software/Compiler/NVHPC/22.11-CUDA-11.7.0/Gaussian/g16c01-CUDA-11.7.0/g16/l801.exe)
 DoSCS=F DFT=T ScalE2(SS,OS)=  1.000000  1.000000
 Range of M.O.s used for correlation:     1   257
 NBasis=   257 NAE=    49 NBE=    49 NFC=     0 NFV=     0
 NROrb=    257 NOA=    49 NOB=    49 NVA=   208 NVB=   208

 **** Warning!!: The largest alpha MO coefficient is  0.36220137D+02

 Leave Link  801 at Fri May 23 03:17:11 2025, MaxMem=  3758096384 cpu:               0.0 elap:               0.0
 (Enter /apps/easybuild-2022/easybuild/software/Compiler/NVHPC/22.11-CUDA-11.7.0/Gaussian/g16c01-CUDA-11.7.0/g16/l1101.exe)
 Using compressed storage, NAtomX=    12.
 Will process     13 centers per pass.
 R6Disp: Adding Grimme-D2 dispersion energy 1st derivatives to the gradient.
 Leave Link 1101 at Fri May 23 03:17:12 2025, MaxMem=  3758096384 cpu:               0.5 elap:               0.1
 (Enter /apps/easybuild-2022/easybuild/software/Compiler/NVHPC/22.11-CUDA-11.7.0/Gaussian/g16c01-CUDA-11.7.0/g16/l1102.exe)
 Symmetrizing basis deriv contribution to polar:
 IMax=3 JMax=2 DiffMx= 0.00D+00
 Leave Link 1102 at Fri May 23 03:17:12 2025, MaxMem=  3758096384 cpu:               0.0 elap:               0.0
 (Enter /apps/easybuild-2022/easybuild/software/Compiler/NVHPC/22.11-CUDA-11.7.0/Gaussian/g16c01-CUDA-11.7.0/g16/l1110.exe)
 Forming Gx(P) for the SCF density, NAtomX=    12.
 Integral derivatives from FoFJK, PRISM(SPDF).
 Do as many integral derivatives as possible in FoFJK.
 G2DrvN: MDV=    3758095012.
 G2DrvN: will do    13 centers at a time, making    1 passes.
 Calling FoFCou, ICntrl=  3107 FMM=F I1Cent=   0 AccDes= 0.00D+00.
 FoFJK:  IHMeth= 1 ICntrl=    3107 DoSepK=T KAlg= 0 I1Cent=           0 FoldK=F
 IRaf=         1 NMat=       1 IRICut=       1 DoRegI=T DoRafI=F ISym2E= 0 IDoP0=0 IntGTp=1.
 FoFCou: FMM=F IPFlag=           0 FMFlag=      100000 FMFlg1=           0
         NFxFlg=           0 DoJE=F BraDBF=F KetDBF=F FulRan=T
         wScrn=  0.000000 ICntrl=      3507 IOpCl=  0 I1Cent=           0 NGrid=           0
         NMat0=    1 NMatS0=      1 NMatT0=    0 NMatD0=    1 NMtDS0=    0 NMtDT0=    0
 Symmetry not used in FoFCou.
 End of G2Drv F.D. properties file   721 does not exist.
 End of G2Drv F.D. properties file   722 does not exist.
 End of G2Drv F.D. properties file   788 does not exist.
 Leave Link 1110 at Fri May 23 03:17:24 2025, MaxMem=  3758096384 cpu:             101.6 elap:              12.8
 (Enter /apps/easybuild-2022/easybuild/software/Compiler/NVHPC/22.11-CUDA-11.7.0/Gaussian/g16c01-CUDA-11.7.0/g16/l1002.exe)
 Minotr:  Closed shell wavefunction.
          IDoAtm=111111111111
          Direct CPHF calculation.
          Differentiating once with respect to electric field.
                with respect to dipole field.
          Differentiating once with respect to nuclear coordinates.
          Requested convergence is 1.0D-08 RMS, and 1.0D-07 maximum.
          Secondary convergence is 1.0D-12 RMS, and 1.0D-12 maximum.
          NewPWx=T KeepS1=F KeepF1=F KeepIn=T MapXYZ=F SortEE=F KeepMc=T.
         3724 words used for storage of precomputed grid.
 Keep R1 ints in memory in canonical form, NReq=1117480316.
 FoFCou: FMM=F IPFlag=           0 FMFlag=           0 FMFlg1=           0
         NFxFlg=           0 DoJE=F BraDBF=F KetDBF=F FulRan=T
         wScrn=  0.000000 ICntrl=       600 IOpCl=  0 I1Cent=           0 NGrid=           0
         NMat0=    1 NMatS0=  33153 NMatT0=    0 NMatD0=    1 NMtDS0=    0 NMtDT0=    0
 Symmetry not used in FoFCou.
 Two-electron integral symmetry not used.
          MDV=    3758096384 using IRadAn=       1.
          Solving linear equations simultaneously, MaxMat=       0.
          There are    39 degrees of freedom in the 1st order CPHF.  IDoFFX=6 NUNeed=     3.
     36 vectors produced by pass  0 Test12= 2.61D-14 2.56D-09 XBig12= 2.81D+01 1.84D+00.
 AX will form    36 AO Fock derivatives at one time.
     36 vectors produced by pass  1 Test12= 2.61D-14 2.56D-09 XBig12= 6.06D+00 3.81D-01.
     36 vectors produced by pass  2 Test12= 2.61D-14 2.56D-09 XBig12= 3.34D-01 1.01D-01.
     36 vectors produced by pass  3 Test12= 2.61D-14 2.56D-09 XBig12= 8.09D-03 1.51D-02.
     36 vectors produced by pass  4 Test12= 2.61D-14 2.56D-09 XBig12= 1.38D-04 1.65D-03.
     36 vectors produced by pass  5 Test12= 2.61D-14 2.56D-09 XBig12= 1.31D-06 1.58D-04.
     36 vectors produced by pass  6 Test12= 2.61D-14 2.56D-09 XBig12= 1.07D-08 1.38D-05.
     28 vectors produced by pass  7 Test12= 2.61D-14 2.56D-09 XBig12= 7.88D-11 1.07D-06.
      8 vectors produced by pass  8 Test12= 2.61D-14 2.56D-09 XBig12= 5.14D-13 7.20D-08.
      3 vectors produced by pass  9 Test12= 2.61D-14 2.56D-09 XBig12= 3.15D-15 5.76D-09.
 InvSVY:  IOpt=1 It=  1 EMax= 6.22D-15
 Solved reduced A of dimension   291 with    39 vectors.
 FullF1:  Do perturbations      1 to       3.
 Isotropic polarizability for W=    0.000000       61.90 Bohr**3.
 End of Minotr F.D. properties file   721 does not exist.
 End of Minotr F.D. properties file   722 does not exist.
 End of Minotr F.D. properties file   788 does not exist.
 Leave Link 1002 at Fri May 23 03:17:51 2025, MaxMem=  3758096384 cpu:             206.5 elap:              26.4
 (Enter /apps/easybuild-2022/easybuild/software/Compiler/NVHPC/22.11-CUDA-11.7.0/Gaussian/g16c01-CUDA-11.7.0/g16/l701.exe)
 ... and contract with generalized density number  0.
 Compute integral second derivatives.
 R6Disp: Adding Grimme-D2 dispersion energy 2nd derivatives to the Hessian.
 Leave Link  701 at Fri May 23 03:17:51 2025, MaxMem=  3758096384 cpu:               0.5 elap:               0.1
 (Enter /apps/easybuild-2022/easybuild/software/Compiler/NVHPC/22.11-CUDA-11.7.0/Gaussian/g16c01-CUDA-11.7.0/g16/l702.exe)
 L702 exits ... SP integral derivatives will be done elsewhere.
 Leave Link  702 at Fri May 23 03:17:51 2025, MaxMem=  3758096384 cpu:               0.0 elap:               0.0
 (Enter /apps/easybuild-2022/easybuild/software/Compiler/NVHPC/22.11-CUDA-11.7.0/Gaussian/g16c01-CUDA-11.7.0/g16/l703.exe)
 Integral derivatives from FoFJK, PRISM(SPDF).
 Compute integral second derivatives, UseDBF=F ICtDFT=           0.
 Calling FoFJK, ICntrl=    100127 FMM=F ISym2X=0 I1Cent= 0 IOpClX= 0 NMat=1 NMatS=1 NMatT=0.
 FoFJK:  IHMeth= 1 ICntrl=  100127 DoSepK=T KAlg= 0 I1Cent=           0 FoldK=F
 IRaf=         1 NMat=       1 IRICut=       1 DoRegI=T DoRafI=F ISym2E= 0 IDoP0=0 IntGTp=1.
 FoFCou: FMM=F IPFlag=           0 FMFlag=      100000 FMFlg1=         800
         NFxFlg=           0 DoJE=F BraDBF=F KetDBF=F FulRan=T
         wScrn=  0.000000 ICntrl=    100527 IOpCl=  0 I1Cent=           0 NGrid=           0
         NMat0=    1 NMatS0=      1 NMatT0=    0 NMatD0=    1 NMtDS0=    0 NMtDT0=    0
 Symmetry not used in FoFCou.
 Leave Link  703 at Fri May 23 03:18:28 2025, MaxMem=  3758096384 cpu:             292.3 elap:              36.8
 (Enter /apps/easybuild-2022/easybuild/software/Compiler/NVHPC/22.11-CUDA-11.7.0/Gaussian/g16c01-CUDA-11.7.0/g16/l716.exe)
 Dipole        =-7.88736598D-01-1.34258591D-01-1.58181364D-01
 Polarizability= 6.92209370D+01 8.03694653D+00 6.12857543D+01
                -1.25751900D+00 1.35448069D+00 5.52066723D+01
 -------------------------------------------------------------------
 Center     Atomic                   Forces (Hartrees/Bohr)
 Number     Number              X              Y              Z
 -------------------------------------------------------------------
      1        6          -0.015131634    0.000224993    0.038717689
      2        6          -0.062263477    0.027054579   -0.028917517
      3        9           0.017719465   -0.010496104    0.014841657
      4        9           0.015629341   -0.007352261    0.014132812
      5       16           0.141644029    0.360298397    0.123113981
      6        8          -0.091169949   -0.128893312    0.123321817
      7        8           0.029021612   -0.192940340   -0.067523870
      8        8          -0.037960250   -0.032572738   -0.191034355
      9        9           0.014621535   -0.006069055   -0.008724207
     10        9           0.007998783    0.003535829   -0.014356586
     11        9          -0.001523574    0.002427523   -0.016210035
     12        1          -0.018585880   -0.015217512    0.012638614
 -------------------------------------------------------------------
 Cartesian Forces:  Max     0.360298397 RMS     0.090787459
 Force constants in Cartesian coordinates: 
                1             2             3             4             5 
      1  0.568652D+00
      2  0.108379D-01  0.535202D+00
      3 -0.119066D-01 -0.181677D-01  0.553551D+00
      4 -0.899216D-01 -0.587709D-02  0.334060D-01  0.445392D+00
      5 -0.190176D-01 -0.535134D-01  0.303796D-01 -0.213257D-01  0.468664D+00
      6  0.639482D-01  0.261515D-01 -0.123602D+00  0.758518D-02 -0.234116D-01
      7 -0.861188D-03 -0.270985D-02  0.172236D-02 -0.104459D+00 -0.296464D-01
      8 -0.247900D-02  0.145735D-02 -0.363919D-02 -0.244558D-01 -0.879310D-01
      9 -0.258333D-01 -0.256764D-01 -0.327792D-01 -0.521939D-01 -0.460942D-01
     10  0.618402D-02 -0.874323D-02  0.275125D-02 -0.797134D-01  0.418588D-01
     11  0.122715D-01 -0.378585D-01  0.220320D-02  0.313954D-01 -0.260417D+00
     12 -0.960072D-02  0.287128D-01 -0.177302D-02 -0.485059D-02  0.415925D-01
     13 -0.221015D-01 -0.364935D-03  0.188873D-01 -0.171248D+00  0.180732D-01
     14 -0.102151D-01  0.243832D-01 -0.865590D-02  0.191153D-01 -0.223717D-01
     15  0.298010D-01 -0.738487D-02  0.218311D-01  0.220284D-01  0.686794D-02
     16  0.290762D-02  0.309421D-02 -0.727885D-03  0.101427D-01 -0.579127D-02
     17  0.128065D-02 -0.374993D-02 -0.100055D-02  0.396193D-02 -0.392049D-02
     18 -0.346803D-02  0.521171D-03 -0.604656D-02 -0.337626D-02 -0.208159D-02
     19 -0.227069D-03  0.640264D-03 -0.633892D-02  0.115505D-01  0.199855D-01
     20  0.314556D-02 -0.892864D-02  0.609035D-02 -0.817394D-02 -0.121904D-01
     21 -0.232703D-02  0.311183D-03 -0.310373D-02 -0.861012D-02 -0.580466D-02
     22  0.423038D-03  0.137996D-02 -0.377778D-02  0.487837D-02 -0.466089D-03
     23  0.327129D-02 -0.178609D-02 -0.783853D-03  0.106552D-01 -0.604342D-02
     24 -0.309176D-02 -0.791097D-04 -0.321459D-02 -0.153338D-02 -0.290323D-02
     25 -0.107183D+00  0.598865D-01 -0.418060D-01  0.526337D-02 -0.139349D-02
     26  0.599105D-01 -0.190708D+00  0.909103D-01  0.166609D-01 -0.149757D-01
     27 -0.410106D-01  0.909877D-01 -0.145143D+00 -0.202347D-01  0.271341D-01
     28 -0.835017D-01  0.161535D-01  0.247274D-01  0.468753D-02  0.128133D-01
     29  0.184588D-01 -0.161707D+00 -0.931466D-01  0.787918D-03 -0.996652D-02
     30  0.241045D-01 -0.877934D-01 -0.179727D+00  0.749744D-02 -0.301744D-01
     31 -0.273889D+00 -0.738914D-01 -0.162628D-01 -0.382383D-01 -0.109521D-01
     32 -0.762058D-01 -0.102788D+00 -0.576467D-02 -0.211334D-01 -0.437169D-03
     33 -0.209711D-01 -0.799568D-02 -0.814153D-01  0.206002D-01  0.364853D-02
     34 -0.481344D-03 -0.405801D-03 -0.674429D-03  0.166511D-02 -0.413821D-02
     35 -0.125872D-02 -0.200987D-05  0.157506D-02 -0.161081D-02  0.310293D-02
     36  0.355288D-03  0.412810D-03  0.142310D-02 -0.318322D-03  0.847074D-03
                6             7             8             9            10 
      6  0.453957D+00
      7 -0.711627D-01  0.109846D+00
      8 -0.508862D-01  0.548326D-01  0.155265D+00
      9 -0.194884D+00  0.902239D-01  0.108895D+00  0.245413D+00
     10 -0.863112D-02  0.124749D-01 -0.245208D-01 -0.547373D-02  0.698513D-01
     11  0.528949D-01 -0.120976D-01 -0.752584D-01 -0.381891D-01 -0.366006D-01
     12 -0.812739D-01 -0.262877D-02 -0.546285D-01  0.139688D-02  0.107712D-01
     13 -0.907286D-02 -0.189059D-01 -0.388531D-02 -0.113092D-01 -0.340652D-03
     14  0.962754D-02 -0.152918D-01 -0.494953D-02 -0.121299D-01  0.281665D-01
     15 -0.431751D-01 -0.336858D-01 -0.568147D-02 -0.152692D-01 -0.459274D-02
     16 -0.307554D-02 -0.482693D-02 -0.763376D-03 -0.256327D-02 -0.163715D-02
     17  0.163138D-02 -0.200667D-04  0.911447D-03  0.428238D-03 -0.887864D-03
     18  0.422726D-02 -0.219900D-03 -0.201345D-04  0.391297D-03 -0.523202D-03
     19  0.120757D-01  0.111846D-02  0.436925D-03  0.685053D-03 -0.844289D-02
     20 -0.133024D-01  0.221651D-02  0.518508D-02  0.542080D-02  0.484481D-02
     21  0.460427D-02  0.419954D-02  0.341981D-02  0.484645D-02  0.145186D-02
     22  0.474503D-02 -0.632455D-03 -0.749774D-03 -0.110124D-02 -0.184450D-02
     23  0.581802D-03 -0.162201D-02  0.759923D-03 -0.392652D-03 -0.698759D-03
     24  0.834105D-02  0.387473D-02  0.756887D-03  0.232296D-02  0.146629D-02
     25  0.139806D-02  0.133694D-02 -0.152035D-03  0.126346D-02  0.662857D-03
     26  0.699989D-02 -0.109759D-02  0.148953D-02  0.652370D-02 -0.301795D-02
     27 -0.394269D-02  0.138047D-02 -0.167283D-02 -0.386462D-02  0.346747D-02
     28  0.819507D-02 -0.457495D-04  0.892319D-04  0.551668D-02  0.639174D-03
     29 -0.505681D-02  0.147647D-02  0.152791D-02 -0.509916D-03 -0.220526D-02
     30 -0.209783D-01  0.137133D-02  0.727875D-03 -0.831678D-02  0.209500D-03
     31 -0.879332D-02  0.453578D-02  0.121509D-02  0.572797D-03  0.179030D-02
     32 -0.403619D-02  0.265067D-02  0.150821D-02  0.100027D-02  0.120688D-02
     33  0.162343D-02  0.633293D-02  0.303564D-02  0.126126D-02 -0.617137D-03
     34  0.278832D-02  0.419141D-03  0.432326D-03  0.212668D-03  0.376123D-03
     35 -0.119382D-02  0.130907D-02  0.346128D-04  0.724426D-03  0.597601D-03
     36 -0.489708D-02 -0.140805D-02 -0.306511D-03 -0.517389D-03 -0.279597D-03
               11            12            13            14            15 
     11  0.390471D+00
     12 -0.267156D-01  0.870485D-01
     13  0.523924D-02  0.129079D-02  0.334854D+00
     14 -0.271478D-01  0.387284D-02 -0.300472D+00  0.135617D+01
     15  0.106806D-02  0.749934D-03 -0.880704D-01  0.449980D+00  0.351747D+00
     16  0.449401D-03 -0.964415D-03 -0.531314D-01  0.271635D-01 -0.320360D-02
     17  0.315004D-02  0.319382D-03  0.371977D-01 -0.497766D-01  0.182586D-01
     18  0.800313D-03  0.763912D-03  0.939428D-02  0.121762D-02 -0.791591D-01
     19  0.746367D-02 -0.763740D-03 -0.423100D-01  0.236575D+00  0.821770D-01
     20 -0.214828D-02 -0.204313D-03  0.217354D+00 -0.123122D+01 -0.454451D+00
     21  0.840614D-03  0.469509D-03  0.791614D-01 -0.462340D+00 -0.155634D+00
     22 -0.212067D-02  0.123444D-02 -0.160396D-01  0.137164D-01  0.525436D-02
     23  0.519944D-02 -0.158836D-02  0.162676D-01 -0.193484D-01  0.545508D-02
     24 -0.151638D-02  0.175286D-03  0.663833D-02  0.113555D-01 -0.836499D-01
     25 -0.172413D-02  0.111984D-02 -0.639802D-04  0.566855D-02 -0.434085D-02
     26 -0.231016D-02  0.438032D-02  0.948237D-03 -0.816297D-02  0.299549D-02
     27  0.665545D-02 -0.739338D-02 -0.296084D-02  0.162832D-02 -0.486317D-02
     28 -0.127368D-02  0.611373D-03  0.151707D-02 -0.432808D-03 -0.218995D-02
     29  0.625308D-02  0.391411D-02 -0.226810D-02 -0.397044D-02 -0.155045D-02
     30 -0.111076D-03  0.202775D-03 -0.495687D-02  0.142167D-02 -0.608043D-02
     31 -0.459829D-02  0.405778D-02  0.506211D-02 -0.260329D-02  0.124771D-02
     32  0.143094D-02  0.250322D-03  0.196068D-02 -0.399272D-02  0.233372D-02
     33  0.202049D-02 -0.378461D-03 -0.229332D-02  0.272043D-02 -0.543793D-02
     34  0.159573D-02 -0.277152D-03 -0.172929D-01 -0.139068D-02 -0.442520D-02
     35 -0.136424D-02  0.945709D-04  0.994968D-02 -0.960998D-02 -0.178917D-01
     36  0.490882D-04  0.119526D-04  0.329137D-02  0.130123D-02  0.189402D-01
               16            17            18            19            20 
     16 -0.758825D-02
     17 -0.166854D-01 -0.595266D-04
     18 -0.204780D-01 -0.811671D-01  0.355764D+00
     19  0.689663D-02 -0.138917D-01 -0.490819D-02  0.280425D-01
     20  0.120080D-01  0.162045D-01  0.104452D-02 -0.239164D+00  0.122826D+01
     21  0.107206D-01 -0.829282D-02  0.155055D-01 -0.849962D-01  0.461665D+00
     22  0.509658D-01 -0.712650D-02  0.274352D-01  0.106853D-02  0.610610D-02
     23 -0.187234D-01  0.304169D-01  0.727223D-01 -0.772261D-02 -0.191481D-02
     24  0.133513D-01  0.565332D-01 -0.262203D+00 -0.192967D-02 -0.137846D-01
     25 -0.818166D-03 -0.197944D-02  0.791489D-03 -0.277905D-03 -0.274611D-02
     26 -0.140272D-02  0.742619D-03 -0.561631D-03 -0.652556D-03  0.423202D-02
     27  0.763692D-03 -0.208408D-03  0.144741D-02  0.243940D-02 -0.920145D-03
     28 -0.123842D-02  0.132276D-03  0.570815D-03 -0.172692D-03  0.929846D-04
     29 -0.537245D-03  0.151314D-02  0.973591D-03  0.633676D-03  0.160310D-02
     30  0.440929D-03  0.101967D-02  0.204069D-02  0.156312D-02 -0.526998D-03
     31 -0.794901D-03 -0.274082D-03 -0.926376D-04 -0.156103D-02  0.163497D-02
     32 -0.509742D-03  0.430284D-03 -0.326917D-03 -0.805423D-03  0.177725D-02
     33  0.153052D-03  0.181280D-03  0.123265D-02  0.120293D-02 -0.134880D-02
     34 -0.877519D-03 -0.170750D-02 -0.512557D-02  0.431503D-02  0.268128D-02
     35  0.169807D-02  0.413758D-02  0.687789D-02 -0.349888D-02 -0.856087D-03
     36  0.558313D-02  0.122971D-01 -0.339636D-01 -0.120656D-02  0.103173D-01
               21            22            23            24            25 
     21  0.121607D+00
     22 -0.184630D-02  0.187807D-01
     23  0.511827D-02  0.142072D+00  0.287470D+00
     24  0.150349D-01  0.600476D-01  0.158047D+00  0.495502D+00
     25  0.148463D-02  0.294296D-03 -0.146039D-02  0.879628D-03  0.171471D+00
     26 -0.272514D-03 -0.315158D-03  0.912392D-03  0.523648D-04 -0.129923D+00
     27 -0.268412D-03  0.664907D-03 -0.139114D-03  0.597506D-03  0.829850D-01
     28  0.390119D-03 -0.277940D-03 -0.599710D-03  0.486892D-03  0.587789D-03
     29  0.374113D-03  0.138347D-03  0.725777D-03  0.447494D-03  0.356120D-01
     30  0.930992D-03  0.101274D-02  0.456466D-03  0.941963D-03  0.326066D-02
     31  0.442425D-03 -0.103425D-02 -0.938466D-03  0.267427D-03 -0.711624D-01
     32  0.473239D-05 -0.555243D-03  0.574567D-04  0.532725D-04  0.374490D-01
     33  0.688994D-03  0.588063D-03 -0.706483D-04  0.622462D-03 -0.471084D-01
     34 -0.708598D-04 -0.565820D-01 -0.140501D+00 -0.804575D-01 -0.110890D-03
     35  0.497597D-02 -0.152080D+00 -0.296449D+00 -0.208963D+00  0.762183D-03
     36 -0.468133D-02 -0.942570D-01 -0.239407D+00 -0.174471D+00  0.724742D-04
               26            27            28            29            30 
     26  0.274106D+00
     27 -0.113198D+00  0.144469D+00
     28  0.384416D-01  0.990057D-02  0.857546D-01
     29 -0.800156D-01 -0.218417D-01 -0.185265D-01  0.279064D+00
     30 -0.407414D-02  0.217628D-01 -0.760745D-02  0.156686D+00  0.204487D+00
     31  0.202266D-01 -0.372381D-01 -0.806135D-02 -0.338766D-01 -0.270912D-01
     32  0.146632D-01  0.117239D-01 -0.472237D-01 -0.345960D-01 -0.369156D-01
     33  0.650525D-02 -0.270668D-02 -0.405646D-01 -0.399549D-01 -0.148418D-01
     34  0.220834D-03 -0.157275D-03  0.111729D-03  0.306500D-03  0.195310D-03
     35  0.266932D-04 -0.149037D-03  0.333486D-03 -0.430860D-03 -0.715570D-03
     36 -0.260838D-03 -0.950031D-04 -0.369000D-04 -0.334416D-03 -0.421817D-03
               31            32            33            34            35 
     31  0.383439D+00
     32  0.103135D+00  0.121640D+00
     33  0.825438D-01  0.315900D-01  0.996117D-01
     34 -0.858492D-04  0.315411D-04  0.133577D-03  0.685434D-01
     35  0.923035D-03  0.305862D-03 -0.331596D-03  0.142875D+00  0.301105D+00
     36  0.346134D-03  0.871267D-04 -0.260404D-03  0.878581D-01  0.214997D+00
               36 
     36  0.198932D+00
 FormGI is forming the generalized inverse of G from B-inverse, IUseBI=4.
 Leave Link  716 at Fri May 23 03:18:28 2025, MaxMem=  3758096384 cpu:               0.0 elap:               0.0
 (Enter /apps/easybuild-2022/easybuild/software/Compiler/NVHPC/22.11-CUDA-11.7.0/Gaussian/g16c01-CUDA-11.7.0/g16/l103.exe)

 GradGradGradGradGradGradGradGradGradGradGradGradGradGradGradGradGradGrad
 Berny optimization.
 Red2BG is reusing G-inverse.
 Internal  Forces:  Max     0.243048759 RMS     0.063087983
 Search for a saddle point.
 Step number   1 out of a maximum of  100
 All quantities printed in internal units (Hartrees-Bohrs-Radians)
 Swapping is turned off.
 Second derivative matrix not updated -- analytic derivatives used.
 ITU=  0
     Eigenvalues ---   -0.18251  -0.04718  -0.00162   0.00012   0.00312
     Eigenvalues ---    0.04268   0.04923   0.06671   0.08838   0.09966
     Eigenvalues ---    0.10582   0.10908   0.12906   0.14387   0.16895
     Eigenvalues ---    0.20227   0.22173   0.23298   0.24307   0.25046
     Eigenvalues ---    0.26718   0.32883   0.35408   0.37445   0.39097
     Eigenvalues ---    0.46007   0.52868   0.59273   1.18085   1.44284
 Eigenvectors required to have negative eigenvalues:
                          A15       A13       D19       D20       A16
   1                   -0.53662   0.47139   0.36450  -0.34613  -0.28741
                          A18       D17       D11       D14       D13
   1                    0.18877   0.14511   0.14500   0.14391  -0.12156
 Eigenvalue     2 is  -4.72D-02 should be greater than     0.000000 Eigenvector:
                          R8        R10       D20       D19       A19
   1                    0.69565  -0.68487   0.11012   0.10598   0.08933
                          D21       A17       D12       A15       D18
   1                    0.06201   0.04172  -0.03529  -0.03311  -0.03084
 Eigenvalue     3 is  -1.62D-03 should be greater than     0.000000 Eigenvector:
                          D21       D20       D19       R10       R8
   1                    0.57478   0.55277   0.54860   0.11258  -0.08767
                          A18       D15       A19       D13       D18
   1                    0.07963   0.07499  -0.07476   0.07041   0.06961
 RFO step:  Lambda0=6.262842831D-06 Lambda=-2.25634696D-01.
 Linear search not attempted -- option 19 set.
 Maximum step size (   0.300) exceeded in Quadratic search.
    -- Step size scaled by   0.297
 Iteration  1 RMS(Cart)=  0.03975475 RMS(Int)=  0.00835132
 Iteration  2 RMS(Cart)=  0.00749081 RMS(Int)=  0.00033396
 Iteration  3 RMS(Cart)=  0.00002004 RMS(Int)=  0.00033356
 Iteration  4 RMS(Cart)=  0.00000002 RMS(Int)=  0.00033356
 ITry= 1 IFail=0 DXMaxC= 1.89D-01 DCOld= 1.00D+10 DXMaxT= 3.00D-01 DXLimC= 3.00D+00 Rises=F
 Variable       Old X    -DE/DX   Delta X   Delta X   Delta X     New X
                                 (Linear)    (Quad)   (Total)
    R1        2.96628  -0.00334   0.00000   0.00076   0.00076   2.96705
    R2        2.51065   0.00733   0.00000   0.00193   0.00193   2.51258
    R3        2.52516  -0.00766   0.00000  -0.00468  -0.00468   2.52048
    R4        2.49488   0.00359   0.00000   0.00036   0.00036   2.49523
    R5        2.56717  -0.01489   0.00000  -0.00884  -0.00884   2.55833
    R6        2.53477  -0.01197   0.00000  -0.00704  -0.00704   2.52773
    R7        3.41162   0.02439   0.00000   0.01817   0.01817   3.42979
    R8        3.15584  -0.04413   0.00000  -0.25461  -0.25461   2.90124
    R9        2.49671   0.20634   0.00000   0.03348   0.03348   2.53019
   R10        3.40151   0.01697   0.00000   0.08755   0.08755   3.48906
   R11        1.81799  -0.01126   0.00000   0.00204   0.00204   1.82004
    A1        1.96714  -0.01922   0.00000  -0.00784  -0.00788   1.95926
    A2        1.95623  -0.01627   0.00000  -0.00798  -0.00801   1.94822
    A3        1.96425  -0.01825   0.00000  -0.00924  -0.00928   1.95497
    A4        1.85176   0.01991   0.00000   0.00939   0.00936   1.86112
    A5        1.85607   0.02032   0.00000   0.00892   0.00888   1.86495
    A6        1.86013   0.01907   0.00000   0.00936   0.00932   1.86945
    A7        1.90046   0.00204   0.00000   0.00169   0.00168   1.90214
    A8        1.90332   0.00173   0.00000   0.00115   0.00114   1.90445
    A9        1.95928   0.00102   0.00000   0.00032   0.00032   1.95960
   A10        1.80063   0.01265   0.00000   0.01161   0.01159   1.81222
   A11        1.93342  -0.00865   0.00000  -0.00697  -0.00697   1.92645
   A12        1.95952  -0.00765   0.00000  -0.00672  -0.00672   1.95280
   A13        1.97129  -0.07784   0.00000  -0.01806  -0.01801   1.95328
   A14        1.93210   0.02320   0.00000  -0.00101  -0.00149   1.93061
   A15        1.92507  -0.12461   0.00000  -0.03532  -0.03538   1.88969
   A16        2.30282  -0.00227   0.00000  -0.00584  -0.00740   2.29542
   A17        1.15672   0.24305   0.00000   0.07384   0.07393   1.23065
   A18        2.00998  -0.00476   0.00000   0.01383   0.01378   2.02376
   A19        2.07877  -0.04359   0.00000  -0.08805  -0.08805   1.99073
    D1        1.73013  -0.00956   0.00000  -0.00803  -0.00803   1.72209
    D2       -2.60014   0.00720   0.00000   0.00704   0.00705  -2.59309
    D3       -0.41722  -0.00069   0.00000  -0.00057  -0.00056  -0.41779
    D4       -2.46538  -0.00895   0.00000  -0.00710  -0.00711  -2.47249
    D5       -0.51246   0.00781   0.00000   0.00797   0.00797  -0.50449
    D6        1.67045  -0.00007   0.00000   0.00036   0.00036   1.67081
    D7       -0.36891  -0.00886   0.00000  -0.00726  -0.00726  -0.37618
    D8        1.58401   0.00790   0.00000   0.00781   0.00782   1.59183
    D9       -2.51627   0.00002   0.00000   0.00021   0.00021  -2.51606
   D10       -1.26443   0.11198   0.00000   0.04714   0.04697  -1.21746
   D11        1.51717  -0.01345   0.00000  -0.00909  -0.00905   1.50813
   D12       -2.52082  -0.09888   0.00000  -0.01915  -0.01902  -2.53984
   D13        2.89007   0.11486   0.00000   0.04975   0.04957   2.93964
   D14       -0.61152  -0.01058   0.00000  -0.00648  -0.00644  -0.61796
   D15        1.63368  -0.09601   0.00000  -0.01654  -0.01641   1.61727
   D16        0.88726   0.10924   0.00000   0.04381   0.04363   0.93090
   D17       -2.61432  -0.01620   0.00000  -0.01243  -0.01238  -2.62670
   D18       -0.36913  -0.10162   0.00000  -0.02248  -0.02235  -0.39148
   D19        1.61226   0.02877   0.00000   0.07155   0.07120   1.68345
   D20       -0.25434   0.01141   0.00000   0.06088   0.06221  -0.19213
   D21       -2.46884  -0.04959   0.00000   0.05114   0.05017  -2.41868
         Item               Value     Threshold  Converged?
 Maximum Force            0.243049     0.000450     NO 
 RMS     Force            0.063088     0.000300     NO 
 Maximum Displacement     0.189281     0.001800     NO 
 RMS     Displacement     0.044054     0.001200     NO 
 Predicted change in Energy=-6.722356D-02
 Lowest energy point so far.  Saving SCF results.
 GradGradGradGradGradGradGradGradGradGradGradGradGradGradGradGradGradGrad

 Leave Link  103 at Fri May 23 03:18:28 2025, MaxMem=  3758096384 cpu:               0.0 elap:               0.0
 (Enter /apps/easybuild-2022/easybuild/software/Compiler/NVHPC/22.11-CUDA-11.7.0/Gaussian/g16c01-CUDA-11.7.0/g16/l202.exe)
                          Input orientation:                          
 ---------------------------------------------------------------------
 Center     Atomic      Atomic             Coordinates (Angstroms)
 Number     Number       Type             X           Y           Z
 ---------------------------------------------------------------------
      1          6           0       -0.869248   -0.126229    1.380319
      2          6           0       -0.121881    0.336211    0.079249
      3          9           0       -0.696096   -0.257837   -0.993218
      4          9           0       -0.349716    1.639590   -0.117017
      5         16           0        1.652892   -0.039535    0.134897
      6          8           0        2.391820    0.834427    1.158236
      7          8           0        1.885292   -1.283704   -0.301842
      8          8           0        2.557731    1.307954   -0.745142
      9          9           0       -0.227475   -1.106952    2.008133
     10          9           0       -0.993223    0.871406    2.256861
     11          9           0       -2.085865   -0.569207    1.121234
     12          1           0        2.906194    1.991902   -0.163426
 ---------------------------------------------------------------------
                    Distance matrix (angstroms):
                    1          2          3          4          5
     1  C    0.000000
     2  C    1.570093   0.000000
     3  F    2.383481   1.353810   0.000000
     4  F    2.372771   1.337619   2.118475   0.000000
     5  S    2.814210   1.814966   2.614965   2.625521   0.000000
     6  O    3.406867   2.780490   3.918803   3.128990   1.535267
     7  O    3.428834   2.607316   2.862510   3.684436   1.338920
     8  O    4.280029   2.967191   3.619479   2.992954   1.846329
     9  F    1.329602   2.411320   3.154158   3.474867   2.860799
    10  F    1.333781   2.405757   3.453475   2.576724   3.512046
    11  F    1.320421   2.400573   2.549376   3.070222   3.902783
    12  H    4.596040   3.459687   4.327397   3.275245   2.405514
                    6          7          8          9         10
     6  O    0.000000
     7  O    2.621999   0.000000
     8  O    1.968401   2.713923   0.000000
     9  F    3.369271   3.135445   4.601051   0.000000
    10  F    3.559053   4.413311   4.670318   2.135916   0.000000
    11  F    4.692677   4.278521   5.345099   2.128233   2.135154
    12  H    1.830607   3.433801   0.963122   4.913089   4.724273
                   11         12
    11  F    0.000000
    12  H    5.755891   0.000000
 Symmetry turned off by external request.
 Stoichiometry    C2HF5O3S
 Rotational constants (GHZ):           1.5827799           0.7669558           0.7485444
 Leave Link  202 at Fri May 23 03:18:28 2025, MaxMem=  3758096384 cpu:               0.0 elap:               0.0
 (Enter /apps/easybuild-2022/easybuild/software/Compiler/NVHPC/22.11-CUDA-11.7.0/Gaussian/g16c01-CUDA-11.7.0/g16/l301.exe)
 Standard basis: 6-311++G(d,p) (5D, 7F)
 Ernie: Thresh=  0.10000D-02 Tol=  0.10000D-05 Strict=F.
   257 basis functions,   419 primitive gaussians,   268 cartesian basis functions
    49 alpha electrons       49 beta electrons
       nuclear repulsion energy       910.0092732796 Hartrees.
 IExCor= 4639 DFT=T Ex+Corr=wB97XD ExCW=0 ScaHFX=  1.000000
 ScaDFX=  1.000000  1.000000  1.000000  1.000000 ScalE2=  1.000000  1.000000
 IRadAn=      5 IRanWt=     -1 IRanGd=            0 ICorTp=0 IEmpDi=121
 HFx  wShort=  0.000000 wLong=  0.200000 cFull=  0.222036 cShort=  0.000000 cLong=  0.777964
 DFx  wShort=  0.000000 wLong=  0.200000 cFull=  0.000000 cShort=  0.000000 cLong=  1.000000
 NAtoms=   12 NActive=   12 NUniq=   12 SFac= 1.00D+00 NAtFMM=   60 NAOKFM=F Big=F
 Integral buffers will be    131072 words long.
 Raffenetti 2 integral format.
 Two-electron integral symmetry is turned off.
 R6Disp:  Grimme-D2 Dispersion energy=       -0.0051921765 Hartrees.
 Nuclear repulsion after empirical dispersion term =      910.0040811032 Hartrees.
 Leave Link  301 at Fri May 23 03:18:28 2025, MaxMem=  3758096384 cpu:               0.0 elap:               0.0
 (Enter /apps/easybuild-2022/easybuild/software/Compiler/NVHPC/22.11-CUDA-11.7.0/Gaussian/g16c01-CUDA-11.7.0/g16/l302.exe)
 NPDir=0 NMtPBC=     1 NCelOv=     1 NCel=       1 NClECP=     1 NCelD=      1
         NCelK=      1 NCelE2=     1 NClLst=     1 CellRange=     0.0.
 One-electron integrals computed using PRISM.
 NBasis=   257 RedAO= T EigKep=  7.51D-05  NBF=   257
 NBsUse=   257 1.00D-06 EigRej= -1.00D+00 NBFU=   257
 Precomputing XC quadrature grid using
 IXCGrd= 4 IRadAn=           5 IRanWt=          -1 IRanGd=           0 AccXCQ= 0.00D+00.
 Generated NRdTot=       0 NPtTot=           0 NUsed=           0 NTot=          32
 NSgBfM=   268   268   268   268   268 MxSgAt=    12 MxSgA2=    12.
 Leave Link  302 at Fri May 23 03:18:28 2025, MaxMem=  3758096384 cpu:               0.5 elap:               0.1
 (Enter /apps/easybuild-2022/easybuild/software/Compiler/NVHPC/22.11-CUDA-11.7.0/Gaussian/g16c01-CUDA-11.7.0/g16/l303.exe)
 DipDrv:  MaxL=1.
 Leave Link  303 at Fri May 23 03:18:28 2025, MaxMem=  3758096384 cpu:               0.1 elap:               0.0
 (Enter /apps/easybuild-2022/easybuild/software/Compiler/NVHPC/22.11-CUDA-11.7.0/Gaussian/g16c01-CUDA-11.7.0/g16/l401.exe)
 Initial guess from the checkpoint file:  "2003846667223680600001_r12_insertion_R_6_5_8.chk"
 B after Tr=     0.005031   -0.000528    0.000568
         Rot=    1.000000    0.000492    0.000217    0.000162 Ang=   0.06 deg.
 Guess basis will be translated and rotated to current coordinates.
 JPrj=2 DoOrth=T DoCkMO=T.
 Generating alternative initial guess.
 ExpMin= 3.60D-02 ExpMax= 9.34D+04 ExpMxC= 3.17D+03 IAcc=3 IRadAn=         5 AccDes= 0.00D+00
 Harris functional with IExCor= 4639 and IRadAn=       5 diagonalized for initial guess.
 HarFok:  IExCor= 4639 AccDes= 0.00D+00 IRadAn=         5 IDoV= 1 UseB2=F ITyADJ=14
 ICtDFT=  3500011 ScaDFX=  1.000000  1.000000  1.000000  1.000000
 FoFCou: FMM=F IPFlag=           0 FMFlag=      100000 FMFlg1=           0
         NFxFlg=           0 DoJE=T BraDBF=F KetDBF=T FulRan=T
         wScrn=  0.000000 ICntrl=       500 IOpCl=  0 I1Cent=   200000004 NGrid=           0
         NMat0=    1 NMatS0=      1 NMatT0=    0 NMatD0=    1 NMtDS0=    0 NMtDT0=    0
 Symmetry not used in FoFCou.
 Harris En= -1167.00637047077    
 Leave Link  401 at Fri May 23 03:18:28 2025, MaxMem=  3758096384 cpu:               2.5 elap:               0.4
 (Enter /apps/easybuild-2022/easybuild/software/Compiler/NVHPC/22.11-CUDA-11.7.0/Gaussian/g16c01-CUDA-11.7.0/g16/l502.exe)
 Keep R1 ints in memory in canonical form, NReq=1117474609.
 FoFCou: FMM=F IPFlag=           0 FMFlag=           0 FMFlg1=           0
         NFxFlg=           0 DoJE=F BraDBF=F KetDBF=F FulRan=T
         wScrn=  0.000000 ICntrl=       600 IOpCl=  0 I1Cent=           0 NGrid=           0
         NMat0=    1 NMatS0=  33153 NMatT0=    0 NMatD0=    1 NMtDS0=    0 NMtDT0=    0
 Symmetry not used in FoFCou.
 Two-electron integral symmetry not used.
 Closed shell SCF:
 Using DIIS extrapolation, IDIIS=  1040.
 NGot=  3758096384 LenX=  2658793876 LenY=  2658721611
 Requested convergence on RMS density matrix=1.00D-08 within  32 cycles.
 Requested convergence on MAX density matrix=1.00D-06.
 Requested convergence on             energy=1.00D-06.
 No special actions if energy rises.

 Cycle   1  Pass 1  IDiag  1:
 E= -1199.64554959813    
 DIIS: error= 3.97D-03 at cycle   1 NSaved=   1.
 NSaved= 1 IEnMin= 1 EnMin= -1199.64554959813     IErMin= 1 ErrMin= 3.97D-03
 ErrMax= 3.97D-03  0.00D+00 EMaxC= 1.00D-01 BMatC= 1.40D-02 BMatP= 1.40D-02
 IDIUse=3 WtCom= 9.60D-01 WtEn= 3.97D-02
 Coeff-Com:  0.100D+01
 Coeff-En:   0.100D+01
 Coeff:      0.100D+01
 Gap=     0.660 Goal=   None    Shift=    0.000
 GapD=    0.660 DampG=2.000 DampE=1.000 DampFc=2.0000 IDamp=-1.
 RMSDP=1.70D-03 MaxDP=5.19D-02              OVMax= 4.34D-02

 Cycle   2  Pass 1  IDiag  1:
 E= -1199.66197589597     Delta-E=       -0.016426297849 Rises=F Damp=F
 DIIS: error= 3.13D-03 at cycle   2 NSaved=   2.
 NSaved= 2 IEnMin= 2 EnMin= -1199.66197589597     IErMin= 2 ErrMin= 3.13D-03
 ErrMax= 3.13D-03  0.00D+00 EMaxC= 1.00D-01 BMatC= 3.31D-03 BMatP= 1.40D-02
 IDIUse=3 WtCom= 9.69D-01 WtEn= 3.13D-02
 Coeff-Com:  0.207D+00 0.793D+00
 Coeff-En:   0.000D+00 0.100D+01
 Coeff:      0.201D+00 0.799D+00
 Gap=     0.284 Goal=   None    Shift=    0.000
 RMSDP=1.02D-03 MaxDP=7.21D-02 DE=-1.64D-02 OVMax= 2.79D-02

 Cycle   3  Pass 1  IDiag  1:
 E= -1199.66256796148     Delta-E=       -0.000592065506 Rises=F Damp=F
 DIIS: error= 3.10D-03 at cycle   3 NSaved=   3.
 NSaved= 3 IEnMin= 3 EnMin= -1199.66256796148     IErMin= 3 ErrMin= 3.10D-03
 ErrMax= 3.10D-03  0.00D+00 EMaxC= 1.00D-01 BMatC= 3.71D-03 BMatP= 3.31D-03
 IDIUse=3 WtCom= 1.52D-01 WtEn= 8.48D-01
 Coeff-Com: -0.672D-01 0.534D+00 0.533D+00
 Coeff-En:   0.000D+00 0.444D+00 0.556D+00
 Coeff:     -0.102D-01 0.458D+00 0.552D+00
 Gap=     0.301 Goal=   None    Shift=    0.000
 RMSDP=5.69D-04 MaxDP=3.35D-02 DE=-5.92D-04 OVMax= 1.73D-02

 Cycle   4  Pass 1  IDiag  1:
 E= -1199.66519041174     Delta-E=       -0.002622450257 Rises=F Damp=F
 DIIS: error= 9.02D-04 at cycle   4 NSaved=   4.
 NSaved= 4 IEnMin= 4 EnMin= -1199.66519041174     IErMin= 4 ErrMin= 9.02D-04
 ErrMax= 9.02D-04  0.00D+00 EMaxC= 1.00D-01 BMatC= 2.93D-04 BMatP= 3.31D-03
 IDIUse=3 WtCom= 9.91D-01 WtEn= 9.02D-03
 Coeff-Com: -0.283D-01-0.387D-01 0.209D+00 0.858D+00
 Coeff-En:   0.000D+00 0.000D+00 0.000D+00 0.100D+01
 Coeff:     -0.281D-01-0.383D-01 0.207D+00 0.859D+00
 Gap=     0.296 Goal=   None    Shift=    0.000
 RMSDP=2.56D-04 MaxDP=1.84D-02 DE=-2.62D-03 OVMax= 6.76D-03

 Cycle   5  Pass 1  IDiag  1:
 E= -1199.66548331804     Delta-E=       -0.000292906299 Rises=F Damp=F
 DIIS: error= 1.60D-04 at cycle   5 NSaved=   5.
 NSaved= 5 IEnMin= 5 EnMin= -1199.66548331804     IErMin= 5 ErrMin= 1.60D-04
 ErrMax= 1.60D-04  0.00D+00 EMaxC= 1.00D-01 BMatC= 1.19D-05 BMatP= 2.93D-04
 IDIUse=3 WtCom= 9.98D-01 WtEn= 1.60D-03
 Coeff-Com: -0.172D-02-0.719D-01 0.605D-02 0.300D+00 0.767D+00
 Coeff-En:   0.000D+00 0.000D+00 0.000D+00 0.000D+00 0.100D+01
 Coeff:     -0.171D-02-0.718D-01 0.604D-02 0.300D+00 0.767D+00
 Gap=     0.296 Goal=   None    Shift=    0.000
 RMSDP=6.27D-05 MaxDP=3.65D-03 DE=-2.93D-04 OVMax= 3.44D-03

 Cycle   6  Pass 1  IDiag  1:
 E= -1199.66550373339     Delta-E=       -0.000020415352 Rises=F Damp=F
 DIIS: error= 1.24D-04 at cycle   6 NSaved=   6.
 NSaved= 6 IEnMin= 6 EnMin= -1199.66550373339     IErMin= 6 ErrMin= 1.24D-04
 ErrMax= 1.24D-04  0.00D+00 EMaxC= 1.00D-01 BMatC= 5.35D-06 BMatP= 1.19D-05
 IDIUse=3 WtCom= 9.99D-01 WtEn= 1.24D-03
 Coeff-Com:  0.468D-02-0.321D-01-0.446D-01-0.136D-01 0.448D+00 0.638D+00
 Coeff-En:   0.000D+00 0.000D+00 0.000D+00 0.000D+00 0.000D+00 0.100D+01
 Coeff:      0.468D-02-0.321D-01-0.446D-01-0.136D-01 0.447D+00 0.638D+00
 Gap=     0.296 Goal=   None    Shift=    0.000
 RMSDP=2.60D-05 MaxDP=8.85D-04 DE=-2.04D-05 OVMax= 1.21D-03

 Cycle   7  Pass 1  IDiag  1:
 E= -1199.66551049540     Delta-E=       -0.000006762014 Rises=F Damp=F
 DIIS: error= 3.52D-05 at cycle   7 NSaved=   7.
 NSaved= 7 IEnMin= 7 EnMin= -1199.66551049540     IErMin= 7 ErrMin= 3.52D-05
 ErrMax= 3.52D-05  0.00D+00 EMaxC= 1.00D-01 BMatC= 3.30D-07 BMatP= 5.35D-06
 IDIUse=1 WtCom= 1.00D+00 WtEn= 0.00D+00
 Coeff-Com:  0.183D-02-0.249D-03-0.182D-01-0.484D-01 0.605D-01 0.168D+00
 Coeff-Com:  0.837D+00
 Coeff:      0.183D-02-0.249D-03-0.182D-01-0.484D-01 0.605D-01 0.168D+00
 Coeff:      0.837D+00
 Gap=     0.296 Goal=   None    Shift=    0.000
 RMSDP=1.24D-05 MaxDP=4.17D-04 DE=-6.76D-06 OVMax= 1.02D-03

 Cycle   8  Pass 1  IDiag  1:
 E= -1199.66551175249     Delta-E=       -0.000001257092 Rises=F Damp=F
 DIIS: error= 1.85D-05 at cycle   8 NSaved=   8.
 NSaved= 8 IEnMin= 8 EnMin= -1199.66551175249     IErMin= 8 ErrMin= 1.85D-05
 ErrMax= 1.85D-05  0.00D+00 EMaxC= 1.00D-01 BMatC= 1.14D-07 BMatP= 3.30D-07
 IDIUse=1 WtCom= 1.00D+00 WtEn= 0.00D+00
 Coeff-Com: -0.437D-03 0.665D-02 0.351D-02-0.986D-02-0.647D-01-0.127D+00
 Coeff-Com:  0.249D+00 0.943D+00
 Coeff:     -0.437D-03 0.665D-02 0.351D-02-0.986D-02-0.647D-01-0.127D+00
 Coeff:      0.249D+00 0.943D+00
 Gap=     0.296 Goal=   None    Shift=    0.000
 RMSDP=7.79D-06 MaxDP=2.40D-04 DE=-1.26D-06 OVMax= 6.84D-04

 Cycle   9  Pass 1  IDiag  1:
 E= -1199.66551219229     Delta-E=       -0.000000439792 Rises=F Damp=F
 DIIS: error= 8.29D-06 at cycle   9 NSaved=   9.
 NSaved= 9 IEnMin= 9 EnMin= -1199.66551219229     IErMin= 9 ErrMin= 8.29D-06
 ErrMax= 8.29D-06  0.00D+00 EMaxC= 1.00D-01 BMatC= 2.79D-08 BMatP= 1.14D-07
 IDIUse=1 WtCom= 1.00D+00 WtEn= 0.00D+00
 Coeff-Com: -0.592D-03 0.298D-02 0.545D-02 0.702D-02-0.381D-01-0.109D+00
 Coeff-Com: -0.567D-01 0.420D+00 0.769D+00
 Coeff:     -0.592D-03 0.298D-02 0.545D-02 0.702D-02-0.381D-01-0.109D+00
 Coeff:     -0.567D-01 0.420D+00 0.769D+00
 Gap=     0.296 Goal=   None    Shift=    0.000
 RMSDP=3.72D-06 MaxDP=1.17D-04 DE=-4.40D-07 OVMax= 3.55D-04

 Cycle  10  Pass 1  IDiag  1:
 E= -1199.66551229389     Delta-E=       -0.000000101601 Rises=F Damp=F
 DIIS: error= 3.97D-06 at cycle  10 NSaved=  10.
 NSaved=10 IEnMin=10 EnMin= -1199.66551229389     IErMin=10 ErrMin= 3.97D-06
 ErrMax= 3.97D-06  0.00D+00 EMaxC= 1.00D-01 BMatC= 4.53D-09 BMatP= 2.79D-08
 IDIUse=1 WtCom= 1.00D+00 WtEn= 0.00D+00
 Coeff-Com:  0.398D-04-0.147D-02-0.349D-03 0.414D-02 0.150D-01 0.103D-01
 Coeff-Com: -0.654D-01-0.212D+00 0.125D+00 0.112D+01
 Coeff:      0.398D-04-0.147D-02-0.349D-03 0.414D-02 0.150D-01 0.103D-01
 Coeff:     -0.654D-01-0.212D+00 0.125D+00 0.112D+01
 Gap=     0.296 Goal=   None    Shift=    0.000
 RMSDP=2.91D-06 MaxDP=1.49D-04 DE=-1.02D-07 OVMax= 2.37D-04

 Cycle  11  Pass 1  IDiag  1:
 E= -1199.66551232160     Delta-E=       -0.000000027712 Rises=F Damp=F
 DIIS: error= 1.19D-06 at cycle  11 NSaved=  11.
 NSaved=11 IEnMin=11 EnMin= -1199.66551232160     IErMin=11 ErrMin= 1.19D-06
 ErrMax= 1.19D-06  0.00D+00 EMaxC= 1.00D-01 BMatC= 5.38D-10 BMatP= 4.53D-09
 IDIUse=1 WtCom= 1.00D+00 WtEn= 0.00D+00
 Coeff-Com:  0.792D-04-0.695D-03-0.812D-03 0.247D-03 0.868D-02 0.145D-01
 Coeff-Com: -0.749D-02-0.105D+00-0.650D-01 0.238D+00 0.917D+00
 Coeff:      0.792D-04-0.695D-03-0.812D-03 0.247D-03 0.868D-02 0.145D-01
 Coeff:     -0.749D-02-0.105D+00-0.650D-01 0.238D+00 0.917D+00
 Gap=     0.296 Goal=   None    Shift=    0.000
 RMSDP=7.87D-07 MaxDP=3.73D-05 DE=-2.77D-08 OVMax= 6.54D-05

 Cycle  12  Pass 1  IDiag  1:
 E= -1199.66551232424     Delta-E=       -0.000000002639 Rises=F Damp=F
 DIIS: error= 4.95D-07 at cycle  12 NSaved=  12.
 NSaved=12 IEnMin=12 EnMin= -1199.66551232424     IErMin=12 ErrMin= 4.95D-07
 ErrMax= 4.95D-07  0.00D+00 EMaxC= 1.00D-01 BMatC= 1.34D-10 BMatP= 5.38D-10
 IDIUse=1 WtCom= 1.00D+00 WtEn= 0.00D+00
 Coeff-Com:  0.248D-04 0.103D-04-0.270D-03-0.600D-03 0.786D-03 0.335D-02
 Coeff-Com:  0.946D-02 0.717D-03-0.391D-01-0.110D+00 0.315D+00 0.820D+00
 Coeff:      0.248D-04 0.103D-04-0.270D-03-0.600D-03 0.786D-03 0.335D-02
 Coeff:      0.946D-02 0.717D-03-0.391D-01-0.110D+00 0.315D+00 0.820D+00
 Gap=     0.296 Goal=   None    Shift=    0.000
 RMSDP=2.68D-07 MaxDP=1.69D-05 DE=-2.64D-09 OVMax= 1.67D-05

 Cycle  13  Pass 1  IDiag  1:
 E= -1199.66551232466     Delta-E=       -0.000000000423 Rises=F Damp=F
 DIIS: error= 2.67D-07 at cycle  13 NSaved=  13.
 NSaved=13 IEnMin=13 EnMin= -1199.66551232466     IErMin=13 ErrMin= 2.67D-07
 ErrMax= 2.67D-07  0.00D+00 EMaxC= 1.00D-01 BMatC= 4.06D-11 BMatP= 1.34D-10
 IDIUse=1 WtCom= 1.00D+00 WtEn= 0.00D+00
 Coeff-Com: -0.107D-04 0.201D-03 0.825D-04-0.373D-03-0.215D-02-0.242D-02
 Coeff-Com:  0.737D-02 0.293D-01-0.584D-02-0.132D+00-0.542D-01 0.413D+00
 Coeff-Com:  0.747D+00
 Coeff:     -0.107D-04 0.201D-03 0.825D-04-0.373D-03-0.215D-02-0.242D-02
 Coeff:      0.737D-02 0.293D-01-0.584D-02-0.132D+00-0.542D-01 0.413D+00
 Coeff:      0.747D+00
 Gap=     0.296 Goal=   None    Shift=    0.000
 RMSDP=1.10D-07 MaxDP=2.07D-06 DE=-4.23D-10 OVMax= 1.04D-05

 Cycle  14  Pass 1  IDiag  1:
 E= -1199.66551232475     Delta-E=       -0.000000000090 Rises=F Damp=F
 DIIS: error= 1.16D-07 at cycle  14 NSaved=  14.
 NSaved=14 IEnMin=14 EnMin= -1199.66551232475     IErMin=14 ErrMin= 1.16D-07
 ErrMax= 1.16D-07  0.00D+00 EMaxC= 1.00D-01 BMatC= 4.08D-12 BMatP= 4.06D-11
 IDIUse=1 WtCom= 1.00D+00 WtEn= 0.00D+00
 Coeff-Com: -0.501D-05 0.276D-04 0.557D-04 0.449D-04-0.503D-03-0.937D-03
 Coeff-Com: -0.224D-03 0.426D-02 0.541D-02-0.226D-02-0.617D-01-0.777D-01
 Coeff-Com:  0.176D+00 0.957D+00
 Coeff:     -0.501D-05 0.276D-04 0.557D-04 0.449D-04-0.503D-03-0.937D-03
 Coeff:     -0.224D-03 0.426D-02 0.541D-02-0.226D-02-0.617D-01-0.777D-01
 Coeff:      0.176D+00 0.957D+00
 Gap=     0.296 Goal=   None    Shift=    0.000
 RMSDP=4.42D-08 MaxDP=1.30D-06 DE=-9.05D-11 OVMax= 3.46D-06

 Cycle  15  Pass 1  IDiag  1:
 E= -1199.66551232474     Delta-E=        0.000000000007 Rises=F Damp=F
 DIIS: error= 4.56D-08 at cycle  15 NSaved=  15.
 NSaved=15 IEnMin=14 EnMin= -1199.66551232475     IErMin=15 ErrMin= 4.56D-08
 ErrMax= 4.56D-08  0.00D+00 EMaxC= 1.00D-01 BMatC= 5.07D-13 BMatP= 4.08D-12
 IDIUse=1 WtCom= 1.00D+00 WtEn= 0.00D+00
 Coeff-Com: -0.533D-07-0.212D-04 0.316D-05 0.754D-04 0.157D-03 0.802D-04
 Coeff-Com: -0.112D-02-0.310D-02 0.243D-02 0.184D-01-0.624D-02-0.857D-01
 Coeff-Com: -0.671D-01 0.219D+00 0.923D+00
 Coeff:     -0.533D-07-0.212D-04 0.316D-05 0.754D-04 0.157D-03 0.802D-04
 Coeff:     -0.112D-02-0.310D-02 0.243D-02 0.184D-01-0.624D-02-0.857D-01
 Coeff:     -0.671D-01 0.219D+00 0.923D+00
 Gap=     0.296 Goal=   None    Shift=    0.000
 RMSDP=1.66D-08 MaxDP=4.11D-07 DE= 6.82D-12 OVMax= 1.33D-06

 Cycle  16  Pass 1  IDiag  1:
 E= -1199.66551232478     Delta-E=       -0.000000000034 Rises=F Damp=F
 DIIS: error= 1.65D-08 at cycle  16 NSaved=  16.
 NSaved=16 IEnMin=16 EnMin= -1199.66551232478     IErMin=16 ErrMin= 1.65D-08
 ErrMax= 1.65D-08  0.00D+00 EMaxC= 1.00D-01 BMatC= 1.09D-13 BMatP= 5.07D-13
 IDIUse=1 WtCom= 1.00D+00 WtEn= 0.00D+00
 Coeff-Com:  0.542D-06-0.116D-04-0.551D-05 0.272D-04 0.122D-03 0.143D-03
 Coeff-Com: -0.430D-03-0.173D-02 0.420D-03 0.769D-02 0.458D-02-0.256D-01
 Coeff-Com: -0.482D-01-0.281D-01 0.365D+00 0.726D+00
 Coeff:      0.542D-06-0.116D-04-0.551D-05 0.272D-04 0.122D-03 0.143D-03
 Coeff:     -0.430D-03-0.173D-02 0.420D-03 0.769D-02 0.458D-02-0.256D-01
 Coeff:     -0.482D-01-0.281D-01 0.365D+00 0.726D+00
 Gap=     0.296 Goal=   None    Shift=    0.000
[...]
     19  0.109624D-01  0.740594D-03 -0.968513D-01  0.563885D-01  0.127947D-01
     20 -0.541816D-02 -0.579541D-03  0.494048D-01 -0.621936D+00 -0.160343D+00
     21 -0.657077D-03  0.785288D-03  0.124138D-01 -0.162319D+00 -0.126411D+00
     22  0.170450D-02  0.540865D-03 -0.860941D-01 -0.354057D-01  0.470026D-01
     23  0.106799D-01 -0.186664D-02 -0.383572D-01 -0.126251D+00  0.693107D-01
     24 -0.366335D-02  0.175550D-02  0.361795D-01  0.386359D-01 -0.175076D+00
     25 -0.112423D-02 -0.372364D-03 -0.185805D-02  0.479292D-02 -0.752183D-02
     26 -0.286787D-02  0.198231D-02  0.233950D-02 -0.772458D-02  0.251874D-02
     27  0.797944D-02 -0.418334D-02 -0.418897D-02  0.183613D-02 -0.642216D-02
     28 -0.125764D-02  0.166968D-02  0.494116D-02 -0.986621D-03 -0.104464D-03
     29  0.600999D-02  0.749107D-02 -0.215531D-02 -0.375012D-02  0.453887D-03
     30  0.900266D-03 -0.101191D-02 -0.824495D-02  0.323145D-02 -0.512172D-02
     31 -0.707486D-02  0.432233D-02  0.629393D-02 -0.275160D-02 -0.972855D-03
     32 -0.261315D-02  0.282012D-02  0.566170D-02 -0.593790D-02  0.155776D-02
     33  0.315091D-02  0.117386D-03 -0.225815D-02  0.961809D-03 -0.443747D-02
     34  0.323156D-02 -0.773556D-03 -0.336136D-02 -0.113184D-01  0.169620D-02
     35 -0.154568D-02 -0.133646D-04 -0.787235D-02 -0.258638D-01 -0.741265D-03
     36 -0.140968D-02 -0.429541D-03  0.130068D-01  0.348268D-01  0.935661D-02
               16            17            18            19            20 
     16  0.153944D+00
     17  0.936314D-01  0.151409D+00
     18  0.207784D+00  0.193074D+00  0.500568D+00
     19  0.199451D-01 -0.167674D-01 -0.818326D-02  0.601009D-01
     20  0.467306D-02 -0.323971D-02  0.371215D-02 -0.480591D-01  0.664050D+00
     21  0.105367D-02 -0.318522D-01  0.280934D-02 -0.127584D-01  0.164163D+00
     22  0.175632D-01  0.383761D-02 -0.105778D-01  0.101467D-01 -0.391679D-02
     23 -0.152406D-02  0.134710D-01 -0.448885D-02 -0.144936D-01 -0.294047D-01
     24  0.910939D-02  0.196157D-01 -0.314373D-01 -0.982562D-04 -0.866555D-02
     25 -0.218256D-02 -0.241916D-02  0.452562D-02 -0.112523D-02 -0.212764D-02
     26 -0.284193D-02  0.727071D-03 -0.561883D-03 -0.826986D-04  0.396649D-02
     27  0.205399D-02  0.173535D-03  0.346917D-02  0.300366D-02 -0.141579D-02
     28 -0.158284D-02 -0.518080D-03 -0.795853D-03 -0.913487D-03  0.596522D-03
     29  0.408225D-03  0.131354D-02  0.375483D-03  0.638863D-03  0.149286D-02
     30  0.231626D-02  0.807776D-03  0.314756D-02  0.166492D-02 -0.166425D-02
     31 -0.150837D-02 -0.858606D-04  0.174290D-03 -0.131880D-02  0.229570D-02
     32 -0.146565D-02  0.580125D-03 -0.736408D-03 -0.852181D-03  0.330187D-02
     33  0.495424D-03  0.130712D-03  0.202149D-02  0.742479D-03 -0.537979D-03
     34 -0.229498D-02  0.661631D-03 -0.288767D-02  0.213321D-02  0.210442D-02
     35  0.165690D-02  0.326798D-02 -0.593100D-02 -0.780750D-03  0.159991D-02
     36 -0.202904D-02 -0.489196D-02 -0.107114D-02  0.157556D-02  0.599924D-02
               21            22            23            24            25 
     21  0.109954D+00
     22  0.241982D-02  0.112593D+00
     23  0.286464D-01  0.181427D+00  0.565999D+00
     24  0.113704D-01 -0.132109D-01  0.640812D-01  0.280823D+00
     25  0.297790D-02  0.106831D-02 -0.121553D-02  0.133618D-02  0.198581D+00
     26 -0.105141D-02 -0.962703D-03  0.972029D-03  0.545339D-04 -0.115827D+00
     27 -0.306878D-03  0.124586D-02 -0.466088D-04  0.322362D-03  0.116099D+00
     28  0.427620D-03 -0.205075D-02 -0.117543D-02  0.152200D-02 -0.253736D-01
     29 -0.224370D-03  0.507383D-03  0.117651D-02 -0.639765D-03  0.490450D-01
     30  0.367854D-03  0.356139D-02  0.140879D-02 -0.160533D-02 -0.597688D-02
     31  0.952842D-03 -0.258857D-02 -0.132667D-02  0.206610D-02 -0.504088D-01
     32  0.500556D-03 -0.264703D-02 -0.668680D-03  0.151103D-02  0.976434D-02
     33  0.785392D-03  0.103397D-02  0.128309D-03  0.207605D-03 -0.523329D-01
     34 -0.558462D-03 -0.449895D-01 -0.129141D+00 -0.329569D-01 -0.508159D-04
     35  0.286184D-02 -0.132597D+00 -0.426270D+00 -0.122989D+00  0.317816D-03
     36 -0.396917D-02 -0.463706D-01 -0.163308D+00 -0.834987D-01 -0.214975D-03
               26            27            28            29            30 
     26  0.193012D+00
     27 -0.110421D+00  0.190188D+00
     28  0.485785D-01  0.565310D-02  0.140882D+00
     29 -0.479643D-01 -0.720645D-02 -0.102322D+00  0.256392D+00
     30  0.726622D-02  0.244369D-01 -0.809102D-01  0.138973D+00  0.190727D+00
     31 -0.403410D-02 -0.454107D-01  0.205099D-01 -0.759034D-02 -0.760995D-02
     32  0.230145D-01  0.263191D-02 -0.211301D-01 -0.474978D-01 -0.441240D-01
     33 -0.758102D-02 -0.216352D-01 -0.190446D-01 -0.487976D-01 -0.222342D-01
     34  0.266256D-03 -0.365042D-03  0.737848D-04  0.136556D-03 -0.797493D-04
     35  0.512993D-04 -0.375794D-04  0.485265D-03 -0.288930D-03 -0.656268D-03
     36 -0.155814D-03  0.115439D-05  0.919864D-05 -0.114609D-03 -0.206044D-03
               31            32            33            34            35 
     31  0.256214D+00
     32  0.139124D+00  0.192048D+00
     33  0.103850D+00  0.822498D-01  0.142326D+00
     34  0.172922D-03  0.150026D-03 -0.424139D-04  0.493183D-01
     35  0.527300D-03  0.389592D-03 -0.842538D-04  0.138591D+00  0.445694D+00
     36 -0.610452D-04 -0.598736D-05 -0.116525D-03  0.332374D-01  0.127669D+00
               36 
     36  0.815823D-01
 Red2BG is reusing G-inverse.
 Leave Link  716 at Fri May 23 03:28:54 2025, MaxMem=  3758096384 cpu:               0.1 elap:               0.0
 (Enter /apps/easybuild-2022/easybuild/software/Compiler/NVHPC/22.11-CUDA-11.7.0/Gaussian/g16c01-CUDA-11.7.0/g16/l9999.exe)

 ----------------------------------------------------------------------

 Electric dipole moment (input orientation):
 (Debye = 10**-18 statcoulomb cm , SI units = C m)
                  (au)            (Debye)         (10**-30 SI)
   Tot        0.107678D+01      0.273690D+01      0.912932D+01
   x         -0.120109D+00     -0.305286D+00     -0.101833D+01
   y          0.102461D+01      0.260431D+01      0.868703D+01
   z         -0.308538D+00     -0.784226D+00     -0.261590D+01

 Dipole polarizability, Alpha (input orientation).
 (esu units = cm**3 , SI units = C**2 m**2 J**-1)
 Alpha(0;0):
               (au)            (10**-24 esu)      (10**-40 SI)
   iso        0.556474D+02      0.824609D+01      0.917501D+01
   aniso      0.581377D+01      0.861513D+00      0.958562D+00
   xx         0.586090D+02      0.868496D+01      0.966332D+01
   yx         0.742487D+00      0.110025D+00      0.122420D+00
   yy         0.551895D+02      0.817824D+01      0.909952D+01
   zx        -0.111035D+01     -0.164537D+00     -0.183072D+00
   zy         0.136293D+01      0.201965D+00      0.224717D+00
   zz         0.531436D+02      0.787507D+01      0.876219D+01

 ----------------------------------------------------------------------

 Dipole orientation:
     6         -1.93622489         -2.22080220         -0.80829188
     6          0.00121419         -0.68034500          0.86050442
     9         -0.71483770          1.72283449          1.00039720
     9          0.07897867         -1.64919550          3.19416536
    16          3.31549919         -0.76107476         -0.38844469
     8          4.20539156         -3.31524421         -0.16164205
     8          3.37466991          0.67827197         -2.66925273
     8          4.62434895          0.93162680          1.75852832
     9         -0.77153519         -3.28590193         -2.76174283
     9         -3.00620659         -4.01988779          0.56598024
     9         -3.71799199         -0.69166947         -1.67370434
     1          5.20428145         -0.12820517          3.12754879

 Electric dipole moment (dipole orientation):
 (Debye = 10**-18 statcoulomb cm , SI units = C m)
                  (au)            (Debye)         (10**-30 SI)
   Tot        0.107678D+01      0.273690D+01      0.912932D+01
   x          0.000000D+00      0.000000D+00      0.000000D+00
   y          0.000000D+00      0.000000D+00      0.000000D+00
   z          0.107678D+01      0.273690D+01      0.912932D+01

 Dipole polarizability, Alpha (dipole orientation).
 (esu units = cm**3 , SI units = C**2 m**2 J**-1)
 Alpha(0;0):
               (au)            (10**-24 esu)      (10**-40 SI)
   iso        0.556474D+02      0.824609D+01      0.917501D+01
   aniso      0.581377D+01      0.861513D+00      0.958562D+00
   xx         0.588593D+02      0.872205D+01      0.970459D+01
   yx         0.254760D+00      0.377516D-01      0.420043D-01
   yy         0.539906D+02      0.800058D+01      0.890184D+01
   zx         0.374106D+00      0.554368D-01      0.616818D-01
   zy        -0.182262D+01     -0.270084D+00     -0.300509D+00
   zz         0.540923D+02      0.801565D+01      0.891861D+01

 ----------------------------------------------------------------------
 Unable to Open any file for archive entry.
 1\1\GINC-SPARTAN-BM155\Freq\RwB97XD\6-311++G(d,p)\C2H1F5O3S1\AKHALILOV
 \23-May-2025\0\\#P wb97xd/6-311++G(d,p) Symm(None) scf(xqc) pop(None) 
 opt(NoFreeze,TS,CalcAll,NoEigentest,MaxCycle=999)\\Gaussian input prep
 ared by ASE\\0,1\C,-0.8700311876,-0.1434341903,1.3551135705\C,-0.02045
 43092,0.5399938141,0.2120317013\F,-0.5088826427,0.2024828804,-0.977011
 6878\F,-0.0751520351,1.8703457762,0.3414451737\S,1.7936742413,0.068445
 5237,0.2464280143\O,2.3581523176,0.6218590963,1.4456378665\O,1.8964736
 738,-1.3030635345,-0.1359962004\O,2.2789610197,0.9413482108,-1.0087170
 403\F,-0.097858701,-0.9092766446,2.1188869074\F,-1.4333404163,0.783855
 8877,2.1158033065\F,-1.8194588969,-0.8966791462,0.8215276368\H,2.54834
 09364,1.8221493265,-0.7168642484\\Version=ES64L-G16RevC.01\HF=-1199.82
 2015\RMSD=4.390e-09\RMSF=3.239e-06\ZeroPoint=0.0518658\Thermal=0.06131
 4\ETot=-1199.760701\HTot=-1199.7597568\GTot=-1199.8052002\Dipole=-0.12
 01089,1.0246134,-0.3085384\DipoleDeriv=1.7385654,-0.0730275,0.0728141,
 0.1081663,1.5695214,0.0823273,-0.1595191,0.1340864,1.5202154,0.8329468
 ,-0.0672225,0.2087694,-0.1828581,1.0538199,0.1546105,0.3508435,0.12232
 89,0.8972378,-0.5057455,-0.0647895,-0.2430119,-0.0537471,-0.2535033,-0
 .0644694,-0.3413976,-0.1321751,-0.7621592,-0.3679458,0.1034491,0.02862
 26,0.1795576,-0.9315622,-0.0769938,0.0317658,0.0094315,-0.2528518,1.93
 23559,0.1672264,-0.0886551,0.1499281,2.2013583,-0.0137397,-0.0700977,-
 0.0531486,2.1548229,-0.8120797,-0.0626383,-0.209471,-0.1492829,-0.6224
 635,-0.2244831,-0.2542145,-0.0787436,-0.939803,-0.6610721,0.0849461,0.
 0321659,0.1902694,-1.038627,-0.1162159,0.057251,-0.2037754,-0.5429313,
 -0.7634024,-0.1784037,0.24037,-0.2939258,-0.8133234,0.4666903,0.319914
 ,0.3606256,-0.8589016,-0.5339325,0.1412163,-0.1001001,0.183538,-0.4741
 19,0.227038,-0.1545705,0.2399882,-0.5190743,-0.498009,0.1985173,0.2225
 048,0.1848195,-0.5630789,-0.2213002,0.3117809,-0.2707043,-0.5607398,-0
 .7396208,-0.2910437,-0.1443598,-0.3762085,-0.4929382,-0.1165293,-0.094
 639,-0.0948855,-0.3831182,0.3779397,0.0417701,-0.019649,0.0597435,0.36
 49159,-0.0969347,0.0028832,-0.0330279,0.247303\Polar=58.6090071,0.7424
 872,55.1895173,-1.1103497,1.3629297,53.1435902\PG=Unknown\NImag=1\\0.5
 5906503,0.00622002,0.55788768,-0.00452950,0.00485161,0.55909668,-0.096
 51706,-0.00907742,0.02964550,0.42641956,-0.03105277,-0.06577676,0.0414
 9172,0.01154400,0.51584260,0.05677648,0.03435165,-0.10289380,0.0238606
 6,-0.00722807,0.52938220,0.00260078,-0.00319989,0.00490045,-0.10829835
 ,-0.01639524,-0.09112473,0.11464366,0.00053566,0.00402244,0.00275179,-
 0.01609269,-0.07475794,-0.03813709,0.03894897,0.10051019,-0.02601962,-
 0.01439636,-0.03755657,-0.07839164,-0.02841314,-0.27488035,0.11509605,
 0.08134797,0.35332535,0.00435192,-0.01421084,0.00156579,-0.07226214,0.
 02639381,0.00332296,0.00918995,-0.02301595,-0.00920384,0.06752837,0.00
 981327,-0.03963309,-0.01056695,0.01481962,-0.29547114,0.00829605,-0.01
 279741,-0.03641637,-0.04203092,-0.01430342,0.40130095,-0.00192077,0.01
 594961,0.00492723,0.00204584,-0.00449462,-0.07036364,-0.00499280,-0.05
 715616,-0.01510671,-0.00293623,0.03621038,0.08166462,-0.02027221,-0.00
 956398,0.02395372,-0.14073455,0.03772204,-0.01007481,-0.00755935,-0.00
 030893,-0.00322992,0.00197219,-0.00898188,0.00068984,0.52948406,-0.012
 69537,0.02579105,-0.00739210,0.01046512,-0.03614175,0.01111915,-0.0105
 4027,-0.00073878,-0.01053008,0.03161742,-0.04250620,-0.00217962,0.0576
 7641,1.01630108,0.02785185,-0.00897675,0.01938082,0.02199487,0.0029867
 4,-0.03574012,-0.03982052,0.00021373,-0.02781062,0.00069129,-0.0032752
 6,-0.00083531,0.12826491,0.27305100,0.82017577,0.00331461,0.00448092,-
 0.00465776,0.01328956,-0.01707062,-0.01703903,-0.01272977,0.00028610,-
 0.00819677,-0.00179759,0.00500813,0.00098658,-0.18596041,-0.08724246,-
 0.19187682,0.15394403,0.00165961,-0.00374952,-0.00091076,0.00706179,-0
 .00221825,-0.00227703,-0.00014595,0.00120073,0.00104937,-0.00135083,0.
 00848077,0.00183648,-0.08556479,-0.17124226,-0.17675590,0.09363139,0.1
 5140856,-0.00526526,0.00419876,-0.01045989,0.00715419,-0.01376972,-0.0
 0367092,-0.00450385,0.00030240,-0.00099770,-0.00091272,0.00506618,0.00
 268043,-0.18651177,-0.18124139,-0.46705883,0.20778410,0.19307427,0.500
 56774,0.00225917,0.00017513,-0.00569502,0.01468736,0.01297239,0.006747
 13,-0.00118635,-0.00010161,-0.00053414,-0.00787727,0.01096236,0.000740
 59,-0.09685135,0.05638855,0.01279472,0.01994509,-0.01676736,-0.0081832
 6,0.06010091,0.00191879,-0.01053769,0.00622297,-0.01825931,-0.00751488
 ,-0.01313913,0.00443220,0.00364064,0.00624812,0.00693740,-0.00541816,-
 0.00057954,0.04940477,-0.62193617,-0.16034334,0.00467306,-0.00323971,0
 .00371215,-0.04805913,0.66404954,-0.00381016,0.00078959,-0.00258000,-0
 .00915533,-0.00278574,0.00111655,0.00434071,0.00192842,0.00607759,0.00
 169597,-0.00065708,0.00078529,0.01241383,-0.16231911,-0.12641073,0.001
 05367,-0.03185221,0.00280934,-0.01275840,0.16416311,0.10995436,-0.0005
 3298,0.00664511,-0.00882454,-0.00388884,-0.01814600,0.02464741,-0.0007
 9690,-0.00044635,-0.00146809,-0.00043014,0.00170450,0.00054086,-0.0860
 9408,-0.03540566,0.04700263,0.01756324,0.00383761,-0.01057782,0.010146
 73,-0.00391679,0.00241982,0.11259346,0.00257501,-0.00036283,-0.0027184
 3,0.00573513,-0.01057910,0.01096609,-0.00094363,0.00123688,-0.00211250
 ,-0.00155971,0.01067994,-0.00186664,-0.03835718,-0.12625056,0.06931066
 ,-0.00152406,0.01347097,-0.00448885,-0.01449357,-0.02940468,0.02864639
 ,0.18142691,0.56599923,-0.00334907,-0.00257149,0.00239002,-0.00507033,
 0.01517407,-0.01345454,0.00460821,-0.00054326,0.00820321,-0.00013592,-
 0.00366335,0.00175550,0.03617950,0.03863595,-0.17507625,0.00910939,0.0
 1961572,-0.03143725,-0.00009826,-0.00866555,0.01137040,-0.01321089,0.0
 6408115,0.28082300,-0.12524145,0.05962701,-0.06216022,0.00338391,-0.00
 082330,0.00197869,0.00180497,-0.00001003,0.00166181,0.00140235,-0.0011
 2423,-0.00037236,-0.00185805,0.00479292,-0.00752183,-0.00218256,-0.002
 41916,0.00452562,-0.00112523,-0.00212764,0.00297790,0.00106831,-0.0012
 1553,0.00133618,0.19858095,0.05791615,-0.15388388,0.08669705,0.0208311
 0,-0.00813411,0.01338494,-0.00244465,-0.00116889,0.00786751,-0.0037382
 2,-0.00286787,0.00198231,0.00233950,-0.00772458,0.00251874,-0.00284193
 ,0.00072707,-0.00056188,-0.00008270,0.00396649,-0.00105141,-0.00096270
 ,0.00097203,0.00005453,-0.11582717,0.19301222,-0.06001262,0.08626821,-
 0.16787613,-0.02587890,0.01953214,-0.01124055,0.00337471,0.00070624,-0
 .00675354,0.00442600,0.00797944,-0.00418334,-0.00418897,0.00183613,-0.
 00642216,0.00205399,0.00017353,0.00346917,0.00300366,-0.00141579,-0.00
 030688,0.00124586,-0.00004661,0.00032236,0.11609895,-0.11042118,0.1901
 8828,-0.12672753,0.05811706,0.06786685,-0.00918756,0.02077401,0.016201
 51,-0.00044298,-0.00116123,0.00750508,-0.00012812,-0.00125764,0.001669
 68,0.00494116,-0.00098662,-0.00010446,-0.00158284,-0.00051808,-0.00079
 585,-0.00091349,0.00059652,0.00042762,-0.00205075,-0.00117543,0.001522
 00,-0.02537356,0.04857847,0.00565310,0.14088199,0.06402108,-0.15991205
 ,-0.08635472,0.00258187,-0.00868290,-0.00353961,0.00099036,0.00171145,
 -0.00041624,-0.00626145,0.00600999,0.00749107,-0.00215531,-0.00375012,
 0.00045389,0.00040823,0.00131354,0.00037548,0.00063886,0.00149286,-0.0
 0022437,0.00050738,0.00117651,-0.00063976,0.04904497,-0.04796432,-0.00
 720645,-0.10232221,0.25639181,0.06930261,-0.08032557,-0.16569577,0.025
 05851,-0.02789738,-0.01728691,0.00020180,0.00207998,-0.00551785,0.0007
 1620,0.00090027,-0.00101191,-0.00824495,0.00323145,-0.00512172,0.00231
 626,0.00080778,0.00314756,0.00166492,-0.00166425,0.00036785,0.00356139
 ,0.00140879,-0.00160533,-0.00597688,0.00726622,0.02443685,-0.08091016,
 0.13897295,0.19072748,-0.20181560,-0.09899727,-0.04226858,-0.02562769,
 -0.02067830,-0.01750216,0.00245019,0.00059186,0.00246003,-0.00237259,-
 0.00707486,0.00432233,0.00629393,-0.00275160,-0.00097286,-0.00150837,-
 0.00008586,0.00017429,-0.00131880,0.00229570,0.00095284,-0.00258857,-0
 .00132667,0.00206610,-0.05040882,-0.00403410,-0.04541073,0.02050991,-0
 .00759034,-0.00760995,0.25621350,-0.10022012,-0.15318799,-0.03513223,-
 0.02882296,-0.01044065,-0.01231732,0.00118823,0.00101181,0.00104477,-0
 .00075037,-0.00261315,0.00282012,0.00566170,-0.00593790,0.00155776,-0.
 00146565,0.00058012,-0.00073641,-0.00085218,0.00330187,0.00050056,-0.0
 0264703,-0.00066868,0.00151103,0.00976434,0.02301454,0.00263191,-0.021
 13012,-0.04749784,-0.04412397,0.13912413,0.19204827,-0.04962074,-0.040
 11893,-0.09939012,0.00799058,0.00397049,0.00094433,0.00885402,0.006527
 82,0.00141142,0.00033254,0.00315091,0.00011739,-0.00225815,0.00096181,
 -0.00443747,0.00049542,0.00013071,0.00202149,0.00074248,-0.00053798,0.
 00078539,0.00103397,0.00012831,0.00020761,-0.05233289,-0.00758102,-0.0
 2163523,-0.01904456,-0.04879763,-0.02223422,0.10384975,0.08224977,0.14
 232593,-0.00048467,-0.00021584,0.00020330,-0.00126419,-0.00524001,0.00
 220591,0.00032414,0.00077420,0.00032104,0.00042308,0.00323156,-0.00077
 356,-0.00336136,-0.01131843,0.00169620,-0.00229498,0.00066163,-0.00288
 767,0.00213321,0.00210442,-0.00055846,-0.04498948,-0.12914128,-0.03295
 692,-0.00005082,0.00026626,-0.00036504,0.00007378,0.00013656,-0.000079
 75,0.00017292,0.00015003,-0.00004241,0.04931834,-0.00069133,-0.0006573
 7,0.00106003,-0.00078623,0.00387488,-0.00147964,0.00090728,-0.00025215
 ,0.00034150,0.00024217,-0.00154568,-0.00001336,-0.00787235,-0.02586380
 ,-0.00074127,0.00165690,0.00326798,-0.00593100,-0.00078075,0.00159991,
 0.00286184,-0.13259698,-0.42626971,-0.12298903,0.00031782,0.00005130,-
 0.00003758,0.00048527,-0.00028893,-0.00065627,0.00052730,0.00038959,-0
 .00008425,0.13859092,0.44569399,0.00059681,-0.00002034,0.00065753,0.00
 074605,0.00143351,-0.00191224,-0.00093404,-0.00002182,-0.00039423,0.00
 043796,-0.00140968,-0.00042954,0.01300678,0.03482681,0.00935661,-0.002
 02904,-0.00489196,-0.00107114,0.00157556,0.00599924,-0.00396917,-0.046
 37060,-0.16330837,-0.08349871,-0.00021498,-0.00015581,0.00000115,0.000
 00920,-0.00011461,-0.00020604,-0.00006105,-0.00000599,-0.00011652,0.03
 323736,0.12766903,0.08158231\\0.00000005,0.00000404,0.00000188,0.00000
 009,-0.00000316,0.00000158,-0.00000131,0.00000018,0.00000264,0.0000050
 2,0.00000110,-0.00000018,-0.00000189,-0.00000624,-0.00000115,0.0000009
 8,0.00000167,-0.00000642,-0.00000516,0.00000407,-0.00000522,-0.0000019
 9,-0.00000466,0.00000016,0.00000117,0.00000161,0.00000182,0.00000328,0
 .00000340,0.00000360,-0.00000160,0.00000311,0.00000520,0.00000136,-0.0
 0000512,-0.00000390\\\@
 The archive entry for this job was punched.


 THE BEST WAY TO CONVINCE A FOOL THAT HE IS WRONG 
 IS TO LET HIM HAVE HIS OWN WAY.

                                         JOSH BILLINGS
 Job cpu time:       0 days  1 hours 29 minutes 18.3 seconds.
 Elapsed time:       0 days  0 hours 11 minutes 58.1 seconds.
 File lengths (MBytes):  RWF=    104 Int=      0 D2E=      0 Chk=      6 Scr=      1
 Normal termination of Gaussian 16 at Fri May 23 03:28:54 2025.
done
