 Entering Gaussian System, Link 0=g16
 Initial command:
 /apps/easybuild-2022/easybuild/software/Compiler/NVHPC/22.11-CUDA-11.7.0/Gaussian/g16c01-CUDA-11.7.0/g16/l1.exe "/tmp/Gau-246696.inp" -scrdir="/tmp/"
 Entering Link 1 = /apps/easybuild-2022/easybuild/software/Compiler/NVHPC/22.11-CUDA-11.7.0/Gaussian/g16c01-CUDA-11.7.0/g16/l1.exe PID=    246740.
  
 Copyright (c) 1988-2019, Gaussian, Inc.  All Rights Reserved.
  
 This is part of the Gaussian(R) 16 program.  It is based on
 the Gaussian(R) 09 system (copyright 2009, Gaussian, Inc.),
 the Gaussian(R) 03 system (copyright 2003, Gaussian, Inc.),
 the Gaussian(R) 98 system (copyright 1998, Gaussian, Inc.),
 the Gaussian(R) 94 system (copyright 1995, Gaussian, Inc.),
 the Gaussian 92(TM) system (copyright 1992, Gaussian, Inc.),
 the Gaussian 90(TM) system (copyright 1990, Gaussian, Inc.),
 the Gaussian 88(TM) system (copyright 1988, Gaussian, Inc.),
 the Gaussian 86(TM) system (copyright 1986, Carnegie Mellon
 University), and the Gaussian 82(TM) system (copyright 1983,
 Carnegie Mellon University). Gaussian is a federally registered
 trademark of Gaussian, Inc.
  
 This software contains proprietary and confidential information,
 including trade secrets, belonging to Gaussian, Inc.
  
 This software is provided under written license and may be
 used, copied, transmitted, or stored only in accord with that
 written license.
  
 The following legend is applicable only to US Government
 contracts under FAR:
  
                    RESTRICTED RIGHTS LEGEND
  
 Use, reproduction and disclosure by the US Government is
 subject to restrictions as set forth in subparagraphs (a)
 and (c) of the Commercial Computer Software - Restricted
 Rights clause in FAR 52.227-19.
  
 Gaussian, Inc.
 340 Quinnipiac St., Bldg. 40, Wallingford CT 06492
  
  
 ---------------------------------------------------------------
 Warning -- This program may not be used in any manner that
 competes with the business of Gaussian, Inc. or will provide
 assistance to any competitor of Gaussian, Inc.  The licensee
 of this program is prohibited from giving any competitor of
 Gaussian, Inc. access to this program.  By using this program,
 the user acknowledges that Gaussian, Inc. is engaged in the
 business of creating and licensing software in the field of
 computational chemistry and represents and warrants to the
 licensee that it is not a competitor of Gaussian, Inc. and that
 it will not use this program in any manner prohibited above.
 ---------------------------------------------------------------
  

 Cite this work as:
 Gaussian 16, Revision C.01,
 M. J. Frisch, G. W. Trucks, H. B. Schlegel, G. E. Scuseria, 
 M. A. Robb, J. R. Cheeseman, G. Scalmani, V. Barone, 
 G. A. Petersson, H. Nakatsuji, X. Li, M. Caricato, A. V. Marenich, 
 J. Bloino, B. G. Janesko, R. Gomperts, B. Mennucci, H. P. Hratchian, 
 J. V. Ortiz, A. F. Izmaylov, J. L. Sonnenberg, D. Williams-Young, 
 F. Ding, F. Lipparini, F. Egidi, J. Goings, B. Peng, A. Petrone, 
 T. Henderson, D. Ranasinghe, V. G. Zakrzewski, J. Gao, N. Rega, 
 G. Zheng, W. Liang, M. Hada, M. Ehara, K. Toyota, R. Fukuda, 
 J. Hasegawa, M. Ishida, T. Nakajima, Y. Honda, O. Kitao, H. Nakai, 
 T. Vreven, K. Throssell, J. A. Montgomery, Jr., J. E. Peralta, 
 F. Ogliaro, M. J. Bearpark, J. J. Heyd, E. N. Brothers, K. N. Kudin, 
 V. N. Staroverov, T. A. Keith, R. Kobayashi, J. Normand, 
 K. Raghavachari, A. P. Rendell, J. C. Burant, S. S. Iyengar, 
 J. Tomasi, M. Cossi, J. M. Millam, M. Klene, C. Adamo, R. Cammi, 
 J. W. Ochterski, R. L. Martin, K. Morokuma, O. Farkas, 
 J. B. Foresman, and D. J. Fox, Gaussian, Inc., Wallingford CT, 2019.
 
 ******************************************
 Gaussian 16:  ES64L-G16RevC.01  3-Jul-2019
                23-May-2025 
 ******************************************
 %mem=28GB
 %chk=2003846667223680600001_r12_insertion_R_8_5_2_IRC_R_prod
 %nprocshared=8
 Will use up to    8 processors via shared memory.
 ----------------------------------------------------------------------
 #P wb97xd/6-311++G(d,p) Symm(None) scf(xqc) pop(None) freq opt(CalcFC)
 ----------------------------------------------------------------------
 1/10=4,18=20,19=15,26=3,38=1/1,3;
 2/9=110,12=2,15=3,17=6,18=5,40=1/2;
 3/5=4,6=6,7=1111,11=2,25=1,30=1,71=2,74=-58,140=1/1,2,3;
 4//1;
 5/5=2,8=3,13=1,38=5/2,8;
 8/6=4,10=90,11=11/1;
 11/6=1,8=1,9=11,15=111,16=1,31=1/1,2,10;
 10/6=1,13=1,31=1/2;
 7/10=1,25=1,30=1/1,2,3,16;
 1/10=4,18=20,19=15,26=3/3(2);
 2/9=110,15=3/2;
 99//99;
 2/9=110,15=3/2;
 3/5=4,6=6,7=1111,11=2,25=1,30=1,71=1,74=-58/1,2,3;
 4/5=5,16=3,69=1/1;
 5/5=2,8=3,13=1,38=5/2,8;
 7/30=1/1,2,3,16;
 1/18=20,19=15,26=3/3(-5);
 2/9=110,15=3/2;
 99/9=1/99;
 Leave Link    1 at Fri May 23 03:37:18 2025, MaxMem=  3758096384 cpu:               0.0 elap:               0.0
 (Enter /apps/easybuild-2022/easybuild/software/Compiler/NVHPC/22.11-CUDA-11.7.0/Gaussian/g16c01-CUDA-11.7.0/g16/l101.exe)
 ------------------------------
 Gaussian input prepared by ASE
 ------------------------------
 Symbolic Z-matrix:
 Charge =  0 Multiplicity = 1
 C                    -1.28688  -0.29959   0.74813 
 C                    -0.40581   0.36679  -0.38113 
 F                    -0.85651   0.00541  -1.57801 
 F                    -0.46992   1.69904  -0.27782 
 S                     1.40834  -0.09578  -0.28346 
 O                     1.93287   0.47876   0.92393 
 O                     1.52896  -1.47251  -0.64113 
 O                     1.92856   0.75984  -1.53648 
 F                    -0.53719  -1.05814   1.54106 
 F                    -1.86671   0.63876   1.48234 
 F                    -2.22465  -1.05674   0.19947 
 H                     2.18397   1.64673  -1.25053 
 
 ITRead=  0  0  0  0  0  0  0  0  0  0  0  0
 MicOpt= -1 -1 -1 -1 -1 -1 -1 -1 -1 -1 -1 -1
 NAtoms=     12 NQM=       12 NQMF=       0 NMMI=      0 NMMIF=      0
                NMic=       0 NMicF=      0.
                    Isotopes and Nuclear Properties:
 (Nuclear quadrupole moments (NQMom) in fm**2, nuclear magnetic moments (NMagM)
  in nuclear magnetons)

  Atom         1           2           3           4           5           6           7           8           9          10
 IAtWgt=          12          12          19          19          32          16          16          16          19          19
 AtmWgt=  12.0000000  12.0000000  18.9984032  18.9984032  31.9720718  15.9949146  15.9949146  15.9949146  18.9984032  18.9984032
 NucSpn=           0           0           1           1           0           0           0           0           1           1
 AtZEff=  -0.0000000  -0.0000000  -0.0000000  -0.0000000  -0.0000000  -0.0000000  -0.0000000  -0.0000000  -0.0000000  -0.0000000
 NQMom=    0.0000000   0.0000000   0.0000000   0.0000000   0.0000000   0.0000000   0.0000000   0.0000000   0.0000000   0.0000000
 NMagM=    0.0000000   0.0000000   2.6288670   2.6288670   0.0000000   0.0000000   0.0000000   0.0000000   2.6288670   2.6288670
 AtZNuc=   6.0000000   6.0000000   9.0000000   9.0000000  16.0000000   8.0000000   8.0000000   8.0000000   9.0000000   9.0000000

  Atom        11          12
 IAtWgt=          19           1
 AtmWgt=  18.9984032   1.0078250
 NucSpn=           1           1
 AtZEff=  -0.0000000  -0.0000000
 NQMom=    0.0000000   0.0000000
 NMagM=    2.6288670   2.7928460
 AtZNuc=   9.0000000   1.0000000
 Leave Link  101 at Fri May 23 03:37:18 2025, MaxMem=  3758096384 cpu:               0.2 elap:               0.2
 (Enter /apps/easybuild-2022/easybuild/software/Compiler/NVHPC/22.11-CUDA-11.7.0/Gaussian/g16c01-CUDA-11.7.0/g16/l103.exe)

 GradGradGradGradGradGradGradGradGradGradGradGradGradGradGradGradGradGrad
 Berny optimization.
 Initialization pass.
                           ----------------------------
                           !    Initial Parameters    !
                           ! (Angstroms and Degrees)  !
 --------------------------                            --------------------------
 ! Name  Definition              Value          Derivative Info.                !
 --------------------------------------------------------------------------------
 ! R1    R(1,2)                  1.5797         calculate D2E/DX2 analytically  !
 ! R2    R(1,9)                  1.329          calculate D2E/DX2 analytically  !
 ! R3    R(1,10)                 1.3251         calculate D2E/DX2 analytically  !
 ! R4    R(1,11)                 1.3243         calculate D2E/DX2 analytically  !
 ! R5    R(2,3)                  1.329          calculate D2E/DX2 analytically  !
 ! R6    R(2,4)                  1.3378         calculate D2E/DX2 analytically  !
 ! R7    R(2,5)                  1.8747         calculate D2E/DX2 analytically  !
 ! R8    R(5,6)                  1.4363         calculate D2E/DX2 analytically  !
 ! R9    R(5,7)                  1.4275         calculate D2E/DX2 analytically  !
 ! R10   R(5,8)                  1.604          calculate D2E/DX2 analytically  !
 ! R11   R(8,12)                 0.9662         calculate D2E/DX2 analytically  !
 ! A1    A(2,1,9)              110.6497         calculate D2E/DX2 analytically  !
 ! A2    A(2,1,10)             109.9637         calculate D2E/DX2 analytically  !
 ! A3    A(2,1,11)             109.875          calculate D2E/DX2 analytically  !
 ! A4    A(9,1,10)             108.6899         calculate D2E/DX2 analytically  !
 ! A5    A(9,1,11)             108.6824         calculate D2E/DX2 analytically  !
 ! A6    A(10,1,11)            108.9405         calculate D2E/DX2 analytically  !
 ! A7    A(1,2,3)              109.8723         calculate D2E/DX2 analytically  !
 ! A8    A(1,2,4)              109.7643         calculate D2E/DX2 analytically  !
 ! A9    A(1,2,5)              113.4774         calculate D2E/DX2 analytically  !
 ! A10   A(3,2,4)              108.9102         calculate D2E/DX2 analytically  !
 ! A11   A(3,2,5)              107.9381         calculate D2E/DX2 analytically  !
 ! A12   A(4,2,5)              106.7426         calculate D2E/DX2 analytically  !
 ! A13   A(2,5,6)              107.3664         calculate D2E/DX2 analytically  !
 ! A14   A(2,5,7)              107.8586         calculate D2E/DX2 analytically  !
 ! A15   A(2,5,8)               98.1365         calculate D2E/DX2 analytically  !
 ! A16   A(6,5,7)              124.4391         calculate D2E/DX2 analytically  !
 ! A17   A(6,5,8)              108.9569         calculate D2E/DX2 analytically  !
 ! A18   A(7,5,8)              106.937          calculate D2E/DX2 analytically  !
 ! A19   A(5,8,12)             110.1316         calculate D2E/DX2 analytically  !
 ! D1    D(9,1,2,3)            121.0232         calculate D2E/DX2 analytically  !
 ! D2    D(9,1,2,4)           -119.2375         calculate D2E/DX2 analytically  !
 ! D3    D(9,1,2,5)              0.0899         calculate D2E/DX2 analytically  !
 ! D4    D(10,1,2,3)          -118.8948         calculate D2E/DX2 analytically  !
 ! D5    D(10,1,2,4)             0.8444         calculate D2E/DX2 analytically  !
 ! D6    D(10,1,2,5)           120.1718         calculate D2E/DX2 analytically  !
 ! D7    D(11,1,2,3)             1.0078         calculate D2E/DX2 analytically  !
 ! D8    D(11,1,2,4)           120.747          calculate D2E/DX2 analytically  !
 ! D9    D(11,1,2,5)          -119.9256         calculate D2E/DX2 analytically  !
 ! D10   D(1,2,5,6)            -66.6191         calculate D2E/DX2 analytically  !
 ! D11   D(1,2,5,7)             69.7084         calculate D2E/DX2 analytically  !
 ! D12   D(1,2,5,8)           -179.4832         calculate D2E/DX2 analytically  !
 ! D13   D(3,2,5,6)            171.3653         calculate D2E/DX2 analytically  !
 ! D14   D(3,2,5,7)            -52.3072         calculate D2E/DX2 analytically  !
 ! D15   D(3,2,5,8)             58.5013         calculate D2E/DX2 analytically  !
 ! D16   D(4,2,5,6)             54.422          calculate D2E/DX2 analytically  !
 ! D17   D(4,2,5,7)           -169.2505         calculate D2E/DX2 analytically  !
 ! D18   D(4,2,5,8)            -58.4421         calculate D2E/DX2 analytically  !
 ! D19   D(2,5,8,12)            89.7546         calculate D2E/DX2 analytically  !
 ! D20   D(6,5,8,12)           -21.8326         calculate D2E/DX2 analytically  !
 ! D21   D(7,5,8,12)          -158.6917         calculate D2E/DX2 analytically  !
 --------------------------------------------------------------------------------
 Trust Radius=3.00D-01 FncErr=1.00D-07 GrdErr=1.00D-06 EigMax=2.50D+02 EigMin=1.00D-04
 Number of steps in this run=     61 maximum allowed number of steps=    100.
 GradGradGradGradGradGradGradGradGradGradGradGradGradGradGradGradGradGrad

 Leave Link  103 at Fri May 23 03:37:18 2025, MaxMem=  3758096384 cpu:               0.0 elap:               0.0
 (Enter /apps/easybuild-2022/easybuild/software/Compiler/NVHPC/22.11-CUDA-11.7.0/Gaussian/g16c01-CUDA-11.7.0/g16/l202.exe)
                          Input orientation:                          
 ---------------------------------------------------------------------
 Center     Atomic      Atomic             Coordinates (Angstroms)
 Number     Number       Type             X           Y           Z
 ---------------------------------------------------------------------
      1          6           0       -1.286881   -0.299593    0.748127
      2          6           0       -0.405807    0.366786   -0.381128
      3          9           0       -0.856506    0.005405   -1.578005
      4          9           0       -0.469923    1.699044   -0.277820
      5         16           0        1.408337   -0.095784   -0.283463
      6          8           0        1.932869    0.478761    0.923932
      7          8           0        1.528957   -1.472511   -0.641128
      8          8           0        1.928558    0.759839   -1.536483
      9          9           0       -0.537193   -1.058142    1.541056
     10          9           0       -1.866705    0.638762    1.482342
     11          9           0       -2.224645   -1.056740    0.199474
     12          1           0        2.183965    1.646727   -1.250531
 ---------------------------------------------------------------------
                    Distance matrix (angstroms):
                    1          2          3          4          5
     1  C    0.000000
     2  C    1.579737   0.000000
     3  F    2.385191   1.329000   0.000000
     4  F    2.390510   1.337795   2.169871   0.000000
     5  S    2.893081   1.874734   2.610669   2.597941   0.000000
     6  O    3.317157   2.680508   3.776820   2.950713   1.436328
     7  O    3.351822   2.682149   2.958447   3.766467   1.427533
     8  O    4.084224   2.634121   2.885737   2.866889   1.603989
     9  F    1.328971   2.396346   3.310836   3.303772   2.835505
    10  F    1.325058   2.383425   3.284413   2.484626   3.792562
    11  F    1.324271   2.381532   2.481811   3.301697   3.788829
    12  H    4.453040   3.016791   3.470683   2.827017   2.138496
                    6          7          8          9         10
     6  O    0.000000
     7  O    2.533776   0.000000
     8  O    2.476422   2.438181   0.000000
     9  F    2.973906   3.033579   4.342376   0.000000
    10  F    3.843720   4.527374   4.850978   2.156509   0.000000
    11  F    4.490827   3.868980   4.854132   2.155769   2.156061
    12  H    2.481025   3.245004   0.966215   4.744889   4.989240
                   11         12
    11  F    0.000000
    12  H    5.370949   0.000000
 Symmetry turned off by external request.
 Stoichiometry    C2HF5O3S
 Rotational constants (GHZ):           1.5866936           0.8171958           0.7716887
 Leave Link  202 at Fri May 23 03:37:18 2025, MaxMem=  3758096384 cpu:               0.0 elap:               0.0
 (Enter /apps/easybuild-2022/easybuild/software/Compiler/NVHPC/22.11-CUDA-11.7.0/Gaussian/g16c01-CUDA-11.7.0/g16/l301.exe)
 Standard basis: 6-311++G(d,p) (5D, 7F)
 Ernie: Thresh=  0.10000D-02 Tol=  0.10000D-05 Strict=F.
   257 basis functions,   419 primitive gaussians,   268 cartesian basis functions
    49 alpha electrons       49 beta electrons
       nuclear repulsion energy       921.3669458773 Hartrees.
 IExCor= 4639 DFT=T Ex+Corr=wB97XD ExCW=0 ScaHFX=  1.000000
 ScaDFX=  1.000000  1.000000  1.000000  1.000000 ScalE2=  1.000000  1.000000
 IRadAn=      5 IRanWt=     -1 IRanGd=            0 ICorTp=0 IEmpDi=121
 HFx  wShort=  0.000000 wLong=  0.200000 cFull=  0.222036 cShort=  0.000000 cLong=  0.777964
 DFx  wShort=  0.000000 wLong=  0.200000 cFull=  0.000000 cShort=  0.000000 cLong=  1.000000
 NAtoms=   12 NActive=   12 NUniq=   12 SFac= 1.00D+00 NAtFMM=   60 NAOKFM=F Big=F
 Integral buffers will be    131072 words long.
 Raffenetti 2 integral format.
 Two-electron integral symmetry is turned off.
 R6Disp:  Grimme-D2 Dispersion energy=       -0.0054934362 Hartrees.
 Nuclear repulsion after empirical dispersion term =      921.3614524412 Hartrees.
 Leave Link  301 at Fri May 23 03:37:18 2025, MaxMem=  3758096384 cpu:               0.0 elap:               0.0
 (Enter /apps/easybuild-2022/easybuild/software/Compiler/NVHPC/22.11-CUDA-11.7.0/Gaussian/g16c01-CUDA-11.7.0/g16/l302.exe)
 NPDir=0 NMtPBC=     1 NCelOv=     1 NCel=       1 NClECP=     1 NCelD=      1
         NCelK=      1 NCelE2=     1 NClLst=     1 CellRange=     0.0.
 One-electron integrals computed using PRISM.
 NBasis=   257 RedAO= T EigKep=  5.97D-05  NBF=   257
 NBsUse=   257 1.00D-06 EigRej= -1.00D+00 NBFU=   257
 Precomputing XC quadrature grid using
 IXCGrd= 4 IRadAn=           5 IRanWt=          -1 IRanGd=           0 AccXCQ= 0.00D+00.
 Generated NRdTot=       0 NPtTot=           0 NUsed=           0 NTot=          32
 NSgBfM=   268   268   268   268   268 MxSgAt=    12 MxSgA2=    12.
 Leave Link  302 at Fri May 23 03:37:18 2025, MaxMem=  3758096384 cpu:               0.5 elap:               0.1
 (Enter /apps/easybuild-2022/easybuild/software/Compiler/NVHPC/22.11-CUDA-11.7.0/Gaussian/g16c01-CUDA-11.7.0/g16/l303.exe)
 DipDrv:  MaxL=1.
 Leave Link  303 at Fri May 23 03:37:18 2025, MaxMem=  3758096384 cpu:               0.1 elap:               0.0
 (Enter /apps/easybuild-2022/easybuild/software/Compiler/NVHPC/22.11-CUDA-11.7.0/Gaussian/g16c01-CUDA-11.7.0/g16/l401.exe)
 ExpMin= 3.60D-02 ExpMax= 9.34D+04 ExpMxC= 3.17D+03 IAcc=3 IRadAn=         5 AccDes= 0.00D+00
 Harris functional with IExCor= 4639 and IRadAn=       5 diagonalized for initial guess.
 HarFok:  IExCor= 4639 AccDes= 0.00D+00 IRadAn=         5 IDoV= 1 UseB2=F ITyADJ=14
 ICtDFT=  3500011 ScaDFX=  1.000000  1.000000  1.000000  1.000000
 FoFCou: FMM=F IPFlag=           0 FMFlag=      100000 FMFlg1=           0
         NFxFlg=           0 DoJE=T BraDBF=F KetDBF=T FulRan=T
         wScrn=  0.000000 ICntrl=       500 IOpCl=  0 I1Cent=   200000004 NGrid=           0
         NMat0=    1 NMatS0=      1 NMatT0=    0 NMatD0=    1 NMtDS0=    0 NMtDT0=    0
 Symmetry not used in FoFCou.
 Harris En= -1167.09944325559    
 JPrj=0 DoOrth=F DoCkMO=F.
 Leave Link  401 at Fri May 23 03:37:19 2025, MaxMem=  3758096384 cpu:               2.3 elap:               0.3
 (Enter /apps/easybuild-2022/easybuild/software/Compiler/NVHPC/22.11-CUDA-11.7.0/Gaussian/g16c01-CUDA-11.7.0/g16/l502.exe)
 Keep R1 ints in memory in canonical form, NReq=1117474609.
 FoFCou: FMM=F IPFlag=           0 FMFlag=           0 FMFlg1=           0
         NFxFlg=           0 DoJE=F BraDBF=F KetDBF=F FulRan=T
         wScrn=  0.000000 ICntrl=       600 IOpCl=  0 I1Cent=           0 NGrid=           0
         NMat0=    1 NMatS0=  33153 NMatT0=    0 NMatD0=    1 NMtDS0=    0 NMtDT0=    0
 Symmetry not used in FoFCou.
 Two-electron integral symmetry not used.
 Closed shell SCF:
 Using DIIS extrapolation, IDIIS=  1040.
 NGot=  3758096384 LenX=  2658793876 LenY=  2658721611
 Requested convergence on RMS density matrix=1.00D-08 within  32 cycles.
 Requested convergence on MAX density matrix=1.00D-06.
 Requested convergence on             energy=1.00D-06.
 No special actions if energy rises.

 Cycle   1  Pass 1  IDiag  1:
 E= -1199.14699847349    
 DIIS: error= 1.21D-01 at cycle   1 NSaved=   1.
 NSaved= 1 IEnMin= 1 EnMin= -1199.14699847349     IErMin= 1 ErrMin= 1.21D-01
 ErrMax= 1.21D-01  0.00D+00 EMaxC= 1.00D-01 BMatC= 3.33D+00 BMatP= 3.33D+00
 IDIUse=3 WtCom= 0.00D+00 WtEn= 1.00D+00
 Coeff-Com:  0.100D+01
 Coeff-En:   0.100D+01
 Coeff:      0.100D+01
 Gap=     0.662 Goal=   None    Shift=    0.000
 GapD=    0.662 DampG=2.000 DampE=0.250 DampFc=0.5000 IDamp=-1.
 Damping current iteration by 5.00D-01
 RMSDP=7.11D-03 MaxDP=3.77D-01              OVMax= 1.84D-01

 Cycle   2  Pass 1  IDiag  1:
 E= -1199.49458965170     Delta-E=       -0.347591178211 Rises=F Damp=T
 DIIS: error= 5.25D-02 at cycle   2 NSaved=   2.
 NSaved= 2 IEnMin= 2 EnMin= -1199.49458965170     IErMin= 2 ErrMin= 5.25D-02
 ErrMax= 5.25D-02  0.00D+00 EMaxC= 1.00D-01 BMatC= 4.81D-01 BMatP= 3.33D+00
 IDIUse=3 WtCom= 4.75D-01 WtEn= 5.25D-01
 Coeff-Com: -0.398D+00 0.140D+01
 Coeff-En:   0.000D+00 0.100D+01
 Coeff:     -0.189D+00 0.119D+01
 Gap=     0.543 Goal=   None    Shift=    0.000
 RMSDP=2.63D-03 MaxDP=1.31D-01 DE=-3.48D-01 OVMax= 9.65D-02

 Cycle   3  Pass 1  IDiag  1:
 E= -1199.78228007118     Delta-E=       -0.287690419478 Rises=F Damp=F
 DIIS: error= 1.60D-02 at cycle   3 NSaved=   3.
 NSaved= 3 IEnMin= 3 EnMin= -1199.78228007118     IErMin= 3 ErrMin= 1.60D-02
 ErrMax= 1.60D-02  0.00D+00 EMaxC= 1.00D-01 BMatC= 6.38D-02 BMatP= 4.81D-01
 IDIUse=3 WtCom= 8.40D-01 WtEn= 1.60D-01
 Coeff-Com: -0.161D+00 0.465D+00 0.695D+00
 Coeff-En:   0.000D+00 0.000D+00 0.100D+01
 Coeff:     -0.135D+00 0.391D+00 0.744D+00
 Gap=     0.463 Goal=   None    Shift=    0.000
 RMSDP=2.44D-03 MaxDP=1.26D-01 DE=-2.88D-01 OVMax= 5.78D-02

 Cycle   4  Pass 1  IDiag  1:
 E= -1199.80953345033     Delta-E=       -0.027253379158 Rises=F Damp=F
 DIIS: error= 8.57D-03 at cycle   4 NSaved=   4.
 NSaved= 4 IEnMin= 4 EnMin= -1199.80953345033     IErMin= 4 ErrMin= 8.57D-03
 ErrMax= 8.57D-03  0.00D+00 EMaxC= 1.00D-01 BMatC= 1.90D-02 BMatP= 6.38D-02
 IDIUse=3 WtCom= 9.14D-01 WtEn= 8.57D-02
 Coeff-Com: -0.296D-01 0.753D-01 0.374D+00 0.580D+00
 Coeff-En:   0.000D+00 0.000D+00 0.243D+00 0.757D+00
 Coeff:     -0.270D-01 0.689D-01 0.363D+00 0.595D+00
 Gap=     0.478 Goal=   None    Shift=    0.000
 RMSDP=1.16D-03 MaxDP=6.55D-02 DE=-2.73D-02 OVMax= 2.30D-02

 Cycle   5  Pass 1  IDiag  1:
 E= -1199.82151826463     Delta-E=       -0.011984814301 Rises=F Damp=F
 DIIS: error= 1.37D-03 at cycle   5 NSaved=   5.
 NSaved= 5 IEnMin= 5 EnMin= -1199.82151826463     IErMin= 5 ErrMin= 1.37D-03
 ErrMax= 1.37D-03  0.00D+00 EMaxC= 1.00D-01 BMatC= 8.17D-04 BMatP= 1.90D-02
 IDIUse=3 WtCom= 9.86D-01 WtEn= 1.37D-02
 Coeff-Com: -0.598D-02 0.136D-01 0.156D+00 0.311D+00 0.526D+00
 Coeff-En:   0.000D+00 0.000D+00 0.000D+00 0.000D+00 0.100D+01
 Coeff:     -0.590D-02 0.134D-01 0.153D+00 0.307D+00 0.532D+00
 Gap=     0.468 Goal=   None    Shift=    0.000
 RMSDP=1.53D-04 MaxDP=7.42D-03 DE=-1.20D-02 OVMax= 4.28D-03

 Cycle   6  Pass 1  IDiag  1:
 E= -1199.82200504527     Delta-E=       -0.000486780631 Rises=F Damp=F
 DIIS: error= 2.03D-04 at cycle   6 NSaved=   6.
 NSaved= 6 IEnMin= 6 EnMin= -1199.82200504527     IErMin= 6 ErrMin= 2.03D-04
 ErrMax= 2.03D-04  0.00D+00 EMaxC= 1.00D-01 BMatC= 1.64D-05 BMatP= 8.17D-04
 IDIUse=3 WtCom= 9.98D-01 WtEn= 2.03D-03
 Coeff-Com:  0.203D-02-0.524D-02-0.917D-04 0.213D-01 0.131D+00 0.851D+00
 Coeff-En:   0.000D+00 0.000D+00 0.000D+00 0.000D+00 0.000D+00 0.100D+01
 Coeff:      0.203D-02-0.523D-02-0.915D-04 0.212D-01 0.131D+00 0.851D+00
 Gap=     0.467 Goal=   None    Shift=    0.000
 RMSDP=4.03D-05 MaxDP=1.72D-03 DE=-4.87D-04 OVMax= 8.56D-04

 Cycle   7  Pass 1  IDiag  1:
 E= -1199.82202106547     Delta-E=       -0.000016020205 Rises=F Damp=F
 DIIS: error= 4.82D-05 at cycle   7 NSaved=   7.
 NSaved= 7 IEnMin= 7 EnMin= -1199.82202106547     IErMin= 7 ErrMin= 4.82D-05
 ErrMax= 4.82D-05  0.00D+00 EMaxC= 1.00D-01 BMatC= 8.94D-07 BMatP= 1.64D-05
 IDIUse=1 WtCom= 1.00D+00 WtEn= 0.00D+00
 Coeff-Com:  0.846D-03-0.195D-02-0.124D-01-0.214D-01-0.330D-01 0.117D+00
 Coeff-Com:  0.951D+00
 Coeff:      0.846D-03-0.195D-02-0.124D-01-0.214D-01-0.330D-01 0.117D+00
 Coeff:      0.951D+00
 Gap=     0.467 Goal=   None    Shift=    0.000
 RMSDP=1.15D-05 MaxDP=5.49D-04 DE=-1.60D-05 OVMax= 3.16D-04

 Cycle   8  Pass 1  IDiag  1:
 E= -1199.82202201047     Delta-E=       -0.000000945000 Rises=F Damp=F
 DIIS: error= 1.62D-05 at cycle   8 NSaved=   8.
 NSaved= 8 IEnMin= 8 EnMin= -1199.82202201047     IErMin= 8 ErrMin= 1.62D-05
 ErrMax= 1.62D-05  0.00D+00 EMaxC= 1.00D-01 BMatC= 1.30D-07 BMatP= 8.94D-07
 IDIUse=1 WtCom= 1.00D+00 WtEn= 0.00D+00
 Coeff-Com:  0.344D-03-0.776D-03-0.564D-02-0.103D-01-0.171D-01 0.418D-01
 Coeff-Com:  0.433D+00 0.559D+00
 Coeff:      0.344D-03-0.776D-03-0.564D-02-0.103D-01-0.171D-01 0.418D-01
 Coeff:      0.433D+00 0.559D+00
 Gap=     0.467 Goal=   None    Shift=    0.000
 RMSDP=3.31D-06 MaxDP=2.09D-04 DE=-9.45D-07 OVMax= 5.69D-05

 Cycle   9  Pass 1  IDiag  1:
 E= -1199.82202209807     Delta-E=       -0.000000087603 Rises=F Damp=F
 DIIS: error= 4.80D-06 at cycle   9 NSaved=   9.
 NSaved= 9 IEnMin= 9 EnMin= -1199.82202209807     IErMin= 9 ErrMin= 4.80D-06
 ErrMax= 4.80D-06  0.00D+00 EMaxC= 1.00D-01 BMatC= 1.03D-08 BMatP= 1.30D-07
 IDIUse=1 WtCom= 1.00D+00 WtEn= 0.00D+00
 Coeff-Com: -0.559D-04 0.133D-03 0.472D-03 0.474D-03 0.177D-03-0.111D-01
 Coeff-Com: -0.479D-01 0.171D+00 0.887D+00
 Coeff:     -0.559D-04 0.133D-03 0.472D-03 0.474D-03 0.177D-03-0.111D-01
 Coeff:     -0.479D-01 0.171D+00 0.887D+00
 Gap=     0.467 Goal=   None    Shift=    0.000
 RMSDP=1.90D-06 MaxDP=9.51D-05 DE=-8.76D-08 OVMax= 4.36D-05

 Cycle  10  Pass 1  IDiag  1:
 E= -1199.82202210978     Delta-E=       -0.000000011702 Rises=F Damp=F
 DIIS: error= 1.86D-06 at cycle  10 NSaved=  10.
 NSaved=10 IEnMin=10 EnMin= -1199.82202210978     IErMin=10 ErrMin= 1.86D-06
 ErrMax= 1.86D-06  0.00D+00 EMaxC= 1.00D-01 BMatC= 1.44D-09 BMatP= 1.03D-08
 IDIUse=1 WtCom= 1.00D+00 WtEn= 0.00D+00
 Coeff-Com: -0.461D-04 0.106D-03 0.522D-03 0.821D-03 0.109D-02-0.680D-02
 Coeff-Com: -0.462D-01 0.365D-01 0.363D+00 0.651D+00
 Coeff:     -0.461D-04 0.106D-03 0.522D-03 0.821D-03 0.109D-02-0.680D-02
 Coeff:     -0.462D-01 0.365D-01 0.363D+00 0.651D+00
 Gap=     0.467 Goal=   None    Shift=    0.000
 RMSDP=4.68D-07 MaxDP=3.23D-05 DE=-1.17D-08 OVMax= 1.39D-05

 Cycle  11  Pass 1  IDiag  1:
 E= -1199.82202211090     Delta-E=       -0.000000001122 Rises=F Damp=F
 DIIS: error= 9.85D-07 at cycle  11 NSaved=  11.
 NSaved=11 IEnMin=11 EnMin= -1199.82202211090     IErMin=11 ErrMin= 9.85D-07
 ErrMax= 9.85D-07  0.00D+00 EMaxC= 1.00D-01 BMatC= 3.61D-10 BMatP= 1.44D-09
 IDIUse=1 WtCom= 1.00D+00 WtEn= 0.00D+00
 Coeff-Com: -0.130D-04 0.287D-04 0.169D-03 0.341D-03 0.558D-03-0.105D-02
 Coeff-Com: -0.145D-01-0.160D-01 0.214D-02 0.343D+00 0.685D+00
 Coeff:     -0.130D-04 0.287D-04 0.169D-03 0.341D-03 0.558D-03-0.105D-02
 Coeff:     -0.145D-01-0.160D-01 0.214D-02 0.343D+00 0.685D+00
 Gap=     0.467 Goal=   None    Shift=    0.000
 RMSDP=2.34D-07 MaxDP=1.14D-05 DE=-1.12D-09 OVMax= 6.32D-06

 Cycle  12  Pass 1  IDiag  1:
 E= -1199.82202211118     Delta-E=       -0.000000000284 Rises=F Damp=F
 DIIS: error= 2.27D-07 at cycle  12 NSaved=  12.
 NSaved=12 IEnMin=12 EnMin= -1199.82202211118     IErMin=12 ErrMin= 2.27D-07
 ErrMax= 2.27D-07  0.00D+00 EMaxC= 1.00D-01 BMatC= 2.11D-11 BMatP= 3.61D-10
 IDIUse=1 WtCom= 1.00D+00 WtEn= 0.00D+00
 Coeff-Com:  0.481D-06-0.136D-05 0.236D-05 0.343D-04 0.930D-04 0.306D-03
 Coeff-Com: -0.852D-03-0.101D-01-0.369D-01 0.705D-01 0.268D+00 0.709D+00
 Coeff:      0.481D-06-0.136D-05 0.236D-05 0.343D-04 0.930D-04 0.306D-03
 Coeff:     -0.852D-03-0.101D-01-0.369D-01 0.705D-01 0.268D+00 0.709D+00
 Gap=     0.467 Goal=   None    Shift=    0.000
 RMSDP=5.60D-08 MaxDP=2.33D-06 DE=-2.84D-10 OVMax= 1.40D-06

 Cycle  13  Pass 1  IDiag  1:
 E= -1199.82202211114     Delta-E=        0.000000000041 Rises=F Damp=F
 DIIS: error= 5.96D-08 at cycle  13 NSaved=  13.
 NSaved=13 IEnMin=12 EnMin= -1199.82202211118     IErMin=13 ErrMin= 5.96D-08
 ErrMax= 5.96D-08  0.00D+00 EMaxC= 1.00D-01 BMatC= 2.20D-12 BMatP= 2.11D-11
 IDIUse=1 WtCom= 1.00D+00 WtEn= 0.00D+00
 Coeff-Com:  0.126D-05-0.285D-05-0.116D-04-0.147D-04-0.292D-05 0.197D-03
 Coeff-Com:  0.872D-03-0.209D-02-0.123D-01-0.719D-02 0.289D-01 0.267D+00
 Coeff-Com:  0.724D+00
 Coeff:      0.126D-05-0.285D-05-0.116D-04-0.147D-04-0.292D-05 0.197D-03
 Coeff:      0.872D-03-0.209D-02-0.123D-01-0.719D-02 0.289D-01 0.267D+00
 Coeff:      0.724D+00
 Gap=     0.467 Goal=   None    Shift=    0.000
 RMSDP=2.04D-08 MaxDP=9.77D-07 DE= 4.09D-11 OVMax= 5.24D-07

 Cycle  14  Pass 1  IDiag  1:
 E= -1199.82202211123     Delta-E=       -0.000000000088 Rises=F Damp=F
 DIIS: error= 2.55D-08 at cycle  14 NSaved=  14.
 NSaved=14 IEnMin=14 EnMin= -1199.82202211123     IErMin=14 ErrMin= 2.55D-08
 ErrMax= 2.55D-08  0.00D+00 EMaxC= 1.00D-01 BMatC= 2.52D-13 BMatP= 2.20D-12
 IDIUse=1 WtCom= 1.00D+00 WtEn= 0.00D+00
 Coeff-Com:  0.441D-06-0.953D-06-0.516D-05-0.122D-04-0.177D-04 0.195D-04
 Coeff-Com:  0.492D-03 0.729D-03 0.842D-03-0.131D-01-0.283D-01 0.436D-02
 Coeff-Com:  0.265D+00 0.770D+00
 Coeff:      0.441D-06-0.953D-06-0.516D-05-0.122D-04-0.177D-04 0.195D-04
 Coeff:      0.492D-03 0.729D-03 0.842D-03-0.131D-01-0.283D-01 0.436D-02
 Coeff:      0.265D+00 0.770D+00
 Gap=     0.467 Goal=   None    Shift=    0.000
 RMSDP=7.36D-09 MaxDP=3.22D-07 DE=-8.82D-11 OVMax= 2.11D-07

 SCF Done:  E(RwB97XD) =  -1199.82202211     A.U. after   14 cycles
            NFock= 14  Conv=0.74D-08     -V/T= 2.0020
 KE= 1.197419454519D+03 PE=-4.689375901766D+03 EE= 1.370772972694D+03
 Leave Link  502 at Fri May 23 03:37:31 2025, MaxMem=  3758096384 cpu:              61.4 elap:              12.4
 (Enter /apps/easybuild-2022/easybuild/software/Compiler/NVHPC/22.11-CUDA-11.7.0/Gaussian/g16c01-CUDA-11.7.0/g16/l508.exe)
 QCSCF skips out because SCF is already converged.
 Leave Link  508 at Fri May 23 03:37:31 2025, MaxMem=  3758096384 cpu:               0.0 elap:               0.0
 (Enter /apps/easybuild-2022/easybuild/software/Compiler/NVHPC/22.11-CUDA-11.7.0/Gaussian/g16c01-CUDA-11.7.0/g16/l801.exe)
 DoSCS=F DFT=T ScalE2(SS,OS)=  1.000000  1.000000
 Range of M.O.s used for correlation:     1   257
 NBasis=   257 NAE=    49 NBE=    49 NFC=     0 NFV=     0
 NROrb=    257 NOA=    49 NOB=    49 NVA=   208 NVB=   208

 **** Warning!!: The largest alpha MO coefficient is  0.36381580D+02

 Leave Link  801 at Fri May 23 03:37:31 2025, MaxMem=  3758096384 cpu:               0.0 elap:               0.0
 (Enter /apps/easybuild-2022/easybuild/software/Compiler/NVHPC/22.11-CUDA-11.7.0/Gaussian/g16c01-CUDA-11.7.0/g16/l1101.exe)
 Using compressed storage, NAtomX=    12.
 Will process     13 centers per pass.
 R6Disp: Adding Grimme-D2 dispersion energy 1st derivatives to the gradient.
 Leave Link 1101 at Fri May 23 03:37:31 2025, MaxMem=  3758096384 cpu:               0.5 elap:               0.1
 (Enter /apps/easybuild-2022/easybuild/software/Compiler/NVHPC/22.11-CUDA-11.7.0/Gaussian/g16c01-CUDA-11.7.0/g16/l1102.exe)
 Symmetrizing basis deriv contribution to polar:
 IMax=3 JMax=2 DiffMx= 0.00D+00
 Leave Link 1102 at Fri May 23 03:37:31 2025, MaxMem=  3758096384 cpu:               0.0 elap:               0.0
 (Enter /apps/easybuild-2022/easybuild/software/Compiler/NVHPC/22.11-CUDA-11.7.0/Gaussian/g16c01-CUDA-11.7.0/g16/l1110.exe)
 Forming Gx(P) for the SCF density, NAtomX=    12.
 Integral derivatives from FoFJK, PRISM(SPDF).
 Do as many integral derivatives as possible in FoFJK.
 G2DrvN: MDV=    3758095012.
 G2DrvN: will do    13 centers at a time, making    1 passes.
 Calling FoFCou, ICntrl=  3107 FMM=F I1Cent=   0 AccDes= 0.00D+00.
 FoFJK:  IHMeth= 1 ICntrl=    3107 DoSepK=T KAlg= 0 I1Cent=           0 FoldK=F
 IRaf=         1 NMat=       1 IRICut=       1 DoRegI=T DoRafI=F ISym2E= 0 IDoP0=0 IntGTp=1.
 FoFCou: FMM=F IPFlag=           0 FMFlag=      100000 FMFlg1=           0
         NFxFlg=           0 DoJE=F BraDBF=F KetDBF=F FulRan=T
         wScrn=  0.000000 ICntrl=      3507 IOpCl=  0 I1Cent=           0 NGrid=           0
         NMat0=    1 NMatS0=      1 NMatT0=    0 NMatD0=    1 NMtDS0=    0 NMtDT0=    0
 Symmetry not used in FoFCou.
 End of G2Drv F.D. properties file   721 does not exist.
 End of G2Drv F.D. properties file   722 does not exist.
 End of G2Drv F.D. properties file   788 does not exist.
 Leave Link 1110 at Fri May 23 03:37:44 2025, MaxMem=  3758096384 cpu:              99.7 elap:              12.6
 (Enter /apps/easybuild-2022/easybuild/software/Compiler/NVHPC/22.11-CUDA-11.7.0/Gaussian/g16c01-CUDA-11.7.0/g16/l1002.exe)
 Minotr:  Closed shell wavefunction.
          IDoAtm=111111111111
          Direct CPHF calculation.
          Differentiating once with respect to nuclear coordinates.
          Requested convergence is 1.0D-08 RMS, and 1.0D-07 maximum.
          Secondary convergence is 1.0D-12 RMS, and 1.0D-12 maximum.
          NewPWx=T KeepS1=F KeepF1=F KeepIn=T MapXYZ=F SortEE=F KeepMc=T.
         3724 words used for storage of precomputed grid.
 Keep R1 ints in memory in canonical form, NReq=1117480316.
 FoFCou: FMM=F IPFlag=           0 FMFlag=           0 FMFlg1=           0
         NFxFlg=           0 DoJE=F BraDBF=F KetDBF=F FulRan=T
         wScrn=  0.000000 ICntrl=       600 IOpCl=  0 I1Cent=           0 NGrid=           0
         NMat0=    1 NMatS0=  33153 NMatT0=    0 NMatD0=    1 NMtDS0=    0 NMtDT0=    0
 Symmetry not used in FoFCou.
 Two-electron integral symmetry not used.
          MDV=    3758096384 using IRadAn=       1.
          Solving linear equations simultaneously, MaxMat=       0.
          There are    39 degrees of freedom in the 1st order CPHF.  IDoFFX=6 NUNeed=     0.
     33 vectors produced by pass  0 Test12= 2.61D-14 2.56D-09 XBig12= 2.69D-01 9.58D-02.
 AX will form    33 AO Fock derivatives at one time.
     33 vectors produced by pass  1 Test12= 2.61D-14 2.56D-09 XBig12= 3.73D-02 2.41D-02.
     33 vectors produced by pass  2 Test12= 2.61D-14 2.56D-09 XBig12= 1.39D-03 5.01D-03.
     33 vectors produced by pass  3 Test12= 2.61D-14 2.56D-09 XBig12= 2.62D-05 6.77D-04.
     33 vectors produced by pass  4 Test12= 2.61D-14 2.56D-09 XBig12= 3.97D-07 8.83D-05.
     33 vectors produced by pass  5 Test12= 2.61D-14 2.56D-09 XBig12= 5.52D-09 9.76D-06.
     33 vectors produced by pass  6 Test12= 2.61D-14 2.56D-09 XBig12= 4.57D-11 1.18D-06.
     23 vectors produced by pass  7 Test12= 2.61D-14 2.56D-09 XBig12= 3.36D-13 7.32D-08.
      5 vectors produced by pass  8 Test12= 2.61D-14 2.56D-09 XBig12= 1.97D-15 5.90D-09.
 InvSVY:  IOpt=1 It=  1 EMax= 1.33D-15
 Solved reduced A of dimension   259 with    33 vectors.
 End of Minotr F.D. properties file   721 does not exist.
 End of Minotr F.D. properties file   722 does not exist.
 End of Minotr F.D. properties file   788 does not exist.
 Leave Link 1002 at Fri May 23 03:38:07 2025, MaxMem=  3758096384 cpu:             179.1 elap:              22.9
 (Enter /apps/easybuild-2022/easybuild/software/Compiler/NVHPC/22.11-CUDA-11.7.0/Gaussian/g16c01-CUDA-11.7.0/g16/l701.exe)
 ... and contract with generalized density number  0.
 Compute integral second derivatives.
 R6Disp: Adding Grimme-D2 dispersion energy 2nd derivatives to the Hessian.
 Leave Link  701 at Fri May 23 03:38:07 2025, MaxMem=  3758096384 cpu:               0.5 elap:               0.1
 (Enter /apps/easybuild-2022/easybuild/software/Compiler/NVHPC/22.11-CUDA-11.7.0/Gaussian/g16c01-CUDA-11.7.0/g16/l702.exe)
 L702 exits ... SP integral derivatives will be done elsewhere.
 Leave Link  702 at Fri May 23 03:38:07 2025, MaxMem=  3758096384 cpu:               0.0 elap:               0.0
 (Enter /apps/easybuild-2022/easybuild/software/Compiler/NVHPC/22.11-CUDA-11.7.0/Gaussian/g16c01-CUDA-11.7.0/g16/l703.exe)
 Integral derivatives from FoFJK, PRISM(SPDF).
 Compute integral second derivatives, UseDBF=F ICtDFT=           0.
 Calling FoFJK, ICntrl=    100127 FMM=F ISym2X=0 I1Cent= 0 IOpClX= 0 NMat=1 NMatS=1 NMatT=0.
 FoFJK:  IHMeth= 1 ICntrl=  100127 DoSepK=T KAlg= 0 I1Cent=           0 FoldK=F
 IRaf=         1 NMat=       1 IRICut=       1 DoRegI=T DoRafI=F ISym2E= 0 IDoP0=0 IntGTp=1.
 FoFCou: FMM=F IPFlag=           0 FMFlag=      100000 FMFlg1=         800
         NFxFlg=           0 DoJE=F BraDBF=F KetDBF=F FulRan=T
         wScrn=  0.000000 ICntrl=    100527 IOpCl=  0 I1Cent=           0 NGrid=           0
         NMat0=    1 NMatS0=      1 NMatT0=    0 NMatD0=    1 NMtDS0=    0 NMtDT0=    0
 Symmetry not used in FoFCou.
 Leave Link  703 at Fri May 23 03:38:44 2025, MaxMem=  3758096384 cpu:             294.0 elap:              37.0
 (Enter /apps/easybuild-2022/easybuild/software/Compiler/NVHPC/22.11-CUDA-11.7.0/Gaussian/g16c01-CUDA-11.7.0/g16/l716.exe)
 Dipole        =-1.15562690D-01 1.01937372D+00-3.28237043D-01
 Polarizability= 0.00000000D+00 0.00000000D+00 0.00000000D+00
                 0.00000000D+00 0.00000000D+00 0.00000000D+00
 -------------------------------------------------------------------
 Center     Atomic                   Forces (Hartrees/Bohr)
 Number     Number              X              Y              Z
 -------------------------------------------------------------------
      1        6          -0.000009080   -0.000002665    0.000004983
      2        6          -0.000004075   -0.000002513   -0.000006187
      3        9           0.000010413   -0.000026217    0.000000899
      4        9          -0.000012040   -0.000014111   -0.000025911
      5       16           0.000004763    0.000008972    0.000015732
      6        8          -0.000013191    0.000009699    0.000005750
      7        8           0.000013844    0.000009988    0.000012349
      8        8           0.000005101    0.000008876    0.000009869
      9        9          -0.000022687   -0.000007942   -0.000026537
     10        9           0.000031613   -0.000015058   -0.000003565
     11        9          -0.000003400    0.000033455    0.000013174
     12        1          -0.000001262   -0.000002483   -0.000000555
 -------------------------------------------------------------------
 Cartesian Forces:  Max     0.000033455 RMS     0.000014062
 Force constants in Cartesian coordinates: 
                1             2             3             4             5 
      1  0.559133D+00
      2  0.576173D-02  0.557963D+00
      3 -0.470037D-02  0.512865D-02  0.558437D+00
      4 -0.989753D-01 -0.964846D-02  0.298118D-01  0.425017D+00
      5 -0.313559D-01 -0.646193D-01  0.400052D-01  0.117443D-01  0.515851D+00
      6  0.573925D-01  0.336051D-01 -0.101538D+00  0.205186D-01 -0.645234D-02
      7  0.313350D-02 -0.264472D-02  0.616416D-02 -0.103201D+00 -0.171965D-01
      8  0.233239D-04  0.386352D-02  0.202067D-02 -0.163995D-01 -0.762946D-01
      9 -0.246761D-01 -0.154101D-01 -0.379134D-01 -0.727586D-01 -0.329935D-01
     10  0.447279D-02 -0.144957D-01  0.183114D-02 -0.726131D-01  0.274645D-01
     11  0.103132D-01 -0.395476D-01 -0.942017D-02  0.155605D-01 -0.295133D+00
     12 -0.222498D-02  0.162882D-01  0.473310D-02  0.164794D-02  0.399692D-03
     13 -0.216921D-01 -0.904527D-02  0.229143D-01 -0.141158D+00  0.369425D-01
     14 -0.121922D-01  0.254282D-01 -0.778432D-02  0.100210D-01 -0.356748D-01
     15  0.267810D-01 -0.925450D-02  0.212038D-01  0.186144D-01  0.421721D-02
     16  0.358498D-02  0.429434D-02 -0.431268D-02  0.136258D-01 -0.168237D-01
     17  0.163776D-02 -0.368787D-02 -0.101029D-02  0.729898D-02 -0.250828D-02
     18 -0.486574D-02  0.417594D-02 -0.107981D-01  0.765148D-02 -0.142735D-01
     19  0.253319D-02  0.112717D-03 -0.557084D-02  0.147322D-01  0.132332D-01
     20  0.172885D-02 -0.104093D-01  0.640763D-02 -0.178663D-01 -0.779709D-02
     21 -0.367274D-02  0.914795D-03 -0.296835D-02 -0.846342D-02 -0.228560D-02
     22 -0.197875D-03  0.655319D-02 -0.902096D-02 -0.445691D-02 -0.181555D-01
     23  0.259622D-02 -0.416562D-03 -0.264811D-02  0.533757D-02 -0.102367D-01
     24 -0.345673D-02 -0.231946D-02  0.211130D-02 -0.492836D-02  0.145310D-01
     25 -0.121743D+00  0.565553D-01 -0.614041D-01  0.406428D-02 -0.132499D-02
     26  0.548881D-01 -0.152053D+00  0.880745D-01  0.201046D-01 -0.783066D-02
     27 -0.592456D-01  0.877099D-01 -0.173048D+00 -0.256742D-01  0.195685D-01
     28 -0.129915D+00  0.609581D-01  0.678327D-01 -0.100651D-01  0.217323D-01
     29  0.670481D-01 -0.162406D+00 -0.849305D-01  0.303405D-02 -0.914068D-02
     30  0.691270D-01 -0.790237D-01 -0.160062D+00  0.250324D-01 -0.274287D-01
     31 -0.199829D+00 -0.981892D-01 -0.437124D-01 -0.256422D-01 -0.209854D-01
     32 -0.997363D-01 -0.153475D+00 -0.369077D-01 -0.284331D-01 -0.104555D-01
     33 -0.510296D-01 -0.418126D-01 -0.100821D+00  0.777945D-02  0.353188D-02
     34 -0.504990D-03 -0.212093D-03  0.167299D-03 -0.132847D-02 -0.527490D-02
     35 -0.712816D-03 -0.639319D-03  0.106452D-02 -0.753560D-03  0.383954D-02
     36  0.571430D-03 -0.219055D-05  0.664270D-03  0.768546D-03  0.118012D-02
                6             7             8             9            10 
      6  0.531183D+00
      7 -0.854830D-01  0.107715D+00
      8 -0.427117D-01  0.384152D-01  0.103992D+00
      9 -0.278670D+00  0.106620D+00  0.877044D-01  0.357143D+00
     10  0.271261D-02  0.972993D-02 -0.212126D-01 -0.790795D-02  0.677601D-01
     11  0.128574D-01 -0.113994D-01 -0.383791D-01 -0.420030D-01 -0.168398D-01
     12 -0.703483D-01 -0.379980D-02 -0.574115D-01 -0.137060D-01 -0.315339D-02
     13 -0.139862D-01 -0.623840D-02 -0.378910D-03 -0.252479D-02  0.183794D-02
     14  0.113838D-01 -0.109431D-01 -0.993893D-03 -0.113576D-01  0.318357D-01
     15 -0.359138D-01 -0.389986D-01 -0.477407D-03 -0.288886D-01  0.231743D-03
     16 -0.162476D-01 -0.123528D-01  0.722473D-04 -0.854880D-02 -0.180911D-02
     17 -0.214286D-02 -0.302954D-03  0.122040D-02  0.969013D-03 -0.146743D-02
     18 -0.369948D-02 -0.486802D-02  0.243582D-03 -0.142542D-02 -0.105441D-02
     19  0.702049D-02 -0.129932D-02 -0.181540D-03 -0.764718D-03 -0.800756D-02
     20 -0.135443D-01  0.427638D-02  0.379471D-02  0.640114D-02  0.695377D-02
     21  0.129070D-02  0.404485D-02  0.199289D-02  0.605121D-02  0.131890D-02
     22  0.252003D-01 -0.898359D-03 -0.470840D-03 -0.174366D-02 -0.436933D-03
     23  0.112157D-01 -0.812665D-03  0.118713D-02 -0.202496D-02 -0.153795D-02
     24 -0.132505D-01  0.436764D-02 -0.407316D-03  0.829727D-02 -0.176818D-03
     25  0.239699D-02  0.165376D-02  0.481877D-05  0.187680D-02  0.127640D-02
     26  0.138537D-01 -0.261076D-02 -0.101107D-02  0.772237D-02 -0.374648D-02
     27 -0.122132D-01  0.363169D-02  0.570992D-03 -0.666554D-02  0.463384D-02
     28  0.160459D-01 -0.709063D-03 -0.108713D-02  0.766136D-02 -0.169177D-03
     29 -0.357078D-02  0.102225D-02  0.173152D-02 -0.474595D-03 -0.645318D-02
     30 -0.157797D-01  0.378724D-03  0.193301D-02 -0.540590D-02  0.840568D-03
     31 -0.178866D-01  0.213050D-02  0.431035D-03  0.243787D-02 -0.244234D-02
     32 -0.129076D-01  0.131216D-02  0.112711D-02  0.109820D-02 -0.765647D-03
     33  0.749784D-03  0.886928D-02  0.654843D-02  0.160340D-02  0.246915D-03
     34  0.231597D-02  0.335641D-03  0.783930D-03  0.328815D-03  0.401039D-03
     35 -0.158611D-02  0.884127D-03 -0.237760D-03  0.368558D-03  0.264892D-03
     36 -0.181122D-02 -0.926679D-03 -0.603532D-05 -0.419853D-03  0.476845D-03
               11            12            13            14            15 
     11  0.402368D+00
     12  0.298739D-01  0.803646D-01
     13 -0.869685D-02  0.962375D-03  0.521037D+00
     14 -0.424767D-01 -0.453457D-03  0.490960D-01  0.102514D+01
     15 -0.280435D-02 -0.706210D-03  0.116991D+00  0.273289D+00  0.820353D+00
     16  0.483518D-02  0.757729D-03 -0.173584D+00 -0.843890D-01 -0.180541D+00
     17  0.858671D-02  0.167439D-02 -0.827457D-01 -0.178192D+00 -0.185536D+00
     18  0.511218D-02  0.254701D-02 -0.175170D+00 -0.190037D+00 -0.473798D+00
     19  0.109698D-01  0.277877D-03 -0.981065D-01  0.635404D-01  0.132883D-01
     20 -0.535200D-02 -0.252250D-03  0.564784D-01 -0.625739D+00 -0.151142D+00
     21 -0.221352D-03  0.859903D-03  0.130424D-01 -0.152908D+00 -0.120909D+00
     22  0.176386D-02  0.450255D-03 -0.883720D-01 -0.355899D-01  0.498805D-01
     23  0.106041D-01 -0.208296D-02 -0.396713D-01 -0.124843D+00  0.674183D-01
     24 -0.375781D-02  0.186841D-02  0.392609D-01  0.367988D-01 -0.173726D+00
     25 -0.138494D-02 -0.180769D-03 -0.159530D-02  0.466066D-02 -0.735818D-02
     26 -0.277503D-02  0.191652D-02  0.220743D-02 -0.766320D-02  0.260944D-02
     27  0.794257D-02 -0.426852D-02 -0.405118D-02  0.197117D-02 -0.684940D-02
     28 -0.130069D-02  0.170676D-02  0.513809D-02 -0.101589D-02  0.199318D-03
     29  0.612983D-02  0.722604D-02 -0.227534D-02 -0.372324D-02  0.322900D-03
     30  0.754546D-03 -0.109084D-02 -0.792904D-02  0.310266D-02 -0.544469D-02
     31 -0.709485D-02  0.435446D-02  0.643404D-02 -0.276203D-02 -0.570376D-03
     32 -0.247250D-02  0.281397D-02  0.562020D-02 -0.583348D-02  0.178147D-02
     33  0.295486D-02  0.171793D-03 -0.203654D-02  0.929012D-03 -0.457428D-02
     34  0.327407D-02 -0.798460D-03 -0.370113D-02 -0.122616D-01  0.148198D-02
     35 -0.155253D-02  0.749352D-05 -0.753110D-02 -0.254254D-01 -0.424167D-03
     36 -0.128870D-02 -0.424995D-03  0.125267D-01  0.350655D-01  0.925275D-02
               16            17            18            19            20 
     16  0.140355D+00
     17  0.905264D-01  0.158883D+00
     18  0.194271D+00  0.203048D+00  0.507919D+00
     19  0.202107D-01 -0.157808D-01 -0.741191D-02  0.613930D-01
     20  0.468601D-02 -0.372713D-02  0.391630D-02 -0.556227D-01  0.667999D+00
     21  0.165980D-02 -0.322559D-01  0.304545D-02 -0.140426D-01  0.154084D+00
     22  0.175547D-01  0.310315D-02 -0.908497D-02  0.101444D-01 -0.341886D-02
     23 -0.119465D-02  0.137011D-01 -0.527554D-02 -0.152119D-01 -0.292049D-01
     24  0.105700D-01  0.190677D-01 -0.316408D-01  0.137131D-03 -0.815779D-02
     25 -0.229359D-02 -0.234548D-02  0.430027D-02 -0.132844D-02 -0.206524D-02
     26 -0.277066D-02  0.715963D-03 -0.627014D-03 -0.641095D-05  0.393587D-02
     27  0.187775D-02  0.129213D-03  0.366679D-02  0.299078D-02 -0.152443D-02
     28 -0.161084D-02 -0.557620D-03 -0.920872D-03 -0.973994D-03  0.629801D-03
     29  0.418499D-03  0.134167D-02  0.438924D-03  0.670439D-03  0.147069D-02
     30  0.216320D-02  0.846743D-03  0.319036D-02  0.162919D-02 -0.164770D-02
     31 -0.152799D-02 -0.103750D-03  0.550864D-04 -0.138756D-02  0.232089D-02
     32 -0.143481D-02  0.557748D-03 -0.767069D-03 -0.883773D-03  0.328082D-02
     33  0.417768D-03  0.153516D-03  0.204854D-02  0.688425D-03 -0.523582D-03
     34 -0.215309D-02  0.737441D-03 -0.290168D-02  0.208993D-02  0.189907D-02
     35  0.178007D-02  0.310875D-02 -0.595500D-02 -0.839534D-03  0.174809D-02
     36 -0.206690D-02 -0.494368D-02 -0.105552D-02  0.175793D-02  0.598342D-02
               21            22            23            24            25 
     21  0.104382D+00
     22  0.229523D-02  0.111773D+00
     23  0.288335D-01  0.176566D+00  0.569905D+00
     24  0.111252D-01 -0.216174D-01  0.651358D-01  0.277299D+00
     25  0.299346D-02  0.995248D-03 -0.119217D-02  0.136920D-02  0.191865D+00
     26 -0.110552D-02 -0.951668D-03  0.973867D-03  0.142378D-04 -0.111532D+00
     27 -0.102955D-03  0.127575D-02 -0.864127D-04  0.395630D-03  0.117239D+00
     28  0.375228D-03 -0.217040D-02 -0.119225D-02  0.150418D-02 -0.250080D-01
     29 -0.219533D-03  0.577641D-03  0.118835D-02 -0.657078D-03  0.490349D-01
     30  0.460111D-03  0.353409D-02  0.134843D-02 -0.145816D-02 -0.786419D-02
     31  0.854239D-03 -0.269481D-02 -0.132532D-02  0.200982D-02 -0.478506D-01
     32  0.428083D-03 -0.267601D-02 -0.666671D-03  0.144416D-02  0.927508D-02
     33  0.833742D-03  0.100062D-02  0.108318D-03  0.269062D-03 -0.531500D-01
     34 -0.405360D-03 -0.412403D-01 -0.122362D+00 -0.290395D-01 -0.353306D-04
     35  0.274290D-02 -0.127301D+00 -0.432192D+00 -0.121692D+00  0.313691D-03
     36 -0.406818D-02 -0.421697D-01 -0.161942D+00 -0.812905D-01 -0.218890D-03
               26            27            28            29            30 
     26  0.190979D+00
     27 -0.113620D+00  0.198878D+00
     28  0.483372D-01  0.370919D-02  0.144338D+00
     29 -0.482224D-01 -0.507714D-02 -0.106596D+00  0.260498D+00
     30  0.941120D-02  0.243449D-01 -0.802933D-01  0.135645D+00  0.183186D+00
     31 -0.418747D-02 -0.460152D-01  0.210709D-01 -0.662182D-02 -0.654655D-02
     32  0.229011D-01  0.244531D-02 -0.204071D-01 -0.485694D-01 -0.443011D-01
     33 -0.810016D-02 -0.241252D-01 -0.178300D-01 -0.485922D-01 -0.217432D-01
     34  0.267684D-03 -0.372257D-03  0.740867D-04  0.140732D-03 -0.720307D-04
     35  0.494291D-04 -0.297850D-04  0.499433D-03 -0.298815D-03 -0.640101D-03
     36 -0.149309D-03 -0.124499D-04  0.959027D-05 -0.110819D-03 -0.196817D-03
               31            32            33            34            35 
     31  0.251568D+00
     32  0.137984D+00  0.193216D+00
     33  0.105079D+00  0.848808D-01  0.145706D+00
     34  0.171686D-03  0.145789D-03 -0.353901D-04  0.458909D-01
     35  0.534324D-03  0.390302D-03 -0.781810D-04  0.132862D+00  0.451210D+00
     36 -0.595332D-04 -0.843403D-05 -0.118971D-03  0.293306D-01  0.126222D+00
               36 
     36  0.794815D-01
 FormGI is forming the generalized inverse of G from B-inverse, IUseBI=4.
 Leave Link  716 at Fri May 23 03:38:44 2025, MaxMem=  3758096384 cpu:               0.0 elap:               0.0
 (Enter /apps/easybuild-2022/easybuild/software/Compiler/NVHPC/22.11-CUDA-11.7.0/Gaussian/g16c01-CUDA-11.7.0/g16/l103.exe)

 GradGradGradGradGradGradGradGradGradGradGradGradGradGradGradGradGradGrad
 Berny optimization.
 Red2BG is reusing G-inverse.
 Internal  Forces:  Max     0.000038998 RMS     0.000014384
 Search for a local minimum.
 Step number   1 out of a maximum of   61
 All quantities printed in internal units (Hartrees-Bohrs-Radians)
 RMS Force = .14384D-04 SwitMx=.10000D-02 MixMth= 2
 Mixed Optimization -- En-DIIS/RFO-DIIS
 Second derivative matrix not updated -- analytic derivatives used.
 ITU=  0
     Eigenvalues ---   -0.00231   0.00398   0.00633   0.04984   0.08598
     Eigenvalues ---    0.09745   0.10655   0.11097   0.11609   0.12595
     Eigenvalues ---    0.12761   0.16002   0.18241   0.19286   0.19577
     Eigenvalues ---    0.21618   0.23823   0.27126   0.27200   0.29498
     Eigenvalues ---    0.32297   0.37240   0.38769   0.39109   0.41700
     Eigenvalues ---    0.48633   0.52897   0.57038   0.68865   0.71518
 Eigenvalue     1 is  -2.31D-03 should be greater than     0.000000 Eigenvector:
                          D3        D6        D9        D1        D2
   1                   -0.32762  -0.32430  -0.32351  -0.32326  -0.32278
                          D4        D5        D7        D8        D10
   1                   -0.31995  -0.31947  -0.31916  -0.31868   0.08855
 RFO step:  Lambda=-2.31143629D-03 EMin=-2.30899548D-03
 I=     1 Eig=   -2.31D-03 Dot1=  4.50D-05
 I=     1 Stepn=  6.00D-01 RXN=   6.00D-01 EDone=F
 Mixed    1 eigenvectors in step.  Raw Step.Grad=  4.50D-05.
 RFO eigenvector is Hessian eigenvector with negative curvature.
 Taking step of  6.00D-01 in eigenvector direction(s).  Step.Grad=  2.96D-08.
 Linear search not attempted -- first point.
 Iteration  1 RMS(Cart)=  0.09801477 RMS(Int)=  0.00596267
 Iteration  2 RMS(Cart)=  0.00660028 RMS(Int)=  0.00001805
 Iteration  3 RMS(Cart)=  0.00002676 RMS(Int)=  0.00000215
 Iteration  4 RMS(Cart)=  0.00000000 RMS(Int)=  0.00000215
 ITry= 1 IFail=0 DXMaxC= 3.16D-01 DCOld= 1.00D+10 DXMaxT= 3.00D-01 DXLimC= 3.00D+00 Rises=F
 Variable       Old X    -DE/DX   Delta X   Delta X   Delta X     New X
                                 (Linear)    (Quad)   (Total)
    R1        2.98527  -0.00001   0.00000   0.00038   0.00038   2.98565
    R2        2.51139  -0.00002   0.00000   0.00006   0.00006   2.51145
    R3        2.50400  -0.00003   0.00000  -0.00142  -0.00142   2.50258
    R4        2.50251  -0.00002   0.00000   0.00128   0.00128   2.50379
    R5        2.51145   0.00000   0.00000  -0.00097  -0.00097   2.51047
    R6        2.52807  -0.00001   0.00000   0.00124   0.00124   2.52931
    R7        3.54273  -0.00000   0.00000  -0.00034  -0.00034   3.54239
    R8        2.71427  -0.00000   0.00000   0.00075   0.00075   2.71502
    R9        2.69765  -0.00001   0.00000  -0.00088  -0.00088   2.69676
   R10        3.03110   0.00000   0.00000  -0.00032  -0.00032   3.03078
   R11        1.82588  -0.00000   0.00000   0.00003   0.00003   1.82591
    A1        1.93120   0.00001   0.00000  -0.00080  -0.00080   1.93040
    A2        1.91923  -0.00001   0.00000   0.00190   0.00190   1.92113
    A3        1.91768   0.00001   0.00000  -0.00110  -0.00110   1.91658
    A4        1.89700  -0.00000   0.00000   0.00102   0.00102   1.89802
    A5        1.89687  -0.00001   0.00000  -0.00100  -0.00100   1.89586
    A6        1.90137  -0.00000   0.00000  -0.00002  -0.00002   1.90135
    A7        1.91763  -0.00001   0.00000   0.00221   0.00221   1.91984
    A8        1.91575   0.00001   0.00000  -0.00179  -0.00179   1.91396
    A9        1.98055   0.00000   0.00000  -0.00075  -0.00075   1.97980
   A10        1.90084  -0.00000   0.00000   0.00003   0.00003   1.90087
   A11        1.88388   0.00002   0.00000   0.00119   0.00119   1.88506
   A12        1.86301  -0.00002   0.00000  -0.00091  -0.00091   1.86210
   A13        1.87390  -0.00002   0.00000  -0.00761  -0.00761   1.86629
   A14        1.88249   0.00002   0.00000   0.00687   0.00687   1.88936
   A15        1.71281  -0.00000   0.00000   0.00058   0.00058   1.71338
   A16        2.17187  -0.00000   0.00000   0.00022   0.00022   2.17209
   A17        1.90166   0.00000   0.00000   0.00217   0.00217   1.90382
   A18        1.86640   0.00000   0.00000  -0.00202  -0.00203   1.86437
   A19        1.92216   0.00000   0.00000   0.00160   0.00160   1.92376
    D1        2.11225  -0.00002   0.00000  -0.19396  -0.19396   1.91830
    D2       -2.08109  -0.00002   0.00000  -0.19367  -0.19367  -2.27476
    D3        0.00157  -0.00003   0.00000  -0.19657  -0.19657  -0.19500
    D4       -2.07511  -0.00002   0.00000  -0.19197  -0.19197  -2.26707
    D5        0.01474  -0.00002   0.00000  -0.19168  -0.19168  -0.17694
    D6        2.09739  -0.00004   0.00000  -0.19458  -0.19458   1.90281
    D7        0.01759  -0.00002   0.00000  -0.19150  -0.19150  -0.17391
    D8        2.10743  -0.00002   0.00000  -0.19121  -0.19121   1.91623
    D9       -2.09310  -0.00004   0.00000  -0.19411  -0.19411  -2.28720
   D10       -1.16272   0.00000   0.00000   0.05313   0.05313  -1.10959
   D11        1.21664   0.00001   0.00000   0.05280   0.05279   1.26944
   D12       -3.13257   0.00001   0.00000   0.05272   0.05273  -3.07985
   D13        2.99089  -0.00000   0.00000   0.04997   0.04997   3.04086
   D14       -0.91293  -0.00000   0.00000   0.04964   0.04963  -0.86330
   D15        1.02104   0.00000   0.00000   0.04956   0.04956   1.07060
   D16        0.94984  -0.00000   0.00000   0.04981   0.04981   0.99966
   D17       -2.95398   0.00000   0.00000   0.04948   0.04947  -2.90450
   D18       -1.02001   0.00001   0.00000   0.04940   0.04941  -0.97060
   D19        1.56651  -0.00001   0.00000  -0.01792  -0.01792   1.54859
   D20       -0.38105   0.00001   0.00000  -0.01046  -0.01046  -0.39151
   D21       -2.76969   0.00001   0.00000  -0.01083  -0.01083  -2.78053
         Item               Value     Threshold  Converged?
 Maximum Force            0.000039     0.000450     YES
 RMS     Force            0.000014     0.000300     YES
 Maximum Displacement     0.315956     0.001800     NO 
 RMS     Displacement     0.097980     0.001200     NO 
 Predicted change in Energy=-4.606593D-04
 Lowest energy point so far.  Saving SCF results.
 GradGradGradGradGradGradGradGradGradGradGradGradGradGradGradGradGradGrad

 Leave Link  103 at Fri May 23 03:38:44 2025, MaxMem=  3758096384 cpu:               0.1 elap:               0.0
 (Enter /apps/easybuild-2022/easybuild/software/Compiler/NVHPC/22.11-CUDA-11.7.0/Gaussian/g16c01-CUDA-11.7.0/g16/l202.exe)
                          Input orientation:                          
 ---------------------------------------------------------------------
 Center     Atomic      Atomic             Coordinates (Angstroms)
 Number     Number       Type             X           Y           Z
 ---------------------------------------------------------------------
      1          6           0       -1.284010   -0.295425    0.748115
      2          6           0       -0.407946    0.331035   -0.407856
      3          9           0       -0.837858   -0.100446   -1.588480
      4          9           0       -0.503607    1.665601   -0.372624
      5         16           0        1.415270   -0.081887   -0.268815
      6          8           0        1.887167    0.513017    0.950849
      7          8           0        1.590622   -1.454366   -0.618205
      8          8           0        1.940596    0.784321   -1.512177
      9          9           0       -0.577563   -1.181369    1.442586
     10          9           0       -1.699508    0.656132    1.570121
     11          9           0       -2.339000   -0.907546    0.230623
     12          1           0        2.150862    1.683486   -1.227763
 ---------------------------------------------------------------------
                    Distance matrix (angstroms):
                    1          2          3          4          5
     1  C    0.000000
     2  C    1.579940   0.000000
     3  F    2.386786   1.328486   0.000000
     4  F    2.389709   1.338453   2.170012   0.000000
     5  S    2.892379   1.874554   2.611215   2.597418   0.000000
     6  O    3.278878   2.673338   3.774955   2.965776   1.436724
     7  O    3.387253   2.688155   2.944834   3.765673   1.427066
     8  O    4.083241   2.634510   2.916923   2.837140   1.603819
     9  F    1.329004   2.395886   3.228546   3.377231   2.847655
    10  F    1.324309   2.384578   3.360300   2.494687   3.691640
    11  F    1.324951   2.381325   2.492784   3.217710   3.876299
    12  H    4.429281   3.008133   3.499282   2.788868   2.139444
                    6          7          8          9         10
     6  O    0.000000
     7  O    2.533863   0.000000
     8  O    2.478499   2.435855   0.000000
     9  F    3.031112   3.003733   4.351516   0.000000
    10  F    3.642556   4.479724   4.771515   2.156718   0.000000
    11  F    4.516327   4.057271   4.920844   2.155572   2.155990
    12  H    2.487143   3.245234   0.966230   4.773097   4.869185
                   11         12
    11  F    0.000000
    12  H    5.385090   0.000000
 Symmetry turned off by external request.
 Stoichiometry    C2HF5O3S
 Rotational constants (GHZ):           1.5864365           0.8175357           0.7720675
 Leave Link  202 at Fri May 23 03:38:44 2025, MaxMem=  3758096384 cpu:               0.0 elap:               0.0
 (Enter /apps/easybuild-2022/easybuild/software/Compiler/NVHPC/22.11-CUDA-11.7.0/Gaussian/g16c01-CUDA-11.7.0/g16/l301.exe)
 Standard basis: 6-311++G(d,p) (5D, 7F)
 Ernie: Thresh=  0.10000D-02 Tol=  0.10000D-05 Strict=F.
   257 basis functions,   419 primitive gaussians,   268 cartesian basis functions
    49 alpha electrons       49 beta electrons
       nuclear repulsion energy       921.3612688088 Hartrees.
 IExCor= 4639 DFT=T Ex+Corr=wB97XD ExCW=0 ScaHFX=  1.000000
 ScaDFX=  1.000000  1.000000  1.000000  1.000000 ScalE2=  1.000000  1.000000
 IRadAn=      5 IRanWt=     -1 IRanGd=            0 ICorTp=0 IEmpDi=121
 HFx  wShort=  0.000000 wLong=  0.200000 cFull=  0.222036 cShort=  0.000000 cLong=  0.777964
 DFx  wShort=  0.000000 wLong=  0.200000 cFull=  0.000000 cShort=  0.000000 cLong=  1.000000
 NAtoms=   12 NActive=   12 NUniq=   12 SFac= 1.00D+00 NAtFMM=   60 NAOKFM=F Big=F
 Integral buffers will be    131072 words long.
 Raffenetti 2 integral format.
 Two-electron integral symmetry is turned off.
 R6Disp:  Grimme-D2 Dispersion energy=       -0.0055148100 Hartrees.
 Nuclear repulsion after empirical dispersion term =      921.3557539989 Hartrees.
 Leave Link  301 at Fri May 23 03:38:44 2025, MaxMem=  3758096384 cpu:               0.0 elap:               0.0
 (Enter /apps/easybuild-2022/easybuild/software/Compiler/NVHPC/22.11-CUDA-11.7.0/Gaussian/g16c01-CUDA-11.7.0/g16/l302.exe)
 NPDir=0 NMtPBC=     1 NCelOv=     1 NCel=       1 NClECP=     1 NCelD=      1
         NCelK=      1 NCelE2=     1 NClLst=     1 CellRange=     0.0.
 One-electron integrals computed using PRISM.
 NBasis=   257 RedAO= T EigKep=  6.15D-05  NBF=   257
 NBsUse=   257 1.00D-06 EigRej= -1.00D+00 NBFU=   257
 Precomputing XC quadrature grid using
 IXCGrd= 4 IRadAn=           5 IRanWt=          -1 IRanGd=           0 AccXCQ= 0.00D+00.
 Generated NRdTot=       0 NPtTot=           0 NUsed=           0 NTot=          32
 NSgBfM=   268   268   268   268   268 MxSgAt=    12 MxSgA2=    12.
 Leave Link  302 at Fri May 23 03:38:44 2025, MaxMem=  3758096384 cpu:               0.5 elap:               0.1
 (Enter /apps/easybuild-2022/easybuild/software/Compiler/NVHPC/22.11-CUDA-11.7.0/Gaussian/g16c01-CUDA-11.7.0/g16/l303.exe)
 DipDrv:  MaxL=1.
 Leave Link  303 at Fri May 23 03:38:45 2025, MaxMem=  3758096384 cpu:               0.1 elap:               0.0
 (Enter /apps/easybuild-2022/easybuild/software/Compiler/NVHPC/22.11-CUDA-11.7.0/Gaussian/g16c01-CUDA-11.7.0/g16/l401.exe)
 Initial guess from the checkpoint file:  "2003846667223680600001_r12_insertion_R_8_5_2_IRC_R_prod.chk"
 B after Tr=     0.005425   -0.003111   -0.001348
         Rot=    0.999998    0.001103   -0.000254    0.001800 Ang=   0.24 deg.
 Guess basis will be translated and rotated to current coordinates.
 JPrj=2 DoOrth=T DoCkMO=T.
 Generating alternative initial guess.
 ExpMin= 3.60D-02 ExpMax= 9.34D+04 ExpMxC= 3.17D+03 IAcc=3 IRadAn=         5 AccDes= 0.00D+00
 Harris functional with IExCor= 4639 and IRadAn=       5 diagonalized for initial guess.
 HarFok:  IExCor= 4639 AccDes= 0.00D+00 IRadAn=         5 IDoV= 1 UseB2=F ITyADJ=14
 ICtDFT=  3500011 ScaDFX=  1.000000  1.000000  1.000000  1.000000
 FoFCou: FMM=F IPFlag=           0 FMFlag=      100000 FMFlg1=           0
         NFxFlg=           0 DoJE=T BraDBF=F KetDBF=T FulRan=T
         wScrn=  0.000000 ICntrl=       500 IOpCl=  0 I1Cent=   200000004 NGrid=           0
         NMat0=    1 NMatS0=      1 NMatT0=    0 NMatD0=    1 NMtDS0=    0 NMtDT0=    0
 Symmetry not used in FoFCou.
 Harris En= -1167.10005018382    
 Leave Link  401 at Fri May 23 03:38:45 2025, MaxMem=  3758096384 cpu:               2.6 elap:               0.4
 (Enter /apps/easybuild-2022/easybuild/software/Compiler/NVHPC/22.11-CUDA-11.7.0/Gaussian/g16c01-CUDA-11.7.0/g16/l502.exe)
 Keep R1 ints in memory in canonical form, NReq=1117474609.
 FoFCou: FMM=F IPFlag=           0 FMFlag=           0 FMFlg1=           0
         NFxFlg=           0 DoJE=F BraDBF=F KetDBF=F FulRan=T
         wScrn=  0.000000 ICntrl=       600 IOpCl=  0 I1Cent=           0 NGrid=           0
         NMat0=    1 NMatS0=  33153 NMatT0=    0 NMatD0=    1 NMtDS0=    0 NMtDT0=    0
 Symmetry not used in FoFCou.
 Two-electron integral symmetry not used.
 Closed shell SCF:
 Using DIIS extrapolation, IDIIS=  1040.
 NGot=  3758096384 LenX=  2658793876 LenY=  2658721611
 Requested convergence on RMS density matrix=1.00D-08 within  32 cycles.
 Requested convergence on MAX density matrix=1.00D-06.
 Requested convergence on             energy=1.00D-06.
 No special actions if energy rises.

 Cycle   1  Pass 1  IDiag  1:
 E= -1199.78428085785    
 DIIS: error= 7.06D-03 at cycle   1 NSaved=   1.
 NSaved= 1 IEnMin= 1 EnMin= -1199.78428085785     IErMin= 1 ErrMin= 7.06D-03
 ErrMax= 7.06D-03  0.00D+00 EMaxC= 1.00D-01 BMatC= 2.51D-02 BMatP= 2.51D-02
 IDIUse=3 WtCom= 9.29D-01 WtEn= 7.06D-02
 Coeff-Com:  0.100D+01
 Coeff-En:   0.100D+01
 Coeff:      0.100D+01
 Gap=     0.744 Goal=   None    Shift=    0.000
 GapD=    0.744 DampG=2.000 DampE=1.000 DampFc=2.0000 IDamp=-1.
 RMSDP=1.49D-03 MaxDP=4.72D-02              OVMax= 4.38D-02

 Cycle   2  Pass 1  IDiag  1:
 E= -1199.82060721377     Delta-E=       -0.036326355920 Rises=F Damp=F
 DIIS: error= 1.90D-03 at cycle   2 NSaved=   2.
 NSaved= 2 IEnMin= 2 EnMin= -1199.82060721377     IErMin= 2 ErrMin= 1.90D-03
 ErrMax= 1.90D-03  0.00D+00 EMaxC= 1.00D-01 BMatC= 1.06D-03 BMatP= 2.51D-02
 IDIUse=3 WtCom= 9.81D-01 WtEn= 1.90D-02
 Coeff-Com: -0.156D+00 0.116D+01
 Coeff-En:   0.000D+00 0.100D+01
 Coeff:     -0.153D+00 0.115D+01
 Gap=     0.467 Goal=   None    Shift=    0.000
 RMSDP=2.62D-04 MaxDP=4.67D-03 DE=-3.63D-02 OVMax= 1.23D-02

 Cycle   3  Pass 1  IDiag  1:
 E= -1199.82224134095     Delta-E=       -0.001634127177 Rises=F Damp=F
 DIIS: error= 1.45D-03 at cycle   3 NSaved=   3.
 NSaved= 3 IEnMin= 3 EnMin= -1199.82224134095     IErMin= 3 ErrMin= 1.45D-03
 ErrMax= 1.45D-03  0.00D+00 EMaxC= 1.00D-01 BMatC= 3.75D-04 BMatP= 1.06D-03
 IDIUse=3 WtCom= 9.85D-01 WtEn= 1.45D-02
 Coeff-Com: -0.867D-01 0.497D+00 0.590D+00
 Coeff-En:   0.000D+00 0.000D+00 0.100D+01
 Coeff:     -0.854D-01 0.489D+00 0.596D+00
 Gap=     0.467 Goal=   None    Shift=    0.000
 RMSDP=9.90D-05 MaxDP=6.11D-03 DE=-1.63D-03 OVMax= 2.68D-03

 Cycle   4  Pass 1  IDiag  1:
 E= -1199.82244654236     Delta-E=       -0.000205201409 Rises=F Damp=F
 DIIS: error= 3.78D-04 at cycle   4 NSaved=   4.
 NSaved= 4 IEnMin= 4 EnMin= -1199.82244654236     IErMin= 4 ErrMin= 3.78D-04
 ErrMax= 3.78D-04  0.00D+00 EMaxC= 1.00D-01 BMatC= 4.06D-05 BMatP= 3.75D-04
 IDIUse=3 WtCom= 9.96D-01 WtEn= 3.78D-03
 Coeff-Com:  0.324D-03-0.397D-01 0.227D+00 0.812D+00
 Coeff-En:   0.000D+00 0.000D+00 0.000D+00 0.100D+01
 Coeff:      0.323D-03-0.396D-01 0.226D+00 0.813D+00
 Gap=     0.467 Goal=   None    Shift=    0.000
 RMSDP=4.29D-05 MaxDP=2.64D-03 DE=-2.05D-04 OVMax= 1.35D-03

 Cycle   5  Pass 1  IDiag  1:
 E= -1199.82247289923     Delta-E=       -0.000026356877 Rises=F Damp=F
 DIIS: error= 1.25D-04 at cycle   5 NSaved=   5.
 NSaved= 5 IEnMin= 5 EnMin= -1199.82247289923     IErMin= 5 ErrMin= 1.25D-04
 ErrMax= 1.25D-04  0.00D+00 EMaxC= 1.00D-01 BMatC= 5.92D-06 BMatP= 4.06D-05
 IDIUse=3 WtCom= 9.99D-01 WtEn= 1.25D-03
 Coeff-Com:  0.458D-02-0.483D-01 0.943D-01 0.452D+00 0.498D+00
 Coeff-En:   0.000D+00 0.000D+00 0.000D+00 0.000D+00 0.100D+01
 Coeff:      0.457D-02-0.483D-01 0.942D-01 0.451D+00 0.498D+00
 Gap=     0.467 Goal=   None    Shift=    0.000
 RMSDP=1.54D-05 MaxDP=1.04D-03 DE=-2.64D-05 OVMax= 5.41D-04

 Cycle   6  Pass 1  IDiag  1:
 E= -1199.82247684606     Delta-E=       -0.000003946823 Rises=F Damp=F
 DIIS: error= 1.96D-05 at cycle   6 NSaved=   6.
 NSaved= 6 IEnMin= 6 EnMin= -1199.82247684606     IErMin= 6 ErrMin= 1.96D-05
 ErrMax= 1.96D-05  0.00D+00 EMaxC= 1.00D-01 BMatC= 1.93D-07 BMatP= 5.92D-06
 IDIUse=1 WtCom= 1.00D+00 WtEn= 0.00D+00
 Coeff-Com:  0.166D-02-0.128D-01-0.464D-02 0.331D-01 0.154D+00 0.828D+00
 Coeff:      0.166D-02-0.128D-01-0.464D-02 0.331D-01 0.154D+00 0.828D+00
 Gap=     0.467 Goal=   None    Shift=    0.000
 RMSDP=3.75D-06 MaxDP=8.15D-05 DE=-3.95D-06 OVMax= 1.29D-04

 Cycle   7  Pass 1  IDiag  1:
 E= -1199.82247702021     Delta-E=       -0.000000174149 Rises=F Damp=F
 DIIS: error= 7.08D-06 at cycle   7 NSaved=   7.
 NSaved= 7 IEnMin= 7 EnMin= -1199.82247702021     IErMin= 7 ErrMin= 7.08D-06
 ErrMax= 7.08D-06  0.00D+00 EMaxC= 1.00D-01 BMatC= 2.19D-08 BMatP= 1.93D-07
 IDIUse=1 WtCom= 1.00D+00 WtEn= 0.00D+00
 Coeff-Com:  0.435D-03-0.251D-02-0.687D-02-0.113D-01 0.330D-01 0.327D+00
 Coeff-Com:  0.660D+00
 Coeff:      0.435D-03-0.251D-02-0.687D-02-0.113D-01 0.330D-01 0.327D+00
 Coeff:      0.660D+00
 Gap=     0.467 Goal=   None    Shift=    0.000
 RMSDP=1.51D-06 MaxDP=9.39D-05 DE=-1.74D-07 OVMax= 4.31D-05

 Cycle   8  Pass 1  IDiag  1:
 E= -1199.82247703722     Delta-E=       -0.000000017011 Rises=F Damp=F
 DIIS: error= 2.87D-06 at cycle   8 NSaved=   8.
 NSaved= 8 IEnMin= 8 EnMin= -1199.82247703722     IErMin= 8 ErrMin= 2.87D-06
 ErrMax= 2.87D-06  0.00D+00 EMaxC= 1.00D-01 BMatC= 4.08D-09 BMatP= 2.19D-08
 IDIUse=1 WtCom= 1.00D+00 WtEn= 0.00D+00
 Coeff-Com: -0.159D-03 0.163D-02-0.130D-02-0.100D-01-0.189D-01-0.479D-01
 Coeff-Com:  0.290D+00 0.786D+00
 Coeff:     -0.159D-03 0.163D-02-0.130D-02-0.100D-01-0.189D-01-0.479D-01
 Coeff:      0.290D+00 0.786D+00
 Gap=     0.467 Goal=   None    Shift=    0.000
 RMSDP=6.21D-07 MaxDP=1.91D-05 DE=-1.70D-08 OVMax= 2.15D-05

 Cycle   9  Pass 1  IDiag  1:
 E= -1199.82247704107     Delta-E=       -0.000000003854 Rises=F Damp=F
 DIIS: error= 9.21D-07 at cycle   9 NSaved=   9.
 NSaved= 9 IEnMin= 9 EnMin= -1199.82247704107     IErMin= 9 ErrMin= 9.21D-07
 ErrMax= 9.21D-07  0.00D+00 EMaxC= 1.00D-01 BMatC= 2.65D-10 BMatP= 4.08D-09
 IDIUse=1 WtCom= 1.00D+00 WtEn= 0.00D+00
 Coeff-Com: -0.846D-04 0.765D-03-0.138D-03-0.323D-02-0.919D-02-0.367D-01
 Coeff-Com:  0.792D-01 0.303D+00 0.667D+00
 Coeff:     -0.846D-04 0.765D-03-0.138D-03-0.323D-02-0.919D-02-0.367D-01
 Coeff:      0.792D-01 0.303D+00 0.667D+00
 Gap=     0.467 Goal=   None    Shift=    0.000
 RMSDP=1.80D-07 MaxDP=9.83D-06 DE=-3.85D-09 OVMax= 5.86D-06

 Cycle  10  Pass 1  IDiag  1:
 E= -1199.82247704129     Delta-E=       -0.000000000217 Rises=F Damp=F
 DIIS: error= 3.68D-07 at cycle  10 NSaved=  10.
 NSaved=10 IEnMin=10 EnMin= -1199.82247704129     IErMin=10 ErrMin= 3.68D-07
 ErrMax= 3.68D-07  0.00D+00 EMaxC= 1.00D-01 BMatC= 5.10D-11 BMatP= 2.65D-10
 IDIUse=1 WtCom= 1.00D+00 WtEn= 0.00D+00
 Coeff-Com: -0.497D-06-0.429D-04 0.236D-03 0.878D-03 0.248D-03-0.551D-02
 Coeff-Com: -0.328D-01-0.491D-01 0.283D+00 0.803D+00
 Coeff:     -0.497D-06-0.429D-04 0.236D-03 0.878D-03 0.248D-03-0.551D-02
 Coeff:     -0.328D-01-0.491D-01 0.283D+00 0.803D+00
 Gap=     0.467 Goal=   None    Shift=    0.000
 RMSDP=9.88D-08 MaxDP=3.13D-06 DE=-2.17D-10 OVMax= 3.42D-06

 Cycle  11  Pass 1  IDiag  1:
 E= -1199.82247704139     Delta-E=       -0.000000000098 Rises=F Damp=F
 DIIS: error= 9.91D-08 at cycle  11 NSaved=  11.
 NSaved=11 IEnMin=11 EnMin= -1199.82247704139     IErMin=11 ErrMin= 9.91D-08
 ErrMax= 9.91D-08  0.00D+00 EMaxC= 1.00D-01 BMatC= 6.26D-12 BMatP= 5.10D-11
 IDIUse=1 WtCom= 1.00D+00 WtEn= 0.00D+00
 Coeff-Com:  0.815D-05-0.953D-04 0.117D-03 0.700D-03 0.103D-02 0.125D-02
 Coeff-Com: -0.227D-01-0.515D-01 0.587D-01 0.356D+00 0.656D+00
 Coeff:      0.815D-05-0.953D-04 0.117D-03 0.700D-03 0.103D-02 0.125D-02
 Coeff:     -0.227D-01-0.515D-01 0.587D-01 0.356D+00 0.656D+00
 Gap=     0.467 Goal=   None    Shift=    0.000
 RMSDP=2.75D-08 MaxDP=1.22D-06 DE=-9.82D-11 OVMax= 9.81D-07

 Cycle  12  Pass 1  IDiag  1:
 E= -1199.82247704134     Delta-E=        0.000000000044 Rises=F Damp=F
 DIIS: error= 2.63D-08 at cycle  12 NSaved=  12.
 NSaved=12 IEnMin=11 EnMin= -1199.82247704139     IErMin=12 ErrMin= 2.63D-08
 ErrMax= 2.63D-08  0.00D+00 EMaxC= 1.00D-01 BMatC= 2.60D-13 BMatP= 6.26D-12
 IDIUse=1 WtCom= 1.00D+00 WtEn= 0.00D+00
 Coeff-Com:  0.148D-05-0.122D-04-0.627D-05 0.309D-04 0.169D-03 0.890D-03
 Coeff-Com: -0.604D-03-0.436D-02-0.179D-01-0.183D-01 0.121D+00 0.919D+00
 Coeff:      0.148D-05-0.122D-04-0.627D-05 0.309D-04 0.169D-03 0.890D-03
 Coeff:     -0.604D-03-0.436D-02-0.179D-01-0.183D-01 0.121D+00 0.919D+00
 Gap=     0.467 Goal=   None    Shift=    0.000
 RMSDP=1.12D-08 MaxDP=3.41D-07 DE= 4.37D-11 OVMax= 3.09D-07

 Cycle  13  Pass 1  IDiag  1:
 E= -1199.82247704140     Delta-E=       -0.000000000061 Rises=F Damp=F
 DIIS: error= 1.10D-08 at cycle  13 NSaved=  13.
 NSaved=13 IEnMin=13 EnMin= -1199.82247704140     IErMin=13 ErrMin= 1.10D-08
 ErrMax= 1.10D-08  0.00D+00 EMaxC= 1.00D-01 BMatC= 5.41D-14 BMatP= 2.60D-13
 IDIUse=1 WtCom= 1.00D+00 WtEn= 0.00D+00
 Coeff-Com: -0.363D-06 0.596D-05-0.161D-04-0.656D-04-0.430D-04 0.239D-03
 Coeff-Com:  0.221D-02 0.375D-02-0.138D-01-0.452D-01-0.231D-01 0.359D+00
 Coeff-Com:  0.717D+00
 Coeff:     -0.363D-06 0.596D-05-0.161D-04-0.656D-04-0.430D-04 0.239D-03
 Coeff:      0.221D-02 0.375D-02-0.138D-01-0.452D-01-0.231D-01 0.359D+00
 Coeff:      0.717D+00
 Gap=     0.467 Goal=   None    Shift=    0.000
 RMSDP=3.15D-09 MaxDP=9.48D-08 DE=-6.09D-11 OVMax= 8.35D-08

 SCF Done:  E(RwB97XD) =  -1199.82247704     A.U. after   13 cycles
            NFock= 13  Conv=0.31D-08     -V/T= 2.0020
 KE= 1.197416785895D+03 PE=-4.689352549034D+03 EE= 1.370757532098D+03
 Leave Link  502 at Fri May 23 03:38:57 2025, MaxMem=  3758096384 cpu:              58.9 elap:              11.8
 (Enter /apps/easybuild-2022/easybuild/software/Compiler/NVHPC/22.11-CUDA-11.7.0/Gaussian/g16c01-CUDA-11.7.0/g16/l508.exe)
 QCSCF skips out because SCF is already converged.
 Leave Link  508 at Fri May 23 03:38:57 2025, MaxMem=  3758096384 cpu:               0.0 elap:               0.0
 (Enter /apps/easybuild-2022/easybuild/software/Compiler/NVHPC/22.11-CUDA-11.7.0/Gaussian/g16c01-CUDA-11.7.0/g16/l701.exe)
 ... and contract with generalized density number  0.
 Compute integral first derivatives.
 R6Disp: Adding Grimme-D2 dispersion energy 1st derivatives to the gradient.
 Leave Link  701 at Fri May 23 03:38:57 2025, MaxMem=  3758096384 cpu:               0.3 elap:               0.1
 (Enter /apps/easybuild-2022/easybuild/software/Compiler/NVHPC/22.11-CUDA-11.7.0/Gaussian/g16c01-CUDA-11.7.0/g16/l702.exe)
 L702 exits ... SP integral derivatives will be done elsewhere.
 Leave Link  702 at Fri May 23 03:38:57 2025, MaxMem=  3758096384 cpu:               0.0 elap:               0.0
 (Enter /apps/easybuild-2022/easybuild/software/Compiler/NVHPC/22.11-CUDA-11.7.0/Gaussian/g16c01-CUDA-11.7.0/g16/l703.exe)
 Integral derivatives from FoFJK, PRISM(SPDF).
 Compute integral first derivatives, UseDBF=F ICtDFT=           0.
 Calling FoFJK, ICntrl=      2127 FMM=F ISym2X=0 I1Cent= 0 IOpClX= 0 NMat=1 NMatS=1 NMatT=0.
 FoFJK:  IHMeth= 1 ICntrl=    2127 DoSepK=T KAlg= 0 I1Cent=           0 FoldK=F
 IRaf=         1 NMat=       1 IRICut=       1 DoRegI=T DoRafI=F ISym2E= 0 IDoP0=0 IntGTp=1.
 FoFCou: FMM=F IPFlag=           0 FMFlag=      100000 FMFlg1=         800
         NFxFlg=           0 DoJE=F BraDBF=F KetDBF=F FulRan=T
         wScrn=  0.000000 ICntrl=      2527 IOpCl=  0 I1Cent=           0 NGrid=           0
         NMat0=    1 NMatS0=      1 NMatT0=    0 NMatD0=    1 NMtDS0=    0 NMtDT0=    0
 Symmetry not used in FoFCou.
 Leave Link  703 at Fri May 23 03:39:01 2025, MaxMem=  3758096384 cpu:              34.4 elap:               4.4
 (Enter /apps/easybuild-2022/easybuild/software/Compiler/NVHPC/22.11-CUDA-11.7.0/Gaussian/g16c01-CUDA-11.7.0/g16/l716.exe)
 Dipole        =-1.44394397D-01 1.01234176D+00-3.40497132D-01
 -------------------------------------------------------------------
 Center     Atomic                   Forces (Hartrees/Bohr)
 Number     Number              X              Y              Z
 -------------------------------------------------------------------
      1        6           0.000517163    0.000281161   -0.000169161
      2        6          -0.000214949   -0.000165011    0.000514974
      3        9           0.000027953   -0.000712418    0.000112219
      4        9          -0.000614790    0.000002485   -0.000270693
      5       16          -0.000065175    0.000432258    0.000294342
      6        8          -0.000029372   -0.000237708    0.000096093
      7        8           0.000029052   -0.000014842   -0.000035554
      8        8           0.000099818    0.000069027    0.000087804
      9        9          -0.000000330   -0.000372437   -0.000525105
     10        9           0.000563494    0.000179657    0.000152633
     11        9          -0.000257824    0.000520654   -0.000249414
     12        1          -0.000055041    0.000017175   -0.000008139
 -------------------------------------------------------------------
 Cartesian Forces:  Max     0.000712418 RMS     0.000300264
 Leave Link  716 at Fri May 23 03:39:01 2025, MaxMem=  3758096384 cpu:               0.0 elap:               0.0
 (Enter /apps/easybuild-2022/easybuild/software/Compiler/NVHPC/22.11-CUDA-11.7.0/Gaussian/g16c01-CUDA-11.7.0/g16/l103.exe)

 GradGradGradGradGradGradGradGradGradGradGradGradGradGradGradGradGradGrad
 Berny optimization.
 Using GEDIIS/GDIIS optimizer.
 FormGI is forming the generalized inverse of G from B-inverse, IUseBI=4.
 Internal  Forces:  Max     0.001276955 RMS     0.000307676
 Search for a local minimum.
 Step number   2 out of a maximum of   61
 All quantities printed in internal units (Hartrees-Bohrs-Radians)
 RMS Force = .30768D-03 SwitMx=.10000D-02 MixMth= 2
 Mixed Optimization -- En-DIIS/RFO-DIIS
 Swapping is turned off.
 Update second derivatives using D2CorX and points    1    2
 ITU=  0  0
     Eigenvalues ---   -0.00218   0.00398   0.00633   0.04984   0.08598
     Eigenvalues ---    0.09741   0.10655   0.11097   0.11607   0.12594
     Eigenvalues ---    0.12761   0.16002   0.18239   0.19286   0.19577
     Eigenvalues ---    0.21603   0.23732   0.27122   0.27200   0.29498
     Eigenvalues ---    0.32296   0.37240   0.38769   0.39109   0.41474
     Eigenvalues ---    0.48623   0.52897   0.57016   0.68865   0.71518
 Eigenvalue     1 is  -2.18D-03 should be greater than     0.000000 Eigenvector:
                          D3        D6        D9        D1        D2
   1                   -0.32751  -0.32352  -0.32347  -0.32291  -0.32273
                          D4        D7        D5        D8        D10
   1                   -0.31891  -0.31886  -0.31873  -0.31869   0.09083
 Use linear search instead of GDIIS.
 RFO step:  Lambda=-2.85424060D-03 EMin=-2.18132204D-03
 Skip linear search -- no minimum in search direction.
 Iteration  1 RMS(Cart)=  0.10293152 RMS(Int)=  0.01897580
 Iteration  2 RMS(Cart)=  0.02329905 RMS(Int)=  0.00037085
 Iteration  3 RMS(Cart)=  0.00039010 RMS(Int)=  0.00000523
 Iteration  4 RMS(Cart)=  0.00000009 RMS(Int)=  0.00000523
 ITry= 1 IFail=0 DXMaxC= 4.18D-01 DCOld= 1.00D+10 DXMaxT= 3.00D-01 DXLimC= 3.00D+00 Rises=F
 Variable       Old X    -DE/DX   Delta X   Delta X   Delta X     New X
                                 (Linear)    (Quad)   (Total)
    R1        2.98565  -0.00128   0.00000  -0.00876  -0.00876   2.97690
    R2        2.51145  -0.00003   0.00000  -0.00020  -0.00020   2.51125
    R3        2.50258   0.00005   0.00000  -0.00125  -0.00125   2.50133
    R4        2.50379   0.00006   0.00000   0.00229   0.00229   2.50609
    R5        2.51047   0.00012   0.00000  -0.00057  -0.00057   2.50991
    R6        2.52931   0.00004   0.00000   0.00182   0.00182   2.53113
    R7        3.54239  -0.00005   0.00000  -0.00104  -0.00104   3.54135
    R8        2.71502  -0.00003   0.00000   0.00081   0.00081   2.71583
    R9        2.69676   0.00003   0.00000  -0.00098  -0.00098   2.69578
   R10        3.03078  -0.00000   0.00000  -0.00060  -0.00060   3.03018
   R11        1.82591   0.00000   0.00000   0.00007   0.00007   1.82598
    A1        1.93040  -0.00026   0.00000  -0.00087  -0.00087   1.92952
    A2        1.92113  -0.00040   0.00000   0.00067   0.00067   1.92180
    A3        1.91658  -0.00036   0.00000  -0.00295  -0.00295   1.91363
    A4        1.89802   0.00037   0.00000   0.00279   0.00279   1.90081
    A5        1.89586   0.00032   0.00000  -0.00041  -0.00042   1.89544
    A6        1.90135   0.00036   0.00000   0.00084   0.00084   1.90219
    A7        1.91984  -0.00011   0.00000   0.00164   0.00164   1.92148
    A8        1.91396  -0.00011   0.00000  -0.00341  -0.00341   1.91055
    A9        1.97980  -0.00037   0.00000  -0.00437  -0.00438   1.97542
   A10        1.90087   0.00003   0.00000   0.00086   0.00086   1.90172
   A11        1.88506   0.00033   0.00000   0.00443   0.00444   1.88950
   A12        1.86210   0.00027   0.00000   0.00108   0.00106   1.86316
   A13        1.86629  -0.00001   0.00000  -0.00942  -0.00941   1.85688
   A14        1.88936   0.00001   0.00000   0.00806   0.00806   1.89742
   A15        1.71338   0.00006   0.00000   0.00210   0.00209   1.71547
   A16        2.17209  -0.00009   0.00000  -0.00125  -0.00124   2.17085
   A17        1.90382   0.00003   0.00000   0.00326   0.00326   1.90709
   A18        1.86437   0.00003   0.00000  -0.00181  -0.00183   1.86255
[...]
   D16        1.09259  -0.00000   0.00000  -0.00035  -0.00035   1.09224
   D17       -2.81916   0.00000   0.00000  -0.00029  -0.00029  -2.81946
   D18       -0.88422   0.00000   0.00000  -0.00033  -0.00033  -0.88455
   D19        1.52646   0.00001   0.00000   0.00017   0.00017   1.52663
   D20       -0.42008  -0.00001   0.00000   0.00001   0.00001  -0.42007
   D21       -2.80293  -0.00000   0.00000   0.00004   0.00004  -2.80289
         Item               Value     Threshold  Converged?
 Maximum Force            0.000042     0.000450     YES
 RMS     Force            0.000010     0.000300     YES
 Maximum Displacement     0.001117     0.001800     YES
 RMS     Displacement     0.000433     0.001200     YES
 Predicted change in Energy=-1.903961D-08
 Optimization completed.
    -- Stationary point found.
                           ----------------------------
                           !   Optimized Parameters   !
                           ! (Angstroms and Degrees)  !
 --------------------------                            --------------------------
 ! Name  Definition              Value          Derivative Info.                !
 --------------------------------------------------------------------------------
 ! R1    R(1,2)                  1.5553         -DE/DX =    0.0                 !
 ! R2    R(1,9)                  1.327          -DE/DX =    0.0                 !
 ! R3    R(1,10)                 1.3242         -DE/DX =    0.0                 !
 ! R4    R(1,11)                 1.3293         -DE/DX =    0.0                 !
 ! R5    R(2,3)                  1.3301         -DE/DX =    0.0                 !
 ! R6    R(2,4)                  1.3405         -DE/DX =    0.0                 !
 ! R7    R(2,5)                  1.8758         -DE/DX =    0.0                 !
 ! R8    R(5,6)                  1.4362         -DE/DX =    0.0                 !
 ! R9    R(5,7)                  1.4266         -DE/DX =    0.0                 !
 ! R10   R(5,8)                  1.603          -DE/DX =    0.0                 !
 ! R11   R(8,12)                 0.9663         -DE/DX =    0.0                 !
 ! A1    A(2,1,9)              110.1482         -DE/DX =    0.0                 !
 ! A2    A(2,1,10)             110.6379         -DE/DX =    0.0                 !
 ! A3    A(2,1,11)             108.769          -DE/DX =    0.0                 !
 ! A4    A(9,1,10)             109.354          -DE/DX =    0.0                 !
 ! A5    A(9,1,11)             109.0115         -DE/DX =    0.0                 !
 ! A6    A(10,1,11)            108.887          -DE/DX =    0.0                 !
 ! A7    A(1,2,3)              109.2702         -DE/DX =    0.0                 !
 ! A8    A(1,2,4)              108.8323         -DE/DX =    0.0                 !
 ! A9    A(1,2,5)              113.8957         -DE/DX =    0.0                 !
 ! A10   A(3,2,4)              109.3139         -DE/DX =    0.0                 !
 ! A11   A(3,2,5)              108.1325         -DE/DX =    0.0                 !
 ! A12   A(4,2,5)              107.3103         -DE/DX =    0.0                 !
 ! A13   A(2,5,6)              107.17           -DE/DX =    0.0                 !
 ! A14   A(2,5,7)              108.2011         -DE/DX =    0.0                 !
 ! A15   A(2,5,8)               98.2434         -DE/DX =    0.0                 !
 ! A16   A(6,5,7)              124.0064         -DE/DX =    0.0                 !
 ! A17   A(6,5,8)              109.3369         -DE/DX =    0.0                 !
 ! A18   A(7,5,8)              106.8611         -DE/DX =    0.0                 !
 ! A19   A(5,8,12)             110.4076         -DE/DX =    0.0                 !
 ! D1    D(9,1,2,3)             67.7051         -DE/DX =    0.0                 !
 ! D2    D(9,1,2,4)           -172.9919         -DE/DX =    0.0                 !
 ! D3    D(9,1,2,5)            -53.3252         -DE/DX =    0.0                 !
 ! D4    D(10,1,2,3)          -171.2707         -DE/DX =    0.0                 !
 ! D5    D(10,1,2,4)           -51.9677         -DE/DX =    0.0                 !
 ! D6    D(10,1,2,5)            67.699          -DE/DX =    0.0                 !
 ! D7    D(11,1,2,3)           -51.712          -DE/DX =    0.0                 !
 ! D8    D(11,1,2,4)            67.591          -DE/DX =    0.0                 !
 ! D9    D(11,1,2,5)          -172.7423         -DE/DX =    0.0                 !
 ! D10   D(1,2,5,6)            -57.9228         -DE/DX =    0.0                 !
 ! D11   D(1,2,5,7)             77.9503         -DE/DX =    0.0                 !
 ! D12   D(1,2,5,8)           -171.1856         -DE/DX =    0.0                 !
 ! D13   D(3,2,5,6)           -179.5853         -DE/DX =    0.0                 !
 ! D14   D(3,2,5,7)            -43.7122         -DE/DX =    0.0                 !
 ! D15   D(3,2,5,8)             67.1519         -DE/DX =    0.0                 !
 ! D16   D(4,2,5,6)             62.6009         -DE/DX =    0.0                 !
 ! D17   D(4,2,5,7)           -161.5261         -DE/DX =    0.0                 !
 ! D18   D(4,2,5,8)            -50.6619         -DE/DX =    0.0                 !
 ! D19   D(2,5,8,12)            87.4598         -DE/DX =    0.0                 !
 ! D20   D(6,5,8,12)           -24.0686         -DE/DX =    0.0                 !
 ! D21   D(7,5,8,12)          -160.5961         -DE/DX =    0.0                 !
 --------------------------------------------------------------------------------
 GradGradGradGradGradGradGradGradGradGradGradGradGradGradGradGradGradGrad

 Leave Link  103 at Fri May 23 03:42:41 2025, MaxMem=  3758096384 cpu:               0.0 elap:               0.0
 (Enter /apps/easybuild-2022/easybuild/software/Compiler/NVHPC/22.11-CUDA-11.7.0/Gaussian/g16c01-CUDA-11.7.0/g16/l9999.exe)

 ----------------------------------------------------------------------

 Electric dipole moment (input orientation):
 (Debye = 10**-18 statcoulomb cm , SI units = C m)
                  (au)            (Debye)         (10**-30 SI)
   Tot        0.107957D+01      0.274400D+01      0.915301D+01
   x         -0.194879D+00     -0.495334D+00     -0.165225D+01
   y          0.982325D+00      0.249682D+01      0.832850D+01
   z         -0.403162D+00     -0.102474D+01     -0.341815D+01

 Dipole polarizability, Alpha (input orientation).
 (esu units = cm**3 , SI units = C**2 m**2 J**-1)
 Alpha(0;0):
               (au)            (10**-24 esu)      (10**-40 SI)
   iso        0.557051D+02      0.825464D+01      0.918453D+01
   aniso      0.562958D+01      0.834217D+00      0.928192D+00
   xx         0.587739D+02      0.870939D+01      0.969051D+01
   yx         0.476098D+00      0.705505D-01      0.784980D-01
   yy         0.555498D+02      0.823164D+01      0.915893D+01
   zx        -0.682019D+00     -0.101065D+00     -0.112450D+00
   zy         0.952308D+00      0.141117D+00      0.157014D+00
   zz         0.527915D+02      0.782290D+01      0.870415D+01

 ----------------------------------------------------------------------

 Dipole orientation:
     6         -2.65633279         -0.74499747         -0.60679989
     6         -0.54439740          0.71518002          0.82357009
     9         -0.94212489          3.18631937          0.59269550
     9         -0.62612706          0.07874792          3.27418786
    16          2.72903148          0.01113676         -0.34041179
     8          3.10975993         -2.66451806         -0.09135709
     8          3.12308736          1.38381846         -2.62704013
     8          4.27977788          1.45098523          1.82709492
     9         -2.44175142         -0.37368870         -3.07754942
     9         -2.51793221         -3.19602455         -0.12140071
     9         -4.89087661          0.11056991          0.15827392
     1          4.56471392          0.34217535          3.24966575

 Electric dipole moment (dipole orientation):
 (Debye = 10**-18 statcoulomb cm , SI units = C m)
                  (au)            (Debye)         (10**-30 SI)
   Tot        0.107957D+01      0.274400D+01      0.915301D+01
   x          0.000000D+00      0.000000D+00      0.000000D+00
   y          0.000000D+00      0.000000D+00      0.000000D+00
   z          0.107957D+01      0.274400D+01      0.915301D+01

 Dipole polarizability, Alpha (dipole orientation).
 (esu units = cm**3 , SI units = C**2 m**2 J**-1)
 Alpha(0;0):
               (au)            (10**-24 esu)      (10**-40 SI)
   iso        0.557051D+02      0.825464D+01      0.918453D+01
   aniso      0.562958D+01      0.834217D+00      0.928192D+00
   xx         0.588433D+02      0.871968D+01      0.970195D+01
   yx        -0.465127D+00     -0.689246D-01     -0.766890D-01
   yy         0.538973D+02      0.798676D+01      0.888646D+01
   zx        -0.313998D+00     -0.465297D-01     -0.517713D-01
   zy        -0.167506D+01     -0.248219D+00     -0.276181D+00
   zz         0.543747D+02      0.805749D+01      0.896517D+01

 ----------------------------------------------------------------------
 Unable to Open any file for archive entry.
 1\1\GINC-SPARTAN-BM161\Freq\RwB97XD\6-311++G(d,p)\C2H1F5O3S1\AKHALILOV
 \23-May-2025\0\\#P Geom=AllCheck Guess=TCheck SCRF=Check GenChk RwB97X
 D/6-311++G(d,p) Freq\\Gaussian input prepared by ASE\\0,1\C,-1.2672087
 202,-0.3037082568,0.7323821915\C,-0.4051794887,0.2117913385,-0.4551149
 612\F,-0.7449879892,-0.4439158802,-1.5613717116\F,-0.6412195139,1.5203
 73614,-0.625148465\S,1.4416911711,0.0064568496,-0.1987796934\O,1.78392
 38553,0.7128259357,1.0039840841\O,1.7768268104,-1.3581376942,-0.445498
 7818\O,1.9446697076,0.8456514299,-1.4685530993\F,-0.9438329547,-1.5578
 545628,1.0213626666\F,-1.086960383,0.453915951,1.8034279078\F,-2.54885
 21228,-0.2565512187,0.3826796611\H,2.0261556281,1.7817064941,-1.242996
 7988\\Version=ES64L-G16RevC.01\HF=-1199.8260456\RMSD=2.008e-09\RMSF=1.
 010e-05\ZeroPoint=0.051838\Thermal=0.0622845\ETot=-1199.7637611\HTot=-
 1199.7628169\GTot=-1199.811491\Dipole=-0.1948792,0.9823253,-0.403162\D
 ipoleDeriv=1.7251628,-0.0592223,0.1264504,0.0764846,1.594125,0.0507155
 ,-0.1770999,0.061654,1.4882256,0.8400903,-0.0600005,0.1956545,-0.14056
 76,1.0981149,0.135716,0.3820847,0.1337138,0.8721404,-0.4456775,-0.1207
 952,-0.1843013,-0.1356602,-0.3632005,-0.2003805,-0.2656845,-0.2848023,
 -0.7199305,-0.4265438,0.1647135,-0.0119954,0.2527795,-0.8669167,0.0743
 73,-0.0380261,0.1544871,-0.2739414,1.904527,0.0829905,-0.1228519,0.070
 9202,2.2037948,-0.0243023,-0.0582796,-0.0641264,2.1332282,-0.7224081,-
 0.0788327,-0.1538168,-0.139113,-0.6768614,-0.2797567,-0.2108089,-0.134
 5993,-0.9515975,-0.7110781,0.1702632,0.0200387,0.2594169,-0.9932708,-0
 .0485684,0.038451,-0.1405932,-0.5137913,-0.7489425,-0.1872099,0.199341
 3,-0.3125264,-0.8071549,0.4632042,0.3006012,0.380259,-0.8741853,-0.358
 2982,0.0670002,0.0206776,0.1001711,-0.821484,0.1374357,0.0234921,0.196
 1766,-0.3399469,-0.3293748,-0.0303395,0.0221884,-0.0588829,-0.4546056,
 -0.2330681,0.0146603,-0.291921,-0.7316412,-1.0890007,0.0033517,-0.1169
 439,-0.0468971,-0.2806973,0.0258889,-0.0249912,0.0264719,-0.3496697,0.
 3615436,0.048081,0.0055584,0.0738749,0.3681565,-0.1012572,0.015601,-0.
 0367201,0.2611096\Polar=58.7739101,0.4760982,55.5498302,-0.6820192,0.9
 523076,52.791515\PG=Unknown\NImag=0\\0.55856681,0.00586047,0.56609025,
 -0.01551052,-0.00219413,0.57778268,-0.10243849,-0.01462691,0.03821285,
 0.43229597,-0.03134897,-0.05476467,0.03734063,0.00854331,0.51695331,0.
 07274405,0.03564303,-0.12059580,0.00552255,-0.00460653,0.54589309,0.00
 304098,0.00366614,0.00885848,-0.09032222,-0.03065172,-0.06338706,0.086
 51950,-0.00050246,-0.00133197,-0.00471248,-0.02734944,-0.10766704,-0.0
 8985537,0.04260001,0.15947057,-0.02303842,-0.03135329,-0.03817127,-0.0
 5067047,-0.07880885,-0.26045227,0.07440221,0.14606339,0.31598830,0.004
 89260,-0.01235012,0.00217036,-0.08089857,0.05000174,-0.00933341,0.0122
 1089,-0.01083963,0.00070847,0.07389237,0.01615635,-0.04166603,0.000029
 47,0.03820100,-0.27084507,0.05812985,-0.00166437,-0.05836671,-0.032312
 01,-0.05679681,0.38739451,-0.01238104,0.02758241,-0.00010596,-0.007350
 96,0.04659372,-0.08304716,0.00467889,-0.04734715,0.00546548,0.00849162
 ,-0.04004962,0.07907009,-0.02225512,-0.00868108,0.02469725,-0.14467489
 ,0.01987307,-0.02676872,-0.00225469,-0.00002161,0.00050934,-0.00110922
 ,-0.00380341,0.00235577,0.50242098,-0.01003321,0.02588932,-0.00176354,
 -0.00197016,-0.02842887,0.00912273,-0.01632989,-0.00713719,-0.01641846
 ,0.03504352,-0.03649602,0.00947166,-0.04477328,1.05987430,0.02495471,-
 0.00148810,0.02794743,0.01232848,0.00724265,-0.04348211,-0.03462765,-0
 .01006827,-0.02540138,-0.00565552,0.00375569,-0.00168527,0.05404930,0.
 26412584,0.79779768,0.00403181,0.00480877,-0.00299565,0.01602214,-0.01
 428899,-0.01385551,-0.01130719,-0.00322887,-0.00820414,-0.00241331,0.0
 0402786,-0.00041816,-0.12819862,-0.07024047,-0.12267338,0.09175375,0.0
 0119653,-0.00445617,-0.00383356,0.00995810,-0.00346224,-0.00306698,-0.
 00224826,0.00097244,-0.00017437,-0.00372175,0.00845707,-0.00019192,-0.
 06749091,-0.22382803,-0.22730971,0.07159893,0.20778318,-0.00403290,-0.
 00084860,-0.01299080,0.01106378,-0.01355048,-0.00212302,-0.00597493,-0
 .00117322,-0.00225594,-0.00224047,0.00453737,0.00135566,-0.11546173,-0
 .23087787,-0.46903724,0.12712361,0.25160540,0.50232196,0.00198753,0.00
 025189,-0.00716942,0.01401156,0.01650701,0.00885733,-0.00166467,-0.000
 91996,-0.00147515,-0.00962780,0.00979472,-0.00209183,-0.12817095,0.146
 88713,0.02430827,0.02113909,-0.01020733,-0.00612548,0.09389814,0.00174
 729,-0.01097676,0.00573616,-0.01404172,-0.00953103,-0.01374357,0.00293
 128,0.00577106,0.00616285,0.00587685,-0.00273522,0.00080746,0.13904992
 ,-0.61841543,-0.10631886,0.00857935,-0.00681756,0.00394453,-0.14881154
 ,0.66080081,-0.00246823,0.00076309,-0.00341895,-0.00705263,-0.00179716
 ,0.00307594,0.00293250,0.00310793,0.00510996,0.00034808,0.00084435,0.0
 0070199,0.02497399,-0.10859048,-0.10082398,0.00693870,-0.03292326,0.00
 472444,-0.02588790,0.10538652,0.08371232,-0.00072993,0.00489746,-0.010
 65478,-0.00394657,-0.01487145,0.02704778,-0.00119152,-0.00131850,-0.00
 311893,-0.00097496,-0.00023662,0.00125953,-0.08528460,-0.02835660,0.05
 030232,0.01689244,0.00181753,-0.00468809,0.01162025,0.00324680,-0.0021
 6217,0.07789361,0.00172940,-0.00064240,-0.00442634,0.00513716,-0.00998
 557,0.01587245,-0.00063346,0.00078608,-0.00156215,-0.00183190,0.009979
 12,-0.00422455,-0.03630327,-0.12823337,0.06915067,0.00076662,0.0145244
 2,-0.00929374,-0.01180836,-0.02976546,0.03120750,0.08424603,0.62370916
 ,-0.00289654,-0.00224421,0.00164160,-0.00686836,0.01213003,-0.01343506
 ,0.00456411,0.00159718,0.00755727,0.00018866,-0.00463184,0.00283223,0.
 04474915,0.03735046,-0.17459207,0.01202447,0.01816242,-0.03094341,0.00
 198754,-0.00540105,0.00943152,-0.05858779,0.04176960,0.26027790,-0.083
 38942,0.03024013,-0.00566404,0.00930875,-0.00983814,0.00087907,0.00037
 236,0.00018012,0.00188951,-0.00049558,-0.00417567,0.00351859,0.0006630
 3,0.00525374,-0.00248548,-0.00033106,-0.00105143,0.00024073,-0.0025707
 1,-0.00249241,0.00165331,0.00032635,-0.00080658,0.00050426,0.09863426,
 0.02601273,-0.26946066,0.06838910,0.01286022,-0.03373600,0.00091692,-0
 .00101624,0.00451988,0.00531245,-0.00519002,-0.00473314,0.00690398,0.0
 0496251,-0.00952972,0.00113147,-0.00201965,0.00150284,-0.00018843,-0.0
 0099378,0.00559047,-0.00039869,-0.00180735,0.00085695,0.00031001,-0.07
 996462,0.39075197,-0.00417219,0.06321899,-0.10183820,-0.00842611,0.027
 99086,0.00183266,0.00070210,-0.00017686,0.00063048,0.00387380,0.007151
 66,-0.00593005,-0.00366949,0.00043666,-0.00374345,0.00089115,0.0002893
 8,0.00190267,0.00265980,-0.00091067,0.00019766,0.00123995,0.00020371,0
 .00006122,0.02212435,-0.06988336,0.09182596,-0.07943578,-0.00973104,-0
 .00651588,0.00923578,0.00896646,0.00914583,-0.00078183,-0.00012059,0.0
 0614155,0.00020657,-0.00154109,0.00097458,0.00013264,-0.00164049,-0.00
 531617,-0.00332700,0.00066774,0.00321159,-0.00001146,0.00063833,0.0006
 5643,0.00025728,-0.00019171,0.00093441,0.01301898,0.00640627,0.0045072
 1,0.08631836,-0.00647297,-0.13243624,-0.09752157,-0.00274037,-0.004417
 67,-0.00446012,0.00121477,0.00155835,0.00059791,-0.00025277,0.00608976
 ,0.00176344,-0.00181552,-0.00507937,-0.00360136,-0.00068204,0.00225728
 ,0.00245996,0.00078823,0.00177704,0.00044217,0.00050364,0.00080356,0.0
 0020587,0.00487795,-0.06979518,-0.04540776,0.02532881,0.19506367,-0.00
 334607,-0.09061910,-0.24717238,-0.00802614,-0.03237575,-0.02950918,0.0
 0539840,0.00126479,-0.01163565,0.00063893,0.00330194,0.00095122,-0.007
 16928,-0.00215164,-0.00821701,0.00202597,0.00214480,0.00517163,0.00214
 346,-0.00013978,0.00101954,0.00265489,0.00125845,0.00005360,0.00299558
 ,-0.02739476,0.01014794,0.04332244,0.16464101,0.30568500,-0.28379259,-
 0.00413806,-0.02540039,-0.05786640,0.00306410,-0.01414801,0.00514496,0
 .00056604,0.00259874,0.00425870,-0.00364052,0.00232341,0.01046830,-0.0
 0200850,0.00341659,-0.00214311,-0.00068248,-0.00118636,-0.00257932,0.0
 0225415,0.00022682,-0.00426411,-0.00294113,0.00301677,-0.03561367,0.04
 029814,-0.01942407,-0.02568236,-0.02088135,-0.04049568,0.39222579,-0.0
 0371561,-0.07562523,0.00163732,-0.01268324,0.00321107,-0.00205667,0.00
 132151,0.00132023,0.00203240,-0.00059475,0.00397701,-0.00131081,0.0021
 9086,-0.00339497,0.00164553,-0.00063713,0.00039894,-0.00036042,-0.0005
 0321,0.00174131,-0.00020948,-0.00117124,-0.00005143,0.00045403,0.05766
 300,-0.01608653,0.01722830,-0.02899960,0.00426658,-0.01954808,-0.01286
 344,0.08008787,-0.03034567,0.00109035,-0.08390498,0.02037593,-0.000441
 53,0.00328453,0.00329388,0.00149668,0.00357362,0.00023405,-0.00000720,
 0.00072775,-0.00401564,0.00156664,-0.00591773,0.00063301,0.00063219,0.
 00247756,0.00116718,-0.00139601,0.00079873,0.00203437,0.00061426,-0.00
 009641,-0.02565458,0.01505748,0.00499304,-0.05687451,-0.01888896,-0.02
 624052,0.08913361,0.00052768,0.10045891,-0.00047839,-0.00019765,-0.000
 02828,-0.00072705,-0.00595643,0.00329611,0.00023343,0.00095490,0.00025
 729,0.00005833,0.00367855,-0.00136041,-0.00173684,-0.01183180,0.001398
 51,-0.00211893,0.00016333,-0.00192976,0.00196834,0.00102171,-0.0001589
 0,-0.01059824,-0.03736281,0.00038333,0.00007671,0.00045179,-0.00030650
 ,0.00006882,0.00013163,-0.00014250,-0.00015617,-0.00000716,0.00001838,
 0.01340999,-0.00062955,-0.00061946,0.00131894,-0.00128795,0.00267377,-
 0.00189573,0.00081024,0.00010430,0.00046014,0.00065563,-0.00105527,0.0
 0000138,-0.00318729,-0.02522067,0.00173445,0.00131563,0.00266783,-0.00
 625450,-0.00098481,0.00256077,0.00216752,-0.04694970,-0.48198106,-0.09
 970250,0.00011393,0.00011912,-0.00014091,0.00021689,-0.00008779,-0.000
 38189,0.00097305,0.00015516,-0.00025156,0.04895394,0.50068329,0.000492
 82,0.00044957,0.00082663,0.00089109,0.00028243,-0.00144162,-0.00084091
 ,-0.00019661,-0.00040862,0.00057542,-0.00074965,-0.00033599,0.00575005
 ,0.03772800,0.00715513,-0.00149008,-0.00533439,-0.00060351,0.00162620,
 0.00587240,-0.00452919,-0.00532708,-0.14056986,-0.06278839,-0.00000131
 ,-0.00015615,-0.00007995,-0.00018749,-0.00023059,-0.00025419,-0.000061
 43,-0.00003981,-0.00015451,-0.00142727,0.10294466,0.06261421\\0.000025
 80,-0.00002017,0.00000360,-0.00000092,0.00003121,0.00000322,-0.0000174
 7,-0.00000877,0.00000877,0.00000973,-0.00000663,0.00000570,-0.00000659
 ,-0.00000766,-0.00001169,-0.00000767,-0.00000064,0.00000425,0.00000049
 ,-0.00000126,-0.00000114,0.00000010,-0.00000170,-0.00000370,-0.0000016
 6,0.00000844,0.00000263,-0.00000317,-0.00000197,0.00000718,-0.00000061
 ,0.00001109,-0.00001894,0.00000198,-0.00000195,0.00000012\\\@
 The archive entry for this job was punched.


 I LOVE THOSE WHO LONG FOR THE IMPOSSIBLE.

                                 -- GOETHE
 Job cpu time:       0 days  0 hours 10 minutes  8.7 seconds.
 Elapsed time:       0 days  0 hours  1 minutes 18.5 seconds.
 File lengths (MBytes):  RWF=     99 Int=      0 D2E=      0 Chk=      6 Scr=      1
 Normal termination of Gaussian 16 at Fri May 23 03:42:41 2025.
done
