 Entering Gaussian System, Link 0=g16
 Initial command:
 /apps/easybuild-2022/easybuild/software/Compiler/NVHPC/22.11-CUDA-11.7.0/Gaussian/g16c01-CUDA-11.7.0/g16/l1.exe "/tmp/Gau-289228.inp" -scrdir="/tmp/"
 Entering Link 1 = /apps/easybuild-2022/easybuild/software/Compiler/NVHPC/22.11-CUDA-11.7.0/Gaussian/g16c01-CUDA-11.7.0/g16/l1.exe PID=    289229.
  
 Copyright (c) 1988-2019, Gaussian, Inc.  All Rights Reserved.
  
 This is part of the Gaussian(R) 16 program.  It is based on
 the Gaussian(R) 09 system (copyright 2009, Gaussian, Inc.),
 the Gaussian(R) 03 system (copyright 2003, Gaussian, Inc.),
 the Gaussian(R) 98 system (copyright 1998, Gaussian, Inc.),
 the Gaussian(R) 94 system (copyright 1995, Gaussian, Inc.),
 the Gaussian 92(TM) system (copyright 1992, Gaussian, Inc.),
 the Gaussian 90(TM) system (copyright 1990, Gaussian, Inc.),
 the Gaussian 88(TM) system (copyright 1988, Gaussian, Inc.),
 the Gaussian 86(TM) system (copyright 1986, Carnegie Mellon
 University), and the Gaussian 82(TM) system (copyright 1983,
 Carnegie Mellon University). Gaussian is a federally registered
 trademark of Gaussian, Inc.
  
 This software contains proprietary and confidential information,
 including trade secrets, belonging to Gaussian, Inc.
  
 This software is provided under written license and may be
 used, copied, transmitted, or stored only in accord with that
 written license.
  
 The following legend is applicable only to US Government
 contracts under FAR:
  
                    RESTRICTED RIGHTS LEGEND
  
 Use, reproduction and disclosure by the US Government is
 subject to restrictions as set forth in subparagraphs (a)
 and (c) of the Commercial Computer Software - Restricted
 Rights clause in FAR 52.227-19.
  
 Gaussian, Inc.
 340 Quinnipiac St., Bldg. 40, Wallingford CT 06492
  
  
 ---------------------------------------------------------------
 Warning -- This program may not be used in any manner that
 competes with the business of Gaussian, Inc. or will provide
 assistance to any competitor of Gaussian, Inc.  The licensee
 of this program is prohibited from giving any competitor of
 Gaussian, Inc. access to this program.  By using this program,
 the user acknowledges that Gaussian, Inc. is engaged in the
 business of creating and licensing software in the field of
 computational chemistry and represents and warrants to the
 licensee that it is not a competitor of Gaussian, Inc. and that
 it will not use this program in any manner prohibited above.
 ---------------------------------------------------------------
  

 Cite this work as:
 Gaussian 16, Revision C.01,
 M. J. Frisch, G. W. Trucks, H. B. Schlegel, G. E. Scuseria, 
 M. A. Robb, J. R. Cheeseman, G. Scalmani, V. Barone, 
 G. A. Petersson, H. Nakatsuji, X. Li, M. Caricato, A. V. Marenich, 
 J. Bloino, B. G. Janesko, R. Gomperts, B. Mennucci, H. P. Hratchian, 
 J. V. Ortiz, A. F. Izmaylov, J. L. Sonnenberg, D. Williams-Young, 
 F. Ding, F. Lipparini, F. Egidi, J. Goings, B. Peng, A. Petrone, 
 T. Henderson, D. Ranasinghe, V. G. Zakrzewski, J. Gao, N. Rega, 
 G. Zheng, W. Liang, M. Hada, M. Ehara, K. Toyota, R. Fukuda, 
 J. Hasegawa, M. Ishida, T. Nakajima, Y. Honda, O. Kitao, H. Nakai, 
 T. Vreven, K. Throssell, J. A. Montgomery, Jr., J. E. Peralta, 
 F. Ogliaro, M. J. Bearpark, J. J. Heyd, E. N. Brothers, K. N. Kudin, 
 V. N. Staroverov, T. A. Keith, R. Kobayashi, J. Normand, 
 K. Raghavachari, A. P. Rendell, J. C. Burant, S. S. Iyengar, 
 J. Tomasi, M. Cossi, J. M. Millam, M. Klene, C. Adamo, R. Cammi, 
 J. W. Ochterski, R. L. Martin, K. Morokuma, O. Farkas, 
 J. B. Foresman, and D. J. Fox, Gaussian, Inc., Wallingford CT, 2019.
 
 ******************************************
 Gaussian 16:  ES64L-G16RevC.01  3-Jul-2019
                23-May-2025 
 ******************************************
 %mem=28GB
 %chk=2003846667223680600001_r12_insertion_R_2_5_8_IRC_R_prod
 %nprocshared=8
 Will use up to    8 processors via shared memory.
 ----------------------------------------------------------------------
 #P wb97xd/6-311++G(d,p) Symm(None) scf(xqc) pop(None) freq opt(CalcFC)
 ----------------------------------------------------------------------
 1/10=4,18=20,19=15,26=3,38=1/1,3;
 2/9=110,12=2,15=3,17=6,18=5,40=1/2;
 3/5=4,6=6,7=1111,11=2,25=1,30=1,71=2,74=-58,140=1/1,2,3;
 4//1;
 5/5=2,8=3,13=1,38=5/2,8;
 8/6=4,10=90,11=11/1;
 11/6=1,8=1,9=11,15=111,16=1,31=1/1,2,10;
 10/6=1,13=1,31=1/2;
 7/10=1,25=1,30=1/1,2,3,16;
 1/10=4,18=20,19=15,26=3/3(2);
 2/9=110,15=3/2;
 99//99;
 2/9=110,15=3/2;
 3/5=4,6=6,7=1111,11=2,25=1,30=1,71=1,74=-58/1,2,3;
 4/5=5,16=3,69=1/1;
 5/5=2,8=3,13=1,38=5/2,8;
 7/30=1/1,2,3,16;
 1/18=20,19=15,26=3/3(-5);
 2/9=110,15=3/2;
 99/9=1/99;
 Leave Link    1 at Fri May 23 03:33:21 2025, MaxMem=  3758096384 cpu:               0.0 elap:               0.0
 (Enter /apps/easybuild-2022/easybuild/software/Compiler/NVHPC/22.11-CUDA-11.7.0/Gaussian/g16c01-CUDA-11.7.0/g16/l101.exe)
 ------------------------------
 Gaussian input prepared by ASE
 ------------------------------
 Symbolic Z-matrix:
 Charge =  0 Multiplicity = 1
 C                    -1.2979   -0.52843   0.58455 
 C                    -0.41485   0.3486   -0.3884 
 F                    -0.66155   0.00391  -1.65729 
 F                    -0.70644   1.63512  -0.22711 
 S                     1.42831   0.136    -0.11983 
 O                     1.75955   0.73172   1.13454 
 O                     1.76351  -1.20961  -0.49375 
 O                     1.94139   1.13759  -1.26281 
 F                    -0.52883  -1.24361   1.39893 
 F                    -2.07628   0.2549    1.31544 
 F                    -2.05816  -1.35615  -0.11729 
 H                     2.05139   0.66213  -2.09672 
 
 ITRead=  0  0  0  0  0  0  0  0  0  0  0  0
 MicOpt= -1 -1 -1 -1 -1 -1 -1 -1 -1 -1 -1 -1
 NAtoms=     12 NQM=       12 NQMF=       0 NMMI=      0 NMMIF=      0
                NMic=       0 NMicF=      0.
                    Isotopes and Nuclear Properties:
 (Nuclear quadrupole moments (NQMom) in fm**2, nuclear magnetic moments (NMagM)
  in nuclear magnetons)

  Atom         1           2           3           4           5           6           7           8           9          10
 IAtWgt=          12          12          19          19          32          16          16          16          19          19
 AtmWgt=  12.0000000  12.0000000  18.9984032  18.9984032  31.9720718  15.9949146  15.9949146  15.9949146  18.9984032  18.9984032
 NucSpn=           0           0           1           1           0           0           0           0           1           1
 AtZEff=  -0.0000000  -0.0000000  -0.0000000  -0.0000000  -0.0000000  -0.0000000  -0.0000000  -0.0000000  -0.0000000  -0.0000000
 NQMom=    0.0000000   0.0000000   0.0000000   0.0000000   0.0000000   0.0000000   0.0000000   0.0000000   0.0000000   0.0000000
 NMagM=    0.0000000   0.0000000   2.6288670   2.6288670   0.0000000   0.0000000   0.0000000   0.0000000   2.6288670   2.6288670
 AtZNuc=   6.0000000   6.0000000   9.0000000   9.0000000  16.0000000   8.0000000   8.0000000   8.0000000   9.0000000   9.0000000

  Atom        11          12
 IAtWgt=          19           1
 AtmWgt=  18.9984032   1.0078250
 NucSpn=           1           1
 AtZEff=  -0.0000000  -0.0000000
 NQMom=    0.0000000   0.0000000
 NMagM=    2.6288670   2.7928460
 AtZNuc=   9.0000000   1.0000000
 Leave Link  101 at Fri May 23 03:33:21 2025, MaxMem=  3758096384 cpu:               0.2 elap:               0.2
 (Enter /apps/easybuild-2022/easybuild/software/Compiler/NVHPC/22.11-CUDA-11.7.0/Gaussian/g16c01-CUDA-11.7.0/g16/l103.exe)

 GradGradGradGradGradGradGradGradGradGradGradGradGradGradGradGradGradGrad
 Berny optimization.
 Initialization pass.
                           ----------------------------
                           !    Initial Parameters    !
                           ! (Angstroms and Degrees)  !
 --------------------------                            --------------------------
 ! Name  Definition              Value          Derivative Info.                !
 --------------------------------------------------------------------------------
 ! R1    R(1,2)                  1.5797         calculate D2E/DX2 analytically  !
 ! R2    R(1,9)                  1.329          calculate D2E/DX2 analytically  !
 ! R3    R(1,10)                 1.3243         calculate D2E/DX2 analytically  !
 ! R4    R(1,11)                 1.325          calculate D2E/DX2 analytically  !
 ! R5    R(2,3)                  1.3378         calculate D2E/DX2 analytically  !
 ! R6    R(2,4)                  1.329          calculate D2E/DX2 analytically  !
 ! R7    R(2,5)                  1.8747         calculate D2E/DX2 analytically  !
 ! R8    R(5,6)                  1.4276         calculate D2E/DX2 analytically  !
 ! R9    R(5,7)                  1.4363         calculate D2E/DX2 analytically  !
 ! R10   R(5,8)                  1.604          calculate D2E/DX2 analytically  !
 ! R11   R(8,12)                 0.9662         calculate D2E/DX2 analytically  !
 ! A1    A(2,1,9)              110.6521         calculate D2E/DX2 analytically  !
 ! A2    A(2,1,10)             109.8824         calculate D2E/DX2 analytically  !
 ! A3    A(2,1,11)             109.9562         calculate D2E/DX2 analytically  !
 ! A4    A(9,1,10)             108.679          calculate D2E/DX2 analytically  !
 ! A5    A(9,1,11)             108.6903         calculate D2E/DX2 analytically  !
 ! A6    A(10,1,11)            108.9413         calculate D2E/DX2 analytically  !
 ! A7    A(1,2,3)              109.7577         calculate D2E/DX2 analytically  !
 ! A8    A(1,2,4)              109.879          calculate D2E/DX2 analytically  !
 ! A9    A(1,2,5)              113.4772         calculate D2E/DX2 analytically  !
 ! A10   A(3,2,4)              108.909          calculate D2E/DX2 analytically  !
 ! A11   A(3,2,5)              106.7362         calculate D2E/DX2 analytically  !
 ! A12   A(4,2,5)              107.9455         calculate D2E/DX2 analytically  !
 ! A13   A(2,5,6)              107.8589         calculate D2E/DX2 analytically  !
 ! A14   A(2,5,7)              107.3618         calculate D2E/DX2 analytically  !
 ! A15   A(2,5,8)               98.1398         calculate D2E/DX2 analytically  !
 ! A16   A(6,5,7)              124.4406         calculate D2E/DX2 analytically  !
 ! A17   A(6,5,8)              106.937          calculate D2E/DX2 analytically  !
 ! A18   A(7,5,8)              108.9569         calculate D2E/DX2 analytically  !
 ! A19   A(5,8,12)             110.1293         calculate D2E/DX2 analytically  !
 ! D1    D(9,1,2,3)            119.2315         calculate D2E/DX2 analytically  !
 ! D2    D(9,1,2,4)           -121.0307         calculate D2E/DX2 analytically  !
 ! D3    D(9,1,2,5)             -0.0831         calculate D2E/DX2 analytically  !
 ! D4    D(10,1,2,3)          -120.7511         calculate D2E/DX2 analytically  !
 ! D5    D(10,1,2,4)            -1.0133         calculate D2E/DX2 analytically  !
 ! D6    D(10,1,2,5)           119.9343         calculate D2E/DX2 analytically  !
 ! D7    D(11,1,2,3)            -0.8477         calculate D2E/DX2 analytically  !
 ! D8    D(11,1,2,4)           118.8901         calculate D2E/DX2 analytically  !
 ! D9    D(11,1,2,5)          -120.1622         calculate D2E/DX2 analytically  !
 ! D10   D(1,2,5,6)            -69.764          calculate D2E/DX2 analytically  !
 ! D11   D(1,2,5,7)             66.5621         calculate D2E/DX2 analytically  !
 ! D12   D(1,2,5,8)            179.4261         calculate D2E/DX2 analytically  !
 ! D13   D(3,2,5,6)            169.2076         calculate D2E/DX2 analytically  !
 ! D14   D(3,2,5,7)            -54.4663         calculate D2E/DX2 analytically  !
 ! D15   D(3,2,5,8)             58.3978         calculate D2E/DX2 analytically  !
 ! D16   D(4,2,5,6)             52.2652         calculate D2E/DX2 analytically  !
 ! D17   D(4,2,5,7)           -171.4087         calculate D2E/DX2 analytically  !
 ! D18   D(4,2,5,8)            -58.5447         calculate D2E/DX2 analytically  !
 ! D19   D(2,5,8,12)           -89.7142         calculate D2E/DX2 analytically  !
 ! D20   D(6,5,8,12)           158.7305         calculate D2E/DX2 analytically  !
 ! D21   D(7,5,8,12)            21.8693         calculate D2E/DX2 analytically  !
 --------------------------------------------------------------------------------
 Trust Radius=3.00D-01 FncErr=1.00D-07 GrdErr=1.00D-06 EigMax=2.50D+02 EigMin=1.00D-04
 Number of steps in this run=     61 maximum allowed number of steps=    100.
 GradGradGradGradGradGradGradGradGradGradGradGradGradGradGradGradGradGrad

 Leave Link  103 at Fri May 23 03:33:21 2025, MaxMem=  3758096384 cpu:               0.0 elap:               0.0
 (Enter /apps/easybuild-2022/easybuild/software/Compiler/NVHPC/22.11-CUDA-11.7.0/Gaussian/g16c01-CUDA-11.7.0/g16/l202.exe)
                          Input orientation:                          
 ---------------------------------------------------------------------
 Center     Atomic      Atomic             Coordinates (Angstroms)
 Number     Number       Type             X           Y           Z
 ---------------------------------------------------------------------
      1          6           0       -1.297899   -0.528429    0.584553
      2          6           0       -0.414847    0.348595   -0.388403
      3          9           0       -0.661553    0.003913   -1.657291
      4          9           0       -0.706443    1.635124   -0.227109
      5         16           0        1.428313    0.135996   -0.119832
      6          8           0        1.759554    0.731719    1.134537
      7          8           0        1.763512   -1.209614   -0.493751
      8          8           0        1.941388    1.137594   -1.262811
      9          9           0       -0.528830   -1.243609    1.398929
     10          9           0       -2.076279    0.254899    1.315435
     11          9           0       -2.058161   -1.356147   -0.117293
     12          1           0        2.051387    0.662129   -2.096721
 ---------------------------------------------------------------------
                    Distance matrix (angstroms):
                    1          2          3          4          5
     1  C    0.000000
     2  C    1.579745   0.000000
     3  F    2.390437   1.337814   0.000000
     4  F    2.385283   1.328985   2.169858   0.000000
     5  S    2.893069   1.874718   2.597839   2.610762   0.000000
     6  O    3.352383   2.682191   3.766399   2.958270   1.427602
     7  O    3.316472   2.680366   2.950833   3.776812   1.436259
     8  O    4.084283   2.634189   2.866383   2.886386   1.604009
     9  F    1.328969   2.396385   3.303696   3.310989   2.835552
    10  F    1.324261   2.381638   3.301749   2.482119   3.788970
    11  F    1.325030   2.383302   2.484325   3.284342   3.792360
    12  H    4.452457   3.016449   2.826020   3.470993   2.138487
                    6          7          8          9         10
     6  O    0.000000
     7  O    2.533794   0.000000
     8  O    2.438253   2.476384   0.000000
     9  F    3.034555   2.972915   4.342461   0.000000
    10  F    3.869586   4.490206   4.854704   2.155712   0.000000
    11  F    4.527826   3.842965   4.850500   2.156490   2.156040
    12  H    3.245156   2.481090   0.966216   4.744357   5.370873
                   11         12
    11  F    0.000000
    12  H    4.987981   0.000000
 Symmetry turned off by external request.
 Stoichiometry    C2HF5O3S
 Rotational constants (GHZ):           1.5866901           0.8172025           0.7716950
 Leave Link  202 at Fri May 23 03:33:21 2025, MaxMem=  3758096384 cpu:               0.0 elap:               0.0
 (Enter /apps/easybuild-2022/easybuild/software/Compiler/NVHPC/22.11-CUDA-11.7.0/Gaussian/g16c01-CUDA-11.7.0/g16/l301.exe)
 Standard basis: 6-311++G(d,p) (5D, 7F)
 Ernie: Thresh=  0.10000D-02 Tol=  0.10000D-05 Strict=F.
   257 basis functions,   419 primitive gaussians,   268 cartesian basis functions
    49 alpha electrons       49 beta electrons
       nuclear repulsion energy       921.3692208420 Hartrees.
 IExCor= 4639 DFT=T Ex+Corr=wB97XD ExCW=0 ScaHFX=  1.000000
 ScaDFX=  1.000000  1.000000  1.000000  1.000000 ScalE2=  1.000000  1.000000
 IRadAn=      5 IRanWt=     -1 IRanGd=            0 ICorTp=0 IEmpDi=121
 HFx  wShort=  0.000000 wLong=  0.200000 cFull=  0.222036 cShort=  0.000000 cLong=  0.777964
 DFx  wShort=  0.000000 wLong=  0.200000 cFull=  0.000000 cShort=  0.000000 cLong=  1.000000
 NAtoms=   12 NActive=   12 NUniq=   12 SFac= 1.00D+00 NAtFMM=   60 NAOKFM=F Big=F
 Integral buffers will be    131072 words long.
 Raffenetti 2 integral format.
 Two-electron integral symmetry is turned off.
 R6Disp:  Grimme-D2 Dispersion energy=       -0.0054935739 Hartrees.
 Nuclear repulsion after empirical dispersion term =      921.3637272681 Hartrees.
 Leave Link  301 at Fri May 23 03:33:21 2025, MaxMem=  3758096384 cpu:               0.1 elap:               0.0
 (Enter /apps/easybuild-2022/easybuild/software/Compiler/NVHPC/22.11-CUDA-11.7.0/Gaussian/g16c01-CUDA-11.7.0/g16/l302.exe)
 NPDir=0 NMtPBC=     1 NCelOv=     1 NCel=       1 NClECP=     1 NCelD=      1
         NCelK=      1 NCelE2=     1 NClLst=     1 CellRange=     0.0.
 One-electron integrals computed using PRISM.
 NBasis=   257 RedAO= T EigKep=  5.97D-05  NBF=   257
 NBsUse=   257 1.00D-06 EigRej= -1.00D+00 NBFU=   257
 Precomputing XC quadrature grid using
 IXCGrd= 4 IRadAn=           5 IRanWt=          -1 IRanGd=           0 AccXCQ= 0.00D+00.
 Generated NRdTot=       0 NPtTot=           0 NUsed=           0 NTot=          32
 NSgBfM=   268   268   268   268   268 MxSgAt=    12 MxSgA2=    12.
 Leave Link  302 at Fri May 23 03:33:21 2025, MaxMem=  3758096384 cpu:               0.5 elap:               0.1
 (Enter /apps/easybuild-2022/easybuild/software/Compiler/NVHPC/22.11-CUDA-11.7.0/Gaussian/g16c01-CUDA-11.7.0/g16/l303.exe)
 DipDrv:  MaxL=1.
 Leave Link  303 at Fri May 23 03:33:21 2025, MaxMem=  3758096384 cpu:               0.1 elap:               0.0
 (Enter /apps/easybuild-2022/easybuild/software/Compiler/NVHPC/22.11-CUDA-11.7.0/Gaussian/g16c01-CUDA-11.7.0/g16/l401.exe)
 ExpMin= 3.60D-02 ExpMax= 9.34D+04 ExpMxC= 3.17D+03 IAcc=3 IRadAn=         5 AccDes= 0.00D+00
 Harris functional with IExCor= 4639 and IRadAn=       5 diagonalized for initial guess.
 HarFok:  IExCor= 4639 AccDes= 0.00D+00 IRadAn=         5 IDoV= 1 UseB2=F ITyADJ=14
 ICtDFT=  3500011 ScaDFX=  1.000000  1.000000  1.000000  1.000000
 FoFCou: FMM=F IPFlag=           0 FMFlag=      100000 FMFlg1=           0
         NFxFlg=           0 DoJE=T BraDBF=F KetDBF=T FulRan=T
         wScrn=  0.000000 ICntrl=       500 IOpCl=  0 I1Cent=   200000004 NGrid=           0
         NMat0=    1 NMatS0=      1 NMatT0=    0 NMatD0=    1 NMtDS0=    0 NMtDT0=    0
 Symmetry not used in FoFCou.
 Harris En= -1167.09944211915    
 JPrj=0 DoOrth=F DoCkMO=F.
 Leave Link  401 at Fri May 23 03:33:22 2025, MaxMem=  3758096384 cpu:               2.5 elap:               0.3
 (Enter /apps/easybuild-2022/easybuild/software/Compiler/NVHPC/22.11-CUDA-11.7.0/Gaussian/g16c01-CUDA-11.7.0/g16/l502.exe)
 Keep R1 ints in memory in canonical form, NReq=1117474609.
 FoFCou: FMM=F IPFlag=           0 FMFlag=           0 FMFlg1=           0
         NFxFlg=           0 DoJE=F BraDBF=F KetDBF=F FulRan=T
         wScrn=  0.000000 ICntrl=       600 IOpCl=  0 I1Cent=           0 NGrid=           0
         NMat0=    1 NMatS0=  33153 NMatT0=    0 NMatD0=    1 NMtDS0=    0 NMtDT0=    0
 Symmetry not used in FoFCou.
 Two-electron integral symmetry not used.
 Closed shell SCF:
 Using DIIS extrapolation, IDIIS=  1040.
 NGot=  3758096384 LenX=  2658793876 LenY=  2658721611
 Requested convergence on RMS density matrix=1.00D-08 within  32 cycles.
 Requested convergence on MAX density matrix=1.00D-06.
 Requested convergence on             energy=1.00D-06.
 No special actions if energy rises.

 Cycle   1  Pass 1  IDiag  1:
 E= -1199.14700948516    
 DIIS: error= 1.21D-01 at cycle   1 NSaved=   1.
 NSaved= 1 IEnMin= 1 EnMin= -1199.14700948516     IErMin= 1 ErrMin= 1.21D-01
 ErrMax= 1.21D-01  0.00D+00 EMaxC= 1.00D-01 BMatC= 3.33D+00 BMatP= 3.33D+00
 IDIUse=3 WtCom= 0.00D+00 WtEn= 1.00D+00
 Coeff-Com:  0.100D+01
 Coeff-En:   0.100D+01
 Coeff:      0.100D+01
 Gap=     0.662 Goal=   None    Shift=    0.000
 GapD=    0.662 DampG=2.000 DampE=0.250 DampFc=0.5000 IDamp=-1.
 Damping current iteration by 5.00D-01
 RMSDP=7.11D-03 MaxDP=3.77D-01              OVMax= 1.84D-01

 Cycle   2  Pass 1  IDiag  1:
 E= -1199.49459721513     Delta-E=       -0.347587729968 Rises=F Damp=T
 DIIS: error= 5.24D-02 at cycle   2 NSaved=   2.
 NSaved= 2 IEnMin= 2 EnMin= -1199.49459721513     IErMin= 2 ErrMin= 5.24D-02
 ErrMax= 5.24D-02  0.00D+00 EMaxC= 1.00D-01 BMatC= 4.81D-01 BMatP= 3.33D+00
 IDIUse=3 WtCom= 4.76D-01 WtEn= 5.24D-01
 Coeff-Com: -0.398D+00 0.140D+01
 Coeff-En:   0.000D+00 0.100D+01
 Coeff:     -0.189D+00 0.119D+01
 Gap=     0.543 Goal=   None    Shift=    0.000
 RMSDP=2.63D-03 MaxDP=1.31D-01 DE=-3.48D-01 OVMax= 9.65D-02

 Cycle   3  Pass 1  IDiag  1:
 E= -1199.78225976404     Delta-E=       -0.287662548915 Rises=F Damp=F
 DIIS: error= 1.61D-02 at cycle   3 NSaved=   3.
 NSaved= 3 IEnMin= 3 EnMin= -1199.78225976404     IErMin= 3 ErrMin= 1.61D-02
 ErrMax= 1.61D-02  0.00D+00 EMaxC= 1.00D-01 BMatC= 6.38D-02 BMatP= 4.81D-01
 IDIUse=3 WtCom= 8.39D-01 WtEn= 1.61D-01
 Coeff-Com: -0.161D+00 0.465D+00 0.695D+00
 Coeff-En:   0.000D+00 0.000D+00 0.100D+01
 Coeff:     -0.135D+00 0.391D+00 0.744D+00
 Gap=     0.463 Goal=   None    Shift=    0.000
 RMSDP=2.44D-03 MaxDP=1.41D-01 DE=-2.88D-01 OVMax= 5.78D-02

 Cycle   4  Pass 1  IDiag  1:
 E= -1199.80953124110     Delta-E=       -0.027271477060 Rises=F Damp=F
 DIIS: error= 8.58D-03 at cycle   4 NSaved=   4.
 NSaved= 4 IEnMin= 4 EnMin= -1199.80953124110     IErMin= 4 ErrMin= 8.58D-03
 ErrMax= 8.58D-03  0.00D+00 EMaxC= 1.00D-01 BMatC= 1.91D-02 BMatP= 6.38D-02
 IDIUse=3 WtCom= 9.14D-01 WtEn= 8.58D-02
 Coeff-Com: -0.296D-01 0.754D-01 0.374D+00 0.580D+00
 Coeff-En:   0.000D+00 0.000D+00 0.243D+00 0.757D+00
 Coeff:     -0.270D-01 0.689D-01 0.363D+00 0.595D+00
 Gap=     0.478 Goal=   None    Shift=    0.000
 RMSDP=1.17D-03 MaxDP=6.84D-02 DE=-2.73D-02 OVMax= 2.30D-02

 Cycle   5  Pass 1  IDiag  1:
 E= -1199.82152533645     Delta-E=       -0.011994095351 Rises=F Damp=F
 DIIS: error= 1.37D-03 at cycle   5 NSaved=   5.
 NSaved= 5 IEnMin= 5 EnMin= -1199.82152533645     IErMin= 5 ErrMin= 1.37D-03
 ErrMax= 1.37D-03  0.00D+00 EMaxC= 1.00D-01 BMatC= 8.17D-04 BMatP= 1.91D-02
 IDIUse=3 WtCom= 9.86D-01 WtEn= 1.37D-02
 Coeff-Com: -0.599D-02 0.136D-01 0.156D+00 0.311D+00 0.526D+00
 Coeff-En:   0.000D+00 0.000D+00 0.000D+00 0.000D+00 0.100D+01
 Coeff:     -0.591D-02 0.134D-01 0.153D+00 0.307D+00 0.532D+00
 Gap=     0.468 Goal=   None    Shift=    0.000
 RMSDP=1.53D-04 MaxDP=7.60D-03 DE=-1.20D-02 OVMax= 4.28D-03

 Cycle   6  Pass 1  IDiag  1:
 E= -1199.82201231405     Delta-E=       -0.000486977597 Rises=F Damp=F
 DIIS: error= 2.03D-04 at cycle   6 NSaved=   6.
 NSaved= 6 IEnMin= 6 EnMin= -1199.82201231405     IErMin= 6 ErrMin= 2.03D-04
 ErrMax= 2.03D-04  0.00D+00 EMaxC= 1.00D-01 BMatC= 1.64D-05 BMatP= 8.17D-04
 IDIUse=3 WtCom= 9.98D-01 WtEn= 2.03D-03
 Coeff-Com:  0.203D-02-0.524D-02-0.103D-03 0.213D-01 0.131D+00 0.851D+00
 Coeff-En:   0.000D+00 0.000D+00 0.000D+00 0.000D+00 0.000D+00 0.100D+01
 Coeff:      0.203D-02-0.523D-02-0.103D-03 0.212D-01 0.131D+00 0.851D+00
 Gap=     0.467 Goal=   None    Shift=    0.000
 RMSDP=4.04D-05 MaxDP=1.72D-03 DE=-4.87D-04 OVMax= 8.56D-04

 Cycle   7  Pass 1  IDiag  1:
 E= -1199.82202833792     Delta-E=       -0.000016023869 Rises=F Damp=F
 DIIS: error= 4.81D-05 at cycle   7 NSaved=   7.
 NSaved= 7 IEnMin= 7 EnMin= -1199.82202833792     IErMin= 7 ErrMin= 4.81D-05
 ErrMax= 4.81D-05  0.00D+00 EMaxC= 1.00D-01 BMatC= 8.93D-07 BMatP= 1.64D-05
 IDIUse=1 WtCom= 1.00D+00 WtEn= 0.00D+00
 Coeff-Com:  0.847D-03-0.195D-02-0.124D-01-0.214D-01-0.330D-01 0.117D+00
 Coeff-Com:  0.951D+00
 Coeff:      0.847D-03-0.195D-02-0.124D-01-0.214D-01-0.330D-01 0.117D+00
 Coeff:      0.951D+00
 Gap=     0.467 Goal=   None    Shift=    0.000
 RMSDP=1.15D-05 MaxDP=5.50D-04 DE=-1.60D-05 OVMax= 3.16D-04

 Cycle   8  Pass 1  IDiag  1:
 E= -1199.82202928299     Delta-E=       -0.000000945071 Rises=F Damp=F
 DIIS: error= 1.62D-05 at cycle   8 NSaved=   8.
 NSaved= 8 IEnMin= 8 EnMin= -1199.82202928299     IErMin= 8 ErrMin= 1.62D-05
 ErrMax= 1.62D-05  0.00D+00 EMaxC= 1.00D-01 BMatC= 1.29D-07 BMatP= 8.93D-07
 IDIUse=1 WtCom= 1.00D+00 WtEn= 0.00D+00
 Coeff-Com:  0.343D-03-0.775D-03-0.563D-02-0.103D-01-0.171D-01 0.417D-01
 Coeff-Com:  0.432D+00 0.560D+00
 Coeff:      0.343D-03-0.775D-03-0.563D-02-0.103D-01-0.171D-01 0.417D-01
 Coeff:      0.432D+00 0.560D+00
 Gap=     0.467 Goal=   None    Shift=    0.000
 RMSDP=3.31D-06 MaxDP=2.06D-04 DE=-9.45D-07 OVMax= 5.63D-05

 Cycle   9  Pass 1  IDiag  1:
 E= -1199.82202937014     Delta-E=       -0.000000087154 Rises=F Damp=F
 DIIS: error= 4.82D-06 at cycle   9 NSaved=   9.
 NSaved= 9 IEnMin= 9 EnMin= -1199.82202937014     IErMin= 9 ErrMin= 4.82D-06
 ErrMax= 4.82D-06  0.00D+00 EMaxC= 1.00D-01 BMatC= 1.03D-08 BMatP= 1.29D-07
 IDIUse=1 WtCom= 1.00D+00 WtEn= 0.00D+00
 Coeff-Com: -0.564D-04 0.134D-03 0.478D-03 0.485D-03 0.193D-03-0.111D-01
 Coeff-Com: -0.484D-01 0.171D+00 0.887D+00
 Coeff:     -0.564D-04 0.134D-03 0.478D-03 0.485D-03 0.193D-03-0.111D-01
 Coeff:     -0.484D-01 0.171D+00 0.887D+00
 Gap=     0.467 Goal=   None    Shift=    0.000
 RMSDP=1.90D-06 MaxDP=9.62D-05 DE=-8.72D-08 OVMax= 4.35D-05

 Cycle  10  Pass 1  IDiag  1:
 E= -1199.82202938178     Delta-E=       -0.000000011635 Rises=F Damp=F
 DIIS: error= 1.81D-06 at cycle  10 NSaved=  10.
 NSaved=10 IEnMin=10 EnMin= -1199.82202938178     IErMin=10 ErrMin= 1.81D-06
 ErrMax= 1.81D-06  0.00D+00 EMaxC= 1.00D-01 BMatC= 1.38D-09 BMatP= 1.03D-08
 IDIUse=1 WtCom= 1.00D+00 WtEn= 0.00D+00
 Coeff-Com: -0.458D-04 0.105D-03 0.518D-03 0.818D-03 0.109D-02-0.671D-02
 Coeff-Com: -0.458D-01 0.356D-01 0.357D+00 0.657D+00
 Coeff:     -0.458D-04 0.105D-03 0.518D-03 0.818D-03 0.109D-02-0.671D-02
 Coeff:     -0.458D-01 0.356D-01 0.357D+00 0.657D+00
 Gap=     0.467 Goal=   None    Shift=    0.000
 RMSDP=4.68D-07 MaxDP=3.04D-05 DE=-1.16D-08 OVMax= 1.38D-05

 Cycle  11  Pass 1  IDiag  1:
 E= -1199.82202938285     Delta-E=       -0.000000001075 Rises=F Damp=F
 DIIS: error= 9.89D-07 at cycle  11 NSaved=  11.
 NSaved=11 IEnMin=11 EnMin= -1199.82202938285     IErMin=11 ErrMin= 9.89D-07
 ErrMax= 9.89D-07  0.00D+00 EMaxC= 1.00D-01 BMatC= 3.61D-10 BMatP= 1.38D-09
 IDIUse=1 WtCom= 1.00D+00 WtEn= 0.00D+00
 Coeff-Com: -0.129D-04 0.286D-04 0.168D-03 0.339D-03 0.555D-03-0.104D-02
 Coeff-Com: -0.145D-01-0.161D-01 0.181D-02 0.349D+00 0.680D+00
 Coeff:     -0.129D-04 0.286D-04 0.168D-03 0.339D-03 0.555D-03-0.104D-02
 Coeff:     -0.145D-01-0.161D-01 0.181D-02 0.349D+00 0.680D+00
 Gap=     0.467 Goal=   None    Shift=    0.000
 RMSDP=2.31D-07 MaxDP=1.25D-05 DE=-1.08D-09 OVMax= 6.26D-06

 Cycle  12  Pass 1  IDiag  1:
 E= -1199.82202938311     Delta-E=       -0.000000000251 Rises=F Damp=F
 DIIS: error= 2.30D-07 at cycle  12 NSaved=  12.
 NSaved=12 IEnMin=12 EnMin= -1199.82202938311     IErMin=12 ErrMin= 2.30D-07
 ErrMax= 2.30D-07  0.00D+00 EMaxC= 1.00D-01 BMatC= 2.13D-11 BMatP= 3.61D-10
 IDIUse=1 WtCom= 1.00D+00 WtEn= 0.00D+00
 Coeff-Com:  0.486D-06-0.137D-05 0.231D-05 0.342D-04 0.928D-04 0.306D-03
 Coeff-Com: -0.848D-03-0.101D-01-0.369D-01 0.725D-01 0.268D+00 0.707D+00
 Coeff:      0.486D-06-0.137D-05 0.231D-05 0.342D-04 0.928D-04 0.306D-03
 Coeff:     -0.848D-03-0.101D-01-0.369D-01 0.725D-01 0.268D+00 0.707D+00
 Gap=     0.467 Goal=   None    Shift=    0.000
 RMSDP=5.60D-08 MaxDP=2.24D-06 DE=-2.51D-10 OVMax= 1.41D-06

 Cycle  13  Pass 1  IDiag  1:
 E= -1199.82202938325     Delta-E=       -0.000000000142 Rises=F Damp=F
 DIIS: error= 6.02D-08 at cycle  13 NSaved=  13.
 NSaved=13 IEnMin=13 EnMin= -1199.82202938325     IErMin=13 ErrMin= 6.02D-08
 ErrMax= 6.02D-08  0.00D+00 EMaxC= 1.00D-01 BMatC= 2.21D-12 BMatP= 2.13D-11
 IDIUse=1 WtCom= 1.00D+00 WtEn= 0.00D+00
 Coeff-Com:  0.126D-05-0.285D-05-0.116D-04-0.147D-04-0.287D-05 0.197D-03
 Coeff-Com:  0.871D-03-0.210D-02-0.123D-01-0.715D-02 0.295D-01 0.267D+00
 Coeff-Com:  0.724D+00
 Coeff:      0.126D-05-0.285D-05-0.116D-04-0.147D-04-0.287D-05 0.197D-03
 Coeff:      0.871D-03-0.210D-02-0.123D-01-0.715D-02 0.295D-01 0.267D+00
 Coeff:      0.724D+00
 Gap=     0.467 Goal=   None    Shift=    0.000
 RMSDP=2.04D-08 MaxDP=9.82D-07 DE=-1.42D-10 OVMax= 5.25D-07

 Cycle  14  Pass 1  IDiag  1:
 E= -1199.82202938316     Delta-E=        0.000000000089 Rises=F Damp=F
 DIIS: error= 2.54D-08 at cycle  14 NSaved=  14.
 NSaved=14 IEnMin=13 EnMin= -1199.82202938325     IErMin=14 ErrMin= 2.54D-08
 ErrMax= 2.54D-08  0.00D+00 EMaxC= 1.00D-01 BMatC= 2.52D-13 BMatP= 2.21D-12
 IDIUse=1 WtCom= 1.00D+00 WtEn= 0.00D+00
 Coeff-Com:  0.441D-06-0.953D-06-0.516D-05-0.122D-04-0.177D-04 0.196D-04
 Coeff-Com:  0.492D-03 0.730D-03 0.840D-03-0.134D-01-0.281D-01 0.468D-02
 Coeff-Com:  0.265D+00 0.769D+00
 Coeff:      0.441D-06-0.953D-06-0.516D-05-0.122D-04-0.177D-04 0.196D-04
 Coeff:      0.492D-03 0.730D-03 0.840D-03-0.134D-01-0.281D-01 0.468D-02
 Coeff:      0.265D+00 0.769D+00
 Gap=     0.467 Goal=   None    Shift=    0.000
 RMSDP=7.36D-09 MaxDP=3.24D-07 DE= 8.91D-11 OVMax= 2.11D-07

 SCF Done:  E(RwB97XD) =  -1199.82202938     A.U. after   14 cycles
            NFock= 14  Conv=0.74D-08     -V/T= 2.0020
 KE= 1.197419555416D+03 PE=-4.689380390503D+03 EE= 1.370775078435D+03
 Leave Link  502 at Fri May 23 03:33:34 2025, MaxMem=  3758096384 cpu:              63.8 elap:              12.7
 (Enter /apps/easybuild-2022/easybuild/software/Compiler/NVHPC/22.11-CUDA-11.7.0/Gaussian/g16c01-CUDA-11.7.0/g16/l508.exe)
 QCSCF skips out because SCF is already converged.
 Leave Link  508 at Fri May 23 03:33:35 2025, MaxMem=  3758096384 cpu:               0.0 elap:               0.0
 (Enter /apps/easybuild-2022/easybuild/software/Compiler/NVHPC/22.11-CUDA-11.7.0/Gaussian/g16c01-CUDA-11.7.0/g16/l801.exe)
 DoSCS=F DFT=T ScalE2(SS,OS)=  1.000000  1.000000
 Range of M.O.s used for correlation:     1   257
 NBasis=   257 NAE=    49 NBE=    49 NFC=     0 NFV=     0
 NROrb=    257 NOA=    49 NOB=    49 NVA=   208 NVB=   208

 **** Warning!!: The largest alpha MO coefficient is  0.36374089D+02

 Leave Link  801 at Fri May 23 03:33:35 2025, MaxMem=  3758096384 cpu:               0.0 elap:               0.0
 (Enter /apps/easybuild-2022/easybuild/software/Compiler/NVHPC/22.11-CUDA-11.7.0/Gaussian/g16c01-CUDA-11.7.0/g16/l1101.exe)
 Using compressed storage, NAtomX=    12.
 Will process     13 centers per pass.
 R6Disp: Adding Grimme-D2 dispersion energy 1st derivatives to the gradient.
 Leave Link 1101 at Fri May 23 03:33:35 2025, MaxMem=  3758096384 cpu:               0.5 elap:               0.1
 (Enter /apps/easybuild-2022/easybuild/software/Compiler/NVHPC/22.11-CUDA-11.7.0/Gaussian/g16c01-CUDA-11.7.0/g16/l1102.exe)
 Symmetrizing basis deriv contribution to polar:
 IMax=3 JMax=2 DiffMx= 0.00D+00
 Leave Link 1102 at Fri May 23 03:33:35 2025, MaxMem=  3758096384 cpu:               0.1 elap:               0.0
 (Enter /apps/easybuild-2022/easybuild/software/Compiler/NVHPC/22.11-CUDA-11.7.0/Gaussian/g16c01-CUDA-11.7.0/g16/l1110.exe)
 Forming Gx(P) for the SCF density, NAtomX=    12.
 Integral derivatives from FoFJK, PRISM(SPDF).
 Do as many integral derivatives as possible in FoFJK.
 G2DrvN: MDV=    3758095012.
 G2DrvN: will do    13 centers at a time, making    1 passes.
 Calling FoFCou, ICntrl=  3107 FMM=F I1Cent=   0 AccDes= 0.00D+00.
 FoFJK:  IHMeth= 1 ICntrl=    3107 DoSepK=T KAlg= 0 I1Cent=           0 FoldK=F
 IRaf=         1 NMat=       1 IRICut=       1 DoRegI=T DoRafI=F ISym2E= 0 IDoP0=0 IntGTp=1.
 FoFCou: FMM=F IPFlag=           0 FMFlag=      100000 FMFlg1=           0
         NFxFlg=           0 DoJE=F BraDBF=F KetDBF=F FulRan=T
         wScrn=  0.000000 ICntrl=      3507 IOpCl=  0 I1Cent=           0 NGrid=           0
         NMat0=    1 NMatS0=      1 NMatT0=    0 NMatD0=    1 NMtDS0=    0 NMtDT0=    0
 Symmetry not used in FoFCou.
 End of G2Drv F.D. properties file   721 does not exist.
 End of G2Drv F.D. properties file   722 does not exist.
 End of G2Drv F.D. properties file   788 does not exist.
 Leave Link 1110 at Fri May 23 03:33:48 2025, MaxMem=  3758096384 cpu:             105.2 elap:              13.3
 (Enter /apps/easybuild-2022/easybuild/software/Compiler/NVHPC/22.11-CUDA-11.7.0/Gaussian/g16c01-CUDA-11.7.0/g16/l1002.exe)
 Minotr:  Closed shell wavefunction.
          IDoAtm=111111111111
          Direct CPHF calculation.
          Differentiating once with respect to nuclear coordinates.
          Requested convergence is 1.0D-08 RMS, and 1.0D-07 maximum.
          Secondary convergence is 1.0D-12 RMS, and 1.0D-12 maximum.
          NewPWx=T KeepS1=F KeepF1=F KeepIn=T MapXYZ=F SortEE=F KeepMc=T.
         3724 words used for storage of precomputed grid.
 Keep R1 ints in memory in canonical form, NReq=1117480316.
 FoFCou: FMM=F IPFlag=           0 FMFlag=           0 FMFlg1=           0
         NFxFlg=           0 DoJE=F BraDBF=F KetDBF=F FulRan=T
         wScrn=  0.000000 ICntrl=       600 IOpCl=  0 I1Cent=           0 NGrid=           0
         NMat0=    1 NMatS0=  33153 NMatT0=    0 NMatD0=    1 NMtDS0=    0 NMtDT0=    0
 Symmetry not used in FoFCou.
 Two-electron integral symmetry not used.
          MDV=    3758096384 using IRadAn=       1.
          Solving linear equations simultaneously, MaxMat=       0.
          There are    39 degrees of freedom in the 1st order CPHF.  IDoFFX=6 NUNeed=     0.
     33 vectors produced by pass  0 Test12= 2.61D-14 2.56D-09 XBig12= 2.94D-01 7.44D-02.
 AX will form    33 AO Fock derivatives at one time.
     33 vectors produced by pass  1 Test12= 2.61D-14 2.56D-09 XBig12= 3.37D-02 2.83D-02.
     33 vectors produced by pass  2 Test12= 2.61D-14 2.56D-09 XBig12= 1.20D-03 5.07D-03.
     33 vectors produced by pass  3 Test12= 2.61D-14 2.56D-09 XBig12= 2.23D-05 6.39D-04.
     33 vectors produced by pass  4 Test12= 2.61D-14 2.56D-09 XBig12= 3.71D-07 8.96D-05.
     33 vectors produced by pass  5 Test12= 2.61D-14 2.56D-09 XBig12= 4.64D-09 1.01D-05.
     33 vectors produced by pass  6 Test12= 2.61D-14 2.56D-09 XBig12= 4.06D-11 9.40D-07.
     23 vectors produced by pass  7 Test12= 2.61D-14 2.56D-09 XBig12= 2.91D-13 6.65D-08.
      5 vectors produced by pass  8 Test12= 2.61D-14 2.56D-09 XBig12= 1.65D-15 5.73D-09.
 InvSVY:  IOpt=1 It=  1 EMax= 1.33D-15
 Solved reduced A of dimension   259 with    33 vectors.
 End of Minotr F.D. properties file   721 does not exist.
 End of Minotr F.D. properties file   722 does not exist.
 End of Minotr F.D. properties file   788 does not exist.
 Leave Link 1002 at Fri May 23 03:34:12 2025, MaxMem=  3758096384 cpu:             184.7 elap:              23.7
 (Enter /apps/easybuild-2022/easybuild/software/Compiler/NVHPC/22.11-CUDA-11.7.0/Gaussian/g16c01-CUDA-11.7.0/g16/l701.exe)
 ... and contract with generalized density number  0.
 Compute integral second derivatives.
 R6Disp: Adding Grimme-D2 dispersion energy 2nd derivatives to the Hessian.
 Leave Link  701 at Fri May 23 03:34:12 2025, MaxMem=  3758096384 cpu:               0.5 elap:               0.1
 (Enter /apps/easybuild-2022/easybuild/software/Compiler/NVHPC/22.11-CUDA-11.7.0/Gaussian/g16c01-CUDA-11.7.0/g16/l702.exe)
 L702 exits ... SP integral derivatives will be done elsewhere.
 Leave Link  702 at Fri May 23 03:34:12 2025, MaxMem=  3758096384 cpu:               0.0 elap:               0.0
 (Enter /apps/easybuild-2022/easybuild/software/Compiler/NVHPC/22.11-CUDA-11.7.0/Gaussian/g16c01-CUDA-11.7.0/g16/l703.exe)
 Integral derivatives from FoFJK, PRISM(SPDF).
 Compute integral second derivatives, UseDBF=F ICtDFT=           0.
 Calling FoFJK, ICntrl=    100127 FMM=F ISym2X=0 I1Cent= 0 IOpClX= 0 NMat=1 NMatS=1 NMatT=0.
 FoFJK:  IHMeth= 1 ICntrl=  100127 DoSepK=T KAlg= 0 I1Cent=           0 FoldK=F
 IRaf=         1 NMat=       1 IRICut=       1 DoRegI=T DoRafI=F ISym2E= 0 IDoP0=0 IntGTp=1.
 FoFCou: FMM=F IPFlag=           0 FMFlag=      100000 FMFlg1=         800
         NFxFlg=           0 DoJE=F BraDBF=F KetDBF=F FulRan=T
         wScrn=  0.000000 ICntrl=    100527 IOpCl=  0 I1Cent=           0 NGrid=           0
         NMat0=    1 NMatS0=      1 NMatT0=    0 NMatD0=    1 NMtDS0=    0 NMtDT0=    0
 Symmetry not used in FoFCou.
 Leave Link  703 at Fri May 23 03:34:50 2025, MaxMem=  3758096384 cpu:             301.0 elap:              37.9
 (Enter /apps/easybuild-2022/easybuild/software/Compiler/NVHPC/22.11-CUDA-11.7.0/Gaussian/g16c01-CUDA-11.7.0/g16/l716.exe)
 Dipole        =-2.18858357D-01 1.40351848D-01-1.04542210D+00
 Polarizability= 0.00000000D+00 0.00000000D+00 0.00000000D+00
                 0.00000000D+00 0.00000000D+00 0.00000000D+00
 -------------------------------------------------------------------
 Center     Atomic                   Forces (Hartrees/Bohr)
 Number     Number              X              Y              Z
 -------------------------------------------------------------------
      1        6          -0.000000242   -0.000000152   -0.000001866
      2        6          -0.000000586    0.000007936    0.000004990
      3        9          -0.000009937    0.000036777    0.000005850
      4        9           0.000011775    0.000007364    0.000034953
      5       16           0.000000964   -0.000014826   -0.000009655
      6        8           0.000012628   -0.000020653   -0.000002939
      7        8          -0.000013301   -0.000004269   -0.000018231
      8        8           0.000000659   -0.000000388    0.000000097
      9        9           0.000000039    0.000006757    0.000007506
     10        9          -0.000018811   -0.000010079   -0.000009855
     11        9           0.000017057   -0.000010385   -0.000012148
     12        1          -0.000000244    0.000001918    0.000001299
 -------------------------------------------------------------------
 Cartesian Forces:  Max     0.000036777 RMS     0.000012511
 Force constants in Cartesian coordinates: 
                1             2             3             4             5 
      1  0.558852D+00
      2  0.412894D-02  0.559770D+00
      3 -0.646268D-02  0.502524D-02  0.557661D+00
      4 -0.999664D-01 -0.204994D-01  0.216131D-01  0.420800D+00
      5 -0.436745D-01 -0.780767D-01  0.410203D-01 -0.111745D-01  0.531841D+00
      6  0.486341D-01  0.417597D-01 -0.873222D-01  0.252625D-02 -0.678617D-02
      7  0.434474D-02 -0.925880D-03  0.104642D-01 -0.822147D-01 -0.112132D-01
      8  0.882724D-03  0.427253D-02  0.602395D-02 -0.912972D-02 -0.744804D-01
      9 -0.173775D-01 -0.165840D-01 -0.390196D-01 -0.414814D-01 -0.264614D-01
     10  0.462579D-02 -0.923573D-02  0.294281D-02 -0.868135D-01  0.641475D-01
     11  0.183273D-01 -0.404289D-01 -0.963080D-02  0.525925D-01 -0.301239D+00
     12 -0.347098D-02  0.118633D-01  0.489324D-02  0.399480D-02 -0.965159D-02
     13 -0.224011D-01 -0.165238D-01  0.178976D-01 -0.144899D+00  0.201356D-01
     14 -0.199349D-01  0.227213D-01 -0.712890D-02 -0.691114D-02 -0.327562D-01
     15  0.218964D-01 -0.643631D-02  0.245925D-01  0.684666D-02  0.930949D-02
     16  0.293616D-02  0.536658D-02 -0.284499D-02  0.147755D-01 -0.130852D-01
     17  0.260339D-02 -0.279873D-02 -0.889973D-03  0.951876D-02 -0.204656D-02
     18 -0.342266D-02  0.440957D-02 -0.109470D-01  0.120196D-01 -0.150202D-01
     19  0.342061D-02  0.182446D-02 -0.527912D-02  0.150115D-01  0.166340D-01
     20  0.351307D-02 -0.106782D-01  0.556741D-02 -0.128821D-01 -0.764759D-02
     21 -0.337919D-02  0.288670D-03 -0.367814D-02 -0.744183D-02 -0.254162D-02
     22 -0.313941D-03  0.727502D-02 -0.826403D-02 -0.442458D-02 -0.200732D-01
     23  0.271526D-02 -0.115675D-03 -0.198052D-02  0.491083D-02 -0.630434D-02
     24 -0.341728D-02 -0.338709D-02  0.191310D-02 -0.612783D-02  0.137917D-01
     25 -0.124323D+00  0.563211D-01 -0.639149D-01  0.369563D-02 -0.165089D-02
     26  0.545030D-01 -0.150215D+00  0.868311D-01  0.220160D-01 -0.784491D-02
     27 -0.618067D-01  0.867449D-01 -0.171987D+00 -0.249716D-01  0.164303D-01
     28 -0.165523D+00  0.627020D-01  0.853350D-01 -0.179796D-01  0.218881D-01
     29  0.696275D-01 -0.133128D+00 -0.666469D-01  0.214263D-03 -0.386136D-02
     30  0.860096D-01 -0.609516D-01 -0.155988D+00  0.285770D-01 -0.204827D-01
     31 -0.161222D+00 -0.905403D-01 -0.516569D-01 -0.172465D-01 -0.205907D-01
     32 -0.923893D-01 -0.172184D+00 -0.579149D-01 -0.281938D-01 -0.161143D-01
     33 -0.580564D-01 -0.634090D-01 -0.119211D+00  0.310853D-02  0.851791D-03
     34 -0.430144D-03  0.106937D-03  0.169935D-03 -0.738187D-03 -0.134293D-02
     35 -0.302421D-03  0.861214D-03 -0.275955D-03 -0.461697D-03 -0.146968D-02
     36  0.853292D-03  0.676653D-03 -0.906573D-03  0.133668D-02 -0.459915D-03
                6             7             8             9            10 
      6  0.519371D+00
      7 -0.543748D-01  0.793304D-01
      8 -0.378622D-01  0.195696D-01  0.101198D+00
      9 -0.281275D+00  0.595316D-01  0.835654D-01  0.370140D+00
     10  0.348001D-02  0.127590D-01 -0.584476D-02  0.196390D-02  0.831110D-01
     11  0.155655D-02  0.185310D-02 -0.345686D-01 -0.444395D-01 -0.741983D-01
     12 -0.700763D-01  0.903913D-02 -0.599709D-01 -0.206314D-01 -0.138090D-01
     13 -0.262732D-01 -0.208944D-02 -0.242430D-03  0.311325D-02 -0.133397D-02
     14  0.883162D-02 -0.792846D-02 -0.215027D-02 -0.105375D-01  0.374434D-01
     15 -0.350439D-01 -0.361760D-01 -0.453427D-02 -0.371597D-01  0.284584D-02
     16 -0.141330D-01 -0.103115D-01 -0.140003D-02 -0.101912D-01 -0.189614D-02
     17 -0.314737D-02 -0.161127D-02  0.998306D-03  0.280699D-04 -0.357020D-02
     18 -0.451751D-02 -0.608183D-02 -0.490907D-03 -0.313481D-02 -0.232220D-02
     19  0.101955D-01 -0.195454D-02 -0.723018D-03 -0.289195D-02 -0.107972D-01
     20 -0.135147D-01  0.269244D-02  0.399249D-02  0.619902D-02  0.599090D-02
     21  0.461350D-04  0.251448D-02  0.249945D-02  0.724011D-02  0.861327D-03
     22  0.228440D-01 -0.404573D-03 -0.673984D-03 -0.497893D-03 -0.896468D-03
     23  0.110398D-01  0.417158D-03  0.109196D-02 -0.175755D-02 -0.332130D-02
     24 -0.171684D-01  0.272996D-02 -0.340776D-03  0.112648D-01  0.158559D-02
     25  0.186102D-02  0.156749D-02  0.223533D-03  0.149540D-02  0.151117D-02
     26  0.165265D-01 -0.330469D-02 -0.195323D-02  0.806653D-02 -0.356274D-02
     27 -0.118650D-01  0.402064D-02  0.130349D-02 -0.534543D-02  0.368797D-02
     28  0.183641D-01 -0.173905D-02 -0.224821D-02  0.780072D-02  0.949733D-03
     29 -0.197950D-03  0.490479D-03  0.145090D-02  0.130794D-02 -0.790502D-02
     30 -0.134407D-01  0.849833D-03  0.227873D-02 -0.445395D-02  0.348277D-03
     31 -0.194685D-01  0.750078D-03 -0.457928D-03  0.218216D-02 -0.137597D-02
     32 -0.198718D-01  0.685767D-03  0.790494D-03  0.159860D-02 -0.612550D-03
     33 -0.160678D-02  0.780549D-02  0.766361D-02  0.322538D-02 -0.537089D-03
     34  0.634449D-02 -0.378847D-04  0.442130D-04 -0.364707D-02  0.156568D-03
     35  0.166592D-02 -0.725039D-03 -0.642048D-03 -0.985593D-03  0.668816D-03
     36  0.289898D-02 -0.322663D-03 -0.135537D-03 -0.850252D-03 -0.104746D-02
               11            12            13            14            15 
     11  0.402261D+00
     12  0.444226D-01  0.835394D-01
     13 -0.128899D-02  0.637335D-03  0.504995D+00
     14 -0.345931D-01  0.938927D-03 -0.414294D-01  0.948088D+00
     15 -0.595220D-02 -0.180467D-03  0.539085D-01  0.296901D+00  0.908426D+00
     16  0.247700D-02  0.632259D-03 -0.128871D+00 -0.605523D-01 -0.133569D+00
     17  0.785724D-02  0.167294D-02 -0.590989D-01 -0.188476D+00 -0.222006D+00
     18  0.577241D-02  0.254411D-02 -0.126610D+00 -0.220854D+00 -0.527283D+00
     19  0.956511D-02 -0.286510D-03 -0.127142D+00  0.132920D+00  0.349675D-01
     20 -0.271411D-02  0.214448D-03  0.126912D+00 -0.567606D+00 -0.139439D+00
     21  0.414572D-03  0.987241D-03  0.349347D-01 -0.135560D+00 -0.125593D+00
     22  0.236862D-02  0.271942D-03 -0.866173D-01 -0.406820D-01  0.421551D-01
     23  0.774012D-02 -0.127883D-02 -0.330262D-01 -0.143796D+00  0.410019D-01
     24 -0.369590D-02  0.171447D-02  0.476769D-01  0.722939D-01 -0.156985D+00
     25 -0.158234D-02  0.105642D-04 -0.147423D-02  0.611338D-02 -0.650175D-02
     26 -0.426429D-02  0.167475D-02  0.324669D-02 -0.704078D-02  0.190032D-02
     27  0.825892D-02 -0.321171D-02 -0.341797D-02  0.196217D-02 -0.744967D-02
     28 -0.209337D-02  0.584408D-03  0.601600D-02  0.121355D-03  0.127012D-02
     29  0.427706D-02  0.709377D-02 -0.255019D-03 -0.421471D-02  0.319779D-03
     30  0.983137D-03 -0.414292D-03 -0.705600D-02  0.209000D-02 -0.578123D-02
     31 -0.752451D-02  0.315196D-02  0.604006D-02 -0.115829D-02  0.218124D-03
     32 -0.395812D-02  0.300137D-02  0.729621D-02 -0.553574D-02  0.235422D-02
     33  0.175316D-02  0.949049D-03 -0.378427D-03  0.562582D-03 -0.453471D-02
     34 -0.496155D-03 -0.755928D-03 -0.222204D-02  0.199878D-02  0.121390D-01
     35 -0.369893D-03  0.192501D-04 -0.572614D-02  0.153597D-01  0.265806D-01
     36  0.557052D-03 -0.113325D-03  0.556719D-02 -0.949993D-02 -0.330077D-01
               16            17            18            19            20 
     16  0.928107D-01
     17  0.639687D-01  0.174641D+00
     18  0.135593D+00  0.234338D+00  0.566426D+00
     19  0.212663D-01 -0.891019D-02 -0.602537D-02  0.903557D-01
     20  0.805037D-02 -0.310523D-02  0.325021D-02 -0.138350D+00  0.608545D+00
     21  0.811394D-02 -0.330996D-01  0.130010D-02 -0.366077D-01  0.143060D+00
     22  0.119030D-01  0.858773D-03 -0.298455D-02  0.168986D-01  0.353077D-02
     23  0.123082D-02  0.133625D-01 -0.170039D-01 -0.120173D-01 -0.266744D-01
     24  0.122664D-01  0.187443D-01 -0.332016D-01  0.262857D-02  0.193666D-02
     25 -0.159637D-02 -0.246865D-02  0.313491D-02 -0.208567D-02 -0.328623D-02
     26 -0.289713D-02  0.104752D-03 -0.576852D-03 -0.740131D-03  0.401467D-02
     27  0.118187D-02 -0.176643D-04  0.381112D-02  0.327359D-02 -0.116971D-02
     28 -0.160900D-02 -0.907936D-03 -0.156593D-02 -0.131635D-02  0.211580D-03
     29 -0.205508D-03  0.107847D-02  0.206647D-03  0.237116D-03  0.185999D-02
     30  0.162893D-02  0.875971D-03  0.325347D-02  0.158928D-02 -0.120683D-02
     31 -0.128956D-02 -0.322335D-03 -0.356614D-03 -0.159480D-02  0.157462D-02
     32 -0.171343D-02  0.382875D-03 -0.113496D-02 -0.156843D-02  0.342766D-02
     33 -0.243009D-05  0.113105D-03  0.185675D-02  0.313145D-03 -0.126584D-03
     34  0.188207D-02 -0.601438D-04 -0.137809D-02 -0.206215D-02  0.204196D-02
     35 -0.123988D-02 -0.199928D-02  0.710379D-02  0.112856D-02 -0.341373D-02
     36  0.132513D-02  0.338788D-02 -0.107399D-03 -0.187689D-02 -0.477053D-02
               21            22            23            24            25 
     21  0.103055D+00
     22 -0.253204D-02  0.806528D-01
     23  0.289312D-01  0.255797D-01  0.312978D+00
     24  0.938598D-02 -0.111942D+00  0.132273D+00  0.566520D+00
     25  0.338303D-02  0.101832D-02 -0.115928D-02  0.142787D-02  0.197511D+00
     26 -0.684679D-03 -0.112294D-02  0.660961D-03 -0.700334D-05 -0.108422D+00
     27  0.229572D-03  0.117846D-02  0.118975D-03  0.666466D-03  0.122776D+00
     28  0.330541D-03 -0.236072D-02 -0.122219D-02  0.181670D-02 -0.385583D-01
     29 -0.143693D-03 -0.114246D-03  0.733403D-03 -0.302906D-03  0.517711D-01
     30  0.537867D-03  0.308301D-02  0.102360D-02 -0.144668D-02 -0.108823D-01
     31  0.735597D-03 -0.245846D-02 -0.109582D-02  0.203739D-02 -0.372047D-01
     32  0.590853D-03 -0.319904D-02 -0.697225D-03  0.200728D-02  0.400483D-02
     33  0.109111D-02  0.461155D-03 -0.785971D-04  0.731733D-03 -0.524544D-01
     34 -0.912791D-03 -0.129968D-01  0.169883D-01  0.493177D-01 -0.611905D-04
     35 -0.375459D-02  0.262525D-01 -0.158979D+00 -0.233314D+00  0.135780D-03
     36  0.539762D-02  0.562268D-01 -0.192290D+00 -0.383395D+00 -0.335002D-03
               26            27            28            29            30 
     26  0.177796D+00
     27 -0.109743D+00  0.206456D+00
     28  0.486875D-01  0.238182D-02  0.197956D+00
     29 -0.346426D-01 -0.441680D-02 -0.122296D+00  0.208994D+00
     30  0.811053D-02  0.238717D-01 -0.109284D+00  0.114472D+00  0.184269D+00
     31 -0.871163D-02 -0.479734D-01  0.240712D-01  0.845076D-02  0.524380D-02
     32  0.234815D-01  0.636782D-03 -0.478038D-02 -0.424390D-01 -0.473057D-01
     33 -0.120915D-01 -0.353332D-01 -0.653722D-02 -0.517749D-01 -0.308644D-01
     34  0.308478D-03 -0.330228D-03  0.932693D-04 -0.156667D-04 -0.107215D-03
     35 -0.970328D-04 -0.108219D-03 -0.626669D-04 -0.108864D-03  0.113043D-03
     36 -0.651857D-05  0.157118D-03 -0.496117D-03  0.832544D-04  0.457186D-03
               31            32            33            34            35 
     31  0.191551D+00
     32  0.120535D+00  0.213174D+00
     33  0.106457D+00  0.116605D+00  0.183769D+00
     34 -0.208409D-04 -0.652687D-04 -0.179388D-03  0.164373D-01
     35 -0.159277D-03 -0.328788D-03 -0.687060D-04 -0.195085D-01  0.151187D+00
     36 -0.570620D-03 -0.566946D-03 -0.735013D-04 -0.606603D-01  0.203024D+00
               36 
     36  0.409543D+00
 FormGI is forming the generalized inverse of G from B-inverse, IUseBI=4.
 Leave Link  716 at Fri May 23 03:34:50 2025, MaxMem=  3758096384 cpu:               0.0 elap:               0.0
 (Enter /apps/easybuild-2022/easybuild/software/Compiler/NVHPC/22.11-CUDA-11.7.0/Gaussian/g16c01-CUDA-11.7.0/g16/l103.exe)

 GradGradGradGradGradGradGradGradGradGradGradGradGradGradGradGradGradGrad
 Berny optimization.
 Red2BG is reusing G-inverse.
 Internal  Forces:  Max     0.000035036 RMS     0.000011890
 Search for a local minimum.
 Step number   1 out of a maximum of   61
 All quantities printed in internal units (Hartrees-Bohrs-Radians)
 RMS Force = .11890D-04 SwitMx=.10000D-02 MixMth= 2
 Mixed Optimization -- En-DIIS/RFO-DIIS
 Second derivative matrix not updated -- analytic derivatives used.
 ITU=  0
     Eigenvalues ---   -0.00213   0.00403   0.00637   0.04993   0.08602
     Eigenvalues ---    0.09752   0.10646   0.11107   0.11620   0.12611
     Eigenvalues ---    0.12785   0.16008   0.18278   0.19284   0.19597
     Eigenvalues ---    0.21636   0.23845   0.27203   0.27285   0.29662
     Eigenvalues ---    0.32322   0.37243   0.38790   0.39137   0.41701
     Eigenvalues ---    0.48638   0.52945   0.57057   0.68427   0.71506
 Eigenvalue     1 is  -2.13D-03 should be greater than     0.000000 Eigenvector:
                          D3        D2        D9        D1        D6
   1                   -0.32694  -0.32314  -0.32306  -0.32248  -0.32196
                          D8        D7        D5        D4        D11
   1                   -0.31926  -0.31860  -0.31816  -0.31750   0.09159
 RFO step:  Lambda=-2.13224948D-03 EMin=-2.13011266D-03
 I=     1 Eig=   -2.13D-03 Dot1= -4.05D-05
 I=     1 Stepn= -6.00D-01 RXN=   6.00D-01 EDone=F
 Mixed    1 eigenvectors in step.  Raw Step.Grad=  4.05D-05.
 RFO eigenvector is Hessian eigenvector with negative curvature.
 Taking step of  6.00D-01 in eigenvector direction(s).  Step.Grad=  2.03D-08.
 Linear search not attempted -- first point.
 Iteration  1 RMS(Cart)=  0.09784809 RMS(Int)=  0.00590614
 Iteration  2 RMS(Cart)=  0.00656012 RMS(Int)=  0.00001796
 Iteration  3 RMS(Cart)=  0.00002660 RMS(Int)=  0.00000210
 Iteration  4 RMS(Cart)=  0.00000000 RMS(Int)=  0.00000210
 ITry= 1 IFail=0 DXMaxC= 2.92D-01 DCOld= 1.00D+10 DXMaxT= 3.00D-01 DXLimC= 3.00D+00 Rises=F
 Variable       Old X    -DE/DX   Delta X   Delta X   Delta X     New X
                                 (Linear)    (Quad)   (Total)
    R1        2.98529  -0.00000   0.00000   0.00048   0.00048   2.98577
    R2        2.51139   0.00000   0.00000   0.00014   0.00014   2.51152
    R3        2.50249   0.00000   0.00000   0.00135   0.00135   2.50384
    R4        2.50394   0.00000   0.00000  -0.00145  -0.00145   2.50249
    R5        2.52810  -0.00001   0.00000   0.00114   0.00114   2.52925
    R6        2.51142   0.00000   0.00000  -0.00087  -0.00087   2.51055
    R7        3.54270   0.00000   0.00000  -0.00033  -0.00033   3.54237
    R8        2.69778  -0.00000   0.00000  -0.00091  -0.00091   2.69686
    R9        2.71414  -0.00000   0.00000   0.00080   0.00080   2.71494
   R10        3.03114  -0.00000   0.00000  -0.00030  -0.00030   3.03084
   R11        1.82588   0.00000   0.00000   0.00002   0.00002   1.82590
    A1        1.93124  -0.00000   0.00000  -0.00102  -0.00102   1.93022
    A2        1.91781   0.00001   0.00000  -0.00110  -0.00111   1.91670
    A3        1.91910  -0.00001   0.00000   0.00221   0.00221   1.92130
    A4        1.89681  -0.00000   0.00000  -0.00131  -0.00131   1.89549
    A5        1.89700   0.00000   0.00000   0.00125   0.00125   1.89825
    A6        1.90138   0.00000   0.00000  -0.00002  -0.00002   1.90136
    A7        1.91563   0.00001   0.00000  -0.00166  -0.00167   1.91397
    A8        1.91775  -0.00000   0.00000   0.00223   0.00223   1.91998
    A9        1.98055  -0.00000   0.00000  -0.00097  -0.00097   1.97958
   A10        1.90082  -0.00000   0.00000   0.00004   0.00004   1.90086
   A11        1.86290  -0.00001   0.00000  -0.00069  -0.00069   1.86221
   A12        1.88400   0.00002   0.00000   0.00103   0.00103   1.88504
   A13        1.88249   0.00001   0.00000   0.00671   0.00671   1.88920
   A14        1.87382  -0.00001   0.00000  -0.00756  -0.00756   1.86626
   A15        1.71286   0.00001   0.00000   0.00063   0.00063   1.71349
   A16        2.17190   0.00000   0.00000   0.00025   0.00025   2.17215
   A17        1.86640   0.00000   0.00000  -0.00200  -0.00201   1.86439
   A18        1.90166  -0.00001   0.00000   0.00219   0.00219   1.90384
   A19        1.92212  -0.00001   0.00000   0.00150   0.00150   1.92362
    D1        2.08098   0.00001   0.00000   0.19349   0.19349   2.27447
    D2       -2.11238   0.00001   0.00000   0.19388   0.19388  -1.91850
    D3       -0.00145   0.00003   0.00000   0.19616   0.19616   0.19471
    D4       -2.10750   0.00002   0.00000   0.19050   0.19050  -1.91700
    D5       -0.01769   0.00002   0.00000   0.19089   0.19090   0.17321
    D6        2.09325   0.00003   0.00000   0.19317   0.19318   2.28642
    D7       -0.01479   0.00002   0.00000   0.19116   0.19116   0.17636
    D8        2.07502   0.00002   0.00000   0.19155   0.19155   2.26658
    D9       -2.09723   0.00004   0.00000   0.19383   0.19383  -1.90339
   D10       -1.21761  -0.00001   0.00000  -0.05457  -0.05457  -1.27218
   D11        1.16173  -0.00001   0.00000  -0.05495  -0.05496   1.10677
   D12        3.13158  -0.00001   0.00000  -0.05449  -0.05449   3.07708
   D13        2.95323  -0.00000   0.00000  -0.05142  -0.05142   2.90181
   D14       -0.95062   0.00000   0.00000  -0.05181  -0.05181  -1.00243
   D15        1.01923  -0.00001   0.00000  -0.05135  -0.05135   0.96789
   D16        0.91220  -0.00000   0.00000  -0.05163  -0.05163   0.86057
   D17       -2.99165  -0.00000   0.00000  -0.05201  -0.05202  -3.04366
   D18       -1.02180  -0.00001   0.00000  -0.05155  -0.05156  -1.07335
   D19       -1.56581   0.00001   0.00000   0.01774   0.01774  -1.54807
   D20        2.77037  -0.00001   0.00000   0.01080   0.01080   2.78117
   D21        0.38169  -0.00001   0.00000   0.01035   0.01035   0.39204
         Item               Value     Threshold  Converged?
 Maximum Force            0.000035     0.000450     YES
 RMS     Force            0.000012     0.000300     YES
 Maximum Displacement     0.292077     0.001800     NO 
 RMS     Displacement     0.097816     0.001200     NO 
 Predicted change in Energy=-4.239378D-04
 Lowest energy point so far.  Saving SCF results.
 GradGradGradGradGradGradGradGradGradGradGradGradGradGradGradGradGradGrad

 Leave Link  103 at Fri May 23 03:34:50 2025, MaxMem=  3758096384 cpu:               0.0 elap:               0.0
 (Enter /apps/easybuild-2022/easybuild/software/Compiler/NVHPC/22.11-CUDA-11.7.0/Gaussian/g16c01-CUDA-11.7.0/g16/l202.exe)
                          Input orientation:                          
 ---------------------------------------------------------------------
 Center     Atomic      Atomic             Coordinates (Angstroms)
 Number     Number       Type             X           Y           Z
 ---------------------------------------------------------------------
      1          6           0       -1.295507   -0.529957    0.579676
      2          6           0       -0.409998    0.382073   -0.358660
      3          9           0       -0.682056    0.107951   -1.640147
      4          9           0       -0.673418    1.663472   -0.127129
      5         16           0        1.431944    0.118853   -0.130908
      6          8           0        1.815840    0.700965    1.114257
      7          8           0        1.711369   -1.237119   -0.514738
      8          8           0        1.947867    1.107105   -1.283953
      9          9           0       -0.543286   -1.120849    1.502368
     10          9           0       -2.210887    0.208425    1.189945
     11          9           0       -1.903600   -1.463607   -0.135994
     12          1           0        2.011875    0.634858   -2.124475
 ---------------------------------------------------------------------
                    Distance matrix (angstroms):
                    1          2          3          4          5
     1  C    0.000000
     2  C    1.580000   0.000000
     3  F    2.389741   1.338419   0.000000
     4  F    2.386985   1.328525   2.170010   0.000000
     5  S    2.892209   1.874541   2.597483   2.611209   0.000000
     6  O    3.388425   2.688034   3.765354   2.943444   1.427118
     7  O    3.277060   2.673264   2.967194   3.775033   1.436685
     8  O    4.083205   2.634647   2.835786   2.918720   1.603849
     9  F    1.329041   2.395822   3.377070   3.228720   2.847102
    10  F    1.324974   2.381499   3.218204   2.493122   3.875938
    11  F    1.324260   2.384736   2.494883   3.360365   3.691892
    12  H    4.428092   3.007901   2.787377   3.501177   2.139366
                    6          7          8          9         10
     6  O    0.000000
     7  O    2.533912   0.000000
     8  O    2.435938   2.478509   0.000000
     9  F    3.005846   3.027492   4.351231   0.000000
    10  F    4.057444   4.514381   4.921691   2.155335   0.000000
    11  F    4.481377   3.641806   4.770762   2.156889   2.155976
    12  H    3.245333   2.487137   0.966225   4.771304   5.385067
                   11         12
    11  F    0.000000
    12  H    4.867090   0.000000
 Symmetry turned off by external request.
 Stoichiometry    C2HF5O3S
 Rotational constants (GHZ):           1.5863594           0.8175872           0.7721139
 Leave Link  202 at Fri May 23 03:34:50 2025, MaxMem=  3758096384 cpu:               0.0 elap:               0.0
 (Enter /apps/easybuild-2022/easybuild/software/Compiler/NVHPC/22.11-CUDA-11.7.0/Gaussian/g16c01-CUDA-11.7.0/g16/l301.exe)
 Standard basis: 6-311++G(d,p) (5D, 7F)
 Ernie: Thresh=  0.10000D-02 Tol=  0.10000D-05 Strict=F.
   257 basis functions,   419 primitive gaussians,   268 cartesian basis functions
    49 alpha electrons       49 beta electrons
       nuclear repulsion energy       921.3680135651 Hartrees.
 IExCor= 4639 DFT=T Ex+Corr=wB97XD ExCW=0 ScaHFX=  1.000000
 ScaDFX=  1.000000  1.000000  1.000000  1.000000 ScalE2=  1.000000  1.000000
 IRadAn=      5 IRanWt=     -1 IRanGd=            0 ICorTp=0 IEmpDi=121
 HFx  wShort=  0.000000 wLong=  0.200000 cFull=  0.222036 cShort=  0.000000 cLong=  0.777964
 DFx  wShort=  0.000000 wLong=  0.200000 cFull=  0.000000 cShort=  0.000000 cLong=  1.000000
 NAtoms=   12 NActive=   12 NUniq=   12 SFac= 1.00D+00 NAtFMM=   60 NAOKFM=F Big=F
 Integral buffers will be    131072 words long.
 Raffenetti 2 integral format.
 Two-electron integral symmetry is turned off.
 R6Disp:  Grimme-D2 Dispersion energy=       -0.0055149216 Hartrees.
 Nuclear repulsion after empirical dispersion term =      921.3624986434 Hartrees.
 Leave Link  301 at Fri May 23 03:34:50 2025, MaxMem=  3758096384 cpu:               0.0 elap:               0.0
 (Enter /apps/easybuild-2022/easybuild/software/Compiler/NVHPC/22.11-CUDA-11.7.0/Gaussian/g16c01-CUDA-11.7.0/g16/l302.exe)
 NPDir=0 NMtPBC=     1 NCelOv=     1 NCel=       1 NClECP=     1 NCelD=      1
         NCelK=      1 NCelE2=     1 NClLst=     1 CellRange=     0.0.
 One-electron integrals computed using PRISM.
 NBasis=   257 RedAO= T EigKep=  6.16D-05  NBF=   257
 NBsUse=   257 1.00D-06 EigRej= -1.00D+00 NBFU=   257
 Precomputing XC quadrature grid using
 IXCGrd= 4 IRadAn=           5 IRanWt=          -1 IRanGd=           0 AccXCQ= 0.00D+00.
 Generated NRdTot=       0 NPtTot=           0 NUsed=           0 NTot=          32
 NSgBfM=   268   268   268   268   268 MxSgAt=    12 MxSgA2=    12.
 Leave Link  302 at Fri May 23 03:34:50 2025, MaxMem=  3758096384 cpu:               0.5 elap:               0.1
 (Enter /apps/easybuild-2022/easybuild/software/Compiler/NVHPC/22.11-CUDA-11.7.0/Gaussian/g16c01-CUDA-11.7.0/g16/l303.exe)
 DipDrv:  MaxL=1.
 Leave Link  303 at Fri May 23 03:34:50 2025, MaxMem=  3758096384 cpu:               0.1 elap:               0.0
 (Enter /apps/easybuild-2022/easybuild/software/Compiler/NVHPC/22.11-CUDA-11.7.0/Gaussian/g16c01-CUDA-11.7.0/g16/l401.exe)
 Initial guess from the checkpoint file:  "2003846667223680600001_r12_insertion_R_2_5_8_IRC_R_prod.chk"
 B after Tr=     0.005877    0.001616    0.002236
         Rot=    0.999998   -0.001057    0.001831   -0.000529 Ang=  -0.25 deg.
 Guess basis will be translated and rotated to current coordinates.
 JPrj=2 DoOrth=T DoCkMO=T.
 Generating alternative initial guess.
 ExpMin= 3.60D-02 ExpMax= 9.34D+04 ExpMxC= 3.17D+03 IAcc=3 IRadAn=         5 AccDes= 0.00D+00
 Harris functional with IExCor= 4639 and IRadAn=       5 diagonalized for initial guess.
 HarFok:  IExCor= 4639 AccDes= 0.00D+00 IRadAn=         5 IDoV= 1 UseB2=F ITyADJ=14
 ICtDFT=  3500011 ScaDFX=  1.000000  1.000000  1.000000  1.000000
 FoFCou: FMM=F IPFlag=           0 FMFlag=      100000 FMFlg1=           0
         NFxFlg=           0 DoJE=T BraDBF=F KetDBF=T FulRan=T
         wScrn=  0.000000 ICntrl=       500 IOpCl=  0 I1Cent=   200000004 NGrid=           0
         NMat0=    1 NMatS0=      1 NMatT0=    0 NMatD0=    1 NMtDS0=    0 NMtDT0=    0
 Symmetry not used in FoFCou.
 Harris En= -1167.10006834570    
 Leave Link  401 at Fri May 23 03:34:50 2025, MaxMem=  3758096384 cpu:               2.7 elap:               0.4
 (Enter /apps/easybuild-2022/easybuild/software/Compiler/NVHPC/22.11-CUDA-11.7.0/Gaussian/g16c01-CUDA-11.7.0/g16/l502.exe)
 Keep R1 ints in memory in canonical form, NReq=1117474609.
 FoFCou: FMM=F IPFlag=           0 FMFlag=           0 FMFlg1=           0
         NFxFlg=           0 DoJE=F BraDBF=F KetDBF=F FulRan=T
         wScrn=  0.000000 ICntrl=       600 IOpCl=  0 I1Cent=           0 NGrid=           0
         NMat0=    1 NMatS0=  33153 NMatT0=    0 NMatD0=    1 NMtDS0=    0 NMtDT0=    0
 Symmetry not used in FoFCou.
 Two-electron integral symmetry not used.
 Closed shell SCF:
 Using DIIS extrapolation, IDIIS=  1040.
 NGot=  3758096384 LenX=  2658793876 LenY=  2658721611
 Requested convergence on RMS density matrix=1.00D-08 within  32 cycles.
 Requested convergence on MAX density matrix=1.00D-06.
 Requested convergence on             energy=1.00D-06.
 No special actions if energy rises.

 Cycle   1  Pass 1  IDiag  1:
 E= -1199.78451836065    
 DIIS: error= 7.00D-03 at cycle   1 NSaved=   1.
 NSaved= 1 IEnMin= 1 EnMin= -1199.78451836065     IErMin= 1 ErrMin= 7.00D-03
 ErrMax= 7.00D-03  0.00D+00 EMaxC= 1.00D-01 BMatC= 2.50D-02 BMatP= 2.50D-02
 IDIUse=3 WtCom= 9.30D-01 WtEn= 7.00D-02
 Coeff-Com:  0.100D+01
 Coeff-En:   0.100D+01
 Coeff:      0.100D+01
 Gap=     0.744 Goal=   None    Shift=    0.000
 GapD=    0.744 DampG=2.000 DampE=1.000 DampFc=2.0000 IDamp=-1.
 RMSDP=1.48D-03 MaxDP=4.70D-02              OVMax= 4.36D-02

 Cycle   2  Pass 1  IDiag  1:
 E= -1199.82062363713     Delta-E=       -0.036105276482 Rises=F Damp=F
 DIIS: error= 1.90D-03 at cycle   2 NSaved=   2.
 NSaved= 2 IEnMin= 2 EnMin= -1199.82062363713     IErMin= 2 ErrMin= 1.90D-03
 ErrMax= 1.90D-03  0.00D+00 EMaxC= 1.00D-01 BMatC= 1.05D-03 BMatP= 2.50D-02
 IDIUse=3 WtCom= 9.81D-01 WtEn= 1.90D-02
 Coeff-Com: -0.156D+00 0.116D+01
 Coeff-En:   0.000D+00 0.100D+01
 Coeff:     -0.153D+00 0.115D+01
 Gap=     0.467 Goal=   None    Shift=    0.000
 RMSDP=2.61D-04 MaxDP=5.05D-03 DE=-3.61D-02 OVMax= 1.23D-02

 Cycle   3  Pass 1  IDiag  1:
 E= -1199.82225158528     Delta-E=       -0.001627948150 Rises=F Damp=F
 DIIS: error= 1.45D-03 at cycle   3 NSaved=   3.
 NSaved= 3 IEnMin= 3 EnMin= -1199.82225158528     IErMin= 3 ErrMin= 1.45D-03
 ErrMax= 1.45D-03  0.00D+00 EMaxC= 1.00D-01 BMatC= 3.64D-04 BMatP= 1.05D-03
 IDIUse=3 WtCom= 9.86D-01 WtEn= 1.45D-02
 Coeff-Com: -0.862D-01 0.494D+00 0.593D+00
 Coeff-En:   0.000D+00 0.000D+00 0.100D+01
 Coeff:     -0.850D-01 0.487D+00 0.598D+00
 Gap=     0.467 Goal=   None    Shift=    0.000
 RMSDP=9.68D-05 MaxDP=5.26D-03 DE=-1.63D-03 OVMax= 2.67D-03

 Cycle   4  Pass 1  IDiag  1:
 E= -1199.82245039493     Delta-E=       -0.000198809650 Rises=F Damp=F
 DIIS: error= 3.84D-04 at cycle   4 NSaved=   4.
 NSaved= 4 IEnMin= 4 EnMin= -1199.82245039493     IErMin= 4 ErrMin= 3.84D-04
 ErrMax= 3.84D-04  0.00D+00 EMaxC= 1.00D-01 BMatC= 3.99D-05 BMatP= 3.64D-04
 IDIUse=3 WtCom= 9.96D-01 WtEn= 3.84D-03
 Coeff-Com:  0.644D-03-0.415D-01 0.228D+00 0.813D+00
 Coeff-En:   0.000D+00 0.000D+00 0.000D+00 0.100D+01
 Coeff:      0.641D-03-0.414D-01 0.227D+00 0.814D+00
 Gap=     0.467 Goal=   None    Shift=    0.000
 RMSDP=4.25D-05 MaxDP=2.40D-03 DE=-1.99D-04 OVMax= 1.30D-03

 Cycle   5  Pass 1  IDiag  1:
 E= -1199.82247636502     Delta-E=       -0.000025970091 Rises=F Damp=F
 DIIS: error= 1.19D-04 at cycle   5 NSaved=   5.
 NSaved= 5 IEnMin= 5 EnMin= -1199.82247636502     IErMin= 5 ErrMin= 1.19D-04
 ErrMax= 1.19D-04  0.00D+00 EMaxC= 1.00D-01 BMatC= 5.56D-06 BMatP= 3.99D-05
 IDIUse=3 WtCom= 9.99D-01 WtEn= 1.19D-03
 Coeff-Com:  0.457D-02-0.482D-01 0.949D-01 0.449D+00 0.499D+00
 Coeff-En:   0.000D+00 0.000D+00 0.000D+00 0.000D+00 0.100D+01
 Coeff:      0.457D-02-0.481D-01 0.948D-01 0.449D+00 0.500D+00
 Gap=     0.467 Goal=   None    Shift=    0.000
 RMSDP=1.51D-05 MaxDP=9.54D-04 DE=-2.60D-05 OVMax= 5.25D-04

 Cycle   6  Pass 1  IDiag  1:
 E= -1199.82248007387     Delta-E=       -0.000003708855 Rises=F Damp=F
 DIIS: error= 1.98D-05 at cycle   6 NSaved=   6.
 NSaved= 6 IEnMin= 6 EnMin= -1199.82248007387     IErMin= 6 ErrMin= 1.98D-05
 ErrMax= 1.98D-05  0.00D+00 EMaxC= 1.00D-01 BMatC= 1.95D-07 BMatP= 5.56D-06
 IDIUse=1 WtCom= 1.00D+00 WtEn= 0.00D+00
 Coeff-Com:  0.165D-02-0.127D-01-0.470D-02 0.327D-01 0.159D+00 0.824D+00
 Coeff:      0.165D-02-0.127D-01-0.470D-02 0.327D-01 0.159D+00 0.824D+00
 Gap=     0.467 Goal=   None    Shift=    0.000
 RMSDP=3.74D-06 MaxDP=9.27D-05 DE=-3.71D-06 OVMax= 1.29D-04

 Cycle   7  Pass 1  IDiag  1:
 E= -1199.82248024873     Delta-E=       -0.000000174857 Rises=F Damp=F
 DIIS: error= 7.15D-06 at cycle   7 NSaved=   7.
 NSaved= 7 IEnMin= 7 EnMin= -1199.82248024873     IErMin= 7 ErrMin= 7.15D-06
 ErrMax= 7.15D-06  0.00D+00 EMaxC= 1.00D-01 BMatC= 2.15D-08 BMatP= 1.95D-07
 IDIUse=1 WtCom= 1.00D+00 WtEn= 0.00D+00
 Coeff-Com:  0.431D-03-0.249D-02-0.691D-02-0.114D-01 0.347D-01 0.325D+00
 Coeff-Com:  0.661D+00
 Coeff:      0.431D-03-0.249D-02-0.691D-02-0.114D-01 0.347D-01 0.325D+00
 Coeff:      0.661D+00
 Gap=     0.467 Goal=   None    Shift=    0.000
 RMSDP=1.51D-06 MaxDP=1.04D-04 DE=-1.75D-07 OVMax= 4.30D-05

 Cycle   8  Pass 1  IDiag  1:
 E= -1199.82248026549     Delta-E=       -0.000000016758 Rises=F Damp=F
 DIIS: error= 2.85D-06 at cycle   8 NSaved=   8.
 NSaved= 8 IEnMin= 8 EnMin= -1199.82248026549     IErMin= 8 ErrMin= 2.85D-06
 ErrMax= 2.85D-06  0.00D+00 EMaxC= 1.00D-01 BMatC= 4.11D-09 BMatP= 2.15D-08
 IDIUse=1 WtCom= 1.00D+00 WtEn= 0.00D+00
 Coeff-Com: -0.159D-03 0.163D-02-0.133D-02-0.100D-01-0.193D-01-0.469D-01
 Coeff-Com:  0.294D+00 0.783D+00
 Coeff:     -0.159D-03 0.163D-02-0.133D-02-0.100D-01-0.193D-01-0.469D-01
 Coeff:      0.294D+00 0.783D+00
 Gap=     0.467 Goal=   None    Shift=    0.000
 RMSDP=6.15D-07 MaxDP=1.83D-05 DE=-1.68D-08 OVMax= 2.16D-05

 Cycle   9  Pass 1  IDiag  1:
 E= -1199.82248026931     Delta-E=       -0.000000003820 Rises=F Damp=F
 DIIS: error= 9.21D-07 at cycle   9 NSaved=   9.
 NSaved= 9 IEnMin= 9 EnMin= -1199.82248026931     IErMin= 9 ErrMin= 9.21D-07
 ErrMax= 9.21D-07  0.00D+00 EMaxC= 1.00D-01 BMatC= 2.66D-10 BMatP= 4.11D-09
 IDIUse=1 WtCom= 1.00D+00 WtEn= 0.00D+00
 Coeff-Com: -0.848D-04 0.768D-03-0.150D-03-0.326D-02-0.949D-02-0.364D-01
 Coeff-Com:  0.810D-01 0.303D+00 0.664D+00
 Coeff:     -0.848D-04 0.768D-03-0.150D-03-0.326D-02-0.949D-02-0.364D-01
 Coeff:      0.810D-01 0.303D+00 0.664D+00
 Gap=     0.467 Goal=   None    Shift=    0.000
 RMSDP=1.79D-07 MaxDP=1.10D-05 DE=-3.82D-09 OVMax= 5.80D-06

 Cycle  10  Pass 1  IDiag  1:
 E= -1199.82248026952     Delta-E=       -0.000000000216 Rises=F Damp=F
 DIIS: error= 3.60D-07 at cycle  10 NSaved=  10.
 NSaved=10 IEnMin=10 EnMin= -1199.82248026952     IErMin=10 ErrMin= 3.60D-07
 ErrMax= 3.60D-07  0.00D+00 EMaxC= 1.00D-01 BMatC= 5.03D-11 BMatP= 2.66D-10
 IDIUse=1 WtCom= 1.00D+00 WtEn= 0.00D+00
 Coeff-Com: -0.424D-06-0.435D-04 0.239D-03 0.879D-03 0.231D-03-0.551D-02
 Coeff-Com: -0.329D-01-0.489D-01 0.280D+00 0.806D+00
 Coeff:     -0.424D-06-0.435D-04 0.239D-03 0.879D-03 0.231D-03-0.551D-02
 Coeff:     -0.329D-01-0.489D-01 0.280D+00 0.806D+00
 Gap=     0.467 Goal=   None    Shift=    0.000
 RMSDP=9.79D-08 MaxDP=3.16D-06 DE=-2.16D-10 OVMax= 3.44D-06

 Cycle  11  Pass 1  IDiag  1:
 E= -1199.82248026965     Delta-E=       -0.000000000127 Rises=F Damp=F
 DIIS: error= 9.70D-08 at cycle  11 NSaved=  11.
 NSaved=11 IEnMin=11 EnMin= -1199.82248026965     IErMin=11 ErrMin= 9.70D-08
 ErrMax= 9.70D-08  0.00D+00 EMaxC= 1.00D-01 BMatC= 6.15D-12 BMatP= 5.03D-11
 IDIUse=1 WtCom= 1.00D+00 WtEn= 0.00D+00
 Coeff-Com:  0.815D-05-0.953D-04 0.119D-03 0.700D-03 0.104D-02 0.121D-02
 Coeff-Com: -0.228D-01-0.513D-01 0.580D-01 0.356D+00 0.657D+00
 Coeff:      0.815D-05-0.953D-04 0.119D-03 0.700D-03 0.104D-02 0.121D-02
 Coeff:     -0.228D-01-0.513D-01 0.580D-01 0.356D+00 0.657D+00
 Gap=     0.467 Goal=   None    Shift=    0.000
 RMSDP=2.73D-08 MaxDP=1.31D-06 DE=-1.27D-10 OVMax= 9.64D-07

 Cycle  12  Pass 1  IDiag  1:
 E= -1199.82248026963     Delta-E=        0.000000000026 Rises=F Damp=F
 DIIS: error= 2.63D-08 at cycle  12 NSaved=  12.
 NSaved=12 IEnMin=11 EnMin= -1199.82248026965     IErMin=12 ErrMin= 2.63D-08
 ErrMax= 2.63D-08  0.00D+00 EMaxC= 1.00D-01 BMatC= 2.54D-13 BMatP= 6.15D-12
 IDIUse=1 WtCom= 1.00D+00 WtEn= 0.00D+00
 Coeff-Com:  0.146D-05-0.120D-04-0.633D-05 0.299D-04 0.172D-03 0.879D-03
 Coeff-Com: -0.587D-03-0.425D-02-0.178D-01-0.188D-01 0.119D+00 0.921D+00
 Coeff:      0.146D-05-0.120D-04-0.633D-05 0.299D-04 0.172D-03 0.879D-03
 Coeff:     -0.587D-03-0.425D-02-0.178D-01-0.188D-01 0.119D+00 0.921D+00
 Gap=     0.467 Goal=   None    Shift=    0.000
 RMSDP=1.12D-08 MaxDP=3.43D-07 DE= 2.64D-11 OVMax= 3.08D-07

 Cycle  13  Pass 1  IDiag  1:
 E= -1199.82248026966     Delta-E=       -0.000000000037 Rises=F Damp=F
 DIIS: error= 1.09D-08 at cycle  13 NSaved=  13.
 NSaved=13 IEnMin=13 EnMin= -1199.82248026966     IErMin=13 ErrMin= 1.09D-08
 ErrMax= 1.09D-08  0.00D+00 EMaxC= 1.00D-01 BMatC= 5.38D-14 BMatP= 2.54D-13
 IDIUse=1 WtCom= 1.00D+00 WtEn= 0.00D+00
 Coeff-Com: -0.371D-06 0.605D-05-0.164D-04-0.662D-04-0.431D-04 0.241D-03
 Coeff-Com:  0.224D-02 0.377D-02-0.138D-01-0.457D-01-0.238D-01 0.362D+00
 Coeff-Com:  0.715D+00
 Coeff:     -0.371D-06 0.605D-05-0.164D-04-0.662D-04-0.431D-04 0.241D-03
 Coeff:      0.224D-02 0.377D-02-0.138D-01-0.457D-01-0.238D-01 0.362D+00
 Coeff:      0.715D+00
 Gap=     0.467 Goal=   None    Shift=    0.000
 RMSDP=3.13D-09 MaxDP=9.43D-08 DE=-3.73D-11 OVMax= 8.21D-08

 SCF Done:  E(RwB97XD) =  -1199.82248027     A.U. after   13 cycles
            NFock= 13  Conv=0.31D-08     -V/T= 2.0020
 KE= 1.197416657902D+03 PE=-4.689365821591D+03 EE= 1.370764184776D+03
 Leave Link  502 at Fri May 23 03:35:02 2025, MaxMem=  3758096384 cpu:              60.8 elap:              12.0
 (Enter /apps/easybuild-2022/easybuild/software/Compiler/NVHPC/22.11-CUDA-11.7.0/Gaussian/g16c01-CUDA-11.7.0/g16/l508.exe)
 QCSCF skips out because SCF is already converged.
 Leave Link  508 at Fri May 23 03:35:02 2025, MaxMem=  3758096384 cpu:               0.0 elap:               0.0
 (Enter /apps/easybuild-2022/easybuild/software/Compiler/NVHPC/22.11-CUDA-11.7.0/Gaussian/g16c01-CUDA-11.7.0/g16/l701.exe)
 ... and contract with generalized density number  0.
 Compute integral first derivatives.
 R6Disp: Adding Grimme-D2 dispersion energy 1st derivatives to the gradient.
 Leave Link  701 at Fri May 23 03:35:03 2025, MaxMem=  3758096384 cpu:               0.3 elap:               0.1
 (Enter /apps/easybuild-2022/easybuild/software/Compiler/NVHPC/22.11-CUDA-11.7.0/Gaussian/g16c01-CUDA-11.7.0/g16/l702.exe)
 L702 exits ... SP integral derivatives will be done elsewhere.
 Leave Link  702 at Fri May 23 03:35:03 2025, MaxMem=  3758096384 cpu:               0.0 elap:               0.0
 (Enter /apps/easybuild-2022/easybuild/software/Compiler/NVHPC/22.11-CUDA-11.7.0/Gaussian/g16c01-CUDA-11.7.0/g16/l703.exe)
 Integral derivatives from FoFJK, PRISM(SPDF).
 Compute integral first derivatives, UseDBF=F ICtDFT=           0.
 Calling FoFJK, ICntrl=      2127 FMM=F ISym2X=0 I1Cent= 0 IOpClX= 0 NMat=1 NMatS=1 NMatT=0.
 FoFJK:  IHMeth= 1 ICntrl=    2127 DoSepK=T KAlg= 0 I1Cent=           0 FoldK=F
 IRaf=         1 NMat=       1 IRICut=       1 DoRegI=T DoRafI=F ISym2E= 0 IDoP0=0 IntGTp=1.
 FoFCou: FMM=F IPFlag=           0 FMFlag=      100000 FMFlg1=         800
         NFxFlg=           0 DoJE=F BraDBF=F KetDBF=F FulRan=T
         wScrn=  0.000000 ICntrl=      2527 IOpCl=  0 I1Cent=           0 NGrid=           0
         NMat0=    1 NMatS0=      1 NMatT0=    0 NMatD0=    1 NMtDS0=    0 NMtDT0=    0
 Symmetry not used in FoFCou.
 Leave Link  703 at Fri May 23 03:35:07 2025, MaxMem=  3758096384 cpu:              35.2 elap:               4.5
 (Enter /apps/easybuild-2022/easybuild/software/Compiler/NVHPC/22.11-CUDA-11.7.0/Gaussian/g16c01-CUDA-11.7.0/g16/l716.exe)
 Dipole        =-2.45257142D-01 1.55241677D-01-1.03851567D+00
 -------------------------------------------------------------------
 Center     Atomic                   Forces (Hartrees/Bohr)
 Number     Number              X              Y              Z
 -------------------------------------------------------------------
      1        6           0.000499188    0.000139203   -0.000269740
      2        6          -0.000245864   -0.000423377    0.000301310
      3        9          -0.000576429    0.000311380    0.000005693
      4        9           0.000103925   -0.000028702    0.000700815
      5       16          -0.000150322   -0.000298639   -0.000296597
      6        8           0.000027550   -0.000006605   -0.000024316
      7        8           0.000004892   -0.000087091    0.000205239
      8        8           0.000073669   -0.000107534   -0.000047228
      9        9           0.000100848    0.000543291    0.000236075
     10        9          -0.000325448    0.000191686   -0.000568042
     11        9           0.000530828   -0.000253522   -0.000223290
     12        1          -0.000042838    0.000019911   -0.000019916
 -------------------------------------------------------------------
 Cartesian Forces:  Max     0.000700815 RMS     0.000293394
 Leave Link  716 at Fri May 23 03:35:07 2025, MaxMem=  3758096384 cpu:               0.0 elap:               0.0
 (Enter /apps/easybuild-2022/easybuild/software/Compiler/NVHPC/22.11-CUDA-11.7.0/Gaussian/g16c01-CUDA-11.7.0/g16/l103.exe)

 GradGradGradGradGradGradGradGradGradGradGradGradGradGradGradGradGradGrad
 Berny optimization.
 Using GEDIIS/GDIIS optimizer.
 FormGI is forming the generalized inverse of G from B-inverse, IUseBI=4.
 Internal  Forces:  Max     0.001297690 RMS     0.000310414
 Search for a local minimum.
 Step number   2 out of a maximum of   61
 All quantities printed in internal units (Hartrees-Bohrs-Radians)
 RMS Force = .31041D-03 SwitMx=.10000D-02 MixMth= 2
 Mixed Optimization -- En-DIIS/RFO-DIIS
 Swapping is turned off.
 Update second derivatives using D2CorX and points    1    2
 ITU=  0  0
     Eigenvalues ---   -0.00219   0.00403   0.00637   0.04993   0.08602
     Eigenvalues ---    0.09747   0.10646   0.11107   0.11619   0.12611
     Eigenvalues ---    0.12785   0.16008   0.18277   0.19283   0.19597
     Eigenvalues ---    0.21620   0.23755   0.27201   0.27283   0.29660
     Eigenvalues ---    0.32321   0.37243   0.38790   0.39136   0.41467
     Eigenvalues ---    0.48624   0.52945   0.57038   0.68427   0.71506
 Eigenvalue     1 is  -2.19D-03 should be greater than     0.000000 Eigenvector:
                          D3        D9        D6        D2        D1
   1                    0.32803   0.32396   0.32390   0.32362   0.32335
                          D8        D5        D7        D4        D11
   1                    0.31954   0.31949   0.31928   0.31923  -0.08859
 Use linear search instead of GDIIS.
 RFO step:  Lambda=-2.85877950D-03 EMin=-2.18938953D-03
 Skip linear search -- no minimum in search direction.
 Iteration  1 RMS(Cart)=  0.10254276 RMS(Int)=  0.01935401
 Iteration  2 RMS(Cart)=  0.02374662 RMS(Int)=  0.00038494
 Iteration  3 RMS(Cart)=  0.00040486 RMS(Int)=  0.00000523
 Iteration  4 RMS(Cart)=  0.00000010 RMS(Int)=  0.00000523
 ITry= 1 IFail=0 DXMaxC= 4.01D-01 DCOld= 1.00D+10 DXMaxT= 3.00D-01 DXLimC= 3.00D+00 Rises=F
 Variable       Old X    -DE/DX   Delta X   Delta X   Delta X     New X
                                 (Linear)    (Quad)   (Total)
    R1        2.98577  -0.00130   0.00000  -0.00880  -0.00880   2.97697
    R2        2.51152  -0.00002   0.00000  -0.00020  -0.00020   2.51132
    R3        2.50384   0.00007   0.00000   0.00221   0.00221   2.50605
    R4        2.50249   0.00006   0.00000  -0.00115  -0.00115   2.50134
    R5        2.52925   0.00005   0.00000   0.00173   0.00173   2.53098
    R6        2.51055   0.00007   0.00000  -0.00066  -0.00066   2.50989
    R7        3.54237  -0.00004   0.00000  -0.00109  -0.00109   3.54128
    R8        2.69686  -0.00002   0.00000  -0.00117  -0.00117   2.69569
    R9        2.71494   0.00003   0.00000   0.00106   0.00106   2.71600
   R10        3.03084   0.00001   0.00000  -0.00055  -0.00055   3.03029
   R11        1.82590   0.00001   0.00000   0.00005   0.00005   1.82595
    A1        1.93022  -0.00023   0.00000  -0.00089  -0.00090   1.92933
    A2        1.91670  -0.00039   0.00000  -0.00297  -0.00298   1.91373
    A3        1.92130  -0.00043   0.00000   0.00063   0.00063   1.92194
    A4        1.89549   0.00036   0.00000  -0.00009  -0.00010   1.89540
    A5        1.89825   0.00036   0.00000   0.00266   0.00266   1.90091
    A6        1.90136   0.00037   0.00000   0.00073   0.00073   1.90209
    A7        1.91397  -0.00011   0.00000  -0.00321  -0.00322   1.91075
    A8        1.91998  -0.00016   0.00000   0.00137   0.00138   1.92136
    A9        1.97958  -0.00032   0.00000  -0.00430  -0.00430   1.97528
   A10        1.90086   0.00004   0.00000   0.00090   0.00090   1.90176
   A11        1.86221   0.00023   0.00000   0.00090   0.00088   1.86309
   A12        1.88504   0.00034   0.00000   0.00457   0.00457   1.88961
   A13        1.88920   0.00002   0.00000   0.00835   0.00836   1.89756
   A14        1.86626  -0.00001   0.00000  -0.00972  -0.00971   1.85655
   A15        1.71349   0.00006   0.00000   0.00205   0.00204   1.71554
   A16        2.17215  -0.00009   0.00000  -0.00120  -0.00119   2.17096
   A17        1.86439   0.00003   0.00000  -0.00191  -0.00193   1.86247
   A18        1.90384   0.00003   0.00000   0.00335   0.00335   1.90720
[...]
   D17        3.13743   0.00001   0.00000   0.00010   0.00010   3.13753
   D18       -1.16904   0.00001   0.00000   0.00010   0.00010  -1.16895
   D19       -1.52828  -0.00001   0.00000  -0.00005  -0.00005  -1.52834
   D20        2.80127   0.00000   0.00000   0.00007   0.00007   2.80133
   D21        0.41854   0.00001   0.00000   0.00009   0.00009   0.41864
         Item               Value     Threshold  Converged?
 Maximum Force            0.000047     0.000450     YES
 RMS     Force            0.000011     0.000300     YES
 Maximum Displacement     0.001039     0.001800     YES
 RMS     Displacement     0.000303     0.001200     YES
 Predicted change in Energy=-2.267519D-08
 Optimization completed.
    -- Stationary point found.
                           ----------------------------
                           !   Optimized Parameters   !
                           ! (Angstroms and Degrees)  !
 --------------------------                            --------------------------
 ! Name  Definition              Value          Derivative Info.                !
 --------------------------------------------------------------------------------
 ! R1    R(1,2)                  1.5553         -DE/DX =    0.0                 !
 ! R2    R(1,9)                  1.327          -DE/DX =    0.0                 !
 ! R3    R(1,10)                 1.3293         -DE/DX =    0.0                 !
 ! R4    R(1,11)                 1.3243         -DE/DX =    0.0                 !
 ! R5    R(2,3)                  1.3405         -DE/DX =    0.0                 !
 ! R6    R(2,4)                  1.3302         -DE/DX =    0.0                 !
 ! R7    R(2,5)                  1.8759         -DE/DX =    0.0                 !
 ! R8    R(5,6)                  1.4266         -DE/DX =    0.0                 !
 ! R9    R(5,7)                  1.4362         -DE/DX =    0.0                 !
 ! R10   R(5,8)                  1.603          -DE/DX =    0.0                 !
 ! R11   R(8,12)                 0.9663         -DE/DX =    0.0                 !
 ! A1    A(2,1,9)              110.1473         -DE/DX =    0.0                 !
 ! A2    A(2,1,10)             108.7631         -DE/DX =    0.0                 !
 ! A3    A(2,1,11)             110.6444         -DE/DX =    0.0                 !
 ! A4    A(9,1,10)             109.0105         -DE/DX =    0.0                 !
 ! A5    A(9,1,11)             109.355          -DE/DX =    0.0                 !
 ! A6    A(10,1,11)            108.8873         -DE/DX =    0.0                 !
 ! A7    A(1,2,3)              108.8369         -DE/DX =    0.0                 !
 ! A8    A(1,2,4)              109.2553         -DE/DX =    0.0                 !
 ! A9    A(1,2,5)              113.9142         -DE/DX =    0.0                 !
 ! A10   A(3,2,4)              109.3147         -DE/DX =    0.0                 !
 ! A11   A(3,2,5)              107.312          -DE/DX =    0.0                 !
 ! A12   A(4,2,5)              108.1216         -DE/DX =    0.0                 !
 ! A13   A(2,5,6)              108.1953         -DE/DX =    0.0                 !
 ! A14   A(2,5,7)              107.19           -DE/DX =    0.0                 !
 ! A15   A(2,5,8)               98.236          -DE/DX =    0.0                 !
 ! A16   A(6,5,7)              124.0049         -DE/DX =    0.0                 !
 ! A17   A(6,5,8)              106.8619         -DE/DX =    0.0                 !
 ! A18   A(7,5,8)              109.3292         -DE/DX =    0.0                 !
 ! A19   A(5,8,12)             110.4093         -DE/DX =    0.0                 !
 ! D1    D(9,1,2,3)            173.0948         -DE/DX =    0.0                 !
 ! D2    D(9,1,2,4)            -67.6072         -DE/DX =    0.0                 !
 ! D3    D(9,1,2,5)             53.4107         -DE/DX =    0.0                 !
 ! D4    D(10,1,2,3)           -67.4936         -DE/DX =    0.0                 !
 ! D5    D(10,1,2,4)            51.8044         -DE/DX =    0.0                 !
 ! D6    D(10,1,2,5)           172.8223         -DE/DX =    0.0                 !
 ! D7    D(11,1,2,3)            52.0657         -DE/DX =    0.0                 !
 ! D8    D(11,1,2,4)           171.3637         -DE/DX =    0.0                 !
 ! D9    D(11,1,2,5)           -67.6184         -DE/DX =    0.0                 !
 ! D10   D(1,2,5,6)            -77.7686         -DE/DX =    0.0                 !
 ! D11   D(1,2,5,7)             58.1137         -DE/DX =    0.0                 !
 ! D12   D(1,2,5,8)            171.371          -DE/DX =    0.0                 !
 ! D13   D(3,2,5,6)            161.6892         -DE/DX =    0.0                 !
 ! D14   D(3,2,5,7)            -62.4285         -DE/DX =    0.0                 !
 ! D15   D(3,2,5,8)             50.8288         -DE/DX =    0.0                 !
 ! D16   D(4,2,5,6)             43.8792         -DE/DX =    0.0                 !
 ! D17   D(4,2,5,7)            179.7615         -DE/DX =    0.0                 !
 ! D18   D(4,2,5,8)            -66.9811         -DE/DX =    0.0                 !
 ! D19   D(2,5,8,12)           -87.5641         -DE/DX =    0.0                 !
 ! D20   D(6,5,8,12)           160.5007         -DE/DX =    0.0                 !
 ! D21   D(7,5,8,12)            23.9808         -DE/DX =    0.0                 !
 --------------------------------------------------------------------------------
 GradGradGradGradGradGradGradGradGradGradGradGradGradGradGradGradGradGrad

 Leave Link  103 at Fri May 23 03:38:54 2025, MaxMem=  3758096384 cpu:               0.0 elap:               0.0
 (Enter /apps/easybuild-2022/easybuild/software/Compiler/NVHPC/22.11-CUDA-11.7.0/Gaussian/g16c01-CUDA-11.7.0/g16/l9999.exe)

 ----------------------------------------------------------------------

 Electric dipole moment (input orientation):
 (Debye = 10**-18 statcoulomb cm , SI units = C m)
                  (au)            (Debye)         (10**-30 SI)
   Tot        0.107904D+01      0.274266D+01      0.914851D+01
   x         -0.283545D+00     -0.720700D+00     -0.240400D+01
   y          0.232165D+00      0.590103D+00      0.196837D+01
   z         -0.101491D+01     -0.257964D+01     -0.860474D+01

 Dipole polarizability, Alpha (input orientation).
 (esu units = cm**3 , SI units = C**2 m**2 J**-1)
 Alpha(0;0):
               (au)            (10**-24 esu)      (10**-40 SI)
   iso        0.557014D+02      0.825410D+01      0.918393D+01
   aniso      0.561197D+01      0.831608D+00      0.925289D+00
   xx         0.586654D+02      0.869332D+01      0.967263D+01
   yx         0.909170D-01      0.134725D-01      0.149902D-01
   yy         0.531954D+02      0.788275D+01      0.877074D+01
   zx        -0.845940D+00     -0.125355D+00     -0.139477D+00
   zy         0.146169D+01      0.216600D+00      0.241000D+00
   zz         0.552435D+02      0.818624D+01      0.910842D+01

 ----------------------------------------------------------------------

 Dipole orientation:
     6         -2.64633739          0.77959718         -0.61134595
     6         -0.55520505         -0.70442107          0.82501962
     9         -0.63140032         -0.06129426          3.27399374
     9         -0.98532983         -3.17068539          0.59932085
    16          2.72885376         -0.04709608         -0.33656165
     8          3.10443059         -1.42463851         -2.62328016
     8          3.14883961          2.62262347         -0.08634875
     8          4.25696240         -1.51003018          1.83160459
     9         -2.43622872          0.39629660         -3.08059097
     9         -4.89259750         -0.04248066          0.15613829
     9         -2.47449760          3.23033008         -0.13486815
     1          4.55951510         -0.40511007          3.25355865

 Electric dipole moment (dipole orientation):
 (Debye = 10**-18 statcoulomb cm , SI units = C m)
                  (au)            (Debye)         (10**-30 SI)
   Tot        0.107904D+01      0.274266D+01      0.914851D+01
   x          0.000000D+00      0.000000D+00      0.000000D+00
   y          0.000000D+00      0.000000D+00      0.000000D+00
   z          0.107904D+01      0.274266D+01      0.914851D+01

 Dipole polarizability, Alpha (dipole orientation).
 (esu units = cm**3 , SI units = C**2 m**2 J**-1)
 Alpha(0;0):
               (au)            (10**-24 esu)      (10**-40 SI)
   iso        0.557014D+02      0.825410D+01      0.918393D+01
   aniso      0.561197D+01      0.831608D+00      0.925289D+00
   xx         0.588360D+02      0.871860D+01      0.970075D+01
   yx         0.411255D+00      0.609418D-01      0.678069D-01
   yy         0.539034D+02      0.798766D+01      0.888747D+01
   zx        -0.275642D+00     -0.408459D-01     -0.454472D-01
   zy         0.168243D+01      0.249311D+00      0.277396D+00
   zz         0.543649D+02      0.805605D+01      0.896356D+01

 ----------------------------------------------------------------------
 Unable to Open any file for archive entry.
 1\1\GINC-SPARTAN-BM144\Freq\RwB97XD\6-311++G(d,p)\C2H1F5O3S1\AKHALILOV
 \23-May-2025\0\\#P Geom=AllCheck Guess=TCheck SCRF=Check GenChk RwB97X
 D/6-311++G(d,p) Freq\\Gaussian input prepared by ASE\\0,1\C,-1.2775612
 656,-0.5131092693,0.5835037539\C,-0.3872096879,0.4492451853,-0.2532254
 231\F,-0.776551455,0.3946928115,-1.5347673946\F,-0.5373148748,1.690873
 8932,0.1997213023\S,1.4401905623,0.0280799738,-0.2065817605\O,1.971081
 5251,0.4850868712,1.0361894614\O,1.5785758145,-1.3160094655,-0.6934846
 102\O,1.9411192485,1.0541832303,-1.3316553734\F,-0.8210642213,-0.59301
 44121,1.8269308838\F,-2.5179824355,-0.035710676,0.6074594718\F,-1.2939
 036567,-1.7221444378,0.0434222784\H,1.8807624465,0.6499962955,-2.20726
 95898\\Version=ES64L-G16RevC.01\HF=-1199.8260453\RMSD=2.100e-09\RMSF=1
 .166e-05\ZeroPoint=0.0518605\Thermal=0.062295\ETot=-1199.7637503\HTot=
 -1199.7628061\GTot=-1199.8113788\Dipole=-0.2835451,0.2321646,-1.014907
 3\DipoleDeriv=1.7237387,-0.1284427,0.0735119,0.1415585,1.5110625,0.052
 0055,-0.117672,0.093279,1.5720205,0.8256655,-0.1466644,0.1387745,-0.31
 22749,0.9889392,0.1908096,0.2519753,0.1609426,0.9981282,-0.4807326,-0.
 0014899,-0.205506,0.0149813,-0.2509088,0.0523526,-0.3041489,-0.0155576
 ,-0.8355746,-0.3796999,0.1440768,0.0709803,0.2161194,-0.8483304,-0.234
 5309,0.079747,-0.1416258,-0.3011226,1.9067654,0.1255482,-0.0753598,0.0
 620178,2.0994439,-0.0437644,-0.0471578,-0.0139944,2.2345758,-0.7775305
 ,-0.0447419,-0.2063468,-0.0903032,-0.5512753,-0.193226,-0.2792151,-0.0
 969963,-0.8893951,-0.6681674,0.1030185,0.0474279,0.1856775,-1.0600332,
 -0.095735,0.0789795,-0.237314,-0.6232865,-0.7207683,-0.1062267,0.23375
 57,-0.1891283,-0.6714337,0.3590428,0.3843243,0.4168375,-1.037045,-0.38
 77024,-0.0198767,-0.1041323,-0.0236711,-0.2875546,0.1031519,-0.1416964
 ,0.0476863,-0.8445482,-1.0497099,0.1991334,0.0633076,0.1205654,-0.3638
 71,0.0271473,0.1288381,0.0102294,-0.3053164,-0.3333439,-0.0891075,0.00
 51912,-0.0825418,-0.8115132,-0.2151998,0.0381353,-0.1588166,-0.3714619
 ,0.3414855,-0.0352271,-0.0416042,-0.0430005,0.2454745,-0.0020536,-0.07
 21093,-0.0646699,0.4030258\Polar=58.6654484,0.090917,53.1954051,-0.845
 9405,1.4616912,55.2434716\PG=Unknown\NImag=0\\0.56008701,0.01530033,0.
 57328289,-0.00844245,-0.00493928,0.56912326,-0.10471957,-0.02878592,0.
 03055548,0.43070956,-0.05927987,-0.09305327,0.04956008,0.00468992,0.54
 268887,0.05357071,0.04521867,-0.07962136,0.00167866,-0.00933387,0.5204
 4142,0.00477961,-0.00078848,0.00894614,-0.09295582,0.00342369,-0.07108
 228,0.09167526,0.01067021,0.00251431,0.01618228,0.00256380,-0.07042227
 ,0.01315088,0.00416903,0.07466703,-0.02470457,-0.00658709,-0.04417202,
 -0.05786219,0.02324631,-0.27167901,0.09302265,0.01347827,0.37422909,0.
 00306226,-0.01432395,-0.00440551,-0.07629563,0.03756507,0.01221669,0.0
 1114598,-0.01330956,-0.00811544,0.06879333,0.01460996,-0.04449465,-0.0
 2457764,0.02574404,-0.29746651,-0.04904916,-0.00592708,-0.01102804,-0.
 04094873,-0.03500509,0.37927021,-0.00337723,0.00550387,0.00494496,0.01
 014668,-0.06135520,-0.08427533,-0.00160274,-0.05606953,-0.04074435,-0.
 01060817,0.11326757,0.11350590,-0.02305594,-0.01670430,0.01847434,-0.1
 4253851,0.03521169,-0.01092729,-0.00528892,-0.00071840,0.00013121,0.00
 231959,-0.00549102,-0.00110904,0.52217586,-0.01663834,0.03160617,-0.00
 144349,0.00130215,-0.04234443,0.01204394,-0.00140834,-0.00018982,-0.00
 350554,0.03271184,-0.03350826,-0.00937781,0.03282183,0.91262085,0.0198
 2927,-0.00182718,0.02286972,0.01795921,0.00681360,-0.03139332,-0.03863
 393,0.00664719,-0.03379092,0.00748004,-0.01251776,-0.00363547,0.134919
 87,0.28486072,0.93038816,0.00242188,0.00678712,-0.00328756,0.01282480,
 -0.01515406,-0.01696678,-0.01129768,0.00147493,-0.00898332,-0.00175842
 ,0.00326866,0.00157539,-0.17973380,-0.07280224,-0.20345598,0.14872395,
 0.00138303,-0.00345297,-0.00083981,0.00771830,0.00021244,-0.00277308,-
 0.00008780,0.00088732,0.00130930,-0.00214973,0.00694470,0.00305381,-0.
 07210589,-0.14661302,-0.17232056,0.07776227,0.13006015,-0.00330135,0.0
 0357324,-0.01134951,0.00851897,-0.01520975,-0.00550491,-0.00473402,0.0
 0059399,-0.00127544,-0.00101104,0.00585104,0.00402035,-0.19550216,-0.1
 7091354,-0.52187203,0.21400790,0.17938947,0.56061507,0.00348710,-0.000
 25318,-0.00597438,0.01635779,0.01357706,0.00794540,-0.00193434,0.00021
 713,-0.00231155,-0.00912405,0.00948080,0.00269599,-0.09938386,0.064372
 81,0.02126710,0.02032777,-0.01472516,-0.00915808,0.06226486,0.00181546
 ,-0.01388734,0.00133158,-0.01665126,-0.00533622,-0.01263708,0.00406234
 ,0.00208234,0.00568389,0.00698408,-0.00419831,-0.00149443,0.05637842,-
 0.57172675,-0.18218414,0.00581625,-0.00068274,0.00300923,-0.05870199,0
 .61241321,-0.00298222,-0.00182127,-0.00295343,-0.00989325,-0.00337811,
 -0.00035097,0.00437412,0.00058384,0.00728911,0.00227888,-0.00072114,0.
 00067643,0.02033248,-0.17938857,-0.15401816,0.00256483,-0.03337691,-0.
 00063106,-0.01896370,0.19253384,0.13125159,-0.00044018,0.00894458,-0.0
 0694101,-0.00431550,-0.02204068,0.01968570,-0.00072604,-0.00119778,0.0
 0144215,-0.00095221,0.00390721,0.00095286,-0.08547115,-0.04271634,0.03
 456939,0.01230543,0.00399822,-0.01014706,0.01560020,-0.00081206,-0.000
 16840,0.07797926,0.00227656,-0.00103690,-0.00190797,0.00660855,-0.0060
 7848,0.00877716,0.00010506,0.00153172,-0.00305970,-0.00334153,0.007352
 18,0.00062256,-0.03923410,-0.14383006,0.04245382,-0.00108907,0.0126018
 9,-0.01295699,-0.01384996,-0.02626858,0.02807566,0.07642659,0.27710393
 ,-0.00262850,-0.00535478,0.00177085,-0.00575121,0.01869448,-0.01696948
 ,0.00290545,-0.00264595,0.01100477,0.00135823,-0.00341943,0.00079175,0
 .04484490,0.07390319,-0.15919696,0.00940693,0.02126052,-0.03359844,0.0
 0085723,-0.00130888,0.01115188,-0.02387541,0.10784645,0.60700877,-0.09
 148162,0.00368531,-0.04932653,0.00905896,-0.00003325,0.00687118,0.0001
 2873,-0.00221355,0.00465859,0.00038339,-0.00104587,0.00056657,-0.00027
 407,0.00092522,-0.00674500,-0.00245132,-0.00078265,0.00372788,0.000013
 75,0.00017812,0.00125380,0.00051325,-0.00031741,0.00095189,0.11862611,
 0.00251351,-0.08310655,0.03007519,0.00737318,0.00520223,0.01829996,-0.
 00231176,-0.00257982,0.00655075,-0.00026018,0.00200577,0.00039219,0.00
 207459,-0.00407638,-0.00027446,-0.00210557,0.00049986,0.00008456,-0.00
 021949,0.00193003,0.00012186,-0.00084534,0.00031899,0.00033554,-0.0105
 9319,0.07830543,-0.04431354,0.03463536,-0.27990766,-0.02008567,-0.0051
 7311,-0.03701645,0.00568642,0.00617378,-0.00863874,0.00210978,0.005812
 30,0.00315316,-0.00653747,0.00058092,-0.00827323,0.00245060,0.00058576
 ,0.00503153,0.00227129,-0.00053794,0.00111336,0.00207796,0.00025096,0.
 00038306,0.11301255,-0.01690450,0.38442432,-0.27271611,0.04769179,0.02
 129402,-0.05565320,0.01966801,0.00086773,0.00450663,-0.00204689,0.0040
 3708,0.00432307,-0.00252296,-0.00033435,0.01014002,-0.00445104,0.00121
 307,-0.00284305,-0.00027119,-0.00173804,-0.00182984,0.00168943,0.00072
 411,-0.00405531,-0.00181896,0.00392276,-0.04319522,0.01817420,-0.03943
 398,0.37222460,0.05241544,-0.09206575,-0.00317994,-0.01056566,0.002510
 34,0.00145936,-0.00050218,0.00082989,0.00025679,-0.00339197,0.00484536
 ,0.00133741,0.00190037,-0.00506209,0.00140093,-0.00076578,0.00068455,-
 0.00082271,0.00003127,0.00229040,0.00017841,-0.00119161,0.00052084,0.0
 0031624,0.02047841,0.00683213,0.01259040,-0.11581261,0.12285794,0.0199
 6131,-0.00195365,-0.07866145,0.02258657,-0.00602982,0.00180055,0.00054
 427,-0.00049024,0.00357955,-0.00089051,0.00184999,0.00083360,-0.004239
 85,0.00281576,-0.00391657,0.00124981,-0.00002927,0.00211818,0.00090304
 ,-0.00102401,0.00026829,0.00199186,0.00044895,-0.00085901,-0.05727527,
 0.01708990,-0.01039684,-0.00330017,0.00609037,0.07783102,-0.08103965,-
 0.02190330,-0.00103109,0.00766746,-0.01531840,-0.01073846,0.00046886,-
 0.00016947,0.00264685,-0.00195766,-0.00659613,0.00199028,0.00145020,0.
 00397806,-0.00016528,-0.00040315,-0.00053391,-0.00027510,-0.00373813,-
 0.00196482,0.00073497,-0.00007752,-0.00079709,0.00058313,0.00865087,-0
 .01397671,-0.01674753,-0.01062428,0.05743077,0.01840290,0.07956329,-0.
 02489602,-0.27742322,-0.06037146,0.00067372,-0.03462902,-0.02561115,0.
 00006707,0.00219415,0.00390199,-0.00608847,-0.00936166,0.00419583,0.00
 597053,-0.01045432,-0.00209353,-0.00206219,0.00142939,0.00027711,-0.00
 058795,0.00634736,0.00151823,-0.00247941,0.00074626,0.00157963,-0.0102
 2887,-0.00518472,-0.03796935,0.03982536,-0.04406308,-0.01880957,-0.000
 22346,0.37078277,-0.00437105,-0.06731347,-0.10104037,0.00050858,0.0031
 4635,0.00265931,0.00116209,0.00250071,0.00459074,0.00047863,0.00375252
 ,0.00049168,-0.00050005,-0.00325530,-0.00410549,-0.00005837,0.00067508
 ,0.00175643,0.00187752,0.00182330,0.00125437,0.00010860,0.00037966,0.0
 0043237,-0.01758965,-0.05566952,-0.05010919,0.01367279,-0.01955872,0.0
 0710428,0.00488783,0.13368639,0.13689348,-0.00038480,0.00034999,0.0001
 3854,-0.00014035,-0.00230917,0.00687875,-0.00050228,0.00056055,-0.0039
 6145,0.00006034,-0.00042253,-0.00089625,-0.00033943,0.00190438,0.01176
 224,0.00188359,-0.00020550,-0.00038789,-0.00204127,0.00120602,-0.00025
 563,-0.01036024,-0.02496865,-0.03257542,0.00002716,0.00017676,-0.00049
 042,-0.00027731,-0.00002646,0.00006604,0.00003971,0.00002971,-0.000176
 92,0.01203486,-0.00017028,0.00111727,0.00011045,-0.00067083,-0.0012836
 7,0.00045437,-0.00080155,-0.00048680,-0.00032623,0.00060950,-0.0003607
 9,-0.00007627,-0.00010372,0.01357810,0.02904138,-0.00113033,-0.0025715
 6,0.00712436,0.00065865,-0.00296340,-0.00432583,-0.02199339,-0.1229617
 9,-0.21120701,-0.00005227,-0.00014697,-0.00004460,-0.00012514,-0.00018
 054,0.00004160,0.00007446,-0.00038391,-0.00016699,0.02370488,0.1166440
 6,0.00075963,0.00086558,-0.00100299,0.00163817,-0.00098096,0.00190956,
 -0.00058817,-0.00010521,-0.00039277,-0.00089158,0.00070044,0.00023732,
 0.00011305,-0.00632026,-0.03305573,0.00149655,0.00306568,0.00068983,-0
 .00140986,-0.00519536,0.00494860,-0.01969664,-0.17093055,-0.42191955,-
 0.00010602,-0.00010147,0.00023666,-0.00092503,-0.00006853,0.00029842,-
 0.00028850,-0.00030412,0.00007239,0.01989841,0.17937476,0.44797825\\0.
 00002786,-0.00000075,0.00002284,-0.00000421,-0.00000861,-0.00003430,0.
 00001128,-0.00000689,0.00000629,-0.00001855,-0.00000506,0.00001206,-0.
 00000406,0.00001818,0.00001323,-0.00000124,0.00000023,-0.00000219,-0.0
 0000599,-0.00000818,0.00000117,0.00000210,0.00000234,0.00000136,-0.000
 00610,-0.00000237,-0.00000833,0.00000009,0.00002054,-0.00001720,-0.000
 00548,-0.00000766,0.00000289,0.00000432,-0.00000177,0.00000219\\\@
 The archive entry for this job was punched.


 YOU CANNOT THROW TO THE GROUND THE LETTERS OF
 THE GREEK ALPHABET AND PICK UP THE ILIAD.
        - RUFUS CHOATE, 1799-1859
 Job cpu time:       0 days  0 hours 10 minutes 27.8 seconds.
 Elapsed time:       0 days  0 hours  1 minutes 20.4 seconds.
 File lengths (MBytes):  RWF=     99 Int=      0 D2E=      0 Chk=      6 Scr=      1
 Normal termination of Gaussian 16 at Fri May 23 03:38:54 2025.
done
