 Entering Gaussian System, Link 0=g16
 Initial command:
 /apps/easybuild-2022/easybuild/software/Compiler/NVHPC/22.11-CUDA-11.7.0/Gaussian/g16c01-CUDA-11.7.0/g16/l1.exe "/tmp/Gau-217413.inp" -scrdir="/tmp/"
 Entering Link 1 = /apps/easybuild-2022/easybuild/software/Compiler/NVHPC/22.11-CUDA-11.7.0/Gaussian/g16c01-CUDA-11.7.0/g16/l1.exe PID=    217414.
  
 Copyright (c) 1988-2019, Gaussian, Inc.  All Rights Reserved.
  
 This is part of the Gaussian(R) 16 program.  It is based on
 the Gaussian(R) 09 system (copyright 2009, Gaussian, Inc.),
 the Gaussian(R) 03 system (copyright 2003, Gaussian, Inc.),
 the Gaussian(R) 98 system (copyright 1998, Gaussian, Inc.),
 the Gaussian(R) 94 system (copyright 1995, Gaussian, Inc.),
 the Gaussian 92(TM) system (copyright 1992, Gaussian, Inc.),
 the Gaussian 90(TM) system (copyright 1990, Gaussian, Inc.),
 the Gaussian 88(TM) system (copyright 1988, Gaussian, Inc.),
 the Gaussian 86(TM) system (copyright 1986, Carnegie Mellon
 University), and the Gaussian 82(TM) system (copyright 1983,
 Carnegie Mellon University). Gaussian is a federally registered
 trademark of Gaussian, Inc.
  
 This software contains proprietary and confidential information,
 including trade secrets, belonging to Gaussian, Inc.
  
 This software is provided under written license and may be
 used, copied, transmitted, or stored only in accord with that
 written license.
  
 The following legend is applicable only to US Government
 contracts under FAR:
  
                    RESTRICTED RIGHTS LEGEND
  
 Use, reproduction and disclosure by the US Government is
 subject to restrictions as set forth in subparagraphs (a)
 and (c) of the Commercial Computer Software - Restricted
 Rights clause in FAR 52.227-19.
  
 Gaussian, Inc.
 340 Quinnipiac St., Bldg. 40, Wallingford CT 06492
  
  
 ---------------------------------------------------------------
 Warning -- This program may not be used in any manner that
 competes with the business of Gaussian, Inc. or will provide
 assistance to any competitor of Gaussian, Inc.  The licensee
 of this program is prohibited from giving any competitor of
 Gaussian, Inc. access to this program.  By using this program,
 the user acknowledges that Gaussian, Inc. is engaged in the
 business of creating and licensing software in the field of
 computational chemistry and represents and warrants to the
 licensee that it is not a competitor of Gaussian, Inc. and that
 it will not use this program in any manner prohibited above.
 ---------------------------------------------------------------
  

 Cite this work as:
 Gaussian 16, Revision C.01,
 M. J. Frisch, G. W. Trucks, H. B. Schlegel, G. E. Scuseria, 
 M. A. Robb, J. R. Cheeseman, G. Scalmani, V. Barone, 
 G. A. Petersson, H. Nakatsuji, X. Li, M. Caricato, A. V. Marenich, 
 J. Bloino, B. G. Janesko, R. Gomperts, B. Mennucci, H. P. Hratchian, 
 J. V. Ortiz, A. F. Izmaylov, J. L. Sonnenberg, D. Williams-Young, 
 F. Ding, F. Lipparini, F. Egidi, J. Goings, B. Peng, A. Petrone, 
 T. Henderson, D. Ranasinghe, V. G. Zakrzewski, J. Gao, N. Rega, 
 G. Zheng, W. Liang, M. Hada, M. Ehara, K. Toyota, R. Fukuda, 
 J. Hasegawa, M. Ishida, T. Nakajima, Y. Honda, O. Kitao, H. Nakai, 
 T. Vreven, K. Throssell, J. A. Montgomery, Jr., J. E. Peralta, 
 F. Ogliaro, M. J. Bearpark, J. J. Heyd, E. N. Brothers, K. N. Kudin, 
 V. N. Staroverov, T. A. Keith, R. Kobayashi, J. Normand, 
 K. Raghavachari, A. P. Rendell, J. C. Burant, S. S. Iyengar, 
 J. Tomasi, M. Cossi, J. M. Millam, M. Klene, C. Adamo, R. Cammi, 
 J. W. Ochterski, R. L. Martin, K. Morokuma, O. Farkas, 
 J. B. Foresman, and D. J. Fox, Gaussian, Inc., Wallingford CT, 2019.
 
 ******************************************
 Gaussian 16:  ES64L-G16RevC.01  3-Jul-2019
                23-May-2025 
 ******************************************
 %mem=28GB
 %chk=2003846667223680600001_R_Addition_MultipleBond_5_2_1_IRC_R
 %nprocshared=8
 Will use up to    8 processors via shared memory.
 ----------------------------------------------------------------------
 #P mp2/6-31G Symm(None) scf(xqc) pop(None) guess(Read,Mix) geom(AllChe
 ck,NoKeepConstants) irc(RCFC,reverse,MaxPoints=100,StepSize=2)
 ----------------------------------------------------------------------
 1/10=5,18=10,22=2,29=20007,38=1,39=2,42=100,44=3,172=1/1,23;
 2/12=2,15=3,29=1,40=1/2;
 3/5=1,6=6,11=9,14=-4,25=1,30=1,71=2,116=-2,140=1/1,2,3;
 4/5=1,13=-1/1;
 5/5=2,8=3,13=1,38=6/2,8;
 8/6=3,8=1,10=2,19=11,30=-1/1;
 9/15=3,16=-3/6;
 11/6=1,8=1,15=11,17=12,24=-1,27=1,28=-2,29=300,31=1,32=6,42=3/1,2,10;
 10/6=2,21=1,31=1/2;
 8/6=4,8=1,10=2,19=11,30=-1/11,4;
 10/5=1,20=4,31=1/2;
 11/12=2,14=11,16=1,17=2,28=-2,31=1,42=3,76=2/2,10,12;
 7/10=1,12=2,25=1,30=1,44=2/1,2,3,16;
 1/18=10,22=2,39=2,42=100,44=3/23(2);
 2/15=3,29=1/2;
 99/5=20/99;
 2/15=3,29=1/2;
 3/5=1,6=6,11=9,14=-2,25=1,30=1,71=2,140=1/1,2,3;
 4/5=5,16=3,69=1/1;
 5/5=2,8=3,13=1,38=5/2,8;
 8/6=3,8=1,10=2,19=11,30=-1/1;
 9/15=3,16=-3/6;
 11/6=1,8=1,15=11,17=12,24=-1,27=1,28=-2,29=300,31=1,32=6,42=3/1,2,10;
 10/6=2,21=1,31=1/2;
 8/6=4,8=1,10=2,19=11,30=-1/11,4;
 10/5=1,20=4,31=1/2;
 11/12=2,14=11,16=1,17=2,28=-2,31=1,42=3,76=2/2,10,12;
 7/10=1,12=2,25=1,30=1,44=2/1,2,3,16;
 1/18=10,22=2,39=2,42=100,44=3/23(-12);
 2/15=3,29=1/2;
 99/5=20,9=10/99;
 Leave Link    1 at Fri May 23 04:31:31 2025, MaxMem=  3758096384 cpu:               0.0 elap:               0.0
 (Enter /apps/easybuild-2022/easybuild/software/Compiler/NVHPC/22.11-CUDA-11.7.0/Gaussian/g16c01-CUDA-11.7.0/g16/l101.exe)
 Structure from the checkpoint file:  "2003846667223680600001_R_Addition_MultipleBond_5_2_1_IRC_R.chk"
 ------------------------------
 Gaussian input prepared by ASE
 ------------------------------
 Charge =  0 Multiplicity = 1
 No Z-Matrix found in chk file; cartesian coordinates used.
  C                                                -0.535061435913     -0.245008300730      1.558339772865
  C                                                 0.078001715430      0.444785975554      0.330020127764
  F                                                -0.300776301027     -0.223262323539     -0.826120922196
  F                                                -0.298043386914      1.780505311256      0.300503318149
  S                                                 2.081387313041      0.430976292508      0.349766589523
  O                                                 2.618153247588      1.358361812795      1.528597900740
  O                                                 2.614892759271     -1.059230677448      0.169558852427
  O                                                 2.084601440614      1.322781888065     -1.236686563134
  F                                                -0.120377833414     -1.571389334555      1.607947406219
  F                                                -0.117513194320      0.400812319341      2.716910438601
  F                                                -1.922911065229     -0.201211180395      1.484034395921
  H                                                 3.023611740874      1.481257217146     -1.521327316880
 Recover connectivity data from disk.
 ITRead=  0  0  0  0  0  0  0  0  0  0  0  0
 MicOpt= -1 -1 -1 -1 -1 -1 -1 -1 -1 -1 -1 -1
 NAtoms=     12 NQM=       12 NQMF=       0 NMMI=      0 NMMIF=      0
                NMic=       0 NMicF=      0.
                    Isotopes and Nuclear Properties:
 (Nuclear quadrupole moments (NQMom) in fm**2, nuclear magnetic moments (NMagM)
  in nuclear magnetons)

  Atom         1           2           3           4           5           6           7           8           9          10
 IAtWgt=          12          12          19          19          32          16          16          16          19          19
 AtmWgt=  12.0000000  12.0000000  18.9984032  18.9984032  31.9720718  15.9949146  15.9949146  15.9949146  18.9984032  18.9984032
 NucSpn=           0           0           1           1           0           0           0           0           1           1
 AtZEff=   3.6000000   3.6000000   6.7500000   6.7500000  13.6000000   5.6000000   5.6000000   5.6000000   6.7500000   6.7500000
 NQMom=    0.0000000   0.0000000   0.0000000   0.0000000   0.0000000   0.0000000   0.0000000   0.0000000   0.0000000   0.0000000
 NMagM=    0.0000000   0.0000000   2.6288670   2.6288670   0.0000000   0.0000000   0.0000000   0.0000000   2.6288670   2.6288670
 AtZNuc=   6.0000000   6.0000000   9.0000000   9.0000000  16.0000000   8.0000000   8.0000000   8.0000000   9.0000000   9.0000000

  Atom        11          12
 IAtWgt=          19           1
 AtmWgt=  18.9984032   1.0078250
 NucSpn=           1           1
 AtZEff=   6.7500000   1.0000000
 NQMom=    0.0000000   0.0000000
 NMagM=    2.6288670   2.7928460
 AtZNuc=   9.0000000   1.0000000
 Leave Link  101 at Fri May 23 04:31:31 2025, MaxMem=  3758096384 cpu:               0.1 elap:               0.1
 (Enter /apps/easybuild-2022/easybuild/software/Compiler/NVHPC/22.11-CUDA-11.7.0/Gaussian/g16c01-CUDA-11.7.0/g16/l123.exe)
 IRC-IRC-IRC-IRC-IRC-IRC-IRC-IRC-IRC-IRC-IRC-IRC-IRC-IRC-IRC-IRC-IRC-IRC
 ------------------------------------------------------------------------
 INPUT DATA FOR L123
 ------------------------------------------------------------------------
 GENERAL PARAMETERS:
 Rxn path following direction = Reverse
 Maximum points per path      = 100
 Step size                    =   0.020 bohr
 Integration scheme           = HPC                                 
    Redo corrector integration= Yes                                 
    DWI Weight Power          =  2
    DWI will use Hessian update vectors when possible.
    Max correction cycles     =  20
 Initial Hessian              = ReadFC from chk
 Hessian evaluation           = All updating
 Hessian updating method      = Bofill                              
 ------------------------------------------------------------------------
          ******** Start new reaction path calculation ********
 RCFC Option Requested - Data Read From Chk File:
 "2003846667223680600001_R_Addition_MultipleBond_5_2_1_IRC_R.chk"
   Energy From Chk =  -1196.2554048

 Current Structure is TS -> form Hessian eigenvectors.
                            Recovering Hessian eigenvectors from chk file.
 Supplied step size of   0.0200 bohr.
    Integration on MW PES will use step size of   0.0225 sqrt(amu)*bohr.
 Point Number:   0          Path Number:   1
 Calculating another point on the path.
 Point Number  1 in REVERSE path direction.
 Using LQA Reaction Path Following.
 IRC-IRC-IRC-IRC-IRC-IRC-IRC-IRC-IRC-IRC-IRC-IRC-IRC-IRC-IRC-IRC-IRC-IRC
 Leave Link  123 at Fri May 23 04:31:31 2025, MaxMem=  3758096384 cpu:               0.1 elap:               0.0
 (Enter /apps/easybuild-2022/easybuild/software/Compiler/NVHPC/22.11-CUDA-11.7.0/Gaussian/g16c01-CUDA-11.7.0/g16/l202.exe)
                          Input orientation:                          
 ---------------------------------------------------------------------
 Center     Atomic      Atomic             Coordinates (Angstroms)
 Number     Number       Type             X           Y           Z
 ---------------------------------------------------------------------
      1          6           0       -1.178829   -0.480851    0.857798
      2          6           0       -0.565766    0.209026   -0.370475
      3          9           0       -0.944587   -0.458833   -1.526710
      4          9           0       -0.941767    1.544763   -0.399781
      5         16           0        1.437620    0.195166   -0.350756
      6          8           0        1.974741    1.123157    0.827556
      7          8           0        1.970771   -1.295169   -0.530176
      8          8           0        1.440833    1.086634   -1.937399
      9          9           0       -0.764285   -1.807261    0.907341
     10          9           0       -0.761141    0.164898    2.016379
     11          9           0       -2.566678   -0.436902    0.783579
     12          1           0        2.379859    1.254678   -2.216661
 ---------------------------------------------------------------------
                    Distance matrix (angstroms):
                    1          2          3          4          5
     1  C    0.000000
     2  C    1.536370   0.000000
     3  F    2.396087   1.387956   0.000000
     4  F    2.396000   1.387959   2.298777   0.000000
     5  S    2.960305   2.003531   2.735963   2.735927   0.000000
     6  O    3.538186   2.953826   4.070348   3.192197   1.593137
     7  O    3.536887   2.953325   3.192468   4.070024   1.592966
     8  O    4.139175   2.692933   2.871823   2.872444   1.819934
     9  F    1.390562   2.395336   2.788435   3.602240   3.231239
    10  F    1.390598   2.395243   3.602245   2.788275   3.230912
    11  F    1.390527   2.398481   2.822958   2.822706   4.209588
    12  H    5.012846   3.630220   3.803169   3.797157   2.343498
                    6          7          8          9         10
     6  O    0.000000
     7  O    2.773401   0.000000
     8  O    2.816268   2.816753   0.000000
     9  F    4.011979   3.131968   4.618411   0.000000
    10  F    3.133147   4.009998   4.618511   2.262606   0.000000
    11  F    4.802104   4.801148   5.077896   2.267559   2.267581
    12  H    3.073870   3.084365   0.993980   5.387068   5.382577
                   11         12
    11  F    0.000000
    12  H    6.027530   0.000000
 Symmetry turned off by external request.
 Stoichiometry    C2HF5O3S
 Rotational constants (GHZ):           1.3957693           0.7615966           0.7168765
 Leave Link  202 at Fri May 23 04:31:31 2025, MaxMem=  3758096384 cpu:               0.1 elap:               0.0
 (Enter /apps/easybuild-2022/easybuild/software/Compiler/NVHPC/22.11-CUDA-11.7.0/Gaussian/g16c01-CUDA-11.7.0/g16/l301.exe)
 Standard basis: 6-31G (6D, 7F)
 Ernie: Thresh=  0.10000D-02 Tol=  0.10000D-05 Strict=F.
   105 basis functions,   270 primitive gaussians,   105 cartesian basis functions
    49 alpha electrons       49 beta electrons
       nuclear repulsion energy       873.8098816903 Hartrees.



 Warning!  S  atom    5 may be hypervalent but has no d functions.



 IExCor=    0 DFT=F Ex=HF Corr=None ExCW=0 ScaHFX=  1.000000
 ScaDFX=  1.000000  1.000000  1.000000  1.000000 ScalE2=  1.000000  1.000000
 IRadAn=      5 IRanWt=     -1 IRanGd=            0 ICorTp=0 IEmpDi=  4
 NAtoms=   12 NActive=   12 NUniq=   12 SFac= 1.00D+00 NAtFMM=   60 NAOKFM=F Big=F
 Integral buffers will be    131072 words long.
 Raffenetti 1 integral format.
 Two-electron integral symmetry is turned off.
 Leave Link  301 at Fri May 23 04:31:31 2025, MaxMem=  3758096384 cpu:               0.1 elap:               0.0
 (Enter /apps/easybuild-2022/easybuild/software/Compiler/NVHPC/22.11-CUDA-11.7.0/Gaussian/g16c01-CUDA-11.7.0/g16/l302.exe)
 NPDir=0 NMtPBC=     1 NCelOv=     1 NCel=       1 NClECP=     1 NCelD=      1
         NCelK=      1 NCelE2=     1 NClLst=     1 CellRange=     0.0.
 One-electron integrals computed using PRISM.
 NBasis=   105 RedAO= T EigKep=  5.30D-03  NBF=   105
 NBsUse=   105 1.00D-06 EigRej= -1.00D+00 NBFU=   105
 Leave Link  302 at Fri May 23 04:31:31 2025, MaxMem=  3758096384 cpu:               0.3 elap:               0.1
 (Enter /apps/easybuild-2022/easybuild/software/Compiler/NVHPC/22.11-CUDA-11.7.0/Gaussian/g16c01-CUDA-11.7.0/g16/l303.exe)
 DipDrv:  MaxL=1.
 Leave Link  303 at Fri May 23 04:31:31 2025, MaxMem=  3758096384 cpu:               0.1 elap:               0.0
 (Enter /apps/easybuild-2022/easybuild/software/Compiler/NVHPC/22.11-CUDA-11.7.0/Gaussian/g16c01-CUDA-11.7.0/g16/l401.exe)
 Initial guess from the checkpoint file:  "2003846667223680600001_R_Addition_MultipleBond_5_2_1_IRC_R.chk"
 B after Tr=    -1.216511   -0.445342   -1.323700
         Rot=    1.000000   -0.000024    0.000008   -0.000014 Ang=  -0.00 deg.
 Guess basis will be translated and rotated to current coordinates.
 JPrj=2 DoOrth=T DoCkMO=T.
 Mixing orbitals, IMix= 1 IMixAn=  0 NRI=1 NE=   49 Coef=  7.07106781D-01  7.07106781D-01
 Leave Link  401 at Fri May 23 04:31:31 2025, MaxMem=  3758096384 cpu:               0.1 elap:               0.1
 (Enter /apps/easybuild-2022/easybuild/software/Compiler/NVHPC/22.11-CUDA-11.7.0/Gaussian/g16c01-CUDA-11.7.0/g16/l502.exe)
 Keep R1 ints in memory in canonical form, NReq=17171835.
 FoFCou: FMM=F IPFlag=           0 FMFlag=           0 FMFlg1=           0
         NFxFlg=           0 DoJE=F BraDBF=F KetDBF=F FulRan=T
         wScrn=  0.000000 ICntrl=       600 IOpCl=  0 I1Cent=           0 NGrid=           0
         NMat0=    1 NMatS0=   5565 NMatT0=    0 NMatD0=    1 NMtDS0=    0 NMtDT0=    0
 Symmetry not used in FoFCou.
 Two-electron integral symmetry not used.
 Closed shell SCF:
 Using DIIS extrapolation, IDIIS=  1040.
 NGot=  3758096384 LenX=  3742584760 LenY=  3742573294
 Requested convergence on RMS density matrix=1.00D-08 within  32 cycles.
 Requested convergence on MAX density matrix=1.00D-06.
 Requested convergence on             energy=1.00D-06.
 No special actions if energy rises.

 Cycle   1  Pass 1  IDiag  1:
 E= -1194.60743838516    
 DIIS: error= 2.49D-02 at cycle   1 NSaved=   1.
 NSaved= 1 IEnMin= 1 EnMin= -1194.60743838516     IErMin= 1 ErrMin= 2.49D-02
 ErrMax= 2.49D-02  0.00D+00 EMaxC= 1.00D-01 BMatC= 9.25D-02 BMatP= 9.25D-02
 IDIUse=3 WtCom= 7.51D-01 WtEn= 2.49D-01
 Coeff-Com:  0.100D+01
 Coeff-En:   0.100D+01
 Coeff:      0.100D+01
 Gap=     0.170 Goal=   None    Shift=    0.000
 GapD=    0.170 DampG=1.000 DampE=0.500 DampFc=0.5000 IDamp=-1.
 Damping current iteration by 5.00D-01
 RMSDP=1.18D-02 MaxDP=1.63D-01              OVMax= 4.53D-01

 Cycle   2  Pass 1  IDiag  1:
 E= -1194.74242750244     Delta-E=       -0.134989117277 Rises=F Damp=T
 DIIS: error= 1.31D-02 at cycle   2 NSaved=   2.
 NSaved= 2 IEnMin= 2 EnMin= -1194.74242750244     IErMin= 2 ErrMin= 1.31D-02
 ErrMax= 1.31D-02  0.00D+00 EMaxC= 1.00D-01 BMatC= 1.61D-02 BMatP= 9.25D-02
 IDIUse=3 WtCom= 8.69D-01 WtEn= 1.31D-01
 Coeff-Com:  0.111D+00 0.889D+00
 Coeff-En:   0.000D+00 0.100D+01
 Coeff:      0.967D-01 0.903D+00
 Gap=     0.485 Goal=   None    Shift=    0.000
 RMSDP=5.99D-03 MaxDP=7.66D-02 DE=-1.35D-01 OVMax= 7.39D-02

 Cycle   3  Pass 1  IDiag  1:
 E= -1194.93656656787     Delta-E=       -0.194139065433 Rises=F Damp=F
 DIIS: error= 6.34D-03 at cycle   3 NSaved=   3.
 NSaved= 3 IEnMin= 3 EnMin= -1194.93656656787     IErMin= 3 ErrMin= 6.34D-03
 ErrMax= 6.34D-03  0.00D+00 EMaxC= 1.00D-01 BMatC= 6.88D-03 BMatP= 1.61D-02
 IDIUse=3 WtCom= 9.37D-01 WtEn= 6.34D-02
 Coeff-Com:  0.144D+00-0.195D+00 0.105D+01
 Coeff-En:   0.000D+00 0.000D+00 0.100D+01
 Coeff:      0.134D+00-0.183D+00 0.105D+01
 Gap=     0.486 Goal=   None    Shift=    0.000
 RMSDP=2.04D-03 MaxDP=2.48D-02 DE=-1.94D-01 OVMax= 8.52D-02

 Cycle   4  Pass 1  IDiag  1:
 E= -1194.95739971924     Delta-E=       -0.020833151362 Rises=F Damp=F
 DIIS: error= 3.74D-03 at cycle   4 NSaved=   4.
 NSaved= 4 IEnMin= 4 EnMin= -1194.95739971924     IErMin= 4 ErrMin= 3.74D-03
 ErrMax= 3.74D-03  0.00D+00 EMaxC= 1.00D-01 BMatC= 1.53D-03 BMatP= 6.88D-03
 IDIUse=3 WtCom= 9.63D-01 WtEn= 3.74D-02
 Coeff-Com:  0.149D-01-0.129D+00-0.317D+00 0.143D+01
 Coeff-En:   0.000D+00 0.000D+00 0.000D+00 0.100D+01
 Coeff:      0.143D-01-0.124D+00-0.305D+00 0.142D+01
 Gap=     0.522 Goal=   None    Shift=    0.000
 RMSDP=1.57D-03 MaxDP=1.80D-02 DE=-2.08D-02 OVMax= 7.05D-02

 Cycle   5  Pass 1  IDiag  1:
 E= -1194.96467685905     Delta-E=       -0.007277139813 Rises=F Damp=F
 DIIS: error= 1.80D-03 at cycle   5 NSaved=   5.
 NSaved= 5 IEnMin= 5 EnMin= -1194.96467685905     IErMin= 5 ErrMin= 1.80D-03
 ErrMax= 1.80D-03  0.00D+00 EMaxC= 1.00D-01 BMatC= 2.32D-04 BMatP= 1.53D-03
 IDIUse=3 WtCom= 9.82D-01 WtEn= 1.80D-02
 Coeff-Com: -0.323D-01 0.978D-01-0.151D+00-0.629D-01 0.115D+01
 Coeff-En:   0.000D+00 0.000D+00 0.000D+00 0.000D+00 0.100D+01
 Coeff:     -0.318D-01 0.960D-01-0.149D+00-0.618D-01 0.115D+01
 Gap=     0.519 Goal=   None    Shift=    0.000
 RMSDP=4.59D-04 MaxDP=6.60D-03 DE=-7.28D-03 OVMax= 2.31D-02

 Cycle   6  Pass 1  IDiag  1:
 E= -1194.96559413256     Delta-E=       -0.000917273514 Rises=F Damp=F
 DIIS: error= 8.36D-04 at cycle   6 NSaved=   6.
 NSaved= 6 IEnMin= 6 EnMin= -1194.96559413256     IErMin= 6 ErrMin= 8.36D-04
 ErrMax= 8.36D-04  0.00D+00 EMaxC= 1.00D-01 BMatC= 5.99D-05 BMatP= 2.32D-04
 IDIUse=3 WtCom= 9.92D-01 WtEn= 8.36D-03
 Coeff-Com:  0.800D-02 0.109D-01 0.508D-01-0.270D+00 0.308D-01 0.117D+01
 Coeff-En:   0.000D+00 0.000D+00 0.000D+00 0.000D+00 0.000D+00 0.100D+01
 Coeff:      0.793D-02 0.108D-01 0.504D-01-0.268D+00 0.305D-01 0.117D+01
 Gap=     0.520 Goal=   None    Shift=    0.000
 RMSDP=2.55D-04 MaxDP=3.75D-03 DE=-9.17D-04 OVMax= 1.05D-02

 Cycle   7  Pass 1  IDiag  1:
 E= -1194.96581611275     Delta-E=       -0.000221980191 Rises=F Damp=F
 DIIS: error= 3.27D-04 at cycle   7 NSaved=   7.
 NSaved= 7 IEnMin= 7 EnMin= -1194.96581611275     IErMin= 7 ErrMin= 3.27D-04
 ErrMax= 3.27D-04  0.00D+00 EMaxC= 1.00D-01 BMatC= 1.23D-05 BMatP= 5.99D-05
 IDIUse=3 WtCom= 9.97D-01 WtEn= 3.27D-03
 Coeff-Com:  0.112D-01-0.210D-01 0.284D-01-0.323D-01-0.146D+00 0.120D+00
 Coeff-Com:  0.104D+01
 Coeff-En:   0.000D+00 0.000D+00 0.000D+00 0.000D+00 0.000D+00 0.000D+00
 Coeff-En:   0.100D+01
 Coeff:      0.112D-01-0.210D-01 0.283D-01-0.322D-01-0.145D+00 0.120D+00
 Coeff:      0.104D+01
 Gap=     0.522 Goal=   None    Shift=    0.000
 RMSDP=1.02D-04 MaxDP=1.52D-03 DE=-2.22D-04 OVMax= 3.12D-03

 Cycle   8  Pass 1  IDiag  1:
 E= -1194.96585196181     Delta-E=       -0.000035849055 Rises=F Damp=F
 DIIS: error= 1.18D-04 at cycle   8 NSaved=   8.
 NSaved= 8 IEnMin= 8 EnMin= -1194.96585196181     IErMin= 8 ErrMin= 1.18D-04
 ErrMax= 1.18D-04  0.00D+00 EMaxC= 1.00D-01 BMatC= 1.44D-06 BMatP= 1.23D-05
 IDIUse=3 WtCom= 9.99D-01 WtEn= 1.18D-03
 Coeff-Com: -0.292D-02 0.446D-02-0.147D-01 0.491D-01 0.157D-01-0.266D+00
 Coeff-Com: -0.231D-01 0.124D+01
 Coeff-En:   0.000D+00 0.000D+00 0.000D+00 0.000D+00 0.000D+00 0.000D+00
 Coeff-En:   0.000D+00 0.100D+01
 Coeff:     -0.291D-02 0.445D-02-0.147D-01 0.490D-01 0.157D-01-0.265D+00
 Coeff:     -0.230D-01 0.124D+01
 Gap=     0.523 Goal=   None    Shift=    0.000
 RMSDP=4.54D-05 MaxDP=5.98D-04 DE=-3.58D-05 OVMax= 1.38D-03

 Cycle   9  Pass 1  IDiag  1:
 E= -1194.96585820003     Delta-E=       -0.000006238217 Rises=F Damp=F
 DIIS: error= 3.86D-05 at cycle   9 NSaved=   9.
 NSaved= 9 IEnMin= 9 EnMin= -1194.96585820003     IErMin= 9 ErrMin= 3.86D-05
 ErrMax= 3.86D-05  0.00D+00 EMaxC= 1.00D-01 BMatC= 1.66D-07 BMatP= 1.44D-06
 IDIUse=1 WtCom= 1.00D+00 WtEn= 0.00D+00
 Coeff-Com: -0.755D-03 0.420D-03-0.178D-02 0.359D-02-0.248D-02 0.291D-01
 Coeff-Com: -0.546D-01-0.255D+00 0.128D+01
 Coeff:     -0.755D-03 0.420D-03-0.178D-02 0.359D-02-0.248D-02 0.291D-01
 Coeff:     -0.546D-01-0.255D+00 0.128D+01
 Gap=     0.523 Goal=   None    Shift=    0.000
 RMSDP=1.46D-05 MaxDP=2.01D-04 DE=-6.24D-06 OVMax= 4.58D-04

 Cycle  10  Pass 1  IDiag  1:
 E= -1194.96585883906     Delta-E=       -0.000000639036 Rises=F Damp=F
 DIIS: error= 1.60D-05 at cycle  10 NSaved=  10.
 NSaved=10 IEnMin=10 EnMin= -1194.96585883906     IErMin=10 ErrMin= 1.60D-05
 ErrMax= 1.60D-05  0.00D+00 EMaxC= 1.00D-01 BMatC= 3.78D-08 BMatP= 1.66D-07
 IDIUse=1 WtCom= 1.00D+00 WtEn= 0.00D+00
 Coeff-Com:  0.154D-03-0.492D-03 0.199D-02-0.598D-02-0.556D-02 0.448D-01
 Coeff-Com:  0.810D-02-0.254D+00 0.176D+00 0.103D+01
 Coeff:      0.154D-03-0.492D-03 0.199D-02-0.598D-02-0.556D-02 0.448D-01
 Coeff:      0.810D-02-0.254D+00 0.176D+00 0.103D+01
 Gap=     0.523 Goal=   None    Shift=    0.000
 RMSDP=4.94D-06 MaxDP=6.96D-05 DE=-6.39D-07 OVMax= 1.47D-04

 Cycle  11  Pass 1  IDiag  1:
 E= -1194.96585893004     Delta-E=       -0.000000090980 Rises=F Damp=F
 DIIS: error= 4.78D-06 at cycle  11 NSaved=  11.
 NSaved=11 IEnMin=11 EnMin= -1194.96585893004     IErMin=11 ErrMin= 4.78D-06
 ErrMax= 4.78D-06  0.00D+00 EMaxC= 1.00D-01 BMatC= 3.39D-09 BMatP= 3.78D-08
 IDIUse=1 WtCom= 1.00D+00 WtEn= 0.00D+00
 Coeff-Com:  0.161D-03-0.439D-03 0.926D-03-0.152D-02-0.223D-02 0.855D-02
 Coeff-Com:  0.119D-01-0.458D-01-0.913D-01 0.265D+00 0.855D+00
 Coeff:      0.161D-03-0.439D-03 0.926D-03-0.152D-02-0.223D-02 0.855D-02
 Coeff:      0.119D-01-0.458D-01-0.913D-01 0.265D+00 0.855D+00
 Gap=     0.523 Goal=   None    Shift=    0.000
 RMSDP=1.19D-06 MaxDP=2.23D-05 DE=-9.10D-08 OVMax= 4.21D-05

 Cycle  12  Pass 1  IDiag  1:
 E= -1194.96585893698     Delta-E=       -0.000000006936 Rises=F Damp=F
 DIIS: error= 1.64D-06 at cycle  12 NSaved=  12.
 NSaved=12 IEnMin=12 EnMin= -1194.96585893698     IErMin=12 ErrMin= 1.64D-06
 ErrMax= 1.64D-06  0.00D+00 EMaxC= 1.00D-01 BMatC= 3.72D-10 BMatP= 3.39D-09
 IDIUse=1 WtCom= 1.00D+00 WtEn= 0.00D+00
 Coeff-Com: -0.101D-04 0.145D-04-0.142D-03 0.713D-03 0.558D-03-0.541D-02
 Coeff-Com: -0.275D-04 0.309D-01-0.186D-01-0.147D+00 0.129D-01 0.113D+01
 Coeff:     -0.101D-04 0.145D-04-0.142D-03 0.713D-03 0.558D-03-0.541D-02
 Coeff:     -0.275D-04 0.309D-01-0.186D-01-0.147D+00 0.129D-01 0.113D+01
 Gap=     0.522 Goal=   None    Shift=    0.000
 RMSDP=5.30D-07 MaxDP=8.84D-06 DE=-6.94D-09 OVMax= 1.70D-05

 Cycle  13  Pass 1  IDiag  1:
 E= -1194.96585893808     Delta-E=       -0.000000001102 Rises=F Damp=F
 DIIS: error= 6.22D-07 at cycle  13 NSaved=  13.
 NSaved=13 IEnMin=13 EnMin= -1194.96585893808     IErMin=13 ErrMin= 6.22D-07
 ErrMax= 6.22D-07  0.00D+00 EMaxC= 1.00D-01 BMatC= 4.83D-11 BMatP= 3.72D-10
 IDIUse=1 WtCom= 1.00D+00 WtEn= 0.00D+00
 Coeff-Com: -0.740D-05 0.128D-04-0.884D-04 0.244D-03 0.174D-03-0.128D-02
 Coeff-Com: -0.565D-03 0.601D-02 0.695D-02-0.402D-01-0.571D-01 0.147D+00
 Coeff-Com:  0.939D+00
 Coeff:     -0.740D-05 0.128D-04-0.884D-04 0.244D-03 0.174D-03-0.128D-02
 Coeff:     -0.565D-03 0.601D-02 0.695D-02-0.402D-01-0.571D-01 0.147D+00
 Coeff:      0.939D+00
 Gap=     0.522 Goal=   None    Shift=    0.000
 RMSDP=1.36D-07 MaxDP=2.59D-06 DE=-1.10D-09 OVMax= 4.74D-06

 Cycle  14  Pass 1  IDiag  1:
 E= -1194.96585893817     Delta-E=       -0.000000000090 Rises=F Damp=F
 DIIS: error= 3.45D-07 at cycle  14 NSaved=  14.
 NSaved=14 IEnMin=14 EnMin= -1194.96585893817     IErMin=14 ErrMin= 3.45D-07
 ErrMax= 3.45D-07  0.00D+00 EMaxC= 1.00D-01 BMatC= 1.50D-11 BMatP= 4.83D-11
 IDIUse=1 WtCom= 1.00D+00 WtEn= 0.00D+00
 Coeff-Com:  0.530D-05-0.176D-04 0.278D-04-0.125D-03-0.179D-03 0.128D-02
 Coeff-Com:  0.134D-03-0.822D-02 0.818D-02 0.311D-01-0.115D-01-0.285D+00
 Coeff-Com:  0.289D+00 0.975D+00
 Coeff:      0.530D-05-0.176D-04 0.278D-04-0.125D-03-0.179D-03 0.128D-02
 Coeff:      0.134D-03-0.822D-02 0.818D-02 0.311D-01-0.115D-01-0.285D+00
 Coeff:      0.289D+00 0.975D+00
 Gap=     0.522 Goal=   None    Shift=    0.000
 RMSDP=8.67D-08 MaxDP=1.46D-06 DE=-9.00D-11 OVMax= 2.95D-06

 Cycle  15  Pass 1  IDiag  1:
 E= -1194.96585893824     Delta-E=       -0.000000000073 Rises=F Damp=F
 DIIS: error= 1.86D-07 at cycle  15 NSaved=  15.
 NSaved=15 IEnMin=15 EnMin= -1194.96585893824     IErMin=15 ErrMin= 1.86D-07
 ErrMax= 1.86D-07  0.00D+00 EMaxC= 1.00D-01 BMatC= 1.87D-12 BMatP= 1.50D-11
 IDIUse=1 WtCom= 1.00D+00 WtEn= 0.00D+00
 Coeff-Com:  0.199D-05-0.631D-05 0.221D-04-0.401D-04-0.518D-04 0.244D-03
 Coeff-Com:  0.170D-03-0.132D-02-0.367D-03 0.545D-02 0.872D-02-0.349D-01
 Coeff-Com: -0.113D+00 0.234D-01 0.111D+01
 Coeff:      0.199D-05-0.631D-05 0.221D-04-0.401D-04-0.518D-04 0.244D-03
 Coeff:      0.170D-03-0.132D-02-0.367D-03 0.545D-02 0.872D-02-0.349D-01
 Coeff:     -0.113D+00 0.234D-01 0.111D+01
 Gap=     0.522 Goal=   None    Shift=    0.000
 RMSDP=3.97D-08 MaxDP=7.99D-07 DE=-7.32D-11 OVMax= 1.52D-06

 Cycle  16  Pass 1  IDiag  1:
 E= -1194.96585893825     Delta-E=       -0.000000000009 Rises=F Damp=F
 DIIS: error= 6.77D-08 at cycle  16 NSaved=  16.
 NSaved=16 IEnMin=16 EnMin= -1194.96585893825     IErMin=16 ErrMin= 6.77D-08
 ErrMax= 6.77D-08  0.00D+00 EMaxC= 1.00D-01 BMatC= 3.85D-13 BMatP= 1.87D-12
 IDIUse=1 WtCom= 1.00D+00 WtEn= 0.00D+00
 Coeff-Com: -0.284D-06 0.179D-06-0.242D-05 0.262D-04 0.240D-04-0.228D-03
 Coeff-Com:  0.455D-05 0.139D-02-0.137D-02-0.586D-02 0.379D-02 0.564D-01
 Coeff-Com: -0.845D-01-0.216D+00 0.158D+00 0.109D+01
 Coeff:     -0.284D-06 0.179D-06-0.242D-05 0.262D-04 0.240D-04-0.228D-03
 Coeff:      0.455D-05 0.139D-02-0.137D-02-0.586D-02 0.379D-02 0.564D-01
 Coeff:     -0.845D-01-0.216D+00 0.158D+00 0.109D+01
 Gap=     0.522 Goal=   None    Shift=    0.000
 RMSDP=2.09D-08 MaxDP=3.66D-07 DE=-8.64D-12 OVMax= 8.03D-07

 Cycle  17  Pass 1  IDiag  1:
 E= -1194.96585893825     Delta-E=        0.000000000003 Rises=F Damp=F
 DIIS: error= 2.40D-08 at cycle  17 NSaved=  17.
 NSaved=17 IEnMin=16 EnMin= -1194.96585893825     IErMin=17 ErrMin= 2.40D-08
 ErrMax= 2.40D-08  0.00D+00 EMaxC= 1.00D-01 BMatC= 6.21D-14 BMatP= 3.85D-13
 IDIUse=1 WtCom= 1.00D+00 WtEn= 0.00D+00
 Coeff-Com: -0.767D-07 0.392D-06-0.455D-05 0.808D-05 0.807D-05-0.363D-04
 Coeff-Com: -0.294D-04 0.151D-03 0.205D-03-0.717D-03-0.161D-02 0.423D-02
 Coeff-Com:  0.233D-01 0.288D-02-0.206D+00 0.105D-01 0.117D+01
 Coeff:     -0.767D-07 0.392D-06-0.455D-05 0.808D-05 0.807D-05-0.363D-04
 Coeff:     -0.294D-04 0.151D-03 0.205D-03-0.717D-03-0.161D-02 0.423D-02
 Coeff:      0.233D-01 0.288D-02-0.206D+00 0.105D-01 0.117D+01
 Gap=     0.522 Goal=   None    Shift=    0.000
 RMSDP=8.28D-09 MaxDP=1.39D-07 DE= 2.73D-12 OVMax= 3.04D-07

 SCF Done:  E(RHF) =  -1194.96585894     A.U. after   17 cycles
            NFock= 17  Conv=0.83D-08     -V/T= 2.0008
 KE= 1.194007571639D+03 PE=-4.587160688580D+03 EE= 1.324377376312D+03
 Leave Link  502 at Fri May 23 04:31:32 2025, MaxMem=  3758096384 cpu:               1.3 elap:               0.4
 (Enter /apps/easybuild-2022/easybuild/software/Compiler/NVHPC/22.11-CUDA-11.7.0/Gaussian/g16c01-CUDA-11.7.0/g16/l508.exe)
 QCSCF skips out because SCF is already converged.
 Leave Link  508 at Fri May 23 04:31:32 2025, MaxMem=  3758096384 cpu:               0.1 elap:               0.0
 (Enter /apps/easybuild-2022/easybuild/software/Compiler/NVHPC/22.11-CUDA-11.7.0/Gaussian/g16c01-CUDA-11.7.0/g16/l801.exe)
 ExpMin= 1.17D-01 ExpMax= 2.19D+04 ExpMxC= 3.30D+03 IAcc=3 IRadAn=         5 AccDes= 0.00D+00
 HarFok:  IExCor=  205 AccDes= 0.00D+00 IRadAn=         5 IDoV=-2 UseB2=F ITyADJ=14
 ICtDFT= 12500011 ScaDFX=  1.000000  1.000000  1.000000  1.000000
 Largest valence mixing into a core orbital is  3.10D-04
 Largest core mixing into a valence orbital is  1.16D-04
 Range of M.O.s used for correlation:    16   105
 NBasis=   105 NAE=    49 NBE=    49 NFC=    15 NFV=     0
 NROrb=     90 NOA=    34 NOB=    34 NVA=    56 NVB=    56
 Leave Link  801 at Fri May 23 04:31:32 2025, MaxMem=  3758096384 cpu:               0.2 elap:               0.0
 (Enter /apps/easybuild-2022/easybuild/software/Compiler/NVHPC/22.11-CUDA-11.7.0/Gaussian/g16c01-CUDA-11.7.0/g16/l906.exe)
 Frozen-core derivative calculation, NFC=  15 NFV=   0.
 FulOut=F Deriv=T AODrv=T NAtomX=    12
   MMem=         827  MDisk=          34 MDiskD=          34
  W3Min=      540225 MinDsk=      689135 NBas6D=         105
 NBas2D=        5703    NTT=        5565    LW2=     2000000
    MDV=  3757946783 MDiskM=      372613 NBas2p=        5402
 Fully direct method using O(ONN) memory.
 IMap=   1   2   3   4   5   6   7   8   9  10  11  12  13  14  15  16  17  18  19  20
 IMap=  21  22  23  24  25  26  27  28  29  30  31  32  33  34  35  36  37  38  39  40
 IMap=  41  42  43  44  45  46  47  48  49
 JobTyp=1 Pass  1:  I=  16 to  49 NPSUse=  8 ParTrn=T ParDer=T DoDerP=T.
 Spin components of T(2) and E(2):
     alpha-alpha T2 =       0.5746238263D-01 E2=     -0.1740859113D+00
     alpha-beta  T2 =       0.3105623143D+00 E2=     -0.9413741574D+00
     beta-beta   T2 =       0.5746238263D-01 E2=     -0.1740859113D+00
 The integrals were generated   1 times.
 ANorm=    0.1193937636D+01
 E2 =    -0.1289545980D+01 EUMP2 =    -0.11962554049182D+04
 Leave Link  906 at Fri May 23 04:31:34 2025, MaxMem=  3758096384 cpu:              16.8 elap:               2.3
 (Enter /apps/easybuild-2022/easybuild/software/Compiler/NVHPC/22.11-CUDA-11.7.0/Gaussian/g16c01-CUDA-11.7.0/g16/l1101.exe)
 Leave Link 1101 at Fri May 23 04:31:34 2025, MaxMem=  3758096384 cpu:               0.1 elap:               0.0
 (Enter /apps/easybuild-2022/easybuild/software/Compiler/NVHPC/22.11-CUDA-11.7.0/Gaussian/g16c01-CUDA-11.7.0/g16/l1102.exe)
 Leave Link 1102 at Fri May 23 04:31:34 2025, MaxMem=  3758096384 cpu:               0.1 elap:               0.0
 (Enter /apps/easybuild-2022/easybuild/software/Compiler/NVHPC/22.11-CUDA-11.7.0/Gaussian/g16c01-CUDA-11.7.0/g16/l1110.exe)
 Leave Link 1110 at Fri May 23 04:31:34 2025, MaxMem=  3758096384 cpu:               0.1 elap:               0.0
 (Enter /apps/easybuild-2022/easybuild/software/Compiler/NVHPC/22.11-CUDA-11.7.0/Gaussian/g16c01-CUDA-11.7.0/g16/l1002.exe)
 Minotr:  Closed shell wavefunction.
 Leave Link 1002 at Fri May 23 04:31:34 2025, MaxMem=  3758096384 cpu:               0.1 elap:               0.0
 (Enter /apps/easybuild-2022/easybuild/software/Compiler/NVHPC/22.11-CUDA-11.7.0/Gaussian/g16c01-CUDA-11.7.0/g16/l811.exe)
 Leave Link  811 at Fri May 23 04:31:34 2025, MaxMem=  3758096384 cpu:               0.1 elap:               0.0
 (Enter /apps/easybuild-2022/easybuild/software/Compiler/NVHPC/22.11-CUDA-11.7.0/Gaussian/g16c01-CUDA-11.7.0/g16/l804.exe)
 Leave Link  804 at Fri May 23 04:31:34 2025, MaxMem=  3758096384 cpu:               0.0 elap:               0.0
 (Enter /apps/easybuild-2022/easybuild/software/Compiler/NVHPC/22.11-CUDA-11.7.0/Gaussian/g16c01-CUDA-11.7.0/g16/l1002.exe)
 Minotr:  Closed shell wavefunction.
          Computing MP2/KS-MP2 derivatives.
          Using Z-Vector for PSCF gradient.
          Skipping F1 and S1 gradient terms here.
          IDoAtm=111111111111
          Frozen-core window.
          Direct CPHF calculation.
          Differentiating once with respect to electric field.
                with respect to dipole field.
          Differentiating once with respect to nuclear coordinates.
          Requested convergence is 1.0D-10 RMS, and 1.0D-09 maximum.
          NewPWx=F KeepS1=T KeepF1=T KeepIn=T MapXYZ=F SortEE=F KeepMc=T.
 Keep R1 ints in memory in canonical form, NReq=17175874.
 FoFCou: FMM=F IPFlag=           0 FMFlag=           0 FMFlg1=           0
         NFxFlg=           0 DoJE=F BraDBF=F KetDBF=F FulRan=T
         wScrn=  0.000000 ICntrl=       600 IOpCl=  0 I1Cent=           0 NGrid=           0
         NMat0=    1 NMatS0=   5565 NMatT0=    0 NMatD0=    1 NMtDS0=    0 NMtDT0=    0
 Symmetry not used in FoFCou.
 Two-electron integral symmetry not used.
          MDV=    3758096384 using IRadAn=       5.
          Solving linear equations separately, MaxMat=       0.
          There are     1 degrees of freedom in the 1st order CPHF.  IDoFFX=0 NUNeed=     1.
 LinEq1:  Iter=  0 NonCon=     1 RMS=1.08D-02 Max=2.11D-01 NDo=     1
 AX will form     1 AO Fock derivatives at one time.
 LinEq1:  Iter=  1 NonCon=     1 RMS=4.40D-03 Max=5.89D-02 NDo=     1
 LinEq1:  Iter=  2 NonCon=     1 RMS=1.46D-03 Max=1.91D-02 NDo=     1
 LinEq1:  Iter=  3 NonCon=     1 RMS=5.52D-04 Max=1.25D-02 NDo=     1
 LinEq1:  Iter=  4 NonCon=     1 RMS=2.38D-04 Max=4.21D-03 NDo=     1
 LinEq1:  Iter=  5 NonCon=     1 RMS=1.02D-04 Max=1.50D-03 NDo=     1
 LinEq1:  Iter=  6 NonCon=     1 RMS=2.54D-05 Max=3.37D-04 NDo=     1
 LinEq1:  Iter=  7 NonCon=     1 RMS=1.30D-05 Max=1.16D-04 NDo=     1
 LinEq1:  Iter=  8 NonCon=     1 RMS=3.20D-06 Max=3.29D-05 NDo=     1
 LinEq1:  Iter=  9 NonCon=     1 RMS=7.95D-07 Max=1.41D-05 NDo=     1
 LinEq1:  Iter= 10 NonCon=     1 RMS=2.34D-07 Max=2.55D-06 NDo=     1
 LinEq1:  Iter= 11 NonCon=     1 RMS=7.35D-08 Max=7.91D-07 NDo=     1
 LinEq1:  Iter= 12 NonCon=     1 RMS=3.58D-08 Max=4.92D-07 NDo=     1
 LinEq1:  Iter= 13 NonCon=     1 RMS=1.08D-08 Max=1.63D-07 NDo=     1
 LinEq1:  Iter= 14 NonCon=     1 RMS=6.45D-09 Max=9.09D-08 NDo=     1
 LinEq1:  Iter= 15 NonCon=     1 RMS=1.67D-09 Max=2.10D-08 NDo=     1
 LinEq1:  Iter= 16 NonCon=     1 RMS=4.66D-10 Max=5.87D-09 NDo=     1
 LinEq1:  Iter= 17 NonCon=     1 RMS=1.20D-10 Max=1.37D-09 NDo=     1
 LinEq1:  Iter= 18 NonCon=     0 RMS=3.38D-11 Max=3.92D-10 NDo=     1
 Linear equations converged to 1.000D-10 1.000D-09 after    18 iterations.
 End of Minotr F.D. properties file   721 does not exist.
 End of Minotr F.D. properties file   722 does not exist.
 End of Minotr F.D. properties file   788 does not exist.
 Leave Link 1002 at Fri May 23 04:31:35 2025, MaxMem=  3758096384 cpu:               1.4 elap:               0.4
 (Enter /apps/easybuild-2022/easybuild/software/Compiler/NVHPC/22.11-CUDA-11.7.0/Gaussian/g16c01-CUDA-11.7.0/g16/l1102.exe)
 Use density number 2.
 Symmetrizing basis deriv contribution to polar:
 IMax=3 JMax=2 DiffMx= 0.00D+00
 Leave Link 1102 at Fri May 23 04:31:35 2025, MaxMem=  3758096384 cpu:               0.1 elap:               0.0
 (Enter /apps/easybuild-2022/easybuild/software/Compiler/NVHPC/22.11-CUDA-11.7.0/Gaussian/g16c01-CUDA-11.7.0/g16/l1110.exe)
 Leave Link 1110 at Fri May 23 04:31:35 2025, MaxMem=  3758096384 cpu:               0.1 elap:               0.0
 (Enter /apps/easybuild-2022/easybuild/software/Compiler/NVHPC/22.11-CUDA-11.7.0/Gaussian/g16c01-CUDA-11.7.0/g16/l1112.exe)
 Leave Link 1112 at Fri May 23 04:31:35 2025, MaxMem=  3758096384 cpu:               0.1 elap:               0.0
 (Enter /apps/easybuild-2022/easybuild/software/Compiler/NVHPC/22.11-CUDA-11.7.0/Gaussian/g16c01-CUDA-11.7.0/g16/l701.exe)
 ... and contract with generalized density number  2.
 Compute integral first derivatives.
 Leave Link  701 at Fri May 23 04:31:35 2025, MaxMem=  3758096384 cpu:               0.3 elap:               0.1
 (Enter /apps/easybuild-2022/easybuild/software/Compiler/NVHPC/22.11-CUDA-11.7.0/Gaussian/g16c01-CUDA-11.7.0/g16/l702.exe)
 L702 exits ... SP integral derivatives will be done elsewhere.
 Leave Link  702 at Fri May 23 04:31:35 2025, MaxMem=  3758096384 cpu:               0.0 elap:               0.0
 (Enter /apps/easybuild-2022/easybuild/software/Compiler/NVHPC/22.11-CUDA-11.7.0/Gaussian/g16c01-CUDA-11.7.0/g16/l703.exe)
 Integral derivatives from FoFJK, PRISM(SPDF).
 Compute integral first derivatives, UseDBF=F ICtDFT=           0.
 Calling FoFJK, ICntrl=  10002127 FMM=F ISym2X=0 I1Cent= 0 IOpClX= 0 NMat=1 NMatS=1 NMatT=0.
 FoFJK:  IHMeth= 1 ICntrl=10002127 DoSepK=F KAlg= 0 I1Cent=           0 FoldK=F
 IRaf=         0 NMat=       1 IRICut=       1 DoRegI=T DoRafI=F ISym2E= 0 IDoP0=0 IntGTp=1.
 FoFCou: FMM=F IPFlag=           0 FMFlag=      100000 FMFlg1=         800
         NFxFlg=           0 DoJE=F BraDBF=F KetDBF=F FulRan=T
         wScrn=  0.000000 ICntrl=  10002127 IOpCl=  0 I1Cent=           0 NGrid=           0
         NMat0=    1 NMatS0=      1 NMatT0=    0 NMatD0=    1 NMtDS0=    0 NMtDT0=    0
 Symmetry not used in FoFCou.
 Leave Link  703 at Fri May 23 04:31:35 2025, MaxMem=  3758096384 cpu:               0.9 elap:               0.1
 (Enter /apps/easybuild-2022/easybuild/software/Compiler/NVHPC/22.11-CUDA-11.7.0/Gaussian/g16c01-CUDA-11.7.0/g16/l716.exe)
 Dipole        =-2.78251368D-02 3.58424429D-01-6.21995582D-01
 Polarizability= 0.00000000D+00 0.00000000D+00 0.00000000D+00
                 0.00000000D+00 0.00000000D+00 0.00000000D+00
 -------------------------------------------------------------------
 Center     Atomic                   Forces (Hartrees/Bohr)
 Number     Number              X              Y              Z
 -------------------------------------------------------------------
      1        6          -0.000000209   -0.000001581    0.000000710
      2        6          -0.000000270   -0.000001149    0.000001437
      3        9          -0.000000417    0.000002166   -0.000001307
      4        9           0.000000671   -0.000000380    0.000002176
      5       16           0.000001259   -0.000002387    0.000000203
      6        8           0.000002969    0.000004558   -0.000007502
      7        8          -0.000004353   -0.000000363    0.000007473
      8        8           0.000063128    0.000007421   -0.000022561
      9        9          -0.000002800    0.000001277   -0.000001502
     10        9           0.000000622   -0.000003955   -0.000003237
     11        9           0.000002072    0.000000071    0.000000941
     12        1          -0.000062672   -0.000005679    0.000023170
 -------------------------------------------------------------------
 Cartesian Forces:  Max     0.000063128 RMS     0.000016052
 Leave Link  716 at Fri May 23 04:31:35 2025, MaxMem=  3758096384 cpu:               0.1 elap:               0.0
 (Enter /apps/easybuild-2022/easybuild/software/Compiler/NVHPC/22.11-CUDA-11.7.0/Gaussian/g16c01-CUDA-11.7.0/g16/l123.exe)
 IRC-IRC-IRC-IRC-IRC-IRC-IRC-IRC-IRC-IRC-IRC-IRC-IRC-IRC-IRC-IRC-IRC-IRC
 Pt  1 Step number   1 out of a maximum of  20
 Using modified Bulirsch-Stoer corrector integration.
   Using distance weighted interpolants to fit PES.
 PreDWI: IReCr0= 2 IReCr1= 1 IReCr2= 1 IReCr3= 1
 Modified Bulirsch-Stoer Extrapolation Cycles:
    EPS =    0.000010000000000
    Cycle     1 NS=    48
      PEZero:  N= 2 I= 1 D=  5.86D-05 Err=  7.12D-04
    Cycle     2 NS=    64 Truncation Error =  0.000711557
      PEZero:  N= 3 I= 2 D=  5.86D-05 Err=  1.16D-03
      PEZero:  N= 3 I= 1 D=  1.17D-04 Err=  1.02D-03
    Cycle     3 NS=    96 Truncation Error =  0.001023069
      PEZero:  N= 4 I= 3 D=  2.93D-05 Err=  1.92D-03
      PEZero:  N= 4 I= 2 D=  8.79D-05 Err=  1.40D-03
      PEZero:  N= 4 I= 1 D=  1.47D-04 Err=  1.07D-03
    Cycle     4 NS=   128 Truncation Error =  0.001070036
      PEZero:  N= 5 I= 4 D=  2.93D-05 Err=  2.71D-03
      PEZero:  N= 5 I= 3 D=  5.86D-05 Err=  2.15D-03
      PEZero:  N= 5 I= 2 D=  1.17D-04 Err=  1.45D-03
      PEZero:  N= 5 I= 1 D=  1.76D-04 Err=  1.09D-03
    Cycle     5 NS=   192 Truncation Error =  0.001093149
      PEZero:  N= 6 I= 5 D=  1.47D-05 Err=  4.25D-03
      PEZero:  N= 6 I= 4 D=  4.40D-05 Err=  2.95D-03
      PEZero:  N= 6 I= 3 D=  7.33D-05 Err=  2.25D-03
      PEZero:  N= 6 I= 2 D=  1.32D-04 Err=  1.52D-03
      PEZero:  N= 6 I= 1 D=  1.91D-04 Err=  1.15D-03
    Cycle     6 NS=   256 Truncation Error =  0.001146435
      PEZero:  N= 7 I= 6 D=  1.47D-05 Err=  5.80D-03
      PEZero:  N= 7 I= 5 D=  2.93D-05 Err=  4.45D-03
      PEZero:  N= 7 I= 4 D=  5.86D-05 Err=  2.98D-03
      PEZero:  N= 7 I= 3 D=  8.79D-05 Err=  2.23D-03
      PEZero:  N= 7 I= 2 D=  1.47D-04 Err=  1.48D-03
      PEZero:  N= 7 I= 1 D=  2.05D-04 Err=  1.10D-03
    Cycle     7 NS=   384 Truncation Error =  0.001102832
      PEZero:  N= 8 I= 7 D=  7.33D-06 Err=  1.37D-03
      PEZero:  N= 8 I= 6 D=  2.20D-05 Err=  3.98D-03
    Cycle     8 NS=   512 Truncation Error =  0.001365197
      PEZero:  N= 9 I= 8 D=  7.33D-06 Err=  2.09D-05
      PEZero:  N= 9 I= 7 D=  1.47D-05 Err=  1.33D-03
    Cycle     9 NS=   768 Truncation Error =  0.000020884
      PEZero:  N=10 I= 9 D=  3.66D-06 Err=  1.05D-05
      PEZero:  N=10 I= 8 D=  1.10D-05 Err=  6.83D-06
      PEZero:  N=10 I= 7 D=  1.83D-05 Err=  2.68D-03
    Cycle    10 NS=  1024 Truncation Error =  0.000006833
 BS completed in   10 cycles and    3472 integration steps.
 Maximum DWI energy   std dev =  0.000000015 at pt     2
 Maximum DWI gradient std dev =  1.848429197 at pt    54
 SUMMARY OF CORRECTOR INTEGRATION:
   Predictor End Point Energy = -1196.255405
   Old End Point Energy       = -1196.255405
   Corrected End Point Energy = -1196.255405
   Predictor End-Start Dist.  =     0.022514
   Old End-Start Dist.        =     0.022514
   New End-Start Dist.        =     0.022493
   New End-Old End Dist.      =     0.000206
 CORRECTOR INTEGRATION CONVERGENCE:
   Recorrection delta-x convergence threshold:    0.010000
   Delta-x Convergence Met
 Point Number:   1          Path Number:   1
                    CURRENT STRUCTURE
                Cartesian Coordinates (Ang):                
 ---------------------------------------------------------------------
 Center     Atomic                     Coordinates (Angstroms)
 Number     Number                        X           Y           Z
 ---------------------------------------------------------------------
      1          6                   -1.178830   -0.480852    0.857799
      2          6                   -0.565767    0.209025   -0.370472
      3          9                   -0.944587   -0.458832   -1.526709
      4          9                   -0.941767    1.544763   -0.399779
      5         16                    1.437618    0.195168   -0.350756
      6          8                    1.974740    1.123160    0.827551
      7          8                    1.970767   -1.295166   -0.530179
      8          8                    1.440849    1.086638   -1.937395
      9          9                   -0.764288   -1.807258    0.907340
     10          9                   -0.761142    0.164895    2.016377
     11          9                   -2.566677   -0.436903    0.783583
     12          1                    2.379799    1.254651   -2.216644
 ---------------------------------------------------------------------
   CHANGE IN THE REACTION COORDINATE =    0.02249
   NET REACTION COORDINATE UP TO THIS POINT =    0.02249
  # OF POINTS ALONG THE PATH =   1
  # OF STEPS =   1

 PES minimum detected on this side of the pathway.
    Magnitude of the gradient =      0.0000076
 Calculation of REVERSE path complete.
 Reaction path calculation complete.
 
 Energies reported relative to the TS energy of       -1196.255405
 --------------------------------------------------------------------------
    Summary of reaction path following
 --------------------------------------------------------------------------
                        Energy    RxCoord
   1                   -0.00000  -0.02249
   2                    0.00000   0.00000
 --------------------------------------------------------------------------
 
 Total number of points:                    1
 Total number of gradient calculations:     1
 Total number of Hessian calculations:      0
 IRC-IRC-IRC-IRC-IRC-IRC-IRC-IRC-IRC-IRC-IRC-IRC-IRC-IRC-IRC-IRC-IRC-IRC
 Leave Link  123 at Fri May 23 04:31:35 2025, MaxMem=  3758096384 cpu:               0.9 elap:               0.1
 (Enter /apps/easybuild-2022/easybuild/software/Compiler/NVHPC/22.11-CUDA-11.7.0/Gaussian/g16c01-CUDA-11.7.0/g16/l202.exe)
                          Input orientation:                          
 ---------------------------------------------------------------------
 Center     Atomic      Atomic             Coordinates (Angstroms)
 Number     Number       Type             X           Y           Z
 ---------------------------------------------------------------------
      1          6           0       -1.178829   -0.480851    0.857798
      2          6           0       -0.565766    0.209026   -0.370475
      3          9           0       -0.944587   -0.458833   -1.526710
      4          9           0       -0.941767    1.544763   -0.399781
      5         16           0        1.437620    0.195166   -0.350756
      6          8           0        1.974741    1.123157    0.827556
      7          8           0        1.970771   -1.295169   -0.530176
      8          8           0        1.440833    1.086634   -1.937399
      9          9           0       -0.764285   -1.807261    0.907341
     10          9           0       -0.761141    0.164898    2.016379
     11          9           0       -2.566678   -0.436902    0.783579
     12          1           0        2.379859    1.254678   -2.216661
 ---------------------------------------------------------------------
                    Distance matrix (angstroms):
                    1          2          3          4          5
     1  C    0.000000
     2  C    1.536370   0.000000
     3  F    2.396087   1.387956   0.000000
     4  F    2.396000   1.387959   2.298777   0.000000
     5  S    2.960305   2.003531   2.735963   2.735927   0.000000
     6  O    3.538186   2.953826   4.070348   3.192197   1.593137
     7  O    3.536887   2.953325   3.192468   4.070024   1.592966
     8  O    4.139175   2.692933   2.871823   2.872444   1.819934
     9  F    1.390562   2.395336   2.788435   3.602240   3.231239
    10  F    1.390598   2.395243   3.602245   2.788275   3.230912
    11  F    1.390527   2.398481   2.822958   2.822706   4.209588
    12  H    5.012846   3.630220   3.803169   3.797157   2.343498
                    6          7          8          9         10
     6  O    0.000000
     7  O    2.773401   0.000000
     8  O    2.816268   2.816753   0.000000
     9  F    4.011979   3.131968   4.618411   0.000000
    10  F    3.133147   4.009998   4.618511   2.262606   0.000000
    11  F    4.802104   4.801148   5.077896   2.267559   2.267581
    12  H    3.073870   3.084365   0.993980   5.387068   5.382577
                   11         12
    11  F    0.000000
    12  H    6.027530   0.000000
 Symmetry turned off by external request.
 Stoichiometry    C2HF5O3S
 Rotational constants (GHZ):           1.3957693           0.7615966           0.7168765
 Leave Link  202 at Fri May 23 04:31:35 2025, MaxMem=  3758096384 cpu:               0.1 elap:               0.0
 (Enter /apps/easybuild-2022/easybuild/software/Compiler/NVHPC/22.11-CUDA-11.7.0/Gaussian/g16c01-CUDA-11.7.0/g16/l9999.exe)

 This type of calculation cannot be archived.


 COMMON SENSE IS NOT SO COMMON.   -- VOLTAIRE
 Job cpu time:       0 days  0 hours  0 minutes 23.8 seconds.
 Elapsed time:       0 days  0 hours  0 minutes  4.2 seconds.
 File lengths (MBytes):  RWF=     10 Int=      0 D2E=      0 Chk=      4 Scr=      1
 Normal termination of Gaussian 16 at Fri May 23 04:31:35 2025.
done
