 Entering Gaussian System, Link 0=g16
 Initial command:
 /apps/easybuild-2022/easybuild/software/Compiler/NVHPC/22.11-CUDA-11.7.0/Gaussian/g16c01-CUDA-11.7.0/g16/l1.exe "/tmp/Gau-74818.inp" -scrdir="/tmp/"
 Entering Link 1 = /apps/easybuild-2022/easybuild/software/Compiler/NVHPC/22.11-CUDA-11.7.0/Gaussian/g16c01-CUDA-11.7.0/g16/l1.exe PID=     74819.
  
 Copyright (c) 1988-2019, Gaussian, Inc.  All Rights Reserved.
  
 This is part of the Gaussian(R) 16 program.  It is based on
 the Gaussian(R) 09 system (copyright 2009, Gaussian, Inc.),
 the Gaussian(R) 03 system (copyright 2003, Gaussian, Inc.),
 the Gaussian(R) 98 system (copyright 1998, Gaussian, Inc.),
 the Gaussian(R) 94 system (copyright 1995, Gaussian, Inc.),
 the Gaussian 92(TM) system (copyright 1992, Gaussian, Inc.),
 the Gaussian 90(TM) system (copyright 1990, Gaussian, Inc.),
 the Gaussian 88(TM) system (copyright 1988, Gaussian, Inc.),
 the Gaussian 86(TM) system (copyright 1986, Carnegie Mellon
 University), and the Gaussian 82(TM) system (copyright 1983,
 Carnegie Mellon University). Gaussian is a federally registered
 trademark of Gaussian, Inc.
  
 This software contains proprietary and confidential information,
 including trade secrets, belonging to Gaussian, Inc.
  
 This software is provided under written license and may be
 used, copied, transmitted, or stored only in accord with that
 written license.
  
 The following legend is applicable only to US Government
 contracts under FAR:
  
                    RESTRICTED RIGHTS LEGEND
  
 Use, reproduction and disclosure by the US Government is
 subject to restrictions as set forth in subparagraphs (a)
 and (c) of the Commercial Computer Software - Restricted
 Rights clause in FAR 52.227-19.
  
 Gaussian, Inc.
 340 Quinnipiac St., Bldg. 40, Wallingford CT 06492
  
  
 ---------------------------------------------------------------
 Warning -- This program may not be used in any manner that
 competes with the business of Gaussian, Inc. or will provide
 assistance to any competitor of Gaussian, Inc.  The licensee
 of this program is prohibited from giving any competitor of
 Gaussian, Inc. access to this program.  By using this program,
 the user acknowledges that Gaussian, Inc. is engaged in the
 business of creating and licensing software in the field of
 computational chemistry and represents and warrants to the
 licensee that it is not a competitor of Gaussian, Inc. and that
 it will not use this program in any manner prohibited above.
 ---------------------------------------------------------------
  

 Cite this work as:
 Gaussian 16, Revision C.01,
 M. J. Frisch, G. W. Trucks, H. B. Schlegel, G. E. Scuseria, 
 M. A. Robb, J. R. Cheeseman, G. Scalmani, V. Barone, 
 G. A. Petersson, H. Nakatsuji, X. Li, M. Caricato, A. V. Marenich, 
 J. Bloino, B. G. Janesko, R. Gomperts, B. Mennucci, H. P. Hratchian, 
 J. V. Ortiz, A. F. Izmaylov, J. L. Sonnenberg, D. Williams-Young, 
 F. Ding, F. Lipparini, F. Egidi, J. Goings, B. Peng, A. Petrone, 
 T. Henderson, D. Ranasinghe, V. G. Zakrzewski, J. Gao, N. Rega, 
 G. Zheng, W. Liang, M. Hada, M. Ehara, K. Toyota, R. Fukuda, 
 J. Hasegawa, M. Ishida, T. Nakajima, Y. Honda, O. Kitao, H. Nakai, 
 T. Vreven, K. Throssell, J. A. Montgomery, Jr., J. E. Peralta, 
 F. Ogliaro, M. J. Bearpark, J. J. Heyd, E. N. Brothers, K. N. Kudin, 
 V. N. Staroverov, T. A. Keith, R. Kobayashi, J. Normand, 
 K. Raghavachari, A. P. Rendell, J. C. Burant, S. S. Iyengar, 
 J. Tomasi, M. Cossi, J. M. Millam, M. Klene, C. Adamo, R. Cammi, 
 J. W. Ochterski, R. L. Martin, K. Morokuma, O. Farkas, 
 J. B. Foresman, and D. J. Fox, Gaussian, Inc., Wallingford CT, 2019.
 
 ******************************************
 Gaussian 16:  ES64L-G16RevC.01  3-Jul-2019
                23-May-2025 
 ******************************************
 %mem=28GB
 %chk=2003846667223680600001_r13_insertion_RSR_9_1_2_5_IRC_F_prod
 %nprocshared=8
 Will use up to    8 processors via shared memory.
 ----------------------------------------------------------------------
 #P wb97xd/6-311++G(d,p) Symm(None) scf(xqc) pop(None) freq opt(CalcFC)
 ----------------------------------------------------------------------
 1/10=4,18=20,19=15,26=3,38=1/1,3;
 2/9=110,12=2,15=3,17=6,18=5,40=1/2;
 3/5=4,6=6,7=1111,11=2,25=1,30=1,71=2,74=-58,140=1/1,2,3;
 4//1;
 5/5=2,8=3,13=1,38=5/2,8;
 8/6=4,10=90,11=11/1;
 11/6=1,8=1,9=11,15=111,16=1,31=1/1,2,10;
 10/6=1,13=1,31=1/2;
 7/10=1,25=1,30=1/1,2,3,16;
 1/10=4,18=20,19=15,26=3/3(2);
 2/9=110,15=3/2;
 99//99;
 2/9=110,15=3/2;
 3/5=4,6=6,7=1111,11=2,25=1,30=1,71=1,74=-58/1,2,3;
 4/5=5,16=3,69=1/1;
 5/5=2,8=3,13=1,38=5/2,8;
 7/30=1/1,2,3,16;
 1/18=20,19=15,26=3/3(-5);
 2/9=110,15=3/2;
 99/9=1/99;
 Leave Link    1 at Fri May 23 04:44:32 2025, MaxMem=  3758096384 cpu:               0.1 elap:               0.0
 (Enter /apps/easybuild-2022/easybuild/software/Compiler/NVHPC/22.11-CUDA-11.7.0/Gaussian/g16c01-CUDA-11.7.0/g16/l101.exe)
 ------------------------------
 Gaussian input prepared by ASE
 ------------------------------
 Symbolic Z-matrix:
 Charge =  0 Multiplicity = 1
 C                     0.16414  -1.41147  -0.30647 
 C                     0.8612   -0.03582  -0.13032 
 F                     1.72098  -0.01535   0.8827 
 F                     1.51874   0.33786  -1.21297 
 S                    -0.59163   1.24579   0.34605 
 O                    -0.6274    0.99656   1.76902 
 O                    -0.15151   2.38706  -0.39857 
 O                    -2.15463   1.16322  -0.09471 
 F                    -1.14836  -1.1392   -0.39592 
 F                     0.50964  -2.03044  -1.41879 
 F                     0.3564   -2.19489   0.73655 
 H                    -2.63186   0.5952    0.52517 
 
 ITRead=  0  0  0  0  0  0  0  0  0  0  0  0
 MicOpt= -1 -1 -1 -1 -1 -1 -1 -1 -1 -1 -1 -1
 NAtoms=     12 NQM=       12 NQMF=       0 NMMI=      0 NMMIF=      0
                NMic=       0 NMicF=      0.
                    Isotopes and Nuclear Properties:
 (Nuclear quadrupole moments (NQMom) in fm**2, nuclear magnetic moments (NMagM)
  in nuclear magnetons)

  Atom         1           2           3           4           5           6           7           8           9          10
 IAtWgt=          12          12          19          19          32          16          16          16          19          19
 AtmWgt=  12.0000000  12.0000000  18.9984032  18.9984032  31.9720718  15.9949146  15.9949146  15.9949146  18.9984032  18.9984032
 NucSpn=           0           0           1           1           0           0           0           0           1           1
 AtZEff=  -0.0000000  -0.0000000  -0.0000000  -0.0000000  -0.0000000  -0.0000000  -0.0000000  -0.0000000  -0.0000000  -0.0000000
 NQMom=    0.0000000   0.0000000   0.0000000   0.0000000   0.0000000   0.0000000   0.0000000   0.0000000   0.0000000   0.0000000
 NMagM=    0.0000000   0.0000000   2.6288670   2.6288670   0.0000000   0.0000000   0.0000000   0.0000000   2.6288670   2.6288670
 AtZNuc=   6.0000000   6.0000000   9.0000000   9.0000000  16.0000000   8.0000000   8.0000000   8.0000000   9.0000000   9.0000000

  Atom        11          12
 IAtWgt=          19           1
 AtmWgt=  18.9984032   1.0078250
 NucSpn=           1           1
 AtZEff=  -0.0000000  -0.0000000
 NQMom=    0.0000000   0.0000000
 NMagM=    2.6288670   2.7928460
 AtZNuc=   9.0000000   1.0000000
 Leave Link  101 at Fri May 23 04:44:32 2025, MaxMem=  3758096384 cpu:               0.2 elap:               0.2
 (Enter /apps/easybuild-2022/easybuild/software/Compiler/NVHPC/22.11-CUDA-11.7.0/Gaussian/g16c01-CUDA-11.7.0/g16/l103.exe)

 GradGradGradGradGradGradGradGradGradGradGradGradGradGradGradGradGradGrad
 Berny optimization.
 Initialization pass.
                           ----------------------------
                           !    Initial Parameters    !
                           ! (Angstroms and Degrees)  !
 --------------------------                            --------------------------
 ! Name  Definition              Value          Derivative Info.                !
 --------------------------------------------------------------------------------
 ! R1    R(1,2)                  1.5522         calculate D2E/DX2 analytically  !
 ! R2    R(1,9)                  1.3434         calculate D2E/DX2 analytically  !
 ! R3    R(1,10)                 1.319          calculate D2E/DX2 analytically  !
 ! R4    R(1,11)                 1.3186         calculate D2E/DX2 analytically  !
 ! R5    R(2,3)                  1.3289         calculate D2E/DX2 analytically  !
 ! R6    R(2,4)                  1.3207         calculate D2E/DX2 analytically  !
 ! R7    R(2,5)                  1.995          calculate D2E/DX2 analytically  !
 ! R8    R(5,6)                  1.4451         calculate D2E/DX2 analytically  !
 ! R9    R(5,7)                  1.432          calculate D2E/DX2 analytically  !
 ! R10   R(5,8)                  1.6261         calculate D2E/DX2 analytically  !
 ! R11   R(8,12)                 0.9668         calculate D2E/DX2 analytically  !
 ! A1    A(2,1,9)              105.4668         calculate D2E/DX2 analytically  !
 ! A2    A(2,1,10)             113.2015         calculate D2E/DX2 analytically  !
 ! A3    A(2,1,11)             111.7973         calculate D2E/DX2 analytically  !
 ! A4    A(9,1,10)             107.1497         calculate D2E/DX2 analytically  !
 ! A5    A(9,1,11)             108.3933         calculate D2E/DX2 analytically  !
 ! A6    A(10,1,11)            110.4912         calculate D2E/DX2 analytically  !
 ! A7    A(1,2,3)              112.9992         calculate D2E/DX2 analytically  !
 ! A8    A(1,2,4)              112.4159         calculate D2E/DX2 analytically  !
 ! A9    A(1,2,5)              105.6285         calculate D2E/DX2 analytically  !
 ! A10   A(3,2,4)              107.3642         calculate D2E/DX2 analytically  !
 ! A11   A(3,2,5)              106.2149         calculate D2E/DX2 analytically  !
 ! A12   A(4,2,5)              112.1207         calculate D2E/DX2 analytically  !
 ! A13   A(2,5,6)               98.1843         calculate D2E/DX2 analytically  !
 ! A14   A(2,5,7)               99.4389         calculate D2E/DX2 analytically  !
 ! A15   A(2,5,8)              127.0592         calculate D2E/DX2 analytically  !
 ! A16   A(6,5,7)              131.0781         calculate D2E/DX2 analytically  !
 ! A17   A(6,5,8)              103.5545         calculate D2E/DX2 analytically  !
 ! A18   A(7,5,8)              101.2414         calculate D2E/DX2 analytically  !
 ! A19   A(5,8,12)             109.3004         calculate D2E/DX2 analytically  !
 ! D1    D(9,1,2,3)            130.4474         calculate D2E/DX2 analytically  !
 ! D2    D(9,1,2,4)           -107.8302         calculate D2E/DX2 analytically  !
 ! D3    D(9,1,2,5)             14.7423         calculate D2E/DX2 analytically  !
 ! D4    D(10,1,2,3)          -112.7144         calculate D2E/DX2 analytically  !
 ! D5    D(10,1,2,4)             9.008          calculate D2E/DX2 analytically  !
 ! D6    D(10,1,2,5)           131.5806         calculate D2E/DX2 analytically  !
 ! D7    D(11,1,2,3)            12.8496         calculate D2E/DX2 analytically  !
 ! D8    D(11,1,2,4)           134.5719         calculate D2E/DX2 analytically  !
 ! D9    D(11,1,2,5)          -102.8555         calculate D2E/DX2 analytically  !
 ! D10   D(1,2,5,6)             84.5476         calculate D2E/DX2 analytically  !
 ! D11   D(1,2,5,7)           -141.276          calculate D2E/DX2 analytically  !
 ! D12   D(1,2,5,8)            -29.3639         calculate D2E/DX2 analytically  !
 ! D13   D(3,2,5,6)            -35.7092         calculate D2E/DX2 analytically  !
 ! D14   D(3,2,5,7)             98.4671         calculate D2E/DX2 analytically  !
 ! D15   D(3,2,5,8)           -149.6207         calculate D2E/DX2 analytically  !
 ! D16   D(4,2,5,6)           -152.6913         calculate D2E/DX2 analytically  !
 ! D17   D(4,2,5,7)            -18.515          calculate D2E/DX2 analytically  !
 ! D18   D(4,2,5,8)             93.3972         calculate D2E/DX2 analytically  !
 ! D19   D(2,5,8,12)            85.1221         calculate D2E/DX2 analytically  !
 ! D20   D(6,5,8,12)           -26.3201         calculate D2E/DX2 analytically  !
 ! D21   D(7,5,8,12)          -163.8009         calculate D2E/DX2 analytically  !
 --------------------------------------------------------------------------------
 Trust Radius=3.00D-01 FncErr=1.00D-07 GrdErr=1.00D-06 EigMax=2.50D+02 EigMin=1.00D-04
 Number of steps in this run=     61 maximum allowed number of steps=    100.
 GradGradGradGradGradGradGradGradGradGradGradGradGradGradGradGradGradGrad

 Leave Link  103 at Fri May 23 04:44:32 2025, MaxMem=  3758096384 cpu:               0.1 elap:               0.0
 (Enter /apps/easybuild-2022/easybuild/software/Compiler/NVHPC/22.11-CUDA-11.7.0/Gaussian/g16c01-CUDA-11.7.0/g16/l202.exe)
                          Input orientation:                          
 ---------------------------------------------------------------------
 Center     Atomic      Atomic             Coordinates (Angstroms)
 Number     Number       Type             X           Y           Z
 ---------------------------------------------------------------------
      1          6           0        0.164142   -1.411466   -0.306468
      2          6           0        0.861199   -0.035817   -0.130323
      3          9           0        1.720979   -0.015347    0.882700
      4          9           0        1.518740    0.337859   -1.212971
      5         16           0       -0.591630    1.245789    0.346053
      6          8           0       -0.627395    0.996557    1.769023
      7          8           0       -0.151510    2.387062   -0.398567
      8          8           0       -2.154629    1.163224   -0.094713
      9          9           0       -1.148355   -1.139199   -0.395917
     10          9           0        0.509644   -2.030441   -1.418791
     11          9           0        0.356402   -2.194888    0.736545
     12          1           0       -2.631863    0.595201    0.525172
 ---------------------------------------------------------------------
                    Distance matrix (angstroms):
                    1          2          3          4          5
     1  C    0.000000
     2  C    1.552200   0.000000
     3  F    2.405621   1.328855   0.000000
     4  F    2.390988   1.320652   2.134828   0.000000
     5  S    2.838658   1.995034   2.688236   2.776428   0.000000
     6  O    3.276090   2.624733   2.706359   3.732568   1.445074
     7  O    3.812733   2.639674   3.304456   2.766265   1.432016
     8  O    3.471393   3.245641   4.167098   3.927514   1.626056
     9  F    1.343421   2.307878   3.336313   3.156370   2.559029
    10  F    1.319001   2.400472   3.290106   2.582534   3.880871
    11  F    1.318556   2.380728   2.575622   3.400948   3.590196
    12  H    3.540619   3.609618   4.409969   4.507202   2.148930
                    6          7          8          9         10
     6  O    0.000000
     7  O    2.618858   0.000000
     8  O    2.415312   2.366980   0.000000
     9  F    3.085420   3.664454   2.530704   0.000000
    10  F    4.540675   4.581737   4.364748   2.142322   0.000000
    11  F    3.495596   4.747707   4.274714   2.158991   2.167025
    12  H    2.392936   3.196281   0.966778   2.461167   4.532334
                   11         12
    11  F    0.000000
    12  H    4.093776   0.000000
 Symmetry turned off by external request.
 Stoichiometry    C2HF5O3S
 Rotational constants (GHZ):           1.4713634           0.8595305           0.7732541
 Leave Link  202 at Fri May 23 04:44:32 2025, MaxMem=  3758096384 cpu:               0.0 elap:               0.0
 (Enter /apps/easybuild-2022/easybuild/software/Compiler/NVHPC/22.11-CUDA-11.7.0/Gaussian/g16c01-CUDA-11.7.0/g16/l301.exe)
 Standard basis: 6-311++G(d,p) (5D, 7F)
 Ernie: Thresh=  0.10000D-02 Tol=  0.10000D-05 Strict=F.
   257 basis functions,   419 primitive gaussians,   268 cartesian basis functions
    49 alpha electrons       49 beta electrons
       nuclear repulsion energy       919.8806120197 Hartrees.
 IExCor= 4639 DFT=T Ex+Corr=wB97XD ExCW=0 ScaHFX=  1.000000
 ScaDFX=  1.000000  1.000000  1.000000  1.000000 ScalE2=  1.000000  1.000000
 IRadAn=      5 IRanWt=     -1 IRanGd=            0 ICorTp=0 IEmpDi=121
 HFx  wShort=  0.000000 wLong=  0.200000 cFull=  0.222036 cShort=  0.000000 cLong=  0.777964
 DFx  wShort=  0.000000 wLong=  0.200000 cFull=  0.000000 cShort=  0.000000 cLong=  1.000000
 NAtoms=   12 NActive=   12 NUniq=   12 SFac= 1.00D+00 NAtFMM=   60 NAOKFM=F Big=F
 Integral buffers will be    131072 words long.
 Raffenetti 2 integral format.
 Two-electron integral symmetry is turned off.
 R6Disp:  Grimme-D2 Dispersion energy=       -0.0053945933 Hartrees.
 Nuclear repulsion after empirical dispersion term =      919.8752174264 Hartrees.
 Leave Link  301 at Fri May 23 04:44:32 2025, MaxMem=  3758096384 cpu:               0.1 elap:               0.0
 (Enter /apps/easybuild-2022/easybuild/software/Compiler/NVHPC/22.11-CUDA-11.7.0/Gaussian/g16c01-CUDA-11.7.0/g16/l302.exe)
 NPDir=0 NMtPBC=     1 NCelOv=     1 NCel=       1 NClECP=     1 NCelD=      1
         NCelK=      1 NCelE2=     1 NClLst=     1 CellRange=     0.0.
 One-electron integrals computed using PRISM.
 NBasis=   257 RedAO= T EigKep=  6.45D-05  NBF=   257
 NBsUse=   257 1.00D-06 EigRej= -1.00D+00 NBFU=   257
 Precomputing XC quadrature grid using
 IXCGrd= 4 IRadAn=           5 IRanWt=          -1 IRanGd=           0 AccXCQ= 0.00D+00.
 Generated NRdTot=       0 NPtTot=           0 NUsed=           0 NTot=          32
 NSgBfM=   268   268   268   268   268 MxSgAt=    12 MxSgA2=    12.
 Leave Link  302 at Fri May 23 04:44:33 2025, MaxMem=  3758096384 cpu:               0.5 elap:               0.2
 (Enter /apps/easybuild-2022/easybuild/software/Compiler/NVHPC/22.11-CUDA-11.7.0/Gaussian/g16c01-CUDA-11.7.0/g16/l303.exe)
 DipDrv:  MaxL=1.
 Leave Link  303 at Fri May 23 04:44:33 2025, MaxMem=  3758096384 cpu:               0.1 elap:               0.1
 (Enter /apps/easybuild-2022/easybuild/software/Compiler/NVHPC/22.11-CUDA-11.7.0/Gaussian/g16c01-CUDA-11.7.0/g16/l401.exe)
 ExpMin= 3.60D-02 ExpMax= 9.34D+04 ExpMxC= 3.17D+03 IAcc=3 IRadAn=         5 AccDes= 0.00D+00
 Harris functional with IExCor= 4639 and IRadAn=       5 diagonalized for initial guess.
 HarFok:  IExCor= 4639 AccDes= 0.00D+00 IRadAn=         5 IDoV= 1 UseB2=F ITyADJ=14
 ICtDFT=  3500011 ScaDFX=  1.000000  1.000000  1.000000  1.000000
 FoFCou: FMM=F IPFlag=           0 FMFlag=      100000 FMFlg1=           0
         NFxFlg=           0 DoJE=T BraDBF=F KetDBF=T FulRan=T
         wScrn=  0.000000 ICntrl=       500 IOpCl=  0 I1Cent=   200000004 NGrid=           0
         NMat0=    1 NMatS0=      1 NMatT0=    0 NMatD0=    1 NMtDS0=    0 NMtDT0=    0
 Symmetry not used in FoFCou.
 Harris En= -1167.08090209616    
 JPrj=0 DoOrth=F DoCkMO=F.
 Leave Link  401 at Fri May 23 04:44:33 2025, MaxMem=  3758096384 cpu:               2.2 elap:               0.4
 (Enter /apps/easybuild-2022/easybuild/software/Compiler/NVHPC/22.11-CUDA-11.7.0/Gaussian/g16c01-CUDA-11.7.0/g16/l502.exe)
 Keep R1 ints in memory in canonical form, NReq=1117474609.
 FoFCou: FMM=F IPFlag=           0 FMFlag=           0 FMFlg1=           0
         NFxFlg=           0 DoJE=F BraDBF=F KetDBF=F FulRan=T
         wScrn=  0.000000 ICntrl=       600 IOpCl=  0 I1Cent=           0 NGrid=           0
         NMat0=    1 NMatS0=  33153 NMatT0=    0 NMatD0=    1 NMtDS0=    0 NMtDT0=    0
 Symmetry not used in FoFCou.
 Two-electron integral symmetry not used.
 Closed shell SCF:
 Using DIIS extrapolation, IDIIS=  1040.
 NGot=  3758096384 LenX=  2658793876 LenY=  2658721611
 Requested convergence on RMS density matrix=1.00D-08 within  32 cycles.
 Requested convergence on MAX density matrix=1.00D-06.
 Requested convergence on             energy=1.00D-06.
 No special actions if energy rises.

 Cycle   1  Pass 1  IDiag  1:
 E= -1199.10390284000    
 DIIS: error= 1.33D-01 at cycle   1 NSaved=   1.
 NSaved= 1 IEnMin= 1 EnMin= -1199.10390284000     IErMin= 1 ErrMin= 1.33D-01
 ErrMax= 1.33D-01  0.00D+00 EMaxC= 1.00D-01 BMatC= 3.34D+00 BMatP= 3.34D+00
 IDIUse=3 WtCom= 0.00D+00 WtEn= 1.00D+00
 Coeff-Com:  0.100D+01
 Coeff-En:   0.100D+01
 Coeff:      0.100D+01
 Gap=     0.630 Goal=   None    Shift=    0.000
 GapD=    0.630 DampG=2.000 DampE=0.250 DampFc=0.5000 IDamp=-1.
 Damping current iteration by 5.00D-01
 RMSDP=8.41D-03 MaxDP=3.81D-01              OVMax= 1.73D-01

 Cycle   2  Pass 1  IDiag  1:
 E= -1199.45555204749     Delta-E=       -0.351649207490 Rises=F Damp=T
 DIIS: error= 5.73D-02 at cycle   2 NSaved=   2.
 NSaved= 2 IEnMin= 2 EnMin= -1199.45555204749     IErMin= 2 ErrMin= 5.73D-02
 ErrMax= 5.73D-02  0.00D+00 EMaxC= 1.00D-01 BMatC= 4.81D-01 BMatP= 3.34D+00
 IDIUse=3 WtCom= 4.27D-01 WtEn= 5.73D-01
 Coeff-Com: -0.393D+00 0.139D+01
 Coeff-En:   0.000D+00 0.100D+01
 Coeff:     -0.168D+00 0.117D+01
 Gap=     0.464 Goal=   None    Shift=    0.000
 RMSDP=2.69D-03 MaxDP=1.34D-01 DE=-3.52D-01 OVMax= 1.01D-01

 Cycle   3  Pass 1  IDiag  1:
 E= -1199.75162464322     Delta-E=       -0.296072595723 Rises=F Damp=F
 DIIS: error= 1.22D-02 at cycle   3 NSaved=   3.
 NSaved= 3 IEnMin= 3 EnMin= -1199.75162464322     IErMin= 3 ErrMin= 1.22D-02
 ErrMax= 1.22D-02  0.00D+00 EMaxC= 1.00D-01 BMatC= 5.99D-02 BMatP= 4.81D-01
 IDIUse=3 WtCom= 8.78D-01 WtEn= 1.22D-01
 Coeff-Com: -0.149D+00 0.444D+00 0.705D+00
 Coeff-En:   0.000D+00 0.000D+00 0.100D+01
 Coeff:     -0.131D+00 0.390D+00 0.741D+00
 Gap=     0.389 Goal=   None    Shift=    0.000
 RMSDP=2.71D-03 MaxDP=1.70D-01 DE=-2.96D-01 OVMax= 5.85D-02

 Cycle   4  Pass 1  IDiag  1:
 E= -1199.77741155677     Delta-E=       -0.025786913558 Rises=F Damp=F
 DIIS: error= 5.92D-03 at cycle   4 NSaved=   4.
 NSaved= 4 IEnMin= 4 EnMin= -1199.77741155677     IErMin= 4 ErrMin= 5.92D-03
 ErrMax= 5.92D-03  0.00D+00 EMaxC= 1.00D-01 BMatC= 1.75D-02 BMatP= 5.99D-02
 IDIUse=3 WtCom= 9.41D-01 WtEn= 5.92D-02
 Coeff-Com: -0.297D-01 0.773D-01 0.370D+00 0.583D+00
 Coeff-En:   0.000D+00 0.000D+00 0.236D+00 0.764D+00
 Coeff:     -0.280D-01 0.727D-01 0.362D+00 0.593D+00
 Gap=     0.403 Goal=   None    Shift=    0.000
 RMSDP=1.18D-03 MaxDP=7.61D-02 DE=-2.58D-02 OVMax= 2.66D-02

 Cycle   5  Pass 1  IDiag  1:
 E= -1199.78826154086     Delta-E=       -0.010849984084 Rises=F Damp=F
 DIIS: error= 1.46D-03 at cycle   5 NSaved=   5.
 NSaved= 5 IEnMin= 5 EnMin= -1199.78826154086     IErMin= 5 ErrMin= 1.46D-03
 ErrMax= 1.46D-03  0.00D+00 EMaxC= 1.00D-01 BMatC= 9.51D-04 BMatP= 1.75D-02
 IDIUse=3 WtCom= 9.85D-01 WtEn= 1.46D-02
 Coeff-Com: -0.638D-02 0.147D-01 0.156D+00 0.318D+00 0.518D+00
 Coeff-En:   0.000D+00 0.000D+00 0.000D+00 0.000D+00 0.100D+01
 Coeff:     -0.629D-02 0.145D-01 0.154D+00 0.313D+00 0.525D+00
 Gap=     0.399 Goal=   None    Shift=    0.000
 RMSDP=1.65D-04 MaxDP=8.72D-03 DE=-1.08D-02 OVMax= 5.02D-03

 Cycle   6  Pass 1  IDiag  1:
 E= -1199.78883139049     Delta-E=       -0.000569849631 Rises=F Damp=F
 DIIS: error= 1.86D-04 at cycle   6 NSaved=   6.
 NSaved= 6 IEnMin= 6 EnMin= -1199.78883139049     IErMin= 6 ErrMin= 1.86D-04
 ErrMax= 1.86D-04  0.00D+00 EMaxC= 1.00D-01 BMatC= 1.72D-05 BMatP= 9.51D-04
 IDIUse=3 WtCom= 9.98D-01 WtEn= 1.86D-03
 Coeff-Com:  0.175D-02-0.469D-02 0.153D-02 0.250D-01 0.125D+00 0.852D+00
 Coeff-En:   0.000D+00 0.000D+00 0.000D+00 0.000D+00 0.000D+00 0.100D+01
 Coeff:      0.175D-02-0.468D-02 0.152D-02 0.249D-01 0.124D+00 0.852D+00
 Gap=     0.399 Goal=   None    Shift=    0.000
 RMSDP=3.44D-05 MaxDP=1.35D-03 DE=-5.70D-04 OVMax= 1.09D-03

 Cycle   7  Pass 1  IDiag  1:
 E= -1199.78884836577     Delta-E=       -0.000016975279 Rises=F Damp=F
 DIIS: error= 3.68D-05 at cycle   7 NSaved=   7.
 NSaved= 7 IEnMin= 7 EnMin= -1199.78884836577     IErMin= 7 ErrMin= 3.68D-05
 ErrMax= 3.68D-05  0.00D+00 EMaxC= 1.00D-01 BMatC= 1.05D-06 BMatP= 1.72D-05
 IDIUse=1 WtCom= 1.00D+00 WtEn= 0.00D+00
 Coeff-Com:  0.836D-03-0.195D-02-0.123D-01-0.208D-01-0.312D-01 0.132D+00
 Coeff-Com:  0.933D+00
 Coeff:      0.836D-03-0.195D-02-0.123D-01-0.208D-01-0.312D-01 0.132D+00
 Coeff:      0.933D+00
 Gap=     0.399 Goal=   None    Shift=    0.000
 RMSDP=1.26D-05 MaxDP=5.98D-04 DE=-1.70D-05 OVMax= 3.94D-04

 Cycle   8  Pass 1  IDiag  1:
 E= -1199.78884952244     Delta-E=       -0.000001156668 Rises=F Damp=F
 DIIS: error= 1.63D-05 at cycle   8 NSaved=   8.
 NSaved= 8 IEnMin= 8 EnMin= -1199.78884952244     IErMin= 8 ErrMin= 1.63D-05
 ErrMax= 1.63D-05  0.00D+00 EMaxC= 1.00D-01 BMatC= 1.39D-07 BMatP= 1.05D-06
 IDIUse=1 WtCom= 1.00D+00 WtEn= 0.00D+00
 Coeff-Com:  0.315D-03-0.716D-03-0.561D-02-0.105D-01-0.190D-01 0.277D-01
 Coeff-Com:  0.402D+00 0.606D+00
 Coeff:      0.315D-03-0.716D-03-0.561D-02-0.105D-01-0.190D-01 0.277D-01
 Coeff:      0.402D+00 0.606D+00
 Gap=     0.399 Goal=   None    Shift=    0.000
 RMSDP=2.24D-06 MaxDP=7.59D-05 DE=-1.16D-06 OVMax= 6.89D-05

 Cycle   9  Pass 1  IDiag  1:
 E= -1199.78884962212     Delta-E=       -0.000000099684 Rises=F Damp=F
 DIIS: error= 4.39D-06 at cycle   9 NSaved=   9.
 NSaved= 9 IEnMin= 9 EnMin= -1199.78884962212     IErMin= 9 ErrMin= 4.39D-06
 ErrMax= 4.39D-06  0.00D+00 EMaxC= 1.00D-01 BMatC= 1.29D-08 BMatP= 1.39D-07
 IDIUse=1 WtCom= 1.00D+00 WtEn= 0.00D+00
 Coeff-Com: -0.559D-04 0.134D-03 0.465D-03 0.444D-03 0.226D-03-0.990D-02
 Coeff-Com: -0.473D-01 0.191D+00 0.865D+00
 Coeff:     -0.559D-04 0.134D-03 0.465D-03 0.444D-03 0.226D-03-0.990D-02
 Coeff:     -0.473D-01 0.191D+00 0.865D+00
 Gap=     0.399 Goal=   None    Shift=    0.000
 RMSDP=2.04D-06 MaxDP=1.29D-04 DE=-9.97D-08 OVMax= 5.26D-05

 Cycle  10  Pass 1  IDiag  1:
 E= -1199.78884963612     Delta-E=       -0.000000014002 Rises=F Damp=F
 DIIS: error= 2.66D-06 at cycle  10 NSaved=  10.
 NSaved=10 IEnMin=10 EnMin= -1199.78884963612     IErMin=10 ErrMin= 2.66D-06
 ErrMax= 2.66D-06  0.00D+00 EMaxC= 1.00D-01 BMatC= 2.98D-09 BMatP= 1.29D-08
 IDIUse=1 WtCom= 1.00D+00 WtEn= 0.00D+00
 Coeff-Com: -0.576D-04 0.133D-03 0.684D-03 0.109D-02 0.162D-02-0.731D-02
 Coeff-Com: -0.582D-01 0.460D-01 0.442D+00 0.574D+00
 Coeff:     -0.576D-04 0.133D-03 0.684D-03 0.109D-02 0.162D-02-0.731D-02
 Coeff:     -0.582D-01 0.460D-01 0.442D+00 0.574D+00
 Gap=     0.399 Goal=   None    Shift=    0.000
 RMSDP=4.40D-07 MaxDP=1.65D-05 DE=-1.40D-08 OVMax= 1.55D-05

 Cycle  11  Pass 1  IDiag  1:
 E= -1199.78884963857     Delta-E=       -0.000000002449 Rises=F Damp=F
 DIIS: error= 7.64D-07 at cycle  11 NSaved=  11.
 NSaved=11 IEnMin=11 EnMin= -1199.78884963857     IErMin=11 ErrMin= 7.64D-07
 ErrMax= 7.64D-07  0.00D+00 EMaxC= 1.00D-01 BMatC= 3.40D-10 BMatP= 2.98D-09
 IDIUse=1 WtCom= 1.00D+00 WtEn= 0.00D+00
 Coeff-Com: -0.126D-04 0.277D-04 0.156D-03 0.335D-03 0.559D-03-0.773D-03
 Coeff-Com: -0.139D-01-0.227D-01 0.163D-02 0.240D+00 0.795D+00
 Coeff:     -0.126D-04 0.277D-04 0.156D-03 0.335D-03 0.559D-03-0.773D-03
 Coeff:     -0.139D-01-0.227D-01 0.163D-02 0.240D+00 0.795D+00
 Gap=     0.399 Goal=   None    Shift=    0.000
 RMSDP=1.95D-07 MaxDP=8.89D-06 DE=-2.45D-09 OVMax= 6.42D-06

 Cycle  12  Pass 1  IDiag  1:
 E= -1199.78884963881     Delta-E=       -0.000000000241 Rises=F Damp=F
 DIIS: error= 2.35D-07 at cycle  12 NSaved=  12.
 NSaved=12 IEnMin=12 EnMin= -1199.78884963881     IErMin=12 ErrMin= 2.35D-07
 ErrMax= 2.35D-07  0.00D+00 EMaxC= 1.00D-01 BMatC= 3.28D-11 BMatP= 3.40D-10
 IDIUse=1 WtCom= 1.00D+00 WtEn= 0.00D+00
 Coeff-Com: -0.738D-06 0.120D-05 0.110D-04 0.586D-04 0.129D-03 0.365D-03
 Coeff-Com: -0.121D-02-0.135D-01-0.343D-01 0.531D-01 0.336D+00 0.660D+00
 Coeff:     -0.738D-06 0.120D-05 0.110D-04 0.586D-04 0.129D-03 0.365D-03
 Coeff:     -0.121D-02-0.135D-01-0.343D-01 0.531D-01 0.336D+00 0.660D+00
 Gap=     0.399 Goal=   None    Shift=    0.000
 RMSDP=4.64D-08 MaxDP=1.93D-06 DE=-2.41D-10 OVMax= 2.09D-06

 Cycle  13  Pass 1  IDiag  1:
 E= -1199.78884963886     Delta-E=       -0.000000000051 Rises=F Damp=F
 DIIS: error= 9.84D-08 at cycle  13 NSaved=  13.
 NSaved=13 IEnMin=13 EnMin= -1199.78884963886     IErMin=13 ErrMin= 9.84D-08
 ErrMax= 9.84D-08  0.00D+00 EMaxC= 1.00D-01 BMatC= 4.03D-12 BMatP= 3.28D-11
 IDIUse=1 WtCom= 1.00D+00 WtEn= 0.00D+00
 Coeff-Com:  0.164D-05-0.375D-05-0.190D-04-0.286D-04-0.347D-04 0.203D-03
 Coeff-Com:  0.146D-02-0.184D-02-0.129D-01-0.136D-01 0.196D-01 0.254D+00
 Coeff-Com:  0.753D+00
 Coeff:      0.164D-05-0.375D-05-0.190D-04-0.286D-04-0.347D-04 0.203D-03
 Coeff:      0.146D-02-0.184D-02-0.129D-01-0.136D-01 0.196D-01 0.254D+00
 Coeff:      0.753D+00
 Gap=     0.399 Goal=   None    Shift=    0.000
 RMSDP=2.16D-08 MaxDP=8.88D-07 DE=-5.09D-11 OVMax= 7.86D-07

 Cycle  14  Pass 1  IDiag  1:
 E= -1199.78884963885     Delta-E=        0.000000000016 Rises=F Damp=F
 DIIS: error= 2.79D-08 at cycle  14 NSaved=  14.
 NSaved=14 IEnMin=13 EnMin= -1199.78884963886     IErMin=14 ErrMin= 2.79D-08
 ErrMax= 2.79D-08  0.00D+00 EMaxC= 1.00D-01 BMatC= 5.26D-13 BMatP= 4.03D-12
 IDIUse=1 WtCom= 1.00D+00 WtEn= 0.00D+00
 Coeff-Com:  0.600D-06-0.129D-05-0.637D-05-0.164D-04-0.260D-04 0.131D-04
 Coeff-Com:  0.595D-03 0.159D-02 0.147D-02-0.142D-01-0.487D-01-0.107D-01
 Coeff-Com:  0.271D+00 0.799D+00
 Coeff:      0.600D-06-0.129D-05-0.637D-05-0.164D-04-0.260D-04 0.131D-04
 Coeff:      0.595D-03 0.159D-02 0.147D-02-0.142D-01-0.487D-01-0.107D-01
 Coeff:      0.271D+00 0.799D+00
 Gap=     0.399 Goal=   None    Shift=    0.000
 RMSDP=1.01D-08 MaxDP=3.09D-07 DE= 1.64D-11 OVMax= 3.92D-07

 Cycle  15  Pass 1  IDiag  1:
 E= -1199.78884963879     Delta-E=        0.000000000053 Rises=F Damp=F
 DIIS: error= 8.74D-09 at cycle  15 NSaved=  15.
 NSaved=15 IEnMin=13 EnMin= -1199.78884963886     IErMin=15 ErrMin= 8.74D-09
 ErrMax= 8.74D-09  0.00D+00 EMaxC= 1.00D-01 BMatC= 3.01D-14 BMatP= 5.26D-13
 IDIUse=1 WtCom= 1.00D+00 WtEn= 0.00D+00
 Coeff-Com: -0.858D-07 0.200D-06 0.667D-06-0.160D-06-0.300D-05-0.173D-04
 Coeff-Com: -0.204D-04 0.442D-03 0.150D-02-0.865D-03-0.997D-02-0.271D-01
 Coeff-Com: -0.374D-01 0.128D+00 0.945D+00
 Coeff:     -0.858D-07 0.200D-06 0.667D-06-0.160D-06-0.300D-05-0.173D-04
 Coeff:     -0.204D-04 0.442D-03 0.150D-02-0.865D-03-0.997D-02-0.271D-01
 Coeff:     -0.374D-01 0.128D+00 0.945D+00
 Gap=     0.399 Goal=   None    Shift=    0.000
 RMSDP=3.75D-09 MaxDP=7.69D-08 DE= 5.32D-11 OVMax= 1.74D-07

 SCF Done:  E(RwB97XD) =  -1199.78884964     A.U. after   15 cycles
            NFock= 15  Conv=0.37D-08     -V/T= 2.0020
 KE= 1.197412858946D+03 PE=-4.686410322562D+03 EE= 1.369333396551D+03
 Leave Link  502 at Fri May 23 04:44:47 2025, MaxMem=  3758096384 cpu:              62.9 elap:              13.7
 (Enter /apps/easybuild-2022/easybuild/software/Compiler/NVHPC/22.11-CUDA-11.7.0/Gaussian/g16c01-CUDA-11.7.0/g16/l508.exe)
 QCSCF skips out because SCF is already converged.
 Leave Link  508 at Fri May 23 04:44:47 2025, MaxMem=  3758096384 cpu:               0.1 elap:               0.0
 (Enter /apps/easybuild-2022/easybuild/software/Compiler/NVHPC/22.11-CUDA-11.7.0/Gaussian/g16c01-CUDA-11.7.0/g16/l801.exe)
 DoSCS=F DFT=T ScalE2(SS,OS)=  1.000000  1.000000
 Range of M.O.s used for correlation:     1   257
 NBasis=   257 NAE=    49 NBE=    49 NFC=     0 NFV=     0
 NROrb=    257 NOA=    49 NOB=    49 NVA=   208 NVB=   208

 **** Warning!!: The largest alpha MO coefficient is  0.36109230D+02

 Leave Link  801 at Fri May 23 04:44:47 2025, MaxMem=  3758096384 cpu:               0.1 elap:               0.0
 (Enter /apps/easybuild-2022/easybuild/software/Compiler/NVHPC/22.11-CUDA-11.7.0/Gaussian/g16c01-CUDA-11.7.0/g16/l1101.exe)
 Using compressed storage, NAtomX=    12.
 Will process     13 centers per pass.
 R6Disp: Adding Grimme-D2 dispersion energy 1st derivatives to the gradient.
 Leave Link 1101 at Fri May 23 04:44:47 2025, MaxMem=  3758096384 cpu:               0.8 elap:               0.2
 (Enter /apps/easybuild-2022/easybuild/software/Compiler/NVHPC/22.11-CUDA-11.7.0/Gaussian/g16c01-CUDA-11.7.0/g16/l1102.exe)
 Symmetrizing basis deriv contribution to polar:
 IMax=3 JMax=2 DiffMx= 0.00D+00
 Leave Link 1102 at Fri May 23 04:44:47 2025, MaxMem=  3758096384 cpu:               0.1 elap:               0.1
 (Enter /apps/easybuild-2022/easybuild/software/Compiler/NVHPC/22.11-CUDA-11.7.0/Gaussian/g16c01-CUDA-11.7.0/g16/l1110.exe)
 Forming Gx(P) for the SCF density, NAtomX=    12.
 Integral derivatives from FoFJK, PRISM(SPDF).
 Do as many integral derivatives as possible in FoFJK.
 G2DrvN: MDV=    3758095012.
 G2DrvN: will do    13 centers at a time, making    1 passes.
 Calling FoFCou, ICntrl=  3107 FMM=F I1Cent=   0 AccDes= 0.00D+00.
 FoFJK:  IHMeth= 1 ICntrl=    3107 DoSepK=T KAlg= 0 I1Cent=           0 FoldK=F
 IRaf=         1 NMat=       1 IRICut=       1 DoRegI=T DoRafI=F ISym2E= 0 IDoP0=0 IntGTp=1.
 FoFCou: FMM=F IPFlag=           0 FMFlag=      100000 FMFlg1=           0
         NFxFlg=           0 DoJE=F BraDBF=F KetDBF=F FulRan=T
         wScrn=  0.000000 ICntrl=      3507 IOpCl=  0 I1Cent=           0 NGrid=           0
         NMat0=    1 NMatS0=      1 NMatT0=    0 NMatD0=    1 NMtDS0=    0 NMtDT0=    0
 Symmetry not used in FoFCou.
 End of G2Drv F.D. properties file   721 does not exist.
 End of G2Drv F.D. properties file   722 does not exist.
 End of G2Drv F.D. properties file   788 does not exist.
 Leave Link 1110 at Fri May 23 04:44:59 2025, MaxMem=  3758096384 cpu:              92.3 elap:              11.7
 (Enter /apps/easybuild-2022/easybuild/software/Compiler/NVHPC/22.11-CUDA-11.7.0/Gaussian/g16c01-CUDA-11.7.0/g16/l1002.exe)
 Minotr:  Closed shell wavefunction.
          IDoAtm=111111111111
          Direct CPHF calculation.
          Differentiating once with respect to nuclear coordinates.
          Requested convergence is 1.0D-08 RMS, and 1.0D-07 maximum.
          Secondary convergence is 1.0D-12 RMS, and 1.0D-12 maximum.
          NewPWx=T KeepS1=F KeepF1=F KeepIn=T MapXYZ=F SortEE=F KeepMc=T.
         3710 words used for storage of precomputed grid.
 Keep R1 ints in memory in canonical form, NReq=1117480302.
 FoFCou: FMM=F IPFlag=           0 FMFlag=           0 FMFlg1=           0
         NFxFlg=           0 DoJE=F BraDBF=F KetDBF=F FulRan=T
         wScrn=  0.000000 ICntrl=       600 IOpCl=  0 I1Cent=           0 NGrid=           0
         NMat0=    1 NMatS0=  33153 NMatT0=    0 NMatD0=    1 NMtDS0=    0 NMtDT0=    0
 Symmetry not used in FoFCou.
 Two-electron integral symmetry not used.
          MDV=    3758096384 using IRadAn=       1.
          Solving linear equations simultaneously, MaxMat=       0.
          There are    39 degrees of freedom in the 1st order CPHF.  IDoFFX=6 NUNeed=     0.
     33 vectors produced by pass  0 Test12= 2.61D-14 2.56D-09 XBig12= 2.44D-01 6.38D-02.
 AX will form    33 AO Fock derivatives at one time.
     33 vectors produced by pass  1 Test12= 2.61D-14 2.56D-09 XBig12= 2.96D-02 3.91D-02.
     33 vectors produced by pass  2 Test12= 2.61D-14 2.56D-09 XBig12= 1.60D-03 5.53D-03.
     33 vectors produced by pass  3 Test12= 2.61D-14 2.56D-09 XBig12= 3.08D-05 8.00D-04.
     33 vectors produced by pass  4 Test12= 2.61D-14 2.56D-09 XBig12= 6.27D-07 1.42D-04.
     33 vectors produced by pass  5 Test12= 2.61D-14 2.56D-09 XBig12= 7.67D-09 1.08D-05.
     33 vectors produced by pass  6 Test12= 2.61D-14 2.56D-09 XBig12= 6.72D-11 8.23D-07.
     24 vectors produced by pass  7 Test12= 2.61D-14 2.56D-09 XBig12= 4.93D-13 7.22D-08.
      5 vectors produced by pass  8 Test12= 2.61D-14 2.56D-09 XBig12= 2.85D-15 5.21D-09.
 InvSVY:  IOpt=1 It=  1 EMax= 1.11D-15
 Solved reduced A of dimension   260 with    33 vectors.
 End of Minotr F.D. properties file   721 does not exist.
 End of Minotr F.D. properties file   722 does not exist.
 End of Minotr F.D. properties file   788 does not exist.
 Leave Link 1002 at Fri May 23 04:45:23 2025, MaxMem=  3758096384 cpu:             191.9 elap:              24.6
 (Enter /apps/easybuild-2022/easybuild/software/Compiler/NVHPC/22.11-CUDA-11.7.0/Gaussian/g16c01-CUDA-11.7.0/g16/l701.exe)
 ... and contract with generalized density number  0.
 Compute integral second derivatives.
 R6Disp: Adding Grimme-D2 dispersion energy 2nd derivatives to the Hessian.
 Leave Link  701 at Fri May 23 04:45:23 2025, MaxMem=  3758096384 cpu:               0.7 elap:               0.2
 (Enter /apps/easybuild-2022/easybuild/software/Compiler/NVHPC/22.11-CUDA-11.7.0/Gaussian/g16c01-CUDA-11.7.0/g16/l702.exe)
 L702 exits ... SP integral derivatives will be done elsewhere.
 Leave Link  702 at Fri May 23 04:45:24 2025, MaxMem=  3758096384 cpu:               0.0 elap:               0.0
 (Enter /apps/easybuild-2022/easybuild/software/Compiler/NVHPC/22.11-CUDA-11.7.0/Gaussian/g16c01-CUDA-11.7.0/g16/l703.exe)
 Integral derivatives from FoFJK, PRISM(SPDF).
 Compute integral second derivatives, UseDBF=F ICtDFT=           0.
 Calling FoFJK, ICntrl=    100127 FMM=F ISym2X=0 I1Cent= 0 IOpClX= 0 NMat=1 NMatS=1 NMatT=0.
 FoFJK:  IHMeth= 1 ICntrl=  100127 DoSepK=T KAlg= 0 I1Cent=           0 FoldK=F
 IRaf=         1 NMat=       1 IRICut=       1 DoRegI=T DoRafI=F ISym2E= 0 IDoP0=0 IntGTp=1.
 FoFCou: FMM=F IPFlag=           0 FMFlag=      100000 FMFlg1=         800
         NFxFlg=           0 DoJE=F BraDBF=F KetDBF=F FulRan=T
         wScrn=  0.000000 ICntrl=    100527 IOpCl=  0 I1Cent=           0 NGrid=           0
         NMat0=    1 NMatS0=      1 NMatT0=    0 NMatD0=    1 NMtDS0=    0 NMtDT0=    0
 Symmetry not used in FoFCou.
 Leave Link  703 at Fri May 23 04:45:54 2025, MaxMem=  3758096384 cpu:             243.4 elap:              30.9
 (Enter /apps/easybuild-2022/easybuild/software/Compiler/NVHPC/22.11-CUDA-11.7.0/Gaussian/g16c01-CUDA-11.7.0/g16/l716.exe)
 Dipole        =-4.64807371D-01-1.04988083D+00-8.64355113D-02
 Polarizability= 0.00000000D+00 0.00000000D+00 0.00000000D+00
                 0.00000000D+00 0.00000000D+00 0.00000000D+00
 -------------------------------------------------------------------
 Center     Atomic                   Forces (Hartrees/Bohr)
 Number     Number              X              Y              Z
 -------------------------------------------------------------------
      1        6          -0.002089613   -0.002344396   -0.000717719
      2        6          -0.006483507    0.000373578   -0.000864385
      3        9          -0.010036813   -0.001318171   -0.001280579
      4        9          -0.011162912    0.001514850   -0.001994476
      5       16           0.009049689    0.011810165    0.004386875
      6        8           0.003011263    0.009270342    0.002234495
      7        8           0.003694194    0.009658633    0.008107019
      8        8           0.009947815   -0.009307069   -0.006704247
      9        9          -0.004716605   -0.015735075   -0.002254826
     10        9           0.005878960   -0.001607732    0.000120117
     11        9           0.002057237   -0.001846354   -0.000257632
     12        1           0.000850293   -0.000468772   -0.000774644
 -------------------------------------------------------------------
 Cartesian Forces:  Max     0.015735075 RMS     0.006131528
 Force constants in Cartesian coordinates: 
                1             2             3             4             5 
      1  0.511857D+00
      2  0.118647D-01  0.602842D+00
      3 -0.223905D-02  0.348262D-02  0.585269D+00
      4 -0.727787D-01 -0.612671D-01 -0.844394D-02  0.473768D+00
      5 -0.458891D-01 -0.164385D+00 -0.189332D-01  0.113193D+00  0.443556D+00
      6 -0.534775D-02 -0.155925D-01 -0.475973D-01  0.889604D-02 -0.315954D-01
      7 -0.173231D-01  0.841387D-02 -0.226664D-01 -0.186267D+00 -0.222568D-01
      8 -0.157646D-01  0.706935D-02 -0.181477D-01 -0.786174D-02 -0.745225D-01
      9 -0.185774D-01  0.605380D-02 -0.174150D-01 -0.119163D+00 -0.168097D-01
     10 -0.970466D-02  0.272155D-03  0.259125D-01 -0.150091D+00 -0.540614D-01
     11 -0.156749D-01 -0.280264D-02  0.303203D-01 -0.479701D-01 -0.984611D-01
     12  0.131934D-01  0.103985D-02 -0.174785D-01  0.108686D+00  0.688332D-01
     13  0.316436D-01  0.109645D-01  0.252718D-02 -0.464907D-01  0.219066D-02
     14  0.224332D-01 -0.334834D-01 -0.105125D-01  0.488151D-01 -0.642493D-01
     15 -0.190364D-02 -0.124152D-01  0.175593D-01  0.262654D-01 -0.143860D-01
     16 -0.782065D-02 -0.237513D-02 -0.618072D-03  0.352377D-02  0.422584D-02
     17 -0.143981D-02  0.257892D-02  0.550177D-02 -0.245248D-02  0.858464D-02
     18  0.771048D-02  0.584507D-02 -0.487097D-02 -0.242457D-01  0.107004D-01
     19 -0.599037D-02 -0.925761D-03  0.322665D-03  0.419397D-03  0.134357D-01
     20  0.105963D-01  0.669170D-02 -0.134335D-03 -0.327569D-01 -0.198855D-01
     21 -0.948686D-04 -0.190910D-03 -0.293716D-02  0.105009D-01  0.426366D-02
     22 -0.127024D-01 -0.339910D-02 -0.130935D-02  0.159374D-01 -0.873489D-02
     23 -0.820258D-02  0.511829D-03 -0.921559D-03 -0.484974D-02  0.310671D-02
     24 -0.250150D-02  0.880118D-03 -0.264999D-02 -0.257123D-02  0.844935D-03
     25 -0.253376D+00  0.682357D-03 -0.152201D-01 -0.494297D-01  0.112907D-01
     26  0.762654D-02 -0.749335D-01 -0.238793D-03 -0.252600D-01 -0.500196D-02
     27 -0.159199D-01  0.137119D-02 -0.741292D-01 -0.662313D-02 -0.278017D-02
     28 -0.837305D-01  0.225313D-01  0.392734D-01  0.665182D-02 -0.621537D-02
     29  0.209365D-01 -0.153653D+00 -0.101756D+00  0.133617D-01 -0.133588D-01
     30  0.359398D-01 -0.109643D+00 -0.232062D+00  0.148258D-01 -0.111333D-01
     31 -0.768093D-01  0.115020D-01 -0.179608D-01  0.575327D-02 -0.817141D-02
     32  0.737627D-02 -0.190565D+00  0.111296D+00  0.885699D-02 -0.175005D-01
     33 -0.127943D-01  0.120167D+00 -0.204718D+00 -0.886822D-02  0.114887D-01
     34 -0.326532D-02  0.173612D-02  0.421986D-03 -0.995967D-03  0.992658D-03
     35  0.613748D-02  0.129657D-03  0.437724D-04 -0.180913D-02  0.211751D-02
     36  0.253487D-02 -0.997886D-03  0.102952D-02  0.741104D-03 -0.492891D-03
                6             7             8             9            10 
      6  0.536521D+00
      7 -0.121877D+00  0.202447D+00
      8 -0.150298D-02  0.125164D-01  0.610463D-01
      9 -0.190447D+00  0.160382D+00  0.282092D-03  0.292555D+00
     10  0.110576D+00  0.236226D-01  0.799766D-02 -0.211026D-01  0.148543D+00
     11  0.557691D-01  0.471650D-02  0.111850D-01  0.153390D-01  0.596594D-01
     12 -0.221386D+00  0.102423D-02  0.173960D-01 -0.876231D-01 -0.132792D+00
     13 -0.140586D-03 -0.197894D-01  0.113394D-01 -0.676102D-02 -0.727220D-02
     14 -0.152080D-01 -0.721905D-02  0.331437D-02 -0.466771D-02 -0.189386D-01
     15 -0.263706D-01 -0.266610D-01  0.110725D-01 -0.175124D-01  0.184264D-01
     16  0.119436D-01  0.345898D-03  0.999810D-03  0.525067D-02 -0.386948D-02
     17 -0.818937D-02  0.292087D-02 -0.755104D-03 -0.132395D-02  0.633146D-02
     18 -0.222918D-01  0.646424D-02 -0.770766D-03  0.102832D-01  0.915984D-02
     19  0.380772D-02  0.197522D-02 -0.106066D-02  0.275885D-03  0.280511D-02
     20  0.164823D-01  0.113908D-01 -0.204168D-02  0.616614D-02  0.448853D-02
     21 -0.660695D-03  0.146204D-02 -0.156701D-02  0.241937D-02 -0.446163D-02
     22 -0.515327D-02 -0.429160D-02  0.239250D-02 -0.221847D-02 -0.422726D-02
     23  0.177987D-02  0.146006D-02  0.172768D-03  0.158998D-02  0.236031D-02
     24  0.128394D-02  0.239049D-02 -0.550076D-03  0.248878D-02 -0.806461D-03
     25 -0.457908D-02 -0.374193D-02 -0.899433D-02 -0.241544D-02 -0.190028D-02
     26 -0.674147D-02 -0.607880D-02 -0.112018D-02 -0.248874D-02 -0.305312D-02
     27  0.814951D-02  0.100478D-02  0.405360D-03  0.701403D-03 -0.324428D-02
     28 -0.324114D-02  0.411280D-03  0.489474D-03  0.369095D-03  0.172629D-02
     29 -0.321043D-01 -0.557484D-02 -0.421547D-02 -0.374407D-02 -0.136795D-03
     30 -0.223347D-01 -0.295100D-02 -0.229637D-02 -0.185286D-04 -0.265178D-02
     31  0.507949D-02  0.214916D-02 -0.198254D-02  0.383016D-02 -0.658323D-03
     32  0.358341D-01 -0.123414D-02  0.797795D-03 -0.696762D-03 -0.551211D-02
     33 -0.143413D-01  0.210254D-02 -0.445765D-02  0.511970D-02  0.114563D-02
     34  0.364236D-04  0.462821D-03 -0.713831D-04  0.129984D-03  0.102623D-02
     35  0.106877D-02  0.945177D-03 -0.930630D-03  0.299921D-03  0.592488D-03
     36 -0.524537D-03 -0.675213D-03  0.136550D-03 -0.551346D-03 -0.161494D-03
               11            12            13            14            15 
     11  0.957696D-01
     12 -0.928235D-01  0.329295D+00
     13  0.362371D-02  0.887404D-02  0.487367D+00
     14  0.446696D-03  0.173592D-01  0.131176D+00  0.722529D+00
     15 -0.498307D-02 -0.129853D-01 -0.101430D+00 -0.321884D+00  0.964213D+00
     16  0.106985D-02  0.381358D-02 -0.856388D-01 -0.103319D-02  0.247195D-01
     17 -0.113926D-02 -0.553608D-02  0.113943D-03 -0.999485D-01  0.754619D-01
     18 -0.393557D-02 -0.609911D-02  0.251756D-01  0.868467D-01 -0.597778D+00
     19  0.289795D-02 -0.441414D-02 -0.123771D+00 -0.124457D+00  0.884039D-01
     20  0.312752D-02 -0.644935D-02 -0.130534D+00 -0.464462D+00  0.244824D+00
     21 -0.365272D-02  0.563167D-02  0.913098D-01  0.237725D+00 -0.235986D+00
     22  0.138552D-02  0.508257D-02 -0.180586D+00 -0.148675D-01 -0.524159D-01
     23  0.814124D-03 -0.278077D-02 -0.138102D-01 -0.650429D-01  0.161951D-01
     24  0.415333D-03  0.923958D-03 -0.105667D-01  0.157065D-01 -0.915311D-01
     25 -0.736663D-02  0.102345D-02 -0.173223D-01 -0.561889D-02 -0.137448D-02
     26 -0.687064D-03  0.249424D-02 -0.397904D-02 -0.458274D-02 -0.118341D-02
     27 -0.184840D-02  0.166642D-02 -0.181088D-02 -0.233829D-02 -0.543118D-02
     28 -0.101930D-02 -0.404873D-02 -0.530898D-02 -0.270713D-02  0.631159D-03
     29  0.765101D-03 -0.130018D-02 -0.548970D-02  0.329126D-02  0.334227D-02
     30  0.301383D-02  0.654495D-02 -0.376163D-02  0.451090D-02 -0.117518D-03
     31 -0.117928D-02  0.573508D-03 -0.501528D-02 -0.194498D-02  0.307532D-03
     32 -0.856962D-02  0.255132D-02 -0.483234D-02  0.384982D-02  0.343610D-02
     33  0.241863D-02  0.137455D-02  0.181589D-02 -0.174921D-02 -0.678693D-02
     34 -0.142776D-03 -0.101642D-02 -0.278157D-01 -0.256380D-01  0.250316D-01
     35 -0.448326D-03 -0.784008D-03 -0.762532D-03 -0.166185D-02  0.519286D-03
     36 -0.329221D-04  0.135405D-03 -0.523144D-02 -0.578884D-02  0.127269D-01
               16            17            18            19            20 
     16  0.792523D-01
     17 -0.691570D-02  0.622670D-01
     18 -0.413002D-02 -0.892188D-01  0.638272D+00
     19  0.129900D-01 -0.369405D-02 -0.455716D-02  0.139621D+00
     20 -0.481605D-02  0.154741D-01 -0.423879D-02  0.156715D+00  0.477205D+00
     21  0.726530D-02  0.256333D-01  0.434206D-02 -0.102129D+00 -0.265069D+00
     22 -0.116188D-01  0.218250D-02 -0.139059D-01 -0.271068D-01 -0.890701D-02
     23  0.269413D-02  0.167540D-01  0.267510D-02 -0.437501D-01 -0.951616D-02
     24 -0.479873D-01  0.168177D-02 -0.200964D-01  0.242718D-01  0.138826D-01
     25  0.390588D-02 -0.577194D-03 -0.125820D-02  0.273863D-02 -0.181864D-02
     26 -0.256711D-03 -0.972944D-03 -0.210570D-02 -0.130797D-03 -0.230570D-02
     27 -0.811260D-03 -0.249515D-02  0.855206D-03  0.360540D-04 -0.451576D-03
     28  0.116712D-02  0.312363D-03 -0.105241D-02  0.104052D-02 -0.108344D-02
     29  0.119561D-02 -0.417053D-03 -0.249187D-02  0.109102D-02 -0.458239D-02
     30  0.828632D-03 -0.118302D-02 -0.838661D-03  0.516808D-03 -0.394786D-02
     31  0.120242D-02  0.238591D-03 -0.101345D-02  0.879950D-03 -0.123340D-02
     32  0.167307D-02 -0.965439D-03 -0.405767D-02  0.927326D-03 -0.340204D-02
     33 -0.509143D-03 -0.126195D-02  0.418086D-02 -0.552791D-03  0.209129D-02
     34  0.656037D-02  0.297951D-02  0.165270D-02 -0.560145D-02 -0.204100D-02
     35  0.353850D-02 -0.146044D-02  0.751862D-03 -0.104920D-02  0.369754D-02
     36  0.234606D-03  0.929643D-03 -0.595843D-02 -0.598205D-02 -0.315557D-02
               21            22            23            24            25 
     21  0.211577D+00
     22 -0.458188D-03  0.359851D+00
     23  0.102074D-02  0.168502D+00  0.258839D+00
     24  0.104815D-01 -0.939413D-01 -0.222299D+00  0.326524D+00
     25 -0.801980D-03  0.444998D-02  0.138569D-01  0.380962D-02  0.386848D+00
     26  0.719902D-03  0.618923D-02 -0.161212D-01 -0.390203D-02 -0.605918D-01
     27  0.947058D-03  0.126591D-02 -0.154780D-02  0.252849D-02  0.211722D-01
     28 -0.264638D-03  0.177977D-02  0.189104D-02  0.393148D-03 -0.450081D-01
     29  0.637340D-03  0.222124D-02 -0.805604D-03 -0.272485D-03  0.303778D-01
     30  0.135256D-02  0.143680D-02 -0.119326D-02  0.291700D-04  0.357543D-01
     31 -0.667834D-04  0.184644D-02  0.144960D-02  0.591204D-03 -0.291719D-01
     32  0.182497D-03  0.184169D-02 -0.892511D-03 -0.710794D-03  0.314911D-01
     33  0.614043D-03 -0.177596D-03  0.130641D-02  0.137590D-02 -0.340379D-01
     34 -0.226128D-02 -0.143331D+00 -0.121601D+00  0.126918D+00  0.200800D-02
     35  0.297392D-03 -0.148806D+00 -0.187820D+00  0.194323D+00 -0.273134D-02
     36  0.221865D-02  0.161795D+00  0.204175D+00 -0.231358D+00 -0.207249D-02
               26            27            28            29            30 
     26  0.119619D+00
     27  0.747226D-02  0.820486D-01
     28  0.422637D-01  0.514468D-01  0.108106D+00
     29 -0.375052D-02 -0.195695D-01 -0.530279D-01  0.153055D+00
     30 -0.180463D-01 -0.592845D-02 -0.877105D-01  0.140174D+00  0.334725D+00
     31  0.442359D-01 -0.462199D-01  0.124784D-01 -0.433001D-02  0.848967D-02
     32 -0.889503D-02  0.223548D-01 -0.233532D-02  0.236598D-01 -0.641426D-03
     33  0.235274D-01 -0.110694D-01  0.472687D-02  0.167516D-01 -0.816180D-01
     34 -0.965133D-03 -0.296409D-03  0.686867D-03 -0.624643D-03 -0.716877D-03
     35 -0.124790D-02 -0.572737D-03 -0.109945D-02  0.116271D-04  0.385710D-03
     36  0.492618D-03 -0.338468D-03 -0.522980D-03  0.333073D-03  0.266348D-03
               31            32            33            34            35 
     31  0.869196D-01
     32 -0.376797D-01  0.202571D+00
     33  0.467961D-01 -0.170082D+00  0.306645D+00
     34  0.425641D-03 -0.572804D-03  0.352874D-03  0.169840D+00
     35 -0.904785D-03 -0.883519D-04 -0.200344D-03  0.145949D+00  0.187701D+00
     36 -0.406851D-03  0.533848D-03 -0.776730D-03 -0.150253D+00 -0.196133D+00
               36 
     36  0.223131D+00
 FormGI is forming the generalized inverse of G from B-inverse, IUseBI=4.
 Leave Link  716 at Fri May 23 04:45:54 2025, MaxMem=  3758096384 cpu:               0.1 elap:               0.0
 (Enter /apps/easybuild-2022/easybuild/software/Compiler/NVHPC/22.11-CUDA-11.7.0/Gaussian/g16c01-CUDA-11.7.0/g16/l103.exe)

 GradGradGradGradGradGradGradGradGradGradGradGradGradGradGradGradGradGrad
 Berny optimization.
 Red2BG is reusing G-inverse.
 Internal  Forces:  Max     0.060284400 RMS     0.013811440
 Search for a local minimum.
 Step number   1 out of a maximum of   61
 All quantities printed in internal units (Hartrees-Bohrs-Radians)
 RMS Force = .13811D-01 SwitMx=.10000D-02 MixMth= 1
 Mixed Optimization -- RFO/linear search
 Second derivative matrix not updated -- analytic derivatives used.
 ITU=  0
     Eigenvalues ---   -0.00495  -0.00105   0.00713   0.05727   0.07319
     Eigenvalues ---    0.07804   0.09374   0.09857   0.11347   0.11838
     Eigenvalues ---    0.12656   0.13636   0.14007   0.16217   0.22527
     Eigenvalues ---    0.23512   0.24303   0.25651   0.26363   0.35830
     Eigenvalues ---    0.37383   0.37659   0.40611   0.41458   0.49391
     Eigenvalues ---    0.52620   0.56301   0.65707   0.70762   0.87130
 Eigenvalue     1 is  -4.95D-03 should be greater than     0.000000 Eigenvector:
                          D3        D2        D9        D6        D8
   1                   -0.34972  -0.34148  -0.34027  -0.33292  -0.33203
                          D1        D5        D7        D4        A15
   1                   -0.33067  -0.32469  -0.32122  -0.31387  -0.03476
 Eigenvalue     2 is  -1.05D-03 should be greater than     0.000000 Eigenvector:
                          D12       D11       D10       D15       D18
   1                    0.34984   0.33920   0.33623   0.33454   0.33179
                          D14       D17       D13       D16       A15
   1                    0.32390   0.32115   0.32093   0.31819   0.06082
 RFO step:  Lambda=-4.08843269D-02 EMin=-4.94861503D-03
 Linear search not attempted -- first point.
 Maximum step size (   0.300) exceeded in Quadratic search.
    -- Step size scaled by   0.548
 Iteration  1 RMS(Cart)=  0.15972245 RMS(Int)=  0.01108565
 Iteration  2 RMS(Cart)=  0.01260151 RMS(Int)=  0.00113233
 Iteration  3 RMS(Cart)=  0.00005706 RMS(Int)=  0.00113154
 Iteration  4 RMS(Cart)=  0.00000007 RMS(Int)=  0.00113154
 ITry= 1 IFail=0 DXMaxC= 4.65D-01 DCOld= 1.00D+10 DXMaxT= 3.00D-01 DXLimC= 3.00D+00 Rises=F
 Variable       Old X    -DE/DX   Delta X   Delta X   Delta X     New X
                                 (Linear)    (Quad)   (Total)
    R1        2.93323   0.01892   0.00000   0.01738   0.01738   2.95062
    R2        2.53870   0.00157   0.00000  -0.00702  -0.00702   2.53168
    R3        2.49255   0.00219   0.00000   0.00154   0.00154   2.49409
    R4        2.49171   0.00119   0.00000   0.00481   0.00481   2.49652
    R5        2.51117  -0.00749   0.00000  -0.00133  -0.00133   2.50985
    R6        2.49567  -0.00349   0.00000   0.00374   0.00374   2.49941
    R7        3.77007  -0.00414   0.00000  -0.08667  -0.08667   3.68339
    R8        2.73079   0.00053   0.00000  -0.01118  -0.01118   2.71962
    R9        2.70612   0.00462   0.00000  -0.00629  -0.00629   2.69983
   R10        3.07280  -0.00785   0.00000  -0.03849  -0.03849   3.03431
   R11        1.82695  -0.00064   0.00000  -0.00103  -0.00103   1.82591
    A1        1.84074   0.03266   0.00000   0.04308   0.04319   1.88393
    A2        1.97574  -0.00943   0.00000  -0.02328  -0.02352   1.95222
    A3        1.95123  -0.00370   0.00000  -0.01190  -0.01218   1.93905
    A4        1.87012  -0.00828   0.00000   0.01352   0.01366   1.88378
    A5        1.89182  -0.01000   0.00000  -0.01124  -0.01117   1.88065
    A6        1.92844  -0.00023   0.00000  -0.00635  -0.00690   1.92154
    A7        1.97221  -0.01752   0.00000  -0.04191  -0.04173   1.93048
    A8        1.96203  -0.01618   0.00000  -0.01541  -0.01459   1.94743
    A9        1.84357   0.06028   0.00000   0.11235   0.11308   1.95665
   A10        1.87386   0.01575   0.00000   0.02179   0.02035   1.89421
   A11        1.85380  -0.02023   0.00000  -0.02682  -0.02624   1.82756
   A12        1.95688  -0.02373   0.00000  -0.05339  -0.05404   1.90284
   A13        1.71364   0.01111   0.00000   0.06385   0.06618   1.77982
   A14        1.73554   0.01187   0.00000   0.04696   0.04705   1.78259
   A15        2.21760  -0.03877   0.00000  -0.20454  -0.20190   2.01570
   A16        2.28774  -0.01258   0.00000  -0.06142  -0.06450   2.22324
   A17        1.80737   0.00929   0.00000   0.05660   0.06051   1.86787
   A18        1.76700   0.00750   0.00000   0.03758   0.03873   1.80572
   A19        1.90765  -0.00072   0.00000   0.01138   0.01138   1.91903
    D1        2.27674   0.00349   0.00000  -0.12537  -0.12577   2.15097
    D2       -1.88199  -0.00103   0.00000  -0.13958  -0.13975  -2.02175
    D3        0.25730   0.00031   0.00000  -0.13961  -0.13897   0.11833
    D4       -1.96724   0.00877   0.00000  -0.09458  -0.09517  -2.06241
    D5        0.15722   0.00425   0.00000  -0.10878  -0.10916   0.04806
    D6        2.29651   0.00559   0.00000  -0.10881  -0.10838   2.18814
    D7        0.22427  -0.00208   0.00000  -0.13140  -0.13165   0.09262
    D8        2.34872  -0.00660   0.00000  -0.14560  -0.14564   2.20308
    D9       -1.79517  -0.00526   0.00000  -0.14563  -0.14486  -1.94003
   D10        1.47563  -0.00074   0.00000  -0.08224  -0.08341   1.39223
   D11       -2.46573  -0.00585   0.00000  -0.10764  -0.10608  -2.57181
   D12       -0.51250  -0.00406   0.00000  -0.11459  -0.11350  -0.62600
   D13       -0.62324  -0.00070   0.00000  -0.07687  -0.07828  -0.70152
   D14        1.71858  -0.00581   0.00000  -0.10226  -0.10095   1.61763
   D15       -2.61137  -0.00402   0.00000  -0.10922  -0.10837  -2.71975
   D16       -2.66497   0.00522   0.00000  -0.05842  -0.06083  -2.72580
   D17       -0.32315   0.00010   0.00000  -0.08382  -0.08350  -0.40665
   D18        1.63009   0.00190   0.00000  -0.09078  -0.09092   1.53916
   D19        1.48566  -0.00091   0.00000   0.00351   0.00264   1.48830
   D20       -0.45937  -0.00302   0.00000  -0.02165  -0.01983  -0.47920
   D21       -2.85887   0.00222   0.00000  -0.00288  -0.00383  -2.86270
         Item               Value     Threshold  Converged?
 Maximum Force            0.060284     0.000450     NO 
 RMS     Force            0.013811     0.000300     NO 
 Maximum Displacement     0.464963     0.001800     NO 
 RMS     Displacement     0.161566     0.001200     NO 
 Predicted change in Energy=-2.086120D-02
 Lowest energy point so far.  Saving SCF results.
 GradGradGradGradGradGradGradGradGradGradGradGradGradGradGradGradGradGrad

 Leave Link  103 at Fri May 23 04:45:55 2025, MaxMem=  3758096384 cpu:               0.1 elap:               0.0
 (Enter /apps/easybuild-2022/easybuild/software/Compiler/NVHPC/22.11-CUDA-11.7.0/Gaussian/g16c01-CUDA-11.7.0/g16/l202.exe)
                          Input orientation:                          
 ---------------------------------------------------------------------
 Center     Atomic      Atomic             Coordinates (Angstroms)
 Number     Number       Type             X           Y           Z
 ---------------------------------------------------------------------
      1          6           0        0.128620   -1.441990   -0.274980
      2          6           0        0.765862   -0.024791   -0.121885
      3          9           0        1.658769   -0.017451    0.861300
      4          9           0        1.364245    0.362460   -1.236036
      5         16           0       -0.548790    1.318893    0.393343
      6          8           0       -0.671180    1.089593    1.808836
      7          8           0       -0.051194    2.490299   -0.255772
      8          8           0       -2.012026    1.133001   -0.241173
      9          9           0       -1.199003   -1.313220   -0.149869
     10          9           0        0.376093   -1.966476   -1.460552
     11          9           0        0.545896   -2.256513    0.677775
     12          1           0       -2.531568    0.524729    0.300756
 ---------------------------------------------------------------------
                    Distance matrix (angstroms):
                    1          2          3          4          5
     1  C    0.000000
     2  C    1.561400   0.000000
     3  F    2.379453   1.328153   0.000000
     4  F    2.388815   1.322633   2.151719   0.000000
     5  S    2.920276   1.949168   2.622616   2.688744   0.000000
     6  O    3.375038   2.652286   2.748096   3.734023   1.439159
     7  O    3.936445   2.647863   3.234290   2.737167   1.428687
     8  O    3.348744   3.011872   4.001715   3.603151   1.605686
     9  F    1.339708   2.349793   3.296716   3.249293   2.765117
    10  F    1.319814   2.390417   3.291649   2.539841   3.884068
    11  F    1.321102   2.380846   2.507103   3.345353   3.750036
    12  H    3.357984   3.369516   4.262287   4.191112   2.137913
                    6          7          8          9         10
     6  O    0.000000
     7  O    2.570791   0.000000
     8  O    2.449957   2.384814   0.000000
     9  F    3.144620   3.974348   2.579407   0.000000
    10  F    4.596220   4.636476   4.098384   2.150711   0.000000
    11  F    3.735907   4.874449   4.344679   2.149295   2.164578
    12  H    2.460573   3.213323   0.966232   2.314487   4.214593
                   11         12
    11  F    0.000000
    12  H    4.165122   0.000000
 Symmetry turned off by external request.
 Stoichiometry    C2HF5O3S
 Rotational constants (GHZ):           1.5144480           0.8389258           0.7687087
 Leave Link  202 at Fri May 23 04:45:55 2025, MaxMem=  3758096384 cpu:               0.1 elap:               0.0
 (Enter /apps/easybuild-2022/easybuild/software/Compiler/NVHPC/22.11-CUDA-11.7.0/Gaussian/g16c01-CUDA-11.7.0/g16/l301.exe)
 Standard basis: 6-311++G(d,p) (5D, 7F)
 Ernie: Thresh=  0.10000D-02 Tol=  0.10000D-05 Strict=F.
   257 basis functions,   419 primitive gaussians,   268 cartesian basis functions
    49 alpha electrons       49 beta electrons
       nuclear repulsion energy       919.7745516708 Hartrees.
 IExCor= 4639 DFT=T Ex+Corr=wB97XD ExCW=0 ScaHFX=  1.000000
 ScaDFX=  1.000000  1.000000  1.000000  1.000000 ScalE2=  1.000000  1.000000
 IRadAn=      5 IRanWt=     -1 IRanGd=            0 ICorTp=0 IEmpDi=121
 HFx  wShort=  0.000000 wLong=  0.200000 cFull=  0.222036 cShort=  0.000000 cLong=  0.777964
 DFx  wShort=  0.000000 wLong=  0.200000 cFull=  0.000000 cShort=  0.000000 cLong=  1.000000
 NAtoms=   12 NActive=   12 NUniq=   12 SFac= 1.00D+00 NAtFMM=   60 NAOKFM=F Big=F
 Integral buffers will be    131072 words long.
 Raffenetti 2 integral format.
 Two-electron integral symmetry is turned off.
 R6Disp:  Grimme-D2 Dispersion energy=       -0.0054183660 Hartrees.
 Nuclear repulsion after empirical dispersion term =      919.7691333048 Hartrees.
 Leave Link  301 at Fri May 23 04:45:55 2025, MaxMem=  3758096384 cpu:               0.1 elap:               0.0
 (Enter /apps/easybuild-2022/easybuild/software/Compiler/NVHPC/22.11-CUDA-11.7.0/Gaussian/g16c01-CUDA-11.7.0/g16/l302.exe)
 NPDir=0 NMtPBC=     1 NCelOv=     1 NCel=       1 NClECP=     1 NCelD=      1
         NCelK=      1 NCelE2=     1 NClLst=     1 CellRange=     0.0.
 One-electron integrals computed using PRISM.
 NBasis=   257 RedAO= T EigKep=  6.11D-05  NBF=   257
 NBsUse=   257 1.00D-06 EigRej= -1.00D+00 NBFU=   257
 Precomputing XC quadrature grid using
 IXCGrd= 4 IRadAn=           5 IRanWt=          -1 IRanGd=           0 AccXCQ= 0.00D+00.
 Generated NRdTot=       0 NPtTot=           0 NUsed=           0 NTot=          32
 NSgBfM=   268   268   268   268   268 MxSgAt=    12 MxSgA2=    12.
 Leave Link  302 at Fri May 23 04:45:55 2025, MaxMem=  3758096384 cpu:               0.6 elap:               0.2
 (Enter /apps/easybuild-2022/easybuild/software/Compiler/NVHPC/22.11-CUDA-11.7.0/Gaussian/g16c01-CUDA-11.7.0/g16/l303.exe)
 DipDrv:  MaxL=1.
 Leave Link  303 at Fri May 23 04:45:55 2025, MaxMem=  3758096384 cpu:               0.1 elap:               0.0
 (Enter /apps/easybuild-2022/easybuild/software/Compiler/NVHPC/22.11-CUDA-11.7.0/Gaussian/g16c01-CUDA-11.7.0/g16/l401.exe)
 Initial guess from the checkpoint file:  "2003846667223680600001_r13_insertion_RSR_9_1_2_5_IRC_F_prod.chk"
 B after Tr=    -0.006545    0.018577    0.036626
         Rot=    0.999917    0.000094   -0.012857    0.000785 Ang=   1.48 deg.
 Guess basis will be translated and rotated to current coordinates.
 JPrj=2 DoOrth=T DoCkMO=T.
 Generating alternative initial guess.
 ExpMin= 3.60D-02 ExpMax= 9.34D+04 ExpMxC= 3.17D+03 IAcc=3 IRadAn=         5 AccDes= 0.00D+00
 Harris functional with IExCor= 4639 and IRadAn=       5 diagonalized for initial guess.
 HarFok:  IExCor= 4639 AccDes= 0.00D+00 IRadAn=         5 IDoV= 1 UseB2=F ITyADJ=14
 ICtDFT=  3500011 ScaDFX=  1.000000  1.000000  1.000000  1.000000
 FoFCou: FMM=F IPFlag=           0 FMFlag=      100000 FMFlg1=           0
         NFxFlg=           0 DoJE=T BraDBF=F KetDBF=T FulRan=T
         wScrn=  0.000000 ICntrl=       500 IOpCl=  0 I1Cent=   200000004 NGrid=           0
         NMat0=    1 NMatS0=      1 NMatT0=    0 NMatD0=    1 NMtDS0=    0 NMtDT0=    0
 Symmetry not used in FoFCou.
 Harris En= -1167.09092407606    
 Leave Link  401 at Fri May 23 04:45:55 2025, MaxMem=  3758096384 cpu:               2.9 elap:               0.7
 (Enter /apps/easybuild-2022/easybuild/software/Compiler/NVHPC/22.11-CUDA-11.7.0/Gaussian/g16c01-CUDA-11.7.0/g16/l502.exe)
 Keep R1 ints in memory in canonical form, NReq=1117474609.
 FoFCou: FMM=F IPFlag=           0 FMFlag=           0 FMFlg1=           0
         NFxFlg=           0 DoJE=F BraDBF=F KetDBF=F FulRan=T
         wScrn=  0.000000 ICntrl=       600 IOpCl=  0 I1Cent=           0 NGrid=           0
         NMat0=    1 NMatS0=  33153 NMatT0=    0 NMatD0=    1 NMtDS0=    0 NMtDT0=    0
 Symmetry not used in FoFCou.
 Two-electron integral symmetry not used.
 Closed shell SCF:
 Using DIIS extrapolation, IDIIS=  1040.
 NGot=  3758096384 LenX=  2658793876 LenY=  2658721611
 Requested convergence on RMS density matrix=1.00D-08 within  32 cycles.
 Requested convergence on MAX density matrix=1.00D-06.
 Requested convergence on             energy=1.00D-06.
 No special actions if energy rises.

 Cycle   1  Pass 1  IDiag  1:
 E= -1199.72952706111    
 DIIS: error= 8.53D-03 at cycle   1 NSaved=   1.
 NSaved= 1 IEnMin= 1 EnMin= -1199.72952706111     IErMin= 1 ErrMin= 8.53D-03
 ErrMax= 8.53D-03  0.00D+00 EMaxC= 1.00D-01 BMatC= 5.08D-02 BMatP= 5.08D-02
 IDIUse=3 WtCom= 9.15D-01 WtEn= 8.53D-02
 Coeff-Com:  0.100D+01
 Coeff-En:   0.100D+01
 Coeff:      0.100D+01
 Gap=     0.721 Goal=   None    Shift=    0.000
 GapD=    0.721 DampG=2.000 DampE=1.000 DampFc=2.0000 IDamp=-1.
 RMSDP=2.87D-03 MaxDP=1.04D-01              OVMax= 5.04D-02

 Cycle   2  Pass 1  IDiag  1:
 E= -1199.80456087067     Delta-E=       -0.075033809554 Rises=F Damp=F
 DIIS: error= 1.73D-03 at cycle   2 NSaved=   2.
 NSaved= 2 IEnMin= 2 EnMin= -1199.80456087067     IErMin= 2 ErrMin= 1.73D-03
 ErrMax= 1.73D-03  0.00D+00 EMaxC= 1.00D-01 BMatC= 3.06D-03 BMatP= 5.08D-02
 IDIUse=3 WtCom= 9.83D-01 WtEn= 1.73D-02
 Coeff-Com: -0.954D-01 0.110D+01
 Coeff-En:   0.000D+00 0.100D+01
 Coeff:     -0.938D-01 0.109D+01
 Gap=     0.450 Goal=   None    Shift=    0.000
 RMSDP=7.83D-04 MaxDP=5.08D-02 DE=-7.50D-02 OVMax= 1.81D-02

 Cycle   3  Pass 1  IDiag  1:
 E= -1199.80735263465     Delta-E=       -0.002791763984 Rises=F Damp=F
 DIIS: error= 2.17D-03 at cycle   3 NSaved=   3.
 NSaved= 3 IEnMin= 3 EnMin= -1199.80735263465     IErMin= 2 ErrMin= 1.73D-03
 ErrMax= 2.17D-03  0.00D+00 EMaxC= 1.00D-01 BMatC= 3.04D-03 BMatP= 3.06D-03
 IDIUse=3 WtCom= 9.78D-01 WtEn= 2.17D-02
 Coeff-Com: -0.998D-01 0.595D+00 0.505D+00
 Coeff-En:   0.000D+00 0.000D+00 0.100D+01
 Coeff:     -0.977D-01 0.582D+00 0.516D+00
 Gap=     0.451 Goal=   None    Shift=    0.000
 RMSDP=3.30D-04 MaxDP=1.74D-02 DE=-2.79D-03 OVMax= 9.88D-03

 Cycle   4  Pass 1  IDiag  1:
 E= -1199.80929654712     Delta-E=       -0.001943912464 Rises=F Damp=F
 DIIS: error= 4.39D-04 at cycle   4 NSaved=   4.
 NSaved= 4 IEnMin= 4 EnMin= -1199.80929654712     IErMin= 4 ErrMin= 4.39D-04
 ErrMax= 4.39D-04  0.00D+00 EMaxC= 1.00D-01 BMatC= 9.67D-05 BMatP= 3.04D-03
 IDIUse=3 WtCom= 9.96D-01 WtEn= 4.39D-03
 Coeff-Com: -0.134D-01 0.288D-01 0.144D+00 0.840D+00
 Coeff-En:   0.000D+00 0.000D+00 0.000D+00 0.100D+01
 Coeff:     -0.133D-01 0.287D-01 0.144D+00 0.841D+00
 Gap=     0.450 Goal=   None    Shift=    0.000
 RMSDP=8.79D-05 MaxDP=3.04D-03 DE=-1.94D-03 OVMax= 2.87D-03

 Cycle   5  Pass 1  IDiag  1:
 E= -1199.80936640693     Delta-E=       -0.000069859810 Rises=F Damp=F
 DIIS: error= 2.96D-04 at cycle   5 NSaved=   5.
 NSaved= 5 IEnMin= 5 EnMin= -1199.80936640693     IErMin= 5 ErrMin= 2.96D-04
 ErrMax= 2.96D-04  0.00D+00 EMaxC= 1.00D-01 BMatC= 3.62D-05 BMatP= 9.67D-05
 IDIUse=3 WtCom= 9.97D-01 WtEn= 2.96D-03
 Coeff-Com:  0.434D-02-0.545D-01 0.238D-01 0.483D+00 0.544D+00
 Coeff-En:   0.000D+00 0.000D+00 0.000D+00 0.000D+00 0.100D+01
 Coeff:      0.432D-02-0.544D-01 0.238D-01 0.481D+00 0.545D+00
 Gap=     0.449 Goal=   None    Shift=    0.000
 RMSDP=4.76D-05 MaxDP=2.12D-03 DE=-6.99D-05 OVMax= 1.35D-03

 Cycle   6  Pass 1  IDiag  1:
 E= -1199.80939215748     Delta-E=       -0.000025750555 Rises=F Damp=F
 DIIS: error= 5.45D-05 at cycle   6 NSaved=   6.
 NSaved= 6 IEnMin= 6 EnMin= -1199.80939215748     IErMin= 6 ErrMin= 5.45D-05
 ErrMax= 5.45D-05  0.00D+00 EMaxC= 1.00D-01 BMatC= 1.23D-06 BMatP= 3.62D-05
 IDIUse=1 WtCom= 1.00D+00 WtEn= 0.00D+00
 Coeff-Com:  0.271D-02-0.221D-01-0.669D-02 0.713D-01 0.183D+00 0.772D+00
 Coeff:      0.271D-02-0.221D-01-0.669D-02 0.713D-01 0.183D+00 0.772D+00
 Gap=     0.449 Goal=   None    Shift=    0.000
 RMSDP=9.55D-06 MaxDP=2.40D-04 DE=-2.58D-05 OVMax= 4.93D-04

 Cycle   7  Pass 1  IDiag  1:
 E= -1199.80939353648     Delta-E=       -0.000001378995 Rises=F Damp=F
 DIIS: error= 1.52D-05 at cycle   7 NSaved=   7.
 NSaved= 7 IEnMin= 7 EnMin= -1199.80939353648     IErMin= 7 ErrMin= 1.52D-05
 ErrMax= 1.52D-05  0.00D+00 EMaxC= 1.00D-01 BMatC= 1.42D-07 BMatP= 1.23D-06
 IDIUse=1 WtCom= 1.00D+00 WtEn= 0.00D+00
 Coeff-Com:  0.461D-03-0.152D-02-0.542D-02-0.337D-01-0.210D-03 0.261D+00
 Coeff-Com:  0.779D+00
 Coeff:      0.461D-03-0.152D-02-0.542D-02-0.337D-01-0.210D-03 0.261D+00
 Coeff:      0.779D+00
 Gap=     0.449 Goal=   None    Shift=    0.000
 RMSDP=3.97D-06 MaxDP=1.03D-04 DE=-1.38D-06 OVMax= 2.23D-04

 Cycle   8  Pass 1  IDiag  1:
 E= -1199.80939371571     Delta-E=       -0.000000179238 Rises=F Damp=F
 DIIS: error= 8.02D-06 at cycle   8 NSaved=   8.
 NSaved= 8 IEnMin= 8 EnMin= -1199.80939371571     IErMin= 8 ErrMin= 8.02D-06
 ErrMax= 8.02D-06  0.00D+00 EMaxC= 1.00D-01 BMatC= 2.25D-08 BMatP= 1.42D-07
 IDIUse=1 WtCom= 1.00D+00 WtEn= 0.00D+00
 Coeff-Com: -0.131D-03 0.212D-02-0.133D-02-0.218D-01-0.214D-01 0.118D-01
 Coeff-Com:  0.305D+00 0.725D+00
 Coeff:     -0.131D-03 0.212D-02-0.133D-02-0.218D-01-0.214D-01 0.118D-01
 Coeff:      0.305D+00 0.725D+00
 Gap=     0.449 Goal=   None    Shift=    0.000
 RMSDP=1.79D-06 MaxDP=7.41D-05 DE=-1.79D-07 OVMax= 8.55D-05

 Cycle   9  Pass 1  IDiag  1:
 E= -1199.80939373933     Delta-E=       -0.000000023616 Rises=F Damp=F
 DIIS: error= 2.89D-06 at cycle   9 NSaved=   9.
 NSaved= 9 IEnMin= 9 EnMin= -1199.80939373933     IErMin= 9 ErrMin= 2.89D-06
 ErrMax= 2.89D-06  0.00D+00 EMaxC= 1.00D-01 BMatC= 3.99D-09 BMatP= 2.25D-08
 IDIUse=1 WtCom= 1.00D+00 WtEn= 0.00D+00
 Coeff-Com: -0.144D-03 0.134D-02 0.217D-03-0.556D-02-0.104D-01-0.317D-01
 Coeff-Com:  0.224D-01 0.326D+00 0.698D+00
 Coeff:     -0.144D-03 0.134D-02 0.217D-03-0.556D-02-0.104D-01-0.317D-01
 Coeff:      0.224D-01 0.326D+00 0.698D+00
 Gap=     0.449 Goal=   None    Shift=    0.000
 RMSDP=5.88D-07 MaxDP=1.95D-05 DE=-2.36D-08 OVMax= 2.72D-05

 Cycle  10  Pass 1  IDiag  1:
 E= -1199.80939374342     Delta-E=       -0.000000004092 Rises=F Damp=F
 DIIS: error= 9.72D-07 at cycle  10 NSaved=  10.
 NSaved=10 IEnMin=10 EnMin= -1199.80939374342     IErMin=10 ErrMin= 9.72D-07
 ErrMax= 9.72D-07  0.00D+00 EMaxC= 1.00D-01 BMatC= 3.11D-10 BMatP= 3.99D-09
 IDIUse=1 WtCom= 1.00D+00 WtEn= 0.00D+00
 Coeff-Com: -0.308D-04 0.199D-03 0.196D-03 0.358D-03-0.113D-02-0.936D-02
 Coeff-Com: -0.226D-01 0.223D-01 0.217D+00 0.793D+00
 Coeff:     -0.308D-04 0.199D-03 0.196D-03 0.358D-03-0.113D-02-0.936D-02
 Coeff:     -0.226D-01 0.223D-01 0.217D+00 0.793D+00
 Gap=     0.449 Goal=   None    Shift=    0.000
 RMSDP=2.97D-07 MaxDP=1.58D-05 DE=-4.09D-09 OVMax= 1.11D-05

 Cycle  11  Pass 1  IDiag  1:
 E= -1199.80939374374     Delta-E=       -0.000000000316 Rises=F Damp=F
 DIIS: error= 4.33D-07 at cycle  11 NSaved=  11.
 NSaved=11 IEnMin=11 EnMin= -1199.80939374374     IErMin=11 ErrMin= 4.33D-07
 ErrMax= 4.33D-07  0.00D+00 EMaxC= 1.00D-01 BMatC= 1.01D-10 BMatP= 3.11D-10
 IDIUse=1 WtCom= 1.00D+00 WtEn= 0.00D+00
 Coeff-Com:  0.880D-05-0.132D-03 0.629D-04 0.116D-02 0.119D-02 0.536D-03
 Coeff-Com: -0.158D-01-0.469D-01-0.140D-01 0.416D+00 0.658D+00
 Coeff:      0.880D-05-0.132D-03 0.629D-04 0.116D-02 0.119D-02 0.536D-03
 Coeff:     -0.158D-01-0.469D-01-0.140D-01 0.416D+00 0.658D+00
 Gap=     0.449 Goal=   None    Shift=    0.000
 RMSDP=9.00D-08 MaxDP=3.32D-06 DE=-3.16D-10 OVMax= 3.24D-06

 Cycle  12  Pass 1  IDiag  1:
 E= -1199.80939374388     Delta-E=       -0.000000000138 Rises=F Damp=F
 DIIS: error= 6.54D-08 at cycle  12 NSaved=  12.
 NSaved=12 IEnMin=12 EnMin= -1199.80939374388     IErMin=12 ErrMin= 6.54D-08
 ErrMax= 6.54D-08  0.00D+00 EMaxC= 1.00D-01 BMatC= 2.43D-12 BMatP= 1.01D-10
 IDIUse=1 WtCom= 1.00D+00 WtEn= 0.00D+00
 Coeff-Com:  0.465D-05-0.480D-04-0.445D-05 0.234D-03 0.395D-03 0.980D-03
 Coeff-Com: -0.211D-02-0.127D-01-0.193D-01 0.401D-01 0.140D+00 0.853D+00
 Coeff:      0.465D-05-0.480D-04-0.445D-05 0.234D-03 0.395D-03 0.980D-03
 Coeff:     -0.211D-02-0.127D-01-0.193D-01 0.401D-01 0.140D+00 0.853D+00
 Gap=     0.449 Goal=   None    Shift=    0.000
 RMSDP=2.18D-08 MaxDP=7.38D-07 DE=-1.38D-10 OVMax= 8.26D-07

 Cycle  13  Pass 1  IDiag  1:
 E= -1199.80939374382     Delta-E=        0.000000000054 Rises=F Damp=F
 DIIS: error= 3.48D-08 at cycle  13 NSaved=  13.
 NSaved=13 IEnMin=12 EnMin= -1199.80939374388     IErMin=13 ErrMin= 3.48D-08
 ErrMax= 3.48D-08  0.00D+00 EMaxC= 1.00D-01 BMatC= 5.43D-13 BMatP= 2.43D-12
 IDIUse=1 WtCom= 1.00D+00 WtEn= 0.00D+00
 Coeff-Com:  0.385D-06 0.751D-06-0.909D-05-0.690D-04-0.168D-04 0.292D-03
 Coeff-Com:  0.122D-02 0.141D-02-0.495D-02-0.402D-01-0.341D-01 0.315D+00
 Coeff-Com:  0.761D+00
 Coeff:      0.385D-06 0.751D-06-0.909D-05-0.690D-04-0.168D-04 0.292D-03
 Coeff:      0.122D-02 0.141D-02-0.495D-02-0.402D-01-0.341D-01 0.315D+00
 Coeff:      0.761D+00
 Gap=     0.449 Goal=   None    Shift=    0.000
 RMSDP=8.32D-09 MaxDP=2.49D-07 DE= 5.37D-11 OVMax= 2.48D-07

 SCF Done:  E(RwB97XD) =  -1199.80939374     A.U. after   13 cycles
            NFock= 13  Conv=0.83D-08     -V/T= 2.0020
 KE= 1.197433743423D+03 PE=-4.686088847991D+03 EE= 1.369076577519D+03
 Leave Link  502 at Fri May 23 04:46:08 2025, MaxMem=  3758096384 cpu:              59.5 elap:              12.8
 (Enter /apps/easybuild-2022/easybuild/software/Compiler/NVHPC/22.11-CUDA-11.7.0/Gaussian/g16c01-CUDA-11.7.0/g16/l508.exe)
 QCSCF skips out because SCF is already converged.
 Leave Link  508 at Fri May 23 04:46:08 2025, MaxMem=  3758096384 cpu:               0.1 elap:               0.0
 (Enter /apps/easybuild-2022/easybuild/software/Compiler/NVHPC/22.11-CUDA-11.7.0/Gaussian/g16c01-CUDA-11.7.0/g16/l701.exe)
 ... and contract with generalized density number  0.
 Compute integral first derivatives.
 R6Disp: Adding Grimme-D2 dispersion energy 1st derivatives to the gradient.
 Leave Link  701 at Fri May 23 04:46:08 2025, MaxMem=  3758096384 cpu:               0.6 elap:               0.1
 (Enter /apps/easybuild-2022/easybuild/software/Compiler/NVHPC/22.11-CUDA-11.7.0/Gaussian/g16c01-CUDA-11.7.0/g16/l702.exe)
 L702 exits ... SP integral derivatives will be done elsewhere.
 Leave Link  702 at Fri May 23 04:46:09 2025, MaxMem=  3758096384 cpu:               0.1 elap:               0.0
 (Enter /apps/easybuild-2022/easybuild/software/Compiler/NVHPC/22.11-CUDA-11.7.0/Gaussian/g16c01-CUDA-11.7.0/g16/l703.exe)
 Integral derivatives from FoFJK, PRISM(SPDF).
 Compute integral first derivatives, UseDBF=F ICtDFT=           0.
 Calling FoFJK, ICntrl=      2127 FMM=F ISym2X=0 I1Cent= 0 IOpClX= 0 NMat=1 NMatS=1 NMatT=0.
 FoFJK:  IHMeth= 1 ICntrl=    2127 DoSepK=T KAlg= 0 I1Cent=           0 FoldK=F
 IRaf=         1 NMat=       1 IRICut=       1 DoRegI=T DoRafI=F ISym2E= 0 IDoP0=0 IntGTp=1.
 FoFCou: FMM=F IPFlag=           0 FMFlag=      100000 FMFlg1=         800
         NFxFlg=           0 DoJE=F BraDBF=F KetDBF=F FulRan=T
         wScrn=  0.000000 ICntrl=      2527 IOpCl=  0 I1Cent=           0 NGrid=           0
         NMat0=    1 NMatS0=      1 NMatT0=    0 NMatD0=    1 NMtDS0=    0 NMtDT0=    0
 Symmetry not used in FoFCou.
 Leave Link  703 at Fri May 23 04:46:15 2025, MaxMem=  3758096384 cpu:              32.8 elap:               6.7
 (Enter /apps/easybuild-2022/easybuild/software/Compiler/NVHPC/22.11-CUDA-11.7.0/Gaussian/g16c01-CUDA-11.7.0/g16/l716.exe)
 Dipole        =-5.75290906D-01-1.03260470D+00-1.86947269D-01
 -------------------------------------------------------------------
 Center     Atomic                   Forces (Hartrees/Bohr)
 Number     Number              X              Y              Z
 -------------------------------------------------------------------
      1        6          -0.001155108   -0.001012940    0.002752330
      2        6          -0.008572848    0.004195346   -0.001544248
      3        9          -0.002970424    0.000117636    0.000108577
      4        9          -0.004765274   -0.000866037   -0.002041119
      5       16           0.008148685    0.004141561    0.000823405
      6        8           0.000166847    0.004485526    0.001774036
      7        8           0.002290807    0.005762099    0.005641724
      8        8           0.005781309   -0.005942085   -0.004430911
      9        9          -0.003946138   -0.008691439   -0.000428361
     10        9           0.002609457   -0.000717553   -0.000462004
     11        9           0.002204529   -0.001220387   -0.001584621
     12        1           0.000208159   -0.000251727   -0.000608807
 -------------------------------------------------------------------
 Cartesian Forces:  Max     0.008691439 RMS     0.003779440
 Leave Link  716 at Fri May 23 04:46:15 2025, MaxMem=  3758096384 cpu:               0.0 elap:               0.0
 (Enter /apps/easybuild-2022/easybuild/software/Compiler/NVHPC/22.11-CUDA-11.7.0/Gaussian/g16c01-CUDA-11.7.0/g16/l103.exe)

 GradGradGradGradGradGradGradGradGradGradGradGradGradGradGradGradGradGrad
 Berny optimization.
 Using GEDIIS/GDIIS optimizer.
 FormGI is forming the generalized inverse of G from B-inverse, IUseBI=4.
 Internal  Forces:  Max     0.029011558 RMS     0.007370910
 Search for a local minimum.
 Step number   2 out of a maximum of   61
 All quantities printed in internal units (Hartrees-Bohrs-Radians)
 RMS Force = .73709D-02 SwitMx=.10000D-02 MixMth= 1
 Mixed Optimization -- RFO/linear search
 Update second derivatives using D2CorX and points    1    2
 DE= -2.05D-02 DEPred=-2.09D-02 R= 9.85D-01
 TightC=F SS=  1.41D+00  RLast= 5.60D-01 DXNew= 5.0454D-01 1.6797D+00
 Trust test= 9.85D-01 RLast= 5.60D-01 DXMaxT set to 5.05D-01
 ITU=  1  0
 Use linear search instead of GDIIS.
     Eigenvalues ---   -0.00554  -0.00109   0.00713   0.05715   0.07201
     Eigenvalues ---    0.07855   0.09560   0.09957   0.11376   0.11830
     Eigenvalues ---    0.12848   0.13531   0.13891   0.15414   0.22441
     Eigenvalues ---    0.23514   0.24264   0.25630   0.26353   0.35770
     Eigenvalues ---    0.37153   0.37530   0.40580   0.41164   0.49730
     Eigenvalues ---    0.52614   0.56199   0.65643   0.70665   0.86551
 Eigenvalue     1 is  -5.54D-03 should be greater than     0.000000 Eigenvector:
                          D3        D2        D9        D6        D1
   1                   -0.34605  -0.34016  -0.33459  -0.33264  -0.33175
                          D8        D5        D7        D4        D15
   1                   -0.32870  -0.32675  -0.32030  -0.31834  -0.04950
 Eigenvalue     2 is  -1.09D-03 should be greater than     0.000000 Eigenvector:
                          D12       D11       D10       D15       D18
   1                   -0.34829  -0.33822  -0.33738  -0.33180  -0.33011
                          D14       D13       D17       D16       D3
   1                   -0.32174  -0.32090  -0.32005  -0.31921   0.06192
 RFO step:  Lambda=-5.87567065D-03 EMin=-5.54446254D-03
 I=     1 Eig=   -5.54D-03 Dot1= -6.30D-04
 I=     1 Stepn= -6.00D-01 RXN=   6.00D-01 EDone=F
 I=     2 Eig=   -1.09D-03 Dot1=  8.34D-04
 I=     2 Stepn=  3.00D-01 RXN=   6.71D-01 EDone=F
 Mixed    2 eigenvectors in step.  Raw Step.Grad=  1.46D-03.
 RFO eigenvector is Hessian eigenvector with negative curvature.
 Taking step of  6.00D-01 in eigenvector direction(s).  Step.Grad=  7.18D-05.
 Quartic linear search produced a step of  1.16501.
 Iteration  1 RMS(Cart)=  0.15791826 RMS(Int)=  0.01069031
 Iteration  2 RMS(Cart)=  0.02173021 RMS(Int)=  0.00277867
 Iteration  3 RMS(Cart)=  0.00028335 RMS(Int)=  0.00277299
 Iteration  4 RMS(Cart)=  0.00000074 RMS(Int)=  0.00277299
 ITry= 1 IFail=0 DXMaxC= 4.98D-01 DCOld= 1.00D+10 DXMaxT= 5.05D-01 DXLimC= 3.00D+00 Rises=F
 Variable       Old X    -DE/DX   Delta X   Delta X   Delta X     New X
                                 (Linear)    (Quad)   (Total)
    R1        2.95062   0.01066   0.02025  -0.00551   0.01474   2.96536
    R2        2.53168   0.00304  -0.00817   0.00243  -0.00574   2.52594
    R3        2.49409   0.00119   0.00179   0.00310   0.00489   2.49898
[...]
   D16        2.81670  -0.00000   0.00000  -0.00010  -0.00010   2.81661
   D17       -1.11917   0.00000   0.00000  -0.00007  -0.00007  -1.11924
   D18        0.81921  -0.00000   0.00000  -0.00011  -0.00011   0.81909
   D19        1.55297   0.00000   0.00000  -0.00045  -0.00045   1.55252
   D20       -0.41817  -0.00001   0.00000  -0.00050  -0.00050  -0.41867
   D21       -2.79984   0.00000   0.00000  -0.00047  -0.00047  -2.80032
         Item               Value     Threshold  Converged?
 Maximum Force            0.000009     0.000450     YES
 RMS     Force            0.000003     0.000300     YES
 Maximum Displacement     0.000390     0.001800     YES
 RMS     Displacement     0.000107     0.001200     YES
 Predicted change in Energy=-2.542828D-09
 Optimization completed.
    -- Stationary point found.
                           ----------------------------
                           !   Optimized Parameters   !
                           ! (Angstroms and Degrees)  !
 --------------------------                            --------------------------
 ! Name  Definition              Value          Derivative Info.                !
 --------------------------------------------------------------------------------
 ! R1    R(1,2)                  1.5563         -DE/DX =    0.0                 !
 ! R2    R(1,9)                  1.3402         -DE/DX =    0.0                 !
 ! R3    R(1,10)                 1.326          -DE/DX =    0.0                 !
 ! R4    R(1,11)                 1.3203         -DE/DX =    0.0                 !
 ! R5    R(2,3)                  1.3326         -DE/DX =    0.0                 !
 ! R6    R(2,4)                  1.3322         -DE/DX =    0.0                 !
 ! R7    R(2,5)                  1.878          -DE/DX =    0.0                 !
 ! R8    R(5,6)                  1.4367         -DE/DX =    0.0                 !
 ! R9    R(5,7)                  1.427          -DE/DX =    0.0                 !
 ! R10   R(5,8)                  1.6006         -DE/DX =    0.0                 !
 ! R11   R(8,12)                 0.9664         -DE/DX =    0.0                 !
 ! A1    A(2,1,9)              109.8163         -DE/DX =    0.0                 !
 ! A2    A(2,1,10)             109.4176         -DE/DX =    0.0                 !
 ! A3    A(2,1,11)             111.0612         -DE/DX =    0.0                 !
 ! A4    A(9,1,10)             108.3954         -DE/DX =    0.0                 !
 ! A5    A(9,1,11)             108.9407         -DE/DX =    0.0                 !
 ! A6    A(10,1,11)            109.1613         -DE/DX =    0.0                 !
 ! A7    A(1,2,3)              108.9044         -DE/DX =    0.0                 !
 ! A8    A(1,2,4)              109.0439         -DE/DX =    0.0                 !
 ! A9    A(1,2,5)              114.2587         -DE/DX =    0.0                 !
 ! A10   A(3,2,4)              109.5582         -DE/DX =    0.0                 !
 ! A11   A(3,2,5)              106.8674         -DE/DX =    0.0                 !
 ! A12   A(4,2,5)              108.1268         -DE/DX =    0.0                 !
 ! A13   A(2,5,6)              107.4859         -DE/DX =    0.0                 !
 ! A14   A(2,5,7)              106.1781         -DE/DX =    0.0                 !
 ! A15   A(2,5,8)              100.513          -DE/DX =    0.0                 !
 ! A16   A(6,5,7)              123.9334         -DE/DX =    0.0                 !
 ! A17   A(6,5,8)              109.4689         -DE/DX =    0.0                 !
 ! A18   A(7,5,8)              106.768          -DE/DX =    0.0                 !
 ! A19   A(5,8,12)             110.4468         -DE/DX =    0.0                 !
 ! D1    D(9,1,2,3)            168.6121         -DE/DX =    0.0                 !
 ! D2    D(9,1,2,4)            -71.8795         -DE/DX =    0.0                 !
 ! D3    D(9,1,2,5)             49.223          -DE/DX =    0.0                 !
 ! D4    D(10,1,2,3)           -72.5269         -DE/DX =    0.0                 !
 ! D5    D(10,1,2,4)            46.9816         -DE/DX =    0.0                 !
 ! D6    D(10,1,2,5)           168.0841         -DE/DX =    0.0                 !
 ! D7    D(11,1,2,3)            48.0492         -DE/DX =    0.0                 !
 ! D8    D(11,1,2,4)           167.5577         -DE/DX =    0.0                 !
 ! D9    D(11,1,2,5)           -71.3398         -DE/DX =    0.0                 !
 ! D10   D(1,2,5,6)             39.7766         -DE/DX =    0.0                 !
 ! D11   D(1,2,5,7)            174.2677         -DE/DX =    0.0                 !
 ! D12   D(1,2,5,8)            -74.6716         -DE/DX =    0.0                 !
 ! D13   D(3,2,5,6)            -80.753          -DE/DX =    0.0                 !
 ! D14   D(3,2,5,7)             53.7381         -DE/DX =    0.0                 !
 ! D15   D(3,2,5,8)            164.7988         -DE/DX =    0.0                 !
 ! D16   D(4,2,5,6)            161.3852         -DE/DX =    0.0                 !
 ! D17   D(4,2,5,7)            -64.1237         -DE/DX =    0.0                 !
 ! D18   D(4,2,5,8)             46.937          -DE/DX =    0.0                 !
 ! D19   D(2,5,8,12)            88.9786         -DE/DX =    0.0                 !
 ! D20   D(6,5,8,12)           -23.9594         -DE/DX =    0.0                 !
 ! D21   D(7,5,8,12)          -160.4191         -DE/DX =    0.0                 !
 --------------------------------------------------------------------------------
 GradGradGradGradGradGradGradGradGradGradGradGradGradGradGradGradGradGrad

 Leave Link  103 at Fri May 23 04:55:27 2025, MaxMem=  3758096384 cpu:               0.1 elap:               0.0
 (Enter /apps/easybuild-2022/easybuild/software/Compiler/NVHPC/22.11-CUDA-11.7.0/Gaussian/g16c01-CUDA-11.7.0/g16/l9999.exe)

 ----------------------------------------------------------------------

 Electric dipole moment (input orientation):
 (Debye = 10**-18 statcoulomb cm , SI units = C m)
                  (au)            (Debye)         (10**-30 SI)
   Tot        0.111761D+01      0.284068D+01      0.947548D+01
   x         -0.677003D+00     -0.172077D+01     -0.573987D+01
   y         -0.786093D+00     -0.199805D+01     -0.666477D+01
   z         -0.415663D+00     -0.105651D+01     -0.352413D+01

 Dipole polarizability, Alpha (input orientation).
 (esu units = cm**3 , SI units = C**2 m**2 J**-1)
 Alpha(0;0):
               (au)            (10**-24 esu)      (10**-40 SI)
   iso        0.556966D+02      0.825338D+01      0.918313D+01
   aniso      0.604004D+01      0.895041D+00      0.995868D+00
   xx         0.545783D+02      0.808767D+01      0.899875D+01
   yx        -0.100421D+01     -0.148808D+00     -0.165571D+00
   yy         0.587567D+02      0.870684D+01      0.968766D+01
   zx        -0.150788D+01     -0.223444D+00     -0.248615D+00
   zy         0.129846D+01      0.192411D+00      0.214087D+00
   zz         0.537548D+02      0.796564D+01      0.886297D+01

 ----------------------------------------------------------------------

 Dipole orientation:
     6          1.16460012          1.63902574          1.89647933
     6          1.16456957         -0.08003943         -0.48977637
     9          2.25523693          1.16160669         -2.38982044
     9          2.46917201         -2.17498405          0.00702573
    16         -2.06870454         -1.03048056         -1.60208463
     8         -3.69093433          1.13008803         -1.33543431
     8         -1.70493340         -2.36307701         -3.91801992
     8         -2.78702711         -3.09469554          0.48891438
     9         -0.32292801          0.63076783          3.68098236
     9          3.49357178          1.80047211          2.80685342
     9          0.33768765          3.92907104          1.35176445
     1         -3.60598976         -2.30013984          1.91484704

 Electric dipole moment (dipole orientation):
 (Debye = 10**-18 statcoulomb cm , SI units = C m)
                  (au)            (Debye)         (10**-30 SI)
   Tot        0.111761D+01      0.284068D+01      0.947548D+01
   x          0.000000D+00      0.000000D+00      0.000000D+00
   y          0.000000D+00      0.000000D+00      0.000000D+00
   z          0.111761D+01      0.284068D+01      0.947548D+01

 Dipole polarizability, Alpha (dipole orientation).
 (esu units = cm**3 , SI units = C**2 m**2 J**-1)
 Alpha(0;0):
               (au)            (10**-24 esu)      (10**-40 SI)
   iso        0.556966D+02      0.825338D+01      0.918313D+01
   aniso      0.604004D+01      0.895041D+00      0.995868D+00
   xx         0.569628D+02      0.844102D+01      0.939190D+01
   yx         0.147383D+01      0.218399D+00      0.243002D+00
   yy         0.544512D+02      0.806884D+01      0.897779D+01
   zx         0.161640D+01      0.239525D+00      0.266508D+00
   zy         0.240799D+01      0.356828D+00      0.397024D+00
   zz         0.556757D+02      0.825029D+01      0.917969D+01

 ----------------------------------------------------------------------
 Unable to Open any file for archive entry.
 1\1\GINC-SPARTAN-BM207\Freq\RwB97XD\6-311++G(d,p)\C2H1F5O3S1\AKHALILOV
 \23-May-2025\0\\#P Geom=AllCheck Guess=TCheck SCRF=Check GenChk RwB97X
 D/6-311++G(d,p) Freq\\Gaussian input prepared by ASE\\0,1\C,0.11288532
 82,-1.4518445906,-0.1365108502\C,0.5952786757,0.0179885999,-0.30670518
 43\F,1.8311898663,0.1258418117,0.1797783877\F,0.5974479857,0.327495700
 1,-1.6024317709\S,-0.457709804,1.2849522324,0.5948900025\O,-0.81694700
 55,0.7212791087,1.8666023318\O,0.2066799803,2.5380608437,0.438083983\O
 ,-1.7456820634,1.3231476905,-0.354698783\F,-1.2014712697,-1.5304375067
 ,-0.3861702451\F,0.7503943698,-2.2280726418,-1.0021543632\F,0.34330981
 91,-1.8880365214,1.0881378195\H,-2.3896518824,0.6581592736,-0.07707832
 78\\Version=ES64L-G16RevC.01\HF=-1199.8258802\RMSD=2.033e-09\RMSF=4.70
 1e-06\ZeroPoint=0.0517719\Thermal=0.0622313\ETot=-1199.7636489\HTot=-1
 199.7627047\GTot=-1199.8108579\Dipole=-0.6770029,-0.7860925,-0.4156627
 \DipoleDeriv=1.5242547,-0.0188499,0.0538403,-0.2707648,1.6100066,0.164
 2243,0.0441526,-0.0215005,1.5964363,1.1941293,-0.2104083,0.0029077,-0.
 0252278,0.5026405,-0.0782489,0.0290734,0.043295,1.1702461,-0.93176,0.0
 7474,-0.1705688,-0.011734,-0.2845699,-0.0355035,-0.1515732,0.0034564,-
 0.2950597,-0.2827542,0.0128823,0.1181081,0.029531,-0.3087564,0.113359,
 0.1022953,0.0168786,-0.9465408,2.0944307,0.0906057,0.0665743,0.2187005
 ,2.078857,-0.110238,0.1359457,-0.0325721,2.0447156,-0.6349765,-0.01733
 47,0.221746,-0.0353352,-0.6452567,0.1870798,0.1521465,0.0339112,-1.072
 1611,-0.6024682,-0.1844383,0.016536,-0.1433366,-1.1384429,-0.0679229,0
 .0797196,0.0279246,-0.5292611,-1.221471,0.1069693,-0.3085128,-0.024854
 ,-0.5114939,-0.0997729,-0.3537953,-0.0260691,-0.6406964,-0.8778446,-0.
 0153193,-0.1250285,-0.0828519,-0.4123072,-0.0485807,-0.1037191,-0.0116
 813,-0.29543,-0.4168839,0.1662474,0.1918417,0.2657197,-0.7331997,-0.33
 89595,0.2244081,-0.2869837,-0.5512572,-0.2775257,0.0174598,-0.0830889,
 0.067108,-0.4653577,0.2429826,-0.1252643,0.201522,-0.7543549,0.4328696
 ,-0.0225541,0.015645,0.013045,0.3078802,0.0715808,-0.0333894,0.0518189
 ,0.2733633\Polar=54.5783298,-1.0042066,58.7566575,-1.5078763,1.2984571
 ,53.7547791\PG=Unknown\NImag=0\\0.53318783,0.00562929,0.58945603,0.000
 70857,-0.00986329,0.56974928,-0.06036108,-0.04718745,0.00858653,0.5151
 6564,-0.01881602,-0.17231149,-0.00285824,0.04332941,0.47363402,0.01204
 425,0.01787489,-0.04507171,0.00898274,-0.03331581,0.51422670,-0.039186
 68,0.00564817,-0.01478215,-0.29175260,-0.03286442,-0.05997308,0.370623
 55,-0.03372947,0.00427152,-0.00974862,-0.02165023,-0.07844018,-0.00413
 190,0.03190890,0.06752264,-0.00921484,-0.00038231,-0.00286769,-0.06052
 482,-0.01120972,-0.08471756,0.11957741,0.00670671,0.11838540,0.0024018
 4,0.00283021,0.01193283,-0.07074140,-0.00848564,0.02524161,-0.00726922
 ,0.00993085,-0.05714737,0.07265128,0.00073226,-0.00273573,0.03947052,-
 0.00844640,-0.09111422,0.05119624,0.00662026,0.01163740,0.00404073,0.0
 0135716,0.08621582,-0.00121935,0.00096743,-0.03693787,0.02699961,0.066
 33623,-0.29148910,-0.03926031,0.00507797,-0.04426060,0.00094533,-0.083
 57621,0.39895151,0.03577252,0.01332299,-0.00823924,-0.06914870,0.02002
 963,0.03857979,-0.03585348,0.01519685,0.00251288,0.00060184,0.00175301
 ,-0.00535325,0.63308425,0.01579078,-0.02606844,-0.01687618,0.04793303,
 -0.10284279,-0.04446226,-0.01339435,0.00374234,0.00176190,-0.00903118,
 0.00556485,0.01972778,0.26233780,0.91446047,-0.00373574,-0.01323978,0.
 02565825,0.03396560,-0.02326704,-0.05221450,-0.02226608,0.00596591,0.0
 0240278,0.01510233,-0.01198690,-0.04017350,-0.11168583,-0.21748022,0.8
 1909568,-0.00823848,-0.00381882,0.00087086,0.01160704,-0.01009741,0.00
 558463,-0.00028582,0.00068067,-0.00082686,-0.00288662,0.00304243,0.008
 38845,-0.12698647,-0.05560421,0.13420861,0.09657113,-0.00410705,0.0011
 6056,0.00968576,0.00142873,0.00951937,-0.00568413,0.00145027,-0.000048
 57,-0.00053934,0.00282690,-0.00070989,-0.00599598,-0.05364259,-0.17129
 297,0.18124195,0.06255022,0.15200580,0.00269565,0.00654308,-0.00860345
 ,-0.01333144,0.02210724,-0.00512662,0.01072866,-0.00387844,0.00274303,
 0.00446996,-0.00495555,-0.00875539,0.13367715,0.19090436,-0.52808202,-
 0.13430680,-0.21370154,0.55814462,-0.00558449,-0.00107049,0.00209896,0
 .00001988,0.00772014,0.00134550,0.00702455,0.00135738,0.00123813,0.001
 00998,0.00053101,-0.00049868,-0.20107593,-0.23002045,0.03481432,0.0111
 3291,-0.01340019,-0.00451701,0.20262848,0.00754156,0.00804619,-0.00438
 374,-0.03190635,-0.01930243,0.01606559,0.00716388,0.00211389,0.0010148
 7,0.00302890,0.00192386,-0.00893371,-0.23686184,-0.55156967,0.05973335
 ,-0.01071363,0.00195583,-0.00508139,0.26883865,0.56346837,0.00401931,0
 .00233036,-0.00528179,-0.00607108,-0.01132802,0.00405711,0.00247635,-0
 .00009310,0.00049153,-0.00122093,-0.00009256,0.00505562,0.03405888,0.0
 5564421,-0.09142159,0.01534198,0.03436690,0.00618038,-0.02918728,-0.06
 120264,0.07018278,-0.01166998,-0.00625406,0.00083148,-0.00243746,-0.00
 723959,-0.02609633,-0.00998372,0.00557389,0.00152093,-0.00055785,0.000
 75276,0.00647383,-0.18669483,0.00816808,-0.08297819,0.00953797,-0.0006
 6516,-0.00322469,-0.01898158,-0.00710898,-0.01551432,0.44678220,-0.006
 99220,0.00156553,-0.00120853,0.00499583,0.00929636,0.00718782,0.006190
 49,-0.00216552,-0.00046634,0.00148017,-0.00014702,-0.00175352,-0.00713
 219,-0.07922691,0.01023414,0.00724976,0.01177739,0.01218964,-0.0355856
 9,-0.00077869,-0.01689049,0.23901090,0.31591455,-0.00574820,-0.0002095
 7,-0.00448213,0.00290996,-0.00490486,-0.00550753,0.00125000,0.00053333
 ,0.00097581,0.00146180,-0.00010655,0.00790530,-0.06228014,0.02428455,-
 0.12745548,-0.03286022,0.00633992,-0.02087378,0.00262219,0.00504533,0.
 01042218,0.01302374,-0.13563348,0.20164664,-0.25157717,-0.04491981,-0.
 02878700,-0.03316833,0.00660882,-0.01168205,-0.00385699,-0.00929041,-0
 .00052453,0.00236684,-0.00337072,0.00397191,-0.01392765,-0.00041679,-0
 .00101977,0.00364737,0.00025987,-0.00059656,0.00238671,-0.00145280,-0.
 00073354,0.00660781,0.00413590,0.00364912,0.38338337,-0.04016843,-0.09
 188381,-0.00505304,-0.02996884,0.00762798,-0.00798836,-0.00759526,-0.0
 0786054,-0.00081573,0.00028611,-0.00127564,0.00187665,0.00128349,0.002
 52470,0.00264675,-0.00017300,-0.00067608,-0.00200884,-0.00046279,-0.00
 091651,-0.00013826,0.00190528,-0.00566955,-0.00106798,0.01708123,0.077
 12386,-0.03113942,-0.00653428,-0.07840985,-0.00341402,0.00179274,0.003
 19595,0.00055667,-0.00033719,0.00094582,0.00007319,-0.00199727,0.00398
 705,-0.00054776,0.00170955,-0.00465399,-0.00055139,-0.00227670,0.00083
 763,-0.00010796,-0.00014795,0.00074686,0.00090774,0.00097021,0.0019691
 8,0.05881786,0.00642750,0.09148006,-0.11250171,0.06108577,0.05595981,-
 0.00042484,0.00161672,0.00486065,0.00535545,0.00092152,0.00015441,0.00
 133038,-0.00138627,-0.00126761,-0.00293524,-0.00239648,-0.00010022,0.0
 0080562,0.00082619,-0.00021853,0.00083580,0.00057163,-0.00022689,0.001
 05580,0.00117267,0.00048139,-0.06502325,0.03940058,0.03337856,0.159041
 03,0.05813001,-0.18285709,-0.08629938,0.03061140,-0.03503596,-0.035663
 61,-0.00434242,0.00102352,0.00103227,-0.00111190,0.00137122,0.00036926
 ,-0.01091232,0.00215190,0.00681333,0.00184864,0.00038381,-0.00250172,0
 .00103094,-0.00586974,-0.00199262,0.00360936,-0.00016061,0.00076214,0.
 02459111,0.00792455,-0.00419063,-0.10040338,0.19127800,0.05496856,-0.0
 9190561,-0.15597615,0.01247871,-0.01104589,-0.01252776,-0.00103588,0.0
 0082216,0.00175480,-0.00230694,0.00226427,0.00724036,-0.00237499,0.002
 98569,-0.00071778,0.00029235,-0.00139193,0.00056147,-0.00014993,-0.002
 18586,0.00008257,0.00110988,-0.00035659,0.00080684,0.02247356,-0.00491
 221,0.00888780,-0.10820373,0.13065238,0.22991402,-0.07891659,0.0125065
 2,-0.02933583,0.00318946,-0.00388601,0.00139193,0.00395904,-0.00061559
 ,0.00319790,0.00032564,-0.00123919,0.00150055,-0.00398213,-0.00101579,
 0.00054239,0.00100561,0.00145186,-0.00033980,0.00078055,-0.00024588,-0
 .00043320,0.00133386,0.00080924,0.00072791,-0.03213460,0.01995979,-0.0
 5795986,0.01183835,-0.00247650,0.02318328,0.09228010,0.00790888,-0.129
 56768,0.08621245,0.00996091,-0.00229500,0.03625163,-0.00194757,-0.0006
 0538,-0.00082493,-0.00310567,-0.01022479,0.00642281,-0.00317941,0.0024
 6267,0.00204502,0.00235447,-0.00219725,-0.00199463,0.00027066,-0.00181
 809,-0.00067811,0.00128121,-0.00039905,-0.00006984,0.01111593,0.012983
 81,0.00508794,0.00002851,0.01996205,-0.02522656,-0.02422368,0.11178888
 ,-0.02487403,0.09446803,-0.25961031,-0.01107036,0.00671174,-0.02476116
 ,0.00301058,-0.00088413,0.00421267,0.00136123,0.00626971,-0.00073507,0
 .00349538,0.00146825,-0.01153076,-0.00027864,-0.00434948,0.00535899,-0
 .00078831,0.00180709,0.00228899,-0.00001883,0.00104519,0.00225114,-0.0
 4440534,0.01071047,-0.02812996,0.01539986,-0.00899996,-0.07986580,0.05
 777916,-0.10738480,0.39138343,-0.00332601,0.00222767,0.00015518,-0.001
 94761,0.00208438,-0.00027964,0.00122593,-0.00028436,0.00003675,0.00076
 729,-0.00034630,-0.00068048,-0.02885417,-0.02235046,0.00315259,0.00408
 973,0.00102095,0.00496342,-0.00017686,0.00114486,-0.00250928,-0.234992
 20,-0.21533488,0.07476244,0.00129589,-0.00154815,-0.00001361,0.0006226
 2,-0.00057495,-0.00043488,0.00032071,-0.00046424,0.00038932,0.26097468
 ,0.00808039,0.00092440,0.00092229,0.00089996,0.00126434,0.00266990,0.0
 0116206,-0.00119112,-0.00031811,-0.00000591,-0.00050586,-0.00051870,-0
 .00219544,0.00009386,-0.00270653,0.00268088,-0.00187800,0.00237778,0.0
 0079083,0.00274697,0.00007433,-0.23903369,-0.25000649,0.10502701,-0.00
 434234,0.00009723,-0.00050393,-0.00143746,-0.00017165,0.00030015,-0.00
 102476,-0.00009017,-0.00086211,0.23442548,0.24871651,0.00149525,-0.000
 04893,0.00183344,0.00048857,0.00098163,-0.00006382,-0.00028215,-0.0000
 3270,-0.00006597,0.00008695,-0.00052643,-0.00078832,-0.02184287,-0.019
 66764,0.00909291,0.00413703,0.00230457,-0.00238485,-0.00686992,-0.0017
 3094,-0.00280465,0.10396477,0.12468194,-0.06765815,-0.00116366,0.00032
 303,-0.00085656,-0.00021771,0.00001855,-0.00016037,-0.00025444,0.00015
 903,-0.00086215,-0.07954181,-0.10646210,0.06471848\\0.00000251,0.00000
 049,-0.00000362,-0.00000177,-0.00000608,-0.00000235,-0.00000222,-0.000
 00122,0.00000337,-0.00000299,-0.00000176,0.00000133,-0.00000206,0.0000
 1687,-0.00000696,0.00000617,-0.00000341,-0.00000183,-0.00000158,-0.000
 00705,0.00000405,0.00000366,-0.00000975,0.00000364,0.00000454,0.000000
 52,0.00000273,-0.00000351,0.00000567,0.00000326,-0.00000071,0.00000188
 ,-0.00000341,-0.00000204,0.00000384,-0.00000022\\\@
 The archive entry for this job was punched.


 EDUCATION DOESN'T COST 
           ... IT PAYS!

 -- POSTMARK, UNIV. OF MISSISSIPPI, DEC 78
 Job cpu time:       0 days  0 hours  9 minutes 52.2 seconds.
 Elapsed time:       0 days  0 hours  1 minutes 54.2 seconds.
 File lengths (MBytes):  RWF=     99 Int=      0 D2E=      0 Chk=      6 Scr=      1
 Normal termination of Gaussian 16 at Fri May 23 04:55:27 2025.
done
