 Entering Gaussian System, Link 0=g16
 Initial command:
 /apps/easybuild-2022/easybuild/software/Compiler/NVHPC/22.11-CUDA-11.7.0/Gaussian/g16c01-CUDA-11.7.0/g16/l1.exe "/tmp/Gau-195549.inp" -scrdir="/tmp/"
 Entering Link 1 = /apps/easybuild-2022/easybuild/software/Compiler/NVHPC/22.11-CUDA-11.7.0/Gaussian/g16c01-CUDA-11.7.0/g16/l1.exe PID=    195556.
  
 Copyright (c) 1988-2019, Gaussian, Inc.  All Rights Reserved.
  
 This is part of the Gaussian(R) 16 program.  It is based on
 the Gaussian(R) 09 system (copyright 2009, Gaussian, Inc.),
 the Gaussian(R) 03 system (copyright 2003, Gaussian, Inc.),
 the Gaussian(R) 98 system (copyright 1998, Gaussian, Inc.),
 the Gaussian(R) 94 system (copyright 1995, Gaussian, Inc.),
 the Gaussian 92(TM) system (copyright 1992, Gaussian, Inc.),
 the Gaussian 90(TM) system (copyright 1990, Gaussian, Inc.),
 the Gaussian 88(TM) system (copyright 1988, Gaussian, Inc.),
 the Gaussian 86(TM) system (copyright 1986, Carnegie Mellon
 University), and the Gaussian 82(TM) system (copyright 1983,
 Carnegie Mellon University). Gaussian is a federally registered
 trademark of Gaussian, Inc.
  
 This software contains proprietary and confidential information,
 including trade secrets, belonging to Gaussian, Inc.
  
 This software is provided under written license and may be
 used, copied, transmitted, or stored only in accord with that
 written license.
  
 The following legend is applicable only to US Government
 contracts under FAR:
  
                    RESTRICTED RIGHTS LEGEND
  
 Use, reproduction and disclosure by the US Government is
 subject to restrictions as set forth in subparagraphs (a)
 and (c) of the Commercial Computer Software - Restricted
 Rights clause in FAR 52.227-19.
  
 Gaussian, Inc.
 340 Quinnipiac St., Bldg. 40, Wallingford CT 06492
  
  
 ---------------------------------------------------------------
 Warning -- This program may not be used in any manner that
 competes with the business of Gaussian, Inc. or will provide
 assistance to any competitor of Gaussian, Inc.  The licensee
 of this program is prohibited from giving any competitor of
 Gaussian, Inc. access to this program.  By using this program,
 the user acknowledges that Gaussian, Inc. is engaged in the
 business of creating and licensing software in the field of
 computational chemistry and represents and warrants to the
 licensee that it is not a competitor of Gaussian, Inc. and that
 it will not use this program in any manner prohibited above.
 ---------------------------------------------------------------
  

 Cite this work as:
 Gaussian 16, Revision C.01,
 M. J. Frisch, G. W. Trucks, H. B. Schlegel, G. E. Scuseria, 
 M. A. Robb, J. R. Cheeseman, G. Scalmani, V. Barone, 
 G. A. Petersson, H. Nakatsuji, X. Li, M. Caricato, A. V. Marenich, 
 J. Bloino, B. G. Janesko, R. Gomperts, B. Mennucci, H. P. Hratchian, 
 J. V. Ortiz, A. F. Izmaylov, J. L. Sonnenberg, D. Williams-Young, 
 F. Ding, F. Lipparini, F. Egidi, J. Goings, B. Peng, A. Petrone, 
 T. Henderson, D. Ranasinghe, V. G. Zakrzewski, J. Gao, N. Rega, 
 G. Zheng, W. Liang, M. Hada, M. Ehara, K. Toyota, R. Fukuda, 
 J. Hasegawa, M. Ishida, T. Nakajima, Y. Honda, O. Kitao, H. Nakai, 
 T. Vreven, K. Throssell, J. A. Montgomery, Jr., J. E. Peralta, 
 F. Ogliaro, M. J. Bearpark, J. J. Heyd, E. N. Brothers, K. N. Kudin, 
 V. N. Staroverov, T. A. Keith, R. Kobayashi, J. Normand, 
 K. Raghavachari, A. P. Rendell, J. C. Burant, S. S. Iyengar, 
 J. Tomasi, M. Cossi, J. M. Millam, M. Klene, C. Adamo, R. Cammi, 
 J. W. Ochterski, R. L. Martin, K. Morokuma, O. Farkas, 
 J. B. Foresman, and D. J. Fox, Gaussian, Inc., Wallingford CT, 2019.
 
 ******************************************
 Gaussian 16:  ES64L-G16RevC.01  3-Jul-2019
                23-May-2025 
 ******************************************
 %mem=28GB
 %chk=2003846667223680600001_r12_insertion_R_9_1_10
 %nprocshared=8
 Will use up to    8 processors via shared memory.
 ----------------------------------------------------------------------
 #P wb97xd/6-311++G(d,p) Symm(None) scf(xqc) pop(None) opt(NoFreeze,TS,
 CalcAll,NoEigentest,MaxCycle=999)
 ----------------------------------------------------------------------
 1/5=1,6=999,10=4,11=1,18=20,26=3,29=2000,38=1/1,3;
 2/9=110,12=2,15=3,17=6,18=5,40=1/2;
 3/5=4,6=6,7=1111,11=2,25=1,30=1,71=2,74=-58,140=1/1,2,3;
 4//1;
 5/5=2,8=3,13=1,38=5/2,8;
 8/6=4,10=90,11=11/1;
 11/6=1,8=1,9=11,15=111,16=1,31=1/1,2,10;
 10/6=1,31=1/2;
 7/10=1,25=1,30=1/1,2,3,16;
 1/5=1,6=999,10=4,11=1,18=20,26=3/3(3);
 2/9=110,15=3/2;
 7/8=1,9=1,25=1,30=1,44=-1/16;
 99//99;
 2/9=110,15=3/2;
 3/5=4,6=6,7=1111,11=2,25=1,30=1,71=2,74=-58,140=1/1,2,3;
 4/5=5,16=3,69=1/1;
 5/5=2,8=3,13=1,38=5/2,8;
 8/6=4,10=90,11=11/1;
 11/6=1,8=1,9=11,15=111,16=1,31=1/1,2,10;
 10/6=1,31=1/2;
 7/10=1,25=1,30=1/1,2,3,16;
 1/5=1,6=999,10=4,11=1,18=20,26=3/3(-8);
 2/9=110,15=3/2;
 7/8=1,9=1,25=1,30=1,44=-1/16;
 99//99;
 Leave Link    1 at Fri May 23 03:21:06 2025, MaxMem=  3758096384 cpu:               0.1 elap:               0.0
 (Enter /apps/easybuild-2022/easybuild/software/Compiler/NVHPC/22.11-CUDA-11.7.0/Gaussian/g16c01-CUDA-11.7.0/g16/l101.exe)
 ------------------------------
 Gaussian input prepared by ASE
 ------------------------------
 Symbolic Z-matrix:
 Charge =  0 Multiplicity = 1
 C                    -1.15289  -0.13354   0.82472 
 C                    -0.2043    0.5657    0.04807 
 F                    -0.23795   0.23258  -1.27212 
 F                    -0.4784    1.89072   0.02693 
 S                     1.51286   0.29087   0.76152 
 O                     2.12617   1.37352   1.49568 
 O                     1.92177  -1.05862   0.4972 
 O                     1.93646   0.87964  -0.6588 
 F                    -0.61224  -1.51604   1.58977 
 F                     0.66288  -0.19027   2.06559 
 F                    -2.25797   0.04733   1.26672 
 H                     2.83402   1.21614  -0.82698 
 
 Add virtual bond connecting atoms F9         and C1         Dist= 3.16D+00.
 ITRead=  0  0  0  0  0  0  0  0  0  0  0  0
 MicOpt= -1 -1 -1 -1 -1 -1 -1 -1 -1 -1 -1 -1
 NAtoms=     12 NQM=       12 NQMF=       0 NMMI=      0 NMMIF=      0
                NMic=       0 NMicF=      0.
                    Isotopes and Nuclear Properties:
 (Nuclear quadrupole moments (NQMom) in fm**2, nuclear magnetic moments (NMagM)
  in nuclear magnetons)

  Atom         1           2           3           4           5           6           7           8           9          10
 IAtWgt=          12          12          19          19          32          16          16          16          19          19
 AtmWgt=  12.0000000  12.0000000  18.9984032  18.9984032  31.9720718  15.9949146  15.9949146  15.9949146  18.9984032  18.9984032
 NucSpn=           0           0           1           1           0           0           0           0           1           1
 AtZEff=  -0.0000000  -0.0000000  -0.0000000  -0.0000000  -0.0000000  -0.0000000  -0.0000000  -0.0000000  -0.0000000  -0.0000000
 NQMom=    0.0000000   0.0000000   0.0000000   0.0000000   0.0000000   0.0000000   0.0000000   0.0000000   0.0000000   0.0000000
 NMagM=    0.0000000   0.0000000   2.6288670   2.6288670   0.0000000   0.0000000   0.0000000   0.0000000   2.6288670   2.6288670
 AtZNuc=   6.0000000   6.0000000   9.0000000   9.0000000  16.0000000   8.0000000   8.0000000   8.0000000   9.0000000   9.0000000

  Atom        11          12
 IAtWgt=          19           1
 AtmWgt=  18.9984032   1.0078250
 NucSpn=           1           1
 AtZEff=  -0.0000000  -0.0000000
 NQMom=    0.0000000   0.0000000
 NMagM=    2.6288670   2.7928460
 AtZNuc=   9.0000000   1.0000000
 Leave Link  101 at Fri May 23 03:21:06 2025, MaxMem=  3758096384 cpu:               0.2 elap:               0.2
 (Enter /apps/easybuild-2022/easybuild/software/Compiler/NVHPC/22.11-CUDA-11.7.0/Gaussian/g16c01-CUDA-11.7.0/g16/l103.exe)

 GradGradGradGradGradGradGradGradGradGradGradGradGradGradGradGradGradGrad
 Berny optimization.
 Initialization pass.
                           ----------------------------
                           !    Initial Parameters    !
                           ! (Angstroms and Degrees)  !
 --------------------------                            --------------------------
 ! Name  Definition              Value          Derivative Info.                !
 --------------------------------------------------------------------------------
 ! R1    R(1,2)                  1.4114         calculate D2E/DX2 analytically  !
 ! R2    R(1,9)                  1.67           calculate D2E/DX2 analytically  !
 ! R3    R(1,11)                 1.2039         calculate D2E/DX2 analytically  !
 ! R4    R(2,3)                  1.362          calculate D2E/DX2 analytically  !
 ! R5    R(2,4)                  1.3532         calculate D2E/DX2 analytically  !
 ! R6    R(2,5)                  1.8797         calculate D2E/DX2 analytically  !
 ! R7    R(5,6)                  1.4447         calculate D2E/DX2 analytically  !
 ! R8    R(5,7)                  1.4346         calculate D2E/DX2 analytically  !
 ! R9    R(5,8)                  1.5948         calculate D2E/DX2 analytically  !
 ! R10   R(5,10)                 1.6293         calculate D2E/DX2 analytically  !
 ! R11   R(8,12)                 0.9732         calculate D2E/DX2 analytically  !
 ! A1    A(2,1,9)              116.4008         calculate D2E/DX2 analytically  !
 ! A2    A(2,1,11)             138.1215         calculate D2E/DX2 analytically  !
 ! A3    A(9,1,11)             104.6765         calculate D2E/DX2 analytically  !
 ! A4    A(1,2,3)              113.3047         calculate D2E/DX2 analytically  !
 ! A5    A(1,2,4)              110.9508         calculate D2E/DX2 analytically  !
 ! A6    A(1,2,5)              109.432          calculate D2E/DX2 analytically  !
 ! A7    A(3,2,4)              102.6706         calculate D2E/DX2 analytically  !
 ! A8    A(3,2,5)              110.7763         calculate D2E/DX2 analytically  !
 ! A9    A(4,2,5)              109.5193         calculate D2E/DX2 analytically  !
 ! A10   A(2,5,6)              118.1068         calculate D2E/DX2 analytically  !
 ! A11   A(2,5,7)              109.1465         calculate D2E/DX2 analytically  !
 ! A12   A(2,5,8)               81.4098         calculate D2E/DX2 analytically  !
 ! A13   A(2,5,10)              82.5532         calculate D2E/DX2 analytically  !
 ! A14   A(6,5,7)              132.6507         calculate D2E/DX2 analytically  !
 ! A15   A(6,5,8)               93.6207         calculate D2E/DX2 analytically  !
 ! A16   A(6,5,10)              92.0648         calculate D2E/DX2 analytically  !
 ! A17   A(7,5,8)               96.1701         calculate D2E/DX2 analytically  !
 ! A18   A(7,5,10)              91.0532         calculate D2E/DX2 analytically  !
 ! A19   A(8,5,10)             163.8252         calculate D2E/DX2 analytically  !
 ! A20   A(5,8,12)             121.7706         calculate D2E/DX2 analytically  !
 ! D1    D(9,1,2,3)             95.1371         calculate D2E/DX2 analytically  !
 ! D2    D(9,1,2,4)           -149.9861         calculate D2E/DX2 analytically  !
 ! D3    D(9,1,2,5)            -29.0245         calculate D2E/DX2 analytically  !
 ! D4    D(11,1,2,3)           -97.0628         calculate D2E/DX2 analytically  !
 ! D5    D(11,1,2,4)            17.814          calculate D2E/DX2 analytically  !
 ! D6    D(11,1,2,5)           138.7756         calculate D2E/DX2 analytically  !
 ! D7    D(1,2,5,6)           -105.3513         calculate D2E/DX2 analytically  !
 ! D8    D(1,2,5,7)             71.5328         calculate D2E/DX2 analytically  !
 ! D9    D(1,2,5,8)            165.1229         calculate D2E/DX2 analytically  !
 ! D10   D(1,2,5,10)           -16.9912         calculate D2E/DX2 analytically  !
 ! D11   D(3,2,5,6)            129.0194         calculate D2E/DX2 analytically  !
 ! D12   D(3,2,5,7)            -54.0965         calculate D2E/DX2 analytically  !
 ! D13   D(3,2,5,8)             39.4936         calculate D2E/DX2 analytically  !
 ! D14   D(3,2,5,10)          -142.6205         calculate D2E/DX2 analytically  !
 ! D15   D(4,2,5,6)             16.475          calculate D2E/DX2 analytically  !
 ! D16   D(4,2,5,7)           -166.6409         calculate D2E/DX2 analytically  !
 ! D17   D(4,2,5,8)            -73.0508         calculate D2E/DX2 analytically  !
 ! D18   D(4,2,5,10)           104.8351         calculate D2E/DX2 analytically  !
 ! D19   D(2,5,8,12)           163.2661         calculate D2E/DX2 analytically  !
 ! D20   D(6,5,8,12)            45.3709         calculate D2E/DX2 analytically  !
 ! D21   D(7,5,8,12)           -88.2337         calculate D2E/DX2 analytically  !
 ! D22   D(10,5,8,12)          155.7209         calculate D2E/DX2 analytically  !
 --------------------------------------------------------------------------------
 Trust Radius=3.00D-01 FncErr=1.00D-07 GrdErr=1.00D-06 EigMax=2.50D+02 EigMin=1.00D-04
 Number of steps in this run=    100 maximum allowed number of steps=    100.
 Search for a saddle point of order  1.
 GradGradGradGradGradGradGradGradGradGradGradGradGradGradGradGradGradGrad

 Leave Link  103 at Fri May 23 03:21:06 2025, MaxMem=  3758096384 cpu:               0.1 elap:               0.0
 (Enter /apps/easybuild-2022/easybuild/software/Compiler/NVHPC/22.11-CUDA-11.7.0/Gaussian/g16c01-CUDA-11.7.0/g16/l202.exe)
                          Input orientation:                          
 ---------------------------------------------------------------------
 Center     Atomic      Atomic             Coordinates (Angstroms)
 Number     Number       Type             X           Y           Z
 ---------------------------------------------------------------------
      1          6           0       -1.152886   -0.133537    0.824723
      2          6           0       -0.204303    0.565699    0.048067
      3          9           0       -0.237950    0.232575   -1.272120
      4          9           0       -0.478395    1.890724    0.026932
      5         16           0        1.512861    0.290866    0.761521
      6          8           0        2.126170    1.373522    1.495678
      7          8           0        1.921766   -1.058621    0.497202
      8          8           0        1.936461    0.879639   -0.658802
      9          9           0       -0.612238   -1.516037    1.589767
     10          9           0        0.662884   -0.190271    2.065594
     11          9           0       -2.257968    0.047331    1.266715
     12          1           0        2.834022    1.216143   -0.826981
 ---------------------------------------------------------------------
                    Distance matrix (angstroms):
                    1          2          3          4          5
     1  C    0.000000
     2  C    1.411359   0.000000
     3  F    2.316872   1.361983   0.000000
     4  F    2.277947   1.353242   2.120096   0.000000
     5  S    2.700059   1.879681   2.684107   2.657869   0.000000
     6  O    3.670642   2.859941   3.814647   3.034546   1.444742
     7  O    3.227466   2.712989   3.076046   3.831522   1.434637
     8  O    3.573715   2.276201   2.350088   2.706299   1.594807
     9  F    1.670000   2.622380   3.374631   3.750518   2.909800
    10  F    2.200000   2.322481   3.482906   3.128770   1.629282
    11  F    1.203859   2.443634   3.249688   2.846408   3.812307
    12  H    4.521637   3.228034   3.256158   3.486593   2.263834
                    6          7          8          9         10
     6  O    0.000000
     7  O    2.637054   0.000000
     8  O    2.218489   2.256859   0.000000
     9  F    3.982120   2.797160   4.158268   0.000000
    10  F    2.216181   2.190586   3.192027   1.900001   0.000000
    11  F    4.586052   4.391521   4.689732   2.292795   3.037440
    12  H    2.433222   2.785718   0.973209   5.018186   3.880571
                   11         12
    11  F    0.000000
    12  H    5.628325   0.000000
 Symmetry turned off by external request.
 Stoichiometry    C2HF5O3S
 Rotational constants (GHZ):           1.4570333           1.0016616           0.8111767
 Leave Link  202 at Fri May 23 03:21:06 2025, MaxMem=  3758096384 cpu:               0.1 elap:               0.0
 (Enter /apps/easybuild-2022/easybuild/software/Compiler/NVHPC/22.11-CUDA-11.7.0/Gaussian/g16c01-CUDA-11.7.0/g16/l301.exe)
 Standard basis: 6-311++G(d,p) (5D, 7F)
 Ernie: Thresh=  0.10000D-02 Tol=  0.10000D-05 Strict=F.
   257 basis functions,   419 primitive gaussians,   268 cartesian basis functions
    49 alpha electrons       49 beta electrons
       nuclear repulsion energy       948.0395420481 Hartrees.
 IExCor= 4639 DFT=T Ex+Corr=wB97XD ExCW=0 ScaHFX=  1.000000
 ScaDFX=  1.000000  1.000000  1.000000  1.000000 ScalE2=  1.000000  1.000000
 IRadAn=      5 IRanWt=     -1 IRanGd=            0 ICorTp=0 IEmpDi=121
 HFx  wShort=  0.000000 wLong=  0.200000 cFull=  0.222036 cShort=  0.000000 cLong=  0.777964
 DFx  wShort=  0.000000 wLong=  0.200000 cFull=  0.000000 cShort=  0.000000 cLong=  1.000000
 NAtoms=   12 NActive=   12 NUniq=   12 SFac= 1.00D+00 NAtFMM=   60 NAOKFM=F Big=F
 Integral buffers will be    131072 words long.
 Raffenetti 2 integral format.
 Two-electron integral symmetry is turned off.
 R6Disp:  Grimme-D2 Dispersion energy=       -0.0053515492 Hartrees.
 Nuclear repulsion after empirical dispersion term =      948.0341904989 Hartrees.
 Leave Link  301 at Fri May 23 03:21:06 2025, MaxMem=  3758096384 cpu:               0.1 elap:               0.0
 (Enter /apps/easybuild-2022/easybuild/software/Compiler/NVHPC/22.11-CUDA-11.7.0/Gaussian/g16c01-CUDA-11.7.0/g16/l302.exe)
 NPDir=0 NMtPBC=     1 NCelOv=     1 NCel=       1 NClECP=     1 NCelD=      1
         NCelK=      1 NCelE2=     1 NClLst=     1 CellRange=     0.0.
 One-electron integrals computed using PRISM.
 NBasis=   257 RedAO= T EigKep=  3.35D-05  NBF=   257
 NBsUse=   257 1.00D-06 EigRej= -1.00D+00 NBFU=   257
 Precomputing XC quadrature grid using
 IXCGrd= 4 IRadAn=           5 IRanWt=          -1 IRanGd=           0 AccXCQ= 0.00D+00.
 Generated NRdTot=       0 NPtTot=           0 NUsed=           0 NTot=          32
 NSgBfM=   268   268   268   268   268 MxSgAt=    12 MxSgA2=    12.
 Leave Link  302 at Fri May 23 03:21:06 2025, MaxMem=  3758096384 cpu:               0.7 elap:               0.1
 (Enter /apps/easybuild-2022/easybuild/software/Compiler/NVHPC/22.11-CUDA-11.7.0/Gaussian/g16c01-CUDA-11.7.0/g16/l303.exe)
 DipDrv:  MaxL=1.
 Leave Link  303 at Fri May 23 03:21:06 2025, MaxMem=  3758096384 cpu:               0.0 elap:               0.0
 (Enter /apps/easybuild-2022/easybuild/software/Compiler/NVHPC/22.11-CUDA-11.7.0/Gaussian/g16c01-CUDA-11.7.0/g16/l401.exe)
 ExpMin= 3.60D-02 ExpMax= 9.34D+04 ExpMxC= 3.17D+03 IAcc=3 IRadAn=         5 AccDes= 0.00D+00
 Harris functional with IExCor= 4639 and IRadAn=       5 diagonalized for initial guess.
 HarFok:  IExCor= 4639 AccDes= 0.00D+00 IRadAn=         5 IDoV= 1 UseB2=F ITyADJ=14
 ICtDFT=  3500011 ScaDFX=  1.000000  1.000000  1.000000  1.000000
 FoFCou: FMM=F IPFlag=           0 FMFlag=      100000 FMFlg1=           0
         NFxFlg=           0 DoJE=T BraDBF=F KetDBF=T FulRan=T
         wScrn=  0.000000 ICntrl=       500 IOpCl=  0 I1Cent=   200000004 NGrid=           0
         NMat0=    1 NMatS0=      1 NMatT0=    0 NMatD0=    1 NMtDS0=    0 NMtDT0=    0
 Symmetry not used in FoFCou.
 Harris En= -1166.89172633199    
 JPrj=0 DoOrth=F DoCkMO=F.
 Leave Link  401 at Fri May 23 03:21:07 2025, MaxMem=  3758096384 cpu:               2.5 elap:               0.4
 (Enter /apps/easybuild-2022/easybuild/software/Compiler/NVHPC/22.11-CUDA-11.7.0/Gaussian/g16c01-CUDA-11.7.0/g16/l502.exe)
 Keep R1 ints in memory in canonical form, NReq=1117474633.
 FoFCou: FMM=F IPFlag=           0 FMFlag=           0 FMFlg1=           0
         NFxFlg=           0 DoJE=F BraDBF=F KetDBF=F FulRan=T
         wScrn=  0.000000 ICntrl=       600 IOpCl=  0 I1Cent=           0 NGrid=           0
         NMat0=    1 NMatS0=  33153 NMatT0=    0 NMatD0=    1 NMtDS0=    0 NMtDT0=    0
 Symmetry not used in FoFCou.
 Two-electron integral symmetry not used.
 Closed shell SCF:
 Using DIIS extrapolation, IDIIS=  1040.
 NGot=  3758096384 LenX=  2658793852 LenY=  2658721587
 Requested convergence on RMS density matrix=1.00D-08 within  32 cycles.
 Requested convergence on MAX density matrix=1.00D-06.
 Requested convergence on             energy=1.00D-06.
 No special actions if energy rises.

 Cycle   1  Pass 1  IDiag  1:
 E= -1198.66118121802    
 DIIS: error= 8.15D-02 at cycle   1 NSaved=   1.
 NSaved= 1 IEnMin= 1 EnMin= -1198.66118121802     IErMin= 1 ErrMin= 8.15D-02
 ErrMax= 8.15D-02  0.00D+00 EMaxC= 1.00D-01 BMatC= 3.46D+00 BMatP= 3.46D+00
 IDIUse=3 WtCom= 1.85D-01 WtEn= 8.15D-01
 Coeff-Com:  0.100D+01
 Coeff-En:   0.100D+01
 Coeff:      0.100D+01
 Gap=     0.212 Goal=   None    Shift=    0.000
 GapD=    0.212 DampG=1.000 DampE=0.500 DampFc=0.5000 IDamp=-1.
 Damping current iteration by 5.00D-01
 RMSDP=1.74D-02 MaxDP=1.09D+00              OVMax= 7.94D-01

 Cycle   2  Pass 1  IDiag  1:
 E= -1198.67978917087     Delta-E=       -0.018607952843 Rises=F Damp=T
 DIIS: error= 3.69D-02 at cycle   2 NSaved=   2.
 NSaved= 2 IEnMin= 2 EnMin= -1198.67978917087     IErMin= 2 ErrMin= 3.69D-02
 ErrMax= 3.69D-02  0.00D+00 EMaxC= 1.00D-01 BMatC= 6.72D-01 BMatP= 3.46D+00
 IDIUse=3 WtCom= 6.31D-01 WtEn= 3.69D-01
 Coeff-Com: -0.129D+00 0.113D+01
 Coeff-En:   0.488D+00 0.512D+00
 Coeff:      0.991D-01 0.901D+00
 Gap=     0.415 Goal=   None    Shift=    0.000
 RMSDP=9.85D-03 MaxDP=5.79D-01 DE=-1.86D-02 OVMax= 7.31D-01

 Cycle   3  Pass 1  IDiag  1:
 E= -1198.95707193054     Delta-E=       -0.277282759677 Rises=F Damp=F
 DIIS: error= 2.86D-02 at cycle   3 NSaved=   3.
 NSaved= 3 IEnMin= 3 EnMin= -1198.95707193054     IErMin= 3 ErrMin= 2.86D-02
 ErrMax= 2.86D-02  0.00D+00 EMaxC= 1.00D-01 BMatC= 6.16D-01 BMatP= 6.72D-01
 IDIUse=3 WtCom= 7.14D-01 WtEn= 2.86D-01
 Coeff-Com: -0.150D+00 0.630D+00 0.521D+00
 Coeff-En:   0.000D+00 0.368D+00 0.632D+00
 Coeff:     -0.107D+00 0.555D+00 0.553D+00
 Gap=     0.215 Goal=   None    Shift=    0.000
 RMSDP=6.74D-03 MaxDP=3.76D-01 DE=-2.77D-01 OVMax= 1.48D-01

 Cycle   4  Pass 1  IDiag  1:
 E= -1199.41689400337     Delta-E=       -0.459822072826 Rises=F Damp=F
 DIIS: error= 7.82D-03 at cycle   4 NSaved=   4.
 NSaved= 4 IEnMin= 4 EnMin= -1199.41689400337     IErMin= 4 ErrMin= 7.82D-03
 ErrMax= 7.82D-03  0.00D+00 EMaxC= 1.00D-01 BMatC= 5.23D-02 BMatP= 6.16D-01
 IDIUse=3 WtCom= 9.22D-01 WtEn= 7.82D-02
 Coeff-Com: -0.109D+00 0.285D+00 0.169D+00 0.654D+00
 Coeff-En:   0.000D+00 0.000D+00 0.000D+00 0.100D+01
 Coeff:     -0.100D+00 0.263D+00 0.156D+00 0.681D+00
 Gap=     0.122 Goal=   None    Shift=    0.000
 RMSDP=1.70D-03 MaxDP=1.15D-01 DE=-4.60D-01 OVMax= 4.02D-02

 Cycle   5  Pass 1  IDiag  1:
 E= -1199.44252148928     Delta-E=       -0.025627485917 Rises=F Damp=F
 DIIS: error= 5.93D-03 at cycle   5 NSaved=   5.
 NSaved= 5 IEnMin= 5 EnMin= -1199.44252148928     IErMin= 5 ErrMin= 5.93D-03
 ErrMax= 5.93D-03  0.00D+00 EMaxC= 1.00D-01 BMatC= 2.33D-02 BMatP= 5.23D-02
 IDIUse=3 WtCom= 9.41D-01 WtEn= 5.93D-02
 Coeff-Com: -0.579D-01 0.120D+00-0.166D-01 0.379D+00 0.576D+00
 Coeff-En:   0.000D+00 0.000D+00 0.000D+00 0.552D-01 0.945D+00
 Coeff:     -0.545D-01 0.113D+00-0.156D-01 0.360D+00 0.598D+00
 Gap=     0.128 Goal=   None    Shift=    0.000
 RMSDP=1.75D-03 MaxDP=1.21D-01 DE=-2.56D-02 OVMax= 3.91D-02

 Cycle   6  Pass 1  IDiag  1:
 E= -1199.46133695208     Delta-E=       -0.018815462793 Rises=F Damp=F
 DIIS: error= 1.60D-03 at cycle   6 NSaved=   6.
 NSaved= 6 IEnMin= 6 EnMin= -1199.46133695208     IErMin= 6 ErrMin= 1.60D-03
 ErrMax= 1.60D-03  0.00D+00 EMaxC= 1.00D-01 BMatC= 1.45D-03 BMatP= 2.33D-02
 IDIUse=3 WtCom= 9.84D-01 WtEn= 1.60D-02
 Coeff-Com: -0.120D-01 0.221D-01-0.336D-01 0.282D-01 0.188D+00 0.807D+00
 Coeff-En:   0.000D+00 0.000D+00 0.000D+00 0.000D+00 0.000D+00 0.100D+01
 Coeff:     -0.118D-01 0.218D-01-0.330D-01 0.277D-01 0.185D+00 0.810D+00
 Gap=     0.145 Goal=   None    Shift=    0.000
 RMSDP=6.20D-04 MaxDP=3.25D-02 DE=-1.88D-02 OVMax= 2.70D-02

 Cycle   7  Pass 1  IDiag  1:
 E= -1199.46342569446     Delta-E=       -0.002088742378 Rises=F Damp=F
 DIIS: error= 1.07D-03 at cycle   7 NSaved=   7.
 NSaved= 7 IEnMin= 7 EnMin= -1199.46342569446     IErMin= 7 ErrMin= 1.07D-03
 ErrMax= 1.07D-03  0.00D+00 EMaxC= 1.00D-01 BMatC= 4.80D-04 BMatP= 1.45D-03
 IDIUse=3 WtCom= 9.89D-01 WtEn= 1.07D-02
 Coeff-Com:  0.338D-02-0.661D-02-0.853D-02-0.424D-01-0.269D-01 0.455D+00
 Coeff-Com:  0.626D+00
 Coeff-En:   0.000D+00 0.000D+00 0.000D+00 0.000D+00 0.000D+00 0.000D+00
 Coeff-En:   0.100D+01
 Coeff:      0.334D-02-0.654D-02-0.844D-02-0.419D-01-0.266D-01 0.450D+00
 Coeff:      0.630D+00
 Gap=     0.153 Goal=   None    Shift=    0.000
 RMSDP=1.81D-04 MaxDP=5.38D-03 DE=-2.09D-03 OVMax= 1.63D-02

 Cycle   8  Pass 1  IDiag  1:
 E= -1199.46404078576     Delta-E=       -0.000615091308 Rises=F Damp=F
 DIIS: error= 5.74D-04 at cycle   8 NSaved=   8.
 NSaved= 8 IEnMin= 8 EnMin= -1199.46404078576     IErMin= 8 ErrMin= 5.74D-04
 ErrMax= 5.74D-04  0.00D+00 EMaxC= 1.00D-01 BMatC= 1.82D-04 BMatP= 4.80D-04
 IDIUse=3 WtCom= 9.94D-01 WtEn= 5.74D-03
 Coeff-Com:  0.281D-02-0.555D-02 0.107D-01 0.438D-02-0.329D-01 0.105D-01
 Coeff-Com:  0.248D+00 0.762D+00
 Coeff-En:   0.000D+00 0.000D+00 0.000D+00 0.000D+00 0.000D+00 0.000D+00
 Coeff-En:   0.000D+00 0.100D+01
 Coeff:      0.279D-02-0.552D-02 0.107D-01 0.435D-02-0.327D-01 0.104D-01
 Coeff:      0.247D+00 0.763D+00
 Gap=     0.157 Goal=   None    Shift=    0.000
 RMSDP=1.91D-04 MaxDP=1.06D-02 DE=-6.15D-04 OVMax= 9.06D-03

 Cycle   9  Pass 1  IDiag  1:
 E= -1199.46434487944     Delta-E=       -0.000304093681 Rises=F Damp=F
 DIIS: error= 2.82D-04 at cycle   9 NSaved=   9.
 NSaved= 9 IEnMin= 9 EnMin= -1199.46434487944     IErMin= 9 ErrMin= 2.82D-04
 ErrMax= 2.82D-04  0.00D+00 EMaxC= 1.00D-01 BMatC= 5.45D-05 BMatP= 1.82D-04
 IDIUse=3 WtCom= 9.97D-01 WtEn= 2.82D-03
 Coeff-Com:  0.357D-03-0.103D-02 0.841D-02 0.227D-01 0.896D-02-0.982D-01
 Coeff-Com: -0.656D-01 0.116D+00 0.101D+01
 Coeff-En:   0.000D+00 0.000D+00 0.000D+00 0.000D+00 0.000D+00 0.000D+00
 Coeff-En:   0.000D+00 0.000D+00 0.100D+01
 Coeff:      0.356D-03-0.103D-02 0.839D-02 0.226D-01 0.893D-02-0.979D-01
 Coeff:     -0.654D-01 0.115D+00 0.101D+01
 Gap=     0.160 Goal=   None    Shift=    0.000
 RMSDP=1.85D-04 MaxDP=1.13D-02 DE=-3.04D-04 OVMax= 9.11D-03

 Cycle  10  Pass 1  IDiag  1:
 E= -1199.46451092016     Delta-E=       -0.000166040714 Rises=F Damp=F
 DIIS: error= 2.32D-04 at cycle  10 NSaved=  10.
 NSaved=10 IEnMin=10 EnMin= -1199.46451092016     IErMin=10 ErrMin= 2.32D-04
 ErrMax= 2.32D-04  0.00D+00 EMaxC= 1.00D-01 BMatC= 1.59D-05 BMatP= 5.45D-05
 IDIUse=3 WtCom= 9.98D-01 WtEn= 2.32D-03
 Coeff-Com: -0.434D-03 0.616D-03 0.169D-02 0.129D-01 0.184D-01-0.526D-01
 Coeff-Com: -0.109D+00-0.270D+00 0.540D+00 0.859D+00
 Coeff-En:   0.000D+00 0.000D+00 0.000D+00 0.000D+00 0.000D+00 0.000D+00
 Coeff-En:   0.000D+00 0.000D+00 0.000D+00 0.100D+01
 Coeff:     -0.433D-03 0.615D-03 0.168D-02 0.129D-01 0.184D-01-0.525D-01
 Coeff:     -0.109D+00-0.269D+00 0.539D+00 0.859D+00
 Gap=     0.162 Goal=   None    Shift=    0.000
 RMSDP=1.42D-04 MaxDP=8.31D-03 DE=-1.66D-04 OVMax= 8.24D-03

 Cycle  11  Pass 1  IDiag  1:
 E= -1199.46458818011     Delta-E=       -0.000077259954 Rises=F Damp=F
 DIIS: error= 1.91D-04 at cycle  11 NSaved=  11.
 NSaved=11 IEnMin=11 EnMin= -1199.46458818011     IErMin=11 ErrMin= 1.91D-04
 ErrMax= 1.91D-04  0.00D+00 EMaxC= 1.00D-01 BMatC= 2.58D-06 BMatP= 1.59D-05
 IDIUse=3 WtCom= 9.98D-01 WtEn= 1.91D-03
 Coeff-Com:  0.183D-03-0.394D-03-0.717D-03-0.120D-02 0.838D-03 0.804D-02
 Coeff-Com:  0.157D-02-0.113D+00-0.480D-01 0.156D+00 0.997D+00
 Coeff-En:   0.000D+00 0.000D+00 0.000D+00 0.000D+00 0.000D+00 0.000D+00
 Coeff-En:   0.000D+00 0.000D+00 0.000D+00 0.000D+00 0.100D+01
 Coeff:      0.183D-03-0.393D-03-0.716D-03-0.120D-02 0.836D-03 0.802D-02
 Coeff:      0.157D-02-0.113D+00-0.479D-01 0.156D+00 0.997D+00
 Gap=     0.163 Goal=   None    Shift=    0.000
 RMSDP=5.90D-05 MaxDP=3.10D-03 DE=-7.73D-05 OVMax= 6.57D-03

 Cycle  12  Pass 1  IDiag  1:
 E= -1199.46461607711     Delta-E=       -0.000027896994 Rises=F Damp=F
 DIIS: error= 1.37D-04 at cycle  12 NSaved=  12.
 NSaved=12 IEnMin=12 EnMin= -1199.46461607711     IErMin=12 ErrMin= 1.37D-04
 ErrMax= 1.37D-04  0.00D+00 EMaxC= 1.00D-01 BMatC= 2.25D-06 BMatP= 2.58D-06
 IDIUse=3 WtCom= 9.99D-01 WtEn= 1.37D-03
 Coeff-Com: -0.188D-04 0.130D-03-0.303D-03-0.237D-02-0.291D-02 0.212D-01
 Coeff-Com:  0.385D-01 0.186D-01-0.173D+00-0.319D+00 0.523D+00 0.896D+00
 Coeff-En:   0.000D+00 0.000D+00 0.000D+00 0.000D+00 0.000D+00 0.000D+00
 Coeff-En:   0.000D+00 0.000D+00 0.000D+00 0.000D+00 0.000D+00 0.100D+01
 Coeff:     -0.187D-04 0.130D-03-0.303D-03-0.237D-02-0.291D-02 0.211D-01
 Coeff:      0.384D-01 0.186D-01-0.172D+00-0.318D+00 0.522D+00 0.896D+00
 Gap=     0.164 Goal=   None    Shift=    0.000
 RMSDP=5.56D-05 MaxDP=2.95D-03 DE=-2.79D-05 OVMax= 5.74D-03

 Cycle  13  Pass 1  IDiag  1:
 E= -1199.46463426066     Delta-E=       -0.000018183552 Rises=F Damp=F
 DIIS: error= 1.02D-04 at cycle  13 NSaved=  13.
 NSaved=13 IEnMin=13 EnMin= -1199.46463426066     IErMin=13 ErrMin= 1.02D-04
 ErrMax= 1.02D-04  0.00D+00 EMaxC= 1.00D-01 BMatC= 5.49D-07 BMatP= 2.25D-06
 IDIUse=3 WtCom= 9.99D-01 WtEn= 1.02D-03
 Coeff-Com: -0.140D-03 0.315D-03 0.736D-03 0.132D-02 0.969D-04 0.209D-02
 Coeff-Com:  0.136D-01 0.602D-01 0.240D-01-0.249D+00-0.284D+00 0.314D+00
 Coeff-Com:  0.112D+01
 Coeff-En:   0.000D+00 0.000D+00 0.000D+00 0.000D+00 0.000D+00 0.000D+00
 Coeff-En:   0.000D+00 0.000D+00 0.000D+00 0.000D+00 0.000D+00 0.000D+00
 Coeff-En:   0.100D+01
 Coeff:     -0.140D-03 0.314D-03 0.735D-03 0.132D-02 0.968D-04 0.209D-02
 Coeff:      0.135D-01 0.601D-01 0.240D-01-0.249D+00-0.283D+00 0.314D+00
 Coeff:      0.112D+01
 Gap=     0.164 Goal=   None    Shift=    0.000
 RMSDP=3.68D-05 MaxDP=1.67D-03 DE=-1.82D-05 OVMax= 5.31D-03

 Cycle  14  Pass 1  IDiag  1:
 E= -1199.46464533119     Delta-E=       -0.000011070532 Rises=F Damp=F
 DIIS: error= 6.89D-05 at cycle  14 NSaved=  14.
 NSaved=14 IEnMin=14 EnMin= -1199.46464533119     IErMin=14 ErrMin= 6.89D-05
 ErrMax= 6.89D-05  0.00D+00 EMaxC= 1.00D-01 BMatC= 2.32D-07 BMatP= 5.49D-07
 IDIUse=1 WtCom= 1.00D+00 WtEn= 0.00D+00
 Coeff-Com:  0.969D-04-0.245D-03 0.557D-03 0.156D-02 0.909D-03-0.991D-02
 Coeff-Com: -0.899D-02 0.155D-01 0.108D+00 0.121D-01-0.335D+00-0.275D+00
 Coeff-Com:  0.352D+00 0.114D+01
 Coeff:      0.969D-04-0.245D-03 0.557D-03 0.156D-02 0.909D-03-0.991D-02
 Coeff:     -0.899D-02 0.155D-01 0.108D+00 0.121D-01-0.335D+00-0.275D+00
 Coeff:      0.352D+00 0.114D+01
 Gap=     0.164 Goal=   None    Shift=    0.000
 RMSDP=2.85D-05 MaxDP=1.01D-03 DE=-1.11D-05 OVMax= 4.88D-03

 Cycle  15  Pass 1  IDiag  1:
 E= -1199.46465183137     Delta-E=       -0.000006500183 Rises=F Damp=F
 DIIS: error= 3.71D-05 at cycle  15 NSaved=  15.
 NSaved=15 IEnMin=15 EnMin= -1199.46465183137     IErMin=15 ErrMin= 3.71D-05
 ErrMax= 3.71D-05  0.00D+00 EMaxC= 1.00D-01 BMatC= 2.65D-07 BMatP= 2.32D-07
 IDIUse=1 WtCom= 1.00D+00 WtEn= 0.00D+00
 Coeff-Com:  0.310D-04-0.630D-04-0.138D-03 0.960D-04 0.127D-02-0.232D-02
 Coeff-Com: -0.649D-02-0.518D-01 0.277D-02 0.127D+00 0.173D+00-0.265D+00
 Coeff-Com: -0.697D+00 0.439D+00 0.128D+01
 Coeff:      0.310D-04-0.630D-04-0.138D-03 0.960D-04 0.127D-02-0.232D-02
 Coeff:     -0.649D-02-0.518D-01 0.277D-02 0.127D+00 0.173D+00-0.265D+00
 Coeff:     -0.697D+00 0.439D+00 0.128D+01
 Gap=     0.164 Goal=   None    Shift=    0.000
 RMSDP=3.21D-05 MaxDP=1.45D-03 DE=-6.50D-06 OVMax= 4.89D-03

 Cycle  16  Pass 1  IDiag  1:
 E= -1199.46465583571     Delta-E=       -0.000004004336 Rises=F Damp=F
 DIIS: error= 2.42D-05 at cycle  16 NSaved=  16.
 NSaved=16 IEnMin=16 EnMin= -1199.46465583571     IErMin=16 ErrMin= 2.42D-05
 ErrMax= 2.42D-05  0.00D+00 EMaxC= 1.00D-01 BMatC= 5.95D-08 BMatP= 2.32D-07
 IDIUse=1 WtCom= 1.00D+00 WtEn= 0.00D+00
 Coeff-Com:  0.488D-04-0.995D-04-0.135D-03-0.509D-03-0.125D-04 0.342D-02
 Coeff-Com:  0.434D-02-0.144D-01-0.284D-01 0.213D-01 0.130D+00 0.427D-01
 Coeff-Com: -0.245D+00-0.144D+00-0.314D-01 0.126D+01
 Coeff:      0.488D-04-0.995D-04-0.135D-03-0.509D-03-0.125D-04 0.342D-02
 Coeff:      0.434D-02-0.144D-01-0.284D-01 0.213D-01 0.130D+00 0.427D-01
 Coeff:     -0.245D+00-0.144D+00-0.314D-01 0.126D+01
 Gap=     0.164 Goal=   None    Shift=    0.000
 RMSDP=1.28D-05 MaxDP=4.51D-04 DE=-4.00D-06 OVMax= 2.02D-03

 Cycle  17  Pass 1  IDiag  1:
 E= -1199.46465691417     Delta-E=       -0.000001078458 Rises=F Damp=F
 DIIS: error= 1.89D-05 at cycle  17 NSaved=  17.
 NSaved=17 IEnMin=17 EnMin= -1199.46465691417     IErMin=17 ErrMin= 1.89D-05
 ErrMax= 1.89D-05  0.00D+00 EMaxC= 1.00D-01 BMatC= 2.19D-08 BMatP= 5.95D-08
 IDIUse=1 WtCom= 1.00D+00 WtEn= 0.00D+00
 Coeff-Com:  0.116D-04-0.284D-04-0.173D-04-0.341D-03-0.328D-03 0.283D-02
 Coeff-Com:  0.535D-02 0.146D-01-0.202D-01-0.355D-01-0.172D-01 0.154D+00
 Coeff-Com:  0.135D+00-0.198D+00-0.597D+00 0.500D+00 0.106D+01
 Coeff:      0.116D-04-0.284D-04-0.173D-04-0.341D-03-0.328D-03 0.283D-02
 Coeff:      0.535D-02 0.146D-01-0.202D-01-0.355D-01-0.172D-01 0.154D+00
 Coeff:      0.135D+00-0.198D+00-0.597D+00 0.500D+00 0.106D+01
 Gap=     0.165 Goal=   None    Shift=    0.000
 RMSDP=8.90D-06 MaxDP=2.29D-04 DE=-1.08D-06 OVMax= 1.34D-03

 Cycle  18  Pass 1  IDiag  1:
 E= -1199.46465740428     Delta-E=       -0.000000490113 Rises=F Damp=F
 DIIS: error= 1.30D-05 at cycle  18 NSaved=  18.
 NSaved=18 IEnMin=18 EnMin= -1199.46465740428     IErMin=18 ErrMin= 1.30D-05
 ErrMax= 1.30D-05  0.00D+00 EMaxC= 1.00D-01 BMatC= 8.32D-09 BMatP= 2.19D-08
 IDIUse=1 WtCom= 1.00D+00 WtEn= 0.00D+00
 Coeff-Com: -0.115D-04 0.235D-04 0.421D-04 0.466D-04-0.189D-04-0.143D-02
 Coeff-Com: -0.108D-02 0.882D-02 0.203D-02-0.344D-02-0.676D-01 0.236D-01
 Coeff-Com:  0.779D-01 0.463D-01-0.241D-01-0.432D+00 0.195D-01 0.135D+01
 Coeff:     -0.115D-04 0.235D-04 0.421D-04 0.466D-04-0.189D-04-0.143D-02
 Coeff:     -0.108D-02 0.882D-02 0.203D-02-0.344D-02-0.676D-01 0.236D-01
 Coeff:      0.779D-01 0.463D-01-0.241D-01-0.432D+00 0.195D-01 0.135D+01
 Gap=     0.165 Goal=   None    Shift=    0.000
 RMSDP=6.22D-06 MaxDP=1.35D-04 DE=-4.90D-07 OVMax= 9.27D-04

 Cycle  19  Pass 1  IDiag  1:
 E= -1199.46465762377     Delta-E=       -0.000000219491 Rises=F Damp=F
 DIIS: error= 7.81D-06 at cycle  19 NSaved=  19.
 NSaved=19 IEnMin=19 EnMin= -1199.46465762377     IErMin=19 ErrMin= 7.81D-06
 ErrMax= 7.81D-06  0.00D+00 EMaxC= 1.00D-01 BMatC= 3.21D-09 BMatP= 8.32D-09
 IDIUse=1 WtCom= 1.00D+00 WtEn= 0.00D+00
 Coeff-Com: -0.132D-04 0.298D-04 0.350D-04 0.196D-03 0.201D-03-0.207D-02
 Coeff-Com: -0.295D-02-0.149D-02 0.101D-01 0.149D-01-0.325D-01-0.538D-01
 Coeff-Com: -0.136D-01 0.114D+00 0.249D+00-0.418D+00-0.483D+00 0.589D+00
 Coeff-Com:  0.103D+01
 Coeff:     -0.132D-04 0.298D-04 0.350D-04 0.196D-03 0.201D-03-0.207D-02
 Coeff:     -0.295D-02-0.149D-02 0.101D-01 0.149D-01-0.325D-01-0.538D-01
 Coeff:     -0.136D-01 0.114D+00 0.249D+00-0.418D+00-0.483D+00 0.589D+00
 Coeff:      0.103D+01
 Gap=     0.165 Goal=   None    Shift=    0.000
 RMSDP=3.89D-06 MaxDP=7.95D-05 DE=-2.19D-07 OVMax= 4.89D-04

 Cycle  20  Pass 1  IDiag  1:
 E= -1199.46465770732     Delta-E=       -0.000000083549 Rises=F Damp=F
 DIIS: error= 4.06D-06 at cycle  20 NSaved=  20.
 NSaved=20 IEnMin=20 EnMin= -1199.46465770732     IErMin=20 ErrMin= 4.06D-06
 ErrMax= 4.06D-06  0.00D+00 EMaxC= 1.00D-01 BMatC= 9.88D-10 BMatP= 3.21D-09
 IDIUse=1 WtCom= 1.00D+00 WtEn= 0.00D+00
 Coeff-Com:  0.339D-05-0.479D-05-0.105D-04-0.118D-04 0.513D-04 0.561D-03
 Coeff-Com:  0.256D-03-0.478D-02-0.369D-03 0.460D-02 0.324D-01-0.189D-01
 Coeff-Com: -0.407D-01-0.345D-02 0.335D-01 0.157D+00-0.472D-01-0.606D+00
 Coeff-Com:  0.139D+00 0.135D+01
 Coeff:      0.339D-05-0.479D-05-0.105D-04-0.118D-04 0.513D-04 0.561D-03
 Coeff:      0.256D-03-0.478D-02-0.369D-03 0.460D-02 0.324D-01-0.189D-01
 Coeff:     -0.407D-01-0.345D-02 0.335D-01 0.157D+00-0.472D-01-0.606D+00
 Coeff:      0.139D+00 0.135D+01
 Gap=     0.165 Goal=   None    Shift=    0.000
 RMSDP=2.61D-06 MaxDP=4.47D-05 DE=-8.35D-08 OVMax= 3.84D-04

 Cycle  21  Pass 1  IDiag  1:
 E= -1199.46465773768     Delta-E=       -0.000000030358 Rises=F Damp=F
 DIIS: error= 1.30D-06 at cycle  21 NSaved=  20.
 NSaved=20 IEnMin=20 EnMin= -1199.46465773768     IErMin=20 ErrMin= 1.30D-06
 ErrMax= 1.30D-06  0.00D+00 EMaxC= 1.00D-01 BMatC= 2.24D-10 BMatP= 9.88D-10
 IDIUse=1 WtCom= 1.00D+00 WtEn= 0.00D+00
 Coeff-Com: -0.256D-06-0.846D-05-0.345D-04-0.186D-04 0.432D-03 0.365D-03
 Coeff-Com:  0.310D-03-0.306D-02-0.784D-03 0.416D-02 0.139D-01-0.305D-02
 Coeff-Com: -0.212D-01-0.503D-01 0.803D-01 0.104D+00-0.100D+00-0.256D+00
 Coeff-Com: -0.909D-01 0.132D+01
 Coeff:     -0.256D-06-0.846D-05-0.345D-04-0.186D-04 0.432D-03 0.365D-03
 Coeff:      0.310D-03-0.306D-02-0.784D-03 0.416D-02 0.139D-01-0.305D-02
 Coeff:     -0.212D-01-0.503D-01 0.803D-01 0.104D+00-0.100D+00-0.256D+00
 Coeff:     -0.909D-01 0.132D+01
 Gap=     0.165 Goal=   None    Shift=    0.000
 RMSDP=1.26D-06 MaxDP=2.32D-05 DE=-3.04D-08 OVMax= 1.60D-04

 Cycle  22  Pass 1  IDiag  1:
 E= -1199.46465774353     Delta-E=       -0.000000005858 Rises=F Damp=F
 DIIS: error= 6.16D-07 at cycle  22 NSaved=  20.
 NSaved=20 IEnMin=20 EnMin= -1199.46465774353     IErMin=20 ErrMin= 6.16D-07
 ErrMax= 6.16D-07  0.00D+00 EMaxC= 1.00D-01 BMatC= 6.96D-11 BMatP= 2.24D-10
 IDIUse=1 WtCom= 1.00D+00 WtEn= 0.00D+00
 Coeff-Com: -0.297D-05-0.172D-04-0.234D-04 0.113D-03 0.119D-03 0.875D-03
 Coeff-Com: -0.134D-02-0.855D-03-0.306D-02 0.851D-02 0.321D-02-0.830D-02
 Coeff-Com: -0.241D-01 0.132D-01 0.455D-01 0.519D-01-0.132D+00-0.260D+00
 Coeff-Com:  0.579D+00 0.727D+00
 Coeff:     -0.297D-05-0.172D-04-0.234D-04 0.113D-03 0.119D-03 0.875D-03
 Coeff:     -0.134D-02-0.855D-03-0.306D-02 0.851D-02 0.321D-02-0.830D-02
 Coeff:     -0.241D-01 0.132D-01 0.455D-01 0.519D-01-0.132D+00-0.260D+00
 Coeff:      0.579D+00 0.727D+00
 Gap=     0.165 Goal=   None    Shift=    0.000
 RMSDP=3.16D-07 MaxDP=5.37D-06 DE=-5.86D-09 OVMax= 4.20D-05

 Cycle  23  Pass 1  IDiag  1:
 E= -1199.46465774421     Delta-E=       -0.000000000677 Rises=F Damp=F
 DIIS: error= 3.36D-07 at cycle  23 NSaved=  20.
 NSaved=20 IEnMin=20 EnMin= -1199.46465774421     IErMin=20 ErrMin= 3.36D-07
 ErrMax= 3.36D-07  0.00D+00 EMaxC= 1.00D-01 BMatC= 1.69D-11 BMatP= 6.96D-11
 IDIUse=1 WtCom= 1.00D+00 WtEn= 0.00D+00
 Coeff-Com:  0.143D-05-0.570D-05-0.460D-04-0.113D-04 0.180D-03 0.373D-03
 Coeff-Com: -0.807D-03-0.904D-03-0.994D-03 0.305D-02 0.991D-03 0.623D-02
 Coeff-Com: -0.154D-01-0.194D-01 0.435D-01 0.461D-01-0.360D-01-0.311D+00
 Coeff-Com:  0.218D+00 0.107D+01
 Coeff:      0.143D-05-0.570D-05-0.460D-04-0.113D-04 0.180D-03 0.373D-03
 Coeff:     -0.807D-03-0.904D-03-0.994D-03 0.305D-02 0.991D-03 0.623D-02
 Coeff:     -0.154D-01-0.194D-01 0.435D-01 0.461D-01-0.360D-01-0.311D+00
 Coeff:      0.218D+00 0.107D+01
 Gap=     0.165 Goal=   None    Shift=    0.000
 RMSDP=2.00D-07 MaxDP=4.35D-06 DE=-6.77D-10 OVMax= 1.74D-05

 Cycle  24  Pass 1  IDiag  1:
 E= -1199.46465774434     Delta-E=       -0.000000000128 Rises=F Damp=F
 DIIS: error= 1.65D-07 at cycle  24 NSaved=  20.
 NSaved=20 IEnMin=20 EnMin= -1199.46465774434     IErMin=20 ErrMin= 1.65D-07
 ErrMax= 1.65D-07  0.00D+00 EMaxC= 1.00D-01 BMatC= 3.70D-12 BMatP= 1.69D-11
 IDIUse=1 WtCom= 1.00D+00 WtEn= 0.00D+00
 Coeff-Com:  0.366D-05 0.186D-04-0.145D-05-0.982D-04 0.112D-03-0.199D-03
 Coeff-Com:  0.836D-03-0.104D-02 0.173D-03 0.775D-04 0.295D-02-0.144D-02
 Coeff-Com: -0.368D-02-0.896D-02 0.125D-01 0.387D-01-0.546D-01-0.191D+00
 Coeff-Com: -0.150D+00 0.136D+01
 Coeff:      0.366D-05 0.186D-04-0.145D-05-0.982D-04 0.112D-03-0.199D-03
 Coeff:      0.836D-03-0.104D-02 0.173D-03 0.775D-04 0.295D-02-0.144D-02
 Coeff:     -0.368D-02-0.896D-02 0.125D-01 0.387D-01-0.546D-01-0.191D+00
 Coeff:     -0.150D+00 0.136D+01
 Gap=     0.165 Goal=   None    Shift=    0.000
 RMSDP=1.25D-07 MaxDP=3.80D-06 DE=-1.28D-10 OVMax= 1.15D-05

 Cycle  25  Pass 1  IDiag  1:
 E= -1199.46465774445     Delta-E=       -0.000000000112 Rises=F Damp=F
 DIIS: error= 6.82D-08 at cycle  25 NSaved=  20.
 NSaved=20 IEnMin=20 EnMin= -1199.46465774445     IErMin=20 ErrMin= 6.82D-08
 ErrMax= 6.82D-08  0.00D+00 EMaxC= 1.00D-01 BMatC= 8.80D-13 BMatP= 3.70D-12
 IDIUse=1 WtCom= 1.00D+00 WtEn= 0.00D+00
 Coeff-Com:  0.134D-04 0.112D-05-0.381D-04-0.564D-04 0.247D-04 0.460D-03
 Coeff-Com: -0.202D-04-0.371D-03-0.512D-03-0.273D-03 0.187D-02 0.161D-02
 Coeff-Com: -0.829D-02-0.406D-02 0.151D-01 0.391D-01-0.752D-01-0.192D+00
 Coeff-Com:  0.346D+00 0.876D+00
 Coeff:      0.134D-04 0.112D-05-0.381D-04-0.564D-04 0.247D-04 0.460D-03
 Coeff:     -0.202D-04-0.371D-03-0.512D-03-0.273D-03 0.187D-02 0.161D-02
 Coeff:     -0.829D-02-0.406D-02 0.151D-01 0.391D-01-0.752D-01-0.192D+00
 Coeff:      0.346D+00 0.876D+00
 Gap=     0.165 Goal=   None    Shift=    0.000
 RMSDP=4.37D-08 MaxDP=2.71D-06 DE=-1.12D-10 OVMax= 3.06D-06

 Cycle  26  Pass 1  IDiag  1:
 E= -1199.46465774453     Delta-E=       -0.000000000076 Rises=F Damp=F
 DIIS: error= 5.51D-08 at cycle  26 NSaved=  20.
 NSaved=20 IEnMin=20 EnMin= -1199.46465774453     IErMin=20 ErrMin= 5.51D-08
 ErrMax= 5.51D-08  0.00D+00 EMaxC= 1.00D-01 BMatC= 5.81D-13 BMatP= 8.80D-13
 IDIUse=1 WtCom= 1.00D+00 WtEn= 0.00D+00
 Coeff-Com: -0.124D-04-0.463D-04-0.369D-04 0.228D-03 0.757D-04 0.379D-05
 Coeff-Com: -0.818D-03-0.453D-04 0.641D-04 0.163D-02 0.152D-02-0.298D-02
 Coeff-Com: -0.742D-02-0.187D-02 0.543D-01-0.503D-02-0.132D+00-0.198D+00
 Coeff-Com:  0.554D+00 0.737D+00
 Coeff:     -0.124D-04-0.463D-04-0.369D-04 0.228D-03 0.757D-04 0.379D-05
 Coeff:     -0.818D-03-0.453D-04 0.641D-04 0.163D-02 0.152D-02-0.298D-02
 Coeff:     -0.742D-02-0.187D-02 0.543D-01-0.503D-02-0.132D+00-0.198D+00
 Coeff:      0.554D+00 0.737D+00
 Gap=     0.165 Goal=   None    Shift=    0.000
 RMSDP=3.24D-08 MaxDP=1.18D-06 DE=-7.59D-11 OVMax= 2.72D-06

 Cycle  27  Pass 1  IDiag  1:
 E= -1199.46465774453     Delta-E=       -0.000000000002 Rises=F Damp=F
 DIIS: error= 1.87D-08 at cycle  27 NSaved=  20.
 NSaved=20 IEnMin=20 EnMin= -1199.46465774453     IErMin=20 ErrMin= 1.87D-08
 ErrMax= 1.87D-08  0.00D+00 EMaxC= 1.00D-01 BMatC= 5.81D-14 BMatP= 5.81D-13
 IDIUse=1 WtCom= 1.00D+00 WtEn= 0.00D+00
 Coeff-Com:  0.886D-05-0.104D-05 0.450D-05-0.928D-04 0.725D-04 0.651D-04
 Coeff-Com: -0.222D-04-0.312D-03 0.967D-04 0.205D-03 0.123D-02-0.197D-02
 Coeff-Com: -0.527D-02 0.892D-02 0.189D-01 0.970D-02-0.114D+00-0.463D-01
 Coeff-Com:  0.116D+00 0.101D+01
 Coeff:      0.886D-05-0.104D-05 0.450D-05-0.928D-04 0.725D-04 0.651D-04
 Coeff:     -0.222D-04-0.312D-03 0.967D-04 0.205D-03 0.123D-02-0.197D-02
 Coeff:     -0.527D-02 0.892D-02 0.189D-01 0.970D-02-0.114D+00-0.463D-01
 Coeff:      0.116D+00 0.101D+01
 Gap=     0.165 Goal=   None    Shift=    0.000
 RMSDP=1.21D-08 MaxDP=5.74D-07 DE=-2.27D-12 OVMax= 1.09D-06

 Cycle  28  Pass 1  IDiag  1:
 E= -1199.46465774449     Delta-E=        0.000000000043 Rises=F Damp=F
 DIIS: error= 8.45D-09 at cycle  28 NSaved=  20.
 NSaved=20 IEnMin=19 EnMin= -1199.46465774453     IErMin=20 ErrMin= 8.45D-09
 ErrMax= 8.45D-09  0.00D+00 EMaxC= 1.00D-01 BMatC= 1.80D-14 BMatP= 5.81D-14
 IDIUse=1 WtCom= 1.00D+00 WtEn= 0.00D+00
 Coeff-Com:  0.138D-04-0.269D-04 0.195D-05-0.476D-04 0.991D-04 0.256D-04
 Coeff-Com:  0.173D-03-0.330D-03-0.546D-03 0.963D-03 0.155D-02-0.200D-03
 Coeff-Com: -0.106D-01 0.380D-02 0.269D-01 0.199D-01-0.148D+00-0.120D+00
 Coeff-Com:  0.344D+00 0.882D+00
 Coeff:      0.138D-04-0.269D-04 0.195D-05-0.476D-04 0.991D-04 0.256D-04
 Coeff:      0.173D-03-0.330D-03-0.546D-03 0.963D-03 0.155D-02-0.200D-03
 Coeff:     -0.106D-01 0.380D-02 0.269D-01 0.199D-01-0.148D+00-0.120D+00
 Coeff:      0.344D+00 0.882D+00
 Gap=     0.165 Goal=   None    Shift=    0.000
 RMSDP=5.00D-09 MaxDP=1.45D-07 DE= 4.27D-11 OVMax= 4.36D-07

 SCF Done:  E(RwB97XD) =  -1199.46465774     A.U. after   28 cycles
            NFock= 28  Conv=0.50D-08     -V/T= 2.0014
 KE= 1.197751020949D+03 PE=-4.743541551322D+03 EE= 1.398291682130D+03
 Leave Link  502 at Fri May 23 03:21:31 2025, MaxMem=  3758096384 cpu:             111.5 elap:              24.1
 (Enter /apps/easybuild-2022/easybuild/software/Compiler/NVHPC/22.11-CUDA-11.7.0/Gaussian/g16c01-CUDA-11.7.0/g16/l508.exe)
 QCSCF skips out because SCF is already converged.
 Leave Link  508 at Fri May 23 03:21:31 2025, MaxMem=  3758096384 cpu:               0.1 elap:               0.0
 (Enter /apps/easybuild-2022/easybuild/software/Compiler/NVHPC/22.11-CUDA-11.7.0/Gaussian/g16c01-CUDA-11.7.0/g16/l801.exe)
 DoSCS=F DFT=T ScalE2(SS,OS)=  1.000000  1.000000
 Range of M.O.s used for correlation:     1   257
 NBasis=   257 NAE=    49 NBE=    49 NFC=     0 NFV=     0
 NROrb=    257 NOA=    49 NOB=    49 NVA=   208 NVB=   208

 **** Warning!!: The largest alpha MO coefficient is  0.57464531D+02

 Leave Link  801 at Fri May 23 03:21:31 2025, MaxMem=  3758096384 cpu:               0.1 elap:               0.0
 (Enter /apps/easybuild-2022/easybuild/software/Compiler/NVHPC/22.11-CUDA-11.7.0/Gaussian/g16c01-CUDA-11.7.0/g16/l1101.exe)
 Using compressed storage, NAtomX=    12.
 Will process     13 centers per pass.
 R6Disp: Adding Grimme-D2 dispersion energy 1st derivatives to the gradient.
 Leave Link 1101 at Fri May 23 03:21:31 2025, MaxMem=  3758096384 cpu:               0.7 elap:               0.1
 (Enter /apps/easybuild-2022/easybuild/software/Compiler/NVHPC/22.11-CUDA-11.7.0/Gaussian/g16c01-CUDA-11.7.0/g16/l1102.exe)
 Symmetrizing basis deriv contribution to polar:
 IMax=3 JMax=2 DiffMx= 0.00D+00
 Leave Link 1102 at Fri May 23 03:21:31 2025, MaxMem=  3758096384 cpu:               0.1 elap:               0.0
 (Enter /apps/easybuild-2022/easybuild/software/Compiler/NVHPC/22.11-CUDA-11.7.0/Gaussian/g16c01-CUDA-11.7.0/g16/l1110.exe)
 Forming Gx(P) for the SCF density, NAtomX=    12.
 Integral derivatives from FoFJK, PRISM(SPDF).
 Do as many integral derivatives as possible in FoFJK.
 G2DrvN: MDV=    3758094988.
 G2DrvN: will do    13 centers at a time, making    1 passes.
 Calling FoFCou, ICntrl=  3107 FMM=F I1Cent=   0 AccDes= 0.00D+00.
 FoFJK:  IHMeth= 1 ICntrl=    3107 DoSepK=T KAlg= 0 I1Cent=           0 FoldK=F
 IRaf=         1 NMat=       1 IRICut=       1 DoRegI=T DoRafI=F ISym2E= 0 IDoP0=0 IntGTp=1.
 FoFCou: FMM=F IPFlag=           0 FMFlag=      100000 FMFlg1=           0
         NFxFlg=           0 DoJE=F BraDBF=F KetDBF=F FulRan=T
         wScrn=  0.000000 ICntrl=      3507 IOpCl=  0 I1Cent=           0 NGrid=           0
         NMat0=    1 NMatS0=      1 NMatT0=    0 NMatD0=    1 NMtDS0=    0 NMtDT0=    0
 Symmetry not used in FoFCou.
 End of G2Drv F.D. properties file   721 does not exist.
 End of G2Drv F.D. properties file   722 does not exist.
 End of G2Drv F.D. properties file   788 does not exist.
 Leave Link 1110 at Fri May 23 03:21:45 2025, MaxMem=  3758096384 cpu:             106.9 elap:              13.6
 (Enter /apps/easybuild-2022/easybuild/software/Compiler/NVHPC/22.11-CUDA-11.7.0/Gaussian/g16c01-CUDA-11.7.0/g16/l1002.exe)
 Minotr:  Closed shell wavefunction.
          IDoAtm=111111111111
          Direct CPHF calculation.
          Differentiating once with respect to electric field.
                with respect to dipole field.
          Differentiating once with respect to nuclear coordinates.
          Requested convergence is 1.0D-08 RMS, and 1.0D-07 maximum.
          Secondary convergence is 1.0D-12 RMS, and 1.0D-12 maximum.
          NewPWx=T KeepS1=F KeepF1=F KeepIn=T MapXYZ=F SortEE=F KeepMc=T.
         3724 words used for storage of precomputed grid.
 Keep R1 ints in memory in canonical form, NReq=1117480340.
 FoFCou: FMM=F IPFlag=           0 FMFlag=           0 FMFlg1=           0
         NFxFlg=           0 DoJE=F BraDBF=F KetDBF=F FulRan=T
         wScrn=  0.000000 ICntrl=       600 IOpCl=  0 I1Cent=           0 NGrid=           0
         NMat0=    1 NMatS0=  33153 NMatT0=    0 NMatD0=    1 NMtDS0=    0 NMtDT0=    0
 Symmetry not used in FoFCou.
 Two-electron integral symmetry not used.
          MDV=    3758096384 using IRadAn=       1.
          Solving linear equations simultaneously, MaxMat=       0.
          There are    39 degrees of freedom in the 1st order CPHF.  IDoFFX=6 NUNeed=     3.
     36 vectors produced by pass  0 Test12= 2.61D-14 2.56D-09 XBig12= 8.37D+01 5.08D+00.
 AX will form    36 AO Fock derivatives at one time.
     36 vectors produced by pass  1 Test12= 2.61D-14 2.56D-09 XBig12= 1.30D+01 8.25D-01.
     36 vectors produced by pass  2 Test12= 2.61D-14 2.56D-09 XBig12= 9.91D-01 1.78D-01.
     36 vectors produced by pass  3 Test12= 2.61D-14 2.56D-09 XBig12= 3.33D-02 2.43D-02.
     36 vectors produced by pass  4 Test12= 2.61D-14 2.56D-09 XBig12= 4.82D-04 3.89D-03.
     36 vectors produced by pass  5 Test12= 2.61D-14 2.56D-09 XBig12= 5.10D-06 3.31D-04.
     36 vectors produced by pass  6 Test12= 2.61D-14 2.56D-09 XBig12= 4.83D-08 2.44D-05.
     34 vectors produced by pass  7 Test12= 2.61D-14 2.56D-09 XBig12= 3.64D-10 2.05D-06.
     11 vectors produced by pass  8 Test12= 2.61D-14 2.56D-09 XBig12= 2.48D-12 1.71D-07.
      3 vectors produced by pass  9 Test12= 2.61D-14 2.56D-09 XBig12= 1.78D-14 1.47D-08.
 InvSVY:  IOpt=1 It=  1 EMax= 7.11D-15
 Solved reduced A of dimension   300 with    39 vectors.
 FullF1:  Do perturbations      1 to       3.
 Isotropic polarizability for W=    0.000000       77.04 Bohr**3.
 End of Minotr F.D. properties file   721 does not exist.
 End of Minotr F.D. properties file   722 does not exist.
 End of Minotr F.D. properties file   788 does not exist.
 Leave Link 1002 at Fri May 23 03:22:14 2025, MaxMem=  3758096384 cpu:             225.3 elap:              28.8
 (Enter /apps/easybuild-2022/easybuild/software/Compiler/NVHPC/22.11-CUDA-11.7.0/Gaussian/g16c01-CUDA-11.7.0/g16/l701.exe)
 ... and contract with generalized density number  0.
 Compute integral second derivatives.
 R6Disp: Adding Grimme-D2 dispersion energy 2nd derivatives to the Hessian.
 Leave Link  701 at Fri May 23 03:22:14 2025, MaxMem=  3758096384 cpu:               0.7 elap:               0.1
 (Enter /apps/easybuild-2022/easybuild/software/Compiler/NVHPC/22.11-CUDA-11.7.0/Gaussian/g16c01-CUDA-11.7.0/g16/l702.exe)
 L702 exits ... SP integral derivatives will be done elsewhere.
 Leave Link  702 at Fri May 23 03:22:14 2025, MaxMem=  3758096384 cpu:               0.1 elap:               0.0
 (Enter /apps/easybuild-2022/easybuild/software/Compiler/NVHPC/22.11-CUDA-11.7.0/Gaussian/g16c01-CUDA-11.7.0/g16/l703.exe)
 Integral derivatives from FoFJK, PRISM(SPDF).
 Compute integral second derivatives, UseDBF=F ICtDFT=           0.
 Calling FoFJK, ICntrl=    100127 FMM=F ISym2X=0 I1Cent= 0 IOpClX= 0 NMat=1 NMatS=1 NMatT=0.
 FoFJK:  IHMeth= 1 ICntrl=  100127 DoSepK=T KAlg= 0 I1Cent=           0 FoldK=F
 IRaf=         1 NMat=       1 IRICut=       1 DoRegI=T DoRafI=F ISym2E= 0 IDoP0=0 IntGTp=1.
 FoFCou: FMM=F IPFlag=           0 FMFlag=      100000 FMFlg1=         800
         NFxFlg=           0 DoJE=F BraDBF=F KetDBF=F FulRan=T
         wScrn=  0.000000 ICntrl=    100527 IOpCl=  0 I1Cent=           0 NGrid=           0
         NMat0=    1 NMatS0=      1 NMatT0=    0 NMatD0=    1 NMtDS0=    0 NMtDT0=    0
 Symmetry not used in FoFCou.
 Leave Link  703 at Fri May 23 03:22:53 2025, MaxMem=  3758096384 cpu:             303.5 elap:              38.8
 (Enter /apps/easybuild-2022/easybuild/software/Compiler/NVHPC/22.11-CUDA-11.7.0/Gaussian/g16c01-CUDA-11.7.0/g16/l716.exe)
 Dipole        =-2.52812348D+00 3.12923545D-01-5.66061277D-01
 Polarizability= 1.10979114D+02 5.88466780D+00 6.20319668D+01
                -6.46124352D+00-5.48622171D+00 5.80970569D+01
 -------------------------------------------------------------------
 Center     Atomic                   Forces (Hartrees/Bohr)
 Number     Number              X              Y              Z
 -------------------------------------------------------------------
      1        6           0.039473944   -0.153506301    0.100934948
      2        6           0.028595923    0.058647001   -0.081187148
      3        9          -0.014070080   -0.021229447    0.020813931
      4        9          -0.011202391   -0.006316616    0.019010150
      5       16           0.063111554    0.027147680   -0.012517389
      6        8           0.004793530    0.012368038    0.026395675
      7        8           0.010364547   -0.039409194    0.000544473
      8        8           0.015614676    0.020404776   -0.075931941
      9        9          -0.103294251    0.038278055   -0.094430307
     10        9           0.005583708    0.046542942    0.076207229
     11        9          -0.024573661    0.021400673    0.002558127
     12        1          -0.014397499   -0.004327610    0.017602252
 -------------------------------------------------------------------
 Cartesian Forces:  Max     0.153506301 RMS     0.050625182
 Force constants in Cartesian coordinates: 
                1             2             3             4             5 
      1  0.814605D+00
      2  0.397894D-01  0.183552D+00
      3 -0.395912D+00 -0.307215D-01  0.284490D+00
      4 -0.127235D+00 -0.603859D-01  0.278026D-01  0.336803D+00
      5 -0.943282D-01 -0.897094D-01  0.896492D-01  0.232455D-01  0.441651D+00
      6  0.110235D+00  0.749761D-01 -0.112357D+00 -0.753694D-01 -0.100769D+00
      7 -0.132749D-01  0.157097D-02  0.386735D-01 -0.346427D-01  0.670563D-02
      8  0.385569D-02  0.884212D-02  0.560348D-02 -0.642676D-02 -0.634720D-01
      9  0.136126D-01 -0.149261D-02 -0.513729D-01 -0.193542D-01 -0.387307D-01
     10 -0.293246D-02 -0.207557D-01  0.110202D-01 -0.697723D-01  0.398067D-01
     11  0.324567D-02 -0.588152D-01  0.109794D-01  0.484280D-01 -0.250515D+00
     12 -0.468984D-02  0.165028D-01 -0.259063D-02 -0.621119D-02  0.271160D-01
     13 -0.450575D-01 -0.153443D-01 -0.685109D-02 -0.726591D-01  0.127385D-01
     14 -0.521039D-01  0.114136D-01 -0.328295D-01 -0.538947D-02 -0.952854D-02
     15  0.301254D-01 -0.152985D-01  0.954217D-01  0.117726D-01  0.937376D-02
     16  0.354415D-02  0.209521D-02  0.903896D-03  0.210007D-03 -0.926876D-02
     17  0.872042D-02 -0.121808D-02  0.104614D-01  0.122087D-01 -0.641582D-02
     18 -0.275041D-02  0.141135D-02 -0.138463D-01  0.312825D-03 -0.725463D-02
     19  0.693454D-02  0.133550D-02  0.178536D-02 -0.599234D-02  0.123117D-01
     20  0.868583D-02 -0.572181D-02 -0.596993D-03 -0.456279D-02 -0.142927D-01
     21 -0.465509D-02 -0.109492D-02 -0.188590D-01 -0.976103D-02  0.228486D-02
     22 -0.336722D-02  0.541833D-02 -0.650315D-02 -0.363716D-01 -0.118416D-01
     23  0.103408D-01  0.383793D-02 -0.126148D-01 -0.132176D-01 -0.141589D-01
     24 -0.521915D-02 -0.105626D-02  0.305762D-02  0.758896D-02  0.106900D-01
     25 -0.444059D-01 -0.336509D-01  0.396158D-01  0.791444D-02  0.127860D-02
     26 -0.192594D-01  0.214931D-01 -0.207692D-01  0.536061D-02 -0.604334D-02
     27  0.297910D-01 -0.341420D-01 -0.411899D-01 -0.742869D-02  0.978458D-02
     28  0.111059D-01 -0.290401D-02  0.555801D-01  0.327365D-01  0.124287D-01
     29  0.150138D-02 -0.106977D-01 -0.565367D-02 -0.446088D-02 -0.348296D-02
     30 -0.678618D-02  0.105799D-01 -0.238668D-01  0.119617D-01  0.576277D-02
     31 -0.598606D+00  0.829399D-01  0.231811D+00 -0.317056D-01  0.805525D-02
     32  0.917332D-01 -0.615636D-01 -0.205129D-01  0.378156D-03  0.122451D-01
     33  0.234284D+00 -0.197499D-01 -0.119934D+00  0.527639D-01 -0.101363D-01
     34 -0.131071D-02 -0.108439D-03  0.207384D-02  0.715059D-03 -0.113198D-02
     35 -0.218079D-02 -0.141298D-02  0.700505D-02  0.482240D-02  0.372286D-02
     36  0.196529D-02  0.855599D-04  0.104611D-02  0.592191D-02  0.222943D-02
                6             7             8             9            10 
      6  0.454251D+00
      7  0.350784D-02  0.736307D-01
      8 -0.203250D-01  0.395752D-04  0.105145D+00
      9 -0.226171D+00 -0.391257D-02  0.857826D-01  0.324779D+00
     10 -0.824003D-02  0.111755D-01  0.850834D-02  0.859471D-02  0.659218D-01
     11  0.175683D-01  0.728474D-02 -0.514381D-01 -0.462955D-01 -0.579377D-01
     12 -0.572202D-01  0.124476D-01 -0.678252D-01 -0.240016D-01 -0.212179D-02
     13 -0.241757D-01 -0.235351D-02  0.552271D-02  0.448492D-02  0.838169D-03
     14 -0.241478D-01 -0.714390D-02 -0.763299D-02 -0.491850D-03  0.215586D-01
     15 -0.272133D-01 -0.245803D-01  0.271653D-02 -0.240278D-01  0.473175D-02
     16 -0.217756D-02 -0.182331D-02 -0.725191D-03 -0.468582D-02 -0.774053D-04
     17  0.318137D-02 -0.280074D-02  0.150205D-02 -0.164701D-02 -0.110140D-02
     18  0.112094D-02 -0.131702D-02  0.627194D-04 -0.887514D-03 -0.605257D-03
     19  0.383067D-02  0.149802D-02 -0.620920D-03 -0.616738D-03 -0.591436D-02
     20  0.703378D-03  0.276952D-02  0.422546D-02  0.352230D-03  0.522347D-02
     21  0.664333D-03  0.212111D-02  0.767142D-03  0.297685D-02 -0.214690D-02
     22  0.163044D-01 -0.264125D-01 -0.977085D-02 -0.209446D-02 -0.507383D-02
     23  0.210253D-01 -0.452173D-02  0.334905D-02 -0.457862D-02  0.316393D-02
     24 -0.167685D-01 -0.829819D-02 -0.312975D-02  0.936308D-02  0.269676D-03
     25 -0.540646D-02 -0.164914D-02 -0.120475D-02  0.193177D-02 -0.136676D-02
     26 -0.268190D-02 -0.133581D-02 -0.547667D-03  0.311717D-02 -0.929036D-03
     27  0.240772D-02 -0.336720D-03 -0.131672D-02  0.485493D-03  0.227899D-02
     28 -0.315325D-01 -0.996248D-02  0.238851D-03  0.116713D-02 -0.298754D-03
     29  0.278775D-01  0.450621D-02  0.185109D-02  0.854463D-03  0.282544D-02
     30 -0.299709D-01 -0.669454D-02  0.544691D-03 -0.942043D-02 -0.682729D-02
     31  0.137142D-01  0.389996D-02  0.773044D-03 -0.975625D-03  0.677514D-02
     32  0.546921D-02 -0.567700D-02 -0.170043D-02  0.220225D-02 -0.136907D-03
     33  0.153144D-01 -0.806622D-02 -0.196311D-02 -0.186122D-02 -0.656738D-02
     34 -0.689965D-03 -0.857532D-04 -0.189728D-03  0.184826D-02  0.725307D-03
     35 -0.287744D-02 -0.139748D-02 -0.123511D-03  0.927598D-03 -0.225718D-03
     36 -0.405847D-02 -0.354446D-02 -0.917367D-03  0.137990D-03 -0.386695D-03
               11            12            13            14            15 
     11  0.373093D+00
     12  0.129220D-01  0.797629D-01
     13 -0.120288D-02 -0.196466D-02  0.493921D+00
     14 -0.322839D-01  0.161906D-01  0.979573D-01  0.102719D+01
     15 -0.659841D-02  0.211396D-02  0.376473D-01  0.215742D+00  0.560805D+00
     16 -0.432826D-03  0.394106D-03 -0.155118D+00 -0.166812D+00 -0.113826D+00
     17  0.721534D-02 -0.352223D-03 -0.147401D+00 -0.347149D+00 -0.196596D+00
     18  0.247786D-02  0.188626D-03 -0.108897D+00 -0.195339D+00 -0.202723D+00
     19  0.534573D-02 -0.237689D-02 -0.104710D+00  0.141723D+00  0.245208D-01
     20  0.615727D-03 -0.843770D-03  0.117965D+00 -0.541155D+00 -0.959775D-01
     21  0.235176D-02 -0.558335D-03  0.168637D-01 -0.960362D-01 -0.659999D-01
     22  0.247941D-02  0.179386D-02 -0.744089D-01 -0.384844D-01  0.581533D-01
     23  0.751536D-02 -0.481692D-02 -0.422422D-01 -0.560218D-01  0.737595D-01
     24 -0.277623D-02  0.280571D-02  0.252117D-01  0.363868D-01 -0.184066D+00
     25 -0.336626D-02  0.180402D-02  0.106842D-01  0.100876D-02 -0.715198D-02
     26 -0.117214D-02  0.199107D-02  0.142007D-01  0.126962D-01 -0.141062D-01
     27  0.120950D-02 -0.809801D-03  0.863892D-02 -0.343854D-02 -0.147099D-01
     28 -0.155810D-02  0.269324D-02 -0.323127D-01 -0.156840D-01 -0.236722D-01
     29  0.203430D-02 -0.166060D-02 -0.405422D-01 -0.491207D-01  0.364199D-01
     30  0.723309D-02 -0.110252D-02  0.272403D-01  0.589537D-01 -0.115063D+00
     31 -0.200556D-02 -0.172532D-02 -0.161257D-01  0.266596D-01  0.530382D-02
     32  0.436350D-02  0.259777D-03  0.225786D-02 -0.283917D-02 -0.125310D-02
     33  0.136687D-02  0.100063D-02 -0.679116D-02  0.100859D-01 -0.210981D-01
     34 -0.280179D-03 -0.431438D-04 -0.269710D-02 -0.328905D-02 -0.302416D-02
     35 -0.612850D-03  0.516469D-03 -0.390967D-02 -0.557025D-02 -0.818195D-02
     36 -0.438679D-03  0.411302D-03  0.285932D-01  0.149238D-01 -0.343952D-02
               16            17            18            19            20 
     16  0.157235D+00
     17  0.210998D+00  0.381328D+00
     18  0.105418D+00  0.212224D+00  0.296343D+00
     19  0.116273D-01 -0.142060D-01 -0.352336D-02  0.107290D+00
     20  0.138016D-01 -0.778906D-02 -0.101392D-02 -0.172323D+00  0.629624D+00
     21  0.622131D-02 -0.130119D-01  0.844046D-02 -0.702752D-01  0.810960D-01
     22  0.186648D-01 -0.798455D-02 -0.190613D-01  0.186649D-01  0.522591D-02
     23 -0.117280D-03  0.112411D-01 -0.419094D-01 -0.638303D-02 -0.570290D-01
     24  0.976829D-03 -0.128009D-01 -0.996463D-01  0.699005D-02  0.351986D-01
     25 -0.172702D-02 -0.364759D-02  0.248187D-02 -0.524595D-02 -0.149686D-02
     26 -0.166511D-02 -0.596806D-02  0.380777D-02 -0.177308D-02  0.214585D-02
     27 -0.229825D-02 -0.190888D-02  0.305308D-02  0.141990D-02  0.374309D-02
     28 -0.327067D-01 -0.508789D-01  0.371557D-01 -0.247305D-01  0.259293D-01
     29 -0.461206D-01 -0.296373D-01  0.267216D-01  0.319134D-01 -0.699487D-02
     30  0.114198D-01  0.472725D-02  0.157734D-02  0.392269D-01 -0.208663D-01
     31  0.355419D-03 -0.396186D-02 -0.368193D-02  0.176981D-02 -0.735031D-02
     32 -0.244210D-03 -0.789699D-03  0.383802D-03  0.877409D-04  0.198888D-02
     33  0.165292D-02 -0.251890D-02  0.327364D-02  0.545994D-03 -0.107856D-02
     34 -0.184157D-03  0.547051D-04 -0.553199D-02 -0.119112D-02  0.613281D-02
     35 -0.150832D-02 -0.231967D-02 -0.157217D-02  0.258935D-02 -0.561842D-02
     36 -0.399903D-02 -0.175826D-02  0.310688D-02 -0.152743D-02 -0.716189D-03
               21            22            23            24            25 
     21  0.118245D+00
     22  0.233528D-03  0.530634D+00
     23  0.514643D-01  0.212924D+00  0.155250D+00
     24 -0.127192D-01 -0.111643D+00 -0.108907D+00  0.344164D+00
     25  0.520458D-03 -0.268190D-02  0.146479D-02 -0.867022D-03  0.143367D+00
     26  0.278646D-02 -0.296085D-02 -0.287857D-02 -0.998221D-03  0.983248D-01
     27  0.210896D-02 -0.464285D-03  0.234446D-02 -0.287277D-03  0.169127D-01
     28  0.617855D-01  0.123969D-02  0.106990D-01  0.222216D-03 -0.861830D-01
     29 -0.357034D-01  0.157474D-02  0.100910D-02  0.863251D-02 -0.946512D-01
     30 -0.372561D-01  0.132172D-01 -0.643109D-02 -0.164698D-02 -0.345763D-01
     31  0.111198D-02  0.291784D-02 -0.124247D-01  0.488145D-02 -0.181164D-01
     32  0.122703D-02 -0.210597D-02  0.171178D-02 -0.721863D-03  0.364010D-01
     33  0.354132D-02  0.289818D-02  0.523525D-02 -0.264529D-02 -0.151169D-01
     34 -0.201936D-02 -0.423805D+00 -0.159686D+00  0.798861D-01 -0.589617D-03
     35  0.386888D-02 -0.154474D+00 -0.538259D-01  0.394824D-01 -0.460297D-03
     36 -0.584566D-03  0.471654D-01  0.254293D-01 -0.416111D-01 -0.148010D-03
               26            27            28            29            30 
     26  0.740390D-01
     27  0.656082D-01  0.196595D-01
     28 -0.126025D+00 -0.455677D-01  0.133211D+00
     29 -0.740369D-01 -0.399388D-01  0.154946D+00  0.163950D+00
     30 -0.404217D-01  0.193772D-01 -0.432081D-01 -0.201501D-01  0.196163D+00
     31  0.363901D-01 -0.238100D-02  0.836526D-02 -0.130368D-01 -0.532663D-02
     32 -0.202624D-01 -0.140945D-02 -0.355151D-02  0.450672D-02 -0.142073D-02
     33  0.259555D-02  0.978787D-02 -0.128414D-01  0.334697D-02  0.295927D-02
     34 -0.328159D-03 -0.564958D-03 -0.464591D-03  0.154461D-02  0.353211D-03
     35  0.534869D-03 -0.535418D-03 -0.364062D-02  0.619632D-03  0.148861D-02
     36 -0.928941D-03  0.117056D-03 -0.178205D-02 -0.746320D-03 -0.175035D-02
               31            32            33            34            35 
     31  0.638533D+00
     32 -0.118708D+00  0.634076D-01
     33 -0.241860D+00  0.157441D-01  0.110039D+00
     34  0.193775D-02 -0.434270D-03 -0.902445D-03  0.426950D+00
     35  0.266948D-02 -0.106825D-02 -0.292784D-02  0.157716D+00  0.656744D-01
     36 -0.872704D-03  0.319228D-04 -0.377451D-03 -0.713854D-01 -0.371942D-01
               36 
     36  0.470021D-01
 FormGI is forming the generalized inverse of G from B-inverse, IUseBI=4.
 Leave Link  716 at Fri May 23 03:22:53 2025, MaxMem=  3758096384 cpu:               0.1 elap:               0.0
 (Enter /apps/easybuild-2022/easybuild/software/Compiler/NVHPC/22.11-CUDA-11.7.0/Gaussian/g16c01-CUDA-11.7.0/g16/l103.exe)

 GradGradGradGradGradGradGradGradGradGradGradGradGradGradGradGradGradGrad
 Berny optimization.
 Red2BG is reusing G-inverse.
 Internal  Forces:  Max     0.193344908 RMS     0.054834881
 Search for a saddle point.
 Step number   1 out of a maximum of  100
 All quantities printed in internal units (Hartrees-Bohrs-Radians)
 Swapping is turned off.
 Second derivative matrix not updated -- analytic derivatives used.
 ITU=  0
     Eigenvalues ---   -0.31646  -0.11575  -0.04030  -0.01665  -0.00165
     Eigenvalues ---    0.01577   0.02935   0.04796   0.07848   0.08182
     Eigenvalues ---    0.08605   0.10167   0.11167   0.13706   0.14953
     Eigenvalues ---    0.17190   0.21906   0.25359   0.28685   0.30014
     Eigenvalues ---    0.31382   0.34816   0.39586   0.47462   0.49941
     Eigenvalues ---    0.55277   0.67690   0.71783   0.75865   3.09412
 Eigenvectors required to have negative eigenvalues:
                          A13       R2        D3        A19       D1
   1                   -0.35706   0.33768  -0.31226  -0.27898  -0.25482
                          R6        D2        A6        A8        D10
   1                   -0.24629  -0.22063  -0.21810   0.19540  -0.18799
 Eigenvalue     2 is  -1.16D-01 should be greater than     0.000000 Eigenvector:
                          A1        D3        D1        R2        A2
   1                   -0.43461  -0.40616  -0.34777  -0.34070   0.26186
                          D2        A3        A13       D6        R6
   1                   -0.24477   0.20473   0.17233  -0.16450   0.16407
 Eigenvalue     3 is  -4.03D-02 should be greater than     0.000000 Eigenvector:
                          R2        D22       D19       D10       A19
   1                   -0.63742  -0.36140   0.26319  -0.22889  -0.18925
                          A10       D3        D18       D8        D21
   1                    0.18343   0.16436  -0.15922  -0.13068   0.13030
 Eigenvalue     4 is  -1.66D-02 should be greater than     0.000000 Eigenvector:
                          D22       D9        D8        D17       D13
   1                   -0.37602   0.33261   0.26498   0.25788   0.25127
                          R6        D19       R2        D16       A19
   1                    0.21667   0.21030   0.19946   0.19025  -0.18532
 Eigenvalue     5 is  -1.65D-03 should be greater than     0.000000 Eigenvector:
                          D22       D21       D20       D19       D14
   1                   -0.52086  -0.49408  -0.49094  -0.46305  -0.05482
                          D11       D10       D7        D18       A20
   1                   -0.05035  -0.05019  -0.04572  -0.04190  -0.04185
 RFO step:  Lambda0=1.698312913D-04 Lambda=-1.92291869D-01.
 Linear search not attempted -- option 19 set.
 Maximum step size (   0.300) exceeded in Quadratic search.
    -- Step size scaled by   0.321
 Iteration  1 RMS(Cart)=  0.05849809 RMS(Int)=  0.01051340
 Iteration  2 RMS(Cart)=  0.00962500 RMS(Int)=  0.00011641
 Iteration  3 RMS(Cart)=  0.00004068 RMS(Int)=  0.00011337
 Iteration  4 RMS(Cart)=  0.00000000 RMS(Int)=  0.00011337
 ITry= 1 IFail=0 DXMaxC= 3.52D-01 DCOld= 1.00D+10 DXMaxT= 3.00D-01 DXLimC= 3.00D+00 Rises=F
 Variable       Old X    -DE/DX   Delta X   Delta X   Delta X     New X
                                 (Linear)    (Quad)   (Total)
    R1        2.66708   0.11088   0.00000   0.02419   0.02419   2.69127
    R2        3.15584  -0.10839   0.00000  -0.25950  -0.25950   2.89635
    R3        2.27496   0.02671   0.00000   0.01357   0.01357   2.28854
    R4        2.57377  -0.01464   0.00000  -0.01281  -0.01281   2.56096
    R5        2.55726  -0.00421   0.00000  -0.00751  -0.00751   2.54975
    R6        3.55208   0.08080   0.00000   0.03274   0.03274   3.58482
    R7        2.73017   0.02471   0.00000   0.00368   0.00368   2.73384
    R8        2.71107   0.03993   0.00000   0.00629   0.00629   2.71736
    R9        3.01375   0.05821   0.00000   0.03246   0.03246   3.04620
   R10        3.07890   0.04434   0.00000   0.08463   0.08463   3.16353
   R11        1.83910  -0.01782   0.00000  -0.00723  -0.00723   1.83187
    A1        2.03158   0.12737   0.00000  -0.05360  -0.05400   1.97757
    A2        2.41067  -0.07964   0.00000  -0.00092  -0.00133   2.40935
    A3        1.82695  -0.03754   0.00000   0.06325   0.06284   1.88979
    A4        1.97754  -0.11111   0.00000  -0.02765  -0.02755   1.94999
    A5        1.93646  -0.04154   0.00000   0.01251   0.01238   1.94883
    A6        1.90995   0.19334   0.00000  -0.00517  -0.00521   1.90474
    A7        1.79194   0.04111   0.00000   0.01457   0.01479   1.80673
    A8        1.93341  -0.01180   0.00000   0.03118   0.03124   1.96465
    A9        1.91147  -0.08629   0.00000  -0.02462  -0.02456   1.88692
   A10        2.06135   0.00571   0.00000  -0.01633  -0.01630   2.04505
   A11        1.90496  -0.00146   0.00000   0.01562   0.01560   1.92057
   A12        1.42087  -0.03672   0.00000  -0.01143  -0.01141   1.40946
   A13        1.44083   0.05436   0.00000   0.01066   0.01065   1.45147
   A14        2.31519  -0.00420   0.00000   0.00008   0.00003   2.31522
   A15        1.63399   0.02997   0.00000   0.01599   0.01595   1.64994
   A16        1.60683  -0.04286   0.00000  -0.01738  -0.01736   1.58948
   A17        1.67848  -0.00203   0.00000   0.00106   0.00114   1.67963
   A18        1.58918   0.00184   0.00000   0.00021   0.00013   1.58931
   A19        2.85929   0.01661   0.00000  -0.00038  -0.00038   2.85891
   A20        2.12530  -0.02534   0.00000  -0.03270  -0.03270   2.09259
    D1        1.66046  -0.04600   0.00000  -0.07806  -0.07803   1.58243
    D2       -2.61775  -0.09063   0.00000  -0.06883  -0.06883  -2.68658
    D3       -0.50657  -0.09770   0.00000  -0.09494  -0.09501  -0.60158
    D4       -1.69407   0.03340   0.00000  -0.00676  -0.00670  -1.70077
    D5        0.31091  -0.01123   0.00000   0.00247   0.00250   0.31341
    D6        2.42209  -0.01830   0.00000  -0.02364  -0.02369   2.39841
    D7       -1.83873  -0.01805   0.00000  -0.01441  -0.01446  -1.85319
    D8        1.24848  -0.01739   0.00000  -0.02437  -0.02438   1.22411
    D9        2.88194  -0.03180   0.00000  -0.02913  -0.02923   2.85271
   D10       -0.29655  -0.03862   0.00000  -0.02615  -0.02625  -0.32280
   D11        2.25181  -0.00647   0.00000   0.00274   0.00274   2.25455
   D12       -0.94416  -0.00581   0.00000  -0.00722  -0.00718  -0.95135
   D13        0.68929  -0.02022   0.00000  -0.01198  -0.01204   0.67725
   D14       -2.48920  -0.02704   0.00000  -0.00901  -0.00905  -2.49825
   D15        0.28754  -0.00122   0.00000  -0.01787  -0.01778   0.26977
   D16       -2.90843  -0.00057   0.00000  -0.02783  -0.02770  -2.93613
   D17       -1.27498  -0.01497   0.00000  -0.03259  -0.03255  -1.30753
   D18        1.82972  -0.02180   0.00000  -0.02961  -0.02956   1.80016
   D19        2.84953   0.00755   0.00000  -0.03342  -0.03345   2.81608
   D20        0.79187   0.00559   0.00000  -0.01480  -0.01473   0.77714
   D21       -1.53997   0.00399   0.00000  -0.01844  -0.01848  -1.55844
   D22        2.71784  -0.02547   0.00000  -0.02275  -0.02275   2.69510
         Item               Value     Threshold  Converged?
 Maximum Force            0.193345     0.000450     NO 
 RMS     Force            0.054835     0.000300     NO 
 Maximum Displacement     0.351730     0.001800     NO 
 RMS     Displacement     0.061347     0.001200     NO 
 Predicted change in Energy=-6.251294D-02
 Lowest energy point so far.  Saving SCF results.
 GradGradGradGradGradGradGradGradGradGradGradGradGradGradGradGradGradGrad

 Leave Link  103 at Fri May 23 03:22:53 2025, MaxMem=  3758096384 cpu:               0.1 elap:               0.1
 (Enter /apps/easybuild-2022/easybuild/software/Compiler/NVHPC/22.11-CUDA-11.7.0/Gaussian/g16c01-CUDA-11.7.0/g16/l202.exe)
                          Input orientation:                          
 ---------------------------------------------------------------------
 Center     Atomic      Atomic             Coordinates (Angstroms)
 Number     Number       Type             X           Y           Z
 ---------------------------------------------------------------------
      1          6           0       -1.156539   -0.149423    0.840004
      2          6           0       -0.207314    0.561352    0.051335
      3          9           0       -0.283542    0.216537   -1.257049
      4          9           0       -0.459282    1.886862    0.043369
      5         16           0        1.526035    0.294881    0.774607
      6          8           0        2.121842    1.403499    1.487968
      7          8           0        1.949255   -1.061419    0.553079
      8          8           0        1.935888    0.846563   -0.683526
      9          9           0       -0.611826   -1.466507    1.403639
     10          9           0        0.668786   -0.162431    2.137873
     11          9           0       -2.260764    0.033718    1.302354
     12          1           0        2.827885    1.194403   -0.835358
 ---------------------------------------------------------------------
                    Distance matrix (angstroms):
                    1          2          3          4          5
     1  C    0.000000
     2  C    1.424158   0.000000
     3  F    2.300800   1.355204   0.000000
     4  F    2.295048   1.349270   2.124137   0.000000
     5  S    2.719905   1.897005   2.721825   2.647753   0.000000
     6  O    3.684997   2.863232   3.837951   2.997117   1.446687
     7  O    3.249618   2.745164   3.145651   3.840992   1.437963
     8  O    3.588347   2.283568   2.377337   2.710616   1.611981
     9  F    1.532680   2.470742   3.165386   3.621972   2.840531
    10  F    2.239741   2.375932   3.546271   3.139918   1.674068
    11  F    1.211042   2.461728   3.239348   2.874808   3.832306
    12  H    4.526405   3.224812   3.288621   3.472338   2.257419
                    6          7          8          9         10
     6  O    0.000000
     7  O    2.641898   0.000000
     8  O    2.249476   2.273712   0.000000
     9  F    3.964465   2.728861   4.024599   0.000000
    10  F    2.232910   2.226960   3.253292   1.969690   0.000000
    11  F    4.595432   4.414182   4.713420   2.231576   3.052676
    12  H    2.437224   2.790785   0.969384   4.891335   3.916990
                   11         12
    11  F    0.000000
    12  H    5.640156   0.000000
 Symmetry turned off by external request.
 Stoichiometry    C2HF5O3S
 Rotational constants (GHZ):           1.4709974           0.9904178           0.8196222
 Leave Link  202 at Fri May 23 03:22:53 2025, MaxMem=  3758096384 cpu:               0.1 elap:               0.0
 (Enter /apps/easybuild-2022/easybuild/software/Compiler/NVHPC/22.11-CUDA-11.7.0/Gaussian/g16c01-CUDA-11.7.0/g16/l301.exe)
 Standard basis: 6-311++G(d,p) (5D, 7F)
 Ernie: Thresh=  0.10000D-02 Tol=  0.10000D-05 Strict=F.
   257 basis functions,   419 primitive gaussians,   268 cartesian basis functions
    49 alpha electrons       49 beta electrons
       nuclear repulsion energy       946.9635973491 Hartrees.
 IExCor= 4639 DFT=T Ex+Corr=wB97XD ExCW=0 ScaHFX=  1.000000
 ScaDFX=  1.000000  1.000000  1.000000  1.000000 ScalE2=  1.000000  1.000000
 IRadAn=      5 IRanWt=     -1 IRanGd=            0 ICorTp=0 IEmpDi=121
 HFx  wShort=  0.000000 wLong=  0.200000 cFull=  0.222036 cShort=  0.000000 cLong=  0.777964
 DFx  wShort=  0.000000 wLong=  0.200000 cFull=  0.000000 cShort=  0.000000 cLong=  1.000000
 NAtoms=   12 NActive=   12 NUniq=   12 SFac= 1.00D+00 NAtFMM=   60 NAOKFM=F Big=F
 Integral buffers will be    131072 words long.
 Raffenetti 2 integral format.
 Two-electron integral symmetry is turned off.
 R6Disp:  Grimme-D2 Dispersion energy=       -0.0053663208 Hartrees.
 Nuclear repulsion after empirical dispersion term =      946.9582310283 Hartrees.
 Leave Link  301 at Fri May 23 03:22:53 2025, MaxMem=  3758096384 cpu:               0.1 elap:               0.0
 (Enter /apps/easybuild-2022/easybuild/software/Compiler/NVHPC/22.11-CUDA-11.7.0/Gaussian/g16c01-CUDA-11.7.0/g16/l302.exe)
 NPDir=0 NMtPBC=     1 NCelOv=     1 NCel=       1 NClECP=     1 NCelD=      1
         NCelK=      1 NCelE2=     1 NClLst=     1 CellRange=     0.0.
 One-electron integrals computed using PRISM.
 NBasis=   257 RedAO= T EigKep=  3.50D-05  NBF=   257
 NBsUse=   257 1.00D-06 EigRej= -1.00D+00 NBFU=   257
 Precomputing XC quadrature grid using
 IXCGrd= 4 IRadAn=           5 IRanWt=          -1 IRanGd=           0 AccXCQ= 0.00D+00.
 Generated NRdTot=       0 NPtTot=           0 NUsed=           0 NTot=          32
 NSgBfM=   268   268   268   268   268 MxSgAt=    12 MxSgA2=    12.
 Leave Link  302 at Fri May 23 03:22:53 2025, MaxMem=  3758096384 cpu:               0.5 elap:               0.1
 (Enter /apps/easybuild-2022/easybuild/software/Compiler/NVHPC/22.11-CUDA-11.7.0/Gaussian/g16c01-CUDA-11.7.0/g16/l303.exe)
 DipDrv:  MaxL=1.
 Leave Link  303 at Fri May 23 03:22:53 2025, MaxMem=  3758096384 cpu:               0.1 elap:               0.0
 (Enter /apps/easybuild-2022/easybuild/software/Compiler/NVHPC/22.11-CUDA-11.7.0/Gaussian/g16c01-CUDA-11.7.0/g16/l401.exe)
 Initial guess from the checkpoint file:  "2003846667223680600001_r12_insertion_R_9_1_10.chk"
 B after Tr=     0.004703    0.007100   -0.000527
         Rot=    0.999999   -0.001177    0.000677   -0.000528 Ang=  -0.17 deg.
 Guess basis will be translated and rotated to current coordinates.
 JPrj=2 DoOrth=T DoCkMO=T.
 Generating alternative initial guess.
 ExpMin= 3.60D-02 ExpMax= 9.34D+04 ExpMxC= 3.17D+03 IAcc=3 IRadAn=         5 AccDes= 0.00D+00
 Harris functional with IExCor= 4639 and IRadAn=       5 diagonalized for initial guess.
 HarFok:  IExCor= 4639 AccDes= 0.00D+00 IRadAn=         5 IDoV= 1 UseB2=F ITyADJ=14
 ICtDFT=  3500011 ScaDFX=  1.000000  1.000000  1.000000  1.000000
 FoFCou: FMM=F IPFlag=           0 FMFlag=      100000 FMFlg1=           0
         NFxFlg=           0 DoJE=T BraDBF=F KetDBF=T FulRan=T
         wScrn=  0.000000 ICntrl=       500 IOpCl=  0 I1Cent=   200000004 NGrid=           0
         NMat0=    1 NMatS0=      1 NMatT0=    0 NMatD0=    1 NMtDS0=    0 NMtDT0=    0
 Symmetry not used in FoFCou.
 Harris En= -1166.94168478095    
 Leave Link  401 at Fri May 23 03:22:53 2025, MaxMem=  3758096384 cpu:               2.7 elap:               0.4
 (Enter /apps/easybuild-2022/easybuild/software/Compiler/NVHPC/22.11-CUDA-11.7.0/Gaussian/g16c01-CUDA-11.7.0/g16/l502.exe)
 Keep R1 ints in memory in canonical form, NReq=1117474633.
 FoFCou: FMM=F IPFlag=           0 FMFlag=           0 FMFlg1=           0
         NFxFlg=           0 DoJE=F BraDBF=F KetDBF=F FulRan=T
         wScrn=  0.000000 ICntrl=       600 IOpCl=  0 I1Cent=           0 NGrid=           0
         NMat0=    1 NMatS0=  33153 NMatT0=    0 NMatD0=    1 NMtDS0=    0 NMtDT0=    0
 Symmetry not used in FoFCou.
 Two-electron integral symmetry not used.
 Closed shell SCF:
 Using DIIS extrapolation, IDIIS=  1040.
 NGot=  3758096384 LenX=  2658793852 LenY=  2658721587
 Requested convergence on RMS density matrix=1.00D-08 within  32 cycles.
 Requested convergence on MAX density matrix=1.00D-06.
 Requested convergence on             energy=1.00D-06.
 No special actions if energy rises.

 Cycle   1  Pass 1  IDiag  1:
 E= -1199.50893340033    
 DIIS: error= 3.00D-03 at cycle   1 NSaved=   1.
 NSaved= 1 IEnMin= 1 EnMin= -1199.50893340033     IErMin= 1 ErrMin= 3.00D-03
 ErrMax= 3.00D-03  0.00D+00 EMaxC= 1.00D-01 BMatC= 1.16D-02 BMatP= 1.16D-02
 IDIUse=3 WtCom= 9.70D-01 WtEn= 3.00D-02
 Coeff-Com:  0.100D+01
 Coeff-En:   0.100D+01
 Coeff:      0.100D+01
 Gap=     0.733 Goal=   None    Shift=    0.000
 GapD=    0.733 DampG=2.000 DampE=1.000 DampFc=2.0000 IDamp=-1.
[...]
     18  0.192572D-02  0.108260D-02 -0.191071D+00 -0.172773D+00 -0.334039D+00
     19  0.787815D-02 -0.520362D-03 -0.785208D-01  0.702109D-01  0.383980D-01
     20 -0.260952D-02 -0.786546D-04  0.454670D-01 -0.489976D+00 -0.240729D+00
     21 -0.139973D-02  0.703767D-03  0.250878D-01 -0.242447D+00 -0.206668D+00
     22  0.335594D-03  0.275836D-02 -0.388901D-01 -0.317060D-01  0.195598D-01
     23  0.130811D-01 -0.265279D-02  0.130208D-01 -0.115426D+00  0.447091D-01
     24 -0.483411D-02  0.112095D-02 -0.289966D-01  0.175280D-01 -0.128562D+00
     25 -0.194521D-02 -0.483216D-04  0.543026D-02  0.723721D-02 -0.943572D-02
     26  0.619839D-02  0.313458D-02 -0.629277D-02 -0.415290D-02  0.302423D-02
     27  0.535990D-02  0.399513D-02 -0.265651D-01  0.129714D-01 -0.169228D-01
     28 -0.512203D-03 -0.158990D-02 -0.475993D-01  0.405684D-01 -0.558679D-01
     29 -0.470919D-02 -0.876494D-03 -0.161790D-01 -0.365057D-01 -0.609445D-02
     30  0.107530D-01  0.124504D-03  0.160970D-01 -0.129937D-01 -0.349103D-01
     31 -0.377362D-02  0.435499D-02  0.649500D-02  0.337682D-02 -0.890060D-02
     32 -0.704093D-02  0.235526D-02  0.272759D-01 -0.176269D-01  0.115369D-01
     33  0.381227D-02 -0.150065D-02  0.132008D-02  0.372033D-02 -0.760471D-02
     34  0.404297D-02 -0.150867D-03  0.413104D-02 -0.380898D-02  0.270517D-02
     35 -0.166015D-02 -0.133166D-03 -0.101416D-01 -0.271423D-01 -0.728969D-02
     36 -0.183479D-02 -0.491941D-03  0.887633D-02  0.338985D-01  0.121693D-01
               16            17            18            19            20 
     16  0.234460D+00
     17  0.158643D+00  0.180033D+00
     18  0.225517D+00  0.162001D+00  0.374511D+00
     19  0.127531D-01 -0.171551D-01 -0.126123D-01  0.610926D-01
     20  0.790264D-02  0.800601D-03 -0.428897D-02 -0.675521D-01  0.533976D+00
     21  0.500628D-02 -0.195219D-01  0.379605D-02 -0.510877D-01  0.244062D+00
     22  0.717775D-02  0.773013D-02 -0.329566D-01  0.953560D-02  0.647753D-02
     23 -0.544540D-02  0.131353D-01  0.453484D-02 -0.544845D-02 -0.413864D-01
     24 -0.899839D-02  0.254150D-01 -0.432965D-01  0.735147D-02 -0.131814D-01
     25 -0.143202D-02 -0.189170D-02  0.439746D-03 -0.383867D-03 -0.575936D-03
     26  0.704162D-03  0.127132D-02  0.408830D-04  0.642857D-03  0.647587D-03
     27  0.288694D-02 -0.244099D-03  0.351416D-02  0.414144D-02 -0.306185D-02
     28 -0.250377D-01 -0.345398D-01  0.189762D-01 -0.470304D-03 -0.504681D-02
     29 -0.226993D-01 -0.617661D-02  0.145469D-01  0.106519D-01  0.452434D-02
     30 -0.359693D-02  0.727173D-03  0.489600D-02  0.177668D-01  0.674195D-02
     31 -0.103027D-02 -0.127199D-02  0.941461D-03 -0.506278D-03  0.877571D-03
     32 -0.236631D-02  0.165503D-02 -0.169251D-02 -0.392896D-02  0.622950D-02
     33 -0.141186D-03 -0.867635D-03  0.118526D-02  0.214644D-03 -0.261139D-03
     34 -0.377334D-02 -0.257341D-03 -0.199593D-02  0.979513D-03  0.572075D-02
     35 -0.114803D-02  0.472417D-02 -0.632036D-02  0.228049D-03 -0.150226D-02
     36 -0.923057D-03 -0.454107D-02 -0.218812D-02 -0.126612D-02  0.588656D-02
               21            22            23            24            25 
     21  0.216757D+00
     22  0.108397D-02  0.971592D-01
     23  0.241832D-01  0.140471D+00  0.535432D+00
     24  0.123200D-01  0.721105D-01  0.115117D+00  0.272269D+00
     25  0.146505D-02  0.674132D-03 -0.234139D-03 -0.244851D-04  0.888943D-01
     26 -0.410312D-03  0.484531D-03  0.948932D-03 -0.285319D-03 -0.389240D-01
     27  0.155940D-02  0.930592D-02  0.567818D-02 -0.470873D-02 -0.131467D+00
     28  0.282697D-01  0.142112D-01  0.444242D-02 -0.239558D-02 -0.288062D-01
     29 -0.134011D-01  0.696197D-03  0.321248D-02  0.252303D-02  0.824996D-02
     30 -0.200771D-01  0.932035D-03  0.174599D-02  0.138093D-02  0.742398D-02
     31  0.200678D-02 -0.221473D-04 -0.950673D-04  0.352584D-03  0.139426D-01
     32  0.702279D-03 -0.909081D-02 -0.467610D-02  0.464455D-02  0.176094D-02
     33  0.124845D-02  0.102679D-02  0.419335D-03 -0.405227D-03 -0.904808D-02
     34 -0.106876D-02 -0.448692D-01 -0.130722D+00 -0.540151D-01  0.816350D-04
     35  0.357951D-02 -0.121474D+00 -0.397411D+00 -0.150746D+00  0.303566D-03
     36 -0.306463D-02 -0.627269D-01 -0.190688D+00 -0.118465D+00 -0.161344D-03
               26            27            28            29            30 
     26  0.141252D+00
     27  0.151144D+00  0.418786D+00
     28  0.153370D-01 -0.841889D-02  0.409281D-01
     29 -0.431218D-03 -0.587072D-02  0.286316D-02  0.522898D-01
     30 -0.305086D-02  0.129692D-01  0.113761D-02 -0.175688D-01  0.837664D-01
     31  0.102497D-01 -0.132580D-02 -0.225096D-01 -0.636727D-02 -0.586488D-02
     32 -0.367982D-01 -0.358302D-01  0.519318D-02  0.898734D-02 -0.829819D-02
     33 -0.597116D-01 -0.181644D-01 -0.151786D-01 -0.427381D-02  0.170396D-02
     34  0.144532D-03  0.463845D-03  0.223999D-03  0.369474D-03 -0.524539D-03
     35 -0.360188D-03 -0.185103D-02 -0.548531D-03  0.561311D-03  0.573192D-03
     36 -0.144383D-03 -0.106500D-02 -0.253050D-02 -0.178340D-02  0.255397D-03
               31            32            33            34            35 
     31  0.829005D-01
     32  0.131610D+00  0.476794D+00
     33  0.100800D-01  0.898474D-01  0.950576D-01
     34  0.231935D-03 -0.170415D-03 -0.184104D-04  0.470052D-01
     35  0.213010D-03  0.158543D-02 -0.567022D-05  0.129789D+00  0.421011D+00
     36 -0.122950D-03  0.891570D-03 -0.129811D-03  0.541489D-01  0.158491D+00
               36 
     36  0.111904D+00
 Red2BG is reusing G-inverse.
 Leave Link  716 at Fri May 23 03:52:40 2025, MaxMem=  3758096384 cpu:               0.1 elap:               0.0
 (Enter /apps/easybuild-2022/easybuild/software/Compiler/NVHPC/22.11-CUDA-11.7.0/Gaussian/g16c01-CUDA-11.7.0/g16/l9999.exe)

 ----------------------------------------------------------------------

 Electric dipole moment (input orientation):
 (Debye = 10**-18 statcoulomb cm , SI units = C m)
                  (au)            (Debye)         (10**-30 SI)
   Tot        0.172326D+01      0.438009D+01      0.146104D+02
   x         -0.138813D+01     -0.352827D+01     -0.117690D+02
   y          0.991574D+00      0.252033D+01      0.840691D+01
   z         -0.243934D+00     -0.620019D+00     -0.206816D+01

 Dipole polarizability, Alpha (input orientation).
 (esu units = cm**3 , SI units = C**2 m**2 J**-1)
 Alpha(0;0):
               (au)            (10**-24 esu)      (10**-40 SI)
   iso        0.726366D+02      0.107636D+02      0.119762D+02
   aniso      0.381874D+02      0.565879D+01      0.629625D+01
   xx         0.962783D+02      0.142670D+02      0.158741D+02
   yx         0.430164D+01      0.637437D+00      0.709244D+00
   yy         0.605375D+02      0.897074D+01      0.998129D+01
   zx        -0.644934D+01     -0.955693D+00     -0.106335D+01
   zy        -0.259219D+01     -0.384123D+00     -0.427394D+00
   zz         0.610939D+02      0.905318D+01      0.100730D+02

 ----------------------------------------------------------------------

 Dipole orientation:
     6         -2.53764173         -0.10186868          1.18255874
     6          0.05200375         -0.59770052          1.33080968
     9          1.58247642          1.35838135          1.49584749
     9          0.74580143         -2.51810650          2.78272272
    16          0.70829325         -2.04994630         -2.92042432
     8          0.34386784         -4.63172993         -3.70393668
     8          0.98362015          0.20918644         -4.38091293
     8          3.51019156         -2.24125543         -1.53164320
     9         -4.19492102         -1.65534561          1.98500646
     9         -2.79873843         -1.62593712         -2.47682283
     9         -3.36847802          2.05169272          0.50321918
     1          3.81215364         -3.99359672         -1.12053465

 Electric dipole moment (dipole orientation):
 (Debye = 10**-18 statcoulomb cm , SI units = C m)
                  (au)            (Debye)         (10**-30 SI)
   Tot        0.172326D+01      0.438009D+01      0.146104D+02
   x          0.000000D+00      0.000000D+00      0.000000D+00
   y          0.000000D+00      0.000000D+00      0.000000D+00
   z          0.172326D+01      0.438009D+01      0.146104D+02

 Dipole polarizability, Alpha (dipole orientation).
 (esu units = cm**3 , SI units = C**2 m**2 J**-1)
 Alpha(0;0):
               (au)            (10**-24 esu)      (10**-40 SI)
   iso        0.726366D+02      0.107636D+02      0.119762D+02
   aniso      0.381874D+02      0.565879D+01      0.629625D+01
   xx         0.752435D+02      0.111499D+02      0.124060D+02
   yx        -0.941710D+01     -0.139547D+01     -0.155267D+01
   yy         0.639625D+02      0.947827D+01      0.105460D+02
   zx        -0.151410D+02     -0.224367D+01     -0.249642D+01
   zy         0.104278D+02      0.154523D+01      0.171930D+01
   zz         0.787036D+02      0.116627D+02      0.129765D+02

 ----------------------------------------------------------------------
 Unable to Open any file for archive entry.
 1\1\GINC-SPARTAN-BM161\Freq\RwB97XD\6-311++G(d,p)\C2H1F5O3S1\AKHALILOV
 \23-May-2025\0\\#P wb97xd/6-311++G(d,p) Symm(None) scf(xqc) pop(None) 
 opt(NoFreeze,TS,CalcAll,NoEigentest,MaxCycle=999)\\Gaussian input prep
 ared by ASE\\0,1\C,-1.0617626513,-0.1468897167,1.0241448864\C,-0.42697
 8366,0.6409482843,0.0601404027\F,-0.5680731854,0.2851470808,-1.2002205
 65\F,-0.4748028204,1.9536040521,0.2403877858\S,1.8470953482,0.03309711
 78,0.5410316332\O,2.6525745039,0.6861902341,1.5411962659\O,2.047132257
 ,-1.2012009755,-0.1548171635\O,1.9361304053,1.1298632204,-0.6990981175
 \F,-1.4485387023,0.3249998219,2.1434976443\F,0.7659369474,-0.744653887
 3,1.8736215318\F,-1.4246535345,-1.341343139,0.7734471347\H,2.206363798
 1,1.978270907,-0.3250354389\\Version=ES64L-G16RevC.01\HF=-1199.6636752
 \RMSD=4.914e-09\RMSF=1.665e-06\ZeroPoint=0.0484951\Thermal=0.0593141\E
 Tot=-1199.6043611\HTot=-1199.6034169\GTot=-1199.6526167\Dipole=-1.3881
 277,0.9915738,-0.2439341\DipoleDeriv=1.5518127,0.1798286,-0.2641273,1.
 5790998,1.5409711,-0.022163,-1.9480608,0.100313,1.6731678,-1.6213916,-
 0.3786798,0.7068472,-0.7619498,1.1188793,0.1925645,1.0308939,0.126275,
 0.9661283,0.0027553,0.0542399,-0.2745912,-0.0775762,-0.2445591,-0.1247
 403,-0.5154957,-0.0444962,-0.8800485,0.0178097,0.1790829,-0.1163154,0.
 429179,-0.9735274,0.0188224,0.0019447,-0.0475894,-0.2391345,3.4442693,
 0.3447538,-0.3342347,-0.229272,2.263079,-0.1573027,0.274431,-0.1994195
 ,2.2729526,-0.9113979,-0.1096557,-0.202038,-0.1872977,-0.6455213,-0.13
 78035,-0.2965397,-0.0689142,-0.7534752,-0.811728,0.0553169,0.0614514,0
 .3148735,-0.8479813,-0.1733627,0.1180705,-0.1981268,-0.6088073,-0.9591
 427,-0.1363922,0.1730229,-0.4440716,-0.8646731,0.4436814,0.3843184,0.3
 214523,-0.7270765,-0.3238817,0.079736,0.2268909,0.2026108,-0.2630027,-
 0.2108711,1.0238371,-0.1755282,-0.8638806,-0.3549743,-0.0532911,0.0763
 334,0.0848419,-0.5926801,0.2647491,-0.0941124,0.2779001,-0.8400009,-0.
 3316396,-0.2354414,-0.0227817,-1.0192616,-0.8565437,0.0020896,-0.01253
 22,-0.0849726,-0.2093767,0.2975087,0.020502,-0.0304574,0.1088239,0.365
 5593,-0.0956639,0.0332451,-0.0068935,0.2095515\Polar=96.2782638,4.3016
 359,60.5375453,-6.4493361,-2.5921896,61.093859\PG=Unknown\NImag=1\\0.2
 4907808,0.18172867,0.69579562,-0.22567296,0.07054723,0.65804038,-0.080
 70445,0.02759627,-0.03561230,0.04735431,-0.08991803,-0.15243198,0.1220
 8433,0.06417816,0.62862367,0.10807414,0.11678915,-0.19572339,-0.042763
 02,-0.06921251,0.67441397,-0.00390017,-0.01470089,0.03697673,-0.017739
 14,-0.00922812,-0.04226586,0.03690146,0.00372235,0.00624182,0.00756278
 ,-0.00929483,-0.07922246,-0.05269510,0.01409355,0.09578188,-0.01060069
 ,-0.01770112,-0.05326422,-0.02685949,-0.05319249,-0.34910042,0.0234389
 2,0.09474891,0.42721782,-0.00573159,-0.03468290,0.02022296,-0.01688902
 ,0.02297567,-0.00001263,0.00219552,-0.00638130,-0.00122665,0.03553687,
 0.00821548,-0.05184451,-0.01251927,0.00387681,-0.34221908,-0.00992884,
 -0.00179919,-0.02745878,-0.03160516,0.00111824,0.42944227,-0.00381148,
 0.01823424,0.00544053,0.00134761,-0.01143357,-0.06964869,0.00177832,-0
 .05415273,-0.01474869,-0.00640658,0.04218823,0.07677455,-0.03762201,-0
 .05138809,0.06435890,0.06844027,0.03560418,-0.04691729,-0.00921668,0.0
 0218024,0.01961859,-0.00785511,-0.02241543,0.00202703,0.36355466,-0.02
 292930,0.05682443,-0.05713674,-0.04709745,-0.01473453,0.01566517,0.001
 07220,-0.00439996,-0.00949491,0.01512797,-0.01542685,0.00347290,0.1031
 4871,0.85957095,0.03740914,-0.05099630,0.07644816,0.05655282,0.0073390
 2,-0.01563715,-0.01805995,0.00136205,-0.01727344,-0.00318173,-0.001917
 23,-0.00285205,0.15616447,0.40758863,0.67585140,0.00573182,0.00333662,
 -0.00399685,0.00215126,-0.00837189,0.00513392,-0.00223870,-0.00033379,
 -0.00580520,-0.00041424,0.00497841,0.00026119,-0.22834715,-0.13520049,
 -0.21534359,0.23445952,0.00541610,-0.00779333,0.00639122,0.00615736,-0
 .00168629,-0.00091507,-0.00069253,0.00079426,0.00014668,-0.00185851,0.
 00424728,-0.00005780,-0.12027993,-0.19100445,-0.16853371,0.15864333,0.
 18003270,-0.00326196,0.00620011,-0.01148606,-0.00394626,-0.00404604,0.
 00106415,0.00026674,-0.00012899,0.00096063,-0.00029659,0.00192572,0.00
 108260,-0.19107130,-0.17277280,-0.33403923,0.22551687,0.16200123,0.374
 51103,0.00395688,0.00824387,-0.01099854,-0.00805924,-0.00327698,0.0114
 5910,0.00135070,-0.00049408,-0.00284638,-0.00172784,0.00787815,-0.0005
 2036,-0.07852083,0.07021091,0.03839805,0.01275308,-0.01715510,-0.01261
 234,0.06109259,-0.00011900,-0.01406625,0.01106568,0.00558126,0.0010688
 0,-0.01141465,0.00006456,0.00229303,0.00525864,0.00120253,-0.00260952,
 -0.00007865,0.04546702,-0.48997577,-0.24072862,0.00790264,0.00080060,-
 0.00428897,-0.06755211,0.53397630,-0.00665750,0.00319999,-0.00840667,-
 0.00762894,0.00017937,-0.00414559,0.00232632,0.00127304,0.00597704,0.0
 0119703,-0.00139973,0.00070377,0.02508781,-0.24244683,-0.20666757,0.00
 500628,-0.01952190,0.00379605,-0.05108772,0.24406243,0.21675689,-0.001
 35653,0.02270975,-0.02817948,-0.04303528,-0.01357709,0.01959660,-0.000
 34389,-0.00305718,-0.00251094,-0.00024078,0.00033559,0.00275836,-0.038
 89012,-0.03170599,0.01955980,0.00717775,0.00773013,-0.03295665,0.00953
 560,0.00647753,0.00108397,0.09715921,0.00210145,0.01192839,-0.01684482
 ,-0.02256644,-0.01984628,0.01899775,0.00032451,0.00100768,-0.00519976,
 0.00415152,0.01308106,-0.00265279,0.01302078,-0.11542611,0.04470915,-0
 .00544540,0.01313532,0.00453484,-0.00544845,-0.04138636,0.02418322,0.1
 4047124,0.53543236,-0.00132109,-0.01253119,0.01440731,0.01900135,0.016
 94854,-0.01713853,-0.00073772,-0.00059866,0.01107727,-0.00232692,-0.00
 483411,0.00112095,-0.02899656,0.01752805,-0.12856152,-0.00899839,0.025
 41497,-0.04329648,0.00735147,-0.01318137,0.01232002,0.07211048,0.11511
 709,0.27226939,-0.08292000,0.01950934,0.11622024,0.00392044,0.01015025
 ,0.02069204,0.00148392,-0.00364032,0.00394410,-0.00088520,-0.00194521,
 -0.00004832,0.00543026,0.00723721,-0.00943572,-0.00143202,-0.00189170,
 0.00043975,-0.00038387,-0.00057594,0.00146505,0.00067413,-0.00023414,-
 0.00002449,0.08889431,0.01391394,-0.11487905,-0.10232478,0.01082395,0.
 00667320,0.00614153,-0.00502552,-0.00037020,0.00244229,-0.00205837,0.0
 0619839,0.00313458,-0.00629277,-0.00415290,0.00302423,0.00070416,0.001
 27132,0.00004088,0.00064286,0.00064759,-0.00041031,0.00048453,0.000948
 93,-0.00028532,-0.03892397,0.14125236,0.10967107,-0.10377436,-0.360274
 66,0.05245512,-0.02551425,-0.03184048,-0.00049698,0.00099327,-0.007848
 24,-0.01065038,0.00535990,0.00399513,-0.02656509,0.01297143,-0.0169228
 4,0.00288694,-0.00024410,0.00351416,0.00414144,-0.00306185,0.00155940,
 0.00930592,0.00567818,-0.00470873,-0.13146719,0.15114375,0.41878642,0.
 03548423,-0.05248295,0.06775753,0.04911312,0.02265014,-0.03054000,-0.0
 0816451,0.00207608,0.00038029,-0.00737308,-0.00051220,-0.00158990,-0.0
 4759932,0.04056838,-0.05586785,-0.02503772,-0.03453981,0.01897621,-0.0
 0047030,-0.00504681,0.02826968,0.01421120,0.00444242,-0.00239558,-0.02
 880617,0.01533696,-0.00841889,0.04092812,0.00708095,-0.02685874,0.0196
 8727,0.01135956,0.00464113,0.00433744,0.00397546,0.00046499,0.00877414
 ,-0.00000111,-0.00470919,-0.00087649,-0.01617898,-0.03650567,-0.006094
 45,-0.02269925,-0.00617661,0.01454689,0.01065185,0.00452434,-0.0134010
 8,0.00069620,0.00321248,0.00252303,0.00824996,-0.00043122,-0.00587072,
 0.00286316,0.05228983,-0.01204174,0.02229978,-0.04274737,-0.01611579,0
 .00030604,0.00052402,-0.00243334,-0.00123557,-0.00788560,-0.00278020,0
 .01075303,0.00012450,0.01609703,-0.01299375,-0.03491034,-0.00359693,0.
 00072717,0.00489600,0.01776676,0.00674195,-0.02007714,0.00093203,0.001
 74599,0.00138093,0.00742398,-0.00305086,0.01296919,0.00113761,-0.01756
 880,0.08376645,-0.08181414,-0.11135908,0.00074241,0.00054285,-0.023826
 65,-0.00427068,-0.00071417,0.00036613,0.00200673,0.00248376,-0.0037736
 2,0.00435499,0.00649500,0.00337682,-0.00890060,-0.00103027,-0.00127199
 ,0.00094146,-0.00050628,0.00087757,0.00200678,-0.00002215,-0.00009507,
 0.00035258,0.01394257,0.01024971,-0.00132580,-0.02250957,-0.00636727,-
 0.00586488,0.08290046,-0.10804975,-0.39937161,-0.05285538,-0.05436640,
 -0.03464633,-0.01603085,0.01140119,0.00490843,0.00472913,0.00073103,-0
 .00704093,0.00235526,0.02727587,-0.01762688,0.01153693,-0.00236631,0.0
 0165503,-0.00169251,-0.00392896,0.00622950,0.00070228,-0.00909081,-0.0
 0467610,0.00464455,0.00176094,-0.03679824,-0.03583022,0.00519318,0.008
 98734,-0.00829819,0.13161044,0.47679437,0.00771997,-0.04997370,-0.0861
 0853,-0.00168514,0.01449630,0.01010293,0.00062392,0.00279793,0.0046150
 7,0.00508603,0.00381227,-0.00150065,0.00132008,0.00372033,-0.00760471,
 -0.00014119,-0.00086764,0.00118526,0.00021464,-0.00026114,0.00124845,0
 .00102679,0.00041933,-0.00040523,-0.00904808,-0.05971162,-0.01816437,-
 0.01517860,-0.00427381,0.00170396,0.01007997,0.08984742,0.09505762,-0.
 00020211,0.00148939,-0.00181864,-0.00509512,-0.00735964,0.00181369,0.0
 0038566,0.00076314,0.00046071,0.00090070,0.00404297,-0.00015087,0.0041
 3104,-0.00380898,0.00270517,-0.00377334,-0.00025734,-0.00199593,0.0009
 7951,0.00572075,-0.00106876,-0.04486915,-0.13072241,-0.05401512,0.0000
 8163,0.00014453,0.00046385,0.00022400,0.00036947,-0.00052454,0.0002319
 3,-0.00017042,-0.00001841,0.04700524,-0.00116286,-0.00354480,0.0043424
 7,0.00375177,0.00378016,-0.00173404,0.00051478,-0.00004069,0.00109365,
 -0.00032478,-0.00166015,-0.00013317,-0.01014161,-0.02714227,-0.0072896
 9,-0.00114803,0.00472417,-0.00632036,0.00022805,-0.00150226,0.00357951
 ,-0.12147390,-0.39741138,-0.15074557,0.00030357,-0.00036019,-0.0018510
 3,-0.00054853,0.00056131,0.00057319,0.00021301,0.00158543,-0.00000567,
 0.12978854,0.42101067,0.00049310,-0.00229384,0.00367451,0.00525404,0.0
 0204526,-0.00287081,-0.00141711,0.00007306,0.00027277,0.00037564,-0.00
 183479,-0.00049194,0.00887633,0.03389852,0.01216928,-0.00092306,-0.004
 54107,-0.00218812,-0.00126612,0.00588656,-0.00306463,-0.06272690,-0.19
 068817,-0.11846539,-0.00016134,-0.00014438,-0.00106500,-0.00253050,-0.
 00178340,0.00025540,-0.00012295,0.00089157,-0.00012981,0.05414886,0.15
 849069,0.11190375\\0.00000043,0.00000127,0.00000209,0.00000081,0.00000
 103,0.00000009,-0.00000112,-0.00000065,0.00000046,0.00000165,0.0000007
 6,-0.00000119,-0.00000002,-0.00000125,-0.00000128,0.00000047,-0.000001
 33,-0.00000175,-0.00000228,-0.00000192,0.00000069,0.00000045,-0.000002
 66,-0.00000178,0.00000010,0.00000427,0.00000108,-0.00000011,0.00000067
 ,0.00000188,-0.00000192,0.00000258,0.00000245,0.00000155,-0.00000277,-
 0.00000272\\\@
 The archive entry for this job was punched.


 A SOLDIER'S LIFE IS A LIFE OF HONOR, BUT A DOG WOULD NOT LEAD IT.
 -- PRINCE RUPERT, FOUNDER OF THE HUDSON'S BAY COMPANY
 Job cpu time:       0 days  3 hours 47 minutes 43.0 seconds.
 Elapsed time:       0 days  0 hours 31 minutes 30.0 seconds.
 File lengths (MBytes):  RWF=    104 Int=      0 D2E=      0 Chk=      7 Scr=      1
 Normal termination of Gaussian 16 at Fri May 23 03:52:40 2025.
done
