 Entering Gaussian System, Link 0=g16
 Initial command:
 /apps/easybuild-2022/easybuild/software/Compiler/NVHPC/22.11-CUDA-11.7.0/Gaussian/g16c01-CUDA-11.7.0/g16/l1.exe "/tmp/Gau-167736.inp" -scrdir="/tmp/"
 Entering Link 1 = /apps/easybuild-2022/easybuild/software/Compiler/NVHPC/22.11-CUDA-11.7.0/Gaussian/g16c01-CUDA-11.7.0/g16/l1.exe PID=    167737.
  
 Copyright (c) 1988-2019, Gaussian, Inc.  All Rights Reserved.
  
 This is part of the Gaussian(R) 16 program.  It is based on
 the Gaussian(R) 09 system (copyright 2009, Gaussian, Inc.),
 the Gaussian(R) 03 system (copyright 2003, Gaussian, Inc.),
 the Gaussian(R) 98 system (copyright 1998, Gaussian, Inc.),
 the Gaussian(R) 94 system (copyright 1995, Gaussian, Inc.),
 the Gaussian 92(TM) system (copyright 1992, Gaussian, Inc.),
 the Gaussian 90(TM) system (copyright 1990, Gaussian, Inc.),
 the Gaussian 88(TM) system (copyright 1988, Gaussian, Inc.),
 the Gaussian 86(TM) system (copyright 1986, Carnegie Mellon
 University), and the Gaussian 82(TM) system (copyright 1983,
 Carnegie Mellon University). Gaussian is a federally registered
 trademark of Gaussian, Inc.
  
 This software contains proprietary and confidential information,
 including trade secrets, belonging to Gaussian, Inc.
  
 This software is provided under written license and may be
 used, copied, transmitted, or stored only in accord with that
 written license.
  
 The following legend is applicable only to US Government
 contracts under FAR:
  
                    RESTRICTED RIGHTS LEGEND
  
 Use, reproduction and disclosure by the US Government is
 subject to restrictions as set forth in subparagraphs (a)
 and (c) of the Commercial Computer Software - Restricted
 Rights clause in FAR 52.227-19.
  
 Gaussian, Inc.
 340 Quinnipiac St., Bldg. 40, Wallingford CT 06492
  
  
 ---------------------------------------------------------------
 Warning -- This program may not be used in any manner that
 competes with the business of Gaussian, Inc. or will provide
 assistance to any competitor of Gaussian, Inc.  The licensee
 of this program is prohibited from giving any competitor of
 Gaussian, Inc. access to this program.  By using this program,
 the user acknowledges that Gaussian, Inc. is engaged in the
 business of creating and licensing software in the field of
 computational chemistry and represents and warrants to the
 licensee that it is not a competitor of Gaussian, Inc. and that
 it will not use this program in any manner prohibited above.
 ---------------------------------------------------------------
  

 Cite this work as:
 Gaussian 16, Revision C.01,
 M. J. Frisch, G. W. Trucks, H. B. Schlegel, G. E. Scuseria, 
 M. A. Robb, J. R. Cheeseman, G. Scalmani, V. Barone, 
 G. A. Petersson, H. Nakatsuji, X. Li, M. Caricato, A. V. Marenich, 
 J. Bloino, B. G. Janesko, R. Gomperts, B. Mennucci, H. P. Hratchian, 
 J. V. Ortiz, A. F. Izmaylov, J. L. Sonnenberg, D. Williams-Young, 
 F. Ding, F. Lipparini, F. Egidi, J. Goings, B. Peng, A. Petrone, 
 T. Henderson, D. Ranasinghe, V. G. Zakrzewski, J. Gao, N. Rega, 
 G. Zheng, W. Liang, M. Hada, M. Ehara, K. Toyota, R. Fukuda, 
 J. Hasegawa, M. Ishida, T. Nakajima, Y. Honda, O. Kitao, H. Nakai, 
 T. Vreven, K. Throssell, J. A. Montgomery, Jr., J. E. Peralta, 
 F. Ogliaro, M. J. Bearpark, J. J. Heyd, E. N. Brothers, K. N. Kudin, 
 V. N. Staroverov, T. A. Keith, R. Kobayashi, J. Normand, 
 K. Raghavachari, A. P. Rendell, J. C. Burant, S. S. Iyengar, 
 J. Tomasi, M. Cossi, J. M. Millam, M. Klene, C. Adamo, R. Cammi, 
 J. W. Ochterski, R. L. Martin, K. Morokuma, O. Farkas, 
 J. B. Foresman, and D. J. Fox, Gaussian, Inc., Wallingford CT, 2019.
 
 ******************************************
 Gaussian 16:  ES64L-G16RevC.01  3-Jul-2019
                23-May-2025 
 ******************************************
 %mem=28GB
 %chk=2003846667223680600001_Intra_Diels_alder_R_6_7_IRC_F
 %nprocshared=8
 Will use up to    8 processors via shared memory.
 ----------------------------------------------------------------------
 #P wb97xd/6-311++G(d,p) Symm(None) scf(xqc) pop(None) geom(AllCheck,No
 KeepConstants) guess(Read) irc(RCFC,forward,MaxPoints=100,StepSize=2)
 ----------------------------------------------------------------------
 1/10=5,18=10,22=1,26=3,29=20007,38=1,39=2,42=100,44=3,172=1/1,23;
 2/12=2,15=3,29=1,40=1/2;
 3/5=4,6=6,7=1111,11=2,14=-4,25=1,30=1,71=2,74=-58,116=-2,140=1/1,2,3;
 4/5=1/1;
 5/5=2,8=3,13=1,38=6/2,8;
 8/6=4,10=90,11=11/1;
 11/6=1,8=1,9=11,15=111,16=1,31=1/1,2,10;
 10/6=1,13=1,31=1/2;
 7/10=1,25=1,30=1/1,2,3,16;
 1/18=10,22=1,26=3,39=2,42=100,44=3/23(2);
 2/15=3,29=1/2;
 99/5=20/99;
 2/15=3,29=1/2;
 3/5=4,6=6,7=1111,11=2,14=-2,25=1,30=1,71=2,74=-58,140=1/1,2,3;
 4/5=5,16=3,69=1/1;
 5/5=2,8=3,13=1,38=5/2,8;
 8/6=4,10=90,11=11/1;
 11/6=1,8=1,9=11,15=111,16=1,31=1/1,2,10;
 10/6=1,13=1,31=1/2;
 7/10=1,25=1,30=1/1,2,3,16;
 1/18=10,22=1,26=3,39=2,42=100,44=3/23(-8);
 2/15=3,29=1/2;
 99/5=20,9=1/99;
 Leave Link    1 at Fri May 23 06:33:22 2025, MaxMem=  3758096384 cpu:               0.0 elap:               0.0
 (Enter /apps/easybuild-2022/easybuild/software/Compiler/NVHPC/22.11-CUDA-11.7.0/Gaussian/g16c01-CUDA-11.7.0/g16/l101.exe)
 Structure from the checkpoint file:  "2003846667223680600001_Intra_Diels_alder_R_6_7_IRC_F.chk"
 ------------------------------
 Gaussian input prepared by ASE
 ------------------------------
 Charge =  0 Multiplicity = 1
 No Z-Matrix found in chk file; cartesian coordinates used.
  C                                                -1.337628823298     -0.293868044413      0.655849695819
  C                                                -0.379422253238      0.346909817047     -0.424283664954
  F                                                -0.730245237818     -0.062813971958     -1.638948097033
  F                                                -0.468778793557      1.680711879753     -0.374058998954
  S                                                 1.427480691430     -0.082738723911     -0.168929394563
  O                                                 1.592275302871     -1.470760615768     -0.459335591130
  O                                                 1.850555207606      0.547681003069      1.050252048994
  O                                                 2.032013990567      0.730139637393     -1.412568942609
  F                                                -0.640645260640     -0.995379293353      1.543691975295
  F                                                -2.000655867327      0.659442702101      1.294228667682
  F                                                -2.206364763277     -1.100288411630      0.065572931648
  H                                                 2.254605395129      1.631236698270     -1.144147261069
 Recover connectivity data from disk.
 ITRead=  0  0  0  0  0  0  0  0  0  0  0  0
 MicOpt= -1 -1 -1 -1 -1 -1 -1 -1 -1 -1 -1 -1
 NAtoms=     12 NQM=       12 NQMF=       0 NMMI=      0 NMMIF=      0
                NMic=       0 NMicF=      0.
                    Isotopes and Nuclear Properties:
 (Nuclear quadrupole moments (NQMom) in fm**2, nuclear magnetic moments (NMagM)
  in nuclear magnetons)

  Atom         1           2           3           4           5           6           7           8           9          10
 IAtWgt=          12          12          19          19          32          16          16          16          19          19
 AtmWgt=  12.0000000  12.0000000  18.9984032  18.9984032  31.9720718  15.9949146  15.9949146  15.9949146  18.9984032  18.9984032
 NucSpn=           0           0           1           1           0           0           0           0           1           1
 AtZEff=   3.6000000   3.6000000   6.7500000   6.7500000  13.6000000   5.6000000   5.6000000   5.6000000   6.7500000   6.7500000
 NQMom=    0.0000000   0.0000000   0.0000000   0.0000000   0.0000000   0.0000000   0.0000000   0.0000000   0.0000000   0.0000000
 NMagM=    0.0000000   0.0000000   2.6288670   2.6288670   0.0000000   0.0000000   0.0000000   0.0000000   2.6288670   2.6288670
 AtZNuc=   6.0000000   6.0000000   9.0000000   9.0000000  16.0000000   8.0000000   8.0000000   8.0000000   9.0000000   9.0000000

  Atom        11          12
 IAtWgt=          19           1
 AtmWgt=  18.9984032   1.0078250
 NucSpn=           1           1
 AtZEff=   6.7500000   1.0000000
 NQMom=    0.0000000   0.0000000
 NMagM=    2.6288670   2.7928460
 AtZNuc=   9.0000000   1.0000000
 Leave Link  101 at Fri May 23 06:33:22 2025, MaxMem=  3758096384 cpu:               0.1 elap:               0.1
 (Enter /apps/easybuild-2022/easybuild/software/Compiler/NVHPC/22.11-CUDA-11.7.0/Gaussian/g16c01-CUDA-11.7.0/g16/l123.exe)
 IRC-IRC-IRC-IRC-IRC-IRC-IRC-IRC-IRC-IRC-IRC-IRC-IRC-IRC-IRC-IRC-IRC-IRC
 ------------------------------------------------------------------------
 INPUT DATA FOR L123
 ------------------------------------------------------------------------
 GENERAL PARAMETERS:
 Rxn path following direction = Forward
 Maximum points per path      = 100
 Step size                    =   0.020 bohr
 Integration scheme           = HPC                                 
    Redo corrector integration= Yes                                 
    DWI Weight Power          =  2
    DWI will use Hessian update vectors when possible.
    Max correction cycles     =  20
 Initial Hessian              = ReadFC from chk
 Hessian evaluation           = All updating
 Hessian updating method      = Bofill                              
 ------------------------------------------------------------------------
          ******** Start new reaction path calculation ********
 RCFC Option Requested - Data Read From Chk File:
 "2003846667223680600001_Intra_Diels_alder_R_6_7_IRC_F.chk"
   Energy From Chk =  -1199.8220325

 Current Structure is TS -> form Hessian eigenvectors.
                            Diagonalizing Hessian.
 Supplied step size of   0.0200 bohr.
    Integration on MW PES will use step size of   0.0844 sqrt(amu)*bohr.
 Point Number:   0          Path Number:   1
 Calculating another point on the path.
 Point Number  1 in FORWARD path direction.
 Using LQA Reaction Path Following.
 IRC-IRC-IRC-IRC-IRC-IRC-IRC-IRC-IRC-IRC-IRC-IRC-IRC-IRC-IRC-IRC-IRC-IRC
 Leave Link  123 at Fri May 23 06:33:22 2025, MaxMem=  3758096384 cpu:               0.0 elap:               0.0
 (Enter /apps/easybuild-2022/easybuild/software/Compiler/NVHPC/22.11-CUDA-11.7.0/Gaussian/g16c01-CUDA-11.7.0/g16/l202.exe)
                          Input orientation:                          
 ---------------------------------------------------------------------
 Center     Atomic      Atomic             Coordinates (Angstroms)
 Number     Number       Type             X           Y           Z
 ---------------------------------------------------------------------
      1          6           0       -1.337634   -0.293912    0.655816
      2          6           0       -0.379300    0.347882   -0.423577
      3          9           0       -0.730860   -0.059670   -1.638781
      4          9           0       -0.467624    1.681659   -0.371229
      5         16           0        1.427388   -0.083403   -0.169407
      6          8           0        1.590571   -1.471648   -0.459730
      7          8           0        1.852050    0.546767    1.049343
      8          8           0        2.031792    0.728784   -1.413570
      9          9           0       -0.640228   -0.991691    1.546293
     10          9           0       -2.004735    0.658606    1.291226
     11          9           0       -2.202831   -1.103984    0.065340
     12          1           0        2.255866    1.629539   -1.145222
 ---------------------------------------------------------------------
                    Distance matrix (angstroms):
                    1          2          3          4          5
     1  C    0.000000
     2  C    1.579682   0.000000
     3  F    2.384999   1.329065   0.000000
     4  F    2.390527   1.337724   2.169841   0.000000
     5  S    2.893208   1.874762   2.611065   2.597546   0.000000
     6  O    3.347520   2.681862   2.961906   3.766609   1.427634
     7  O    3.322001   2.681040   3.776931   2.947354   1.436247
     8  O    4.084275   2.634110   2.881775   2.870807   1.604024
     9  F    1.328992   2.396441   3.319876   3.294463   2.836133
    10  F    1.325165   2.383095   3.274694   2.484573   3.803091
    11  F    1.324177   2.381643   2.482201   3.310793   3.778252
    12  H    4.456079   3.017866   3.466635   2.831815   2.138401
                    6          7          8          9         10
     6  O    0.000000
     7  O    2.533707   0.000000
     8  O    2.438521   2.476162   0.000000
     9  F    3.038248   2.970735   4.342870   0.000000
    10  F    4.531010   3.865981   4.859465   2.156484   0.000000
    11  F    3.847178   4.487238   4.845436   2.155820   2.156099
    12  H    3.244977   2.480237   0.966220   4.743676   5.003170
                   11         12
    11  F    0.000000
    12  H    5.368202   0.000000
 Symmetry turned off by external request.
 Stoichiometry    C2HF5O3S
 Rotational constants (GHZ):           1.5867438           0.8171352           0.7716164
 Leave Link  202 at Fri May 23 06:33:22 2025, MaxMem=  3758096384 cpu:               0.0 elap:               0.0
 (Enter /apps/easybuild-2022/easybuild/software/Compiler/NVHPC/22.11-CUDA-11.7.0/Gaussian/g16c01-CUDA-11.7.0/g16/l301.exe)
 Standard basis: 6-311++G(d,p) (5D, 7F)
 Ernie: Thresh=  0.10000D-02 Tol=  0.10000D-05 Strict=F.
   257 basis functions,   419 primitive gaussians,   268 cartesian basis functions
    49 alpha electrons       49 beta electrons
       nuclear repulsion energy       921.3479137180 Hartrees.
 IExCor= 4639 DFT=T Ex+Corr=wB97XD ExCW=0 ScaHFX=  1.000000
 ScaDFX=  1.000000  1.000000  1.000000  1.000000 ScalE2=  1.000000  1.000000
 IRadAn=      5 IRanWt=     -1 IRanGd=            0 ICorTp=0 IEmpDi=121
 HFx  wShort=  0.000000 wLong=  0.200000 cFull=  0.222036 cShort=  0.000000 cLong=  0.777964
 DFx  wShort=  0.000000 wLong=  0.200000 cFull=  0.000000 cShort=  0.000000 cLong=  1.000000
 NAtoms=   12 NActive=   12 NUniq=   12 SFac= 1.00D+00 NAtFMM=   60 NAOKFM=F Big=F
 Integral buffers will be    131072 words long.
 Raffenetti 2 integral format.
 Two-electron integral symmetry is turned off.
 R6Disp:  Grimme-D2 Dispersion energy=       -0.0054929517 Hartrees.
 Nuclear repulsion after empirical dispersion term =      921.3424207664 Hartrees.
 Leave Link  301 at Fri May 23 06:33:22 2025, MaxMem=  3758096384 cpu:               0.0 elap:               0.0
 (Enter /apps/easybuild-2022/easybuild/software/Compiler/NVHPC/22.11-CUDA-11.7.0/Gaussian/g16c01-CUDA-11.7.0/g16/l302.exe)
 NPDir=0 NMtPBC=     1 NCelOv=     1 NCel=       1 NClECP=     1 NCelD=      1
         NCelK=      1 NCelE2=     1 NClLst=     1 CellRange=     0.0.
 One-electron integrals computed using PRISM.
 NBasis=   257 RedAO= T EigKep=  5.96D-05  NBF=   257
 NBsUse=   257 1.00D-06 EigRej= -1.00D+00 NBFU=   257
 Precomputing XC quadrature grid using
 IXCGrd= 4 IRadAn=           5 IRanWt=          -1 IRanGd=           0 AccXCQ= 0.00D+00.
 Generated NRdTot=       0 NPtTot=           0 NUsed=           0 NTot=          32
 NSgBfM=   268   268   268   268   268 MxSgAt=    12 MxSgA2=    12.
 Leave Link  302 at Fri May 23 06:33:22 2025, MaxMem=  3758096384 cpu:               0.4 elap:               0.1
 (Enter /apps/easybuild-2022/easybuild/software/Compiler/NVHPC/22.11-CUDA-11.7.0/Gaussian/g16c01-CUDA-11.7.0/g16/l303.exe)
 DipDrv:  MaxL=1.
 Leave Link  303 at Fri May 23 06:33:22 2025, MaxMem=  3758096384 cpu:               0.1 elap:               0.0
 (Enter /apps/easybuild-2022/easybuild/software/Compiler/NVHPC/22.11-CUDA-11.7.0/Gaussian/g16c01-CUDA-11.7.0/g16/l401.exe)
 Initial guess from the checkpoint file:  "2003846667223680600001_Intra_Diels_alder_R_6_7_IRC_F.chk"
 B after Tr=     0.000014   -0.000052   -0.000034
         Rot=    1.000000    0.000004   -0.000007    0.000013 Ang=   0.00 deg.
 Guess basis will be translated and rotated to current coordinates.
 JPrj=2 DoOrth=T DoCkMO=T.
 Leave Link  401 at Fri May 23 06:33:22 2025, MaxMem=  3758096384 cpu:               0.2 elap:               0.1
 (Enter /apps/easybuild-2022/easybuild/software/Compiler/NVHPC/22.11-CUDA-11.7.0/Gaussian/g16c01-CUDA-11.7.0/g16/l502.exe)
 Keep R1 ints in memory in canonical form, NReq=1117474609.
 FoFCou: FMM=F IPFlag=           0 FMFlag=           0 FMFlg1=           0
         NFxFlg=           0 DoJE=F BraDBF=F KetDBF=F FulRan=T
         wScrn=  0.000000 ICntrl=       600 IOpCl=  0 I1Cent=           0 NGrid=           0
         NMat0=    1 NMatS0=  33153 NMatT0=    0 NMatD0=    1 NMtDS0=    0 NMtDT0=    0
 Symmetry not used in FoFCou.
 Two-electron integral symmetry not used.
 Closed shell SCF:
 Using DIIS extrapolation, IDIIS=  1040.
 NGot=  3758096384 LenX=  2658793876 LenY=  2658721611
 Requested convergence on RMS density matrix=1.00D-08 within  32 cycles.
 Requested convergence on MAX density matrix=1.00D-06.
 Requested convergence on             energy=1.00D-06.
 No special actions if energy rises.

 Cycle   1  Pass 1  IDiag  1:
 E= -1199.82200320371    
 DIIS: error= 2.31D-04 at cycle   1 NSaved=   1.
 NSaved= 1 IEnMin= 1 EnMin= -1199.82200320371     IErMin= 1 ErrMin= 2.31D-04
 ErrMax= 2.31D-04  0.00D+00 EMaxC= 1.00D-01 BMatC= 1.98D-05 BMatP= 1.98D-05
 IDIUse=3 WtCom= 9.98D-01 WtEn= 2.31D-03
 Coeff-Com:  0.100D+01
 Coeff-En:   0.100D+01
 Coeff:      0.100D+01
 Gap=     0.467 Goal=   None    Shift=    0.000
 RMSDP=4.16D-05 MaxDP=1.12D-03              OVMax= 1.21D-03

 Cycle   2  Pass 1  IDiag  1:
 E= -1199.82203188791     Delta-E=       -0.000028684197 Rises=F Damp=F
 DIIS: error= 5.03D-05 at cycle   2 NSaved=   2.
 NSaved= 2 IEnMin= 2 EnMin= -1199.82203188791     IErMin= 2 ErrMin= 5.03D-05
 ErrMax= 5.03D-05  0.00D+00 EMaxC= 1.00D-01 BMatC= 7.25D-07 BMatP= 1.98D-05
 IDIUse=1 WtCom= 1.00D+00 WtEn= 0.00D+00
 Coeff-Com: -0.178D+00 0.118D+01
 Coeff:     -0.178D+00 0.118D+01
 Gap=     0.467 Goal=   None    Shift=    0.000
 RMSDP=7.32D-06 MaxDP=1.56D-04 DE=-2.87D-05 OVMax= 3.51D-04

 Cycle   3  Pass 1  IDiag  1:
 E= -1199.82203327167     Delta-E=       -0.000001383758 Rises=F Damp=F
 DIIS: error= 1.10D-05 at cycle   3 NSaved=   3.
 NSaved= 3 IEnMin= 3 EnMin= -1199.82203327167     IErMin= 3 ErrMin= 1.10D-05
 ErrMax= 1.10D-05  0.00D+00 EMaxC= 1.00D-01 BMatC= 3.04D-08 BMatP= 7.25D-07
 IDIUse=1 WtCom= 1.00D+00 WtEn= 0.00D+00
 Coeff-Com: -0.239D-01 0.100D+00 0.923D+00
 Coeff:     -0.239D-01 0.100D+00 0.923D+00
 Gap=     0.467 Goal=   None    Shift=    0.000
 RMSDP=1.75D-06 MaxDP=8.27D-05 DE=-1.38D-06 OVMax= 4.81D-05

 Cycle   4  Pass 1  IDiag  1:
 E= -1199.82203328694     Delta-E=       -0.000000015266 Rises=F Damp=F
 DIIS: error= 7.03D-06 at cycle   4 NSaved=   4.
 NSaved= 4 IEnMin= 4 EnMin= -1199.82203328694     IErMin= 4 ErrMin= 7.03D-06
 ErrMax= 7.03D-06  0.00D+00 EMaxC= 1.00D-01 BMatC= 3.08D-08 BMatP= 3.04D-08
 IDIUse=1 WtCom= 1.00D+00 WtEn= 0.00D+00
 Coeff-Com:  0.526D-02-0.681D-01 0.528D+00 0.535D+00
 Coeff:      0.526D-02-0.681D-01 0.528D+00 0.535D+00
 Gap=     0.467 Goal=   None    Shift=    0.000
 RMSDP=9.06D-07 MaxDP=5.49D-05 DE=-1.53D-08 OVMax= 2.38D-05

 Cycle   5  Pass 1  IDiag  1:
 E= -1199.82203330559     Delta-E=       -0.000000018657 Rises=F Damp=F
 DIIS: error= 1.24D-06 at cycle   5 NSaved=   5.
 NSaved= 5 IEnMin= 5 EnMin= -1199.82203330559     IErMin= 5 ErrMin= 1.24D-06
 ErrMax= 1.24D-06  0.00D+00 EMaxC= 1.00D-01 BMatC= 5.79D-10 BMatP= 3.04D-08
 IDIUse=1 WtCom= 1.00D+00 WtEn= 0.00D+00
 Coeff-Com:  0.351D-02-0.330D-01 0.116D+00 0.172D+00 0.741D+00
 Coeff:      0.351D-02-0.330D-01 0.116D+00 0.172D+00 0.741D+00
 Gap=     0.467 Goal=   None    Shift=    0.000
 RMSDP=2.34D-07 MaxDP=1.44D-05 DE=-1.87D-08 OVMax= 7.35D-06

 Cycle   6  Pass 1  IDiag  1:
 E= -1199.82203330601     Delta-E=       -0.000000000418 Rises=F Damp=F
 DIIS: error= 7.73D-07 at cycle   6 NSaved=   6.
 NSaved= 6 IEnMin= 6 EnMin= -1199.82203330601     IErMin= 6 ErrMin= 7.73D-07
 ErrMax= 7.73D-07  0.00D+00 EMaxC= 1.00D-01 BMatC= 2.10D-10 BMatP= 5.79D-10
 IDIUse=1 WtCom= 1.00D+00 WtEn= 0.00D+00
 Coeff-Com:  0.141D-02-0.106D-01-0.760D-02 0.235D-01 0.418D+00 0.575D+00
 Coeff:      0.141D-02-0.106D-01-0.760D-02 0.235D-01 0.418D+00 0.575D+00
 Gap=     0.467 Goal=   None    Shift=    0.000
 RMSDP=8.84D-08 MaxDP=4.60D-06 DE=-4.18D-10 OVMax= 2.96D-06

 Cycle   7  Pass 1  IDiag  1:
 E= -1199.82203330624     Delta-E=       -0.000000000231 Rises=F Damp=F
 DIIS: error= 1.59D-07 at cycle   7 NSaved=   7.
 NSaved= 7 IEnMin= 7 EnMin= -1199.82203330624     IErMin= 7 ErrMin= 1.59D-07
 ErrMax= 1.59D-07  0.00D+00 EMaxC= 1.00D-01 BMatC= 4.01D-12 BMatP= 2.10D-10
 IDIUse=1 WtCom= 1.00D+00 WtEn= 0.00D+00
 Coeff-Com: -0.129D-03 0.175D-02-0.997D-02-0.117D-01-0.212D-01 0.762D-01
 Coeff-Com:  0.965D+00
 Coeff:     -0.129D-03 0.175D-02-0.997D-02-0.117D-01-0.212D-01 0.762D-01
 Coeff:      0.965D+00
 Gap=     0.467 Goal=   None    Shift=    0.000
 RMSDP=3.35D-08 MaxDP=1.74D-06 DE=-2.31D-10 OVMax= 1.13D-06

 Cycle   8  Pass 1  IDiag  1:
 E= -1199.82203330624     Delta-E=        0.000000000006 Rises=F Damp=F
 DIIS: error= 6.33D-08 at cycle   8 NSaved=   8.
 NSaved= 8 IEnMin= 7 EnMin= -1199.82203330624     IErMin= 8 ErrMin= 6.33D-08
 ErrMax= 6.33D-08  0.00D+00 EMaxC= 1.00D-01 BMatC= 1.78D-12 BMatP= 4.01D-12
 IDIUse=1 WtCom= 1.00D+00 WtEn= 0.00D+00
 Coeff-Com: -0.164D-03 0.165D-02-0.438D-02-0.748D-02-0.418D-01-0.318D-02
 Coeff-Com:  0.507D+00 0.548D+00
 Coeff:     -0.164D-03 0.165D-02-0.438D-02-0.748D-02-0.418D-01-0.318D-02
 Coeff:      0.507D+00 0.548D+00
 Gap=     0.467 Goal=   None    Shift=    0.000
 RMSDP=1.10D-08 MaxDP=5.24D-07 DE= 6.37D-12 OVMax= 3.43D-07

 Cycle   9  Pass 1  IDiag  1:
 E= -1199.82203330621     Delta-E=        0.000000000024 Rises=F Damp=F
 DIIS: error= 1.60D-08 at cycle   9 NSaved=   9.
 NSaved= 9 IEnMin= 7 EnMin= -1199.82203330624     IErMin= 9 ErrMin= 1.60D-08
 ErrMax= 1.60D-08  0.00D+00 EMaxC= 1.00D-01 BMatC= 1.24D-13 BMatP= 1.78D-12
 IDIUse=1 WtCom= 1.00D+00 WtEn= 0.00D+00
 Coeff-Com: -0.399D-04 0.318D-03 0.452D-04-0.795D-03-0.125D-01-0.150D-01
 Coeff-Com:  0.282D-01 0.196D+00 0.804D+00
 Coeff:     -0.399D-04 0.318D-03 0.452D-04-0.795D-03-0.125D-01-0.150D-01
 Coeff:      0.282D-01 0.196D+00 0.804D+00
 Gap=     0.467 Goal=   None    Shift=    0.000
 RMSDP=4.85D-09 MaxDP=2.48D-07 DE= 2.41D-11 OVMax= 1.73D-07

 SCF Done:  E(RwB97XD) =  -1199.82203331     A.U. after    9 cycles
            NFock=  9  Conv=0.48D-08     -V/T= 2.0020
 KE= 1.197419275114D+03 PE=-4.689338676797D+03 EE= 1.370754947611D+03
 Leave Link  502 at Fri May 23 06:33:30 2025, MaxMem=  3758096384 cpu:              40.7 elap:               7.9
 (Enter /apps/easybuild-2022/easybuild/software/Compiler/NVHPC/22.11-CUDA-11.7.0/Gaussian/g16c01-CUDA-11.7.0/g16/l508.exe)
 QCSCF skips out because SCF is already converged.
 Leave Link  508 at Fri May 23 06:33:30 2025, MaxMem=  3758096384 cpu:               0.0 elap:               0.0
 (Enter /apps/easybuild-2022/easybuild/software/Compiler/NVHPC/22.11-CUDA-11.7.0/Gaussian/g16c01-CUDA-11.7.0/g16/l801.exe)
 DoSCS=F DFT=T ScalE2(SS,OS)=  1.000000  1.000000
 Range of M.O.s used for correlation:     1   257
 NBasis=   257 NAE=    49 NBE=    49 NFC=     0 NFV=     0
 NROrb=    257 NOA=    49 NOB=    49 NVA=   208 NVB=   208

 **** Warning!!: The largest alpha MO coefficient is  0.36514289D+02

 Leave Link  801 at Fri May 23 06:33:30 2025, MaxMem=  3758096384 cpu:               0.0 elap:               0.0
 (Enter /apps/easybuild-2022/easybuild/software/Compiler/NVHPC/22.11-CUDA-11.7.0/Gaussian/g16c01-CUDA-11.7.0/g16/l1101.exe)
 Leave Link 1101 at Fri May 23 06:33:31 2025, MaxMem=  3758096384 cpu:               0.0 elap:               0.0
 (Enter /apps/easybuild-2022/easybuild/software/Compiler/NVHPC/22.11-CUDA-11.7.0/Gaussian/g16c01-CUDA-11.7.0/g16/l1102.exe)
 Symmetrizing basis deriv contribution to polar:
 IMax=3 JMax=2 DiffMx= 0.00D+00
 Leave Link 1102 at Fri May 23 06:33:31 2025, MaxMem=  3758096384 cpu:               0.0 elap:               0.0
 (Enter /apps/easybuild-2022/easybuild/software/Compiler/NVHPC/22.11-CUDA-11.7.0/Gaussian/g16c01-CUDA-11.7.0/g16/l1110.exe)
 Leave Link 1110 at Fri May 23 06:33:31 2025, MaxMem=  3758096384 cpu:               0.0 elap:               0.0
 (Enter /apps/easybuild-2022/easybuild/software/Compiler/NVHPC/22.11-CUDA-11.7.0/Gaussian/g16c01-CUDA-11.7.0/g16/l1002.exe)
 Minotr:  Closed shell wavefunction.
 Leave Link 1002 at Fri May 23 06:33:31 2025, MaxMem=  3758096384 cpu:               0.0 elap:               0.0
 (Enter /apps/easybuild-2022/easybuild/software/Compiler/NVHPC/22.11-CUDA-11.7.0/Gaussian/g16c01-CUDA-11.7.0/g16/l701.exe)
 ... and contract with generalized density number  0.
 Compute integral first derivatives.
 R6Disp: Adding Grimme-D2 dispersion energy 1st derivatives to the gradient.
 Leave Link  701 at Fri May 23 06:33:31 2025, MaxMem=  3758096384 cpu:               0.3 elap:               0.1
 (Enter /apps/easybuild-2022/easybuild/software/Compiler/NVHPC/22.11-CUDA-11.7.0/Gaussian/g16c01-CUDA-11.7.0/g16/l702.exe)
 L702 exits ... SP integral derivatives will be done elsewhere.
 Leave Link  702 at Fri May 23 06:33:31 2025, MaxMem=  3758096384 cpu:               0.0 elap:               0.0
 (Enter /apps/easybuild-2022/easybuild/software/Compiler/NVHPC/22.11-CUDA-11.7.0/Gaussian/g16c01-CUDA-11.7.0/g16/l703.exe)
 Integral derivatives from FoFJK, PRISM(SPDF).
 Compute integral first derivatives, UseDBF=F ICtDFT=           0.
 Calling FoFJK, ICntrl=      2127 FMM=F ISym2X=0 I1Cent= 0 IOpClX= 0 NMat=1 NMatS=1 NMatT=0.
 FoFJK:  IHMeth= 1 ICntrl=    2127 DoSepK=T KAlg= 0 I1Cent=           0 FoldK=F
 IRaf=         1 NMat=       1 IRICut=       1 DoRegI=T DoRafI=F ISym2E= 0 IDoP0=0 IntGTp=1.
 FoFCou: FMM=F IPFlag=           0 FMFlag=      100000 FMFlg1=         800
         NFxFlg=           0 DoJE=F BraDBF=F KetDBF=F FulRan=T
         wScrn=  0.000000 ICntrl=      2527 IOpCl=  0 I1Cent=           0 NGrid=           0
         NMat0=    1 NMatS0=      1 NMatT0=    0 NMatD0=    1 NMtDS0=    0 NMtDT0=    0
 Symmetry not used in FoFCou.
 Leave Link  703 at Fri May 23 06:33:34 2025, MaxMem=  3758096384 cpu:              28.7 elap:               3.7
 (Enter /apps/easybuild-2022/easybuild/software/Compiler/NVHPC/22.11-CUDA-11.7.0/Gaussian/g16c01-CUDA-11.7.0/g16/l716.exe)
 Dipole        =-1.01081571D-01 1.00343480D+00-3.77397085D-01
 Polarizability= 0.00000000D+00 0.00000000D+00 0.00000000D+00
                 0.00000000D+00 0.00000000D+00 0.00000000D+00
 -------------------------------------------------------------------
 Center     Atomic                   Forces (Hartrees/Bohr)
 Number     Number              X              Y              Z
 -------------------------------------------------------------------
      1        6          -0.000008669   -0.000000569    0.000007399
      2        6          -0.000002376    0.000006319    0.000000124
      3        9          -0.000003362    0.000023081    0.000007220
      4        9           0.000012089    0.000001470    0.000016806
      5       16          -0.000000316   -0.000016300   -0.000004714
      6        8          -0.000013837   -0.000004587   -0.000001481
      7        8           0.000007851   -0.000012252   -0.000008380
      8        8           0.000001446   -0.000007179   -0.000003472
      9        9          -0.000015029    0.000032860    0.000001570
     10        9          -0.000008318   -0.000017981   -0.000026180
     11        9           0.000031092    0.000001741    0.000013038
     12        1          -0.000000574   -0.000006603   -0.000001930
 -------------------------------------------------------------------
 Cartesian Forces:  Max     0.000032860 RMS     0.000012502
 Leave Link  716 at Fri May 23 06:33:34 2025, MaxMem=  3758096384 cpu:               0.0 elap:               0.0
 (Enter /apps/easybuild-2022/easybuild/software/Compiler/NVHPC/22.11-CUDA-11.7.0/Gaussian/g16c01-CUDA-11.7.0/g16/l123.exe)
 IRC-IRC-IRC-IRC-IRC-IRC-IRC-IRC-IRC-IRC-IRC-IRC-IRC-IRC-IRC-IRC-IRC-IRC
 Pt  1 Step number   1 out of a maximum of  20
 Using modified Bulirsch-Stoer corrector integration.
   Using distance weighted interpolants to fit PES.
 PreDWI: IReCr0= 2 IReCr1= 1 IReCr2= 1 IReCr3= 1
 Modified Bulirsch-Stoer Extrapolation Cycles:
    EPS =    0.000010000000000
    Cycle     1 NS=    48
      PEZero:  N= 2 I= 1 D=  2.20D-04 Err=  3.55D-04
    Cycle     2 NS=    64 Truncation Error =  0.000354909
      PEZero:  N= 3 I= 2 D=  2.20D-04 Err=  7.14D-04
      PEZero:  N= 3 I= 1 D=  4.39D-04 Err=  7.17D-04
    Cycle     3 NS=    96 Truncation Error =  0.000714301
      PEZero:  N= 4 I= 3 D=  1.10D-04 Err=  1.15D-03
      PEZero:  N= 4 I= 2 D=  3.30D-04 Err=  8.20D-04
      PEZero:  N= 4 I= 1 D=  5.49D-04 Err=  5.55D-04
    Cycle     4 NS=   128 Truncation Error =  0.000555039
      PEZero:  N= 5 I= 4 D=  1.10D-04 Err=  1.61D-03
      PEZero:  N= 5 I= 3 D=  2.20D-04 Err=  1.27D-03
      PEZero:  N= 5 I= 2 D=  4.39D-04 Err=  8.61D-04
      PEZero:  N= 5 I= 1 D=  6.59D-04 Err=  6.76D-04
    Cycle     5 NS=   192 Truncation Error =  0.000675916
      PEZero:  N= 6 I= 5 D=  5.49D-05 Err=  2.60D-03
      PEZero:  N= 6 I= 4 D=  1.65D-04 Err=  1.85D-03
      PEZero:  N= 6 I= 3 D=  2.75D-04 Err=  1.46D-03
      PEZero:  N= 6 I= 2 D=  4.94D-04 Err=  1.01D-03
      PEZero:  N= 6 I= 1 D=  7.14D-04 Err=  7.78D-04
    Cycle     6 NS=   256 Truncation Error =  0.000777928
      PEZero:  N= 7 I= 6 D=  5.49D-05 Err=  3.75D-03
      PEZero:  N= 7 I= 5 D=  1.10D-04 Err=  3.02D-03
      PEZero:  N= 7 I= 4 D=  2.20D-04 Err=  2.10D-03
      PEZero:  N= 7 I= 3 D=  3.30D-04 Err=  1.61D-03
      PEZero:  N= 7 I= 2 D=  5.49D-04 Err=  1.09D-03
      PEZero:  N= 7 I= 1 D=  7.69D-04 Err=  8.20D-04
    Cycle     7 NS=   384 Truncation Error =  0.000819674
      PEZero:  N= 8 I= 7 D=  2.75D-05 Err=  5.99D-03
      PEZero:  N= 8 I= 6 D=  8.24D-05 Err=  4.24D-03
      PEZero:  N= 8 I= 5 D=  1.37D-04 Err=  3.27D-03
      PEZero:  N= 8 I= 4 D=  2.47D-04 Err=  2.21D-03
      PEZero:  N= 8 I= 3 D=  3.57D-04 Err=  1.66D-03
      PEZero:  N= 8 I= 2 D=  5.77D-04 Err=  1.11D-03
      PEZero:  N= 8 I= 1 D=  7.97D-04 Err=  8.37D-04
    Cycle     8 NS=   512 Truncation Error =  0.000836551
      PEZero:  N= 9 I= 8 D=  2.75D-05 Err=  8.63D-03
      PEZero:  N= 9 I= 7 D=  5.49D-05 Err=  6.96D-03
      PEZero:  N= 9 I= 6 D=  1.10D-04 Err=  4.84D-03
      PEZero:  N= 9 I= 5 D=  1.65D-04 Err=  3.75D-03
      PEZero:  N= 9 I= 4 D=  2.75D-04 Err=  2.56D-03
      PEZero:  N= 9 I= 3 D=  3.85D-04 Err=  1.95D-03
      PEZero:  N= 9 I= 2 D=  6.04D-04 Err=  1.32D-03
      PEZero:  N= 9 I= 1 D=  8.24D-04 Err=  1.00D-03
    Cycle     9 NS=   768 Truncation Error =  0.001000276
      PEZero:  N=10 I= 9 D=  1.37D-05 Err=  1.00D-02
      PEZero:  N=10 I= 8 D=  4.12D-05 Err=  4.74D-03
      PEZero:  N=10 I= 7 D=  6.87D-05 Err=  1.52D-03
      PEZero:  N=10 I= 6 D=  1.24D-04 Err=  4.11D-04
      PEZero:  N=10 I= 5 D=  1.79D-04 Err=  1.11D-03
    Cycle    10 NS=  1024 Truncation Error =  0.000410504
      PEZero:  N=11 I=10 D=  1.37D-05 Err=  8.18D-04
      PEZero:  N=11 I= 9 D=  2.75D-05 Err=  8.80D-03
    Cycle    11 NS=  1536 Truncation Error =  0.000817716
 Maximum DWI energy   std dev =  0.000000013 at pt   450
 Maximum DWI gradient std dev =  0.388383333 at pt   173
 WARNING: Bulirsch-Stoer Method is not Converging
 SUMMARY OF CORRECTOR INTEGRATION:
   Predictor End Point Energy = -1199.822033
   Old End Point Energy       = -1199.822033
   Corrected End Point Energy = -1199.822033
   Predictor End-Start Dist.  =     0.084380
   Old End-Start Dist.        =     0.084380
   New End-Start Dist.        =     0.083595
   New End-Old End Dist.      =     0.010175
 CORRECTOR INTEGRATION CONVERGENCE:
   Recorrection delta-x convergence threshold:    0.010000
   Delta-x Convergence NOT Met
 IRC-IRC-IRC-IRC-IRC-IRC-IRC-IRC-IRC-IRC-IRC-IRC-IRC-IRC-IRC-IRC-IRC-IRC
 Leave Link  123 at Fri May 23 06:33:35 2025, MaxMem=  3758096384 cpu:               0.8 elap:               0.1
 (Enter /apps/easybuild-2022/easybuild/software/Compiler/NVHPC/22.11-CUDA-11.7.0/Gaussian/g16c01-CUDA-11.7.0/g16/l202.exe)
                          Input orientation:                          
 ---------------------------------------------------------------------
 Center     Atomic      Atomic             Coordinates (Angstroms)
 Number     Number       Type             X           Y           Z
 ---------------------------------------------------------------------
      1          6           0       -1.337669   -0.293635    0.655857
      2          6           0       -0.379241    0.347956   -0.423567
      3          9           0       -0.730924   -0.059526   -1.638752
      4          9           0       -0.467290    1.681747   -0.371218
      5         16           0        1.427364   -0.083700   -0.169454
      6          8           0        1.590263   -1.471969   -0.459809
      7          8           0        1.852179    0.546354    1.049300
      8          8           0        2.031900    0.728391   -1.413614
      9          9           0       -0.640415   -0.991641    1.546243
     10          9           0       -2.004461    0.659009    1.291349
     11          9           0       -2.203109   -1.103429    0.065411
     12          1           0        2.256168    1.629089   -1.145257
 ---------------------------------------------------------------------
                    Distance matrix (angstroms):
                    1          2          3          4          5
     1  C    0.000000
     2  C    1.579676   0.000000
     3  F    2.384990   1.329059   0.000000
     4  F    2.390517   1.337719   2.169833   0.000000
     5  S    2.893202   1.874759   2.611058   2.597542   0.000000
     6  O    3.347531   2.681862   2.961892   3.766602   1.427632
     7  O    3.321973   2.681032   3.776921   2.947359   1.436244
     8  O    4.084268   2.634108   2.881787   2.870789   1.604023
     9  F    1.328970   2.396431   3.319823   3.294485   2.836139
    10  F    1.325139   2.383072   3.274703   2.484555   3.803023
    11  F    1.324153   2.381619   2.482183   3.310727   3.778272
    12  H    4.456068   3.017867   3.466652   2.831807   2.138400
                    6          7          8          9         10
     6  O    0.000000
     7  O    2.533701   0.000000
     8  O    2.438518   2.476163   0.000000
     9  F    3.038237   2.970759   4.342872   0.000000
    10  F    4.530967   3.865870   4.859409   2.156441   0.000000
    11  F    3.847252   4.487224   4.845450   2.155776   2.156055
    12  H    3.244970   2.480243   0.966214   4.743690   5.003106
                   11         12
    11  F    0.000000
    12  H    5.368195   0.000000
 Symmetry turned off by external request.
 Stoichiometry    C2HF5O3S
 Rotational constants (GHZ):           1.5867637           0.8171421           0.7716216
 Leave Link  202 at Fri May 23 06:33:35 2025, MaxMem=  3758096384 cpu:               0.0 elap:               0.0
 (Enter /apps/easybuild-2022/easybuild/software/Compiler/NVHPC/22.11-CUDA-11.7.0/Gaussian/g16c01-CUDA-11.7.0/g16/l301.exe)
 Standard basis: 6-311++G(d,p) (5D, 7F)
 Ernie: Thresh=  0.10000D-02 Tol=  0.10000D-05 Strict=F.
   257 basis functions,   419 primitive gaussians,   268 cartesian basis functions
    49 alpha electrons       49 beta electrons
       nuclear repulsion energy       921.3525951639 Hartrees.
 IExCor= 4639 DFT=T Ex+Corr=wB97XD ExCW=0 ScaHFX=  1.000000
 ScaDFX=  1.000000  1.000000  1.000000  1.000000 ScalE2=  1.000000  1.000000
 IRadAn=      5 IRanWt=     -1 IRanGd=            0 ICorTp=0 IEmpDi=121
 HFx  wShort=  0.000000 wLong=  0.200000 cFull=  0.222036 cShort=  0.000000 cLong=  0.777964
 DFx  wShort=  0.000000 wLong=  0.200000 cFull=  0.000000 cShort=  0.000000 cLong=  1.000000
 NAtoms=   12 NActive=   12 NUniq=   12 SFac= 1.00D+00 NAtFMM=   60 NAOKFM=F Big=F
 Integral buffers will be    131072 words long.
 Raffenetti 2 integral format.
 Two-electron integral symmetry is turned off.
 R6Disp:  Grimme-D2 Dispersion energy=       -0.0054929380 Hartrees.
 Nuclear repulsion after empirical dispersion term =      921.3471022259 Hartrees.
 Leave Link  301 at Fri May 23 06:33:35 2025, MaxMem=  3758096384 cpu:               0.0 elap:               0.0
 (Enter /apps/easybuild-2022/easybuild/software/Compiler/NVHPC/22.11-CUDA-11.7.0/Gaussian/g16c01-CUDA-11.7.0/g16/l302.exe)
 NPDir=0 NMtPBC=     1 NCelOv=     1 NCel=       1 NClECP=     1 NCelD=      1
         NCelK=      1 NCelE2=     1 NClLst=     1 CellRange=     0.0.
 One-electron integrals computed using PRISM.
 NBasis=   257 RedAO= T EigKep=  5.96D-05  NBF=   257
 NBsUse=   257 1.00D-06 EigRej= -1.00D+00 NBFU=   257
 Precomputing XC quadrature grid using
 IXCGrd= 4 IRadAn=           5 IRanWt=          -1 IRanGd=           0 AccXCQ= 0.00D+00.
 Generated NRdTot=       0 NPtTot=           0 NUsed=           0 NTot=          32
 NSgBfM=   268   268   268   268   268 MxSgAt=    12 MxSgA2=    12.
 Leave Link  302 at Fri May 23 06:33:35 2025, MaxMem=  3758096384 cpu:               0.4 elap:               0.1
 (Enter /apps/easybuild-2022/easybuild/software/Compiler/NVHPC/22.11-CUDA-11.7.0/Gaussian/g16c01-CUDA-11.7.0/g16/l303.exe)
 DipDrv:  MaxL=1.
 Leave Link  303 at Fri May 23 06:33:35 2025, MaxMem=  3758096384 cpu:               0.0 elap:               0.0
 (Enter /apps/easybuild-2022/easybuild/software/Compiler/NVHPC/22.11-CUDA-11.7.0/Gaussian/g16c01-CUDA-11.7.0/g16/l401.exe)
 Initial guess from the checkpoint file:  "2003846667223680600001_Intra_Diels_alder_R_6_7_IRC_F.chk"
 B after Tr=     0.000002   -0.000001   -0.000001
         Rot=    1.000000   -0.000011   -0.000018    0.000109 Ang=  -0.01 deg.
 Guess basis will be translated and rotated to current coordinates.
 JPrj=2 DoOrth=T DoCkMO=T.
 Generating alternative initial guess.
 ExpMin= 3.60D-02 ExpMax= 9.34D+04 ExpMxC= 3.17D+03 IAcc=3 IRadAn=         5 AccDes= 0.00D+00
 Harris functional with IExCor= 4639 and IRadAn=       5 diagonalized for initial guess.
 HarFok:  IExCor= 4639 AccDes= 0.00D+00 IRadAn=         5 IDoV= 1 UseB2=F ITyADJ=14
 ICtDFT=  3500011 ScaDFX=  1.000000  1.000000  1.000000  1.000000
 FoFCou: FMM=F IPFlag=           0 FMFlag=      100000 FMFlg1=           0
         NFxFlg=           0 DoJE=T BraDBF=F KetDBF=T FulRan=T
         wScrn=  0.000000 ICntrl=       500 IOpCl=  0 I1Cent=   200000004 NGrid=           0
         NMat0=    1 NMatS0=      1 NMatT0=    0 NMatD0=    1 NMtDS0=    0 NMtDT0=    0
 Symmetry not used in FoFCou.
 Harris En= -1167.09945254319    
 Leave Link  401 at Fri May 23 06:33:35 2025, MaxMem=  3758096384 cpu:               2.1 elap:               0.3
 (Enter /apps/easybuild-2022/easybuild/software/Compiler/NVHPC/22.11-CUDA-11.7.0/Gaussian/g16c01-CUDA-11.7.0/g16/l502.exe)
 Keep R1 ints in memory in canonical form, NReq=1117474609.
 FoFCou: FMM=F IPFlag=           0 FMFlag=           0 FMFlg1=           0
         NFxFlg=           0 DoJE=F BraDBF=F KetDBF=F FulRan=T
         wScrn=  0.000000 ICntrl=       600 IOpCl=  0 I1Cent=           0 NGrid=           0
         NMat0=    1 NMatS0=  33153 NMatT0=    0 NMatD0=    1 NMtDS0=    0 NMtDT0=    0
 Symmetry not used in FoFCou.
 Two-electron integral symmetry not used.
 Closed shell SCF:
 Using DIIS extrapolation, IDIIS=  1040.
 NGot=  3758096384 LenX=  2658793876 LenY=  2658721611
 Requested convergence on RMS density matrix=1.00D-08 within  32 cycles.
 Requested convergence on MAX density matrix=1.00D-06.
 Requested convergence on             energy=1.00D-06.
 No special actions if energy rises.

 Cycle   1  Pass 1  IDiag  1:
 E= -1199.82203332716    
 DIIS: error= 4.06D-06 at cycle   1 NSaved=   1.
 NSaved= 1 IEnMin= 1 EnMin= -1199.82203332716     IErMin= 1 ErrMin= 4.06D-06
 ErrMax= 4.06D-06  0.00D+00 EMaxC= 1.00D-01 BMatC= 6.70D-09 BMatP= 6.70D-09
 IDIUse=1 WtCom= 1.00D+00 WtEn= 0.00D+00
 Coeff-Com:  0.100D+01
 Coeff:      0.100D+01
 Gap=     0.745 Goal=   None    Shift=    0.000
 RMSDP=7.17D-07 MaxDP=1.80D-05              OVMax= 2.07D-05

 Cycle   2  Pass 1  IDiag  1:
 E= -1199.82203333598     Delta-E=       -0.000000008825 Rises=F Damp=F
 DIIS: error= 8.60D-07 at cycle   2 NSaved=   2.
 NSaved= 2 IEnMin= 2 EnMin= -1199.82203333598     IErMin= 2 ErrMin= 8.60D-07
 ErrMax= 8.60D-07  0.00D+00 EMaxC= 1.00D-01 BMatC= 3.07D-10 BMatP= 6.70D-09
 IDIUse=1 WtCom= 1.00D+00 WtEn= 0.00D+00
 Coeff-Com: -0.967D-01 0.110D+01
 Coeff:     -0.967D-01 0.110D+01
 Gap=     0.467 Goal=   None    Shift=    0.000
 RMSDP=1.33D-07 MaxDP=5.64D-06 DE=-8.83D-09 OVMax= 5.94D-06

 Cycle   3  Pass 1  IDiag  1:
 E= -1199.82203333641     Delta-E=       -0.000000000429 Rises=F Damp=F
 DIIS: error= 5.76D-07 at cycle   3 NSaved=   3.
 NSaved= 3 IEnMin= 3 EnMin= -1199.82203333641     IErMin= 3 ErrMin= 5.76D-07
 ErrMax= 5.76D-07  0.00D+00 EMaxC= 1.00D-01 BMatC= 1.17D-10 BMatP= 3.07D-10
 IDIUse=1 WtCom= 1.00D+00 WtEn= 0.00D+00
 Coeff-Com: -0.739D-01 0.429D+00 0.645D+00
 Coeff:     -0.739D-01 0.429D+00 0.645D+00
 Gap=     0.467 Goal=   None    Shift=    0.000
 RMSDP=4.89D-08 MaxDP=2.60D-06 DE=-4.29D-10 OVMax= 1.98D-06

 Cycle   4  Pass 1  IDiag  1:
 E= -1199.82203333643     Delta-E=       -0.000000000016 Rises=F Damp=F
 DIIS: error= 2.00D-07 at cycle   4 NSaved=   4.
 NSaved= 4 IEnMin= 4 EnMin= -1199.82203333643     IErMin= 4 ErrMin= 2.00D-07
 ErrMax= 2.00D-07  0.00D+00 EMaxC= 1.00D-01 BMatC= 1.21D-11 BMatP= 1.17D-10
 IDIUse=1 WtCom= 1.00D+00 WtEn= 0.00D+00
 Coeff-Com: -0.202D-01 0.718D-01 0.259D+00 0.690D+00
 Coeff:     -0.202D-01 0.718D-01 0.259D+00 0.690D+00
 Gap=     0.467 Goal=   None    Shift=    0.000
 RMSDP=1.62D-08 MaxDP=7.63D-07 DE=-1.64D-11 OVMax= 4.47D-07

 Cycle   5  Pass 1  IDiag  1:
 E= -1199.82203333651     Delta-E=       -0.000000000080 Rises=F Damp=F
 DIIS: error= 5.39D-08 at cycle   5 NSaved=   5.
 NSaved= 5 IEnMin= 5 EnMin= -1199.82203333651     IErMin= 5 ErrMin= 5.39D-08
 ErrMax= 5.39D-08  0.00D+00 EMaxC= 1.00D-01 BMatC= 1.36D-12 BMatP= 1.21D-11
 IDIUse=1 WtCom= 1.00D+00 WtEn= 0.00D+00
 Coeff-Com:  0.238D-02-0.323D-01 0.194D-01 0.273D+00 0.737D+00
 Coeff:      0.238D-02-0.323D-01 0.194D-01 0.273D+00 0.737D+00
 Gap=     0.467 Goal=   None    Shift=    0.000
 RMSDP=8.90D-09 MaxDP=5.59D-07 DE=-8.00D-11 OVMax= 2.68D-07

 SCF Done:  E(RwB97XD) =  -1199.82203334     A.U. after    5 cycles
            NFock=  5  Conv=0.89D-08     -V/T= 2.0020
 KE= 1.197419536170D+03 PE=-4.689348215312D+03 EE= 1.370759543580D+03
 Leave Link  502 at Fri May 23 06:33:40 2025, MaxMem=  3758096384 cpu:              29.5 elap:               5.3
 (Enter /apps/easybuild-2022/easybuild/software/Compiler/NVHPC/22.11-CUDA-11.7.0/Gaussian/g16c01-CUDA-11.7.0/g16/l508.exe)
 QCSCF skips out because SCF is already converged.
 Leave Link  508 at Fri May 23 06:33:40 2025, MaxMem=  3758096384 cpu:               0.0 elap:               0.0
 (Enter /apps/easybuild-2022/easybuild/software/Compiler/NVHPC/22.11-CUDA-11.7.0/Gaussian/g16c01-CUDA-11.7.0/g16/l801.exe)
 DoSCS=F DFT=T ScalE2(SS,OS)=  1.000000  1.000000
 Range of M.O.s used for correlation:     1   257
 NBasis=   257 NAE=    49 NBE=    49 NFC=     0 NFV=     0
 NROrb=    257 NOA=    49 NOB=    49 NVA=   208 NVB=   208

 **** Warning!!: The largest alpha MO coefficient is  0.36512789D+02

 Leave Link  801 at Fri May 23 06:33:40 2025, MaxMem=  3758096384 cpu:               0.0 elap:               0.0
 (Enter /apps/easybuild-2022/easybuild/software/Compiler/NVHPC/22.11-CUDA-11.7.0/Gaussian/g16c01-CUDA-11.7.0/g16/l1101.exe)
 Leave Link 1101 at Fri May 23 06:33:40 2025, MaxMem=  3758096384 cpu:               0.0 elap:               0.0
 (Enter /apps/easybuild-2022/easybuild/software/Compiler/NVHPC/22.11-CUDA-11.7.0/Gaussian/g16c01-CUDA-11.7.0/g16/l1102.exe)
 Symmetrizing basis deriv contribution to polar:
 IMax=3 JMax=2 DiffMx= 0.00D+00
 Leave Link 1102 at Fri May 23 06:33:40 2025, MaxMem=  3758096384 cpu:               0.0 elap:               0.0
 (Enter /apps/easybuild-2022/easybuild/software/Compiler/NVHPC/22.11-CUDA-11.7.0/Gaussian/g16c01-CUDA-11.7.0/g16/l1110.exe)
 Leave Link 1110 at Fri May 23 06:33:40 2025, MaxMem=  3758096384 cpu:               0.0 elap:               0.0
 (Enter /apps/easybuild-2022/easybuild/software/Compiler/NVHPC/22.11-CUDA-11.7.0/Gaussian/g16c01-CUDA-11.7.0/g16/l1002.exe)
 Minotr:  Closed shell wavefunction.
 Leave Link 1002 at Fri May 23 06:33:41 2025, MaxMem=  3758096384 cpu:               0.0 elap:               0.0
 (Enter /apps/easybuild-2022/easybuild/software/Compiler/NVHPC/22.11-CUDA-11.7.0/Gaussian/g16c01-CUDA-11.7.0/g16/l701.exe)
 ... and contract with generalized density number  0.
 Compute integral first derivatives.
 R6Disp: Adding Grimme-D2 dispersion energy 1st derivatives to the gradient.
 Leave Link  701 at Fri May 23 06:33:41 2025, MaxMem=  3758096384 cpu:               0.3 elap:               0.1
 (Enter /apps/easybuild-2022/easybuild/software/Compiler/NVHPC/22.11-CUDA-11.7.0/Gaussian/g16c01-CUDA-11.7.0/g16/l702.exe)
 L702 exits ... SP integral derivatives will be done elsewhere.
 Leave Link  702 at Fri May 23 06:33:41 2025, MaxMem=  3758096384 cpu:               0.0 elap:               0.0
 (Enter /apps/easybuild-2022/easybuild/software/Compiler/NVHPC/22.11-CUDA-11.7.0/Gaussian/g16c01-CUDA-11.7.0/g16/l703.exe)
 Integral derivatives from FoFJK, PRISM(SPDF).
 Compute integral first derivatives, UseDBF=F ICtDFT=           0.
 Calling FoFJK, ICntrl=      2127 FMM=F ISym2X=0 I1Cent= 0 IOpClX= 0 NMat=1 NMatS=1 NMatT=0.
 FoFJK:  IHMeth= 1 ICntrl=    2127 DoSepK=T KAlg= 0 I1Cent=           0 FoldK=F
 IRaf=         1 NMat=       1 IRICut=       1 DoRegI=T DoRafI=F ISym2E= 0 IDoP0=0 IntGTp=1.
 FoFCou: FMM=F IPFlag=           0 FMFlag=      100000 FMFlg1=         800
         NFxFlg=           0 DoJE=F BraDBF=F KetDBF=F FulRan=T
         wScrn=  0.000000 ICntrl=      2527 IOpCl=  0 I1Cent=           0 NGrid=           0
         NMat0=    1 NMatS0=      1 NMatT0=    0 NMatD0=    1 NMtDS0=    0 NMtDT0=    0
 Symmetry not used in FoFCou.
 Leave Link  703 at Fri May 23 06:33:44 2025, MaxMem=  3758096384 cpu:              28.8 elap:               3.7
 (Enter /apps/easybuild-2022/easybuild/software/Compiler/NVHPC/22.11-CUDA-11.7.0/Gaussian/g16c01-CUDA-11.7.0/g16/l716.exe)
 Dipole        =-1.00915966D-01 1.00345984D+00-3.77363557D-01
 Polarizability= 0.00000000D+00 0.00000000D+00 0.00000000D+00
                 0.00000000D+00 0.00000000D+00 0.00000000D+00
 -------------------------------------------------------------------
 Center     Atomic                   Forces (Hartrees/Bohr)
 Number     Number              X              Y              Z
 -------------------------------------------------------------------
      1        6           0.000000396    0.000003180   -0.000000011
      2        6           0.000001184    0.000004691    0.000002435
      3        9          -0.000004391    0.000021152    0.000001649
      4        9           0.000012087    0.000006705    0.000016609
      5       16          -0.000001578   -0.000014981   -0.000005738
      6        8          -0.000013447   -0.000008034   -0.000002512
      7        8           0.000009138   -0.000010382   -0.000005645
      8        8           0.000000869   -0.000011950   -0.000005464
      9        9           0.000000667    0.000021695    0.000015003
     10        9          -0.000020261    0.000003181   -0.000014644
     11        9           0.000014817   -0.000013797   -0.000001407
     12        1           0.000000517   -0.000001461   -0.000000276
 -------------------------------------------------------------------
 Cartesian Forces:  Max     0.000021695 RMS     0.000010041
 Leave Link  716 at Fri May 23 06:33:44 2025, MaxMem=  3758096384 cpu:               0.0 elap:               0.0
 (Enter /apps/easybuild-2022/easybuild/software/Compiler/NVHPC/22.11-CUDA-11.7.0/Gaussian/g16c01-CUDA-11.7.0/g16/l123.exe)
 IRC-IRC-IRC-IRC-IRC-IRC-IRC-IRC-IRC-IRC-IRC-IRC-IRC-IRC-IRC-IRC-IRC-IRC
 Error in corrector energy =           0.0000000011
 Magnitude of corrector gradient =     0.0000621385
 Magnitude of analytic gradient =      0.0000602466
 Magnitude of difference =             0.0000043827
 Angle between gradients (degrees)=    3.7027
 Pt  1 Step number   2 out of a maximum of  20
 Using modified Bulirsch-Stoer corrector integration.
   Using distance weighted interpolants to fit PES.
 PreDWI: IReCr0= 2 IReCr1= 1 IReCr2= 1 IReCr3= 1
 Modified Bulirsch-Stoer Extrapolation Cycles:
    EPS =    0.000010000000000
    Cycle     1 NS=    48
      PEZero:  N= 2 I= 1 D=  2.20D-04 Err=  2.95D-04
    Cycle     2 NS=    64 Truncation Error =  0.000294578
      PEZero:  N= 3 I= 2 D=  2.20D-04 Err=  6.85D-04
      PEZero:  N= 3 I= 1 D=  4.39D-04 Err=  7.33D-04
    Cycle     3 NS=    96 Truncation Error =  0.000685261
      PEZero:  N= 4 I= 3 D=  1.10D-04 Err=  1.21D-03
      PEZero:  N= 4 I= 2 D=  3.30D-04 Err=  9.23D-04
      PEZero:  N= 4 I= 1 D=  5.49D-04 Err=  6.97D-04
    Cycle     4 NS=   128 Truncation Error =  0.000696804
      PEZero:  N= 5 I= 4 D=  1.10D-04 Err=  1.68D-03
      PEZero:  N= 5 I= 3 D=  2.20D-04 Err=  1.31D-03
      PEZero:  N= 5 I= 2 D=  4.39D-04 Err=  8.47D-04
      PEZero:  N= 5 I= 1 D=  6.59D-04 Err=  6.14D-04
    Cycle     5 NS=   192 Truncation Error =  0.000614488
      PEZero:  N= 6 I= 5 D=  5.49D-05 Err=  2.65D-03
      PEZero:  N= 6 I= 4 D=  1.65D-04 Err=  1.85D-03
      PEZero:  N= 6 I= 3 D=  2.75D-04 Err=  1.44D-03
      PEZero:  N= 6 I= 2 D=  4.94D-04 Err=  9.97D-04
      PEZero:  N= 6 I= 1 D=  7.14D-04 Err=  7.79D-04
    Cycle     6 NS=   256 Truncation Error =  0.000778842
      PEZero:  N= 7 I= 6 D=  5.49D-05 Err=  3.76D-03
      PEZero:  N= 7 I= 5 D=  1.10D-04 Err=  2.99D-03
      PEZero:  N= 7 I= 4 D=  2.20D-04 Err=  2.06D-03
      PEZero:  N= 7 I= 3 D=  3.30D-04 Err=  1.58D-03
      PEZero:  N= 7 I= 2 D=  5.49D-04 Err=  1.07D-03
      PEZero:  N= 7 I= 1 D=  7.69D-04 Err=  8.04D-04
    Cycle     7 NS=   384 Truncation Error =  0.000803656
      PEZero:  N= 8 I= 7 D=  2.75D-05 Err=  5.94D-03
      PEZero:  N= 8 I= 6 D=  8.24D-05 Err=  4.17D-03
      PEZero:  N= 8 I= 5 D=  1.37D-04 Err=  3.20D-03
      PEZero:  N= 8 I= 4 D=  2.47D-04 Err=  2.16D-03
      PEZero:  N= 8 I= 3 D=  3.57D-04 Err=  1.63D-03
      PEZero:  N= 8 I= 2 D=  5.77D-04 Err=  1.09D-03
      PEZero:  N= 8 I= 1 D=  7.97D-04 Err=  8.18D-04
    Cycle     8 NS=   512 Truncation Error =  0.000817918
      PEZero:  N= 9 I= 8 D=  2.75D-05 Err=  8.45D-03
      PEZero:  N= 9 I= 7 D=  5.49D-05 Err=  6.73D-03
      PEZero:  N= 9 I= 6 D=  1.10D-04 Err=  4.64D-03
      PEZero:  N= 9 I= 5 D=  1.65D-04 Err=  3.58D-03
      PEZero:  N= 9 I= 4 D=  2.75D-04 Err=  2.43D-03
      PEZero:  N= 9 I= 3 D=  3.85D-04 Err=  1.85D-03
      PEZero:  N= 9 I= 2 D=  6.04D-04 Err=  1.25D-03
      PEZero:  N= 9 I= 1 D=  8.24D-04 Err=  9.42D-04
    Cycle     9 NS=   768 Truncation Error =  0.000942161
      PEZero:  N=10 I= 9 D=  1.37D-05 Err=  1.04D-02
      PEZero:  N=10 I= 8 D=  4.12D-05 Err=  5.39D-03
      PEZero:  N=10 I= 7 D=  6.87D-05 Err=  2.43D-03
      PEZero:  N=10 I= 6 D=  1.24D-04 Err=  6.74D-04
      PEZero:  N=10 I= 5 D=  1.79D-04 Err=  4.00D-04
      PEZero:  N=10 I= 4 D=  2.88D-04 Err=  5.69D-04
    Cycle    10 NS=  1024 Truncation Error =  0.000400167
      PEZero:  N=11 I=10 D=  1.37D-05 Err=  6.95D-04
      PEZero:  N=11 I= 9 D=  2.75D-05 Err=  9.33D-03
    Cycle    11 NS=  1536 Truncation Error =  0.000695244
 Maximum DWI energy   std dev =  0.000000020 at pt    48
 Maximum DWI gradient std dev =  0.373979494 at pt   177
 WARNING: Bulirsch-Stoer Method is not Converging
 SUMMARY OF CORRECTOR INTEGRATION:
   Predictor End Point Energy = -1199.822033
   Old End Point Energy       = -1199.822033
   Corrected End Point Energy = -1199.822033
   Predictor End-Start Dist.  =     0.084380
   Old End-Start Dist.        =     0.083595
   New End-Start Dist.        =     0.083496
   New End-Old End Dist.      =     0.000649
 CORRECTOR INTEGRATION CONVERGENCE:
   Recorrection delta-x convergence threshold:    0.010000
   Delta-x Convergence NOT Met
 IRC-IRC-IRC-IRC-IRC-IRC-IRC-IRC-IRC-IRC-IRC-IRC-IRC-IRC-IRC-IRC-IRC-IRC
 Leave Link  123 at Fri May 23 06:33:44 2025, MaxMem=  3758096384 cpu:               0.9 elap:               0.1
 (Enter /apps/easybuild-2022/easybuild/software/Compiler/NVHPC/22.11-CUDA-11.7.0/Gaussian/g16c01-CUDA-11.7.0/g16/l202.exe)
                          Input orientation:                          
 ---------------------------------------------------------------------
 Center     Atomic      Atomic             Coordinates (Angstroms)
 Number     Number       Type             X           Y           Z
 ---------------------------------------------------------------------
      1          6           0       -1.337673   -0.293616    0.655860
      2          6           0       -0.379238    0.347959   -0.423566
      3          9           0       -0.730927   -0.059519   -1.638750
      4          9           0       -0.467270    1.681751   -0.371220
      5         16           0        1.427361   -0.083716   -0.169455
      6          8           0        1.590247   -1.471984   -0.459823
      7          8           0        1.852181    0.546322    1.049304
      8          8           0        2.031905    0.728380   -1.413608
      9          9           0       -0.640427   -0.991639    1.546240
     10          9           0       -2.004445    0.659040    1.291359
     11          9           0       -2.203133   -1.103392    0.065415
     12          1           0        2.256160    1.629080   -1.145246
 ---------------------------------------------------------------------
                    Distance matrix (angstroms):
                    1          2          3          4          5
     1  C    0.000000
     2  C    1.579676   0.000000
     3  F    2.384990   1.329058   0.000000
     4  F    2.390517   1.337719   2.169832   0.000000
     5  S    2.893202   1.874758   2.611057   2.597539   0.000000
     6  O    3.347539   2.681861   2.961887   3.766600   1.427631
     7  O    3.321966   2.681031   3.776920   2.947361   1.436244
     8  O    4.084266   2.634106   2.881790   2.870777   1.604023
     9  F    1.328971   2.396431   3.319819   3.294488   2.836138
    10  F    1.325140   2.383073   3.274708   2.484555   3.803019
    11  F    1.324155   2.381621   2.482184   3.310724   3.778279
    12  H    4.456050   3.017850   3.466642   2.831777   2.138398
                    6          7          8          9         10
     6  O    0.000000
     7  O    2.533699   0.000000
     8  O    2.438518   2.476163   0.000000
     9  F    3.038244   2.970751   4.342870   0.000000
    10  F    4.530972   3.865857   4.859400   2.156444   0.000000
    11  F    3.847268   4.487223   4.845456   2.155779   2.156057
    12  H    3.244971   2.480245   0.966213   4.743678   5.003077
                   11         12
    11  F    0.000000
    12  H    5.368184   0.000000
 Symmetry turned off by external request.
 Stoichiometry    C2HF5O3S
 Rotational constants (GHZ):           1.5867635           0.8171423           0.7716218
 Leave Link  202 at Fri May 23 06:33:44 2025, MaxMem=  3758096384 cpu:               0.0 elap:               0.0
 (Enter /apps/easybuild-2022/easybuild/software/Compiler/NVHPC/22.11-CUDA-11.7.0/Gaussian/g16c01-CUDA-11.7.0/g16/l301.exe)
 Standard basis: 6-311++G(d,p) (5D, 7F)
 Ernie: Thresh=  0.10000D-02 Tol=  0.10000D-05 Strict=F.
   257 basis functions,   419 primitive gaussians,   268 cartesian basis functions
    49 alpha electrons       49 beta electrons
       nuclear repulsion energy       921.3526596298 Hartrees.
 IExCor= 4639 DFT=T Ex+Corr=wB97XD ExCW=0 ScaHFX=  1.000000
 ScaDFX=  1.000000  1.000000  1.000000  1.000000 ScalE2=  1.000000  1.000000
 IRadAn=      5 IRanWt=     -1 IRanGd=            0 ICorTp=0 IEmpDi=121
 HFx  wShort=  0.000000 wLong=  0.200000 cFull=  0.222036 cShort=  0.000000 cLong=  0.777964
 DFx  wShort=  0.000000 wLong=  0.200000 cFull=  0.000000 cShort=  0.000000 cLong=  1.000000
 NAtoms=   12 NActive=   12 NUniq=   12 SFac= 1.00D+00 NAtFMM=   60 NAOKFM=F Big=F
 Integral buffers will be    131072 words long.
 Raffenetti 2 integral format.
 Two-electron integral symmetry is turned off.
 R6Disp:  Grimme-D2 Dispersion energy=       -0.0054929434 Hartrees.
 Nuclear repulsion after empirical dispersion term =      921.3471666864 Hartrees.
 Leave Link  301 at Fri May 23 06:33:45 2025, MaxMem=  3758096384 cpu:               0.0 elap:               0.0
 (Enter /apps/easybuild-2022/easybuild/software/Compiler/NVHPC/22.11-CUDA-11.7.0/Gaussian/g16c01-CUDA-11.7.0/g16/l302.exe)
 NPDir=0 NMtPBC=     1 NCelOv=     1 NCel=       1 NClECP=     1 NCelD=      1
         NCelK=      1 NCelE2=     1 NClLst=     1 CellRange=     0.0.
 One-electron integrals computed using PRISM.
 NBasis=   257 RedAO= T EigKep=  5.96D-05  NBF=   257
 NBsUse=   257 1.00D-06 EigRej= -1.00D+00 NBFU=   257
 Precomputing XC quadrature grid using
 IXCGrd= 4 IRadAn=           5 IRanWt=          -1 IRanGd=           0 AccXCQ= 0.00D+00.
 Generated NRdTot=       0 NPtTot=           0 NUsed=           0 NTot=          32
 NSgBfM=   268   268   268   268   268 MxSgAt=    12 MxSgA2=    12.
 Leave Link  302 at Fri May 23 06:33:45 2025, MaxMem=  3758096384 cpu:               0.4 elap:               0.1
 (Enter /apps/easybuild-2022/easybuild/software/Compiler/NVHPC/22.11-CUDA-11.7.0/Gaussian/g16c01-CUDA-11.7.0/g16/l303.exe)
 DipDrv:  MaxL=1.
 Leave Link  303 at Fri May 23 06:33:45 2025, MaxMem=  3758096384 cpu:               0.1 elap:               0.0
 (Enter /apps/easybuild-2022/easybuild/software/Compiler/NVHPC/22.11-CUDA-11.7.0/Gaussian/g16c01-CUDA-11.7.0/g16/l401.exe)
 Initial guess from the checkpoint file:  "2003846667223680600001_Intra_Diels_alder_R_6_7_IRC_F.chk"
 B after Tr=    -0.000003    0.000003    0.000002
         Rot=    1.000000   -0.000002   -0.000001    0.000007 Ang=  -0.00 deg.
 Guess basis will be translated and rotated to current coordinates.
 JPrj=2 DoOrth=T DoCkMO=T.
 Generating alternative initial guess.
 ExpMin= 3.60D-02 ExpMax= 9.34D+04 ExpMxC= 3.17D+03 IAcc=3 IRadAn=         5 AccDes= 0.00D+00
 Harris functional with IExCor= 4639 and IRadAn=       5 diagonalized for initial guess.
 HarFok:  IExCor= 4639 AccDes= 0.00D+00 IRadAn=         5 IDoV= 1 UseB2=F ITyADJ=14
 ICtDFT=  3500011 ScaDFX=  1.000000  1.000000  1.000000  1.000000
 FoFCou: FMM=F IPFlag=           0 FMFlag=      100000 FMFlg1=           0
         NFxFlg=           0 DoJE=T BraDBF=F KetDBF=T FulRan=T
         wScrn=  0.000000 ICntrl=       500 IOpCl=  0 I1Cent=   200000004 NGrid=           0
         NMat0=    1 NMatS0=      1 NMatT0=    0 NMatD0=    1 NMtDS0=    0 NMtDT0=    0
 Symmetry not used in FoFCou.
 Harris En= -1167.09945286123    
 Leave Link  401 at Fri May 23 06:33:45 2025, MaxMem=  3758096384 cpu:               2.2 elap:               0.3
 (Enter /apps/easybuild-2022/easybuild/software/Compiler/NVHPC/22.11-CUDA-11.7.0/Gaussian/g16c01-CUDA-11.7.0/g16/l502.exe)
 Keep R1 ints in memory in canonical form, NReq=1117474609.
 FoFCou: FMM=F IPFlag=           0 FMFlag=           0 FMFlg1=           0
         NFxFlg=           0 DoJE=F BraDBF=F KetDBF=F FulRan=T
         wScrn=  0.000000 ICntrl=       600 IOpCl=  0 I1Cent=           0 NGrid=           0
         NMat0=    1 NMatS0=  33153 NMatT0=    0 NMatD0=    1 NMtDS0=    0 NMtDT0=    0
 Symmetry not used in FoFCou.
 Two-electron integral symmetry not used.
 Closed shell SCF:
 Using DIIS extrapolation, IDIIS=  1040.
 NGot=  3758096384 LenX=  2658793876 LenY=  2658721611
 Requested convergence on RMS density matrix=1.00D-08 within  32 cycles.
 Requested convergence on MAX density matrix=1.00D-06.
 Requested convergence on             energy=1.00D-06.
 No special actions if energy rises.

 Cycle   1  Pass 1  IDiag  1:
 E= -1199.82203333666    
 DIIS: error= 4.96D-07 at cycle   1 NSaved=   1.
 NSaved= 1 IEnMin= 1 EnMin= -1199.82203333666     IErMin= 1 ErrMin= 4.96D-07
 ErrMax= 4.96D-07  0.00D+00 EMaxC= 1.00D-01 BMatC= 2.26D-10 BMatP= 2.26D-10
 IDIUse=1 WtCom= 1.00D+00 WtEn= 0.00D+00
 Coeff-Com:  0.100D+01
 Coeff:      0.100D+01
 Gap=     0.745 Goal=   None    Shift=    0.000
 RMSDP=1.67D-07 MaxDP=5.69D-06              OVMax= 3.42D-06

 Cycle   2  Pass 1  IDiag  1:
 E= -1199.82203333698     Delta-E=       -0.000000000328 Rises=F Damp=F
 DIIS: error= 1.38D-07 at cycle   2 NSaved=   2.
 NSaved= 2 IEnMin= 2 EnMin= -1199.82203333698     IErMin= 2 ErrMin= 1.38D-07
 ErrMax= 1.38D-07  0.00D+00 EMaxC= 1.00D-01 BMatC= 9.17D-12 BMatP= 2.26D-10
 IDIUse=1 WtCom= 1.00D+00 WtEn= 0.00D+00
 Coeff-Com: -0.132D+00 0.113D+01
 Coeff:     -0.132D+00 0.113D+01
 Gap=     0.467 Goal=   None    Shift=    0.000
 RMSDP=3.84D-08 MaxDP=1.01D-06 DE=-3.28D-10 OVMax= 1.10D-06

 Cycle   3  Pass 1  IDiag  1:
 E= -1199.82203333696     Delta-E=        0.000000000021 Rises=F Damp=F
 DIIS: error= 1.58D-07 at cycle   3 NSaved=   3.
 NSaved= 3 IEnMin= 2 EnMin= -1199.82203333698     IErMin= 2 ErrMin= 1.38D-07
 ErrMax= 1.58D-07  0.00D+00 EMaxC= 1.00D-01 BMatC= 6.48D-12 BMatP= 9.17D-12
 IDIUse=1 WtCom= 1.00D+00 WtEn= 0.00D+00
 Coeff-Com: -0.900D-01 0.588D+00 0.502D+00
 Coeff:     -0.900D-01 0.588D+00 0.502D+00
 Gap=     0.467 Goal=   None    Shift=    0.000
 RMSDP=1.69D-08 MaxDP=8.43D-07 DE= 2.09D-11 OVMax= 6.04D-07

 Cycle   4  Pass 1  IDiag  1:
 E= -1199.82203333701     Delta-E=       -0.000000000052 Rises=F Damp=F
 DIIS: error= 3.51D-08 at cycle   4 NSaved=   4.
 NSaved= 4 IEnMin= 4 EnMin= -1199.82203333701     IErMin= 4 ErrMin= 3.51D-08
 ErrMax= 3.51D-08  0.00D+00 EMaxC= 1.00D-01 BMatC= 4.21D-13 BMatP= 6.48D-12
 IDIUse=1 WtCom= 1.00D+00 WtEn= 0.00D+00
 Coeff-Com: -0.801D-02 0.591D-02 0.188D+00 0.814D+00
 Coeff:     -0.801D-02 0.591D-02 0.188D+00 0.814D+00
 Gap=     0.467 Goal=   None    Shift=    0.000
 RMSDP=5.30D-09 MaxDP=2.30D-07 DE=-5.18D-11 OVMax= 1.72D-07

 SCF Done:  E(RwB97XD) =  -1199.82203334     A.U. after    4 cycles
            NFock=  4  Conv=0.53D-08     -V/T= 2.0020
 KE= 1.197419532257D+03 PE=-4.689348324051D+03 EE= 1.370759591771D+03
 Leave Link  502 at Fri May 23 06:33:50 2025, MaxMem=  3758096384 cpu:              28.0 elap:               4.9
 (Enter /apps/easybuild-2022/easybuild/software/Compiler/NVHPC/22.11-CUDA-11.7.0/Gaussian/g16c01-CUDA-11.7.0/g16/l508.exe)
 QCSCF skips out because SCF is already converged.
 Leave Link  508 at Fri May 23 06:33:50 2025, MaxMem=  3758096384 cpu:               0.0 elap:               0.0
 (Enter /apps/easybuild-2022/easybuild/software/Compiler/NVHPC/22.11-CUDA-11.7.0/Gaussian/g16c01-CUDA-11.7.0/g16/l801.exe)
 DoSCS=F DFT=T ScalE2(SS,OS)=  1.000000  1.000000
 Range of M.O.s used for correlation:     1   257
 NBasis=   257 NAE=    49 NBE=    49 NFC=     0 NFV=     0
 NROrb=    257 NOA=    49 NOB=    49 NVA=   208 NVB=   208

 **** Warning!!: The largest alpha MO coefficient is  0.36512888D+02

 Leave Link  801 at Fri May 23 06:33:50 2025, MaxMem=  3758096384 cpu:               0.0 elap:               0.0
 (Enter /apps/easybuild-2022/easybuild/software/Compiler/NVHPC/22.11-CUDA-11.7.0/Gaussian/g16c01-CUDA-11.7.0/g16/l1101.exe)
 Leave Link 1101 at Fri May 23 06:33:50 2025, MaxMem=  3758096384 cpu:               0.0 elap:               0.0
 (Enter /apps/easybuild-2022/easybuild/software/Compiler/NVHPC/22.11-CUDA-11.7.0/Gaussian/g16c01-CUDA-11.7.0/g16/l1102.exe)
 Symmetrizing basis deriv contribution to polar:
 IMax=3 JMax=2 DiffMx= 0.00D+00
 Leave Link 1102 at Fri May 23 06:33:50 2025, MaxMem=  3758096384 cpu:               0.1 elap:               0.0
 (Enter /apps/easybuild-2022/easybuild/software/Compiler/NVHPC/22.11-CUDA-11.7.0/Gaussian/g16c01-CUDA-11.7.0/g16/l1110.exe)
 Leave Link 1110 at Fri May 23 06:33:50 2025, MaxMem=  3758096384 cpu:               0.0 elap:               0.0
 (Enter /apps/easybuild-2022/easybuild/software/Compiler/NVHPC/22.11-CUDA-11.7.0/Gaussian/g16c01-CUDA-11.7.0/g16/l1002.exe)
 Minotr:  Closed shell wavefunction.
 Leave Link 1002 at Fri May 23 06:33:50 2025, MaxMem=  3758096384 cpu:               0.0 elap:               0.0
 (Enter /apps/easybuild-2022/easybuild/software/Compiler/NVHPC/22.11-CUDA-11.7.0/Gaussian/g16c01-CUDA-11.7.0/g16/l701.exe)
 ... and contract with generalized density number  0.
 Compute integral first derivatives.
 R6Disp: Adding Grimme-D2 dispersion energy 1st derivatives to the gradient.
 Leave Link  701 at Fri May 23 06:33:50 2025, MaxMem=  3758096384 cpu:               0.3 elap:               0.1
 (Enter /apps/easybuild-2022/easybuild/software/Compiler/NVHPC/22.11-CUDA-11.7.0/Gaussian/g16c01-CUDA-11.7.0/g16/l702.exe)
 L702 exits ... SP integral derivatives will be done elsewhere.
 Leave Link  702 at Fri May 23 06:33:50 2025, MaxMem=  3758096384 cpu:               0.0 elap:               0.0
 (Enter /apps/easybuild-2022/easybuild/software/Compiler/NVHPC/22.11-CUDA-11.7.0/Gaussian/g16c01-CUDA-11.7.0/g16/l703.exe)
 Integral derivatives from FoFJK, PRISM(SPDF).
 Compute integral first derivatives, UseDBF=F ICtDFT=           0.
 Calling FoFJK, ICntrl=      2127 FMM=F ISym2X=0 I1Cent= 0 IOpClX= 0 NMat=1 NMatS=1 NMatT=0.
 FoFJK:  IHMeth= 1 ICntrl=    2127 DoSepK=T KAlg= 0 I1Cent=           0 FoldK=F
 IRaf=         1 NMat=       1 IRICut=       1 DoRegI=T DoRafI=F ISym2E= 0 IDoP0=0 IntGTp=1.
 FoFCou: FMM=F IPFlag=           0 FMFlag=      100000 FMFlg1=         800
         NFxFlg=           0 DoJE=F BraDBF=F KetDBF=F FulRan=T
         wScrn=  0.000000 ICntrl=      2527 IOpCl=  0 I1Cent=           0 NGrid=           0
         NMat0=    1 NMatS0=      1 NMatT0=    0 NMatD0=    1 NMtDS0=    0 NMtDT0=    0
 Symmetry not used in FoFCou.
 Leave Link  703 at Fri May 23 06:33:54 2025, MaxMem=  3758096384 cpu:              31.2 elap:               4.0
 (Enter /apps/easybuild-2022/easybuild/software/Compiler/NVHPC/22.11-CUDA-11.7.0/Gaussian/g16c01-CUDA-11.7.0/g16/l716.exe)
 Dipole        =-1.00918722D-01 1.00346486D+00-3.77357054D-01
 Polarizability= 0.00000000D+00 0.00000000D+00 0.00000000D+00
                 0.00000000D+00 0.00000000D+00 0.00000000D+00
 -------------------------------------------------------------------
 Center     Atomic                   Forces (Hartrees/Bohr)
 Number     Number              X              Y              Z
 -------------------------------------------------------------------
      1        6          -0.000000362    0.000002715    0.000000262
      2        6           0.000001071    0.000004565    0.000002681
      3        9          -0.000004583    0.000020917    0.000001367
      4        9           0.000011908    0.000007216    0.000016671
      5       16          -0.000001801   -0.000014759   -0.000006027
      6        8          -0.000013247   -0.000008763   -0.000002690
      7        8           0.000009311   -0.000009978   -0.000005109
      8        8           0.000000741   -0.000012428   -0.000005512
      9        9          -0.000000256    0.000022233    0.000014326
     10        9          -0.000019564    0.000001883   -0.000015203
     11        9           0.000015895   -0.000012655   -0.000000478
     12        1           0.000000887   -0.000000946   -0.000000288
 -------------------------------------------------------------------
 Cartesian Forces:  Max     0.000022233 RMS     0.000010021
 Leave Link  716 at Fri May 23 06:33:54 2025, MaxMem=  3758096384 cpu:               0.0 elap:               0.0
 (Enter /apps/easybuild-2022/easybuild/software/Compiler/NVHPC/22.11-CUDA-11.7.0/Gaussian/g16c01-CUDA-11.7.0/g16/l123.exe)
 IRC-IRC-IRC-IRC-IRC-IRC-IRC-IRC-IRC-IRC-IRC-IRC-IRC-IRC-IRC-IRC-IRC-IRC
 Error in corrector energy =           0.0000000000
 Magnitude of corrector gradient =     0.0000602144
 Magnitude of analytic gradient =      0.0000601280
 Magnitude of difference =             0.0000003805
 Angle between gradients (degrees)=    0.3529
 Pt  1 Step number   3 out of a maximum of  20
 Using modified Bulirsch-Stoer corrector integration.
   Using distance weighted interpolants to fit PES.
 PreDWI: IReCr0= 2 IReCr1= 1 IReCr2= 1 IReCr3= 1
 Modified Bulirsch-Stoer Extrapolation Cycles:
    EPS =    0.000010000000000
    Cycle     1 NS=    48
      PEZero:  N= 2 I= 1 D=  2.20D-04 Err=  3.15D-04
    Cycle     2 NS=    64 Truncation Error =  0.000314992
      PEZero:  N= 3 I= 2 D=  2.20D-04 Err=  7.05D-04
      PEZero:  N= 3 I= 1 D=  4.39D-04 Err=  7.43D-04
    Cycle     3 NS=    96 Truncation Error =  0.000705033
      PEZero:  N= 4 I= 3 D=  1.10D-04 Err=  1.20D-03
      PEZero:  N= 4 I= 2 D=  3.30D-04 Err=  8.94D-04
      PEZero:  N= 4 I= 1 D=  5.49D-04 Err=  6.50D-04
    Cycle     4 NS=   128 Truncation Error =  0.000650335
      PEZero:  N= 5 I= 4 D=  1.10D-04 Err=  1.67D-03
      PEZero:  N= 5 I= 3 D=  2.20D-04 Err=  1.30D-03
      PEZero:  N= 5 I= 2 D=  4.39D-04 Err=  8.53D-04
      PEZero:  N= 5 I= 1 D=  6.59D-04 Err=  6.37D-04
    Cycle     5 NS=   192 Truncation Error =  0.000636696
      PEZero:  N= 6 I= 5 D=  5.49D-05 Err=  2.64D-03
      PEZero:  N= 6 I= 4 D=  1.65D-04 Err=  1.86D-03
      PEZero:  N= 6 I= 3 D=  2.75D-04 Err=  1.45D-03
      PEZero:  N= 6 I= 2 D=  4.94D-04 Err=  1.00D-03
      PEZero:  N= 6 I= 1 D=  7.14D-04 Err=  7.80D-04
    Cycle     6 NS=   256 Truncation Error =  0.000779961
      PEZero:  N= 7 I= 6 D=  5.49D-05 Err=  3.76D-03
      PEZero:  N= 7 I= 5 D=  1.10D-04 Err=  3.00D-03
      PEZero:  N= 7 I= 4 D=  2.20D-04 Err=  2.07D-03
      PEZero:  N= 7 I= 3 D=  3.30D-04 Err=  1.58D-03
      PEZero:  N= 7 I= 2 D=  5.49D-04 Err=  1.07D-03
      PEZero:  N= 7 I= 1 D=  7.69D-04 Err=  8.02D-04
    Cycle     7 NS=   384 Truncation Error =  0.000802289
      PEZero:  N= 8 I= 7 D=  2.75D-05 Err=  5.94D-03
      PEZero:  N= 8 I= 6 D=  8.24D-05 Err=  4.16D-03
      PEZero:  N= 8 I= 5 D=  1.37D-04 Err=  3.19D-03
      PEZero:  N= 8 I= 4 D=  2.47D-04 Err=  2.15D-03
      PEZero:  N= 8 I= 3 D=  3.57D-04 Err=  1.62D-03
      PEZero:  N= 8 I= 2 D=  5.77D-04 Err=  1.08D-03
      PEZero:  N= 8 I= 1 D=  7.97D-04 Err=  8.11D-04
    Cycle     8 NS=   512 Truncation Error =  0.000810594
      PEZero:  N= 9 I= 8 D=  2.75D-05 Err=  8.43D-03
      PEZero:  N= 9 I= 7 D=  5.49D-05 Err=  6.71D-03
      PEZero:  N= 9 I= 6 D=  1.10D-04 Err=  4.63D-03
      PEZero:  N= 9 I= 5 D=  1.65D-04 Err=  3.57D-03
      PEZero:  N= 9 I= 4 D=  2.75D-04 Err=  2.43D-03
      PEZero:  N= 9 I= 3 D=  3.85D-04 Err=  1.85D-03
      PEZero:  N= 9 I= 2 D=  6.04D-04 Err=  1.25D-03
      PEZero:  N= 9 I= 1 D=  8.24D-04 Err=  9.43D-04
    Cycle     9 NS=   768 Truncation Error =  0.000943021
      PEZero:  N=10 I= 9 D=  1.37D-05 Err=  1.04D-02
      PEZero:  N=10 I= 8 D=  4.12D-05 Err=  5.43D-03
      PEZero:  N=10 I= 7 D=  6.87D-05 Err=  2.49D-03
      PEZero:  N=10 I= 6 D=  1.24D-04 Err=  7.28D-04
      PEZero:  N=10 I= 5 D=  1.79D-04 Err=  3.71D-04
      PEZero:  N=10 I= 4 D=  2.88D-04 Err=  5.33D-04
    Cycle    10 NS=  1024 Truncation Error =  0.000371177
      PEZero:  N=11 I=10 D=  1.37D-05 Err=  6.87D-04
      PEZero:  N=11 I= 9 D=  2.75D-05 Err=  9.37D-03
    Cycle    11 NS=  1536 Truncation Error =  0.000686864
 Maximum DWI energy   std dev =  0.000000020 at pt    48
 Maximum DWI gradient std dev =  0.372447495 at pt   177
 WARNING: Bulirsch-Stoer Method is not Converging
 SUMMARY OF CORRECTOR INTEGRATION:
   Predictor End Point Energy = -1199.822033
   Old End Point Energy       = -1199.822033
   Corrected End Point Energy = -1199.822033
   Predictor End-Start Dist.  =     0.084380
   Old End-Start Dist.        =     0.083496
   New End-Start Dist.        =     0.083489
   New End-Old End Dist.      =     0.000052
 CORRECTOR INTEGRATION CONVERGENCE:
   Recorrection delta-x convergence threshold:    0.010000
   Delta-x Convergence NOT Met
 IRC-IRC-IRC-IRC-IRC-IRC-IRC-IRC-IRC-IRC-IRC-IRC-IRC-IRC-IRC-IRC-IRC-IRC
 Leave Link  123 at Fri May 23 06:33:54 2025, MaxMem=  3758096384 cpu:               0.9 elap:               0.1
 (Enter /apps/easybuild-2022/easybuild/software/Compiler/NVHPC/22.11-CUDA-11.7.0/Gaussian/g16c01-CUDA-11.7.0/g16/l202.exe)
                          Input orientation:                          
 ---------------------------------------------------------------------
 Center     Atomic      Atomic             Coordinates (Angstroms)
 Number     Number       Type             X           Y           Z
 ---------------------------------------------------------------------
      1          6           0       -1.337673   -0.293614    0.655861
      2          6           0       -0.379238    0.347960   -0.423566
      3          9           0       -0.730928   -0.059518   -1.638750
      4          9           0       -0.467268    1.681752   -0.371219
      5         16           0        1.427360   -0.083718   -0.169456
      6          8           0        1.590246   -1.471985   -0.459823
      7          8           0        1.852181    0.546321    1.049304
      8          8           0        2.031905    0.728379   -1.413608
      9          9           0       -0.640428   -0.991640    1.546239
     10          9           0       -2.004443    0.659042    1.291360
     11          9           0       -2.203135   -1.103389    0.065415
     12          1           0        2.256162    1.629078   -1.145245
 ---------------------------------------------------------------------
                    Distance matrix (angstroms):
                    1          2          3          4          5
     1  C    0.000000
     2  C    1.579676   0.000000
     3  F    2.384990   1.329058   0.000000
     4  F    2.390517   1.337719   2.169832   0.000000
     5  S    2.893202   1.874758   2.611057   2.597539   0.000000
     6  O    3.347539   2.681862   2.961888   3.766600   1.427631
     7  O    3.321966   2.681030   3.776920   2.947361   1.436244
     8  O    4.084266   2.634106   2.881790   2.870777   1.604023
     9  F    1.328971   2.396431   3.319819   3.294488   2.836138
    10  F    1.325140   2.383073   3.274709   2.484555   3.803019
    11  F    1.324155   2.381621   2.482184   3.310724   3.778279
    12  H    4.456049   3.017850   3.466642   2.831777   2.138398
                    6          7          8          9         10
     6  O    0.000000
     7  O    2.533699   0.000000
     8  O    2.438518   2.476163   0.000000
     9  F    3.038243   2.970751   4.342870   0.000000
    10  F    4.530972   3.865856   4.859400   2.156444   0.000000
    11  F    3.847269   4.487223   4.845457   2.155779   2.156058
    12  H    3.244971   2.480244   0.966213   4.743678   5.003076
                   11         12
    11  F    0.000000
    12  H    5.368184   0.000000
 Symmetry turned off by external request.
 Stoichiometry    C2HF5O3S
 Rotational constants (GHZ):           1.5867636           0.8171423           0.7716218
 Leave Link  202 at Fri May 23 06:33:54 2025, MaxMem=  3758096384 cpu:               0.0 elap:               0.0
 (Enter /apps/easybuild-2022/easybuild/software/Compiler/NVHPC/22.11-CUDA-11.7.0/Gaussian/g16c01-CUDA-11.7.0/g16/l301.exe)
 Standard basis: 6-311++G(d,p) (5D, 7F)
 Ernie: Thresh=  0.10000D-02 Tol=  0.10000D-05 Strict=F.
   257 basis functions,   419 primitive gaussians,   268 cartesian basis functions
    49 alpha electrons       49 beta electrons
       nuclear repulsion energy       921.3526700666 Hartrees.
 IExCor= 4639 DFT=T Ex+Corr=wB97XD ExCW=0 ScaHFX=  1.000000
 ScaDFX=  1.000000  1.000000  1.000000  1.000000 ScalE2=  1.000000  1.000000
 IRadAn=      5 IRanWt=     -1 IRanGd=            0 ICorTp=0 IEmpDi=121
 HFx  wShort=  0.000000 wLong=  0.200000 cFull=  0.222036 cShort=  0.000000 cLong=  0.777964
 DFx  wShort=  0.000000 wLong=  0.200000 cFull=  0.000000 cShort=  0.000000 cLong=  1.000000
 NAtoms=   12 NActive=   12 NUniq=   12 SFac= 1.00D+00 NAtFMM=   60 NAOKFM=F Big=F
 Integral buffers will be    131072 words long.
 Raffenetti 2 integral format.
 Two-electron integral symmetry is turned off.
 R6Disp:  Grimme-D2 Dispersion energy=       -0.0054929432 Hartrees.
 Nuclear repulsion after empirical dispersion term =      921.3471771234 Hartrees.
 Leave Link  301 at Fri May 23 06:33:54 2025, MaxMem=  3758096384 cpu:               0.0 elap:               0.0
 (Enter /apps/easybuild-2022/easybuild/software/Compiler/NVHPC/22.11-CUDA-11.7.0/Gaussian/g16c01-CUDA-11.7.0/g16/l302.exe)
 NPDir=0 NMtPBC=     1 NCelOv=     1 NCel=       1 NClECP=     1 NCelD=      1
         NCelK=      1 NCelE2=     1 NClLst=     1 CellRange=     0.0.
 One-electron integrals computed using PRISM.
 NBasis=   257 RedAO= T EigKep=  5.96D-05  NBF=   257
 NBsUse=   257 1.00D-06 EigRej= -1.00D+00 NBFU=   257
 Precomputing XC quadrature grid using
 IXCGrd= 4 IRadAn=           5 IRanWt=          -1 IRanGd=           0 AccXCQ= 0.00D+00.
 Generated NRdTot=       0 NPtTot=           0 NUsed=           0 NTot=          32
 NSgBfM=   268   268   268   268   268 MxSgAt=    12 MxSgA2=    12.
 Leave Link  302 at Fri May 23 06:33:54 2025, MaxMem=  3758096384 cpu:               0.4 elap:               0.1
 (Enter /apps/easybuild-2022/easybuild/software/Compiler/NVHPC/22.11-CUDA-11.7.0/Gaussian/g16c01-CUDA-11.7.0/g16/l303.exe)
 DipDrv:  MaxL=1.
 Leave Link  303 at Fri May 23 06:33:54 2025, MaxMem=  3758096384 cpu:               0.1 elap:               0.0
 (Enter /apps/easybuild-2022/easybuild/software/Compiler/NVHPC/22.11-CUDA-11.7.0/Gaussian/g16c01-CUDA-11.7.0/g16/l401.exe)
 Initial guess from the checkpoint file:  "2003846667223680600001_Intra_Diels_alder_R_6_7_IRC_F.chk"
 B after Tr=    -0.000000    0.000000    0.000000
         Rot=    1.000000   -0.000000   -0.000000    0.000001 Ang=  -0.00 deg.
 Guess basis will be translated and rotated to current coordinates.
 JPrj=2 DoOrth=T DoCkMO=T.
 Generating alternative initial guess.
 ExpMin= 3.60D-02 ExpMax= 9.34D+04 ExpMxC= 3.17D+03 IAcc=3 IRadAn=         5 AccDes= 0.00D+00
 Harris functional with IExCor= 4639 and IRadAn=       5 diagonalized for initial guess.
 HarFok:  IExCor= 4639 AccDes= 0.00D+00 IRadAn=         5 IDoV= 1 UseB2=F ITyADJ=14
 ICtDFT=  3500011 ScaDFX=  1.000000  1.000000  1.000000  1.000000
 FoFCou: FMM=F IPFlag=           0 FMFlag=      100000 FMFlg1=           0
         NFxFlg=           0 DoJE=T BraDBF=F KetDBF=T FulRan=T
         wScrn=  0.000000 ICntrl=       500 IOpCl=  0 I1Cent=   200000004 NGrid=           0
         NMat0=    1 NMatS0=      1 NMatT0=    0 NMatD0=    1 NMtDS0=    0 NMtDT0=    0
 Symmetry not used in FoFCou.
 Harris En= -1167.09945287762    
 Leave Link  401 at Fri May 23 06:33:55 2025, MaxMem=  3758096384 cpu:               2.2 elap:               0.3
 (Enter /apps/easybuild-2022/easybuild/software/Compiler/NVHPC/22.11-CUDA-11.7.0/Gaussian/g16c01-CUDA-11.7.0/g16/l502.exe)
 Keep R1 ints in memory in canonical form, NReq=1117474609.
 FoFCou: FMM=F IPFlag=           0 FMFlag=           0 FMFlg1=           0
         NFxFlg=           0 DoJE=F BraDBF=F KetDBF=F FulRan=T
         wScrn=  0.000000 ICntrl=       600 IOpCl=  0 I1Cent=           0 NGrid=           0
         NMat0=    1 NMatS0=  33153 NMatT0=    0 NMatD0=    1 NMtDS0=    0 NMtDT0=    0
 Symmetry not used in FoFCou.
 Two-electron integral symmetry not used.
 Closed shell SCF:
 Using DIIS extrapolation, IDIIS=  1040.
 NGot=  3758096384 LenX=  2658793876 LenY=  2658721611
 Requested convergence on RMS density matrix=1.00D-08 within  32 cycles.
 Requested convergence on MAX density matrix=1.00D-06.
 Requested convergence on             energy=1.00D-06.
 No special actions if energy rises.

 Cycle   1  Pass 1  IDiag  1:
 E= -1199.82203333703    
 DIIS: error= 3.92D-08 at cycle   1 NSaved=   1.
 NSaved= 1 IEnMin= 1 EnMin= -1199.82203333703     IErMin= 1 ErrMin= 3.92D-08
 ErrMax= 3.92D-08  0.00D+00 EMaxC= 1.00D-01 BMatC= 8.92D-13 BMatP= 8.92D-13
 IDIUse=1 WtCom= 1.00D+00 WtEn= 0.00D+00
 Coeff-Com:  0.100D+01
 Coeff:      0.100D+01
 Gap=     0.745 Goal=   None    Shift=    0.000
 RMSDP=1.12D-08 MaxDP=4.62D-07              OVMax= 2.13D-07

 Cycle   2  Pass 1  IDiag  1:
 E= -1199.82203333702     Delta-E=        0.000000000010 Rises=F Damp=F
[...]
 SUMMARY OF CORRECTOR INTEGRATION:
   Predictor End Point Energy = -1199.822033
   Old End Point Energy       = -1199.822033
   Corrected End Point Energy = -1199.822033
   Predictor End-Start Dist.  =     0.084380
   Old End-Start Dist.        =     0.083488
   New End-Start Dist.        =     0.083487
   New End-Old End Dist.      =     0.000023
 CORRECTOR INTEGRATION CONVERGENCE:
   Recorrection delta-x convergence threshold:    0.010000
   Delta-x Convergence NOT Met
 IRC-IRC-IRC-IRC-IRC-IRC-IRC-IRC-IRC-IRC-IRC-IRC-IRC-IRC-IRC-IRC-IRC-IRC
 Leave Link  123 at Fri May 23 06:36:12 2025, MaxMem=  3758096384 cpu:               0.9 elap:               0.1
 (Enter /apps/easybuild-2022/easybuild/software/Compiler/NVHPC/22.11-CUDA-11.7.0/Gaussian/g16c01-CUDA-11.7.0/g16/l202.exe)
                          Input orientation:                          
 ---------------------------------------------------------------------
 Center     Atomic      Atomic             Coordinates (Angstroms)
 Number     Number       Type             X           Y           Z
 ---------------------------------------------------------------------
      1          6           0       -1.337673   -0.293614    0.655861
      2          6           0       -0.379238    0.347960   -0.423566
      3          9           0       -0.730928   -0.059518   -1.638750
      4          9           0       -0.467268    1.681752   -0.371219
      5         16           0        1.427360   -0.083718   -0.169456
      6          8           0        1.590245   -1.471985   -0.459824
      7          8           0        1.852181    0.546319    1.049305
      8          8           0        2.031905    0.728379   -1.413608
      9          9           0       -0.640428   -0.991640    1.546239
     10          9           0       -2.004443    0.659042    1.291361
     11          9           0       -2.203136   -1.103389    0.065415
     12          1           0        2.256163    1.629078   -1.145245
 ---------------------------------------------------------------------
                    Distance matrix (angstroms):
                    1          2          3          4          5
     1  C    0.000000
     2  C    1.579676   0.000000
     3  F    2.384990   1.329058   0.000000
     4  F    2.390517   1.337718   2.169832   0.000000
     5  S    2.893202   1.874758   2.611057   2.597539   0.000000
     6  O    3.347539   2.681861   2.961887   3.766599   1.427631
     7  O    3.321966   2.681031   3.776920   2.947362   1.436244
     8  O    4.084266   2.634106   2.881790   2.870777   1.604023
     9  F    1.328971   2.396431   3.319819   3.294489   2.836138
    10  F    1.325140   2.383073   3.274709   2.484555   3.803019
    11  F    1.324155   2.381621   2.482184   3.310724   3.778279
    12  H    4.456051   3.017851   3.466643   2.831779   2.138398
                    6          7          8          9         10
     6  O    0.000000
     7  O    2.533699   0.000000
     8  O    2.438518   2.476163   0.000000
     9  F    3.038243   2.970751   4.342870   0.000000
    10  F    4.530972   3.865857   4.859400   2.156444   0.000000
    11  F    3.847269   4.487223   4.845457   2.155779   2.156058
    12  H    3.244971   2.480245   0.966213   4.743678   5.003077
                   11         12
    11  F    0.000000
    12  H    5.368186   0.000000
 Symmetry turned off by external request.
 Stoichiometry    C2HF5O3S
 Rotational constants (GHZ):           1.5867636           0.8171423           0.7716218
 Leave Link  202 at Fri May 23 06:36:12 2025, MaxMem=  3758096384 cpu:               0.0 elap:               0.0
 (Enter /apps/easybuild-2022/easybuild/software/Compiler/NVHPC/22.11-CUDA-11.7.0/Gaussian/g16c01-CUDA-11.7.0/g16/l301.exe)
 Standard basis: 6-311++G(d,p) (5D, 7F)
 Ernie: Thresh=  0.10000D-02 Tol=  0.10000D-05 Strict=F.
   257 basis functions,   419 primitive gaussians,   268 cartesian basis functions
    49 alpha electrons       49 beta electrons
       nuclear repulsion energy       921.3526639403 Hartrees.
 IExCor= 4639 DFT=T Ex+Corr=wB97XD ExCW=0 ScaHFX=  1.000000
 ScaDFX=  1.000000  1.000000  1.000000  1.000000 ScalE2=  1.000000  1.000000
 IRadAn=      5 IRanWt=     -1 IRanGd=            0 ICorTp=0 IEmpDi=121
 HFx  wShort=  0.000000 wLong=  0.200000 cFull=  0.222036 cShort=  0.000000 cLong=  0.777964
 DFx  wShort=  0.000000 wLong=  0.200000 cFull=  0.000000 cShort=  0.000000 cLong=  1.000000
 NAtoms=   12 NActive=   12 NUniq=   12 SFac= 1.00D+00 NAtFMM=   60 NAOKFM=F Big=F
 Integral buffers will be    131072 words long.
 Raffenetti 2 integral format.
 Two-electron integral symmetry is turned off.
 R6Disp:  Grimme-D2 Dispersion energy=       -0.0054929428 Hartrees.
 Nuclear repulsion after empirical dispersion term =      921.3471709975 Hartrees.
 Leave Link  301 at Fri May 23 06:36:12 2025, MaxMem=  3758096384 cpu:               0.0 elap:               0.0
 (Enter /apps/easybuild-2022/easybuild/software/Compiler/NVHPC/22.11-CUDA-11.7.0/Gaussian/g16c01-CUDA-11.7.0/g16/l302.exe)
 NPDir=0 NMtPBC=     1 NCelOv=     1 NCel=       1 NClECP=     1 NCelD=      1
         NCelK=      1 NCelE2=     1 NClLst=     1 CellRange=     0.0.
 One-electron integrals computed using PRISM.
 NBasis=   257 RedAO= T EigKep=  5.96D-05  NBF=   257
 NBsUse=   257 1.00D-06 EigRej= -1.00D+00 NBFU=   257
 Precomputing XC quadrature grid using
 IXCGrd= 4 IRadAn=           5 IRanWt=          -1 IRanGd=           0 AccXCQ= 0.00D+00.
 Generated NRdTot=       0 NPtTot=           0 NUsed=           0 NTot=          32
 NSgBfM=   268   268   268   268   268 MxSgAt=    12 MxSgA2=    12.
 Leave Link  302 at Fri May 23 06:36:12 2025, MaxMem=  3758096384 cpu:               0.4 elap:               0.1
 (Enter /apps/easybuild-2022/easybuild/software/Compiler/NVHPC/22.11-CUDA-11.7.0/Gaussian/g16c01-CUDA-11.7.0/g16/l303.exe)
 DipDrv:  MaxL=1.
 Leave Link  303 at Fri May 23 06:36:12 2025, MaxMem=  3758096384 cpu:               0.1 elap:               0.0
 (Enter /apps/easybuild-2022/easybuild/software/Compiler/NVHPC/22.11-CUDA-11.7.0/Gaussian/g16c01-CUDA-11.7.0/g16/l401.exe)
 Initial guess from the checkpoint file:  "2003846667223680600001_Intra_Diels_alder_R_6_7_IRC_F.chk"
 B after Tr=     0.000000   -0.000000    0.000000
         Rot=    1.000000   -0.000000   -0.000000    0.000000 Ang=  -0.00 deg.
 Guess basis will be translated and rotated to current coordinates.
 JPrj=2 DoOrth=T DoCkMO=T.
 Generating alternative initial guess.
 ExpMin= 3.60D-02 ExpMax= 9.34D+04 ExpMxC= 3.17D+03 IAcc=3 IRadAn=         5 AccDes= 0.00D+00
 Harris functional with IExCor= 4639 and IRadAn=       5 diagonalized for initial guess.
 HarFok:  IExCor= 4639 AccDes= 0.00D+00 IRadAn=         5 IDoV= 1 UseB2=F ITyADJ=14
 ICtDFT=  3500011 ScaDFX=  1.000000  1.000000  1.000000  1.000000
 FoFCou: FMM=F IPFlag=           0 FMFlag=      100000 FMFlg1=           0
         NFxFlg=           0 DoJE=T BraDBF=F KetDBF=T FulRan=T
         wScrn=  0.000000 ICntrl=       500 IOpCl=  0 I1Cent=   200000004 NGrid=           0
         NMat0=    1 NMatS0=      1 NMatT0=    0 NMatD0=    1 NMtDS0=    0 NMtDT0=    0
 Symmetry not used in FoFCou.
 Harris En= -1167.09945289689    
 Leave Link  401 at Fri May 23 06:36:13 2025, MaxMem=  3758096384 cpu:               2.0 elap:               0.3
 (Enter /apps/easybuild-2022/easybuild/software/Compiler/NVHPC/22.11-CUDA-11.7.0/Gaussian/g16c01-CUDA-11.7.0/g16/l502.exe)
 Keep R1 ints in memory in canonical form, NReq=1117474609.
 FoFCou: FMM=F IPFlag=           0 FMFlag=           0 FMFlg1=           0
         NFxFlg=           0 DoJE=F BraDBF=F KetDBF=F FulRan=T
         wScrn=  0.000000 ICntrl=       600 IOpCl=  0 I1Cent=           0 NGrid=           0
         NMat0=    1 NMatS0=  33153 NMatT0=    0 NMatD0=    1 NMtDS0=    0 NMtDT0=    0
 Symmetry not used in FoFCou.
 Two-electron integral symmetry not used.
 Closed shell SCF:
 Using DIIS extrapolation, IDIIS=  1040.
 NGot=  3758096384 LenX=  2658793876 LenY=  2658721611
 Requested convergence on RMS density matrix=1.00D-08 within  32 cycles.
 Requested convergence on MAX density matrix=1.00D-06.
 Requested convergence on             energy=1.00D-06.
 No special actions if energy rises.

 Cycle   1  Pass 1  IDiag  1:
 E= -1199.82203333707    
 DIIS: error= 9.46D-08 at cycle   1 NSaved=   1.
 NSaved= 1 IEnMin= 1 EnMin= -1199.82203333707     IErMin= 1 ErrMin= 9.46D-08
 ErrMax= 9.46D-08  0.00D+00 EMaxC= 1.00D-01 BMatC= 5.99D-12 BMatP= 5.99D-12
 IDIUse=1 WtCom= 1.00D+00 WtEn= 0.00D+00
 Coeff-Com:  0.100D+01
 Coeff:      0.100D+01
 Gap=     0.745 Goal=   None    Shift=    0.000
 RMSDP=4.08D-08 MaxDP=1.45D-06              OVMax= 8.10D-07

 Cycle   2  Pass 1  IDiag  1:
 E= -1199.82203333708     Delta-E=       -0.000000000015 Rises=F Damp=F
 DIIS: error= 1.16D-07 at cycle   2 NSaved=   2.
 NSaved= 2 IEnMin= 2 EnMin= -1199.82203333708     IErMin= 1 ErrMin= 9.46D-08
 ErrMax= 1.16D-07  0.00D+00 EMaxC= 1.00D-01 BMatC= 3.73D-12 BMatP= 5.99D-12
 IDIUse=1 WtCom= 1.00D+00 WtEn= 0.00D+00
 Coeff-Com:  0.412D+00 0.588D+00
 Coeff:      0.412D+00 0.588D+00
 Gap=     0.467 Goal=   None    Shift=    0.000
 RMSDP=1.48D-08 MaxDP=6.78D-07 DE=-1.50D-11 OVMax= 5.90D-07

 Cycle   3  Pass 1  IDiag  1:
 E= -1199.82203333708     Delta-E=       -0.000000000000 Rises=F Damp=F
 DIIS: error= 6.23D-08 at cycle   3 NSaved=   3.
 NSaved= 3 IEnMin= 3 EnMin= -1199.82203333708     IErMin= 3 ErrMin= 6.23D-08
 ErrMax= 6.23D-08  0.00D+00 EMaxC= 1.00D-01 BMatC= 1.01D-12 BMatP= 3.73D-12
 IDIUse=1 WtCom= 1.00D+00 WtEn= 0.00D+00
 Coeff-Com: -0.975D-01 0.334D+00 0.764D+00
 Coeff:     -0.975D-01 0.334D+00 0.764D+00
 Gap=     0.467 Goal=   None    Shift=    0.000
 RMSDP=8.02D-09 MaxDP=3.80D-07 DE=-4.55D-13 OVMax= 2.40D-07

 SCF Done:  E(RwB97XD) =  -1199.82203334     A.U. after    3 cycles
            NFock=  3  Conv=0.80D-08     -V/T= 2.0020
 KE= 1.197419531877D+03 PE=-4.689348332312D+03 EE= 1.370759596101D+03
 Leave Link  502 at Fri May 23 06:36:17 2025, MaxMem=  3758096384 cpu:              24.8 elap:               4.1
 (Enter /apps/easybuild-2022/easybuild/software/Compiler/NVHPC/22.11-CUDA-11.7.0/Gaussian/g16c01-CUDA-11.7.0/g16/l508.exe)
 QCSCF skips out because SCF is already converged.
 Leave Link  508 at Fri May 23 06:36:17 2025, MaxMem=  3758096384 cpu:               0.0 elap:               0.0
 (Enter /apps/easybuild-2022/easybuild/software/Compiler/NVHPC/22.11-CUDA-11.7.0/Gaussian/g16c01-CUDA-11.7.0/g16/l801.exe)
 DoSCS=F DFT=T ScalE2(SS,OS)=  1.000000  1.000000
 Range of M.O.s used for correlation:     1   257
 NBasis=   257 NAE=    49 NBE=    49 NFC=     0 NFV=     0
 NROrb=    257 NOA=    49 NOB=    49 NVA=   208 NVB=   208

 **** Warning!!: The largest alpha MO coefficient is  0.36512883D+02

 Leave Link  801 at Fri May 23 06:36:17 2025, MaxMem=  3758096384 cpu:               0.0 elap:               0.0
 (Enter /apps/easybuild-2022/easybuild/software/Compiler/NVHPC/22.11-CUDA-11.7.0/Gaussian/g16c01-CUDA-11.7.0/g16/l1101.exe)
 Leave Link 1101 at Fri May 23 06:36:17 2025, MaxMem=  3758096384 cpu:               0.0 elap:               0.0
 (Enter /apps/easybuild-2022/easybuild/software/Compiler/NVHPC/22.11-CUDA-11.7.0/Gaussian/g16c01-CUDA-11.7.0/g16/l1102.exe)
 Symmetrizing basis deriv contribution to polar:
 IMax=3 JMax=2 DiffMx= 0.00D+00
 Leave Link 1102 at Fri May 23 06:36:17 2025, MaxMem=  3758096384 cpu:               0.1 elap:               0.0
 (Enter /apps/easybuild-2022/easybuild/software/Compiler/NVHPC/22.11-CUDA-11.7.0/Gaussian/g16c01-CUDA-11.7.0/g16/l1110.exe)
 Leave Link 1110 at Fri May 23 06:36:17 2025, MaxMem=  3758096384 cpu:               0.0 elap:               0.0
 (Enter /apps/easybuild-2022/easybuild/software/Compiler/NVHPC/22.11-CUDA-11.7.0/Gaussian/g16c01-CUDA-11.7.0/g16/l1002.exe)
 Minotr:  Closed shell wavefunction.
 Leave Link 1002 at Fri May 23 06:36:17 2025, MaxMem=  3758096384 cpu:               0.0 elap:               0.0
 (Enter /apps/easybuild-2022/easybuild/software/Compiler/NVHPC/22.11-CUDA-11.7.0/Gaussian/g16c01-CUDA-11.7.0/g16/l701.exe)
 ... and contract with generalized density number  0.
 Compute integral first derivatives.
 R6Disp: Adding Grimme-D2 dispersion energy 1st derivatives to the gradient.
 Leave Link  701 at Fri May 23 06:36:17 2025, MaxMem=  3758096384 cpu:               0.3 elap:               0.1
 (Enter /apps/easybuild-2022/easybuild/software/Compiler/NVHPC/22.11-CUDA-11.7.0/Gaussian/g16c01-CUDA-11.7.0/g16/l702.exe)
 L702 exits ... SP integral derivatives will be done elsewhere.
 Leave Link  702 at Fri May 23 06:36:17 2025, MaxMem=  3758096384 cpu:               0.0 elap:               0.0
 (Enter /apps/easybuild-2022/easybuild/software/Compiler/NVHPC/22.11-CUDA-11.7.0/Gaussian/g16c01-CUDA-11.7.0/g16/l703.exe)
 Integral derivatives from FoFJK, PRISM(SPDF).
 Compute integral first derivatives, UseDBF=F ICtDFT=           0.
 Calling FoFJK, ICntrl=      2127 FMM=F ISym2X=0 I1Cent= 0 IOpClX= 0 NMat=1 NMatS=1 NMatT=0.
 FoFJK:  IHMeth= 1 ICntrl=    2127 DoSepK=T KAlg= 0 I1Cent=           0 FoldK=F
 IRaf=         1 NMat=       1 IRICut=       1 DoRegI=T DoRafI=F ISym2E= 0 IDoP0=0 IntGTp=1.
 FoFCou: FMM=F IPFlag=           0 FMFlag=      100000 FMFlg1=         800
         NFxFlg=           0 DoJE=F BraDBF=F KetDBF=F FulRan=T
         wScrn=  0.000000 ICntrl=      2527 IOpCl=  0 I1Cent=           0 NGrid=           0
         NMat0=    1 NMatS0=      1 NMatT0=    0 NMatD0=    1 NMtDS0=    0 NMtDT0=    0
 Symmetry not used in FoFCou.
 Leave Link  703 at Fri May 23 06:36:21 2025, MaxMem=  3758096384 cpu:              31.0 elap:               4.0
 (Enter /apps/easybuild-2022/easybuild/software/Compiler/NVHPC/22.11-CUDA-11.7.0/Gaussian/g16c01-CUDA-11.7.0/g16/l716.exe)
 Dipole        =-1.00915868D-01 1.00346545D+00-3.77356450D-01
 Polarizability= 0.00000000D+00 0.00000000D+00 0.00000000D+00
                 0.00000000D+00 0.00000000D+00 0.00000000D+00
 -------------------------------------------------------------------
 Center     Atomic                   Forces (Hartrees/Bohr)
 Number     Number              X              Y              Z
 -------------------------------------------------------------------
      1        6          -0.000000398    0.000002720    0.000000276
      2        6           0.000001024    0.000004544    0.000002682
      3        9          -0.000004588    0.000020908    0.000001369
      4        9           0.000011902    0.000007281    0.000016673
      5       16          -0.000001787   -0.000015036   -0.000006217
      6        8          -0.000013223   -0.000008705   -0.000002658
      7        8           0.000009316   -0.000009865   -0.000004993
      8        8           0.000000794   -0.000012335   -0.000005451
      9        9          -0.000000313    0.000022256    0.000014291
     10        9          -0.000019518    0.000001803   -0.000015233
     11        9           0.000015957   -0.000012585   -0.000000420
     12        1           0.000000834   -0.000000985   -0.000000319
 -------------------------------------------------------------------
 Cartesian Forces:  Max     0.000022256 RMS     0.000010024
 Leave Link  716 at Fri May 23 06:36:21 2025, MaxMem=  3758096384 cpu:               0.0 elap:               0.0
 (Enter /apps/easybuild-2022/easybuild/software/Compiler/NVHPC/22.11-CUDA-11.7.0/Gaussian/g16c01-CUDA-11.7.0/g16/l123.exe)
 IRC-IRC-IRC-IRC-IRC-IRC-IRC-IRC-IRC-IRC-IRC-IRC-IRC-IRC-IRC-IRC-IRC-IRC
 Error in corrector energy =          -0.0000000001
 Magnitude of corrector gradient =     0.0000600761
 Magnitude of analytic gradient =      0.0000601436
 Magnitude of difference =             0.0000006455
 Angle between gradients (degrees)=    0.6119
 Pt  1 Step number  20 out of a maximum of  20
 Using modified Bulirsch-Stoer corrector integration.
   Using distance weighted interpolants to fit PES.
 PreDWI: IReCr0= 2 IReCr1= 1 IReCr2= 1 IReCr3= 1
 Modified Bulirsch-Stoer Extrapolation Cycles:
    EPS =    0.000010000000000
    Cycle     1 NS=    48
      PEZero:  N= 2 I= 1 D=  2.20D-04 Err=  3.07D-04
    Cycle     2 NS=    64 Truncation Error =  0.000307246
      PEZero:  N= 3 I= 2 D=  2.20D-04 Err=  6.99D-04
      PEZero:  N= 3 I= 1 D=  4.39D-04 Err=  7.41D-04
    Cycle     3 NS=    96 Truncation Error =  0.000698596
      PEZero:  N= 4 I= 3 D=  1.10D-04 Err=  1.20D-03
      PEZero:  N= 4 I= 2 D=  3.30D-04 Err=  9.06D-04
      PEZero:  N= 4 I= 1 D=  5.49D-04 Err=  6.69D-04
    Cycle     4 NS=   128 Truncation Error =  0.000668539
      PEZero:  N= 5 I= 4 D=  1.10D-04 Err=  1.67D-03
      PEZero:  N= 5 I= 3 D=  2.20D-04 Err=  1.30D-03
      PEZero:  N= 5 I= 2 D=  4.39D-04 Err=  8.51D-04
      PEZero:  N= 5 I= 1 D=  6.59D-04 Err=  6.28D-04
    Cycle     5 NS=   192 Truncation Error =  0.000628064
      PEZero:  N= 6 I= 5 D=  5.49D-05 Err=  2.65D-03
      PEZero:  N= 6 I= 4 D=  1.65D-04 Err=  1.86D-03
      PEZero:  N= 6 I= 3 D=  2.75D-04 Err=  1.45D-03
      PEZero:  N= 6 I= 2 D=  4.94D-04 Err=  1.00D-03
      PEZero:  N= 6 I= 1 D=  7.14D-04 Err=  7.80D-04
    Cycle     6 NS=   256 Truncation Error =  0.000779794
      PEZero:  N= 7 I= 6 D=  5.49D-05 Err=  3.76D-03
      PEZero:  N= 7 I= 5 D=  1.10D-04 Err=  2.99D-03
      PEZero:  N= 7 I= 4 D=  2.20D-04 Err=  2.06D-03
      PEZero:  N= 7 I= 3 D=  3.30D-04 Err=  1.58D-03
      PEZero:  N= 7 I= 2 D=  5.49D-04 Err=  1.07D-03
      PEZero:  N= 7 I= 1 D=  7.69D-04 Err=  8.02D-04
    Cycle     7 NS=   384 Truncation Error =  0.000802114
      PEZero:  N= 8 I= 7 D=  2.75D-05 Err=  5.94D-03
      PEZero:  N= 8 I= 6 D=  8.24D-05 Err=  4.16D-03
      PEZero:  N= 8 I= 5 D=  1.37D-04 Err=  3.19D-03
      PEZero:  N= 8 I= 4 D=  2.47D-04 Err=  2.15D-03
      PEZero:  N= 8 I= 3 D=  3.57D-04 Err=  1.62D-03
      PEZero:  N= 8 I= 2 D=  5.77D-04 Err=  1.08D-03
      PEZero:  N= 8 I= 1 D=  7.97D-04 Err=  8.12D-04
    Cycle     8 NS=   512 Truncation Error =  0.000811906
      PEZero:  N= 9 I= 8 D=  2.75D-05 Err=  8.43D-03
      PEZero:  N= 9 I= 7 D=  5.49D-05 Err=  6.71D-03
      PEZero:  N= 9 I= 6 D=  1.10D-04 Err=  4.63D-03
      PEZero:  N= 9 I= 5 D=  1.65D-04 Err=  3.57D-03
      PEZero:  N= 9 I= 4 D=  2.75D-04 Err=  2.42D-03
      PEZero:  N= 9 I= 3 D=  3.85D-04 Err=  1.85D-03
      PEZero:  N= 9 I= 2 D=  6.04D-04 Err=  1.24D-03
      PEZero:  N= 9 I= 1 D=  8.24D-04 Err=  9.41D-04
    Cycle     9 NS=   768 Truncation Error =  0.000940707
      PEZero:  N=10 I= 9 D=  1.37D-05 Err=  1.04D-02
      PEZero:  N=10 I= 8 D=  4.12D-05 Err=  5.44D-03
      PEZero:  N=10 I= 7 D=  6.87D-05 Err=  2.51D-03
      PEZero:  N=10 I= 6 D=  1.24D-04 Err=  7.45D-04
      PEZero:  N=10 I= 5 D=  1.79D-04 Err=  3.60D-04
      PEZero:  N=10 I= 4 D=  2.88D-04 Err=  5.20D-04
    Cycle    10 NS=  1024 Truncation Error =  0.000360423
      PEZero:  N=11 I=10 D=  1.37D-05 Err=  6.85D-04
      PEZero:  N=11 I= 9 D=  2.75D-05 Err=  9.38D-03
    Cycle    11 NS=  1536 Truncation Error =  0.000685007
 Maximum DWI energy   std dev =  0.000000020 at pt    48
 Maximum DWI gradient std dev =  0.372298851 at pt   177
 WARNING: Bulirsch-Stoer Method is not Converging
 SUMMARY OF CORRECTOR INTEGRATION:
   Predictor End Point Energy = -1199.822033
   Old End Point Energy       = -1199.822033
   Corrected End Point Energy = -1199.822033
   Predictor End-Start Dist.  =     0.084380
   Old End-Start Dist.        =     0.083487
   New End-Start Dist.        =     0.083488
   New End-Old End Dist.      =     0.000025
 CORRECTOR INTEGRATION CONVERGENCE:
   Recorrection delta-x convergence threshold:    0.010000
   Delta-x Convergence NOT Met
 Maximum number of corrector steps exceded.
 Error termination via Lnk1e in /apps/easybuild-2022/easybuild/software/Compiler/NVHPC/22.11-CUDA-11.7.0/Gaussian/g16c01-CUDA-11.7.0/g16/l123.exe at Fri May 23 06:36:21 2025.
 Job cpu time:       0 days  0 hours 19 minutes 46.3 seconds.
 Elapsed time:       0 days  0 hours  2 minutes 56.8 seconds.
 File lengths (MBytes):  RWF=     31 Int=      0 D2E=      0 Chk=      8 Scr=      1
done
