 Entering Gaussian System, Link 0=g16
 Initial command:
 /apps/easybuild-2022/easybuild/software/Compiler/NVHPC/22.11-CUDA-11.7.0/Gaussian/g16c01-CUDA-11.7.0/g16/l1.exe "/tmp/Gau-34400.inp" -scrdir="/tmp/"
 Entering Link 1 = /apps/easybuild-2022/easybuild/software/Compiler/NVHPC/22.11-CUDA-11.7.0/Gaussian/g16c01-CUDA-11.7.0/g16/l1.exe PID=     34501.
  
 Copyright (c) 1988-2019, Gaussian, Inc.  All Rights Reserved.
  
 This is part of the Gaussian(R) 16 program.  It is based on
 the Gaussian(R) 09 system (copyright 2009, Gaussian, Inc.),
 the Gaussian(R) 03 system (copyright 2003, Gaussian, Inc.),
 the Gaussian(R) 98 system (copyright 1998, Gaussian, Inc.),
 the Gaussian(R) 94 system (copyright 1995, Gaussian, Inc.),
 the Gaussian 92(TM) system (copyright 1992, Gaussian, Inc.),
 the Gaussian 90(TM) system (copyright 1990, Gaussian, Inc.),
 the Gaussian 88(TM) system (copyright 1988, Gaussian, Inc.),
 the Gaussian 86(TM) system (copyright 1986, Carnegie Mellon
 University), and the Gaussian 82(TM) system (copyright 1983,
 Carnegie Mellon University). Gaussian is a federally registered
 trademark of Gaussian, Inc.
  
 This software contains proprietary and confidential information,
 including trade secrets, belonging to Gaussian, Inc.
  
 This software is provided under written license and may be
 used, copied, transmitted, or stored only in accord with that
 written license.
  
 The following legend is applicable only to US Government
 contracts under FAR:
  
                    RESTRICTED RIGHTS LEGEND
  
 Use, reproduction and disclosure by the US Government is
 subject to restrictions as set forth in subparagraphs (a)
 and (c) of the Commercial Computer Software - Restricted
 Rights clause in FAR 52.227-19.
  
 Gaussian, Inc.
 340 Quinnipiac St., Bldg. 40, Wallingford CT 06492
  
  
 ---------------------------------------------------------------
 Warning -- This program may not be used in any manner that
 competes with the business of Gaussian, Inc. or will provide
 assistance to any competitor of Gaussian, Inc.  The licensee
 of this program is prohibited from giving any competitor of
 Gaussian, Inc. access to this program.  By using this program,
 the user acknowledges that Gaussian, Inc. is engaged in the
 business of creating and licensing software in the field of
 computational chemistry and represents and warrants to the
 licensee that it is not a competitor of Gaussian, Inc. and that
 it will not use this program in any manner prohibited above.
 ---------------------------------------------------------------
  

 Cite this work as:
 Gaussian 16, Revision C.01,
 M. J. Frisch, G. W. Trucks, H. B. Schlegel, G. E. Scuseria, 
 M. A. Robb, J. R. Cheeseman, G. Scalmani, V. Barone, 
 G. A. Petersson, H. Nakatsuji, X. Li, M. Caricato, A. V. Marenich, 
 J. Bloino, B. G. Janesko, R. Gomperts, B. Mennucci, H. P. Hratchian, 
 J. V. Ortiz, A. F. Izmaylov, J. L. Sonnenberg, D. Williams-Young, 
 F. Ding, F. Lipparini, F. Egidi, J. Goings, B. Peng, A. Petrone, 
 T. Henderson, D. Ranasinghe, V. G. Zakrzewski, J. Gao, N. Rega, 
 G. Zheng, W. Liang, M. Hada, M. Ehara, K. Toyota, R. Fukuda, 
 J. Hasegawa, M. Ishida, T. Nakajima, Y. Honda, O. Kitao, H. Nakai, 
 T. Vreven, K. Throssell, J. A. Montgomery, Jr., J. E. Peralta, 
 F. Ogliaro, M. J. Bearpark, J. J. Heyd, E. N. Brothers, K. N. Kudin, 
 V. N. Staroverov, T. A. Keith, R. Kobayashi, J. Normand, 
 K. Raghavachari, A. P. Rendell, J. C. Burant, S. S. Iyengar, 
 J. Tomasi, M. Cossi, J. M. Millam, M. Klene, C. Adamo, R. Cammi, 
 J. W. Ochterski, R. L. Martin, K. Morokuma, O. Farkas, 
 J. B. Foresman, and D. J. Fox, Gaussian, Inc., Wallingford CT, 2019.
 
 ******************************************
 Gaussian 16:  ES64L-G16RevC.01  3-Jul-2019
                23-May-2025 
 ******************************************
 %mem=28GB
 %chk=2003846667223680600001_r12_insertion_R_2_1_9_IRC_F_prod
 %nprocshared=8
 Will use up to    8 processors via shared memory.
 ----------------------------------------------------------------------
 #P wb97xd/6-311++G(d,p) Symm(None) scf(xqc) pop(None) freq opt(CalcFC)
 ----------------------------------------------------------------------
 1/10=4,18=20,19=15,26=3,38=1/1,3;
 2/9=110,12=2,15=3,17=6,18=5,40=1/2;
 3/5=4,6=6,7=1111,11=2,25=1,30=1,71=2,74=-58,140=1/1,2,3;
 4//1;
 5/5=2,8=3,13=1,38=5/2,8;
 8/6=4,10=90,11=11/1;
 11/6=1,8=1,9=11,15=111,16=1,31=1/1,2,10;
 10/6=1,13=1,31=1/2;
 7/10=1,25=1,30=1/1,2,3,16;
 1/10=4,18=20,19=15,26=3/3(2);
 2/9=110,15=3/2;
 99//99;
 2/9=110,15=3/2;
 3/5=4,6=6,7=1111,11=2,25=1,30=1,71=1,74=-58/1,2,3;
 4/5=5,16=3,69=1/1;
 5/5=2,8=3,13=1,38=5/2,8;
 7/30=1/1,2,3,16;
 1/18=20,19=15,26=3/3(-5);
 2/9=110,15=3/2;
 99/9=1/99;
 Leave Link    1 at Fri May 23 04:10:44 2025, MaxMem=  3758096384 cpu:               0.0 elap:               0.0
 (Enter /apps/easybuild-2022/easybuild/software/Compiler/NVHPC/22.11-CUDA-11.7.0/Gaussian/g16c01-CUDA-11.7.0/g16/l101.exe)
 ------------------------------
 Gaussian input prepared by ASE
 ------------------------------
 Symbolic Z-matrix:
 Charge =  0 Multiplicity = 1
 C                    -0.8596    0.1798    0.91469 
 C                    -0.73247   0.0258   -0.66098 
 F                    -1.20336  -1.02273  -1.27907 
 F                    -1.10668   1.11939  -1.27977 
 S                     1.12684  -0.07462  -0.26921 
 O                     0.48205   0.42745   1.21764 
 O                     2.424    -0.58847  -0.66222 
 O                     1.37916   1.49818  -0.73605 
 F                     0.64955  -1.66201   0.27852 
 F                    -1.57816   1.2344    1.27709 
 F                    -1.38037  -0.88165   1.50652 
 H                     2.27182   1.56142  -1.09205 
 
 ITRead=  0  0  0  0  0  0  0  0  0  0  0  0
 MicOpt= -1 -1 -1 -1 -1 -1 -1 -1 -1 -1 -1 -1
 NAtoms=     12 NQM=       12 NQMF=       0 NMMI=      0 NMMIF=      0
                NMic=       0 NMicF=      0.
                    Isotopes and Nuclear Properties:
 (Nuclear quadrupole moments (NQMom) in fm**2, nuclear magnetic moments (NMagM)
  in nuclear magnetons)

  Atom         1           2           3           4           5           6           7           8           9          10
 IAtWgt=          12          12          19          19          32          16          16          16          19          19
 AtmWgt=  12.0000000  12.0000000  18.9984032  18.9984032  31.9720718  15.9949146  15.9949146  15.9949146  18.9984032  18.9984032
 NucSpn=           0           0           1           1           0           0           0           0           1           1
 AtZEff=  -0.0000000  -0.0000000  -0.0000000  -0.0000000  -0.0000000  -0.0000000  -0.0000000  -0.0000000  -0.0000000  -0.0000000
 NQMom=    0.0000000   0.0000000   0.0000000   0.0000000   0.0000000   0.0000000   0.0000000   0.0000000   0.0000000   0.0000000
 NMagM=    0.0000000   0.0000000   2.6288670   2.6288670   0.0000000   0.0000000   0.0000000   0.0000000   2.6288670   2.6288670
 AtZNuc=   6.0000000   6.0000000   9.0000000   9.0000000  16.0000000   8.0000000   8.0000000   8.0000000   9.0000000   9.0000000

  Atom        11          12
 IAtWgt=          19           1
 AtmWgt=  18.9984032   1.0078250
 NucSpn=           1           1
 AtZEff=  -0.0000000  -0.0000000
 NQMom=    0.0000000   0.0000000
 NMagM=    2.6288670   2.7928460
 AtZNuc=   9.0000000   1.0000000
 Leave Link  101 at Fri May 23 04:10:44 2025, MaxMem=  3758096384 cpu:               0.2 elap:               0.2
 (Enter /apps/easybuild-2022/easybuild/software/Compiler/NVHPC/22.11-CUDA-11.7.0/Gaussian/g16c01-CUDA-11.7.0/g16/l103.exe)

 GradGradGradGradGradGradGradGradGradGradGradGradGradGradGradGradGradGrad
 Berny optimization.
 Initialization pass.
                           ----------------------------
                           !    Initial Parameters    !
                           ! (Angstroms and Degrees)  !
 --------------------------                            --------------------------
 ! Name  Definition              Value          Derivative Info.                !
 --------------------------------------------------------------------------------
 ! R1    R(1,2)                  1.5883         calculate D2E/DX2 analytically  !
 ! R2    R(1,6)                  1.3975         calculate D2E/DX2 analytically  !
 ! R3    R(1,10)                 1.3266         calculate D2E/DX2 analytically  !
 ! R4    R(1,11)                 1.3222         calculate D2E/DX2 analytically  !
 ! R5    R(2,3)                  1.3051         calculate D2E/DX2 analytically  !
 ! R6    R(2,4)                  1.3111         calculate D2E/DX2 analytically  !
 ! R7    R(2,5)                  1.9028         calculate D2E/DX2 analytically  !
 ! R8    R(5,6)                  1.6966         calculate D2E/DX2 analytically  !
 ! R9    R(5,7)                  1.4495         calculate D2E/DX2 analytically  !
 ! R10   R(5,8)                  1.6599         calculate D2E/DX2 analytically  !
 ! R11   R(5,9)                  1.7457         calculate D2E/DX2 analytically  !
 ! R12   R(8,12)                 0.9631         calculate D2E/DX2 analytically  !
 ! A1    A(2,1,6)               98.9396         calculate D2E/DX2 analytically  !
 ! A2    A(2,1,10)             113.0448         calculate D2E/DX2 analytically  !
 ! A3    A(2,1,11)             113.4377         calculate D2E/DX2 analytically  !
 ! A4    A(6,1,10)             108.6573         calculate D2E/DX2 analytically  !
 ! A5    A(6,1,11)             115.0461         calculate D2E/DX2 analytically  !
 ! A6    A(10,1,11)            107.6128         calculate D2E/DX2 analytically  !
 ! A7    A(1,2,3)              121.2567         calculate D2E/DX2 analytically  !
 ! A8    A(1,2,4)              111.3773         calculate D2E/DX2 analytically  !
 ! A9    A(1,2,5)               83.0543         calculate D2E/DX2 analytically  !
 ! A10   A(3,2,4)              110.0993         calculate D2E/DX2 analytically  !
 ! A11   A(3,2,5)              114.0594         calculate D2E/DX2 analytically  !
 ! A12   A(4,2,5)              114.8408         calculate D2E/DX2 analytically  !
 ! A13   A(2,5,6)               78.0804         calculate D2E/DX2 analytically  !
 ! A14   A(2,5,7)              146.8587         calculate D2E/DX2 analytically  !
 ! A15   A(2,5,8)               92.3283         calculate D2E/DX2 analytically  !
 ! A16   A(2,5,9)               81.1083         calculate D2E/DX2 analytically  !
 ! A17   A(6,5,7)              133.0472         calculate D2E/DX2 analytically  !
 ! A18   A(6,5,8)               91.3666         calculate D2E/DX2 analytically  !
 ! A19   A(6,5,9)               83.6973         calculate D2E/DX2 analytically  !
 ! A20   A(7,5,8)               97.1001         calculate D2E/DX2 analytically  !
 ! A21   A(7,5,9)               90.4236         calculate D2E/DX2 analytically  !
 ! A22   A(1,6,5)               97.0326         calculate D2E/DX2 analytically  !
 ! A23   A(5,8,12)             107.8827         calculate D2E/DX2 analytically  !
 ! A24   L(8,5,9,2,-1)         173.4366         calculate D2E/DX2 analytically  !
 ! A25   L(8,5,9,2,-2)         183.7136         calculate D2E/DX2 analytically  !
 ! D1    D(6,1,2,3)            127.2194         calculate D2E/DX2 analytically  !
 ! D2    D(6,1,2,4)           -100.7681         calculate D2E/DX2 analytically  !
 ! D3    D(6,1,2,5)             13.2349         calculate D2E/DX2 analytically  !
 ! D4    D(10,1,2,3)          -118.0192         calculate D2E/DX2 analytically  !
 ! D5    D(10,1,2,4)            13.9934         calculate D2E/DX2 analytically  !
 ! D6    D(10,1,2,5)           127.9964         calculate D2E/DX2 analytically  !
 ! D7    D(11,1,2,3)             4.8561         calculate D2E/DX2 analytically  !
 ! D8    D(11,1,2,4)           136.8686         calculate D2E/DX2 analytically  !
 ! D9    D(11,1,2,5)          -109.1284         calculate D2E/DX2 analytically  !
 ! D10   D(2,1,6,5)            -14.881          calculate D2E/DX2 analytically  !
 ! D11   D(10,1,6,5)          -133.0035         calculate D2E/DX2 analytically  !
 ! D12   D(11,1,6,5)           106.3132         calculate D2E/DX2 analytically  !
 ! D13   D(1,2,5,6)            -10.9762         calculate D2E/DX2 analytically  !
 ! D14   D(1,2,5,7)            151.3468         calculate D2E/DX2 analytically  !
 ! D15   D(1,2,5,8)           -101.8822         calculate D2E/DX2 analytically  !
 ! D16   D(1,2,5,9)             74.4042         calculate D2E/DX2 analytically  !
 ! D17   D(3,2,5,6)           -132.1778         calculate D2E/DX2 analytically  !
 ! D18   D(3,2,5,7)             30.1452         calculate D2E/DX2 analytically  !
 ! D19   D(3,2,5,8)            136.9161         calculate D2E/DX2 analytically  !
 ! D20   D(3,2,5,9)            -46.7974         calculate D2E/DX2 analytically  !
 ! D21   D(4,2,5,6)             99.4038         calculate D2E/DX2 analytically  !
 ! D22   D(4,2,5,7)            -98.2731         calculate D2E/DX2 analytically  !
 ! D23   D(4,2,5,8)              8.4978         calculate D2E/DX2 analytically  !
 ! D24   D(4,2,5,9)           -175.2158         calculate D2E/DX2 analytically  !
 ! D25   D(2,5,6,1)             12.4992         calculate D2E/DX2 analytically  !
 ! D26   D(7,5,6,1)           -154.3708         calculate D2E/DX2 analytically  !
 ! D27   D(8,5,6,1)            104.5908         calculate D2E/DX2 analytically  !
 ! D28   D(9,5,6,1)            -69.7063         calculate D2E/DX2 analytically  !
 ! D29   D(2,5,8,12)          -148.8309         calculate D2E/DX2 analytically  !
 ! D30   D(6,5,8,12)           133.0453         calculate D2E/DX2 analytically  !
 ! D31   D(7,5,8,12)            -0.6674         calculate D2E/DX2 analytically  !
 --------------------------------------------------------------------------------
 Trust Radius=3.00D-01 FncErr=1.00D-07 GrdErr=1.00D-06 EigMax=2.50D+02 EigMin=1.00D-04
 Number of steps in this run=     78 maximum allowed number of steps=    100.
 GradGradGradGradGradGradGradGradGradGradGradGradGradGradGradGradGradGrad

 Leave Link  103 at Fri May 23 04:10:45 2025, MaxMem=  3758096384 cpu:               0.1 elap:               0.0
 (Enter /apps/easybuild-2022/easybuild/software/Compiler/NVHPC/22.11-CUDA-11.7.0/Gaussian/g16c01-CUDA-11.7.0/g16/l202.exe)
                          Input orientation:                          
 ---------------------------------------------------------------------
 Center     Atomic      Atomic             Coordinates (Angstroms)
 Number     Number       Type             X           Y           Z
 ---------------------------------------------------------------------
      1          6           0       -0.859601    0.179803    0.914686
      2          6           0       -0.732473    0.025801   -0.660981
      3          9           0       -1.203361   -1.022726   -1.279070
      4          9           0       -1.106675    1.119392   -1.279771
      5         16           0        1.126837   -0.074621   -0.269210
      6          8           0        0.482052    0.427449    1.217635
      7          8           0        2.424002   -0.588471   -0.662218
      8          8           0        1.379164    1.498178   -0.736054
      9          9           0        0.649545   -1.662012    0.278518
     10          9           0       -1.578159    1.234404    1.277087
     11          9           0       -1.380373   -0.881653    1.506520
     12          1           0        2.271824    1.561420   -1.092047
 ---------------------------------------------------------------------
                    Distance matrix (angstroms):
                    1          2          3          4          5
     1  C    0.000000
     2  C    1.588271   0.000000
     3  F    2.525235   1.305059   0.000000
     4  F    2.399899   1.311057   2.144299   0.000000
     5  S    2.326430   1.902788   2.710820   2.726807   0.000000
     6  O    1.397548   2.272793   3.343226   3.039716   1.696623
     7  O    3.722757   3.215691   3.704976   3.970371   1.449529
     8  O    3.078169   2.575372   3.649556   2.572645   1.659912
     9  F    2.464653   2.375152   2.503603   3.639888   1.745744
    10  F    1.326591   2.435573   3.430605   2.602508   3.379583
    11  F    1.322180   2.437480   2.794771   3.441295   3.176574
    12  H    3.967577   3.401433   4.334709   3.412460   2.159788
                    6          7          8          9         10
     6  O    0.000000
     7  O    2.887406   0.000000
     8  O    2.401702   2.334790   0.000000
     9  F    2.296920   2.277317   3.398309   0.000000
    10  F    2.213409   4.806357   3.587210   3.788011   0.000000
    11  F    2.294740   4.388923   4.278759   2.497502   2.137629
    12  H    3.134295   2.197713   0.963106   3.860149   4.532340
                   11         12
    11  F    0.000000
    12  H    5.104870   0.000000
 Symmetry turned off by external request.
 Stoichiometry    C2HF5O3S
 Rotational constants (GHZ):           1.4264342           0.9735461           0.9087131
 Leave Link  202 at Fri May 23 04:10:45 2025, MaxMem=  3758096384 cpu:               0.1 elap:               0.0
 (Enter /apps/easybuild-2022/easybuild/software/Compiler/NVHPC/22.11-CUDA-11.7.0/Gaussian/g16c01-CUDA-11.7.0/g16/l301.exe)
 Standard basis: 6-311++G(d,p) (5D, 7F)
 Ernie: Thresh=  0.10000D-02 Tol=  0.10000D-05 Strict=F.
   257 basis functions,   419 primitive gaussians,   268 cartesian basis functions
    49 alpha electrons       49 beta electrons
       nuclear repulsion energy       950.6548068552 Hartrees.
 IExCor= 4639 DFT=T Ex+Corr=wB97XD ExCW=0 ScaHFX=  1.000000
 ScaDFX=  1.000000  1.000000  1.000000  1.000000 ScalE2=  1.000000  1.000000
 IRadAn=      5 IRanWt=     -1 IRanGd=            0 ICorTp=0 IEmpDi=121
 HFx  wShort=  0.000000 wLong=  0.200000 cFull=  0.222036 cShort=  0.000000 cLong=  0.777964
 DFx  wShort=  0.000000 wLong=  0.200000 cFull=  0.000000 cShort=  0.000000 cLong=  1.000000
 NAtoms=   12 NActive=   12 NUniq=   12 SFac= 1.00D+00 NAtFMM=   60 NAOKFM=F Big=F
 Integral buffers will be    131072 words long.
 Raffenetti 2 integral format.
 Two-electron integral symmetry is turned off.
 R6Disp:  Grimme-D2 Dispersion energy=       -0.0050683218 Hartrees.
 Nuclear repulsion after empirical dispersion term =      950.6497385334 Hartrees.
 Leave Link  301 at Fri May 23 04:10:45 2025, MaxMem=  3758096384 cpu:               0.1 elap:               0.0
 (Enter /apps/easybuild-2022/easybuild/software/Compiler/NVHPC/22.11-CUDA-11.7.0/Gaussian/g16c01-CUDA-11.7.0/g16/l302.exe)
 NPDir=0 NMtPBC=     1 NCelOv=     1 NCel=       1 NClECP=     1 NCelD=      1
         NCelK=      1 NCelE2=     1 NClLst=     1 CellRange=     0.0.
 One-electron integrals computed using PRISM.
 NBasis=   257 RedAO= T EigKep=  6.41D-05  NBF=   257
 NBsUse=   257 1.00D-06 EigRej= -1.00D+00 NBFU=   257
 Precomputing XC quadrature grid using
 IXCGrd= 4 IRadAn=           5 IRanWt=          -1 IRanGd=           0 AccXCQ= 0.00D+00.
 Generated NRdTot=       0 NPtTot=           0 NUsed=           0 NTot=          32
 NSgBfM=   268   268   268   268   268 MxSgAt=    12 MxSgA2=    12.
 Leave Link  302 at Fri May 23 04:10:45 2025, MaxMem=  3758096384 cpu:               0.8 elap:               0.2
 (Enter /apps/easybuild-2022/easybuild/software/Compiler/NVHPC/22.11-CUDA-11.7.0/Gaussian/g16c01-CUDA-11.7.0/g16/l303.exe)
 DipDrv:  MaxL=1.
 Leave Link  303 at Fri May 23 04:10:45 2025, MaxMem=  3758096384 cpu:               0.1 elap:               0.0
 (Enter /apps/easybuild-2022/easybuild/software/Compiler/NVHPC/22.11-CUDA-11.7.0/Gaussian/g16c01-CUDA-11.7.0/g16/l401.exe)
 ExpMin= 3.60D-02 ExpMax= 9.34D+04 ExpMxC= 3.17D+03 IAcc=3 IRadAn=         5 AccDes= 0.00D+00
 Harris functional with IExCor= 4639 and IRadAn=       5 diagonalized for initial guess.
 HarFok:  IExCor= 4639 AccDes= 0.00D+00 IRadAn=         5 IDoV= 1 UseB2=F ITyADJ=14
 ICtDFT=  3500011 ScaDFX=  1.000000  1.000000  1.000000  1.000000
 FoFCou: FMM=F IPFlag=           0 FMFlag=      100000 FMFlg1=           0
         NFxFlg=           0 DoJE=T BraDBF=F KetDBF=T FulRan=T
         wScrn=  0.000000 ICntrl=       500 IOpCl=  0 I1Cent=   200000004 NGrid=           0
         NMat0=    1 NMatS0=      1 NMatT0=    0 NMatD0=    1 NMtDS0=    0 NMtDT0=    0
 Symmetry not used in FoFCou.
 Harris En= -1167.03957050361    
 JPrj=0 DoOrth=F DoCkMO=F.
 Leave Link  401 at Fri May 23 04:10:45 2025, MaxMem=  3758096384 cpu:               3.0 elap:               0.6
 (Enter /apps/easybuild-2022/easybuild/software/Compiler/NVHPC/22.11-CUDA-11.7.0/Gaussian/g16c01-CUDA-11.7.0/g16/l502.exe)
 Keep R1 ints in memory in canonical form, NReq=1117474633.
 FoFCou: FMM=F IPFlag=           0 FMFlag=           0 FMFlg1=           0
         NFxFlg=           0 DoJE=F BraDBF=F KetDBF=F FulRan=T
         wScrn=  0.000000 ICntrl=       600 IOpCl=  0 I1Cent=           0 NGrid=           0
         NMat0=    1 NMatS0=  33153 NMatT0=    0 NMatD0=    1 NMtDS0=    0 NMtDT0=    0
 Symmetry not used in FoFCou.
 Two-electron integral symmetry not used.
 Closed shell SCF:
 Using DIIS extrapolation, IDIIS=  1040.
 NGot=  3758096384 LenX=  2658793852 LenY=  2658721587
 Requested convergence on RMS density matrix=1.00D-08 within  32 cycles.
 Requested convergence on MAX density matrix=1.00D-06.
 Requested convergence on             energy=1.00D-06.
 No special actions if energy rises.

 Cycle   1  Pass 1  IDiag  1:
 E= -1199.03128120841    
 DIIS: error= 1.21D-01 at cycle   1 NSaved=   1.
 NSaved= 1 IEnMin= 1 EnMin= -1199.03128120841     IErMin= 1 ErrMin= 1.21D-01
 ErrMax= 1.21D-01  0.00D+00 EMaxC= 1.00D-01 BMatC= 3.35D+00 BMatP= 3.35D+00
 IDIUse=3 WtCom= 0.00D+00 WtEn= 1.00D+00
 Coeff-Com:  0.100D+01
 Coeff-En:   0.100D+01
 Coeff:      0.100D+01
 Gap=     0.682 Goal=   None    Shift=    0.000
 GapD=    0.682 DampG=2.000 DampE=0.250 DampFc=0.5000 IDamp=-1.
 Damping current iteration by 5.00D-01
 RMSDP=7.54D-03 MaxDP=4.22D-01              OVMax= 2.08D-01

 Cycle   2  Pass 1  IDiag  1:
 E= -1199.38479414000     Delta-E=       -0.353512931586 Rises=F Damp=T
 DIIS: error= 5.25D-02 at cycle   2 NSaved=   2.
 NSaved= 2 IEnMin= 2 EnMin= -1199.38479414000     IErMin= 2 ErrMin= 5.25D-02
 ErrMax= 5.25D-02  0.00D+00 EMaxC= 1.00D-01 BMatC= 4.81D-01 BMatP= 3.35D+00
 IDIUse=3 WtCom= 4.75D-01 WtEn= 5.25D-01
 Coeff-Com: -0.397D+00 0.140D+01
 Coeff-En:   0.000D+00 0.100D+01
 Coeff:     -0.188D+00 0.119D+01
 Gap=     0.483 Goal=   None    Shift=    0.000
 RMSDP=3.41D-03 MaxDP=3.44D-01 DE=-3.54D-01 OVMax= 1.21D-01

 Cycle   3  Pass 1  IDiag  1:
 E= -1199.67127493987     Delta-E=       -0.286480799870 Rises=F Damp=F
 DIIS: error= 1.27D-02 at cycle   3 NSaved=   3.
 NSaved= 3 IEnMin= 3 EnMin= -1199.67127493987     IErMin= 3 ErrMin= 1.27D-02
 ErrMax= 1.27D-02  0.00D+00 EMaxC= 1.00D-01 BMatC= 8.07D-02 BMatP= 4.81D-01
 IDIUse=3 WtCom= 8.73D-01 WtEn= 1.27D-01
 Coeff-Com: -0.173D+00 0.507D+00 0.666D+00
 Coeff-En:   0.000D+00 0.000D+00 0.100D+01
 Coeff:     -0.151D+00 0.442D+00 0.709D+00
 Gap=     0.441 Goal=   None    Shift=    0.000
 RMSDP=2.19D-03 MaxDP=1.76D-01 DE=-2.86D-01 OVMax= 9.01D-02

 Cycle   4  Pass 1  IDiag  1:
 E= -1199.70495167214     Delta-E=       -0.033676732268 Rises=F Damp=F
 DIIS: error= 8.19D-03 at cycle   4 NSaved=   4.
 NSaved= 4 IEnMin= 4 EnMin= -1199.70495167214     IErMin= 4 ErrMin= 8.19D-03
 ErrMax= 8.19D-03  0.00D+00 EMaxC= 1.00D-01 BMatC= 2.73D-02 BMatP= 8.07D-02
 IDIUse=3 WtCom= 9.18D-01 WtEn= 8.19D-02
 Coeff-Com: -0.405D-01 0.102D+00 0.385D+00 0.553D+00
 Coeff-En:   0.000D+00 0.000D+00 0.275D+00 0.725D+00
 Coeff:     -0.372D-01 0.936D-01 0.376D+00 0.567D+00
 Gap=     0.417 Goal=   None    Shift=    0.000
 RMSDP=1.00D-03 MaxDP=9.07D-02 DE=-3.37D-02 OVMax= 2.98D-02

 Cycle   5  Pass 1  IDiag  1:
 E= -1199.72233987527     Delta-E=       -0.017388203131 Rises=F Damp=F
 DIIS: error= 1.87D-03 at cycle   5 NSaved=   5.
 NSaved= 5 IEnMin= 5 EnMin= -1199.72233987527     IErMin= 5 ErrMin= 1.87D-03
 ErrMax= 1.87D-03  0.00D+00 EMaxC= 1.00D-01 BMatC= 1.36D-03 BMatP= 2.73D-02
 IDIUse=3 WtCom= 9.81D-01 WtEn= 1.87D-02
 Coeff-Com: -0.953D-02 0.210D-01 0.159D+00 0.304D+00 0.526D+00
 Coeff-En:   0.000D+00 0.000D+00 0.000D+00 0.000D+00 0.100D+01
 Coeff:     -0.935D-02 0.206D-01 0.156D+00 0.298D+00 0.534D+00
 Gap=     0.409 Goal=   None    Shift=    0.000
 RMSDP=1.65D-04 MaxDP=5.25D-03 DE=-1.74D-02 OVMax= 5.35D-03

 Cycle   6  Pass 1  IDiag  1:
 E= -1199.72317729103     Delta-E=       -0.000837415759 Rises=F Damp=F
 DIIS: error= 2.40D-04 at cycle   6 NSaved=   6.
 NSaved= 6 IEnMin= 6 EnMin= -1199.72317729103     IErMin= 6 ErrMin= 2.40D-04
 ErrMax= 2.40D-04  0.00D+00 EMaxC= 1.00D-01 BMatC= 3.28D-05 BMatP= 1.36D-03
 IDIUse=3 WtCom= 9.98D-01 WtEn= 2.40D-03
 Coeff-Com:  0.179D-02-0.492D-02 0.404D-02 0.306D-01 0.155D+00 0.813D+00
 Coeff-En:   0.000D+00 0.000D+00 0.000D+00 0.000D+00 0.000D+00 0.100D+01
 Coeff:      0.178D-02-0.491D-02 0.403D-02 0.306D-01 0.155D+00 0.813D+00
 Gap=     0.409 Goal=   None    Shift=    0.000
 RMSDP=4.48D-05 MaxDP=1.12D-03 DE=-8.37D-04 OVMax= 1.12D-03

 Cycle   7  Pass 1  IDiag  1:
 E= -1199.72320522309     Delta-E=       -0.000027932059 Rises=F Damp=F
 DIIS: error= 7.19D-05 at cycle   7 NSaved=   7.
 NSaved= 7 IEnMin= 7 EnMin= -1199.72320522309     IErMin= 7 ErrMin= 7.19D-05
 ErrMax= 7.19D-05  0.00D+00 EMaxC= 1.00D-01 BMatC= 3.32D-06 BMatP= 3.28D-05
 IDIUse=1 WtCom= 1.00D+00 WtEn= 0.00D+00
 Coeff-Com:  0.142D-02-0.339D-02-0.114D-01-0.142D-01 0.626D-02 0.262D+00
 Coeff-Com:  0.759D+00
 Coeff:      0.142D-02-0.339D-02-0.114D-01-0.142D-01 0.626D-02 0.262D+00
 Coeff:      0.759D+00
 Gap=     0.408 Goal=   None    Shift=    0.000
 RMSDP=1.55D-05 MaxDP=4.03D-04 DE=-2.79D-05 OVMax= 6.38D-04

 Cycle   8  Pass 1  IDiag  1:
 E= -1199.72320769333     Delta-E=       -0.000002470240 Rises=F Damp=F
 DIIS: error= 5.17D-05 at cycle   8 NSaved=   8.
 NSaved= 8 IEnMin= 8 EnMin= -1199.72320769333     IErMin= 8 ErrMin= 5.17D-05
 ErrMax= 5.17D-05  0.00D+00 EMaxC= 1.00D-01 BMatC= 1.22D-06 BMatP= 3.32D-06
 IDIUse=1 WtCom= 1.00D+00 WtEn= 0.00D+00
 Coeff-Com:  0.531D-03-0.117D-02-0.673D-02-0.122D-01-0.181D-01 0.352D-01
 Coeff-Com:  0.427D+00 0.575D+00
 Coeff:      0.531D-03-0.117D-02-0.673D-02-0.122D-01-0.181D-01 0.352D-01
 Coeff:      0.427D+00 0.575D+00
 Gap=     0.409 Goal=   None    Shift=    0.000
 RMSDP=5.67D-06 MaxDP=3.84D-04 DE=-2.47D-06 OVMax= 1.93D-04

 Cycle   9  Pass 1  IDiag  1:
 E= -1199.72320856746     Delta-E=       -0.000000874136 Rises=F Damp=F
 DIIS: error= 6.18D-06 at cycle   9 NSaved=   9.
 NSaved= 9 IEnMin= 9 EnMin= -1199.72320856746     IErMin= 9 ErrMin= 6.18D-06
 ErrMax= 6.18D-06  0.00D+00 EMaxC= 1.00D-01 BMatC= 1.93D-08 BMatP= 1.22D-06
 IDIUse=1 WtCom= 1.00D+00 WtEn= 0.00D+00
 Coeff-Com: -0.506D-05 0.236D-04-0.271D-03-0.102D-02-0.289D-02-0.112D-01
 Coeff-Com:  0.404D-03 0.524D-01 0.963D+00
 Coeff:     -0.506D-05 0.236D-04-0.271D-03-0.102D-02-0.289D-02-0.112D-01
 Coeff:      0.404D-03 0.524D-01 0.963D+00
 Gap=     0.409 Goal=   None    Shift=    0.000
 RMSDP=2.61D-06 MaxDP=1.01D-04 DE=-8.74D-07 OVMax= 1.47D-04

 Cycle  10  Pass 1  IDiag  1:
 E= -1199.72320861938     Delta-E=       -0.000000051916 Rises=F Damp=F
 DIIS: error= 3.48D-06 at cycle  10 NSaved=  10.
 NSaved=10 IEnMin=10 EnMin= -1199.72320861938     IErMin=10 ErrMin= 3.48D-06
 ErrMax= 3.48D-06  0.00D+00 EMaxC= 1.00D-01 BMatC= 6.21D-09 BMatP= 1.93D-08
 IDIUse=1 WtCom= 1.00D+00 WtEn= 0.00D+00
 Coeff-Com: -0.774D-04 0.174D-03 0.682D-03 0.101D-02 0.776D-03-0.955D-02
 Coeff-Com: -0.509D-01-0.483D-01 0.360D+00 0.746D+00
 Coeff:     -0.774D-04 0.174D-03 0.682D-03 0.101D-02 0.776D-03-0.955D-02
 Coeff:     -0.509D-01-0.483D-01 0.360D+00 0.746D+00
 Gap=     0.409 Goal=   None    Shift=    0.000
 RMSDP=8.13D-07 MaxDP=2.71D-05 DE=-5.19D-08 OVMax= 5.02D-05

 Cycle  11  Pass 1  IDiag  1:
 E= -1199.72320862910     Delta-E=       -0.000000009727 Rises=F Damp=F
 DIIS: error= 1.09D-06 at cycle  11 NSaved=  11.
 NSaved=11 IEnMin=11 EnMin= -1199.72320862910     IErMin=11 ErrMin= 1.09D-06
 ErrMax= 1.09D-06  0.00D+00 EMaxC= 1.00D-01 BMatC= 6.23D-10 BMatP= 6.21D-09
 IDIUse=1 WtCom= 1.00D+00 WtEn= 0.00D+00
 Coeff-Com: -0.172D-04 0.369D-04 0.165D-03 0.385D-03 0.643D-03-0.634D-04
 Coeff-Com: -0.121D-01-0.185D-01-0.589D-01 0.164D+00 0.924D+00
 Coeff:     -0.172D-04 0.369D-04 0.165D-03 0.385D-03 0.643D-03-0.634D-04
 Coeff:     -0.121D-01-0.185D-01-0.589D-01 0.164D+00 0.924D+00
 Gap=     0.409 Goal=   None    Shift=    0.000
 RMSDP=4.09D-07 MaxDP=1.39D-05 DE=-9.73D-09 OVMax= 2.42D-05

 Cycle  12  Pass 1  IDiag  1:
 E= -1199.72320863028     Delta-E=       -0.000000001174 Rises=F Damp=F
 DIIS: error= 6.34D-07 at cycle  12 NSaved=  12.
 NSaved=12 IEnMin=12 EnMin= -1199.72320863028     IErMin=12 ErrMin= 6.34D-07
 ErrMax= 6.34D-07  0.00D+00 EMaxC= 1.00D-01 BMatC= 1.67D-10 BMatP= 6.23D-10
 IDIUse=1 WtCom= 1.00D+00 WtEn= 0.00D+00
 Coeff-Com: -0.859D-06 0.126D-05 0.162D-04 0.951D-04 0.278D-03 0.970D-03
 Coeff-Com: -0.120D-02-0.494D-02-0.592D-01 0.872D-02 0.462D+00 0.593D+00
 Coeff:     -0.859D-06 0.126D-05 0.162D-04 0.951D-04 0.278D-03 0.970D-03
 Coeff:     -0.120D-02-0.494D-02-0.592D-01 0.872D-02 0.462D+00 0.593D+00
 Gap=     0.409 Goal=   None    Shift=    0.000
 RMSDP=8.62D-08 MaxDP=4.37D-06 DE=-1.17D-09 OVMax= 5.88D-06

 Cycle  13  Pass 1  IDiag  1:
 E= -1199.72320863041     Delta-E=       -0.000000000133 Rises=F Damp=F
 DIIS: error= 1.33D-07 at cycle  13 NSaved=  13.
 NSaved=13 IEnMin=13 EnMin= -1199.72320863041     IErMin=13 ErrMin= 1.33D-07
 ErrMax= 1.33D-07  0.00D+00 EMaxC= 1.00D-01 BMatC= 1.18D-11 BMatP= 1.67D-10
 IDIUse=1 WtCom= 1.00D+00 WtEn= 0.00D+00
 Coeff-Com:  0.239D-05-0.514D-05-0.153D-04-0.368D-04-0.344D-04 0.568D-04
 Coeff-Com:  0.142D-02 0.157D-02 0.105D-02-0.289D-01-0.595D-01 0.139D+00
 Coeff-Com:  0.945D+00
 Coeff:      0.239D-05-0.514D-05-0.153D-04-0.368D-04-0.344D-04 0.568D-04
 Coeff:      0.142D-02 0.157D-02 0.105D-02-0.289D-01-0.595D-01 0.139D+00
 Coeff:      0.945D+00
 Gap=     0.409 Goal=   None    Shift=    0.000
 RMSDP=4.35D-08 MaxDP=1.57D-06 DE=-1.33D-10 OVMax= 2.53D-06

 Cycle  14  Pass 1  IDiag  1:
 E= -1199.72320863040     Delta-E=        0.000000000015 Rises=F Damp=F
 DIIS: error= 2.57D-08 at cycle  14 NSaved=  14.
 NSaved=14 IEnMin=13 EnMin= -1199.72320863041     IErMin=14 ErrMin= 2.57D-08
 ErrMax= 2.57D-08  0.00D+00 EMaxC= 1.00D-01 BMatC= 4.24D-13 BMatP= 1.18D-11
 IDIUse=1 WtCom= 1.00D+00 WtEn= 0.00D+00
 Coeff-Com:  0.424D-06-0.899D-06-0.306D-05-0.107D-04-0.230D-04-0.417D-04
 Coeff-Com:  0.293D-03 0.575D-03 0.382D-02-0.470D-02-0.383D-01-0.168D-01
 Coeff-Com:  0.127D+00 0.928D+00
 Coeff:      0.424D-06-0.899D-06-0.306D-05-0.107D-04-0.230D-04-0.417D-04
 Coeff:      0.293D-03 0.575D-03 0.382D-02-0.470D-02-0.383D-01-0.168D-01
 Coeff:      0.127D+00 0.928D+00
 Gap=     0.409 Goal=   None    Shift=    0.000
 RMSDP=1.08D-08 MaxDP=3.83D-07 DE= 1.46D-11 OVMax= 7.01D-07

 Cycle  15  Pass 1  IDiag  1:
 E= -1199.72320863038     Delta-E=        0.000000000013 Rises=F Damp=F
 DIIS: error= 1.74D-08 at cycle  15 NSaved=  15.
 NSaved=15 IEnMin=13 EnMin= -1199.72320863041     IErMin=15 ErrMin= 1.74D-08
 ErrMax= 1.74D-08  0.00D+00 EMaxC= 1.00D-01 BMatC= 1.52D-13 BMatP= 4.24D-13
 IDIUse=1 WtCom= 1.00D+00 WtEn= 0.00D+00
 Coeff-Com: -0.104D-06 0.223D-06 0.343D-06-0.227D-07-0.561D-05-0.172D-04
 Coeff-Com: -0.237D-04 0.799D-04 0.129D-02 0.106D-02-0.965D-02-0.218D-01
 Coeff-Com: -0.539D-01 0.386D+00 0.697D+00
 Coeff:     -0.104D-06 0.223D-06 0.343D-06-0.227D-07-0.561D-05-0.172D-04
 Coeff:     -0.237D-04 0.799D-04 0.129D-02 0.106D-02-0.965D-02-0.218D-01
 Coeff:     -0.539D-01 0.386D+00 0.697D+00
 Gap=     0.409 Goal=   None    Shift=    0.000
 RMSDP=3.36D-09 MaxDP=1.33D-07 DE= 1.27D-11 OVMax= 2.05D-07

 SCF Done:  E(RwB97XD) =  -1199.72320863     A.U. after   15 cycles
            NFock= 15  Conv=0.34D-08     -V/T= 2.0020
 KE= 1.197354537453D+03 PE=-4.748048760586D+03 EE= 1.400321275968D+03
 Leave Link  502 at Fri May 23 04:11:01 2025, MaxMem=  3758096384 cpu:              72.5 elap:              15.6
 (Enter /apps/easybuild-2022/easybuild/software/Compiler/NVHPC/22.11-CUDA-11.7.0/Gaussian/g16c01-CUDA-11.7.0/g16/l508.exe)
 QCSCF skips out because SCF is already converged.
 Leave Link  508 at Fri May 23 04:11:01 2025, MaxMem=  3758096384 cpu:               0.1 elap:               0.0
 (Enter /apps/easybuild-2022/easybuild/software/Compiler/NVHPC/22.11-CUDA-11.7.0/Gaussian/g16c01-CUDA-11.7.0/g16/l801.exe)
 DoSCS=F DFT=T ScalE2(SS,OS)=  1.000000  1.000000
 Range of M.O.s used for correlation:     1   257
 NBasis=   257 NAE=    49 NBE=    49 NFC=     0 NFV=     0
 NROrb=    257 NOA=    49 NOB=    49 NVA=   208 NVB=   208

 **** Warning!!: The largest alpha MO coefficient is  0.37827333D+02

 Leave Link  801 at Fri May 23 04:11:01 2025, MaxMem=  3758096384 cpu:               0.1 elap:               0.0
 (Enter /apps/easybuild-2022/easybuild/software/Compiler/NVHPC/22.11-CUDA-11.7.0/Gaussian/g16c01-CUDA-11.7.0/g16/l1101.exe)
 Using compressed storage, NAtomX=    12.
 Will process     13 centers per pass.
 R6Disp: Adding Grimme-D2 dispersion energy 1st derivatives to the gradient.
 Leave Link 1101 at Fri May 23 04:11:01 2025, MaxMem=  3758096384 cpu:               0.6 elap:               0.1
 (Enter /apps/easybuild-2022/easybuild/software/Compiler/NVHPC/22.11-CUDA-11.7.0/Gaussian/g16c01-CUDA-11.7.0/g16/l1102.exe)
 Symmetrizing basis deriv contribution to polar:
 IMax=3 JMax=2 DiffMx= 0.00D+00
 Leave Link 1102 at Fri May 23 04:11:01 2025, MaxMem=  3758096384 cpu:               0.1 elap:               0.0
 (Enter /apps/easybuild-2022/easybuild/software/Compiler/NVHPC/22.11-CUDA-11.7.0/Gaussian/g16c01-CUDA-11.7.0/g16/l1110.exe)
 Forming Gx(P) for the SCF density, NAtomX=    12.
 Integral derivatives from FoFJK, PRISM(SPDF).
 Do as many integral derivatives as possible in FoFJK.
 G2DrvN: MDV=    3758094988.
 G2DrvN: will do    13 centers at a time, making    1 passes.
 Calling FoFCou, ICntrl=  3107 FMM=F I1Cent=   0 AccDes= 0.00D+00.
 FoFJK:  IHMeth= 1 ICntrl=    3107 DoSepK=T KAlg= 0 I1Cent=           0 FoldK=F
 IRaf=         1 NMat=       1 IRICut=       1 DoRegI=T DoRafI=F ISym2E= 0 IDoP0=0 IntGTp=1.
 FoFCou: FMM=F IPFlag=           0 FMFlag=      100000 FMFlg1=           0
         NFxFlg=           0 DoJE=F BraDBF=F KetDBF=F FulRan=T
         wScrn=  0.000000 ICntrl=      3507 IOpCl=  0 I1Cent=           0 NGrid=           0
         NMat0=    1 NMatS0=      1 NMatT0=    0 NMatD0=    1 NMtDS0=    0 NMtDT0=    0
 Symmetry not used in FoFCou.
 End of G2Drv F.D. properties file   721 does not exist.
 End of G2Drv F.D. properties file   722 does not exist.
 End of G2Drv F.D. properties file   788 does not exist.
 Leave Link 1110 at Fri May 23 04:11:16 2025, MaxMem=  3758096384 cpu:             111.6 elap:              14.3
 (Enter /apps/easybuild-2022/easybuild/software/Compiler/NVHPC/22.11-CUDA-11.7.0/Gaussian/g16c01-CUDA-11.7.0/g16/l1002.exe)
 Minotr:  Closed shell wavefunction.
          IDoAtm=111111111111
          Direct CPHF calculation.
          Differentiating once with respect to nuclear coordinates.
          Requested convergence is 1.0D-08 RMS, and 1.0D-07 maximum.
          Secondary convergence is 1.0D-12 RMS, and 1.0D-12 maximum.
          NewPWx=T KeepS1=F KeepF1=F KeepIn=T MapXYZ=F SortEE=F KeepMc=T.
         3710 words used for storage of precomputed grid.
 Keep R1 ints in memory in canonical form, NReq=1117480326.
 FoFCou: FMM=F IPFlag=           0 FMFlag=           0 FMFlg1=           0
         NFxFlg=           0 DoJE=F BraDBF=F KetDBF=F FulRan=T
         wScrn=  0.000000 ICntrl=       600 IOpCl=  0 I1Cent=           0 NGrid=           0
         NMat0=    1 NMatS0=  33153 NMatT0=    0 NMatD0=    1 NMtDS0=    0 NMtDT0=    0
 Symmetry not used in FoFCou.
 Two-electron integral symmetry not used.
          MDV=    3758096384 using IRadAn=       1.
          Solving linear equations simultaneously, MaxMat=       0.
          There are    39 degrees of freedom in the 1st order CPHF.  IDoFFX=6 NUNeed=     0.
     33 vectors produced by pass  0 Test12= 2.61D-14 2.56D-09 XBig12= 1.99D-01 1.23D-01.
 AX will form    33 AO Fock derivatives at one time.
     33 vectors produced by pass  1 Test12= 2.61D-14 2.56D-09 XBig12= 3.46D-02 4.57D-02.
     33 vectors produced by pass  2 Test12= 2.61D-14 2.56D-09 XBig12= 1.68D-03 6.42D-03.
     33 vectors produced by pass  3 Test12= 2.61D-14 2.56D-09 XBig12= 3.47D-05 9.78D-04.
     33 vectors produced by pass  4 Test12= 2.61D-14 2.56D-09 XBig12= 6.18D-07 1.16D-04.
     33 vectors produced by pass  5 Test12= 2.61D-14 2.56D-09 XBig12= 9.53D-09 1.21D-05.
     33 vectors produced by pass  6 Test12= 2.61D-14 2.56D-09 XBig12= 8.04D-11 1.02D-06.
     25 vectors produced by pass  7 Test12= 2.61D-14 2.56D-09 XBig12= 5.68D-13 7.46D-08.
      8 vectors produced by pass  8 Test12= 2.61D-14 2.56D-09 XBig12= 3.46D-15 5.85D-09.
 InvSVY:  IOpt=1 It=  1 EMax= 1.22D-15
 Solved reduced A of dimension   264 with    33 vectors.
 End of Minotr F.D. properties file   721 does not exist.
 End of Minotr F.D. properties file   722 does not exist.
 End of Minotr F.D. properties file   788 does not exist.
 Leave Link 1002 at Fri May 23 04:11:43 2025, MaxMem=  3758096384 cpu:             214.0 elap:              27.5
 (Enter /apps/easybuild-2022/easybuild/software/Compiler/NVHPC/22.11-CUDA-11.7.0/Gaussian/g16c01-CUDA-11.7.0/g16/l701.exe)
 ... and contract with generalized density number  0.
 Compute integral second derivatives.
 R6Disp: Adding Grimme-D2 dispersion energy 2nd derivatives to the Hessian.
 Leave Link  701 at Fri May 23 04:11:43 2025, MaxMem=  3758096384 cpu:               0.9 elap:               0.2
 (Enter /apps/easybuild-2022/easybuild/software/Compiler/NVHPC/22.11-CUDA-11.7.0/Gaussian/g16c01-CUDA-11.7.0/g16/l702.exe)
 L702 exits ... SP integral derivatives will be done elsewhere.
 Leave Link  702 at Fri May 23 04:11:43 2025, MaxMem=  3758096384 cpu:               0.1 elap:               0.0
 (Enter /apps/easybuild-2022/easybuild/software/Compiler/NVHPC/22.11-CUDA-11.7.0/Gaussian/g16c01-CUDA-11.7.0/g16/l703.exe)
 Integral derivatives from FoFJK, PRISM(SPDF).
 Compute integral second derivatives, UseDBF=F ICtDFT=           0.
 Calling FoFJK, ICntrl=    100127 FMM=F ISym2X=0 I1Cent= 0 IOpClX= 0 NMat=1 NMatS=1 NMatT=0.
 FoFJK:  IHMeth= 1 ICntrl=  100127 DoSepK=T KAlg= 0 I1Cent=           0 FoldK=F
 IRaf=         1 NMat=       1 IRICut=       1 DoRegI=T DoRafI=F ISym2E= 0 IDoP0=0 IntGTp=1.
 FoFCou: FMM=F IPFlag=           0 FMFlag=      100000 FMFlg1=         800
         NFxFlg=           0 DoJE=F BraDBF=F KetDBF=F FulRan=T
         wScrn=  0.000000 ICntrl=    100527 IOpCl=  0 I1Cent=           0 NGrid=           0
         NMat0=    1 NMatS0=      1 NMatT0=    0 NMatD0=    1 NMtDS0=    0 NMtDT0=    0
 Symmetry not used in FoFCou.
 Leave Link  703 at Fri May 23 04:12:19 2025, MaxMem=  3758096384 cpu:             284.9 elap:              36.0
 (Enter /apps/easybuild-2022/easybuild/software/Compiler/NVHPC/22.11-CUDA-11.7.0/Gaussian/g16c01-CUDA-11.7.0/g16/l716.exe)
 Dipole        =-2.45365504D-02 8.12387014D-01-6.82549354D-01
 Polarizability= 0.00000000D+00 0.00000000D+00 0.00000000D+00
                 0.00000000D+00 0.00000000D+00 0.00000000D+00
 -------------------------------------------------------------------
 Center     Atomic                   Forces (Hartrees/Bohr)
 Number     Number              X              Y              Z
 -------------------------------------------------------------------
      1        6           0.000007831    0.000736533   -0.000185044
      2        6          -0.000843337   -0.000017572   -0.000131093
      3        9          -0.005856125    0.000055315    0.003514730
      4        9           0.001096536   -0.000595830   -0.002477892
      5       16           0.001014568   -0.002317819   -0.000343569
      6        8          -0.000246557   -0.002232110    0.000366295
      7        8           0.002801218    0.002734047    0.002313228
      8        8          -0.001916942    0.000187927    0.003387071
      9        9           0.002884100   -0.002537166   -0.005788585
     10        9          -0.000600062    0.001891404   -0.003035938
     11        9           0.001321919    0.001902846    0.002188026
     12        1           0.000336852    0.000192425    0.000192771
 -------------------------------------------------------------------
 Cartesian Forces:  Max     0.005856125 RMS     0.002204580
 Force constants in Cartesian coordinates: 
                1             2             3             4             5 
      1  0.493927D+00
      2 -0.272672D-01  0.547112D+00
      3 -0.998161D-01 -0.122135D-01  0.522819D+00
      4 -0.383460D-01  0.318990D-02  0.237068D-01  0.376820D+00
      5 -0.236251D-02 -0.454157D-01 -0.585073D-02  0.270466D-01  0.594414D+00
      6  0.159241D-01 -0.125190D-01 -0.142945D+00  0.100843D+00  0.101733D-01
      7 -0.387500D-02 -0.290089D-02 -0.163241D-02 -0.110629D+00 -0.884798D-01
      8 -0.137233D-01 -0.129214D-01 -0.238896D-02 -0.798939D-01 -0.238213D+00
      9 -0.196655D-01 -0.246272D-01  0.688225D-02 -0.528296D-01 -0.109971D+00
     10 -0.869187D-03  0.443721D-02 -0.883238D-04 -0.921817D-01  0.680422D-01
     11  0.154558D-01 -0.172761D-01  0.785457D-02  0.594125D-01 -0.239431D+00
     12 -0.153793D-01  0.380640D-01 -0.746056D-02 -0.422839D-01  0.108686D+00
     13 -0.902464D-01  0.199178D-01  0.511686D-01 -0.956528D-01  0.166373D-01
     14  0.302507D-01  0.430122D-01  0.216372D-02 -0.131530D-01  0.507898D-02
     15  0.112552D+00  0.234425D-02  0.149697D-01 -0.636557D-01 -0.745520D-02
     16 -0.130124D+00 -0.148059D-01 -0.538456D-01 -0.458154D-01 -0.103129D-01
     17 -0.178091D-01 -0.771204D-01 -0.234799D-01 -0.440251D-02  0.450305D-02
     18 -0.558248D-01 -0.240510D-01 -0.123737D+00 -0.206044D-01 -0.229827D-01
     19  0.398904D-02 -0.254433D-02 -0.500890D-02  0.176247D-01 -0.205186D-03
     20 -0.471121D-02 -0.583984D-02 -0.454633D-03  0.129662D-02 -0.361519D-02
     21 -0.967259D-02 -0.157405D-02 -0.456411D-02  0.933237D-02  0.236630D-02
     22 -0.932661D-03 -0.327240D-03 -0.580887D-02  0.310654D-02 -0.168108D-01
     23 -0.992517D-03 -0.380958D-02 -0.277289D-02  0.187400D-01 -0.120546D-01
     24 -0.995975D-02  0.698229D-03 -0.504598D-02  0.140654D-02  0.591782D-02
     25 -0.479953D-02 -0.924318D-02 -0.120884D-02 -0.493289D-02  0.356603D-02
     26 -0.608157D-02 -0.155626D-01  0.536198D-02 -0.191910D-01 -0.282613D-01
     27 -0.793722D-02  0.448189D-02 -0.801077D-02  0.119431D-01  0.139463D-01
     28 -0.128645D+00  0.952780D-01  0.434913D-01 -0.712555D-02  0.124290D-01
     29  0.921251D-01 -0.207589D+00 -0.636519D-01  0.159396D-01 -0.188918D-01
     30  0.452087D-01 -0.608371D-01 -0.105316D+00  0.184674D-01 -0.251362D-01
     31 -0.983884D-01 -0.655641D-01  0.491187D-01 -0.222136D-02 -0.952541D-02
     32 -0.630973D-01 -0.204016D+00  0.962038D-01 -0.882282D-02 -0.127252D-01
     33  0.458775D-01  0.902360D-01 -0.145708D+00  0.135862D-01  0.321151D-01
     34 -0.168933D-02 -0.170062D-03 -0.763823D-04 -0.646334D-03 -0.245466D-04
     35 -0.178696D-02 -0.573433D-03 -0.771506D-03 -0.161937D-03 -0.538932D-02
     36 -0.130661D-02 -0.248161D-05 -0.188345D-02  0.884627D-04 -0.180939D-02
                6             7             8             9            10 
      6  0.547141D+00
      7 -0.611431D-01  0.112308D+00
      8 -0.118758D+00  0.109655D+00  0.340283D+00
      9 -0.154830D+00  0.826601D-01  0.135860D+00  0.143824D+00
     10 -0.496902D-01  0.146947D-01 -0.125969D-01  0.703002D-02  0.882856D-01
     11  0.120427D+00  0.372615D-02 -0.862572D-01  0.714244D-02 -0.803756D-01
     12 -0.160404D+00  0.521644D-02 -0.838550D-02  0.234987D-01  0.602619D-01
     13 -0.213371D-03 -0.471391D-02 -0.104373D-01 -0.355637D-02 -0.265527D-02
     14 -0.108114D-01 -0.248107D-01 -0.192637D-01 -0.928185D-02  0.242408D-01
     15 -0.376876D-01 -0.858460D-02  0.125229D-02 -0.550293D-02 -0.618426D-02
     16 -0.194288D-01  0.338601D-02  0.854412D-03 -0.834249D-02  0.405594D-02
     17 -0.128122D-01 -0.509813D-03  0.167115D-02  0.860916D-03 -0.328579D-02
     18 -0.384443D-01 -0.935698D-02 -0.432054D-02 -0.854711D-02 -0.338924D-02
     19  0.766477D-02 -0.411131D-02 -0.368268D-02 -0.294683D-02 -0.483178D-02
     20  0.272984D-02  0.210844D-02  0.281690D-02  0.791544D-03 -0.354014D-03
     21  0.519765D-02  0.280779D-03 -0.117269D-02  0.558201D-03 -0.527699D-03
     22  0.832465D-02 -0.735475D-02 -0.557318D-02 -0.240822D-02 -0.706074D-02
     23  0.159294D-01 -0.498034D-02 -0.303607D-02 -0.257466D-02 -0.453984D-02
     24 -0.145221D-02  0.165198D-02  0.734826D-03  0.144311D-02 -0.134047D-02
     25 -0.760029D-02 -0.386934D-02  0.911522D-02 -0.480459D-02 -0.321370D-02
     26  0.158738D-02  0.525403D-02  0.110054D-01  0.447294D-02  0.712616D-02
     27 -0.287834D-02 -0.567615D-02  0.178672D-02 -0.292982D-02 -0.585130D-02
     28  0.256540D-02  0.129675D-02  0.229436D-02  0.348694D-02  0.277193D-02
     29 -0.219346D-02 -0.879506D-03 -0.705062D-03 -0.390449D-02 -0.386113D-02
     30 -0.628122D-02 -0.864539D-03 -0.246409D-02 -0.537207D-02  0.406274D-03
     31  0.325555D-02  0.243139D-02  0.369623D-02  0.111616D-02  0.498001D-03
     32  0.494014D-02  0.333797D-02  0.549092D-02  0.149390D-02 -0.548094D-03
     33 -0.959431D-02 -0.130486D-02 -0.125707D-02  0.159528D-02  0.627799D-04
     34 -0.501676D-03  0.436449D-03  0.291566D-03  0.260420D-03  0.506254D-03
     35  0.130686D-02 -0.152099D-02 -0.871609D-03 -0.263139D-03  0.171495D-02
     36  0.217751D-02 -0.124672D-02 -0.887522D-03 -0.619806D-03 -0.689505D-03
               11            12            13            14            15 
     11  0.346652D+00
     12 -0.144632D+00  0.158022D+00
     13  0.475662D-02  0.429928D-03  0.875808D+00
     14 -0.237479D-01  0.126010D-01 -0.136646D+00  0.444424D+00
     15  0.268710D-02 -0.435714D-02 -0.133240D+00  0.269555D-01  0.394431D+00
     16 -0.145303D-02 -0.516685D-02 -0.507042D-01 -0.117843D-01 -0.671488D-02
     17  0.383808D-02 -0.463233D-02 -0.129909D-01 -0.620578D-01 -0.279986D-01
     18  0.533119D-02 -0.340544D-02 -0.271612D-01 -0.215243D-01 -0.131467D+00
     19  0.477120D-02 -0.267600D-02 -0.482025D+00  0.164252D+00  0.118151D+00
     20  0.310997D-02 -0.146465D-02  0.155160D+00 -0.147562D+00 -0.432487D-01
     21  0.738146D-03  0.198978D-03  0.105772D+00 -0.428136D-01 -0.104807D+00
     22 -0.229739D-02 -0.211660D-02 -0.103387D+00 -0.274965D-01  0.156710D-01
     23  0.862763D-02 -0.558030D-02 -0.347608D-02 -0.138935D+00  0.138225D-01
     24 -0.369338D-02  0.337802D-02  0.700916D-02  0.253444D-01 -0.578972D-01
     25  0.227751D-02 -0.167550D-02 -0.500064D-01  0.123427D-01 -0.101047D-02
     26 -0.323416D-02  0.159841D-02  0.143724D-01 -0.717713D-01  0.156213D-01
     27  0.431409D-02 -0.241073D-03 -0.699426D-02  0.146588D-01 -0.496897D-01
     28 -0.382713D-02  0.179701D-04  0.929741D-03 -0.818263D-03 -0.176317D-01
     29  0.638025D-02  0.411835D-03 -0.385899D-02 -0.432535D-02  0.441322D-02
     30 -0.337972D-02  0.881876D-03 -0.132309D-02 -0.157663D-02 -0.811954D-02
     31 -0.173246D-02  0.299100D-02  0.479111D-02 -0.769343D-02 -0.130862D-01
     32  0.290021D-03  0.310858D-02  0.145712D-02 -0.170760D-01 -0.524082D-02
     33  0.328538D-02 -0.966449D-02 -0.132558D-02  0.124574D-02 -0.637600D-02
     34 -0.714257D-03  0.380862D-03 -0.213766D-02 -0.868386D-02  0.373429D-02
     35  0.104848D-02  0.225113D-03 -0.448917D-01 -0.777638D-02  0.168472D-01
     36 -0.744058D-04 -0.446964D-03  0.943441D-02  0.303865D-02 -0.349694D-02
               16            17            18            19            20 
     16  0.310786D+00
     17  0.403325D-01  0.167985D+00
     18  0.429421D-01  0.707841D-01  0.276309D+00
     19  0.446586D-02  0.147521D-02  0.427500D-02  0.511212D+00
     20  0.361132D-02  0.745967D-02  0.520069D-03 -0.171872D+00  0.196486D+00
     21  0.987219D-02  0.157585D-02  0.115826D-01 -0.147684D+00  0.250841D-01
     22 -0.262454D-02 -0.139341D-01  0.204719D-01 -0.989080D-03  0.482262D-01
     23 -0.427999D-02 -0.204583D-02  0.256720D-02  0.187502D-01 -0.515198D-01
     24  0.231567D-01  0.216408D-01 -0.899161D-02  0.343479D-02 -0.395718D-03
     25  0.126165D-01  0.487209D-02  0.516673D-02 -0.382041D-01 -0.422912D-01
     26  0.651882D-02 -0.396106D-01 -0.123492D-01 -0.163527D-01 -0.822278D-02
     27  0.583646D-02 -0.340098D-01  0.395361D-04  0.219958D-01  0.203274D-01
     28 -0.678546D-01  0.371023D-01  0.244125D-01 -0.880758D-03  0.375947D-03
     29  0.271490D-01  0.333863D-02 -0.520696D-02  0.217940D-02  0.746559D-03
     30  0.491251D-03  0.399909D-02  0.155103D-01  0.133866D-02  0.569958D-03
     31 -0.415969D-01 -0.327011D-01  0.228343D-01 -0.109942D-02  0.470234D-03
     32 -0.362949D-01 -0.700154D-02  0.103704D-01 -0.634830D-03  0.264311D-02
     33  0.829679D-02 -0.367074D-04  0.158097D-01  0.207479D-02 -0.240572D-03
     34  0.340966D-02  0.185114D-02 -0.376592D-02 -0.514994D-02  0.797959D-02
     35  0.464924D-03 -0.958973D-03  0.861724D-03  0.386354D-02  0.349725D-02
     36  0.290314D-02  0.410869D-02 -0.465926D-02 -0.619297D-03 -0.421864D-02
               21            22            23            24            25 
     21  0.731182D-01
     22 -0.203988D-02  0.570562D+00
     23  0.728866D-02  0.228894D-01  0.238796D+00
     24  0.183436D-01 -0.213461D+00 -0.615639D-01  0.119808D+00
     25  0.320153D-01  0.766571D-02 -0.220017D-02 -0.781505D-03  0.909159D-01
     26  0.123473D-01 -0.894942D-02 -0.537825D-02  0.220274D-02  0.812360D-02
     27  0.219864D-03  0.327781D-02  0.429910D-02  0.455468D-03 -0.254001D-01
     28  0.249048D-02 -0.327318D-03 -0.223365D-02  0.150844D-02  0.181096D-02
     29 -0.428875D-03  0.167529D-02  0.370973D-02 -0.874221D-03  0.614845D-03
     30  0.146718D-02  0.251606D-02  0.254657D-02  0.369596D-03 -0.167216D-03
     31  0.768662D-03 -0.119826D-02 -0.124935D-02  0.362402D-02 -0.802247D-02
     32 -0.419901D-03 -0.149874D-02 -0.655540D-03  0.199207D-02  0.990642D-02
     33  0.100721D-02  0.192018D-02  0.209560D-02  0.449584D-03  0.548601D-02
     34 -0.607589D-03 -0.457460D+00 -0.364276D-01  0.183751D+00  0.393596D-04
     35 -0.299119D-02  0.409646D-02 -0.336987D-01  0.799633D-02  0.291621D-02
     36 -0.232246D-02  0.173653D+00  0.239427D-01 -0.708605D-01 -0.195189D-04
               26            27            28            29            30 
     26  0.154456D+00
     27 -0.226085D-01  0.603993D-01
     28  0.306889D-02  0.152780D-02  0.180581D+00
     29  0.817895D-03 -0.474035D-03 -0.146537D+00  0.306864D+00
     30 -0.174229D-02  0.165544D-02 -0.587037D-01  0.683380D-01  0.882653D-01
     31  0.500680D-02  0.751676D-02  0.169472D-01  0.158239D-01 -0.715041D-02
     32  0.673493D-02 -0.690624D-02  0.240034D-02 -0.903107D-01  0.194851D-01
     33 -0.567041D-02  0.211535D-04 -0.308833D-02  0.335440D-02  0.165876D-01
     34  0.110402D-02 -0.238782D-03  0.495838D-03 -0.370723D-03 -0.219328D-03
     35 -0.973755D-03  0.184176D-03  0.466918D-03 -0.357359D-04  0.197361D-03
     36 -0.821575D-03  0.958961D-03 -0.770832D-04  0.216480D-03  0.351529D-03
               31            32            33            34            35 
     31  0.127340D+00
     32  0.932969D-01  0.316526D+00
     33 -0.713671D-01 -0.125154D+00  0.135612D+00
     34  0.518905D-03  0.497837D-03 -0.218314D-03  0.461677D+00
     35  0.171746D-03  0.100750D-03  0.267686D-04  0.346669D-01  0.456315D-01
     36  0.378474D-03  0.127160D-03  0.260829D-03 -0.182499D+00 -0.236197D-01
               36 
     36  0.805406D-01
 FormGI is forming the generalized inverse of G from B-inverse, IUseBI=4.
 Leave Link  716 at Fri May 23 04:12:19 2025, MaxMem=  3758096384 cpu:               0.1 elap:               0.0
 (Enter /apps/easybuild-2022/easybuild/software/Compiler/NVHPC/22.11-CUDA-11.7.0/Gaussian/g16c01-CUDA-11.7.0/g16/l103.exe)

 GradGradGradGradGradGradGradGradGradGradGradGradGradGradGradGradGradGrad
 Berny optimization.
 Red2BG is reusing G-inverse.
 Internal  Forces:  Max     0.006100161 RMS     0.002348842
 Search for a local minimum.
 Step number   1 out of a maximum of   78
 All quantities printed in internal units (Hartrees-Bohrs-Radians)
 RMS Force = .23488D-02 SwitMx=.10000D-02 MixMth= 1
 Mixed Optimization -- RFO/linear search
 Second derivative matrix not updated -- analytic derivatives used.
 ITU=  0
     Eigenvalues ---   -0.00178   0.00840   0.01373   0.02481   0.04763
     Eigenvalues ---    0.05539   0.05913   0.07973   0.09191   0.09773
     Eigenvalues ---    0.11090   0.12035   0.12269   0.13611   0.15196
     Eigenvalues ---    0.16033   0.17397   0.19894   0.20518   0.23552
     Eigenvalues ---    0.26622   0.27455   0.31157   0.34434   0.38033
     Eigenvalues ---    0.41019   0.50938   0.53252   0.53876   0.63754
 Eigenvalue     1 is  -1.78D-03 should be greater than     0.000000 Eigenvector:
                          D30       D29       D31       A17       A14
   1                    0.52354   0.51667   0.28205   0.26109  -0.24810
                          A25       D23       D22       D15       D19
   1                    0.20392   0.15544   0.15094   0.14046   0.13755
 RFO step:  Lambda=-7.80931511D-03 EMin=-1.78091326D-03
 Linear search not attempted -- first point.
 Maximum step size (   0.300) exceeded in Quadratic search.
    -- Step size scaled by   0.451
 Iteration  1 RMS(Cart)=  0.06956009 RMS(Int)=  0.00782467
 Iteration  2 RMS(Cart)=  0.00680511 RMS(Int)=  0.00199477
 Iteration  3 RMS(Cart)=  0.00010438 RMS(Int)=  0.00199150
 Iteration  4 RMS(Cart)=  0.00000015 RMS(Int)=  0.00199150
 ITry= 1 IFail=0 DXMaxC= 3.45D-01 DCOld= 1.00D+10 DXMaxT= 3.00D-01 DXLimC= 3.00D+00 Rises=F
 Variable       Old X    -DE/DX   Delta X   Delta X   Delta X     New X
                                 (Linear)    (Quad)   (Total)
    R1        3.00140  -0.00044   0.00000  -0.00362  -0.00263   2.99877
    R2        2.64098  -0.00152   0.00000  -0.00457  -0.00403   2.63695
    R3        2.50689   0.00100   0.00000   0.00053   0.00053   2.50743
    R4        2.49856  -0.00107   0.00000  -0.00271  -0.00271   2.49585
    R5        2.46620   0.00040   0.00000  -0.00545  -0.00545   2.46075
    R6        2.47754   0.00036   0.00000  -0.00364  -0.00364   2.47390
    R7        3.59575   0.00610   0.00000   0.05226   0.05155   3.64730
    R8        3.20615  -0.00042   0.00000  -0.03746  -0.03803   3.16813
    R9        2.73921   0.00091   0.00000  -0.00523  -0.00523   2.73399
   R10        3.13678  -0.00089   0.00000   0.00597   0.00597   3.14275
   R11        3.29898  -0.00030   0.00000   0.00651   0.00651   3.30549
   R12        1.82001   0.00025   0.00000  -0.00042  -0.00042   1.81959
    A1        1.72682   0.00050   0.00000   0.01283   0.01299   1.73981
    A2        1.97300  -0.00381   0.00000  -0.01093  -0.01103   1.96197
    A3        1.97986   0.00317   0.00000   0.00249   0.00252   1.98239
    A4        1.89643   0.00026   0.00000   0.00971   0.00936   1.90579
    A5        2.00793  -0.00115   0.00000  -0.02287  -0.02256   1.98537
    A6        1.87820   0.00070   0.00000   0.00796   0.00800   1.88620
    A7        2.11633  -0.00014   0.00000  -0.01843  -0.01827   2.09806
    A8        1.94390  -0.00080   0.00000   0.00949   0.01012   1.95402
    A9        1.44957  -0.00063   0.00000  -0.01656  -0.01738   1.43219
   A10        1.92160  -0.00070   0.00000  -0.00341  -0.00386   1.91773
   A11        1.99071   0.00360   0.00000   0.02894   0.02870   2.01942
   A12        2.00435  -0.00128   0.00000  -0.00143  -0.00084   2.00351
   A13        1.36276  -0.00170   0.00000   0.00114   0.00176   1.36452
   A14        2.56317   0.00509   0.00000   0.16354   0.16213   2.72530
   A15        1.61143  -0.00091   0.00000  -0.05417  -0.05456   1.55687
   A16        1.41561   0.00137   0.00000  -0.02700  -0.02276   1.39285
   A17        2.32211  -0.00290   0.00000  -0.16501  -0.16226   2.15985
   A18        1.59465  -0.00309   0.00000   0.05101   0.05101   1.64566
   A19        1.46079   0.00458   0.00000   0.04205   0.04382   1.50461
   A20        1.69472   0.00078   0.00000   0.00339   0.00709   1.70180
   A21        1.57819  -0.00201   0.00000   0.00738   0.02017   1.59836
   A22        1.69354   0.00214   0.00000   0.01527   0.01430   1.70784
   A23        1.88291   0.00019   0.00000   0.00933   0.00933   1.89223
   A24        3.02704   0.00046   0.00000  -0.08117  -0.07731   2.94973
   A25        3.20641  -0.00166   0.00000  -0.11221  -0.11321   3.09320
    D1        2.22040   0.00299   0.00000  -0.00976  -0.00946   2.21093
    D2       -1.75873   0.00080   0.00000  -0.02386  -0.02328  -1.78201
    D3        0.23099  -0.00085   0.00000  -0.03121  -0.03040   0.20060
    D4       -2.05982   0.00216   0.00000   0.00429   0.00413  -2.05569
    D5        0.24423  -0.00004   0.00000  -0.00982  -0.00969   0.23454
    D6        2.23396  -0.00168   0.00000  -0.01717  -0.01680   2.21716
    D7        0.08475   0.00259   0.00000   0.00830   0.00812   0.09287
    D8        2.38881   0.00039   0.00000  -0.00581  -0.00570   2.38311
    D9       -1.90465  -0.00125   0.00000  -0.01316  -0.01281  -1.91746
   D10       -0.25972   0.00042   0.00000   0.02833   0.02832  -0.23140
   D11       -2.32135   0.00434   0.00000   0.03105   0.03104  -2.29031
   D12        1.85552   0.00401   0.00000   0.02887   0.02899   1.88450
   D13       -0.19157   0.00073   0.00000   0.02425   0.02376  -0.16781
   D14        2.64150   0.00117   0.00000  -0.04091  -0.04302   2.59848
   D15       -1.77818   0.00376   0.00000  -0.03937  -0.03985  -1.81803
   D16        1.29860   0.00541   0.00000   0.07284   0.07336   1.37196
   D17       -2.30694   0.00071   0.00000   0.04829   0.04855  -2.25839
   D18        0.52613   0.00115   0.00000  -0.01687  -0.01823   0.50790
   D19        2.38964   0.00373   0.00000  -0.01533  -0.01506   2.37458
   D20       -0.81677   0.00539   0.00000   0.09688   0.09815  -0.71862
   D21        1.73492  -0.00049   0.00000   0.02722   0.02715   1.76208
   D22       -1.71519  -0.00005   0.00000  -0.03794  -0.03963  -1.75482
   D23        0.14831   0.00254   0.00000  -0.03640  -0.03645   0.11186
   D24       -3.05809   0.00420   0.00000   0.07581   0.07676  -2.98133
   D25        0.21815  -0.00070   0.00000  -0.02763  -0.02709   0.19106
   D26       -2.69428  -0.00347   0.00000  -0.07432  -0.07702  -2.77130
   D27        1.82545  -0.00101   0.00000  -0.09371  -0.09356   1.73190
   D28       -1.21660  -0.00133   0.00000   0.00847   0.00503  -1.21157
   D29       -2.59759  -0.00256   0.00000  -0.22502  -0.22574  -2.82333
   D30        2.32208  -0.00073   0.00000  -0.22717  -0.22507   2.09701
   D31       -0.01165   0.00271   0.00000  -0.06948  -0.07087  -0.08252
         Item               Value     Threshold  Converged?
 Maximum Force            0.006100     0.000450     NO 
 RMS     Force            0.002349     0.000300     NO 
 Maximum Displacement     0.345011     0.001800     NO 
 RMS     Displacement     0.072210     0.001200     NO 
 Predicted change in Energy=-3.891776D-03
 Lowest energy point so far.  Saving SCF results.
 GradGradGradGradGradGradGradGradGradGradGradGradGradGradGradGradGradGrad

 Leave Link  103 at Fri May 23 04:12:20 2025, MaxMem=  3758096384 cpu:               0.1 elap:               0.1
 (Enter /apps/easybuild-2022/easybuild/software/Compiler/NVHPC/22.11-CUDA-11.7.0/Gaussian/g16c01-CUDA-11.7.0/g16/l202.exe)
                          Input orientation:                          
 ---------------------------------------------------------------------
 Center     Atomic      Atomic             Coordinates (Angstroms)
 Number     Number       Type             X           Y           Z
 ---------------------------------------------------------------------
      1          6           0       -0.838259    0.185617    0.911259
      2          6           0       -0.753334    0.023825   -0.665067
      3          9           0       -1.278381   -1.016506   -1.246182
      4          9           0       -1.119496    1.114605   -1.289528
      5         16           0        1.134756   -0.094845   -0.282723
      6          8           0        0.513134    0.378547    1.200564
      7          8           0        2.499781   -0.531942   -0.479646
      8          8           0        1.321939    1.460414   -0.841230
      9          9           0        0.628599   -1.711795    0.151958
     10          9           0       -1.520213    1.264803    1.273043
     11          9           0       -1.369242   -0.858298    1.521723
     12          1           0        2.253498    1.602540   -1.039075
 ---------------------------------------------------------------------
                    Distance matrix (angstroms):
                    1          2          3          4          5
     1  C    0.000000
     2  C    1.586882   0.000000
     3  F    2.508657   1.302174   0.000000
     4  F    2.405323   1.309132   2.137466   0.000000
     5  S    2.323153   1.930066   2.756981   2.749196   0.000000
     6  O    1.395414   2.282619   3.338003   3.067217   1.676501
     7  O    3.686735   3.305452   3.885471   4.057855   1.446763
     8  O    3.059866   2.530135   3.613971   2.506224   1.663069
     9  F    2.515627   2.364243   2.464710   3.622465   1.749191
    10  F    1.326873   2.425778   3.407249   2.598058   3.364210
    11  F    1.320745   2.437116   2.773911   3.443523   3.179448
    12  H    3.920515   3.416616   4.401871   3.417294   2.169048
                    6          7          8          9         10
     6  O    0.000000
     7  O    2.756603   0.000000
     8  O    2.448168   2.342549   0.000000
     9  F    2.341459   2.300499   3.395593   0.000000
    10  F    2.219279   4.739256   3.547709   3.838535   0.000000
    11  F    2.275141   4.368217   4.266430   2.568284   2.142940
    12  H    3.089176   2.220276   0.962884   3.878617   4.438564
                   11         12
    11  F    0.000000
    12  H    5.073229   0.000000
 Symmetry turned off by external request.
 Stoichiometry    C2HF5O3S
 Rotational constants (GHZ):           1.4151868           0.9727584           0.9089349
 Leave Link  202 at Fri May 23 04:12:20 2025, MaxMem=  3758096384 cpu:               0.0 elap:               0.0
 (Enter /apps/easybuild-2022/easybuild/software/Compiler/NVHPC/22.11-CUDA-11.7.0/Gaussian/g16c01-CUDA-11.7.0/g16/l301.exe)
 Standard basis: 6-311++G(d,p) (5D, 7F)
 Ernie: Thresh=  0.10000D-02 Tol=  0.10000D-05 Strict=F.
   257 basis functions,   419 primitive gaussians,   268 cartesian basis functions
    49 alpha electrons       49 beta electrons
       nuclear repulsion energy       949.9918122605 Hartrees.
 IExCor= 4639 DFT=T Ex+Corr=wB97XD ExCW=0 ScaHFX=  1.000000
 ScaDFX=  1.000000  1.000000  1.000000  1.000000 ScalE2=  1.000000  1.000000
 IRadAn=      5 IRanWt=     -1 IRanGd=            0 ICorTp=0 IEmpDi=121
 HFx  wShort=  0.000000 wLong=  0.200000 cFull=  0.222036 cShort=  0.000000 cLong=  0.777964
 DFx  wShort=  0.000000 wLong=  0.200000 cFull=  0.000000 cShort=  0.000000 cLong=  1.000000
 NAtoms=   12 NActive=   12 NUniq=   12 SFac= 1.00D+00 NAtFMM=   60 NAOKFM=F Big=F
 Integral buffers will be    131072 words long.
 Raffenetti 2 integral format.
 Two-electron integral symmetry is turned off.
 R6Disp:  Grimme-D2 Dispersion energy=       -0.0050680037 Hartrees.
 Nuclear repulsion after empirical dispersion term =      949.9867442568 Hartrees.
 Leave Link  301 at Fri May 23 04:12:20 2025, MaxMem=  3758096384 cpu:               0.1 elap:               0.0
 (Enter /apps/easybuild-2022/easybuild/software/Compiler/NVHPC/22.11-CUDA-11.7.0/Gaussian/g16c01-CUDA-11.7.0/g16/l302.exe)
 NPDir=0 NMtPBC=     1 NCelOv=     1 NCel=       1 NClECP=     1 NCelD=      1
         NCelK=      1 NCelE2=     1 NClLst=     1 CellRange=     0.0.
 One-electron integrals computed using PRISM.
 NBasis=   257 RedAO= T EigKep=  6.27D-05  NBF=   257
 NBsUse=   257 1.00D-06 EigRej= -1.00D+00 NBFU=   257
 Precomputing XC quadrature grid using
 IXCGrd= 4 IRadAn=           5 IRanWt=          -1 IRanGd=           0 AccXCQ= 0.00D+00.
 Generated NRdTot=       0 NPtTot=           0 NUsed=           0 NTot=          32
 NSgBfM=   268   268   268   268   268 MxSgAt=    12 MxSgA2=    12.
 Leave Link  302 at Fri May 23 04:12:20 2025, MaxMem=  3758096384 cpu:               0.7 elap:               0.1
 (Enter /apps/easybuild-2022/easybuild/software/Compiler/NVHPC/22.11-CUDA-11.7.0/Gaussian/g16c01-CUDA-11.7.0/g16/l303.exe)
 DipDrv:  MaxL=1.
 Leave Link  303 at Fri May 23 04:12:20 2025, MaxMem=  3758096384 cpu:               0.1 elap:               0.1
 (Enter /apps/easybuild-2022/easybuild/software/Compiler/NVHPC/22.11-CUDA-11.7.0/Gaussian/g16c01-CUDA-11.7.0/g16/l401.exe)
 Initial guess from the checkpoint file:  "2003846667223680600001_r12_insertion_R_2_1_9_IRC_F_prod.chk"
 B after Tr=     0.002856   -0.008346   -0.010332
         Rot=    0.999993    0.001854   -0.002202    0.002330 Ang=   0.42 deg.
 Guess basis will be translated and rotated to current coordinates.
 JPrj=2 DoOrth=T DoCkMO=T.
 Generating alternative initial guess.
 ExpMin= 3.60D-02 ExpMax= 9.34D+04 ExpMxC= 3.17D+03 IAcc=3 IRadAn=         5 AccDes= 0.00D+00
 Harris functional with IExCor= 4639 and IRadAn=       5 diagonalized for initial guess.
 HarFok:  IExCor= 4639 AccDes= 0.00D+00 IRadAn=         5 IDoV= 1 UseB2=F ITyADJ=14
 ICtDFT=  3500011 ScaDFX=  1.000000  1.000000  1.000000  1.000000
 FoFCou: FMM=F IPFlag=           0 FMFlag=      100000 FMFlg1=           0
         NFxFlg=           0 DoJE=T BraDBF=F KetDBF=T FulRan=T
         wScrn=  0.000000 ICntrl=       500 IOpCl=  0 I1Cent=   200000004 NGrid=           0
         NMat0=    1 NMatS0=      1 NMatT0=    0 NMatD0=    1 NMtDS0=    0 NMtDT0=    0
 Symmetry not used in FoFCou.
 Harris En= -1167.04140740499    
 Leave Link  401 at Fri May 23 04:12:20 2025, MaxMem=  3758096384 cpu:               3.0 elap:               0.6
 (Enter /apps/easybuild-2022/easybuild/software/Compiler/NVHPC/22.11-CUDA-11.7.0/Gaussian/g16c01-CUDA-11.7.0/g16/l502.exe)
 Keep R1 ints in memory in canonical form, NReq=1117474633.
 FoFCou: FMM=F IPFlag=           0 FMFlag=           0 FMFlg1=           0
         NFxFlg=           0 DoJE=F BraDBF=F KetDBF=F FulRan=T
         wScrn=  0.000000 ICntrl=       600 IOpCl=  0 I1Cent=           0 NGrid=           0
         NMat0=    1 NMatS0=  33153 NMatT0=    0 NMatD0=    1 NMtDS0=    0 NMtDT0=    0
 Symmetry not used in FoFCou.
 Two-electron integral symmetry not used.
 Closed shell SCF:
 Using DIIS extrapolation, IDIIS=  1040.
 NGot=  3758096384 LenX=  2658793852 LenY=  2658721587
 Requested convergence on RMS density matrix=1.00D-08 within  32 cycles.
 Requested convergence on MAX density matrix=1.00D-06.
 Requested convergence on             energy=1.00D-06.
 No special actions if energy rises.

 Cycle   1  Pass 1  IDiag  1:
 E= -1199.68445646404    
 DIIS: error= 6.46D-03 at cycle   1 NSaved=   1.
 NSaved= 1 IEnMin= 1 EnMin= -1199.68445646404     IErMin= 1 ErrMin= 6.46D-03
 ErrMax= 6.46D-03  0.00D+00 EMaxC= 1.00D-01 BMatC= 3.08D-02 BMatP= 3.08D-02
 IDIUse=3 WtCom= 9.35D-01 WtEn= 6.46D-02
 Coeff-Com:  0.100D+01
 Coeff-En:   0.100D+01
 Coeff:      0.100D+01
 Gap=     0.811 Goal=   None    Shift=    0.000
 GapD=    0.811 DampG=2.000 DampE=1.000 DampFc=2.0000 IDamp=-1.
 RMSDP=3.09D-03 MaxDP=1.22D-01              OVMax= 4.28D-02

 Cycle   2  Pass 1  IDiag  1:
 E= -1199.72446062648     Delta-E=       -0.040004162446 Rises=F Damp=F
 DIIS: error= 1.32D-03 at cycle   2 NSaved=   2.
 NSaved= 2 IEnMin= 2 EnMin= -1199.72446062648     IErMin= 2 ErrMin= 1.32D-03
 ErrMax= 1.32D-03  0.00D+00 EMaxC= 1.00D-01 BMatC= 1.04D-03 BMatP= 3.08D-02
 IDIUse=3 WtCom= 9.87D-01 WtEn= 1.32D-02
 Coeff-Com: -0.115D+00 0.111D+01
 Coeff-En:   0.000D+00 0.100D+01
 Coeff:     -0.113D+00 0.111D+01
 Gap=     0.392 Goal=   None    Shift=    0.000
 RMSDP=4.97D-04 MaxDP=1.37D-02 DE=-4.00D-02 OVMax= 1.36D-02

 Cycle   3  Pass 1  IDiag  1:
 E= -1199.72652175185     Delta-E=       -0.002061125366 Rises=F Damp=F
 DIIS: error= 8.06D-04 at cycle   3 NSaved=   3.
 NSaved= 3 IEnMin= 3 EnMin= -1199.72652175185     IErMin= 3 ErrMin= 8.06D-04
 ErrMax= 8.06D-04  0.00D+00 EMaxC= 1.00D-01 BMatC= 4.08D-04 BMatP= 1.04D-03
 IDIUse=3 WtCom= 9.92D-01 WtEn= 8.06D-03
 Coeff-Com: -0.656D-01 0.454D+00 0.612D+00
 Coeff-En:   0.000D+00 0.000D+00 0.100D+01
 Coeff:     -0.650D-01 0.450D+00 0.615D+00
 Gap=     0.392 Goal=   None    Shift=    0.000
 RMSDP=1.11D-04 MaxDP=2.73D-03 DE=-2.06D-03 OVMax= 3.96D-03

 Cycle   4  Pass 1  IDiag  1:
 E= -1199.72681824378     Delta-E=       -0.000296491929 Rises=F Damp=F
 DIIS: error= 4.28D-04 at cycle   4 NSaved=   4.
 NSaved= 4 IEnMin= 4 EnMin= -1199.72681824378     IErMin= 4 ErrMin= 4.28D-04
 ErrMax= 4.28D-04  0.00D+00 EMaxC= 1.00D-01 BMatC= 6.95D-05 BMatP= 4.08D-04
 IDIUse=3 WtCom= 9.96D-01 WtEn= 4.28D-03
 Coeff-Com:  0.287D-03-0.794D-01 0.263D+00 0.816D+00
 Coeff-En:   0.000D+00 0.000D+00 0.000D+00 0.100D+01
 Coeff:      0.286D-03-0.791D-01 0.262D+00 0.817D+00
 Gap=     0.393 Goal=   None    Shift=    0.000
 RMSDP=5.89D-05 MaxDP=2.85D-03 DE=-2.96D-04 OVMax= 2.65D-03

 Cycle   5  Pass 1  IDiag  1:
 E= -1199.72688807366     Delta-E=       -0.000069829876 Rises=F Damp=F
 DIIS: error= 6.68D-05 at cycle   5 NSaved=   5.
 NSaved= 5 IEnMin= 5 EnMin= -1199.72688807366     IErMin= 5 ErrMin= 6.68D-05
 ErrMax= 6.68D-05  0.00D+00 EMaxC= 1.00D-01 BMatC= 3.50D-06 BMatP= 6.95D-05
 IDIUse=1 WtCom= 1.00D+00 WtEn= 0.00D+00
 Coeff-Com:  0.423D-02-0.563D-01 0.451D-01 0.261D+00 0.745D+00
 Coeff:      0.423D-02-0.563D-01 0.451D-01 0.261D+00 0.745D+00
 Gap=     0.392 Goal=   None    Shift=    0.000
 RMSDP=1.71D-05 MaxDP=7.77D-04 DE=-6.98D-05 OVMax= 6.63D-04

 Cycle   6  Pass 1  IDiag  1:
 E= -1199.72689247982     Delta-E=       -0.000004406167 Rises=F Damp=F
 DIIS: error= 3.81D-05 at cycle   6 NSaved=   6.
 NSaved= 6 IEnMin= 6 EnMin= -1199.72689247982     IErMin= 6 ErrMin= 3.81D-05
 ErrMax= 3.81D-05  0.00D+00 EMaxC= 1.00D-01 BMatC= 5.78D-07 BMatP= 3.50D-06
 IDIUse=1 WtCom= 1.00D+00 WtEn= 0.00D+00
 Coeff-Com:  0.150D-02-0.111D-01-0.164D-01-0.532D-02 0.281D+00 0.751D+00
 Coeff:      0.150D-02-0.111D-01-0.164D-01-0.532D-02 0.281D+00 0.751D+00
 Gap=     0.392 Goal=   None    Shift=    0.000
 RMSDP=7.00D-06 MaxDP=2.74D-04 DE=-4.41D-06 OVMax= 3.09D-04

 Cycle   7  Pass 1  IDiag  1:
 E= -1199.72689321256     Delta-E=       -0.000000732734 Rises=F Damp=F
 DIIS: error= 1.08D-05 at cycle   7 NSaved=   7.
 NSaved= 7 IEnMin= 7 EnMin= -1199.72689321256     IErMin= 7 ErrMin= 1.08D-05
 ErrMax= 1.08D-05  0.00D+00 EMaxC= 1.00D-01 BMatC= 8.02D-08 BMatP= 5.78D-07
 IDIUse=1 WtCom= 1.00D+00 WtEn= 0.00D+00
 Coeff-Com:  0.288D-04 0.323D-02-0.132D-01-0.385D-01 0.111D-01 0.288D+00
 Coeff-Com:  0.749D+00
 Coeff:      0.288D-04 0.323D-02-0.132D-01-0.385D-01 0.111D-01 0.288D+00
 Coeff:      0.749D+00
 Gap=     0.392 Goal=   None    Shift=    0.000
 RMSDP=2.89D-06 MaxDP=9.15D-05 DE=-7.33D-07 OVMax= 1.28D-04

 Cycle   8  Pass 1  IDiag  1:
 E= -1199.72689331155     Delta-E=       -0.000000098992 Rises=F Damp=F
 DIIS: error= 6.02D-06 at cycle   8 NSaved=   8.
 NSaved= 8 IEnMin= 8 EnMin= -1199.72689331155     IErMin= 8 ErrMin= 6.02D-06
 ErrMax= 6.02D-06  0.00D+00 EMaxC= 1.00D-01 BMatC= 1.92D-08 BMatP= 8.02D-08
 IDIUse=1 WtCom= 1.00D+00 WtEn= 0.00D+00
 Coeff-Com: -0.200D-03 0.334D-02-0.443D-02-0.193D-01-0.337D-01 0.389D-01
 Coeff-Com:  0.382D+00 0.634D+00
 Coeff:     -0.200D-03 0.334D-02-0.443D-02-0.193D-01-0.337D-01 0.389D-01
 Coeff:      0.382D+00 0.634D+00
 Gap=     0.392 Goal=   None    Shift=    0.000
 RMSDP=1.16D-06 MaxDP=7.95D-05 DE=-9.90D-08 OVMax= 5.46D-05

 Cycle   9  Pass 1  IDiag  1:
 E= -1199.72689333085     Delta-E=       -0.000000019300 Rises=F Damp=F
 DIIS: error= 1.52D-06 at cycle   9 NSaved=   9.
 NSaved= 9 IEnMin= 9 EnMin= -1199.72689333085     IErMin= 9 ErrMin= 1.52D-06
 ErrMax= 1.52D-06  0.00D+00 EMaxC= 1.00D-01 BMatC= 1.47D-09 BMatP= 1.92D-08
 IDIUse=1 WtCom= 1.00D+00 WtEn= 0.00D+00
 Coeff-Com: -0.764D-04 0.875D-03-0.209D-03-0.313D-02-0.131D-01-0.171D-01
 Coeff-Com:  0.592D-01 0.224D+00 0.749D+00
 Coeff:     -0.764D-04 0.875D-03-0.209D-03-0.313D-02-0.131D-01-0.171D-01
 Coeff:      0.592D-01 0.224D+00 0.749D+00
 Gap=     0.392 Goal=   None    Shift=    0.000
 RMSDP=4.39D-07 MaxDP=1.40D-05 DE=-1.93D-08 OVMax= 2.69D-05

 Cycle  10  Pass 1  IDiag  1:
 E= -1199.72689333303     Delta-E=       -0.000000002186 Rises=F Damp=F
 DIIS: error= 9.00D-07 at cycle  10 NSaved=  10.
 NSaved=10 IEnMin=10 EnMin= -1199.72689333303     IErMin=10 ErrMin= 9.00D-07
 ErrMax= 9.00D-07  0.00D+00 EMaxC= 1.00D-01 BMatC= 4.80D-10 BMatP= 1.47D-09
 IDIUse=1 WtCom= 1.00D+00 WtEn= 0.00D+00
 Coeff-Com:  0.108D-04-0.384D-03 0.100D-02 0.318D-02 0.184D-02-0.185D-01
 Coeff-Com: -0.640D-01-0.477D-01 0.385D+00 0.740D+00
 Coeff:      0.108D-04-0.384D-03 0.100D-02 0.318D-02 0.184D-02-0.185D-01
 Coeff:     -0.640D-01-0.477D-01 0.385D+00 0.740D+00
 Gap=     0.392 Goal=   None    Shift=    0.000
 RMSDP=2.39D-07 MaxDP=8.35D-06 DE=-2.19D-09 OVMax= 1.58D-05

 Cycle  11  Pass 1  IDiag  1:
 E= -1199.72689333373     Delta-E=       -0.000000000699 Rises=F Damp=F
 DIIS: error= 2.50D-07 at cycle  11 NSaved=  11.
 NSaved=11 IEnMin=11 EnMin= -1199.72689333373     IErMin=11 ErrMin= 2.50D-07
 ErrMax= 2.50D-07  0.00D+00 EMaxC= 1.00D-01 BMatC= 2.89D-11 BMatP= 4.80D-10
 IDIUse=1 WtCom= 1.00D+00 WtEn= 0.00D+00
 Coeff-Com:  0.108D-04-0.204D-03 0.323D-03 0.127D-02 0.188D-02-0.394D-02
 Coeff-Com: -0.255D-01-0.369D-01 0.434D-01 0.218D+00 0.802D+00
 Coeff:      0.108D-04-0.204D-03 0.323D-03 0.127D-02 0.188D-02-0.394D-02
 Coeff:     -0.255D-01-0.369D-01 0.434D-01 0.218D+00 0.802D+00
 Gap=     0.392 Goal=   None    Shift=    0.000
 RMSDP=6.87D-08 MaxDP=2.18D-06 DE=-6.99D-10 OVMax= 6.00D-06

 Cycle  12  Pass 1  IDiag  1:
 E= -1199.72689333377     Delta-E=       -0.000000000031 Rises=F Damp=F
 DIIS: error= 1.34D-07 at cycle  12 NSaved=  12.
 NSaved=12 IEnMin=12 EnMin= -1199.72689333377     IErMin=12 ErrMin= 1.34D-07
 ErrMax= 1.34D-07  0.00D+00 EMaxC= 1.00D-01 BMatC= 1.01D-11 BMatP= 2.89D-11
 IDIUse=1 WtCom= 1.00D+00 WtEn= 0.00D+00
 Coeff-Com:  0.290D-05-0.237D-04-0.348D-04 0.532D-05 0.569D-03 0.161D-02
 Coeff-Com:  0.106D-03-0.795D-02-0.535D-01-0.434D-01 0.389D+00 0.713D+00
 Coeff:      0.290D-05-0.237D-04-0.348D-04 0.532D-05 0.569D-03 0.161D-02
 Coeff:      0.106D-03-0.795D-02-0.535D-01-0.434D-01 0.389D+00 0.713D+00
 Gap=     0.392 Goal=   None    Shift=    0.000
 RMSDP=3.10D-08 MaxDP=8.75D-07 DE=-3.14D-11 OVMax= 2.73D-06

 Cycle  13  Pass 1  IDiag  1:
 E= -1199.72689333376     Delta-E=        0.000000000003 Rises=F Damp=F
 DIIS: error= 5.31D-08 at cycle  13 NSaved=  13.
 NSaved=13 IEnMin=12 EnMin= -1199.72689333377     IErMin=13 ErrMin= 5.31D-08
 ErrMax= 5.31D-08  0.00D+00 EMaxC= 1.00D-01 BMatC= 8.24D-13 BMatP= 1.01D-11
 IDIUse=1 WtCom= 1.00D+00 WtEn= 0.00D+00
 Coeff-Com: -0.881D-06 0.284D-04-0.700D-04-0.226D-03-0.128D-03 0.122D-02
 Coeff-Com:  0.449D-02 0.402D-02-0.249D-01-0.527D-01-0.835D-02 0.216D+00
 Coeff-Com:  0.860D+00
 Coeff:     -0.881D-06 0.284D-04-0.700D-04-0.226D-03-0.128D-03 0.122D-02
 Coeff:      0.449D-02 0.402D-02-0.249D-01-0.527D-01-0.835D-02 0.216D+00
 Coeff:      0.860D+00
 Gap=     0.392 Goal=   None    Shift=    0.000
 RMSDP=1.23D-08 MaxDP=3.95D-07 DE= 3.18D-12 OVMax= 1.17D-06

 Cycle  14  Pass 1  IDiag  1:
 E= -1199.72689333380     Delta-E=       -0.000000000041 Rises=F Damp=F
 DIIS: error= 1.33D-08 at cycle  14 NSaved=  14.
 NSaved=14 IEnMin=14 EnMin= -1199.72689333380     IErMin=14 ErrMin= 1.33D-08
 ErrMax= 1.33D-08  0.00D+00 EMaxC= 1.00D-01 BMatC= 1.47D-13 BMatP= 8.24D-13
 IDIUse=1 WtCom= 1.00D+00 WtEn= 0.00D+00
 Coeff-Com: -0.629D-06 0.135D-04-0.237D-04-0.892D-04-0.112D-03 0.292D-03
 Coeff-Com:  0.172D-02 0.255D-02-0.347D-02-0.158D-01-0.491D-01 0.252D-02
 Coeff-Com:  0.350D+00 0.711D+00
 Coeff:     -0.629D-06 0.135D-04-0.237D-04-0.892D-04-0.112D-03 0.292D-03
 Coeff:      0.172D-02 0.255D-02-0.347D-02-0.158D-01-0.491D-01 0.252D-02
 Coeff:      0.350D+00 0.711D+00
 Gap=     0.392 Goal=   None    Shift=    0.000
 RMSDP=3.93D-09 MaxDP=1.12D-07 DE=-4.09D-11 OVMax= 3.18D-07

 SCF Done:  E(RwB97XD) =  -1199.72689333     A.U. after   14 cycles
            NFock= 14  Conv=0.39D-08     -V/T= 2.0020
 KE= 1.197358892658D+03 PE=-4.746717337653D+03 EE= 1.399644807404D+03
 Leave Link  502 at Fri May 23 04:12:35 2025, MaxMem=  3758096384 cpu:              68.4 elap:              14.5
 (Enter /apps/easybuild-2022/easybuild/software/Compiler/NVHPC/22.11-CUDA-11.7.0/Gaussian/g16c01-CUDA-11.7.0/g16/l508.exe)
 QCSCF skips out because SCF is already converged.
 Leave Link  508 at Fri May 23 04:12:35 2025, MaxMem=  3758096384 cpu:               0.1 elap:               0.0
 (Enter /apps/easybuild-2022/easybuild/software/Compiler/NVHPC/22.11-CUDA-11.7.0/Gaussian/g16c01-CUDA-11.7.0/g16/l701.exe)
 ... and contract with generalized density number  0.
 Compute integral first derivatives.
 R6Disp: Adding Grimme-D2 dispersion energy 1st derivatives to the gradient.
 Leave Link  701 at Fri May 23 04:12:35 2025, MaxMem=  3758096384 cpu:               0.5 elap:               0.1
 (Enter /apps/easybuild-2022/easybuild/software/Compiler/NVHPC/22.11-CUDA-11.7.0/Gaussian/g16c01-CUDA-11.7.0/g16/l702.exe)
 L702 exits ... SP integral derivatives will be done elsewhere.
 Leave Link  702 at Fri May 23 04:12:35 2025, MaxMem=  3758096384 cpu:               0.1 elap:               0.0
 (Enter /apps/easybuild-2022/easybuild/software/Compiler/NVHPC/22.11-CUDA-11.7.0/Gaussian/g16c01-CUDA-11.7.0/g16/l703.exe)
 Integral derivatives from FoFJK, PRISM(SPDF).
 Compute integral first derivatives, UseDBF=F ICtDFT=           0.
 Calling FoFJK, ICntrl=      2127 FMM=F ISym2X=0 I1Cent= 0 IOpClX= 0 NMat=1 NMatS=1 NMatT=0.
 FoFJK:  IHMeth= 1 ICntrl=    2127 DoSepK=T KAlg= 0 I1Cent=           0 FoldK=F
 IRaf=         1 NMat=       1 IRICut=       1 DoRegI=T DoRafI=F ISym2E= 0 IDoP0=0 IntGTp=1.
 FoFCou: FMM=F IPFlag=           0 FMFlag=      100000 FMFlg1=         800
         NFxFlg=           0 DoJE=F BraDBF=F KetDBF=F FulRan=T
         wScrn=  0.000000 ICntrl=      2527 IOpCl=  0 I1Cent=           0 NGrid=           0
         NMat0=    1 NMatS0=      1 NMatT0=    0 NMatD0=    1 NMtDS0=    0 NMtDT0=    0
 Symmetry not used in FoFCou.
 Leave Link  703 at Fri May 23 04:12:40 2025, MaxMem=  3758096384 cpu:              35.8 elap:               4.7
 (Enter /apps/easybuild-2022/easybuild/software/Compiler/NVHPC/22.11-CUDA-11.7.0/Gaussian/g16c01-CUDA-11.7.0/g16/l716.exe)
 Dipole        =-7.41959321D-02 8.59705465D-01-6.11534679D-01
 -------------------------------------------------------------------
 Center     Atomic                   Forces (Hartrees/Bohr)
 Number     Number              X              Y              Z
 -------------------------------------------------------------------
      1        6          -0.000249650    0.001840181    0.000087576
      2        6          -0.000523466    0.000712190    0.000969230
      3        9          -0.003552826   -0.000497570    0.002513505
      4        9           0.000236067   -0.000365684   -0.001748242
      5       16           0.000357720   -0.000508979    0.000206372
      6        8          -0.001604360   -0.002562959    0.000401536
      7        8           0.000519645    0.000855221    0.001259095
      8        8          -0.000257074   -0.000881492    0.000227344
      9        9           0.004329191   -0.001340293   -0.004719690
     10        9          -0.000472156    0.001258651   -0.001728615
     11        9           0.000509139    0.000937214    0.001366613
     12        1           0.000707770    0.000553519    0.001165274
 -------------------------------------------------------------------
 Cartesian Forces:  Max     0.004719690 RMS     0.001612495
 Leave Link  716 at Fri May 23 04:12:40 2025, MaxMem=  3758096384 cpu:               0.1 elap:               0.0
 (Enter /apps/easybuild-2022/easybuild/software/Compiler/NVHPC/22.11-CUDA-11.7.0/Gaussian/g16c01-CUDA-11.7.0/g16/l103.exe)

 GradGradGradGradGradGradGradGradGradGradGradGradGradGradGradGradGradGrad
 Berny optimization.
 Using GEDIIS/GDIIS optimizer.
[...]
 ! R10   R(5,8)                  1.6656         -DE/DX =    0.0                 !
 ! R11   R(5,9)                  1.7228         -DE/DX =    0.0                 !
 ! R12   R(8,12)                 0.9644         -DE/DX =    0.0                 !
 ! A1    A(2,1,6)              101.0522         -DE/DX =    0.0                 !
 ! A2    A(2,1,10)             111.9715         -DE/DX =    0.0                 !
 ! A3    A(2,1,11)             112.6492         -DE/DX =    0.0                 !
 ! A4    A(6,1,10)             110.9451         -DE/DX =    0.0                 !
 ! A5    A(6,1,11)             111.4742         -DE/DX =    0.0                 !
 ! A6    A(10,1,11)            108.6413         -DE/DX =    0.0                 !
 ! A7    A(1,2,3)              115.9476         -DE/DX =    0.0                 !
 ! A8    A(1,2,4)              114.8857         -DE/DX =    0.0                 !
 ! A9    A(1,2,5)               81.7748         -DE/DX =    0.0                 !
 ! A10   A(3,2,4)              109.758          -DE/DX =    0.0                 !
 ! A11   A(3,2,5)              116.3969         -DE/DX =    0.0                 !
 ! A12   A(4,2,5)              115.88           -DE/DX =    0.0                 !
 ! A13   A(2,5,6)               77.1323         -DE/DX =    0.0                 !
 ! A14   A(2,5,7)              167.8752         -DE/DX =    0.0                 !
 ! A15   A(2,5,8)               85.2377         -DE/DX =    0.0                 !
 ! A16   A(2,5,9)               82.1827         -DE/DX =    0.0                 !
 ! A17   A(6,5,7)              114.0816         -DE/DX =    0.0                 !
 ! A18   A(6,5,8)               97.9121         -DE/DX =    0.0                 !
 ! A19   A(6,5,9)               92.1591         -DE/DX =    0.0                 !
 ! A20   A(7,5,8)               97.2482         -DE/DX =    0.0                 !
 ! A21   A(7,5,9)               92.4499         -DE/DX =    0.0                 !
 ! A22   A(1,6,5)              100.0236         -DE/DX =    0.0                 !
 ! A23   A(5,8,12)             108.5878         -DE/DX =    0.0                 !
 ! A24   L(8,5,9,2,-1)         167.4205         -DE/DX =    0.0                 !
 ! A25   L(8,5,9,2,-2)         166.7161         -DE/DX =    0.0                 !
 ! D1    D(6,1,2,3)            116.4194         -DE/DX =    0.0                 !
 ! D2    D(6,1,2,4)           -113.7777         -DE/DX =    0.0                 !
 ! D3    D(6,1,2,5)              1.0007         -DE/DX =    0.0                 !
 ! D4    D(10,1,2,3)          -125.4451         -DE/DX =    0.0                 !
 ! D5    D(10,1,2,4)             4.3578         -DE/DX =    0.0                 !
 ! D6    D(10,1,2,5)           119.1363         -DE/DX =    0.0                 !
 ! D7    D(11,1,2,3)            -2.6372         -DE/DX =    0.0                 !
 ! D8    D(11,1,2,4)           127.1658         -DE/DX =    0.0                 !
 ! D9    D(11,1,2,5)          -118.0558         -DE/DX =    0.0                 !
 ! D10   D(2,1,6,5)             -1.1899         -DE/DX =    0.0                 !
 ! D11   D(10,1,6,5)          -120.0683         -DE/DX =    0.0                 !
 ! D12   D(11,1,6,5)           118.7091         -DE/DX =    0.0                 !
 ! D13   D(1,2,5,6)             -0.8326         -DE/DX =    0.0                 !
 ! D14   D(1,2,5,7)            157.5045         -DE/DX =    0.0                 !
 ! D15   D(1,2,5,8)           -100.0813         -DE/DX =    0.0                 !
 ! D16   D(1,2,5,9)             93.2026         -DE/DX =    0.0                 !
 ! D17   D(3,2,5,6)           -115.7816         -DE/DX =    0.0                 !
 ! D18   D(3,2,5,7)             42.5556         -DE/DX =    0.0                 !
 ! D19   D(3,2,5,8)            144.9697         -DE/DX =    0.0                 !
 ! D20   D(3,2,5,9)            -21.7464         -DE/DX =    0.0                 !
 ! D21   D(4,2,5,6)            112.8988         -DE/DX =    0.0                 !
 ! D22   D(4,2,5,7)            -88.7641         -DE/DX =    0.0                 !
 ! D23   D(4,2,5,8)             13.6501         -DE/DX =    0.0                 !
 ! D24   D(4,2,5,9)           -153.066          -DE/DX =    0.0                 !
 ! D25   D(2,5,6,1)              0.9556         -DE/DX =    0.0                 !
 ! D26   D(7,5,6,1)           -174.1726         -DE/DX =    0.0                 !
 ! D27   D(8,5,6,1)             84.1947         -DE/DX =    0.0                 !
 ! D28   D(9,5,6,1)            -80.5201         -DE/DX =    0.0                 !
 ! D29   D(2,5,8,12)           176.8314         -DE/DX =    0.0                 !
 ! D30   D(6,5,8,12)           100.5526         -DE/DX =    0.0                 !
 ! D31   D(7,5,8,12)           -15.1025         -DE/DX =    0.0                 !
 --------------------------------------------------------------------------------
 GradGradGradGradGradGradGradGradGradGradGradGradGradGradGradGradGradGrad

 Leave Link  103 at Fri May 23 04:17:54 2025, MaxMem=  3758096384 cpu:               0.1 elap:               0.0
 (Enter /apps/easybuild-2022/easybuild/software/Compiler/NVHPC/22.11-CUDA-11.7.0/Gaussian/g16c01-CUDA-11.7.0/g16/l9999.exe)

 ----------------------------------------------------------------------

 Electric dipole moment (input orientation):
 (Debye = 10**-18 statcoulomb cm , SI units = C m)
                  (au)            (Debye)         (10**-30 SI)
   Tot        0.103562D+01      0.263230D+01      0.878039D+01
   x         -0.217583D+00     -0.553040D+00     -0.184474D+01
   y          0.926392D+00      0.235465D+01      0.785428D+01
   z         -0.408624D+00     -0.103862D+01     -0.346446D+01

 Dipole polarizability, Alpha (input orientation).
 (esu units = cm**3 , SI units = C**2 m**2 J**-1)
 Alpha(0;0):
               (au)            (10**-24 esu)      (10**-40 SI)
   iso        0.592530D+02      0.878038D+01      0.976950D+01
   aniso      0.207935D+02      0.308127D+01      0.342838D+01
   xx         0.713057D+02      0.105664D+02      0.117567D+02
   yx        -0.509013D+00     -0.754279D-01     -0.839248D-01
   yy         0.577953D+02      0.856437D+01      0.952915D+01
   zx        -0.307111D+01     -0.455092D+00     -0.506358D+00
   zy        -0.214638D+01     -0.318061D+00     -0.353891D+00
   zz         0.486579D+02      0.721036D+01      0.802261D+01

 ----------------------------------------------------------------------

 Dipole orientation:
     6         -1.77297197         -1.51130666          0.06479834
     6         -1.17937669          1.31782941          0.78850401
     9         -2.39075673          3.03483430         -0.49440206
     9         -1.31966253          1.82449309          3.20067400
    16          2.20256283          0.37103381         -0.48479033
     8          0.55545902         -2.30363420         -0.80761845
     8          4.73959065          0.24699951         -1.49348105
     8          2.96601931          0.04593800          2.55138145
     9          1.00888288          1.58581641         -3.25941072
     9         -2.49133500         -2.85989933          2.05745268
     9         -3.53078650         -1.70468980         -1.70855902
     1          4.68178704         -0.55912848          2.65737037

 Electric dipole moment (dipole orientation):
 (Debye = 10**-18 statcoulomb cm , SI units = C m)
                  (au)            (Debye)         (10**-30 SI)
   Tot        0.103562D+01      0.263230D+01      0.878039D+01
   x          0.000000D+00      0.000000D+00      0.000000D+00
   y          0.000000D+00      0.000000D+00      0.000000D+00
   z          0.103562D+01      0.263230D+01      0.878039D+01

 Dipole polarizability, Alpha (dipole orientation).
 (esu units = cm**3 , SI units = C**2 m**2 J**-1)
 Alpha(0;0):
               (au)            (10**-24 esu)      (10**-40 SI)
   iso        0.592530D+02      0.878038D+01      0.976950D+01
   aniso      0.207935D+02      0.308127D+01      0.342838D+01
   xx         0.712990D+02      0.105654D+02      0.117556D+02
   yx        -0.621207D+00     -0.920533D-01     -0.102423D+00
   yy         0.482935D+02      0.715637D+01      0.796253D+01
   zx        -0.237729D+01     -0.352278D+00     -0.391962D+00
   zy        -0.221068D+01     -0.327589D+00     -0.364492D+00
   zz         0.581664D+02      0.861937D+01      0.959034D+01

 ----------------------------------------------------------------------
 Unable to Open any file for archive entry.
 1\1\GINC-SPARTAN-BM144\Freq\RwB97XD\6-311++G(d,p)\C2H1F5O3S1\AKHALILOV
 \23-May-2025\0\\#P Geom=AllCheck Guess=TCheck SCRF=Check GenChk RwB97X
 D/6-311++G(d,p) Freq\\Gaussian input prepared by ASE\\0,1\C,-0.8079463
 75,0.2451040177,0.8989832831\C,-0.7859901862,-0.0080891638,-0.65732546
 77\F,-1.3865492518,-1.0890204547,-1.067544842\F,-1.1621915673,1.009460
 9236,-1.3852161241\S,1.1560925075,-0.1560926599,-0.3192898444\O,0.5387
 045423,0.1768911235,1.1973258911\O,2.5771262151,-0.4246673574,-0.33203
 01814\O,1.232933944,1.4088859045,-0.8842233341\F,0.7662663835,-1.82860
 88576,-0.1822796643\F,-1.3014230331,1.441291502,1.2011644083\F,-1.4977
 479042,-0.676076839,1.5562260423\H,2.1435067252,1.7178858611,-0.810695
 1669\\Version=ES64L-G16RevC.01\HF=-1199.7308017\RMSD=2.904e-09\RMSF=1.
 573e-05\ZeroPoint=0.0514906\Thermal=0.0613503\ETot=-1199.6694514\HTot=
 -1199.6685072\GTot=-1199.7149986\Dipole=-0.2175826,0.9263923,-0.408624
 \DipoleDeriv=1.5681124,-0.0768566,-0.6123062,-0.079522,1.5248638,-0.04
 09534,-0.5345498,-0.0363785,0.9796339,1.6918134,0.0297091,0.4263258,0.
 1148903,1.258745,-0.094899,0.7227948,-0.1133159,0.8531571,-0.631358,-0
 .3100074,-0.2161302,-0.4946653,-0.6168382,-0.2091553,-0.2410903,-0.215
 1362,-0.3370216,-0.5026841,0.2217247,-0.240059,0.380737,-0.6092353,0.3
 106469,-0.3081067,0.3200605,-0.4953751,1.9769376,0.1278737,-0.4754706,
 0.1649088,3.0341625,-0.3176029,-0.3560966,-0.3372081,1.7435464,-1.1815
 636,0.1237747,0.5183941,0.0662751,-0.4880793,-0.1050499,0.1479543,-0.0
 494446,-0.8712116,-1.0449889,0.1336589,0.096267,-0.0008849,-0.6804976,
 0.0461017,-0.0371526,0.0841209,-0.4562196,-0.7126982,-0.2279339,0.1184
 184,-0.3645991,-1.2260526,0.323422,0.12596,0.1917598,-0.5684618,-0.471
 3921,-0.1313657,-0.0000054,0.1376076,-1.2458479,0.0528146,-0.0516846,0
 .1163987,-0.3377267,-0.4458012,0.2369778,0.1570551,0.3673234,-0.777457
 4,-0.2140825,0.2186123,-0.1905042,-0.3483293,-0.5517305,-0.2098506,0.2
 825473,-0.3038212,-0.5246394,0.2499521,0.3764989,0.2186062,-0.502114,0
 .3053532,0.0822953,-0.0550363,0.0117504,0.3508765,-0.0011944,-0.063139
 7,0.0110415,0.3401223\Polar=71.305749,-0.5090126,57.7952557,-3.0711119
 ,-2.1463822,48.6579071\PG=Unknown\NImag=0\\0.50977525,-0.00769820,0.55
 084499,-0.08763385,0.00328179,0.53710828,-0.03383812,0.00062022,0.0137
 5794,0.36537587,0.00121028,-0.04860849,-0.01697554,0.04853461,0.602033
 71,0.01237959,-0.01809643,-0.14942895,0.11064045,-0.01954388,0.5384357
 6,-0.00776872,-0.00781718,0.00043185,-0.12857502,-0.11517780,-0.059502
 17,0.13862791,-0.02188614,-0.01776059,-0.00434046,-0.10433773,-0.25572
 888,-0.09180778,0.14077121,0.36258937,-0.01931287,-0.02732755,0.004878
 84,-0.04803245,-0.08277023,-0.12009424,0.06994253,0.09054823,0.1057099
 8,-0.00274524,0.00591854,-0.00047447,-0.09117389,0.06673874,-0.0609853
 3,0.01468244,-0.01891220,0.01044637,0.09122606,0.01428182,-0.01188805,
 0.00869696,0.05809707,-0.22236066,0.12896782,-0.00122873,-0.08642858,0
 .02272510,-0.06667454,0.32145642,-0.01767298,0.03597652,-0.00786269,-0
 .05050196,0.11858148,-0.18370780,0.00668120,0.00884646,0.02111728,0.07
 019824,-0.16599228,0.18432344,-0.09057433,0.02213300,0.04745397,-0.053
 53042,0.01645351,0.01226444,-0.00445222,-0.01014178,-0.00118355,0.0002
 7444,0.00339113,-0.00058043,0.91066512,0.03058520,0.02888499,-0.006743
 18,-0.00754134,0.00648280,-0.01043963,-0.02315651,-0.01833162,-0.00391
 389,0.01799946,-0.02061834,0.01056116,-0.08139247,0.41122948,0.1171827
 1,-0.01353886,0.01837883,-0.06118762,-0.00136780,-0.03437676,0.0019432
 9,0.00547895,-0.00221693,-0.00456512,0.00101451,-0.00434601,-0.0324717
 7,-0.01742680,0.36630209,-0.16134372,-0.00339346,-0.06157389,-0.049527
 49,0.00077516,-0.02212470,0.00347668,0.00160810,-0.00689029,0.00280665
 ,-0.00358825,-0.00684302,-0.05867933,-0.00249750,-0.00903436,0.3673513
 9,-0.00286041,-0.07380424,-0.00526480,0.00426600,0.00960179,-0.0067897
 6,0.00013373,0.00094022,0.00287697,-0.00384554,0.00339421,-0.00413976,
 -0.00409144,-0.05373337,-0.01699462,-0.01275354,0.12631168,-0.06849686
 ,-0.00466445,-0.13065838,-0.01895477,-0.00841263,-0.04004266,-0.009338
 27,-0.00582026,-0.00474472,-0.00665394,0.00541958,-0.00494540,-0.00947
 262,-0.01845954,-0.15831899,0.04935771,0.03020757,0.30832278,0.0105718
 8,-0.00088839,0.00007313,0.00627988,-0.00145527,0.00074918,-0.00300684
 ,-0.00151303,-0.00091063,-0.00283388,0.00241738,-0.00170468,-0.5524187
 8,0.09950065,0.02282003,-0.01015334,0.00210473,-0.00232557,0.61166813,
 -0.00422581,-0.00331864,-0.00145983,0.00374196,-0.00372756,0.00247667,
 0.00146386,0.00236351,0.00039598,-0.00075694,0.00339045,-0.00152866,0.
 08855235,-0.10290429,-0.00091619,0.00642010,0.00635236,0.00140905,-0.1
 0396292,0.14352183,-0.00926303,-0.00017469,-0.00753546,0.01090686,0.00
 041900,0.00127323,-0.00147579,-0.00133831,0.00033904,-0.00102615,0.000
 47966,0.00051677,-0.01277393,0.00438124,-0.07466694,0.02598358,-0.0030
 4230,0.01206576,-0.00750874,-0.02030041,0.03902602,-0.00407806,0.00057
 324,-0.00801280,0.00011451,-0.02185807,0.00977328,-0.00995348,-0.00573
 471,-0.00065175,-0.01280173,-0.00290895,-0.00420002,-0.10680423,-0.024
 89547,0.00252373,0.00811762,-0.00757365,0.01056417,-0.01332778,0.05228
 200,-0.01500411,0.60349110,-0.00140069,-0.00737647,-0.00443594,0.02325
 326,-0.01428901,0.01638369,-0.00644287,-0.00405965,-0.00154209,-0.0093
 9942,0.01021422,-0.00733352,-0.00133360,-0.12671879,0.02721820,-0.0045
 4226,0.00091393,0.00806145,0.02131894,-0.03600665,0.01770338,0.1389868
 3,0.25662062,-0.01144328,0.00129249,-0.00386703,0.00277788,0.00083047,
 0.00082537,-0.00101755,-0.00047172,0.00075064,-0.00291641,-0.00246703,
 0.00258063,-0.00828223,0.02145837,-0.05879071,0.01525997,0.02091657,-0
 .00982222,-0.01032912,0.01660489,0.01507115,0.04595932,-0.05688140,0.0
 6905193,-0.00149195,-0.00508156,-0.00203027,-0.00795950,0.00493580,-0.
 00616544,-0.00929238,0.01287647,-0.00558765,-0.00316460,0.00281068,-0.
 00059485,-0.05602433,0.00830895,-0.00270598,0.00958351,0.00421306,0.00
 327814,-0.03648803,-0.05094629,0.00682355,0.01011697,-0.00005245,0.000
 70605,0.09360593,0.00097275,-0.00686962,0.00841203,-0.03074064,-0.0301
 2645,-0.00620604,0.01057040,0.01361061,0.00521143,0.00946228,-0.006614
 86,0.00290092,0.01611061,-0.08958225,0.00918127,0.00237558,-0.01437351
 ,-0.00768022,-0.02054747,-0.01847843,0.00503804,-0.01025621,-0.0102069
 8,-0.00024206,0.01686978,0.15999638,-0.01142717,0.00259877,-0.00573096
 ,0.01049121,0.00881658,0.00597296,-0.00575785,0.00136217,-0.00049870,-
 0.00380788,0.00384381,-0.00107199,-0.00492786,0.01323987,-0.04211679,0
 .00554519,-0.02480520,-0.00105937,-0.00218123,0.00468942,0.01446041,0.
 00222176,0.00205247,0.00028112,0.00643247,-0.00921516,0.02636687,-0.09
 487761,0.07028997,0.02798097,-0.00120658,0.00921455,0.00070870,0.00132
 465,0.00225326,0.00245285,0.00220167,-0.00358999,0.00054352,0.00373826
 ,0.00130379,-0.01864510,-0.04969027,0.04798135,0.01997489,-0.00205146,
 0.00001752,0.00275759,0.00015787,-0.00166006,0.00140662,0.00082153,0.0
 0183536,0.00208547,0.12347908,0.06813370,-0.24265399,-0.06646488,0.013
 60079,-0.02653948,-0.00366398,-0.00103010,-0.00121398,-0.00498230,-0.0
 0358823,0.00655283,0.00019608,-0.00458005,-0.00754499,0.00915889,0.039
 47387,-0.01044799,-0.00806924,0.00247240,0.00106730,-0.00149538,0.0014
 9289,0.00630964,-0.00020792,0.00018224,-0.00134189,-0.00024532,-0.1119
 1155,0.35841735,0.02812437,-0.06222962,-0.10089463,0.01056502,-0.02971
 745,-0.00497760,-0.00134655,-0.00313895,-0.00628830,0.00049046,-0.0032
 0872,0.00138726,-0.00047351,-0.00025383,-0.00775541,-0.00030637,0.0047
 8518,0.01700291,0.00037398,0.00037231,0.00130950,0.00278832,0.00305701
 ,0.00033403,-0.00000104,-0.00266487,0.00181270,-0.03633468,0.06693954,
 0.08346257,-0.12312283,-0.07474710,0.06910895,-0.00540351,-0.01085278,
 0.00499562,0.00362768,0.00422148,-0.00064213,0.00090641,-0.00146003,0.
 00362830,0.00330995,-0.00977539,-0.01745345,-0.06281724,-0.02883563,0.
 03359299,-0.00197695,0.00141058,0.00216948,0.00001101,-0.00177972,0.00
 355824,0.00072828,0.00266923,0.00070694,0.01591980,-0.00386931,-0.0035
 0209,0.16838205,-0.07353933,-0.16799712,0.08670678,-0.01072771,-0.0094
 3192,0.00560970,0.00418939,0.00512103,-0.00115827,0.00015647,0.0010145
 1,0.00186506,0.00079572,-0.00999172,-0.00439041,-0.02749472,0.00497922
 ,0.00879710,-0.00148146,0.00156199,0.00058371,-0.00073644,-0.00041030,
 0.00089970,0.00244558,0.00478038,-0.00220392,-0.01632726,-0.08256056,0
 .02567293,0.12234722,0.25283971,0.06727231,0.08261341,-0.15472924,0.02
 022362,0.02872979,-0.01580628,-0.00072048,0.00107884,0.00148704,-0.000
 72551,0.00127770,-0.00836012,-0.00103115,0.00146272,-0.00608474,0.0107
 4005,0.00051566,0.01490939,0.00105446,0.00003682,0.00107319,0.00218407
 ,0.00281018,0.00034487,0.00012927,-0.00551775,0.00224579,-0.00281753,0
 .00885472,0.01457653,-0.09584093,-0.12207633,0.15013190,-0.00050655,0.
 00009091,0.00091848,-0.00055570,0.00148127,-0.00273362,0.00130929,0.00
 079506,0.00036957,0.00062168,-0.00154758,0.00104668,0.00449587,-0.0084
 3936,0.00159365,0.00087555,0.00126133,-0.00152587,-0.00626284,0.006003
 58,-0.00158930,-0.47504379,-0.15694796,-0.03567948,-0.00043545,0.00067
 833,0.00061896,0.00018307,-0.00037666,-0.00037791,0.00043537,0.0003725
 5,-0.00046817,0.47488351,-0.00357316,0.00054721,-0.00141293,0.00123352
 ,-0.00730586,0.00310964,-0.00227541,-0.00110144,-0.00006337,0.00290136
 ,0.00188785,0.00006654,-0.04589699,-0.01717190,0.00258286,0.00361692,-
 0.00013431,-0.00078842,0.00203443,0.00617812,-0.00225394,-0.11937147,-
 0.07499054,-0.00173236,0.00343774,-0.00079339,-0.00013348,0.00059306,-
 0.00004424,0.00038646,0.00067146,0.00009478,0.00021425,0.15662854,0.09
 283371,0.00029106,0.00026862,0.00034139,-0.00068619,0.00141020,0.00192
 698,0.00015980,-0.00039717,-0.00043992,0.00001975,-0.00075711,0.000368
 64,0.01147863,0.00613351,0.00399236,-0.00011386,0.00173449,-0.00270910
 ,-0.00011080,-0.00178005,-0.00293266,-0.04814597,-0.00709340,-0.016759
 77,-0.00028425,0.00078241,-0.00066205,-0.00011329,-0.00002022,0.000030
 45,-0.00032191,-0.00030604,0.00021167,0.03782702,0.00002475,0.01663203
 \\0.00000183,0.00002286,-0.00001335,0.00001943,-0.00001433,0.00001956,
 -0.00000027,0.00000511,-0.00000511,0.00000941,-0.00000406,-0.00000657,
 -0.00000405,0.00001753,-0.00004237,-0.00000111,-0.00000545,0.00000710,
 -0.00000672,-0.00004044,0.00003517,-0.00002249,0.00002056,-0.00000321,
 0.00001130,0.00001511,0.00000246,-0.00001129,-0.00000850,0.00000335,0.
 00000853,-0.00000733,-0.00000971,-0.00000457,-0.00000106,0.00001267\\\
 @
 The archive entry for this job was punched.


 IF I AM NOT FOR MYSELF, WHO WILL BE?
 BUT IF I AM ONLY FOR MYSELF, WHAT AM I?
 THOUGH A SEEKER SINCE MY BIRTH,
 HERE IS ALL I'VE LEARNED ON EARTH,
 THIS IS THE GIST OF WHAT I KNOW:
 GIVE ADVICE AND BUY A FOE.

 PRESSED FOR RULES AND VERITIES,
 ALL I RECOLLECT ARE THESE:
 FEED A COLD TO STARVE A FEVER,
 ARGUE WITH NO TRUE-BELIEVER.
 THINK-TOO-LONG IS NEVER-ACT,
 SCRATCH A MYTH AND FIND A FACT.

 STITCH IN TIME SAVES TWENTY STITCHES,
 GIVE THE RICH TO PLEASE THEM, RICHES.
 GIVE TO LOVE YOU HEARTH AND HALL,
 BUT DO NOT GIVE ADVICE AT ALL.

                                  -- HILLEL
 Job cpu time:       0 days  0 hours 11 minutes 32.7 seconds.
 Elapsed time:       0 days  0 hours  1 minutes 49.5 seconds.
 File lengths (MBytes):  RWF=     99 Int=      0 D2E=      0 Chk=      6 Scr=      1
 Normal termination of Gaussian 16 at Fri May 23 04:17:54 2025.
done
