 Entering Gaussian System, Link 0=g16
 Initial command:
 /apps/easybuild-2022/easybuild/software/Compiler/NVHPC/22.11-CUDA-11.7.0/Gaussian/g16c01-CUDA-11.7.0/g16/l1.exe "/tmp/Gau-9560.inp" -scrdir="/tmp/"
 Entering Link 1 = /apps/easybuild-2022/easybuild/software/Compiler/NVHPC/22.11-CUDA-11.7.0/Gaussian/g16c01-CUDA-11.7.0/g16/l1.exe PID=      9575.
  
 Copyright (c) 1988-2019, Gaussian, Inc.  All Rights Reserved.
  
 This is part of the Gaussian(R) 16 program.  It is based on
 the Gaussian(R) 09 system (copyright 2009, Gaussian, Inc.),
 the Gaussian(R) 03 system (copyright 2003, Gaussian, Inc.),
 the Gaussian(R) 98 system (copyright 1998, Gaussian, Inc.),
 the Gaussian(R) 94 system (copyright 1995, Gaussian, Inc.),
 the Gaussian 92(TM) system (copyright 1992, Gaussian, Inc.),
 the Gaussian 90(TM) system (copyright 1990, Gaussian, Inc.),
 the Gaussian 88(TM) system (copyright 1988, Gaussian, Inc.),
 the Gaussian 86(TM) system (copyright 1986, Carnegie Mellon
 University), and the Gaussian 82(TM) system (copyright 1983,
 Carnegie Mellon University). Gaussian is a federally registered
 trademark of Gaussian, Inc.
  
 This software contains proprietary and confidential information,
 including trade secrets, belonging to Gaussian, Inc.
  
 This software is provided under written license and may be
 used, copied, transmitted, or stored only in accord with that
 written license.
  
 The following legend is applicable only to US Government
 contracts under FAR:
  
                    RESTRICTED RIGHTS LEGEND
  
 Use, reproduction and disclosure by the US Government is
 subject to restrictions as set forth in subparagraphs (a)
 and (c) of the Commercial Computer Software - Restricted
 Rights clause in FAR 52.227-19.
  
 Gaussian, Inc.
 340 Quinnipiac St., Bldg. 40, Wallingford CT 06492
  
  
 ---------------------------------------------------------------
 Warning -- This program may not be used in any manner that
 competes with the business of Gaussian, Inc. or will provide
 assistance to any competitor of Gaussian, Inc.  The licensee
 of this program is prohibited from giving any competitor of
 Gaussian, Inc. access to this program.  By using this program,
 the user acknowledges that Gaussian, Inc. is engaged in the
 business of creating and licensing software in the field of
 computational chemistry and represents and warrants to the
 licensee that it is not a competitor of Gaussian, Inc. and that
 it will not use this program in any manner prohibited above.
 ---------------------------------------------------------------
  

 Cite this work as:
 Gaussian 16, Revision C.01,
 M. J. Frisch, G. W. Trucks, H. B. Schlegel, G. E. Scuseria, 
 M. A. Robb, J. R. Cheeseman, G. Scalmani, V. Barone, 
 G. A. Petersson, H. Nakatsuji, X. Li, M. Caricato, A. V. Marenich, 
 J. Bloino, B. G. Janesko, R. Gomperts, B. Mennucci, H. P. Hratchian, 
 J. V. Ortiz, A. F. Izmaylov, J. L. Sonnenberg, D. Williams-Young, 
 F. Ding, F. Lipparini, F. Egidi, J. Goings, B. Peng, A. Petrone, 
 T. Henderson, D. Ranasinghe, V. G. Zakrzewski, J. Gao, N. Rega, 
 G. Zheng, W. Liang, M. Hada, M. Ehara, K. Toyota, R. Fukuda, 
 J. Hasegawa, M. Ishida, T. Nakajima, Y. Honda, O. Kitao, H. Nakai, 
 T. Vreven, K. Throssell, J. A. Montgomery, Jr., J. E. Peralta, 
 F. Ogliaro, M. J. Bearpark, J. J. Heyd, E. N. Brothers, K. N. Kudin, 
 V. N. Staroverov, T. A. Keith, R. Kobayashi, J. Normand, 
 K. Raghavachari, A. P. Rendell, J. C. Burant, S. S. Iyengar, 
 J. Tomasi, M. Cossi, J. M. Millam, M. Klene, C. Adamo, R. Cammi, 
 J. W. Ochterski, R. L. Martin, K. Morokuma, O. Farkas, 
 J. B. Foresman, and D. J. Fox, Gaussian, Inc., Wallingford CT, 2019.
 
 ******************************************
 Gaussian 16:  ES64L-G16RevC.01  3-Jul-2019
                23-May-2025 
 ******************************************
 %mem=28GB
 %chk=2003846667223680600001_r12_insertion_R_2_5_6_IRC_R
 %nprocshared=8
 Will use up to    8 processors via shared memory.
 ----------------------------------------------------------------------
 #P wb97xd/6-311++G(d,p) Symm(None) scf(xqc) pop(None) geom(AllCheck,No
 KeepConstants) guess(Read) irc(RCFC,reverse,MaxPoints=100,StepSize=2)
 ----------------------------------------------------------------------
 1/10=5,18=10,22=2,26=3,29=20007,38=1,39=2,42=100,44=3,172=1/1,23;
 2/12=2,15=3,29=1,40=1/2;
 3/5=4,6=6,7=1111,11=2,14=-4,25=1,30=1,71=2,74=-58,116=-2,140=1/1,2,3;
 4/5=1/1;
 5/5=2,8=3,13=1,38=6/2,8;
 8/6=4,10=90,11=11/1;
 11/6=1,8=1,9=11,15=111,16=1,31=1/1,2,10;
 10/6=1,13=1,31=1/2;
 7/10=1,25=1,30=1/1,2,3,16;
 1/18=10,22=2,26=3,39=2,42=100,44=3/23(2);
 2/15=3,29=1/2;
 99/5=20/99;
 2/15=3,29=1/2;
 3/5=4,6=6,7=1111,11=2,14=-2,25=1,30=1,71=2,74=-58,140=1/1,2,3;
 4/5=5,16=3,69=1/1;
 5/5=2,8=3,13=1,38=5/2,8;
 8/6=4,10=90,11=11/1;
 11/6=1,8=1,9=11,15=111,16=1,31=1/1,2,10;
 10/6=1,13=1,31=1/2;
 7/10=1,25=1,30=1/1,2,3,16;
 1/18=10,22=2,26=3,39=2,42=100,44=3/23(-8);
 2/15=3,29=1/2;
 99/5=20,9=1/99;
 Leave Link    1 at Fri May 23 06:19:24 2025, MaxMem=  3758096384 cpu:               0.0 elap:               0.0
 (Enter /apps/easybuild-2022/easybuild/software/Compiler/NVHPC/22.11-CUDA-11.7.0/Gaussian/g16c01-CUDA-11.7.0/g16/l101.exe)
 Structure from the checkpoint file:  "2003846667223680600001_r12_insertion_R_2_5_6_IRC_R.chk"
 ------------------------------
 Gaussian input prepared by ASE
 ------------------------------
 Charge =  0 Multiplicity = 1
 Redundant internal coordinates found in file.  (old form).
 C,0,-0.9305727517,-0.4508890277,1.0746889629
 C,0,0.0405472114,0.4263516854,0.2554106302
 F,0,-0.2819589396,0.4209149759,-1.0270870695
 F,0,0.0072522695,1.6889286168,0.7230241297
 S,0,1.8915295225,-0.0358787537,0.5318205437
 O,0,1.9051177518,2.5681015569,1.1590053996
 O,0,2.0631824566,-1.4472609809,0.232636615
 O,0,2.4333133936,0.8167770437,-0.726404263
 F,0,-1.0079205945,-1.6597479966,0.5435954602
 F,0,-0.4814057727,-0.5464226971,2.3257497652
 F,0,-2.1421849492,0.0934052079,1.0934961106
 H,0,2.5535244023,1.7237543693,-0.3676422845
 Recover connectivity data from disk.
 ITRead=  0  0  0  0  0  0  0  0  0  0  0  0
 MicOpt= -1 -1 -1 -1 -1 -1 -1 -1 -1 -1 -1 -1
 NAtoms=     12 NQM=       12 NQMF=       0 NMMI=      0 NMMIF=      0
                NMic=       0 NMicF=      0.
                    Isotopes and Nuclear Properties:
 (Nuclear quadrupole moments (NQMom) in fm**2, nuclear magnetic moments (NMagM)
  in nuclear magnetons)

  Atom         1           2           3           4           5           6           7           8           9          10
 IAtWgt=          12          12          19          19          32          16          16          16          19          19
 AtmWgt=  12.0000000  12.0000000  18.9984032  18.9984032  31.9720718  15.9949146  15.9949146  15.9949146  18.9984032  18.9984032
 NucSpn=           0           0           1           1           0           0           0           0           1           1
 AtZEff=   3.6000000   3.6000000   6.7500000   6.7500000  13.6000000   5.6000000   5.6000000   5.6000000   6.7500000   6.7500000
 NQMom=    0.0000000   0.0000000   0.0000000   0.0000000   0.0000000   0.0000000   0.0000000   0.0000000   0.0000000   0.0000000
 NMagM=    0.0000000   0.0000000   2.6288670   2.6288670   0.0000000   0.0000000   0.0000000   0.0000000   2.6288670   2.6288670
 AtZNuc=   6.0000000   6.0000000   9.0000000   9.0000000  16.0000000   8.0000000   8.0000000   8.0000000   9.0000000   9.0000000

  Atom        11          12
 IAtWgt=          19           1
 AtmWgt=  18.9984032   1.0078250
 NucSpn=           1           1
 AtZEff=   6.7500000   1.0000000
 NQMom=    0.0000000   0.0000000
 NMagM=    2.6288670   2.7928460
 AtZNuc=   9.0000000   1.0000000
 Leave Link  101 at Fri May 23 06:19:24 2025, MaxMem=  3758096384 cpu:               0.2 elap:               0.2
 (Enter /apps/easybuild-2022/easybuild/software/Compiler/NVHPC/22.11-CUDA-11.7.0/Gaussian/g16c01-CUDA-11.7.0/g16/l123.exe)
 IRC-IRC-IRC-IRC-IRC-IRC-IRC-IRC-IRC-IRC-IRC-IRC-IRC-IRC-IRC-IRC-IRC-IRC
 ------------------------------------------------------------------------
 INPUT DATA FOR L123
 ------------------------------------------------------------------------
 GENERAL PARAMETERS:
 Rxn path following direction = Reverse
 Maximum points per path      = 100
 Step size                    =   0.020 bohr
 Integration scheme           = HPC                                 
    Redo corrector integration= Yes                                 
    DWI Weight Power          =  2
    DWI will use Hessian update vectors when possible.
    Max correction cycles     =  20
 Initial Hessian              = ReadFC from chk
 Hessian evaluation           = All updating
 Hessian updating method      = Bofill                              
 ------------------------------------------------------------------------
          ******** Start new reaction path calculation ********
 RCFC Option Requested - Data Read From Chk File:
 "2003846667223680600001_r12_insertion_R_2_5_6_IRC_R.chk"
   Energy From Chk =  -1199.5965019

 Current Structure is TS -> form Hessian eigenvectors.
                            Recovering Hessian eigenvectors from chk file.
 Supplied step size of   0.0200 bohr.
    Integration on MW PES will use step size of   0.0827 sqrt(amu)*bohr.
 Point Number:   0          Path Number:   1
 Calculating another point on the path.
 Point Number  1 in REVERSE path direction.
 Using LQA Reaction Path Following.
 IRC-IRC-IRC-IRC-IRC-IRC-IRC-IRC-IRC-IRC-IRC-IRC-IRC-IRC-IRC-IRC-IRC-IRC
 Leave Link  123 at Fri May 23 06:19:24 2025, MaxMem=  3758096384 cpu:               0.1 elap:               0.0
 (Enter /apps/easybuild-2022/easybuild/software/Compiler/NVHPC/22.11-CUDA-11.7.0/Gaussian/g16c01-CUDA-11.7.0/g16/l202.exe)
                          Input orientation:                          
 ---------------------------------------------------------------------
 Center     Atomic      Atomic             Coordinates (Angstroms)
 Number     Number       Type             X           Y           Z
 ---------------------------------------------------------------------
      1          6           0       -1.333859   -0.607753    0.510667
      2          6           0       -0.363992    0.270362   -0.308729
      3          9           0       -0.685269    0.263857   -1.591602
      4          9           0       -0.398471    1.531434    0.158460
      5         16           0        1.487372   -0.189524   -0.032883
      6          8           0        1.510049    2.409092    0.596315
      7          8           0        1.661406   -1.601453   -0.328347
      8          8           0        2.030512    0.661018   -1.290507
      9          9           0       -1.411037   -1.816636   -0.020226
     10          9           0       -0.884215   -0.702861    1.761641
     11          9           0       -2.545400   -0.063387    0.529752
     12          1           0        2.151948    1.567841   -0.930357
 ---------------------------------------------------------------------
                    Distance matrix (angstroms):
                    1          2          3          4          5
     1  C    0.000000
     2  C    1.543741   0.000000
     3  F    2.366413   1.322507   0.000000
     4  F    2.361169   1.345272   2.179845   0.000000
     5  S    2.903395   1.927469   2.712107   2.560217   0.000000
     6  O    4.146867   2.984176   3.769408   2.145798   2.673801
     7  O    3.265424   2.757955   3.253011   3.780880   1.452973
     8  O    4.021566   2.617279   2.761134   2.959238   1.612464
     9  F    1.322574   2.352678   2.706365   3.502398   3.323917
    10  F    1.332727   2.346109   3.495478   2.792528   3.017989
    11  F    1.328356   2.360715   2.840303   2.700114   4.073784
    12  H    4.354378   2.898246   3.191774   2.773353   2.082175
                    6          7          8          9         10
     6  O    0.000000
     7  O    4.118541   0.000000
     8  O    2.624261   2.486115   0.000000
     9  F    5.173939   3.095343   4.426809   0.000000
    10  F    4.095698   3.414046   4.435246   2.166353   0.000000
    11  F    4.750184   4.560614   4.977657   2.159429   2.164720
    12  H    1.857543   3.263047   0.983251   4.997788   4.649864
                   11         12
    11  F    0.000000
    12  H    5.182461   0.000000
 Symmetry turned off by external request.
 Stoichiometry    C2HF5O3S
 Rotational constants (GHZ):           1.3964344           0.8150738           0.6988268
 Leave Link  202 at Fri May 23 06:19:24 2025, MaxMem=  3758096384 cpu:               0.0 elap:               0.0
 (Enter /apps/easybuild-2022/easybuild/software/Compiler/NVHPC/22.11-CUDA-11.7.0/Gaussian/g16c01-CUDA-11.7.0/g16/l301.exe)
 Standard basis: 6-311++G(d,p) (5D, 7F)
 Ernie: Thresh=  0.10000D-02 Tol=  0.10000D-05 Strict=F.
   257 basis functions,   419 primitive gaussians,   268 cartesian basis functions
    49 alpha electrons       49 beta electrons
       nuclear repulsion energy       888.6280557749 Hartrees.
 IExCor= 4639 DFT=T Ex+Corr=wB97XD ExCW=0 ScaHFX=  1.000000
 ScaDFX=  1.000000  1.000000  1.000000  1.000000 ScalE2=  1.000000  1.000000
 IRadAn=      5 IRanWt=     -1 IRanGd=            0 ICorTp=0 IEmpDi=121
 HFx  wShort=  0.000000 wLong=  0.200000 cFull=  0.222036 cShort=  0.000000 cLong=  0.777964
 DFx  wShort=  0.000000 wLong=  0.200000 cFull=  0.000000 cShort=  0.000000 cLong=  1.000000
 NAtoms=   12 NActive=   12 NUniq=   12 SFac= 1.00D+00 NAtFMM=   60 NAOKFM=F Big=F
 Integral buffers will be    131072 words long.
 Raffenetti 2 integral format.
 Two-electron integral symmetry is turned off.
 R6Disp:  Grimme-D2 Dispersion energy=       -0.0053218948 Hartrees.
 Nuclear repulsion after empirical dispersion term =      888.6227338801 Hartrees.
 Leave Link  301 at Fri May 23 06:19:24 2025, MaxMem=  3758096384 cpu:               0.1 elap:               0.1
 (Enter /apps/easybuild-2022/easybuild/software/Compiler/NVHPC/22.11-CUDA-11.7.0/Gaussian/g16c01-CUDA-11.7.0/g16/l302.exe)
 NPDir=0 NMtPBC=     1 NCelOv=     1 NCel=       1 NClECP=     1 NCelD=      1
         NCelK=      1 NCelE2=     1 NClLst=     1 CellRange=     0.0.
 One-electron integrals computed using PRISM.
 NBasis=   257 RedAO= T EigKep=  5.94D-05  NBF=   257
 NBsUse=   257 1.00D-06 EigRej= -1.00D+00 NBFU=   257
 Precomputing XC quadrature grid using
 IXCGrd= 4 IRadAn=           5 IRanWt=          -1 IRanGd=           0 AccXCQ= 0.00D+00.
 Generated NRdTot=       0 NPtTot=           0 NUsed=           0 NTot=          32
 NSgBfM=   268   268   268   268   268 MxSgAt=    12 MxSgA2=    12.
 Leave Link  302 at Fri May 23 06:19:24 2025, MaxMem=  3758096384 cpu:               0.9 elap:               0.2
 (Enter /apps/easybuild-2022/easybuild/software/Compiler/NVHPC/22.11-CUDA-11.7.0/Gaussian/g16c01-CUDA-11.7.0/g16/l303.exe)
 DipDrv:  MaxL=1.
 Leave Link  303 at Fri May 23 06:19:24 2025, MaxMem=  3758096384 cpu:               0.1 elap:               0.0
 (Enter /apps/easybuild-2022/easybuild/software/Compiler/NVHPC/22.11-CUDA-11.7.0/Gaussian/g16c01-CUDA-11.7.0/g16/l401.exe)
 Initial guess from the checkpoint file:  "2003846667223680600001_r12_insertion_R_2_5_6_IRC_R.chk"
 B after Tr=    -0.761210   -0.295103   -1.065502
         Rot=    1.000000   -0.000005    0.000001    0.000007 Ang=  -0.00 deg.
 Guess basis will be translated and rotated to current coordinates.
 JPrj=2 DoOrth=T DoCkMO=T.
 Leave Link  401 at Fri May 23 06:19:25 2025, MaxMem=  3758096384 cpu:               0.3 elap:               0.1
 (Enter /apps/easybuild-2022/easybuild/software/Compiler/NVHPC/22.11-CUDA-11.7.0/Gaussian/g16c01-CUDA-11.7.0/g16/l502.exe)
 Keep R1 ints in memory in canonical form, NReq=1117474609.
 FoFCou: FMM=F IPFlag=           0 FMFlag=           0 FMFlg1=           0
         NFxFlg=           0 DoJE=F BraDBF=F KetDBF=F FulRan=T
         wScrn=  0.000000 ICntrl=       600 IOpCl=  0 I1Cent=           0 NGrid=           0
         NMat0=    1 NMatS0=  33153 NMatT0=    0 NMatD0=    1 NMtDS0=    0 NMtDT0=    0
 Symmetry not used in FoFCou.
 Two-electron integral symmetry not used.
 Closed shell SCF:
 Using DIIS extrapolation, IDIIS=  1040.
 NGot=  3758096384 LenX=  2658793876 LenY=  2658721611
 Requested convergence on RMS density matrix=1.00D-08 within  32 cycles.
 Requested convergence on MAX density matrix=1.00D-06.
 Requested convergence on             energy=1.00D-06.
 No special actions if energy rises.

 Cycle   1  Pass 1  IDiag  1:
 E= -1199.59647932392    
 DIIS: error= 1.11D-04 at cycle   1 NSaved=   1.
 NSaved= 1 IEnMin= 1 EnMin= -1199.59647932392     IErMin= 1 ErrMin= 1.11D-04
 ErrMax= 1.11D-04  0.00D+00 EMaxC= 1.00D-01 BMatC= 1.27D-05 BMatP= 1.27D-05
 IDIUse=3 WtCom= 9.99D-01 WtEn= 1.11D-03
 Coeff-Com:  0.100D+01
 Coeff-En:   0.100D+01
 Coeff:      0.100D+01
 Gap=     0.201 Goal=   None    Shift=    0.000
 RMSDP=9.17D-05 MaxDP=4.27D-03              OVMax= 2.92D-03

 Cycle   2  Pass 1  IDiag  1:
 E= -1199.59650133048     Delta-E=       -0.000022006555 Rises=F Damp=F
 DIIS: error= 6.69D-05 at cycle   2 NSaved=   2.
 NSaved= 2 IEnMin= 2 EnMin= -1199.59650133048     IErMin= 2 ErrMin= 6.69D-05
 ErrMax= 6.69D-05  0.00D+00 EMaxC= 1.00D-01 BMatC= 3.16D-06 BMatP= 1.27D-05
 IDIUse=1 WtCom= 1.00D+00 WtEn= 0.00D+00
 Coeff-Com:  0.141D+00 0.859D+00
 Coeff:      0.141D+00 0.859D+00
 Gap=     0.202 Goal=   None    Shift=    0.000
 RMSDP=1.97D-05 MaxDP=6.47D-04 DE=-2.20D-05 OVMax= 9.79D-04

 Cycle   3  Pass 1  IDiag  1:
 E= -1199.59650274502     Delta-E=       -0.000001414544 Rises=F Damp=F
 DIIS: error= 7.76D-05 at cycle   3 NSaved=   3.
 NSaved= 3 IEnMin= 3 EnMin= -1199.59650274502     IErMin= 2 ErrMin= 6.69D-05
 ErrMax= 7.76D-05  0.00D+00 EMaxC= 1.00D-01 BMatC= 3.80D-06 BMatP= 3.16D-06
 IDIUse=1 WtCom= 1.00D+00 WtEn= 0.00D+00
 Coeff-Com: -0.105D+00 0.578D+00 0.527D+00
 Coeff:     -0.105D+00 0.578D+00 0.527D+00
 Gap=     0.202 Goal=   None    Shift=    0.000
 RMSDP=1.67D-05 MaxDP=7.38D-04 DE=-1.41D-06 OVMax= 1.53D-03

 Cycle   4  Pass 1  IDiag  1:
 E= -1199.59650682448     Delta-E=       -0.000004079457 Rises=F Damp=F
 DIIS: error= 2.14D-05 at cycle   4 NSaved=   4.
 NSaved= 4 IEnMin= 4 EnMin= -1199.59650682448     IErMin= 4 ErrMin= 2.14D-05
 ErrMax= 2.14D-05  0.00D+00 EMaxC= 1.00D-01 BMatC= 2.25D-07 BMatP= 3.16D-06
 IDIUse=1 WtCom= 1.00D+00 WtEn= 0.00D+00
 Coeff-Com: -0.323D-01 0.370D-01 0.180D+00 0.816D+00
 Coeff:     -0.323D-01 0.370D-01 0.180D+00 0.816D+00
 Gap=     0.202 Goal=   None    Shift=    0.000
 RMSDP=5.29D-06 MaxDP=1.85D-04 DE=-4.08D-06 OVMax= 6.34D-04

 Cycle   5  Pass 1  IDiag  1:
 E= -1199.59650773388     Delta-E=       -0.000000909406 Rises=F Damp=F
 DIIS: error= 1.52D-05 at cycle   5 NSaved=   5.
 NSaved= 5 IEnMin= 5 EnMin= -1199.59650773388     IErMin= 5 ErrMin= 1.52D-05
 ErrMax= 1.52D-05  0.00D+00 EMaxC= 1.00D-01 BMatC= 9.30D-08 BMatP= 2.25D-07
 IDIUse=1 WtCom= 1.00D+00 WtEn= 0.00D+00
 Coeff-Com:  0.189D-01-0.171D+00-0.340D-01 0.265D+00 0.921D+00
 Coeff:      0.189D-01-0.171D+00-0.340D-01 0.265D+00 0.921D+00
 Gap=     0.202 Goal=   None    Shift=    0.000
 RMSDP=5.47D-06 MaxDP=2.23D-04 DE=-9.09D-07 OVMax= 7.80D-04

 Cycle   6  Pass 1  IDiag  1:
 E= -1199.59650858142     Delta-E=       -0.000000847539 Rises=F Damp=F
 DIIS: error= 1.29D-05 at cycle   6 NSaved=   6.
 NSaved= 6 IEnMin= 6 EnMin= -1199.59650858142     IErMin= 6 ErrMin= 1.29D-05
 ErrMax= 1.29D-05  0.00D+00 EMaxC= 1.00D-01 BMatC= 5.13D-08 BMatP= 9.30D-08
 IDIUse=1 WtCom= 1.00D+00 WtEn= 0.00D+00
 Coeff-Com:  0.123D-01-0.518D-01-0.204D-01-0.188D+00 0.153D+00 0.109D+01
 Coeff:      0.123D-01-0.518D-01-0.204D-01-0.188D+00 0.153D+00 0.109D+01
 Gap=     0.202 Goal=   None    Shift=    0.000
 RMSDP=4.79D-06 MaxDP=1.88D-04 DE=-8.48D-07 OVMax= 9.00D-04

 Cycle   7  Pass 1  IDiag  1:
 E= -1199.59650937592     Delta-E=       -0.000000794500 Rises=F Damp=F
 DIIS: error= 1.16D-05 at cycle   7 NSaved=   7.
 NSaved= 7 IEnMin= 7 EnMin= -1199.59650937592     IErMin= 7 ErrMin= 1.16D-05
 ErrMax= 1.16D-05  0.00D+00 EMaxC= 1.00D-01 BMatC= 3.90D-08 BMatP= 5.13D-08
 IDIUse=1 WtCom= 1.00D+00 WtEn= 0.00D+00
 Coeff-Com: -0.683D-02 0.835D-01 0.309D-01-0.266D+00-0.563D+00 0.477D+00
 Coeff-Com:  0.124D+01
 Coeff:     -0.683D-02 0.835D-01 0.309D-01-0.266D+00-0.563D+00 0.477D+00
 Coeff:      0.124D+01
 Gap=     0.202 Goal=   None    Shift=    0.000
 RMSDP=6.69D-06 MaxDP=2.83D-04 DE=-7.95D-07 OVMax= 1.36D-03

 Cycle   8  Pass 1  IDiag  1:
 E= -1199.59651040972     Delta-E=       -0.000001033795 Rises=F Damp=F
 DIIS: error= 1.02D-05 at cycle   8 NSaved=   8.
 NSaved= 8 IEnMin= 8 EnMin= -1199.59651040972     IErMin= 8 ErrMin= 1.02D-05
 ErrMax= 1.02D-05  0.00D+00 EMaxC= 1.00D-01 BMatC= 2.80D-08 BMatP= 3.90D-08
 IDIUse=1 WtCom= 1.00D+00 WtEn= 0.00D+00
 Coeff-Com: -0.148D-01 0.741D-01 0.414D-01 0.188D+00-0.303D+00-0.114D+01
 Coeff-Com:  0.269D+00 0.188D+01
 Coeff:     -0.148D-01 0.741D-01 0.414D-01 0.188D+00-0.303D+00-0.114D+01
 Coeff:      0.269D+00 0.188D+01
 Gap=     0.202 Goal=   None    Shift=    0.000
 RMSDP=1.14D-05 MaxDP=5.00D-04 DE=-1.03D-06 OVMax= 2.43D-03

 Cycle   9  Pass 1  IDiag  1:
 E= -1199.59651189981     Delta-E=       -0.000001490095 Rises=F Damp=F
 DIIS: error= 7.89D-06 at cycle   9 NSaved=   9.
 NSaved= 9 IEnMin= 9 EnMin= -1199.59651189981     IErMin= 9 ErrMin= 7.89D-06
 ErrMax= 7.89D-06  0.00D+00 EMaxC= 1.00D-01 BMatC= 1.75D-08 BMatP= 2.80D-08
 IDIUse=1 WtCom= 1.00D+00 WtEn= 0.00D+00
 Coeff-Com: -0.389D-02-0.356D-01-0.114D-01 0.427D+00 0.335D+00-0.137D+01
 Coeff-Com: -0.112D+01 0.115D+01 0.163D+01
 Coeff:     -0.389D-02-0.356D-01-0.114D-01 0.427D+00 0.335D+00-0.137D+01
 Coeff:     -0.112D+01 0.115D+01 0.163D+01
 Gap=     0.202 Goal=   None    Shift=    0.000
 RMSDP=1.88D-05 MaxDP=8.31D-04 DE=-1.49D-06 OVMax= 4.05D-03

 Cycle  10  Pass 1  IDiag  1:
 E= -1199.59651342010     Delta-E=       -0.000001520287 Rises=F Damp=F
 DIIS: error= 4.97D-06 at cycle  10 NSaved=  10.
 NSaved=10 IEnMin=10 EnMin= -1199.59651342010     IErMin=10 ErrMin= 4.97D-06
 ErrMax= 4.97D-06  0.00D+00 EMaxC= 1.00D-01 BMatC= 8.45D-09 BMatP= 1.75D-08
 IDIUse=1 WtCom= 1.00D+00 WtEn= 0.00D+00
 Coeff-Com:  0.968D-02-0.852D-01-0.439D-01 0.175D+00 0.484D+00-0.445D-01
 Coeff-Com: -0.899D+00-0.692D+00 0.110D+01 0.100D+01
 Coeff:      0.968D-02-0.852D-01-0.439D-01 0.175D+00 0.484D+00-0.445D-01
 Coeff:     -0.899D+00-0.692D+00 0.110D+01 0.100D+01
 Gap=     0.202 Goal=   None    Shift=    0.000
 RMSDP=1.12D-05 MaxDP=4.98D-04 DE=-1.52D-06 OVMax= 2.47D-03

 Cycle  11  Pass 1  IDiag  1:
 E= -1199.59651378394     Delta-E=       -0.000000363840 Rises=F Damp=F
 DIIS: error= 1.25D-06 at cycle  11 NSaved=  11.
 NSaved=11 IEnMin=11 EnMin= -1199.59651378394     IErMin=11 ErrMin= 1.25D-06
 ErrMax= 1.25D-06  0.00D+00 EMaxC= 1.00D-01 BMatC= 7.55D-10 BMatP= 8.45D-09
 IDIUse=1 WtCom= 1.00D+00 WtEn= 0.00D+00
 Coeff-Com:  0.242D-02-0.129D-01-0.112D-01-0.253D-01 0.386D-01 0.195D+00
 Coeff-Com: -0.301D-01-0.369D+00 0.374D-01 0.277D+00 0.898D+00
 Coeff:      0.242D-02-0.129D-01-0.112D-01-0.253D-01 0.386D-01 0.195D+00
 Coeff:     -0.301D-01-0.369D+00 0.374D-01 0.277D+00 0.898D+00
 Gap=     0.202 Goal=   None    Shift=    0.000
 RMSDP=3.09D-06 MaxDP=1.34D-04 DE=-3.64D-07 OVMax= 6.65D-04

 Cycle  12  Pass 1  IDiag  1:
 E= -1199.59651380751     Delta-E=       -0.000000023565 Rises=F Damp=F
 DIIS: error= 7.04D-07 at cycle  12 NSaved=  12.
 NSaved=12 IEnMin=12 EnMin= -1199.59651380751     IErMin=12 ErrMin= 7.04D-07
 ErrMax= 7.04D-07  0.00D+00 EMaxC= 1.00D-01 BMatC= 2.74D-10 BMatP= 7.55D-10
 IDIUse=1 WtCom= 1.00D+00 WtEn= 0.00D+00
 Coeff-Com: -0.264D-03 0.800D-02 0.227D-02-0.441D-01-0.616D-01 0.122D+00
 Coeff-Com:  0.146D+00-0.669D-01-0.193D+00-0.577D-01 0.434D+00 0.712D+00
 Coeff:     -0.264D-03 0.800D-02 0.227D-02-0.441D-01-0.616D-01 0.122D+00
 Coeff:      0.146D+00-0.669D-01-0.193D+00-0.577D-01 0.434D+00 0.712D+00
 Gap=     0.202 Goal=   None    Shift=    0.000
 RMSDP=4.74D-07 MaxDP=1.93D-05 DE=-2.36D-08 OVMax= 1.08D-04

 Cycle  13  Pass 1  IDiag  1:
 E= -1199.59651380903     Delta-E=       -0.000000001523 Rises=F Damp=F
 DIIS: error= 3.63D-07 at cycle  13 NSaved=  13.
 NSaved=13 IEnMin=13 EnMin= -1199.59651380903     IErMin=13 ErrMin= 3.63D-07
 ErrMax= 3.63D-07  0.00D+00 EMaxC= 1.00D-01 BMatC= 6.10D-11 BMatP= 2.74D-10
 IDIUse=1 WtCom= 1.00D+00 WtEn= 0.00D+00
 Coeff-Com: -0.482D-03 0.433D-02 0.256D-02-0.836D-02-0.217D-01-0.462D-02
 Coeff-Com:  0.359D-01 0.504D-01-0.516D-01-0.563D-01-0.396D-01 0.226D+00
 Coeff-Com:  0.863D+00
 Coeff:     -0.482D-03 0.433D-02 0.256D-02-0.836D-02-0.217D-01-0.462D-02
 Coeff:      0.359D-01 0.504D-01-0.516D-01-0.563D-01-0.396D-01 0.226D+00
 Coeff:      0.863D+00
 Gap=     0.202 Goal=   None    Shift=    0.000
 RMSDP=1.58D-07 MaxDP=5.10D-06 DE=-1.52D-09 OVMax= 3.49D-05

 Cycle  14  Pass 1  IDiag  1:
 E= -1199.59651380965     Delta-E=       -0.000000000622 Rises=F Damp=F
 DIIS: error= 2.81D-07 at cycle  14 NSaved=  14.
 NSaved=14 IEnMin=14 EnMin= -1199.59651380965     IErMin=14 ErrMin= 2.81D-07
 ErrMax= 2.81D-07  0.00D+00 EMaxC= 1.00D-01 BMatC= 3.30D-11 BMatP= 6.10D-11
 IDIUse=1 WtCom= 1.00D+00 WtEn= 0.00D+00
 Coeff-Com:  0.256D-03-0.351D-02-0.141D-02 0.136D-01 0.256D-01-0.311D-01
 Coeff-Com: -0.502D-01 0.529D-02 0.647D-01 0.276D-01-0.120D+00-0.233D+00
 Coeff-Com: -0.198D+00 0.150D+01
 Coeff:      0.256D-03-0.351D-02-0.141D-02 0.136D-01 0.256D-01-0.311D-01
 Coeff:     -0.502D-01 0.529D-02 0.647D-01 0.276D-01-0.120D+00-0.233D+00
 Coeff:     -0.198D+00 0.150D+01
 Gap=     0.202 Goal=   None    Shift=    0.000
 RMSDP=1.37D-07 MaxDP=4.71D-06 DE=-6.22D-10 OVMax= 3.47D-05

 Cycle  15  Pass 1  IDiag  1:
 E= -1199.59651381046     Delta-E=       -0.000000000813 Rises=F Damp=F
 DIIS: error= 2.45D-07 at cycle  15 NSaved=  15.
 NSaved=15 IEnMin=15 EnMin= -1199.59651381046     IErMin=15 ErrMin= 2.45D-07
 ErrMax= 2.45D-07  0.00D+00 EMaxC= 1.00D-01 BMatC= 2.38D-11 BMatP= 3.30D-11
 IDIUse=1 WtCom= 1.00D+00 WtEn= 0.00D+00
 Coeff-Com:  0.386D-03-0.360D-02-0.210D-02 0.918D-02 0.181D-01-0.471D-02
 Coeff-Com: -0.292D-01-0.332D-01 0.464D-01 0.403D-01 0.246D-02-0.203D+00
 Coeff-Com: -0.624D+00 0.106D+00 0.168D+01
 Coeff:      0.386D-03-0.360D-02-0.210D-02 0.918D-02 0.181D-01-0.471D-02
 Coeff:     -0.292D-01-0.332D-01 0.464D-01 0.403D-01 0.246D-02-0.203D+00
 Coeff:     -0.624D+00 0.106D+00 0.168D+01
 Gap=     0.202 Goal=   None    Shift=    0.000
 RMSDP=2.05D-07 MaxDP=7.11D-06 DE=-8.13D-10 OVMax= 5.48D-05

 Cycle  16  Pass 1  IDiag  1:
 E= -1199.59651381131     Delta-E=       -0.000000000848 Rises=F Damp=F
 DIIS: error= 1.64D-07 at cycle  16 NSaved=  16.
 NSaved=16 IEnMin=16 EnMin= -1199.59651381131     IErMin=16 ErrMin= 1.64D-07
 ErrMax= 1.64D-07  0.00D+00 EMaxC= 1.00D-01 BMatC= 1.42D-11 BMatP= 2.38D-11
 IDIUse=1 WtCom= 1.00D+00 WtEn= 0.00D+00
 Coeff-Com: -0.507D-04 0.151D-02 0.527D-03-0.778D-02-0.169D-01 0.250D-01
 Coeff-Com:  0.352D-01-0.200D-01-0.387D-01-0.728D-02 0.112D+00 0.136D+00
 Coeff-Com: -0.829D-01-0.152D+01 0.830D+00 0.155D+01
 Coeff:     -0.507D-04 0.151D-02 0.527D-03-0.778D-02-0.169D-01 0.250D-01
 Coeff:      0.352D-01-0.200D-01-0.387D-01-0.728D-02 0.112D+00 0.136D+00
 Coeff:     -0.829D-01-0.152D+01 0.830D+00 0.155D+01
 Gap=     0.202 Goal=   None    Shift=    0.000
 RMSDP=2.80D-07 MaxDP=9.93D-06 DE=-8.48D-10 OVMax= 7.48D-05

 Cycle  17  Pass 1  IDiag  1:
 E= -1199.59651381200     Delta-E=       -0.000000000690 Rises=F Damp=F
 DIIS: error= 1.12D-07 at cycle  17 NSaved=  17.
 NSaved=17 IEnMin=17 EnMin= -1199.59651381200     IErMin=17 ErrMin= 1.12D-07
 ErrMax= 1.12D-07  0.00D+00 EMaxC= 1.00D-01 BMatC= 4.14D-12 BMatP= 1.42D-11
 IDIUse=1 WtCom= 1.00D+00 WtEn= 0.00D+00
 Coeff-Com: -0.159D-03 0.175D-02 0.104D-02-0.595D-02-0.130D-01 0.694D-02
 Coeff-Com:  0.218D-01 0.946D-02-0.290D-01-0.172D-01 0.327D-01 0.138D+00
 Coeff-Com:  0.262D+00-0.530D+00-0.614D+00 0.535D+00 0.120D+01
 Coeff:     -0.159D-03 0.175D-02 0.104D-02-0.595D-02-0.130D-01 0.694D-02
 Coeff:      0.218D-01 0.946D-02-0.290D-01-0.172D-01 0.327D-01 0.138D+00
 Coeff:      0.262D+00-0.530D+00-0.614D+00 0.535D+00 0.120D+01
 Gap=     0.202 Goal=   None    Shift=    0.000
 RMSDP=1.86D-07 MaxDP=6.83D-06 DE=-6.90D-10 OVMax= 4.67D-05

 Cycle  18  Pass 1  IDiag  1:
 E= -1199.59651381222     Delta-E=       -0.000000000215 Rises=F Damp=F
 DIIS: error= 4.55D-08 at cycle  18 NSaved=  18.
 NSaved=18 IEnMin=18 EnMin= -1199.59651381222     IErMin=18 ErrMin= 4.55D-08
 ErrMax= 4.55D-08  0.00D+00 EMaxC= 1.00D-01 BMatC= 7.02D-13 BMatP= 4.14D-12
 IDIUse=1 WtCom= 1.00D+00 WtEn= 0.00D+00
 Coeff-Com: -0.151D-04 0.461D-04 0.366D-04 0.751D-03 0.772D-03-0.296D-02
 Coeff-Com: -0.161D-02 0.423D-02 0.179D-02-0.399D-02-0.106D-01-0.460D-02
 Coeff-Com:  0.762D-01 0.159D+00-0.245D+00-0.186D+00 0.212D+00 0.100D+01
 Coeff:     -0.151D-04 0.461D-04 0.366D-04 0.751D-03 0.772D-03-0.296D-02
 Coeff:     -0.161D-02 0.423D-02 0.179D-02-0.399D-02-0.106D-01-0.460D-02
 Coeff:      0.762D-01 0.159D+00-0.245D+00-0.186D+00 0.212D+00 0.100D+01
 Gap=     0.202 Goal=   None    Shift=    0.000
 RMSDP=3.76D-08 MaxDP=1.25D-06 DE=-2.15D-10 OVMax= 9.43D-06

 Cycle  19  Pass 1  IDiag  1:
 E= -1199.59651381223     Delta-E=       -0.000000000010 Rises=F Damp=F
 DIIS: error= 1.86D-08 at cycle  19 NSaved=  19.
 NSaved=19 IEnMin=19 EnMin= -1199.59651381223     IErMin=19 ErrMin= 1.86D-08
 ErrMax= 1.86D-08  0.00D+00 EMaxC= 1.00D-01 BMatC= 2.12D-13 BMatP= 7.02D-13
 IDIUse=1 WtCom= 1.00D+00 WtEn= 0.00D+00
 Coeff-Com:  0.495D-05-0.132D-03-0.136D-03 0.102D-02 0.139D-02-0.229D-02
 Coeff-Com: -0.247D-02 0.885D-03 0.432D-02-0.875D-03-0.794D-02-0.234D-01
 Coeff-Com:  0.607D-02 0.141D+00-0.246D-01-0.163D+00-0.723D-01 0.461D+00
 Coeff-Com:  0.683D+00
 Coeff:      0.495D-05-0.132D-03-0.136D-03 0.102D-02 0.139D-02-0.229D-02
 Coeff:     -0.247D-02 0.885D-03 0.432D-02-0.875D-03-0.794D-02-0.234D-01
 Coeff:      0.607D-02 0.141D+00-0.246D-01-0.163D+00-0.723D-01 0.461D+00
 Coeff:      0.683D+00
 Gap=     0.202 Goal=   None    Shift=    0.000
 RMSDP=7.79D-09 MaxDP=2.45D-07 DE=-1.00D-11 OVMax= 1.37D-06

 SCF Done:  E(RwB97XD) =  -1199.59651381     A.U. after   19 cycles
            NFock= 19  Conv=0.78D-08     -V/T= 2.0020
 KE= 1.197237124250D+03 PE=-4.624365158698D+03 EE= 1.338908786756D+03
 Leave Link  502 at Fri May 23 06:19:41 2025, MaxMem=  3758096384 cpu:              77.3 elap:              16.7
 (Enter /apps/easybuild-2022/easybuild/software/Compiler/NVHPC/22.11-CUDA-11.7.0/Gaussian/g16c01-CUDA-11.7.0/g16/l508.exe)
 QCSCF skips out because SCF is already converged.
 Leave Link  508 at Fri May 23 06:19:41 2025, MaxMem=  3758096384 cpu:               0.0 elap:               0.0
 (Enter /apps/easybuild-2022/easybuild/software/Compiler/NVHPC/22.11-CUDA-11.7.0/Gaussian/g16c01-CUDA-11.7.0/g16/l801.exe)
 DoSCS=F DFT=T ScalE2(SS,OS)=  1.000000  1.000000
 Range of M.O.s used for correlation:     1   257
 NBasis=   257 NAE=    49 NBE=    49 NFC=     0 NFV=     0
 NROrb=    257 NOA=    49 NOB=    49 NVA=   208 NVB=   208

 **** Warning!!: The largest alpha MO coefficient is  0.36192052D+02

 Leave Link  801 at Fri May 23 06:19:41 2025, MaxMem=  3758096384 cpu:               0.0 elap:               0.0
 (Enter /apps/easybuild-2022/easybuild/software/Compiler/NVHPC/22.11-CUDA-11.7.0/Gaussian/g16c01-CUDA-11.7.0/g16/l1101.exe)
 Leave Link 1101 at Fri May 23 06:19:41 2025, MaxMem=  3758096384 cpu:               0.1 elap:               0.0
 (Enter /apps/easybuild-2022/easybuild/software/Compiler/NVHPC/22.11-CUDA-11.7.0/Gaussian/g16c01-CUDA-11.7.0/g16/l1102.exe)
 Symmetrizing basis deriv contribution to polar:
 IMax=3 JMax=2 DiffMx= 0.00D+00
 Leave Link 1102 at Fri May 23 06:19:41 2025, MaxMem=  3758096384 cpu:               0.1 elap:               0.0
 (Enter /apps/easybuild-2022/easybuild/software/Compiler/NVHPC/22.11-CUDA-11.7.0/Gaussian/g16c01-CUDA-11.7.0/g16/l1110.exe)
 Leave Link 1110 at Fri May 23 06:19:41 2025, MaxMem=  3758096384 cpu:               0.1 elap:               0.0
 (Enter /apps/easybuild-2022/easybuild/software/Compiler/NVHPC/22.11-CUDA-11.7.0/Gaussian/g16c01-CUDA-11.7.0/g16/l1002.exe)
 Minotr:  Closed shell wavefunction.
 Leave Link 1002 at Fri May 23 06:19:42 2025, MaxMem=  3758096384 cpu:               0.1 elap:               0.0
 (Enter /apps/easybuild-2022/easybuild/software/Compiler/NVHPC/22.11-CUDA-11.7.0/Gaussian/g16c01-CUDA-11.7.0/g16/l701.exe)
 ... and contract with generalized density number  0.
 Compute integral first derivatives.
 R6Disp: Adding Grimme-D2 dispersion energy 1st derivatives to the gradient.
 Leave Link  701 at Fri May 23 06:19:42 2025, MaxMem=  3758096384 cpu:               0.5 elap:               0.1
 (Enter /apps/easybuild-2022/easybuild/software/Compiler/NVHPC/22.11-CUDA-11.7.0/Gaussian/g16c01-CUDA-11.7.0/g16/l702.exe)
 L702 exits ... SP integral derivatives will be done elsewhere.
 Leave Link  702 at Fri May 23 06:19:42 2025, MaxMem=  3758096384 cpu:               0.1 elap:               0.0
 (Enter /apps/easybuild-2022/easybuild/software/Compiler/NVHPC/22.11-CUDA-11.7.0/Gaussian/g16c01-CUDA-11.7.0/g16/l703.exe)
 Integral derivatives from FoFJK, PRISM(SPDF).
 Compute integral first derivatives, UseDBF=F ICtDFT=           0.
 Calling FoFJK, ICntrl=      2127 FMM=F ISym2X=0 I1Cent= 0 IOpClX= 0 NMat=1 NMatS=1 NMatT=0.
 FoFJK:  IHMeth= 1 ICntrl=    2127 DoSepK=T KAlg= 0 I1Cent=           0 FoldK=F
 IRaf=         1 NMat=       1 IRICut=       1 DoRegI=T DoRafI=F ISym2E= 0 IDoP0=0 IntGTp=1.
 FoFCou: FMM=F IPFlag=           0 FMFlag=      100000 FMFlg1=         800
         NFxFlg=           0 DoJE=F BraDBF=F KetDBF=F FulRan=T
         wScrn=  0.000000 ICntrl=      2527 IOpCl=  0 I1Cent=           0 NGrid=           0
         NMat0=    1 NMatS0=      1 NMatT0=    0 NMatD0=    1 NMtDS0=    0 NMtDT0=    0
 Symmetry not used in FoFCou.
 Leave Link  703 at Fri May 23 06:19:46 2025, MaxMem=  3758096384 cpu:              30.8 elap:               4.1
 (Enter /apps/easybuild-2022/easybuild/software/Compiler/NVHPC/22.11-CUDA-11.7.0/Gaussian/g16c01-CUDA-11.7.0/g16/l716.exe)
 Dipole        =-7.65984918D-02 3.78693651D-01 9.66557797D-02
 Polarizability= 0.00000000D+00 0.00000000D+00 0.00000000D+00
                 0.00000000D+00 0.00000000D+00 0.00000000D+00
 -------------------------------------------------------------------
 Center     Atomic                   Forces (Hartrees/Bohr)
 Number     Number              X              Y              Z
 -------------------------------------------------------------------
      1        6          -0.000036451   -0.000047802   -0.000007750
      2        6          -0.000129936    0.000015901   -0.000017684
      3        9          -0.000054702   -0.000112146   -0.000077264
      4        9          -0.000380037   -0.000161924   -0.000097671
      5       16          -0.000271106    0.000547447   -0.000195470
      6        8           0.000821293   -0.000315687    0.000110315
      7        8           0.000110743    0.000216828    0.000309984
      8        8           0.000004150    0.000023709   -0.000031245
      9        9          -0.000034985   -0.000083600    0.000013397
     10        9           0.000005764   -0.000021150   -0.000027061
     11        9          -0.000043231   -0.000068047    0.000016780
     12        1           0.000008499    0.000006470    0.000003671
 -------------------------------------------------------------------
 Cartesian Forces:  Max     0.000821293 RMS     0.000210426
 Leave Link  716 at Fri May 23 06:19:46 2025, MaxMem=  3758096384 cpu:               0.1 elap:               0.0
 (Enter /apps/easybuild-2022/easybuild/software/Compiler/NVHPC/22.11-CUDA-11.7.0/Gaussian/g16c01-CUDA-11.7.0/g16/l123.exe)
 IRC-IRC-IRC-IRC-IRC-IRC-IRC-IRC-IRC-IRC-IRC-IRC-IRC-IRC-IRC-IRC-IRC-IRC
 Pt  1 Step number   1 out of a maximum of  20
 Using modified Bulirsch-Stoer corrector integration.
   Using distance weighted interpolants to fit PES.
 PreDWI: IReCr0= 2 IReCr1= 1 IReCr2= 1 IReCr3= 1
 Modified Bulirsch-Stoer Extrapolation Cycles:
    EPS =    0.000010000000000
    Cycle     1 NS=    48
      PEZero:  N= 2 I= 1 D=  2.15D-04 Err=  9.66D-04
    Cycle     2 NS=    64 Truncation Error =  0.000966473
      PEZero:  N= 3 I= 2 D=  2.15D-04 Err=  3.04D-04
      PEZero:  N= 3 I= 1 D=  4.31D-04 Err=  5.11D-04
    Cycle     3 NS=    96 Truncation Error =  0.000303529
      PEZero:  N= 4 I= 3 D=  1.08D-04 Err=  2.28D-04
      PEZero:  N= 4 I= 2 D=  3.23D-04 Err=  2.56D-08
      PEZero:  N= 4 I= 1 D=  5.38D-04 Err=  1.82D-04
    Cycle     4 NS=   128 Truncation Error =  0.000000026
 BS completed in    4 cycles and     336 integration steps.
 Maximum DWI energy   std dev =  0.000000092 at pt    21
 Maximum DWI gradient std dev =  0.045100716 at pt     1
 SUMMARY OF CORRECTOR INTEGRATION:
   Predictor End Point Energy = -1199.596514
   Old End Point Energy       = -1199.596514
   Corrected End Point Energy = -1199.596514
   Predictor End-Start Dist.  =     0.082696
   Old End-Start Dist.        =     0.082696
   New End-Start Dist.        =     0.082688
   New End-Old End Dist.      =     0.001127
 CORRECTOR INTEGRATION CONVERGENCE:
   Recorrection delta-x convergence threshold:    0.010000
   Delta-x Convergence Met
 Point Number:   1          Path Number:   1
                    CURRENT STRUCTURE
                Cartesian Coordinates (Ang):                
 ---------------------------------------------------------------------
 Center     Atomic                     Coordinates (Angstroms)
 Number     Number                        X           Y           Z
 ---------------------------------------------------------------------
      1          6                   -1.333853   -0.607735    0.510691
      2          6                   -0.363984    0.270364   -0.308713
      3          9                   -0.685255    0.263842   -1.591587
      4          9                   -0.398505    1.531444    0.158443
      5         16                    1.487386   -0.189514   -0.032897
      6          8                    1.510023    2.409041    0.596264
      7          8                    1.661398   -1.601450   -0.328329
      8          8                    2.030519    0.660957   -1.290549
      9          9                   -1.411037   -1.816623   -0.020191
     10          9                   -0.884210   -0.702830    1.761665
     11          9                   -2.545389   -0.063361    0.529764
     12          1                    2.151909    1.567827   -0.930494
 ---------------------------------------------------------------------
   CHANGE IN THE REACTION COORDINATE =    0.08269
   NET REACTION COORDINATE UP TO THIS POINT =    0.08269
  # OF POINTS ALONG THE PATH =   1
  # OF STEPS =   1

 Calculating another point on the path.
 Point Number  2 in REVERSE path direction.
 Using LQA Reaction Path Following.
   LQA: T_Est iteration completed in    3 iterations.
 IRC-IRC-IRC-IRC-IRC-IRC-IRC-IRC-IRC-IRC-IRC-IRC-IRC-IRC-IRC-IRC-IRC-IRC
 Leave Link  123 at Fri May 23 06:19:46 2025, MaxMem=  3758096384 cpu:               0.2 elap:               0.1
 (Enter /apps/easybuild-2022/easybuild/software/Compiler/NVHPC/22.11-CUDA-11.7.0/Gaussian/g16c01-CUDA-11.7.0/g16/l202.exe)
                          Input orientation:                          
 ---------------------------------------------------------------------
 Center     Atomic      Atomic             Coordinates (Angstroms)
 Number     Number       Type             X           Y           Z
 ---------------------------------------------------------------------
      1          6           0       -1.334286   -0.608375    0.510555
      2          6           0       -0.365668    0.270575   -0.308980
      3          9           0       -0.685698    0.262957   -1.592231
      4          9           0       -0.401447    1.530163    0.157715
      5         16           0        1.486094   -0.186942   -0.033772
      6          8           0        1.517737    2.406127    0.597343
      7          8           0        1.662442   -1.599442   -0.325423
      8          8           0        2.030574    0.661283   -1.290894
      9          9           0       -1.411313   -1.817293   -0.020109
     10          9           0       -0.884172   -0.703025    1.761445
     11          9           0       -2.545743   -0.063913    0.529890
     12          1           0        2.153151    1.568051   -0.929596
 ---------------------------------------------------------------------
                    Distance matrix (angstroms):
                    1          2          3          4          5
     1  C    0.000000
     2  C    1.543507   0.000000
     3  F    2.366769   1.322577   0.000000
     4  F    2.359667   1.343743   2.179202   0.000000
     5  S    2.903178   1.927196   2.710698   2.558893   0.000000
     6  O    4.150758   2.988180   3.773929   2.154960   2.668955
     7  O    3.265189   2.758707   3.253782   3.779880   1.453036
     8  O    4.022379   2.618928   2.761811   2.961106   1.611304
     9  F    1.322506   2.352874   2.706571   3.500988   3.324635
    10  F    1.332775   2.345934   3.495663   2.791434   3.017831
    11  F    1.328322   2.359728   2.840776   2.697703   4.072906
    12  H    4.355811   2.900527   3.193967   2.776626   2.080257
                    6          7          8          9         10
     6  O    0.000000
     7  O    4.113031   0.000000
     8  O    2.621627   2.485665   0.000000
     9  F    5.176665   3.096554   4.427733   0.000000
    10  F    4.097698   3.412305   4.435522   2.166427   0.000000
    11  F    4.755788   4.560509   4.978338   2.159577   2.164721
    12  H    1.854094   3.261723   0.983764   4.999313   4.650250
                   11         12
    11  F    0.000000
    12  H    5.183919   0.000000
 Symmetry turned off by external request.
 Stoichiometry    C2HF5O3S
 Rotational constants (GHZ):           1.3981051           0.8142087           0.6988559
 Leave Link  202 at Fri May 23 06:19:46 2025, MaxMem=  3758096384 cpu:               0.1 elap:               0.0
 (Enter /apps/easybuild-2022/easybuild/software/Compiler/NVHPC/22.11-CUDA-11.7.0/Gaussian/g16c01-CUDA-11.7.0/g16/l301.exe)
 Standard basis: 6-311++G(d,p) (5D, 7F)
 Ernie: Thresh=  0.10000D-02 Tol=  0.10000D-05 Strict=F.
   257 basis functions,   419 primitive gaussians,   268 cartesian basis functions
    49 alpha electrons       49 beta electrons
       nuclear repulsion energy       888.6809335005 Hartrees.
 IExCor= 4639 DFT=T Ex+Corr=wB97XD ExCW=0 ScaHFX=  1.000000
 ScaDFX=  1.000000  1.000000  1.000000  1.000000 ScalE2=  1.000000  1.000000
 IRadAn=      5 IRanWt=     -1 IRanGd=            0 ICorTp=0 IEmpDi=121
 HFx  wShort=  0.000000 wLong=  0.200000 cFull=  0.222036 cShort=  0.000000 cLong=  0.777964
 DFx  wShort=  0.000000 wLong=  0.200000 cFull=  0.000000 cShort=  0.000000 cLong=  1.000000
 NAtoms=   12 NActive=   12 NUniq=   12 SFac= 1.00D+00 NAtFMM=   60 NAOKFM=F Big=F
 Integral buffers will be    131072 words long.
 Raffenetti 2 integral format.
 Two-electron integral symmetry is turned off.
 R6Disp:  Grimme-D2 Dispersion energy=       -0.0053197626 Hartrees.
 Nuclear repulsion after empirical dispersion term =      888.6756137379 Hartrees.
 Leave Link  301 at Fri May 23 06:19:46 2025, MaxMem=  3758096384 cpu:               0.1 elap:               0.0
 (Enter /apps/easybuild-2022/easybuild/software/Compiler/NVHPC/22.11-CUDA-11.7.0/Gaussian/g16c01-CUDA-11.7.0/g16/l302.exe)
 NPDir=0 NMtPBC=     1 NCelOv=     1 NCel=       1 NClECP=     1 NCelD=      1
         NCelK=      1 NCelE2=     1 NClLst=     1 CellRange=     0.0.
 One-electron integrals computed using PRISM.
 NBasis=   257 RedAO= T EigKep=  5.94D-05  NBF=   257
 NBsUse=   257 1.00D-06 EigRej= -1.00D+00 NBFU=   257
 Precomputing XC quadrature grid using
 IXCGrd= 4 IRadAn=           5 IRanWt=          -1 IRanGd=           0 AccXCQ= 0.00D+00.
 Generated NRdTot=       0 NPtTot=           0 NUsed=           0 NTot=          32
 NSgBfM=   268   268   268   268   268 MxSgAt=    12 MxSgA2=    12.
 Leave Link  302 at Fri May 23 06:19:46 2025, MaxMem=  3758096384 cpu:               0.7 elap:               0.2
 (Enter /apps/easybuild-2022/easybuild/software/Compiler/NVHPC/22.11-CUDA-11.7.0/Gaussian/g16c01-CUDA-11.7.0/g16/l303.exe)
 DipDrv:  MaxL=1.
 Leave Link  303 at Fri May 23 06:19:46 2025, MaxMem=  3758096384 cpu:               0.1 elap:               0.0
 (Enter /apps/easybuild-2022/easybuild/software/Compiler/NVHPC/22.11-CUDA-11.7.0/Gaussian/g16c01-CUDA-11.7.0/g16/l401.exe)
 Initial guess from the checkpoint file:  "2003846667223680600001_r12_insertion_R_2_5_6_IRC_R.chk"
 B after Tr=     0.000050    0.000039    0.000022
         Rot=    1.000000    0.000017   -0.000007    0.000011 Ang=   0.00 deg.
 Guess basis will be translated and rotated to current coordinates.
 JPrj=2 DoOrth=T DoCkMO=T.
 Generating alternative initial guess.
 ExpMin= 3.60D-02 ExpMax= 9.34D+04 ExpMxC= 3.17D+03 IAcc=3 IRadAn=         5 AccDes= 0.00D+00
 Harris functional with IExCor= 4639 and IRadAn=       5 diagonalized for initial guess.
 HarFok:  IExCor= 4639 AccDes= 0.00D+00 IRadAn=         5 IDoV= 1 UseB2=F ITyADJ=14
 ICtDFT=  3500011 ScaDFX=  1.000000  1.000000  1.000000  1.000000
 FoFCou: FMM=F IPFlag=           0 FMFlag=      100000 FMFlg1=           0
         NFxFlg=           0 DoJE=T BraDBF=F KetDBF=T FulRan=T
         wScrn=  0.000000 ICntrl=       500 IOpCl=  0 I1Cent=   200000004 NGrid=           0
         NMat0=    1 NMatS0=      1 NMatT0=    0 NMatD0=    1 NMtDS0=    0 NMtDT0=    0
 Symmetry not used in FoFCou.
 Harris En= -1167.02116272468    
 Leave Link  401 at Fri May 23 06:19:47 2025, MaxMem=  3758096384 cpu:               2.7 elap:               0.6
 (Enter /apps/easybuild-2022/easybuild/software/Compiler/NVHPC/22.11-CUDA-11.7.0/Gaussian/g16c01-CUDA-11.7.0/g16/l502.exe)
 Keep R1 ints in memory in canonical form, NReq=1117474609.
 FoFCou: FMM=F IPFlag=           0 FMFlag=           0 FMFlg1=           0
         NFxFlg=           0 DoJE=F BraDBF=F KetDBF=F FulRan=T
         wScrn=  0.000000 ICntrl=       600 IOpCl=  0 I1Cent=           0 NGrid=           0
         NMat0=    1 NMatS0=  33153 NMatT0=    0 NMatD0=    1 NMtDS0=    0 NMtDT0=    0
 Symmetry not used in FoFCou.
 Two-electron integral symmetry not used.
 Closed shell SCF:
 Using DIIS extrapolation, IDIIS=  1040.
 NGot=  3758096384 LenX=  2658793876 LenY=  2658721611
 Requested convergence on RMS density matrix=1.00D-08 within  32 cycles.
 Requested convergence on MAX density matrix=1.00D-06.
 Requested convergence on             energy=1.00D-06.
 No special actions if energy rises.

 Cycle   1  Pass 1  IDiag  1:
 E= -1199.59651530905    
 DIIS: error= 1.13D-04 at cycle   1 NSaved=   1.
 NSaved= 1 IEnMin= 1 EnMin= -1199.59651530905     IErMin= 1 ErrMin= 1.13D-04
 ErrMax= 1.13D-04  0.00D+00 EMaxC= 1.00D-01 BMatC= 1.28D-05 BMatP= 1.28D-05
 IDIUse=3 WtCom= 9.99D-01 WtEn= 1.13D-03
 Coeff-Com:  0.100D+01
 Coeff-En:   0.100D+01
 Coeff:      0.100D+01
 Gap=     0.698 Goal=   None    Shift=    0.000
 RMSDP=9.28D-05 MaxDP=4.33D-03              OVMax= 2.93D-03

 Cycle   2  Pass 1  IDiag  1:
 E= -1199.59653738814     Delta-E=       -0.000022079088 Rises=F Damp=F
 DIIS: error= 6.87D-05 at cycle   2 NSaved=   2.
 NSaved= 2 IEnMin= 2 EnMin= -1199.59653738814     IErMin= 2 ErrMin= 6.87D-05
 ErrMax= 6.87D-05  0.00D+00 EMaxC= 1.00D-01 BMatC= 3.30D-06 BMatP= 1.28D-05
 IDIUse=1 WtCom= 1.00D+00 WtEn= 0.00D+00
 Coeff-Com:  0.151D+00 0.849D+00
 Coeff:      0.151D+00 0.849D+00
 Gap=     0.203 Goal=   None    Shift=    0.000
 RMSDP=1.98D-05 MaxDP=6.30D-04 DE=-2.21D-05 OVMax= 1.01D-03

 Cycle   3  Pass 1  IDiag  1:
 E= -1199.59653876653     Delta-E=       -0.000001378393 Rises=F Damp=F
 DIIS: error= 8.16D-05 at cycle   3 NSaved=   3.
 NSaved= 3 IEnMin= 3 EnMin= -1199.59653876653     IErMin= 2 ErrMin= 6.87D-05
 ErrMax= 8.16D-05  0.00D+00 EMaxC= 1.00D-01 BMatC= 3.96D-06 BMatP= 3.30D-06
 IDIUse=1 WtCom= 1.00D+00 WtEn= 0.00D+00
 Coeff-Com: -0.105D+00 0.577D+00 0.528D+00
 Coeff:     -0.105D+00 0.577D+00 0.528D+00
 Gap=     0.202 Goal=   None    Shift=    0.000
 RMSDP=1.72D-05 MaxDP=7.71D-04 DE=-1.38D-06 OVMax= 1.56D-03

 Cycle   4  Pass 1  IDiag  1:
 E= -1199.59654302491     Delta-E=       -0.000004258376 Rises=F Damp=F
 DIIS: error= 2.23D-05 at cycle   4 NSaved=   4.
 NSaved= 4 IEnMin= 4 EnMin= -1199.59654302491     IErMin= 4 ErrMin= 2.23D-05
 ErrMax= 2.23D-05  0.00D+00 EMaxC= 1.00D-01 BMatC= 2.27D-07 BMatP= 3.30D-06
 IDIUse=1 WtCom= 1.00D+00 WtEn= 0.00D+00
 Coeff-Com: -0.327D-01 0.391D-01 0.178D+00 0.816D+00
 Coeff:     -0.327D-01 0.391D-01 0.178D+00 0.816D+00
 Gap=     0.202 Goal=   None    Shift=    0.000
 RMSDP=5.39D-06 MaxDP=1.99D-04 DE=-4.26D-06 OVMax= 6.62D-04

 Cycle   5  Pass 1  IDiag  1:
 E= -1199.59654397106     Delta-E=       -0.000000946151 Rises=F Damp=F
 DIIS: error= 1.58D-05 at cycle   5 NSaved=   5.
 NSaved= 5 IEnMin= 5 EnMin= -1199.59654397106     IErMin= 5 ErrMin= 1.58D-05
 ErrMax= 1.58D-05  0.00D+00 EMaxC= 1.00D-01 BMatC= 9.53D-08 BMatP= 2.27D-07
 IDIUse=1 WtCom= 1.00D+00 WtEn= 0.00D+00
 Coeff-Com:  0.188D-01-0.168D+00-0.352D-01 0.259D+00 0.925D+00
 Coeff:      0.188D-01-0.168D+00-0.352D-01 0.259D+00 0.925D+00
 Gap=     0.202 Goal=   None    Shift=    0.000
 RMSDP=5.58D-06 MaxDP=2.33D-04 DE=-9.46D-07 OVMax= 8.14D-04

 Cycle   6  Pass 1  IDiag  1:
 E= -1199.59654487136     Delta-E=       -0.000000900302 Rises=F Damp=F
 DIIS: error= 1.33D-05 at cycle   6 NSaved=   6.
 NSaved= 6 IEnMin= 6 EnMin= -1199.59654487136     IErMin= 6 ErrMin= 1.33D-05
 ErrMax= 1.33D-05  0.00D+00 EMaxC= 1.00D-01 BMatC= 5.47D-08 BMatP= 9.53D-08
 IDIUse=1 WtCom= 1.00D+00 WtEn= 0.00D+00
 Coeff-Com:  0.122D-01-0.498D-01-0.205D-01-0.201D+00 0.143D+00 0.112D+01
 Coeff:      0.122D-01-0.498D-01-0.205D-01-0.201D+00 0.143D+00 0.112D+01
 Gap=     0.203 Goal=   None    Shift=    0.000
 RMSDP=5.10D-06 MaxDP=2.00D-04 DE=-9.00D-07 OVMax= 9.65D-04

 Cycle   7  Pass 1  IDiag  1:
 E= -1199.59654574720     Delta-E=       -0.000000875836 Rises=F Damp=F
 DIIS: error= 1.23D-05 at cycle   7 NSaved=   7.
 NSaved= 7 IEnMin= 7 EnMin= -1199.59654574720     IErMin= 7 ErrMin= 1.23D-05
 ErrMax= 1.23D-05  0.00D+00 EMaxC= 1.00D-01 BMatC= 4.13D-08 BMatP= 5.47D-08
 IDIUse=1 WtCom= 1.00D+00 WtEn= 0.00D+00
 Coeff-Com: -0.712D-02 0.856D-01 0.330D-01-0.265D+00-0.580D+00 0.453D+00
 Coeff-Com:  0.128D+01
 Coeff:     -0.712D-02 0.856D-01 0.330D-01-0.265D+00-0.580D+00 0.453D+00
 Coeff:      0.128D+01
 Gap=     0.203 Goal=   None    Shift=    0.000
 RMSDP=7.16D-06 MaxDP=3.02D-04 DE=-8.76D-07 OVMax= 1.47D-03

 Cycle   8  Pass 1  IDiag  1:
 E= -1199.59654690036     Delta-E=       -0.000001153164 Rises=F Damp=F
 DIIS: error= 1.05D-05 at cycle   8 NSaved=   8.
 NSaved= 8 IEnMin= 8 EnMin= -1199.59654690036     IErMin= 8 ErrMin= 1.05D-05
 ErrMax= 1.05D-05  0.00D+00 EMaxC= 1.00D-01 BMatC= 3.01D-08 BMatP= 4.13D-08
 IDIUse=1 WtCom= 1.00D+00 WtEn= 0.00D+00
 Coeff-Com: -0.159D-01 0.748D-01 0.431D-01 0.238D+00-0.303D+00-0.131D+01
 Coeff-Com:  0.201D+00 0.208D+01
 Coeff:     -0.159D-01 0.748D-01 0.431D-01 0.238D+00-0.303D+00-0.131D+01
 Coeff:      0.201D+00 0.208D+01
 Gap=     0.203 Goal=   None    Shift=    0.000
 RMSDP=1.38D-05 MaxDP=5.99D-04 DE=-1.15D-06 OVMax= 2.93D-03

 Cycle   9  Pass 1  IDiag  1:
 E= -1199.59654873002     Delta-E=       -0.000001829657 Rises=F Damp=F
 DIIS: error= 7.84D-06 at cycle   9 NSaved=   9.
 NSaved= 9 IEnMin= 9 EnMin= -1199.59654873002     IErMin= 9 ErrMin= 7.84D-06
 ErrMax= 7.84D-06  0.00D+00 EMaxC= 1.00D-01 BMatC= 1.78D-08 BMatP= 3.01D-08
 IDIUse=1 WtCom= 1.00D+00 WtEn= 0.00D+00
 Coeff-Com: -0.246D-02-0.448D-01-0.173D-01 0.438D+00 0.375D+00-0.129D+01
 Coeff-Com: -0.122D+01 0.113D+01 0.164D+01
 Coeff:     -0.246D-02-0.448D-01-0.173D-01 0.438D+00 0.375D+00-0.129D+01
 Coeff:     -0.122D+01 0.113D+01 0.164D+01
 Gap=     0.203 Goal=   None    Shift=    0.000
 RMSDP=2.05D-05 MaxDP=9.01D-04 DE=-1.83D-06 OVMax= 4.42D-03

 Cycle  10  Pass 1  IDiag  1:
 E= -1199.59655036328     Delta-E=       -0.000001633259 Rises=F Damp=F
 DIIS: error= 4.89D-06 at cycle  10 NSaved=  10.
 NSaved=10 IEnMin=10 EnMin= -1199.59655036328     IErMin=10 ErrMin= 4.89D-06
 ErrMax= 4.89D-06  0.00D+00 EMaxC= 1.00D-01 BMatC= 8.38D-09 BMatP= 1.78D-08
 IDIUse=1 WtCom= 1.00D+00 WtEn= 0.00D+00
 Coeff-Com:  0.975D-02-0.845D-01-0.449D-01 0.173D+00 0.480D+00-0.288D-03
 Coeff-Com: -0.945D+00-0.609D+00 0.109D+01 0.926D+00
 Coeff:      0.975D-02-0.845D-01-0.449D-01 0.173D+00 0.480D+00-0.288D-03
 Coeff:     -0.945D+00-0.609D+00 0.109D+01 0.926D+00
 Gap=     0.203 Goal=   None    Shift=    0.000
 RMSDP=1.12D-05 MaxDP=4.91D-04 DE=-1.63D-06 OVMax= 2.44D-03

 Cycle  11  Pass 1  IDiag  1:
 E= -1199.59655070648     Delta-E=       -0.000000343202 Rises=F Damp=F
 DIIS: error= 1.28D-06 at cycle  11 NSaved=  11.
 NSaved=11 IEnMin=11 EnMin= -1199.59655070648     IErMin=11 ErrMin= 1.28D-06
 ErrMax= 1.28D-06  0.00D+00 EMaxC= 1.00D-01 BMatC= 8.04D-10 BMatP= 8.38D-09
 IDIUse=1 WtCom= 1.00D+00 WtEn= 0.00D+00
 Coeff-Com:  0.223D-02-0.115D-01-0.107D-01-0.284D-01 0.308D-01 0.198D+00
 Coeff-Com: -0.324D-01-0.343D+00 0.357D-01 0.277D+00 0.882D+00
 Coeff:      0.223D-02-0.115D-01-0.107D-01-0.284D-01 0.308D-01 0.198D+00
 Coeff:     -0.324D-01-0.343D+00 0.357D-01 0.277D+00 0.882D+00
 Gap=     0.203 Goal=   None    Shift=    0.000
 RMSDP=3.14D-06 MaxDP=1.35D-04 DE=-3.43D-07 OVMax= 6.72D-04

 Cycle  12  Pass 1  IDiag  1:
 E= -1199.59655072956     Delta-E=       -0.000000023085 Rises=F Damp=F
 DIIS: error= 8.18D-07 at cycle  12 NSaved=  12.
 NSaved=12 IEnMin=12 EnMin= -1199.59655072956     IErMin=12 ErrMin= 8.18D-07
 ErrMax= 8.18D-07  0.00D+00 EMaxC= 1.00D-01 BMatC= 2.85D-10 BMatP= 8.04D-10
 IDIUse=1 WtCom= 1.00D+00 WtEn= 0.00D+00
 Coeff-Com: -0.251D-03 0.787D-02 0.247D-02-0.452D-01-0.603D-01 0.120D+00
 Coeff-Com:  0.148D+00-0.784D-01-0.193D+00-0.371D-01 0.431D+00 0.704D+00
 Coeff:     -0.251D-03 0.787D-02 0.247D-02-0.452D-01-0.603D-01 0.120D+00
 Coeff:      0.148D+00-0.784D-01-0.193D+00-0.371D-01 0.431D+00 0.704D+00
 Gap=     0.203 Goal=   None    Shift=    0.000
 RMSDP=4.67D-07 MaxDP=1.88D-05 DE=-2.31D-08 OVMax= 1.07D-04

 Cycle  13  Pass 1  IDiag  1:
 E= -1199.59655073119     Delta-E=       -0.000000001630 Rises=F Damp=F
 DIIS: error= 4.08D-07 at cycle  13 NSaved=  13.
 NSaved=13 IEnMin=13 EnMin= -1199.59655073119     IErMin=13 ErrMin= 4.08D-07
 ErrMax= 4.08D-07  0.00D+00 EMaxC= 1.00D-01 BMatC= 7.03D-11 BMatP= 2.85D-10
 IDIUse=1 WtCom= 1.00D+00 WtEn= 0.00D+00
 Coeff-Com: -0.475D-03 0.423D-02 0.270D-02-0.858D-02-0.208D-01-0.679D-02
 Coeff-Com:  0.386D-01 0.449D-01-0.518D-01-0.521D-01-0.420D-01 0.248D+00
 Coeff-Com:  0.844D+00
 Coeff:     -0.475D-03 0.423D-02 0.270D-02-0.858D-02-0.208D-01-0.679D-02
 Coeff:      0.386D-01 0.449D-01-0.518D-01-0.521D-01-0.420D-01 0.248D+00
 Coeff:      0.844D+00
 Gap=     0.203 Goal=   None    Shift=    0.000
 RMSDP=1.71D-07 MaxDP=5.62D-06 DE=-1.63D-09 OVMax= 3.75D-05

 Cycle  14  Pass 1  IDiag  1:
 E= -1199.59655073177     Delta-E=       -0.000000000573 Rises=F Damp=F
 DIIS: error= 2.99D-07 at cycle  14 NSaved=  14.
 NSaved=14 IEnMin=14 EnMin= -1199.59655073177     IErMin=14 ErrMin= 2.99D-07
 ErrMax= 2.99D-07  0.00D+00 EMaxC= 1.00D-01 BMatC= 3.56D-11 BMatP= 7.03D-11
 IDIUse=1 WtCom= 1.00D+00 WtEn= 0.00D+00
 Coeff-Com:  0.255D-03-0.344D-02-0.147D-02 0.138D-01 0.254D-01-0.295D-01
 Coeff-Com: -0.508D-01 0.840D-02 0.643D-01 0.200D-01-0.118D+00-0.230D+00
 Coeff-Com: -0.192D+00 0.149D+01
 Coeff:      0.255D-03-0.344D-02-0.147D-02 0.138D-01 0.254D-01-0.295D-01
 Coeff:     -0.508D-01 0.840D-02 0.643D-01 0.200D-01-0.118D+00-0.230D+00
 Coeff:     -0.192D+00 0.149D+01
 Gap=     0.203 Goal=   None    Shift=    0.000
 RMSDP=1.42D-07 MaxDP=4.92D-06 DE=-5.73D-10 OVMax= 3.62D-05

 Cycle  15  Pass 1  IDiag  1:
 E= -1199.59655073254     Delta-E=       -0.000000000769 Rises=F Damp=F
 DIIS: error= 2.55D-07 at cycle  15 NSaved=  15.
 NSaved=15 IEnMin=15 EnMin= -1199.59655073254     IErMin=15 ErrMin= 2.55D-07
 ErrMax= 2.55D-07  0.00D+00 EMaxC= 1.00D-01 BMatC= 2.59D-11 BMatP= 3.56D-11
 IDIUse=1 WtCom= 1.00D+00 WtEn= 0.00D+00
 Coeff-Com:  0.358D-03-0.338D-02-0.215D-02 0.936D-02 0.167D-01-0.396D-02
 Coeff-Com: -0.305D-01-0.265D-01 0.458D-01 0.339D-01 0.204D-02-0.222D+00
 Coeff-Com: -0.592D+00 0.135D+00 0.164D+01
 Coeff:      0.358D-03-0.338D-02-0.215D-02 0.936D-02 0.167D-01-0.396D-02
 Coeff:     -0.305D-01-0.265D-01 0.458D-01 0.339D-01 0.204D-02-0.222D+00
 Coeff:     -0.592D+00 0.135D+00 0.164D+01
 Gap=     0.203 Goal=   None    Shift=    0.000
 RMSDP=2.08D-07 MaxDP=7.35D-06 DE=-7.69D-10 OVMax= 5.59D-05

 Cycle  16  Pass 1  IDiag  1:
 E= -1199.59655073354     Delta-E=       -0.000000001002 Rises=F Damp=F
 DIIS: error= 1.77D-07 at cycle  16 NSaved=  16.
 NSaved=16 IEnMin=16 EnMin= -1199.59655073354     IErMin=16 ErrMin= 1.77D-07
 ErrMax= 1.77D-07  0.00D+00 EMaxC= 1.00D-01 BMatC= 1.57D-11 BMatP= 2.59D-11
 IDIUse=1 WtCom= 1.00D+00 WtEn= 0.00D+00
 Coeff-Com: -0.774D-04 0.164D-02 0.625D-03-0.771D-02-0.177D-01 0.233D-01
 Coeff-Com:  0.356D-01-0.186D-01-0.391D-01-0.459D-02 0.111D+00 0.126D+00
 Coeff-Com: -0.590D-01-0.151D+01 0.791D+00 0.157D+01
 Coeff:     -0.774D-04 0.164D-02 0.625D-03-0.771D-02-0.177D-01 0.233D-01
 Coeff:      0.356D-01-0.186D-01-0.391D-01-0.459D-02 0.111D+00 0.126D+00
 Coeff:     -0.590D-01-0.151D+01 0.791D+00 0.157D+01
 Gap=     0.203 Goal=   None    Shift=    0.000
 RMSDP=2.89D-07 MaxDP=1.04D-05 DE=-1.00D-09 OVMax= 7.75D-05

 Cycle  17  Pass 1  IDiag  1:
 E= -1199.59655073434     Delta-E=       -0.000000000804 Rises=F Damp=F
 DIIS: error= 1.25D-07 at cycle  17 NSaved=  17.
 NSaved=17 IEnMin=17 EnMin= -1199.59655073434     IErMin=17 ErrMin= 1.25D-07
 ErrMax= 1.25D-07  0.00D+00 EMaxC= 1.00D-01 BMatC= 4.92D-12 BMatP= 1.57D-11
 IDIUse=1 WtCom= 1.00D+00 WtEn= 0.00D+00
 Coeff-Com: -0.159D-03 0.171D-02 0.112D-02-0.606D-02-0.128D-01 0.562D-02
 Coeff-Com:  0.225D-01 0.801D-02-0.287D-01-0.143D-01 0.314D-01 0.149D+00
 Coeff-Com:  0.273D+00-0.541D+00-0.670D+00 0.540D+00 0.124D+01
 Coeff:     -0.159D-03 0.171D-02 0.112D-02-0.606D-02-0.128D-01 0.562D-02
 Coeff:      0.225D-01 0.801D-02-0.287D-01-0.143D-01 0.314D-01 0.149D+00
 Coeff:      0.273D+00-0.541D+00-0.670D+00 0.540D+00 0.124D+01
 Gap=     0.203 Goal=   None    Shift=    0.000
 RMSDP=2.08D-07 MaxDP=7.64D-06 DE=-8.04D-10 OVMax= 5.23D-05

 Cycle  18  Pass 1  IDiag  1:
 E= -1199.59655073453     Delta-E=       -0.000000000189 Rises=F Damp=F
 DIIS: error= 5.50D-08 at cycle  18 NSaved=  18.
 NSaved=18 IEnMin=18 EnMin= -1199.59655073453     IErMin=18 ErrMin= 5.50D-08
 ErrMax= 5.50D-08  0.00D+00 EMaxC= 1.00D-01 BMatC= 9.57D-13 BMatP= 4.92D-12
 IDIUse=1 WtCom= 1.00D+00 WtEn= 0.00D+00
 Coeff-Com: -0.168D-04 0.749D-04 0.665D-04 0.621D-03 0.623D-03-0.276D-02
 Coeff-Com: -0.133D-02 0.459D-02 0.682D-03-0.442D-02-0.984D-02 0.182D-02
 Coeff-Com:  0.892D-01 0.149D+00-0.281D+00-0.188D+00 0.268D+00 0.972D+00
 Coeff:     -0.168D-04 0.749D-04 0.665D-04 0.621D-03 0.623D-03-0.276D-02
 Coeff:     -0.133D-02 0.459D-02 0.682D-03-0.442D-02-0.984D-02 0.182D-02
 Coeff:      0.892D-01 0.149D+00-0.281D+00-0.188D+00 0.268D+00 0.972D+00
 Gap=     0.203 Goal=   None    Shift=    0.000
 RMSDP=4.42D-08 MaxDP=1.47D-06 DE=-1.89D-10 OVMax= 1.12D-05

 Cycle  19  Pass 1  IDiag  1:
 E= -1199.59655073457     Delta-E=       -0.000000000038 Rises=F Damp=F
 DIIS: error= 2.19D-08 at cycle  19 NSaved=  19.
 NSaved=19 IEnMin=19 EnMin= -1199.59655073457     IErMin=19 ErrMin= 2.19D-08
 ErrMax= 2.19D-08  0.00D+00 EMaxC= 1.00D-01 BMatC= 2.84D-13 BMatP= 9.57D-13
 IDIUse=1 WtCom= 1.00D+00 WtEn= 0.00D+00
 Coeff-Com:  0.472D-05-0.118D-03-0.144D-03 0.102D-02 0.135D-02-0.201D-02
 Coeff-Com: -0.261D-02 0.135D-02 0.374D-02-0.140D-02-0.764D-02-0.242D-01
 Coeff-Com:  0.107D-01 0.145D+00-0.282D-01-0.175D+00-0.672D-01 0.462D+00
 Coeff-Com:  0.683D+00
 Coeff:      0.472D-05-0.118D-03-0.144D-03 0.102D-02 0.135D-02-0.201D-02
 Coeff:     -0.261D-02 0.135D-02 0.374D-02-0.140D-02-0.764D-02-0.242D-01
 Coeff:      0.107D-01 0.145D+00-0.282D-01-0.175D+00-0.672D-01 0.462D+00
 Coeff:      0.683D+00
 Gap=     0.203 Goal=   None    Shift=    0.000
 RMSDP=9.44D-09 MaxDP=2.98D-07 DE=-3.82D-11 OVMax= 1.75D-06

 SCF Done:  E(RwB97XD) =  -1199.59655073     A.U. after   19 cycles
            NFock= 19  Conv=0.94D-08     -V/T= 2.0020
 KE= 1.197238056917D+03 PE=-4.624455529156D+03 EE= 1.338945307766D+03
 Leave Link  502 at Fri May 23 06:20:03 2025, MaxMem=  3758096384 cpu:              77.8 elap:              16.5
 (Enter /apps/easybuild-2022/easybuild/software/Compiler/NVHPC/22.11-CUDA-11.7.0/Gaussian/g16c01-CUDA-11.7.0/g16/l508.exe)
 QCSCF skips out because SCF is already converged.
 Leave Link  508 at Fri May 23 06:20:03 2025, MaxMem=  3758096384 cpu:               0.1 elap:               0.0
 (Enter /apps/easybuild-2022/easybuild/software/Compiler/NVHPC/22.11-CUDA-11.7.0/Gaussian/g16c01-CUDA-11.7.0/g16/l801.exe)
 DoSCS=F DFT=T ScalE2(SS,OS)=  1.000000  1.000000
 Range of M.O.s used for correlation:     1   257
 NBasis=   257 NAE=    49 NBE=    49 NFC=     0 NFV=     0
 NROrb=    257 NOA=    49 NOB=    49 NVA=   208 NVB=   208

 **** Warning!!: The largest alpha MO coefficient is  0.35953309D+02

 Leave Link  801 at Fri May 23 06:20:03 2025, MaxMem=  3758096384 cpu:               0.1 elap:               0.0
 (Enter /apps/easybuild-2022/easybuild/software/Compiler/NVHPC/22.11-CUDA-11.7.0/Gaussian/g16c01-CUDA-11.7.0/g16/l1101.exe)
 Leave Link 1101 at Fri May 23 06:20:03 2025, MaxMem=  3758096384 cpu:               0.1 elap:               0.0
 (Enter /apps/easybuild-2022/easybuild/software/Compiler/NVHPC/22.11-CUDA-11.7.0/Gaussian/g16c01-CUDA-11.7.0/g16/l1102.exe)
 Symmetrizing basis deriv contribution to polar:
 IMax=3 JMax=2 DiffMx= 0.00D+00
 Leave Link 1102 at Fri May 23 06:20:04 2025, MaxMem=  3758096384 cpu:               0.1 elap:               0.0
 (Enter /apps/easybuild-2022/easybuild/software/Compiler/NVHPC/22.11-CUDA-11.7.0/Gaussian/g16c01-CUDA-11.7.0/g16/l1110.exe)
 Leave Link 1110 at Fri May 23 06:20:04 2025, MaxMem=  3758096384 cpu:               0.0 elap:               0.0
 (Enter /apps/easybuild-2022/easybuild/software/Compiler/NVHPC/22.11-CUDA-11.7.0/Gaussian/g16c01-CUDA-11.7.0/g16/l1002.exe)
 Minotr:  Closed shell wavefunction.
 Leave Link 1002 at Fri May 23 06:20:04 2025, MaxMem=  3758096384 cpu:               0.1 elap:               0.0
 (Enter /apps/easybuild-2022/easybuild/software/Compiler/NVHPC/22.11-CUDA-11.7.0/Gaussian/g16c01-CUDA-11.7.0/g16/l701.exe)
 ... and contract with generalized density number  0.
 Compute integral first derivatives.
 R6Disp: Adding Grimme-D2 dispersion energy 1st derivatives to the gradient.
 Leave Link  701 at Fri May 23 06:20:04 2025, MaxMem=  3758096384 cpu:               0.7 elap:               0.2
 (Enter /apps/easybuild-2022/easybuild/software/Compiler/NVHPC/22.11-CUDA-11.7.0/Gaussian/g16c01-CUDA-11.7.0/g16/l702.exe)
 L702 exits ... SP integral derivatives will be done elsewhere.
 Leave Link  702 at Fri May 23 06:20:04 2025, MaxMem=  3758096384 cpu:               0.1 elap:               0.1
 (Enter /apps/easybuild-2022/easybuild/software/Compiler/NVHPC/22.11-CUDA-11.7.0/Gaussian/g16c01-CUDA-11.7.0/g16/l703.exe)
 Integral derivatives from FoFJK, PRISM(SPDF).
 Compute integral first derivatives, UseDBF=F ICtDFT=           0.
 Calling FoFJK, ICntrl=      2127 FMM=F ISym2X=0 I1Cent= 0 IOpClX= 0 NMat=1 NMatS=1 NMatT=0.
 FoFJK:  IHMeth= 1 ICntrl=    2127 DoSepK=T KAlg= 0 I1Cent=           0 FoldK=F
 IRaf=         1 NMat=       1 IRICut=       1 DoRegI=T DoRafI=F ISym2E= 0 IDoP0=0 IntGTp=1.
 FoFCou: FMM=F IPFlag=           0 FMFlag=      100000 FMFlg1=         800
         NFxFlg=           0 DoJE=F BraDBF=F KetDBF=F FulRan=T
         wScrn=  0.000000 ICntrl=      2527 IOpCl=  0 I1Cent=           0 NGrid=           0
         NMat0=    1 NMatS0=      1 NMatT0=    0 NMatD0=    1 NMtDS0=    0 NMtDT0=    0
 Symmetry not used in FoFCou.
 Leave Link  703 at Fri May 23 06:20:08 2025, MaxMem=  3758096384 cpu:              30.7 elap:               4.1
 (Enter /apps/easybuild-2022/easybuild/software/Compiler/NVHPC/22.11-CUDA-11.7.0/Gaussian/g16c01-CUDA-11.7.0/g16/l716.exe)
 Dipole        =-7.92550646D-02 3.61423429D-01 8.54150750D-02
 Polarizability= 0.00000000D+00 0.00000000D+00 0.00000000D+00
                 0.00000000D+00 0.00000000D+00 0.00000000D+00
 -------------------------------------------------------------------
 Center     Atomic                   Forces (Hartrees/Bohr)
 Number     Number              X              Y              Z
 -------------------------------------------------------------------
      1        6          -0.000073389   -0.000104704   -0.000024141
      2        6          -0.000263470    0.000035135   -0.000038139
      3        9          -0.000105745   -0.000227499   -0.000158231
      4        9          -0.000801065   -0.000329998   -0.000193481
      5       16          -0.000555471    0.001147773   -0.000405729
      6        8           0.001684129   -0.000679090    0.000237871
      7        8           0.000228982    0.000456210    0.000641095
      8        8           0.000013020    0.000049848   -0.000077443
      9        9          -0.000068319   -0.000172376    0.000019061
     10        9           0.000010626   -0.000051199   -0.000057015
     11        9          -0.000087663   -0.000142365    0.000030049
     12        1           0.000018364    0.000018265    0.000026103
 -------------------------------------------------------------------
 Cartesian Forces:  Max     0.001684129 RMS     0.000436552
 Leave Link  716 at Fri May 23 06:20:08 2025, MaxMem=  3758096384 cpu:               0.1 elap:               0.0
 (Enter /apps/easybuild-2022/easybuild/software/Compiler/NVHPC/22.11-CUDA-11.7.0/Gaussian/g16c01-CUDA-11.7.0/g16/l123.exe)
 IRC-IRC-IRC-IRC-IRC-IRC-IRC-IRC-IRC-IRC-IRC-IRC-IRC-IRC-IRC-IRC-IRC-IRC
 Pt  2 Step number   1 out of a maximum of  20
 Using modified Bulirsch-Stoer corrector integration.
   Using distance weighted interpolants to fit PES.
 PreDWI: IReCr0= 2 IReCr1= 1 IReCr2= 1 IReCr3= 1
 Modified Bulirsch-Stoer Extrapolation Cycles:
    EPS =    0.000010000000000
    Cycle     1 NS=    48
      PEZero:  N= 2 I= 1 D=  4.31D-04 Err=  6.70D-06
    Cycle     2 NS=    64 Truncation Error =  0.000006698
 BS completed in    2 cycles and     112 integration steps.
 Maximum DWI energy   std dev =  0.000000115 at pt    47
 Maximum DWI gradient std dev =  0.015835770 at pt    37
 SUMMARY OF CORRECTOR INTEGRATION:
   Predictor End Point Energy = -1199.596551
   Old End Point Energy       = -1199.596551
   Corrected End Point Energy = -1199.596551
   Predictor End-Start Dist.  =     0.082667
   Old End-Start Dist.        =     0.082667
   New End-Start Dist.        =     0.082665
   New End-Old End Dist.      =     0.000771
 CORRECTOR INTEGRATION CONVERGENCE:
   Recorrection delta-x convergence threshold:    0.010000
   Delta-x Convergence Met
 Point Number:   2          Path Number:   1
                    CURRENT STRUCTURE
                Cartesian Coordinates (Ang):                
 ---------------------------------------------------------------------
 Center     Atomic                     Coordinates (Angstroms)
 Number     Number                        X           Y           Z
 ---------------------------------------------------------------------
      1          6                   -1.334281   -0.608367    0.510562
      2          6                   -0.365652    0.270578   -0.308969
      3          9                   -0.685683    0.262952   -1.592218
      4          9                   -0.401483    1.530172    0.157704
      5         16                    1.486106   -0.186935   -0.033786
      6          8                    1.517702    2.406066    0.597320
      7          8                    1.662437   -1.599435   -0.325421
      8          8                    2.030583    0.661272   -1.290894
      9          9                   -1.411309   -1.817286   -0.020097
     10          9                   -0.884168   -0.703012    1.761455
     11          9                   -2.545734   -0.063901    0.529892
     12          1                    2.153129    1.568047   -0.929521
 ---------------------------------------------------------------------
   CHANGE IN THE REACTION COORDINATE =    0.08266
   NET REACTION COORDINATE UP TO THIS POINT =    0.16535
  # OF POINTS ALONG THE PATH =   2
  # OF STEPS =   1

 Calculating another point on the path.
 Point Number  3 in REVERSE path direction.
 Using LQA Reaction Path Following.
   LQA: T_Est iteration completed in    3 iterations.
 IRC-IRC-IRC-IRC-IRC-IRC-IRC-IRC-IRC-IRC-IRC-IRC-IRC-IRC-IRC-IRC-IRC-IRC
 Leave Link  123 at Fri May 23 06:20:08 2025, MaxMem=  3758096384 cpu:               0.1 elap:               0.0
 (Enter /apps/easybuild-2022/easybuild/software/Compiler/NVHPC/22.11-CUDA-11.7.0/Gaussian/g16c01-CUDA-11.7.0/g16/l202.exe)
                          Input orientation:                          
 ---------------------------------------------------------------------
 Center     Atomic      Atomic             Coordinates (Angstroms)
 Number     Number       Type             X           Y           Z
 ---------------------------------------------------------------------
      1          6           0       -1.334700   -0.609005    0.510422
      2          6           0       -0.367310    0.270803   -0.309211
      3          9           0       -0.686081    0.262084   -1.592840
      4          9           0       -0.404509    1.528904    0.156984
      5         16           0        1.484839   -0.184338   -0.034683
      6          8           0        1.525321    2.402996    0.598412
      7          8           0        1.663473   -1.597401   -0.322531
      8          8           0        2.030671    0.661614   -1.291215
      9          9           0       -1.411570   -1.817945   -0.020032
     10          9           0       -0.884130   -0.703215    1.761237
     11          9           0       -2.546068   -0.064441    0.530001
     12          1           0        2.154340    1.568289   -0.928486
 ---------------------------------------------------------------------
                    Distance matrix (angstroms):
                    1          2          3          4          5
     1  C    0.000000
     2  C    1.543277   0.000000
     3  F    2.367111   1.322646   0.000000
     4  F    2.358140   1.342214   2.178531   0.000000
     5  S    2.902978   1.926909   2.709250   2.557649   0.000000
     6  O    4.154469   2.992003   3.778278   2.164057   2.663972
     7  O    3.264932   2.759428   3.254500   3.778924   1.453105
     8  O    4.023194   2.620569   2.762488   2.963035   1.610106
     9  F    1.322433   2.353077   2.706765   3.499558   3.325368
    10  F    1.332826   2.345756   3.495834   2.790343   3.017711
    11  F    1.328287   2.358739   2.841237   2.695211   4.072034
    12  H    4.357117   2.902705   3.196174   2.779839   2.078176
                    6          7          8          9         10
     6  O    0.000000
     7  O    4.107359   0.000000
     8  O    2.618870   2.485223   0.000000
     9  F    5.179204   3.097746   4.428673   0.000000
    10  F    4.099532   3.410563   4.435796   2.166504   0.000000
    11  F    4.761212   4.560374   4.979009   2.159723   2.164719
    12  H    1.850356   3.260326   0.984340   5.000758   4.650445
                   11         12
    11  F    0.000000
    12  H    5.185251   0.000000
 Symmetry turned off by external request.
 Stoichiometry    C2HF5O3S
 Rotational constants (GHZ):           1.3998128           0.8133619           0.6988981
 Leave Link  202 at Fri May 23 06:20:08 2025, MaxMem=  3758096384 cpu:               0.1 elap:               0.0
 (Enter /apps/easybuild-2022/easybuild/software/Compiler/NVHPC/22.11-CUDA-11.7.0/Gaussian/g16c01-CUDA-11.7.0/g16/l301.exe)
 Standard basis: 6-311++G(d,p) (5D, 7F)
 Ernie: Thresh=  0.10000D-02 Tol=  0.10000D-05 Strict=F.
   257 basis functions,   419 primitive gaussians,   268 cartesian basis functions
    49 alpha electrons       49 beta electrons
       nuclear repulsion energy       888.7418066182 Hartrees.
 IExCor= 4639 DFT=T Ex+Corr=wB97XD ExCW=0 ScaHFX=  1.000000
 ScaDFX=  1.000000  1.000000  1.000000  1.000000 ScalE2=  1.000000  1.000000
 IRadAn=      5 IRanWt=     -1 IRanGd=            0 ICorTp=0 IEmpDi=121
 HFx  wShort=  0.000000 wLong=  0.200000 cFull=  0.222036 cShort=  0.000000 cLong=  0.777964
 DFx  wShort=  0.000000 wLong=  0.200000 cFull=  0.000000 cShort=  0.000000 cLong=  1.000000
 NAtoms=   12 NActive=   12 NUniq=   12 SFac= 1.00D+00 NAtFMM=   60 NAOKFM=F Big=F
 Integral buffers will be    131072 words long.
 Raffenetti 2 integral format.
 Two-electron integral symmetry is turned off.
 R6Disp:  Grimme-D2 Dispersion energy=       -0.0053176222 Hartrees.
 Nuclear repulsion after empirical dispersion term =      888.7364889961 Hartrees.
 Leave Link  301 at Fri May 23 06:20:08 2025, MaxMem=  3758096384 cpu:               0.1 elap:               0.0
 (Enter /apps/easybuild-2022/easybuild/software/Compiler/NVHPC/22.11-CUDA-11.7.0/Gaussian/g16c01-CUDA-11.7.0/g16/l302.exe)
 NPDir=0 NMtPBC=     1 NCelOv=     1 NCel=       1 NClECP=     1 NCelD=      1
         NCelK=      1 NCelE2=     1 NClLst=     1 CellRange=     0.0.
 One-electron integrals computed using PRISM.
 NBasis=   257 RedAO= T EigKep=  5.94D-05  NBF=   257
 NBsUse=   257 1.00D-06 EigRej= -1.00D+00 NBFU=   257
 Precomputing XC quadrature grid using
 IXCGrd= 4 IRadAn=           5 IRanWt=          -1 IRanGd=           0 AccXCQ= 0.00D+00.
 Generated NRdTot=       0 NPtTot=           0 NUsed=           0 NTot=          32
 NSgBfM=   268   268   268   268   268 MxSgAt=    12 MxSgA2=    12.
 Leave Link  302 at Fri May 23 06:20:08 2025, MaxMem=  3758096384 cpu:               1.0 elap:               0.2
 (Enter /apps/easybuild-2022/easybuild/software/Compiler/NVHPC/22.11-CUDA-11.7.0/Gaussian/g16c01-CUDA-11.7.0/g16/l303.exe)
 DipDrv:  MaxL=1.
 Leave Link  303 at Fri May 23 06:20:09 2025, MaxMem=  3758096384 cpu:               0.1 elap:               0.0
 (Enter /apps/easybuild-2022/easybuild/software/Compiler/NVHPC/22.11-CUDA-11.7.0/Gaussian/g16c01-CUDA-11.7.0/g16/l401.exe)
 Initial guess from the checkpoint file:  "2003846667223680600001_r12_insertion_R_2_5_6_IRC_R.chk"
 B after Tr=     0.000050    0.000038    0.000024
         Rot=    1.000000    0.000005   -0.000002    0.000007 Ang=   0.00 deg.
 Guess basis will be translated and rotated to current coordinates.
 JPrj=2 DoOrth=T DoCkMO=T.
 Generating alternative initial guess.
 ExpMin= 3.60D-02 ExpMax= 9.34D+04 ExpMxC= 3.17D+03 IAcc=3 IRadAn=         5 AccDes= 0.00D+00
 Harris functional with IExCor= 4639 and IRadAn=       5 diagonalized for initial guess.
 HarFok:  IExCor= 4639 AccDes= 0.00D+00 IRadAn=         5 IDoV= 1 UseB2=F ITyADJ=14
 ICtDFT=  3500011 ScaDFX=  1.000000  1.000000  1.000000  1.000000
 FoFCou: FMM=F IPFlag=           0 FMFlag=      100000 FMFlg1=           0
         NFxFlg=           0 DoJE=T BraDBF=F KetDBF=T FulRan=T
         wScrn=  0.000000 ICntrl=       500 IOpCl=  0 I1Cent=   200000004 NGrid=           0
         NMat0=    1 NMatS0=      1 NMatT0=    0 NMatD0=    1 NMtDS0=    0 NMtDT0=    0
 Symmetry not used in FoFCou.
 Harris En= -1167.02176157892    
 Leave Link  401 at Fri May 23 06:20:09 2025, MaxMem=  3758096384 cpu:               2.6 elap:               0.5
 (Enter /apps/easybuild-2022/easybuild/software/Compiler/NVHPC/22.11-CUDA-11.7.0/Gaussian/g16c01-CUDA-11.7.0/g16/l502.exe)
 Keep R1 ints in memory in canonical form, NReq=1117474609.
 FoFCou: FMM=F IPFlag=           0 FMFlag=           0 FMFlg1=           0
         NFxFlg=           0 DoJE=F BraDBF=F KetDBF=F FulRan=T
         wScrn=  0.000000 ICntrl=       600 IOpCl=  0 I1Cent=           0 NGrid=           0
         NMat0=    1 NMatS0=  33153 NMatT0=    0 NMatD0=    1 NMtDS0=    0 NMtDT0=    0
 Symmetry not used in FoFCou.
 Two-electron integral symmetry not used.
 Closed shell SCF:
 Using DIIS extrapolation, IDIIS=  1040.
 NGot=  3758096384 LenX=  2658793876 LenY=  2658721611
 Requested convergence on RMS density matrix=1.00D-08 within  32 cycles.
 Requested convergence on MAX density matrix=1.00D-06.
 Requested convergence on             energy=1.00D-06.
 No special actions if energy rises.

 Cycle   1  Pass 1  IDiag  1:
 E= -1199.59657793112    
 DIIS: error= 1.13D-04 at cycle   1 NSaved=   1.
 NSaved= 1 IEnMin= 1 EnMin= -1199.59657793112     IErMin= 1 ErrMin= 1.13D-04
 ErrMax= 1.13D-04  0.00D+00 EMaxC= 1.00D-01 BMatC= 1.30D-05 BMatP= 1.30D-05
 IDIUse=3 WtCom= 9.99D-01 WtEn= 1.13D-03
 Coeff-Com:  0.100D+01
 Coeff-En:   0.100D+01
 Coeff:      0.100D+01
 Gap=     0.699 Goal=   None    Shift=    0.000
 RMSDP=9.42D-05 MaxDP=4.41D-03              OVMax= 2.99D-03

 Cycle   2  Pass 1  IDiag  1:
 E= -1199.59660024053     Delta-E=       -0.000022309413 Rises=F Damp=F
 DIIS: error= 7.23D-05 at cycle   2 NSaved=   2.
 NSaved= 2 IEnMin= 2 EnMin= -1199.59660024053     IErMin= 2 ErrMin= 7.23D-05
 ErrMax= 7.23D-05  0.00D+00 EMaxC= 1.00D-01 BMatC= 3.49D-06 BMatP= 1.30D-05
 IDIUse=1 WtCom= 1.00D+00 WtEn= 0.00D+00
 Coeff-Com:  0.160D+00 0.840D+00
 Coeff:      0.160D+00 0.840D+00
 Gap=     0.204 Goal=   None    Shift=    0.000
 RMSDP=2.02D-05 MaxDP=6.21D-04 DE=-2.23D-05 OVMax= 1.05D-03

 Cycle   3  Pass 1  IDiag  1:
 E= -1199.59660159351     Delta-E=       -0.000001352987 Rises=F Damp=F
 DIIS: error= 8.64D-05 at cycle   3 NSaved=   3.
 NSaved= 3 IEnMin= 3 EnMin= -1199.59660159351     IErMin= 2 ErrMin= 7.23D-05
 ErrMax= 8.64D-05  0.00D+00 EMaxC= 1.00D-01 BMatC= 4.16D-06 BMatP= 3.49D-06
 IDIUse=1 WtCom= 1.00D+00 WtEn= 0.00D+00
 Coeff-Com: -0.104D+00 0.575D+00 0.529D+00
 Coeff:     -0.104D+00 0.575D+00 0.529D+00
 Gap=     0.203 Goal=   None    Shift=    0.000
 RMSDP=1.78D-05 MaxDP=8.02D-04 DE=-1.35D-06 OVMax= 1.61D-03

 Cycle   4  Pass 1  IDiag  1:
 E= -1199.59660608120     Delta-E=       -0.000004487690 Rises=F Damp=F
 DIIS: error= 2.33D-05 at cycle   4 NSaved=   4.
 NSaved= 4 IEnMin= 4 EnMin= -1199.59660608120     IErMin= 4 ErrMin= 2.33D-05
 ErrMax= 2.33D-05  0.00D+00 EMaxC= 1.00D-01 BMatC= 2.33D-07 BMatP= 3.49D-06
 IDIUse=1 WtCom= 1.00D+00 WtEn= 0.00D+00
 Coeff-Com: -0.328D-01 0.398D-01 0.177D+00 0.816D+00
 Coeff:     -0.328D-01 0.398D-01 0.177D+00 0.816D+00
 Gap=     0.203 Goal=   None    Shift=    0.000
 RMSDP=5.52D-06 MaxDP=2.14D-04 DE=-4.49D-06 OVMax= 6.87D-04

 Cycle   5  Pass 1  IDiag  1:
 E= -1199.59660706973     Delta-E=       -0.000000988525 Rises=F Damp=F
 DIIS: error= 1.63D-05 at cycle   5 NSaved=   5.
 NSaved= 5 IEnMin= 5 EnMin= -1199.59660706973     IErMin= 5 ErrMin= 1.63D-05
 ErrMax= 1.63D-05  0.00D+00 EMaxC= 1.00D-01 BMatC= 9.96D-08 BMatP= 2.33D-07
 IDIUse=1 WtCom= 1.00D+00 WtEn= 0.00D+00
 Coeff-Com:  0.184D-01-0.165D+00-0.347D-01 0.260D+00 0.921D+00
 Coeff:      0.184D-01-0.165D+00-0.347D-01 0.260D+00 0.921D+00
 Gap=     0.203 Goal=   None    Shift=    0.000
 RMSDP=5.70D-06 MaxDP=2.43D-04 DE=-9.89D-07 OVMax= 8.41D-04

 Cycle   6  Pass 1  IDiag  1:
 E= -1199.59660801887     Delta-E=       -0.000000949143 Rises=F Damp=F
 DIIS: error= 1.37D-05 at cycle   6 NSaved=   6.
 NSaved= 6 IEnMin= 6 EnMin= -1199.59660801887     IErMin= 6 ErrMin= 1.37D-05
 ErrMax= 1.37D-05  0.00D+00 EMaxC= 1.00D-01 BMatC= 5.84D-08 BMatP= 9.96D-08
 IDIUse=1 WtCom= 1.00D+00 WtEn= 0.00D+00
 Coeff-Com:  0.124D-01-0.511D-01-0.207D-01-0.201D+00 0.147D+00 0.111D+01
 Coeff:      0.124D-01-0.511D-01-0.207D-01-0.201D+00 0.147D+00 0.111D+01
 Gap=     0.203 Goal=   None    Shift=    0.000
 RMSDP=5.29D-06 MaxDP=2.07D-04 DE=-9.49D-07 OVMax= 1.01D-03

 Cycle   7  Pass 1  IDiag  1:
 E= -1199.59660895938     Delta-E=       -0.000000940508 Rises=F Damp=F
 DIIS: error= 1.28D-05 at cycle   7 NSaved=   7.
 NSaved= 7 IEnMin= 7 EnMin= -1199.59660895938     IErMin= 7 ErrMin= 1.28D-05
 ErrMax= 1.28D-05  0.00D+00 EMaxC= 1.00D-01 BMatC= 4.43D-08 BMatP= 5.84D-08
 IDIUse=1 WtCom= 1.00D+00 WtEn= 0.00D+00
 Coeff-Com: -0.719D-02 0.866D-01 0.343D-01-0.267D+00-0.593D+00 0.435D+00
 Coeff-Com:  0.131D+01
 Coeff:     -0.719D-02 0.866D-01 0.343D-01-0.267D+00-0.593D+00 0.435D+00
 Coeff:      0.131D+01
 Gap=     0.203 Goal=   None    Shift=    0.000
 RMSDP=7.64D-06 MaxDP=3.22D-04 DE=-9.41D-07 OVMax= 1.57D-03

 Cycle   8  Pass 1  IDiag  1:
[...]
 Coeff-Com:  0.302D+00 0.764D+00
 Coeff:      0.193D-03 0.214D-02 0.123D-02-0.192D-01-0.415D-01-0.934D-02
 Coeff:      0.302D+00 0.764D+00
 Gap=     0.346 Goal=   None    Shift=    0.000
 RMSDP=3.37D-07 MaxDP=1.20D-05 DE=-3.13D-09 OVMax= 1.41D-05

 Cycle   9  Pass 1  IDiag  1:
 E= -1199.73423763279     Delta-E=       -0.000000000558 Rises=F Damp=F
 DIIS: error= 3.51D-07 at cycle   9 NSaved=   9.
 NSaved= 9 IEnMin= 9 EnMin= -1199.73423763279     IErMin= 9 ErrMin= 3.51D-07
 ErrMax= 3.51D-07  0.00D+00 EMaxC= 1.00D-01 BMatC= 5.07D-11 BMatP= 3.58D-10
 IDIUse=1 WtCom= 1.00D+00 WtEn= 0.00D+00
 Coeff-Com: -0.379D-03 0.232D-02 0.315D-02 0.113D-03-0.229D-01-0.531D-01
 Coeff-Com: -0.167D-01 0.286D+00 0.801D+00
 Coeff:     -0.379D-03 0.232D-02 0.315D-02 0.113D-03-0.229D-01-0.531D-01
 Coeff:     -0.167D-01 0.286D+00 0.801D+00
 Gap=     0.346 Goal=   None    Shift=    0.000
 RMSDP=1.37D-07 MaxDP=6.06D-06 DE=-5.58D-10 OVMax= 6.38D-06

 Cycle  10  Pass 1  IDiag  1:
 E= -1199.73423763293     Delta-E=       -0.000000000137 Rises=F Damp=F
 DIIS: error= 9.37D-08 at cycle  10 NSaved=  10.
 NSaved=10 IEnMin=10 EnMin= -1199.73423763293     IErMin=10 ErrMin= 9.37D-08
 ErrMax= 9.37D-08  0.00D+00 EMaxC= 1.00D-01 BMatC= 4.76D-12 BMatP= 5.07D-11
 IDIUse=1 WtCom= 1.00D+00 WtEn= 0.00D+00
 Coeff-Com: -0.109D-03 0.233D-03 0.651D-03 0.193D-02-0.357D-03-0.117D-01
 Coeff-Com: -0.352D-01-0.200D-01 0.172D+00 0.893D+00
 Coeff:     -0.109D-03 0.233D-03 0.651D-03 0.193D-02-0.357D-03-0.117D-01
 Coeff:     -0.352D-01-0.200D-01 0.172D+00 0.893D+00
 Gap=     0.346 Goal=   None    Shift=    0.000
 RMSDP=3.81D-08 MaxDP=1.18D-06 DE=-1.37D-10 OVMax= 2.72D-06

 Cycle  11  Pass 1  IDiag  1:
 E= -1199.73423763297     Delta-E=       -0.000000000038 Rises=F Damp=F
 DIIS: error= 6.09D-08 at cycle  11 NSaved=  11.
 NSaved=11 IEnMin=11 EnMin= -1199.73423763297     IErMin=11 ErrMin= 6.09D-08
 ErrMax= 6.09D-08  0.00D+00 EMaxC= 1.00D-01 BMatC= 1.15D-12 BMatP= 4.76D-12
 IDIUse=1 WtCom= 1.00D+00 WtEn= 0.00D+00
 Coeff-Com:  0.307D-04-0.363D-03-0.317D-03 0.715D-03 0.435D-02 0.582D-02
 Coeff-Com: -0.112D-01-0.649D-01-0.824D-01 0.354D+00 0.794D+00
 Coeff:      0.307D-04-0.363D-03-0.317D-03 0.715D-03 0.435D-02 0.582D-02
 Coeff:     -0.112D-01-0.649D-01-0.824D-01 0.354D+00 0.794D+00
 Gap=     0.346 Goal=   None    Shift=    0.000
 RMSDP=1.48D-08 MaxDP=4.28D-07 DE=-3.82D-11 OVMax= 1.07D-06

 Cycle  12  Pass 1  IDiag  1:
 E= -1199.73423763293     Delta-E=        0.000000000035 Rises=F Damp=F
 DIIS: error= 1.48D-08 at cycle  12 NSaved=  12.
 NSaved=12 IEnMin=11 EnMin= -1199.73423763297     IErMin=12 ErrMin= 1.48D-08
 ErrMax= 1.48D-08  0.00D+00 EMaxC= 1.00D-01 BMatC= 1.08D-13 BMatP= 1.15D-12
 IDIUse=1 WtCom= 1.00D+00 WtEn= 0.00D+00
 Coeff-Com:  0.189D-04-0.120D-03-0.144D-03-0.241D-04 0.117D-02 0.299D-02
 Coeff-Com:  0.918D-03-0.155D-01-0.413D-01-0.526D-02 0.241D+00 0.816D+00
 Coeff:      0.189D-04-0.120D-03-0.144D-03-0.241D-04 0.117D-02 0.299D-02
 Coeff:      0.918D-03-0.155D-01-0.413D-01-0.526D-02 0.241D+00 0.816D+00
 Gap=     0.346 Goal=   None    Shift=    0.000
 RMSDP=4.19D-09 MaxDP=1.51D-07 DE= 3.55D-11 OVMax= 2.87D-07

 SCF Done:  E(RwB97XD) =  -1199.73423763     A.U. after   12 cycles
            NFock= 12  Conv=0.42D-08     -V/T= 2.0022
 KE= 1.197070103196D+03 PE=-4.662129959613D+03 EE= 1.357350468384D+03
 Leave Link  502 at Fri May 23 06:54:58 2025, MaxMem=  3758096384 cpu:              59.6 elap:              12.9
 (Enter /apps/easybuild-2022/easybuild/software/Compiler/NVHPC/22.11-CUDA-11.7.0/Gaussian/g16c01-CUDA-11.7.0/g16/l508.exe)
 QCSCF skips out because SCF is already converged.
 Leave Link  508 at Fri May 23 06:54:58 2025, MaxMem=  3758096384 cpu:               0.1 elap:               0.0
 (Enter /apps/easybuild-2022/easybuild/software/Compiler/NVHPC/22.11-CUDA-11.7.0/Gaussian/g16c01-CUDA-11.7.0/g16/l801.exe)
 DoSCS=F DFT=T ScalE2(SS,OS)=  1.000000  1.000000
 Range of M.O.s used for correlation:     1   257
 NBasis=   257 NAE=    49 NBE=    49 NFC=     0 NFV=     0
 NROrb=    257 NOA=    49 NOB=    49 NVA=   208 NVB=   208

 **** Warning!!: The largest alpha MO coefficient is  0.35446065D+02

 Leave Link  801 at Fri May 23 06:54:58 2025, MaxMem=  3758096384 cpu:               0.1 elap:               0.0
 (Enter /apps/easybuild-2022/easybuild/software/Compiler/NVHPC/22.11-CUDA-11.7.0/Gaussian/g16c01-CUDA-11.7.0/g16/l1101.exe)
 Leave Link 1101 at Fri May 23 06:54:59 2025, MaxMem=  3758096384 cpu:               0.1 elap:               0.0
 (Enter /apps/easybuild-2022/easybuild/software/Compiler/NVHPC/22.11-CUDA-11.7.0/Gaussian/g16c01-CUDA-11.7.0/g16/l1102.exe)
 Symmetrizing basis deriv contribution to polar:
 IMax=3 JMax=2 DiffMx= 0.00D+00
 Leave Link 1102 at Fri May 23 06:54:59 2025, MaxMem=  3758096384 cpu:               0.1 elap:               0.0
 (Enter /apps/easybuild-2022/easybuild/software/Compiler/NVHPC/22.11-CUDA-11.7.0/Gaussian/g16c01-CUDA-11.7.0/g16/l1110.exe)
 Leave Link 1110 at Fri May 23 06:54:59 2025, MaxMem=  3758096384 cpu:               0.1 elap:               0.0
 (Enter /apps/easybuild-2022/easybuild/software/Compiler/NVHPC/22.11-CUDA-11.7.0/Gaussian/g16c01-CUDA-11.7.0/g16/l1002.exe)
 Minotr:  Closed shell wavefunction.
 Leave Link 1002 at Fri May 23 06:54:59 2025, MaxMem=  3758096384 cpu:               0.1 elap:               0.0
 (Enter /apps/easybuild-2022/easybuild/software/Compiler/NVHPC/22.11-CUDA-11.7.0/Gaussian/g16c01-CUDA-11.7.0/g16/l701.exe)
 ... and contract with generalized density number  0.
 Compute integral first derivatives.
 R6Disp: Adding Grimme-D2 dispersion energy 1st derivatives to the gradient.
 Leave Link  701 at Fri May 23 06:54:59 2025, MaxMem=  3758096384 cpu:               0.5 elap:               0.1
 (Enter /apps/easybuild-2022/easybuild/software/Compiler/NVHPC/22.11-CUDA-11.7.0/Gaussian/g16c01-CUDA-11.7.0/g16/l702.exe)
 L702 exits ... SP integral derivatives will be done elsewhere.
 Leave Link  702 at Fri May 23 06:54:59 2025, MaxMem=  3758096384 cpu:               0.1 elap:               0.0
 (Enter /apps/easybuild-2022/easybuild/software/Compiler/NVHPC/22.11-CUDA-11.7.0/Gaussian/g16c01-CUDA-11.7.0/g16/l703.exe)
 Integral derivatives from FoFJK, PRISM(SPDF).
 Compute integral first derivatives, UseDBF=F ICtDFT=           0.
 Calling FoFJK, ICntrl=      2127 FMM=F ISym2X=0 I1Cent= 0 IOpClX= 0 NMat=1 NMatS=1 NMatT=0.
 FoFJK:  IHMeth= 1 ICntrl=    2127 DoSepK=T KAlg= 0 I1Cent=           0 FoldK=F
 IRaf=         1 NMat=       1 IRICut=       1 DoRegI=T DoRafI=F ISym2E= 0 IDoP0=0 IntGTp=1.
 FoFCou: FMM=F IPFlag=           0 FMFlag=      100000 FMFlg1=         800
         NFxFlg=           0 DoJE=F BraDBF=F KetDBF=F FulRan=T
         wScrn=  0.000000 ICntrl=      2527 IOpCl=  0 I1Cent=           0 NGrid=           0
         NMat0=    1 NMatS0=      1 NMatT0=    0 NMatD0=    1 NMtDS0=    0 NMtDT0=    0
 Symmetry not used in FoFCou.
 Leave Link  703 at Fri May 23 06:55:03 2025, MaxMem=  3758096384 cpu:              31.1 elap:               4.3
 (Enter /apps/easybuild-2022/easybuild/software/Compiler/NVHPC/22.11-CUDA-11.7.0/Gaussian/g16c01-CUDA-11.7.0/g16/l716.exe)
 Dipole        =-2.74029135D-01 1.53592236D-01-4.43808800D-01
 Polarizability= 0.00000000D+00 0.00000000D+00 0.00000000D+00
                 0.00000000D+00 0.00000000D+00 0.00000000D+00
 -------------------------------------------------------------------
 Center     Atomic                   Forces (Hartrees/Bohr)
 Number     Number              X              Y              Z
 -------------------------------------------------------------------
      1        6           0.001735700    0.000218427    0.000320133
      2        6           0.001391640    0.003496198    0.000798168
      3        9           0.000800890   -0.001971913    0.000817406
      4        9          -0.016032458    0.007480719   -0.003071754
      5       16           0.007100017    0.077722113    0.005826259
      6        8          -0.005848808   -0.112535914   -0.002767224
      7        8           0.004109111    0.037292029    0.025388074
      8        8           0.002780431   -0.008982388   -0.022717138
      9        9           0.002237541    0.000553176   -0.000421727
     10        9           0.000191087   -0.000858391    0.000890263
     11        9           0.000383920   -0.002163405    0.000270213
     12        1           0.001150930   -0.000250651   -0.005332673
 -------------------------------------------------------------------
 Cartesian Forces:  Max     0.112535914 RMS     0.024650487
 Leave Link  716 at Fri May 23 06:55:03 2025, MaxMem=  3758096384 cpu:               0.0 elap:               0.0
 (Enter /apps/easybuild-2022/easybuild/software/Compiler/NVHPC/22.11-CUDA-11.7.0/Gaussian/g16c01-CUDA-11.7.0/g16/l123.exe)
 IRC-IRC-IRC-IRC-IRC-IRC-IRC-IRC-IRC-IRC-IRC-IRC-IRC-IRC-IRC-IRC-IRC-IRC
 Pt100 Step number   1 out of a maximum of  20
 Using modified Bulirsch-Stoer corrector integration.
   Using distance weighted interpolants to fit PES.
 PreDWI: IReCr0= 2 IReCr1= 1 IReCr2= 1 IReCr3= 1
 Modified Bulirsch-Stoer Extrapolation Cycles:
    EPS =    0.000010000000000
    Cycle     1 NS=    48
      PEZero:  N= 2 I= 1 D=  4.31D-04 Err=  1.02D-06
    Cycle     2 NS=    64 Truncation Error =  0.000001016
 BS completed in    2 cycles and     112 integration steps.
 Maximum DWI energy   std dev =  0.000000179 at pt    47
 Maximum DWI gradient std dev =  0.000191166 at pt    29
 SUMMARY OF CORRECTOR INTEGRATION:
   Predictor End Point Energy = -1199.734238
   Old End Point Energy       = -1199.734238
   Corrected End Point Energy = -1199.734238
   Predictor End-Start Dist.  =     0.082680
   Old End-Start Dist.        =     0.082680
   New End-Start Dist.        =     0.082680
   New End-Old End Dist.      =     0.000019
 CORRECTOR INTEGRATION CONVERGENCE:
   Recorrection delta-x convergence threshold:    0.010000
   Delta-x Convergence Met
 Point Number: 100          Path Number:   1
                    CURRENT STRUCTURE
                Cartesian Coordinates (Ang):                
 ---------------------------------------------------------------------
 Center     Atomic                     Coordinates (Angstroms)
 Number     Number                        X           Y           Z
 ---------------------------------------------------------------------
      1          6                   -1.337323   -0.630544    0.512730
      2          6                   -0.414985    0.319517   -0.303824
      3          9                   -0.684277    0.218750   -1.602471
      4          9                   -0.619841    1.549207    0.112326
      5         16                    1.467162    0.109276   -0.069201
      6          8                    1.775848    1.661958    0.629381
      7          8                    1.712745   -1.338947   -0.067265
      8          8                    2.053577    0.638449   -1.433589
      9          9                   -1.408901   -1.837056   -0.020510
     10          9                   -0.881561   -0.715977    1.758194
     11          9                   -2.554420   -0.094350    0.533753
     12          1                    2.276498    1.555401   -1.189137
 ---------------------------------------------------------------------
   CHANGE IN THE REACTION COORDINATE =    0.08268
   NET REACTION COORDINATE UP TO THIS POINT =    8.26781
  # OF POINTS ALONG THE PATH = 100
  # OF STEPS =   1

 Maximum number of steps reached.
 Calculation of REVERSE path complete.
 Reaction path calculation complete.
 
 Energies reported relative to the TS energy of       -1199.596502
 --------------------------------------------------------------------------
    Summary of reaction path following
 --------------------------------------------------------------------------
                        Energy    RxCoord
   1                   -0.13774  -8.26781
   2                   -0.13488  -8.18513
   3                   -0.13204  -8.10245
   4                   -0.12922  -8.01977
   5                   -0.12643  -7.93709
   6                   -0.12366  -7.85441
   7                   -0.12091  -7.77173
   8                   -0.11820  -7.68905
   9                   -0.11552  -7.60637
  10                   -0.11287  -7.52369
  11                   -0.11025  -7.44101
  12                   -0.10767  -7.35833
  13                   -0.10512  -7.27565
  14                   -0.10261  -7.19297
  15                   -0.10013  -7.11029
  16                   -0.09769  -7.02761
  17                   -0.09529  -6.94493
  18                   -0.09292  -6.86225
  19                   -0.09059  -6.77957
  20                   -0.08829  -6.69690
  21                   -0.08603  -6.61422
  22                   -0.08381  -6.53154
  23                   -0.08162  -6.44886
  24                   -0.07948  -6.36618
  25                   -0.07737  -6.28350
  26                   -0.07530  -6.20082
  27                   -0.07327  -6.11814
  28                   -0.07128  -6.03546
  29                   -0.06932  -5.95278
  30                   -0.06740  -5.87010
  31                   -0.06552  -5.78742
  32                   -0.06367  -5.70474
  33                   -0.06186  -5.62206
  34                   -0.06008  -5.53939
  35                   -0.05833  -5.45671
  36                   -0.05662  -5.37403
  37                   -0.05494  -5.29135
  38                   -0.05330  -5.20867
  39                   -0.05169  -5.12599
  40                   -0.05010  -5.04331
  41                   -0.04855  -4.96063
  42                   -0.04703  -4.87795
  43                   -0.04554  -4.79527
  44                   -0.04407  -4.71259
  45                   -0.04264  -4.62991
  46                   -0.04123  -4.54724
  47                   -0.03985  -4.46456
  48                   -0.03849  -4.38188
  49                   -0.03717  -4.29920
  50                   -0.03587  -4.21652
  51                   -0.03459  -4.13384
  52                   -0.03334  -4.05116
  53                   -0.03212  -3.96848
  54                   -0.03092  -3.88580
  55                   -0.02974  -3.80312
  56                   -0.02858  -3.72045
  57                   -0.02745  -3.63777
  58                   -0.02634  -3.55509
  59                   -0.02525  -3.47241
  60                   -0.02418  -3.38973
  61                   -0.02313  -3.30705
  62                   -0.02210  -3.22437
  63                   -0.02109  -3.14170
  64                   -0.02010  -3.05902
  65                   -0.01913  -2.97634
  66                   -0.01818  -2.89366
  67                   -0.01725  -2.81098
  68                   -0.01633  -2.72831
  69                   -0.01544  -2.64563
  70                   -0.01456  -2.56295
  71                   -0.01370  -2.48027
  72                   -0.01286  -2.39759
  73                   -0.01204  -2.31492
  74                   -0.01124  -2.23224
  75                   -0.01046  -2.14956
  76                   -0.00970  -2.06689
  77                   -0.00895  -1.98421
  78                   -0.00823  -1.90153
  79                   -0.00753  -1.81886
  80                   -0.00686  -1.73618
  81                   -0.00621  -1.65350
  82                   -0.00559  -1.57083
  83                   -0.00499  -1.48815
  84                   -0.00443  -1.40548
  85                   -0.00390  -1.32280
  86                   -0.00340  -1.24012
  87                   -0.00293  -1.15745
  88                   -0.00250  -1.07477
  89                   -0.00211  -0.99210
  90                   -0.00175  -0.90942
  91                   -0.00143  -0.82674
  92                   -0.00114  -0.74407
  93                   -0.00089  -0.66139
  94                   -0.00067  -0.57872
  95                   -0.00048  -0.49604
  96                   -0.00033  -0.41337
  97                   -0.00021  -0.33070
  98                   -0.00011  -0.24802
  99                   -0.00005  -0.16535
 100                   -0.00001  -0.08269
 101                    0.00000   0.00000
 --------------------------------------------------------------------------
 
 Total number of points:                  100
 Total number of gradient calculations:   100
 Total number of Hessian calculations:      0
 IRC-IRC-IRC-IRC-IRC-IRC-IRC-IRC-IRC-IRC-IRC-IRC-IRC-IRC-IRC-IRC-IRC-IRC
 Leave Link  123 at Fri May 23 06:55:03 2025, MaxMem=  3758096384 cpu:               0.1 elap:               0.0
 (Enter /apps/easybuild-2022/easybuild/software/Compiler/NVHPC/22.11-CUDA-11.7.0/Gaussian/g16c01-CUDA-11.7.0/g16/l202.exe)
                          Input orientation:                          
 ---------------------------------------------------------------------
 Center     Atomic      Atomic             Coordinates (Angstroms)
 Number     Number       Type             X           Y           Z
 ---------------------------------------------------------------------
      1          6           0       -1.337323   -0.630545    0.512730
      2          6           0       -0.414985    0.319518   -0.303823
      3          9           0       -0.684277    0.218750   -1.602471
      4          9           0       -0.619841    1.549207    0.112326
      5         16           0        1.467163    0.109277   -0.069200
      6          8           0        1.775847    1.661958    0.629380
      7          8           0        1.712745   -1.338948   -0.067266
      8          8           0        2.053577    0.638448   -1.433589
      9          9           0       -1.408901   -1.837056   -0.020510
     10          9           0       -0.881561   -0.715977    1.758194
     11          9           0       -2.554420   -0.094350    0.533753
     12          1           0        2.276499    1.555403   -1.189133
 ---------------------------------------------------------------------
                    Distance matrix (angstroms):
                    1          2          3          4          5
     1  C    0.000000
     2  C    1.555662   0.000000
     3  F    2.371043   1.330097   0.000000
     4  F    2.329467   1.314261   2.171358   0.000000
     5  S    2.958228   1.908332   2.644163   2.542033   0.000000
     6  O    3.867946   2.733635   3.621632   2.453442   1.730353
     7  O    3.184516   2.708081   3.244841   3.716806   1.468901
     8  O    4.110560   2.733475   2.774980   3.219704   1.576535
     9  F    1.321037   2.391431   2.693328   3.479516   3.473086
    10  F    1.328984   2.354115   3.493809   2.812194   3.088190
    11  F    1.330141   2.334524   2.856382   2.573223   4.071627
    12  H    4.553505   3.091160   3.274704   3.175314   2.000139
                    6          7          8          9         10
     6  O    0.000000
     7  O    3.081353   0.000000
     8  O    2.319600   2.427571   0.000000
     9  F    4.775780   3.161483   4.484826   0.000000
    10  F    3.740403   3.232773   4.542794   2.167647   0.000000
    11  F    4.673861   4.485415   5.063701   2.157880   2.164286
    12  H    1.889178   3.154944   0.974812   5.143601   4.880496
                   11         12
    11  F    0.000000
    12  H    5.387746   0.000000
 Symmetry turned off by external request.
 Stoichiometry    C2HF5O3S
 Rotational constants (GHZ):           1.6044705           0.7844045           0.7379721
 Leave Link  202 at Fri May 23 06:55:03 2025, MaxMem=  3758096384 cpu:               0.0 elap:               0.0
 (Enter /apps/easybuild-2022/easybuild/software/Compiler/NVHPC/22.11-CUDA-11.7.0/Gaussian/g16c01-CUDA-11.7.0/g16/l9999.exe)

 This type of calculation cannot be archived.


 THE PROGRESS OF RIVERS TO THE SEA IS NOT AS RAPID
 AS THAT OF MAN TO ERROR.
                                              -- VOLTAIRE
 Job cpu time:       0 days  2 hours 58 minutes 50.5 seconds.
 Elapsed time:       0 days  0 hours 35 minutes 23.5 seconds.
 File lengths (MBytes):  RWF=     31 Int=      0 D2E=      0 Chk=      8 Scr=      1
 Normal termination of Gaussian 16 at Fri May 23 06:55:03 2025.
done
