 Entering Gaussian System, Link 0=g16
 Initial command:
 /apps/easybuild-2022/easybuild/software/Compiler/NVHPC/22.11-CUDA-11.7.0/Gaussian/g16c01-CUDA-11.7.0/g16/l1.exe "/tmp/Gau-137193.inp" -scrdir="/tmp/"
 Entering Link 1 = /apps/easybuild-2022/easybuild/software/Compiler/NVHPC/22.11-CUDA-11.7.0/Gaussian/g16c01-CUDA-11.7.0/g16/l1.exe PID=    137195.
  
 Copyright (c) 1988-2019, Gaussian, Inc.  All Rights Reserved.
  
 This is part of the Gaussian(R) 16 program.  It is based on
 the Gaussian(R) 09 system (copyright 2009, Gaussian, Inc.),
 the Gaussian(R) 03 system (copyright 2003, Gaussian, Inc.),
 the Gaussian(R) 98 system (copyright 1998, Gaussian, Inc.),
 the Gaussian(R) 94 system (copyright 1995, Gaussian, Inc.),
 the Gaussian 92(TM) system (copyright 1992, Gaussian, Inc.),
 the Gaussian 90(TM) system (copyright 1990, Gaussian, Inc.),
 the Gaussian 88(TM) system (copyright 1988, Gaussian, Inc.),
 the Gaussian 86(TM) system (copyright 1986, Carnegie Mellon
 University), and the Gaussian 82(TM) system (copyright 1983,
 Carnegie Mellon University). Gaussian is a federally registered
 trademark of Gaussian, Inc.
  
 This software contains proprietary and confidential information,
 including trade secrets, belonging to Gaussian, Inc.
  
 This software is provided under written license and may be
 used, copied, transmitted, or stored only in accord with that
 written license.
  
 The following legend is applicable only to US Government
 contracts under FAR:
  
                    RESTRICTED RIGHTS LEGEND
  
 Use, reproduction and disclosure by the US Government is
 subject to restrictions as set forth in subparagraphs (a)
 and (c) of the Commercial Computer Software - Restricted
 Rights clause in FAR 52.227-19.
  
 Gaussian, Inc.
 340 Quinnipiac St., Bldg. 40, Wallingford CT 06492
  
  
 ---------------------------------------------------------------
 Warning -- This program may not be used in any manner that
 competes with the business of Gaussian, Inc. or will provide
 assistance to any competitor of Gaussian, Inc.  The licensee
 of this program is prohibited from giving any competitor of
 Gaussian, Inc. access to this program.  By using this program,
 the user acknowledges that Gaussian, Inc. is engaged in the
 business of creating and licensing software in the field of
 computational chemistry and represents and warrants to the
 licensee that it is not a competitor of Gaussian, Inc. and that
 it will not use this program in any manner prohibited above.
 ---------------------------------------------------------------
  

 Cite this work as:
 Gaussian 16, Revision C.01,
 M. J. Frisch, G. W. Trucks, H. B. Schlegel, G. E. Scuseria, 
 M. A. Robb, J. R. Cheeseman, G. Scalmani, V. Barone, 
 G. A. Petersson, H. Nakatsuji, X. Li, M. Caricato, A. V. Marenich, 
 J. Bloino, B. G. Janesko, R. Gomperts, B. Mennucci, H. P. Hratchian, 
 J. V. Ortiz, A. F. Izmaylov, J. L. Sonnenberg, D. Williams-Young, 
 F. Ding, F. Lipparini, F. Egidi, J. Goings, B. Peng, A. Petrone, 
 T. Henderson, D. Ranasinghe, V. G. Zakrzewski, J. Gao, N. Rega, 
 G. Zheng, W. Liang, M. Hada, M. Ehara, K. Toyota, R. Fukuda, 
 J. Hasegawa, M. Ishida, T. Nakajima, Y. Honda, O. Kitao, H. Nakai, 
 T. Vreven, K. Throssell, J. A. Montgomery, Jr., J. E. Peralta, 
 F. Ogliaro, M. J. Bearpark, J. J. Heyd, E. N. Brothers, K. N. Kudin, 
 V. N. Staroverov, T. A. Keith, R. Kobayashi, J. Normand, 
 K. Raghavachari, A. P. Rendell, J. C. Burant, S. S. Iyengar, 
 J. Tomasi, M. Cossi, J. M. Millam, M. Klene, C. Adamo, R. Cammi, 
 J. W. Ochterski, R. L. Martin, K. Morokuma, O. Farkas, 
 J. B. Foresman, and D. J. Fox, Gaussian, Inc., Wallingford CT, 2019.
 
 ******************************************
 Gaussian 16:  ES64L-G16RevC.01  3-Jul-2019
                23-May-2025 
 ******************************************
 %mem=28GB
 %chk=2003846667223680600001_intra_H_migration_suprafacial_6_12_IRC_F
 %nprocshared=8
 Will use up to    8 processors via shared memory.
 ----------------------------------------------------------------------
 #P wb97xd/6-311++G(d,p) Symm(None) scf(xqc) pop(None) geom(AllCheck,No
 KeepConstants) guess(Read) irc(RCFC,forward,MaxPoints=100,StepSize=2)
 ----------------------------------------------------------------------
 1/10=5,18=10,22=1,26=3,29=20007,38=1,39=2,42=100,44=3,172=1/1,23;
 2/12=2,15=3,29=1,40=1/2;
 3/5=4,6=6,7=1111,11=2,14=-4,25=1,30=1,71=2,74=-58,116=-2,140=1/1,2,3;
 4/5=1/1;
 5/5=2,8=3,13=1,38=6/2,8;
 8/6=4,10=90,11=11/1;
 11/6=1,8=1,9=11,15=111,16=1,31=1/1,2,10;
 10/6=1,13=1,31=1/2;
 7/10=1,25=1,30=1/1,2,3,16;
 1/18=10,22=1,26=3,39=2,42=100,44=3/23(2);
 2/15=3,29=1/2;
 99/5=20/99;
 2/15=3,29=1/2;
 3/5=4,6=6,7=1111,11=2,14=-2,25=1,30=1,71=2,74=-58,140=1/1,2,3;
 4/5=5,16=3,69=1/1;
 5/5=2,8=3,13=1,38=5/2,8;
 8/6=4,10=90,11=11/1;
 11/6=1,8=1,9=11,15=111,16=1,31=1/1,2,10;
 10/6=1,13=1,31=1/2;
 7/10=1,25=1,30=1/1,2,3,16;
 1/18=10,22=1,26=3,39=2,42=100,44=3/23(-8);
 2/15=3,29=1/2;
 99/5=20,9=1/99;
 Leave Link    1 at Fri May 23 03:46:27 2025, MaxMem=  3758096384 cpu:               0.1 elap:               0.1
 (Enter /apps/easybuild-2022/easybuild/software/Compiler/NVHPC/22.11-CUDA-11.7.0/Gaussian/g16c01-CUDA-11.7.0/g16/l101.exe)
 Structure from the checkpoint file:  "2003846667223680600001_intra_H_migration_suprafacial_6_12_IRC_F.chk"
 ------------------------------
 Gaussian input prepared by ASE
 ------------------------------
 Charge =  0 Multiplicity = 1
 Redundant internal coordinates found in file.  (old form).
 C,0,2.4202382098,-1.6088977533,-1.4712646232
 C,0,2.1584100739,-0.2653963614,-0.7273780384
 F,0,2.3779147984,-0.4401896999,0.5715076134
 F,0,2.9788173199,0.6712856873,-1.1999470316
 S,0,0.4137495507,0.4130657293,-0.9149097944
 O,0,-0.5325355586,-0.7633324352,-1.1219200333
 O,0,0.2179963478,1.3238738,0.1658608343
 O,0,0.2784662491,0.8768208404,-2.3574215563
 F,0,1.7563292877,-2.5942087045,-0.8887005035
 F,0,2.0521403954,-1.5181838145,-2.7438579913
 F,0,3.7208544285,-1.8728028705,-1.4176806811
 H,0,-0.4887711025,-0.1534184177,-2.2523761945
 Recover connectivity data from disk.
 ITRead=  0  0  0  0  0  0  0  0  0  0  0  0
 MicOpt= -1 -1 -1 -1 -1 -1 -1 -1 -1 -1 -1 -1
 NAtoms=     12 NQM=       12 NQMF=       0 NMMI=      0 NMMIF=      0
                NMic=       0 NMicF=      0.
                    Isotopes and Nuclear Properties:
 (Nuclear quadrupole moments (NQMom) in fm**2, nuclear magnetic moments (NMagM)
  in nuclear magnetons)

  Atom         1           2           3           4           5           6           7           8           9          10
 IAtWgt=          12          12          19          19          32          16          16          16          19          19
 AtmWgt=  12.0000000  12.0000000  18.9984032  18.9984032  31.9720718  15.9949146  15.9949146  15.9949146  18.9984032  18.9984032
 NucSpn=           0           0           1           1           0           0           0           0           1           1
 AtZEff=   3.6000000   3.6000000   6.7500000   6.7500000  13.6000000   5.6000000   5.6000000   5.6000000   6.7500000   6.7500000
 NQMom=    0.0000000   0.0000000   0.0000000   0.0000000   0.0000000   0.0000000   0.0000000   0.0000000   0.0000000   0.0000000
 NMagM=    0.0000000   0.0000000   2.6288670   2.6288670   0.0000000   0.0000000   0.0000000   0.0000000   2.6288670   2.6288670
 AtZNuc=   6.0000000   6.0000000   9.0000000   9.0000000  16.0000000   8.0000000   8.0000000   8.0000000   9.0000000   9.0000000

  Atom        11          12
 IAtWgt=          19           1
 AtmWgt=  18.9984032   1.0078250
 NucSpn=           1           1
 AtZEff=   6.7500000   1.0000000
 NQMom=    0.0000000   0.0000000
 NMagM=    2.6288670   2.7928460
 AtZNuc=   9.0000000   1.0000000
 Leave Link  101 at Fri May 23 03:46:27 2025, MaxMem=  3758096384 cpu:               0.3 elap:               0.2
 (Enter /apps/easybuild-2022/easybuild/software/Compiler/NVHPC/22.11-CUDA-11.7.0/Gaussian/g16c01-CUDA-11.7.0/g16/l123.exe)
 IRC-IRC-IRC-IRC-IRC-IRC-IRC-IRC-IRC-IRC-IRC-IRC-IRC-IRC-IRC-IRC-IRC-IRC
 ------------------------------------------------------------------------
 INPUT DATA FOR L123
 ------------------------------------------------------------------------
 GENERAL PARAMETERS:
 Rxn path following direction = Forward
 Maximum points per path      = 100
 Step size                    =   0.020 bohr
 Integration scheme           = HPC                                 
    Redo corrector integration= Yes                                 
    DWI Weight Power          =  2
    DWI will use Hessian update vectors when possible.
    Max correction cycles     =  20
 Initial Hessian              = ReadFC from chk
 Hessian evaluation           = All updating
 Hessian updating method      = Bofill                              
 ------------------------------------------------------------------------
          ******** Start new reaction path calculation ********
 RCFC Option Requested - Data Read From Chk File:
 "2003846667223680600001_intra_H_migration_suprafacial_6_12_IRC_F.chk"
   Energy From Chk =  -1199.7658976

 Current Structure is TS -> form Hessian eigenvectors.
                            Recovering Hessian eigenvectors from chk file.
 Supplied step size of   0.0200 bohr.
    Integration on MW PES will use step size of   0.0209 sqrt(amu)*bohr.
 Point Number:   0          Path Number:   1
 Calculating another point on the path.
 Point Number  1 in FORWARD path direction.
 Using LQA Reaction Path Following.
 IRC-IRC-IRC-IRC-IRC-IRC-IRC-IRC-IRC-IRC-IRC-IRC-IRC-IRC-IRC-IRC-IRC-IRC
 Leave Link  123 at Fri May 23 03:46:27 2025, MaxMem=  3758096384 cpu:               0.1 elap:               0.0
 (Enter /apps/easybuild-2022/easybuild/software/Compiler/NVHPC/22.11-CUDA-11.7.0/Gaussian/g16c01-CUDA-11.7.0/g16/l202.exe)
                          Input orientation:                          
 ---------------------------------------------------------------------
 Center     Atomic      Atomic             Coordinates (Angstroms)
 Number     Number       Type             X           Y           Z
 ---------------------------------------------------------------------
      1          6           0        0.860335   -1.129938   -0.377094
      2          6           0        0.598482    0.213518    0.366825
      3          9           0        0.818000    0.038748    1.665706
      4          9           0        1.418872    1.150217   -0.105753
      5         16           0       -1.146043    0.892279    0.179073
      6          8           0       -2.092661   -0.284473   -0.028072
      7          8           0       -1.341966    1.802736    1.260109
      8          8           0       -1.281220    1.355923   -1.262955
      9          9           0        0.196398   -2.115270    0.205490
     10          9           0        0.492217   -1.039246   -1.649666
     11          9           0        2.160930   -1.393863   -0.323493
     12          1           0       -2.052600    0.317679   -1.152295
 ---------------------------------------------------------------------
                    Distance matrix (angstroms):
                    1          2          3          4          5
     1  C    0.000000
     2  C    1.557838   0.000000
     3  F    2.353859   1.328844   0.000000
     4  F    2.363196   1.331831   2.175886   0.000000
     5  S    2.902454   1.881312   2.606925   2.593540   0.000000
     6  O    3.091410   2.765174   3.383092   3.794105   1.524381
     7  O    4.016359   2.662500   2.818088   3.148585   1.426869
     8  O    3.398605   2.737617   3.836500   2.944814   1.520751
     9  F    1.323290   2.368746   2.675521   3.500674   3.293660
    10  F    1.327846   2.376330   3.501414   2.834803   3.123935
    11  F    1.328185   2.345519   2.795129   2.659023   4.051554
    12  H    3.343908   3.057255   4.032279   3.720146   1.710132
                    6          7          8          9         10
     6  O    0.000000
     7  O    2.565033   0.000000
     8  O    2.207775   2.563042   0.000000
     9  F    2.940436   4.339304   4.048317   0.000000
    10  F    3.143381   4.461824   3.005238   2.164934   0.000000
    11  F    4.405798   4.999632   4.504698   2.158619   2.160808
    12  H    1.275957   2.920631   1.298162   3.580616   2.926553
                   11         12
    11  F    0.000000
    12  H    4.622783   0.000000
 Symmetry turned off by external request.
 Stoichiometry    C2HF5O3S
 Rotational constants (GHZ):           1.5610842           0.8542283           0.7713589
 Leave Link  202 at Fri May 23 03:46:27 2025, MaxMem=  3758096384 cpu:               0.0 elap:               0.0
 (Enter /apps/easybuild-2022/easybuild/software/Compiler/NVHPC/22.11-CUDA-11.7.0/Gaussian/g16c01-CUDA-11.7.0/g16/l301.exe)
 Standard basis: 6-311++G(d,p) (5D, 7F)
 Ernie: Thresh=  0.10000D-02 Tol=  0.10000D-05 Strict=F.
   257 basis functions,   419 primitive gaussians,   268 cartesian basis functions
    49 alpha electrons       49 beta electrons
       nuclear repulsion energy       924.6960875822 Hartrees.
 IExCor= 4639 DFT=T Ex+Corr=wB97XD ExCW=0 ScaHFX=  1.000000
 ScaDFX=  1.000000  1.000000  1.000000  1.000000 ScalE2=  1.000000  1.000000
 IRadAn=      5 IRanWt=     -1 IRanGd=            0 ICorTp=0 IEmpDi=121
 HFx  wShort=  0.000000 wLong=  0.200000 cFull=  0.222036 cShort=  0.000000 cLong=  0.777964
 DFx  wShort=  0.000000 wLong=  0.200000 cFull=  0.000000 cShort=  0.000000 cLong=  1.000000
 NAtoms=   12 NActive=   12 NUniq=   12 SFac= 1.00D+00 NAtFMM=   60 NAOKFM=F Big=F
 Integral buffers will be    131072 words long.
 Raffenetti 2 integral format.
 Two-electron integral symmetry is turned off.
 R6Disp:  Grimme-D2 Dispersion energy=       -0.0056627262 Hartrees.
 Nuclear repulsion after empirical dispersion term =      924.6904248560 Hartrees.
 Leave Link  301 at Fri May 23 03:46:27 2025, MaxMem=  3758096384 cpu:               0.1 elap:               0.1
 (Enter /apps/easybuild-2022/easybuild/software/Compiler/NVHPC/22.11-CUDA-11.7.0/Gaussian/g16c01-CUDA-11.7.0/g16/l302.exe)
 NPDir=0 NMtPBC=     1 NCelOv=     1 NCel=       1 NClECP=     1 NCelD=      1
         NCelK=      1 NCelE2=     1 NClLst=     1 CellRange=     0.0.
 One-electron integrals computed using PRISM.
 NBasis=   257 RedAO= T EigKep=  6.08D-05  NBF=   257
 NBsUse=   257 1.00D-06 EigRej= -1.00D+00 NBFU=   257
 Precomputing XC quadrature grid using
 IXCGrd= 4 IRadAn=           5 IRanWt=          -1 IRanGd=           0 AccXCQ= 0.00D+00.
 Generated NRdTot=       0 NPtTot=           0 NUsed=           0 NTot=          32
 NSgBfM=   268   268   268   268   268 MxSgAt=    12 MxSgA2=    12.
 Leave Link  302 at Fri May 23 03:46:27 2025, MaxMem=  3758096384 cpu:               0.7 elap:               0.2
 (Enter /apps/easybuild-2022/easybuild/software/Compiler/NVHPC/22.11-CUDA-11.7.0/Gaussian/g16c01-CUDA-11.7.0/g16/l303.exe)
 DipDrv:  MaxL=1.
 Leave Link  303 at Fri May 23 03:46:27 2025, MaxMem=  3758096384 cpu:               0.1 elap:               0.0
 (Enter /apps/easybuild-2022/easybuild/software/Compiler/NVHPC/22.11-CUDA-11.7.0/Gaussian/g16c01-CUDA-11.7.0/g16/l401.exe)
 Initial guess from the checkpoint file:  "2003846667223680600001_intra_H_migration_suprafacial_6_12_IRC_F.chk"
 B after Tr=    -2.947798    0.904970    2.067874
         Rot=    1.000000    0.000016   -0.000023   -0.000016 Ang=   0.00 deg.
 Guess basis will be translated and rotated to current coordinates.
 JPrj=2 DoOrth=T DoCkMO=T.
 Leave Link  401 at Fri May 23 03:46:27 2025, MaxMem=  3758096384 cpu:               0.4 elap:               0.2
 (Enter /apps/easybuild-2022/easybuild/software/Compiler/NVHPC/22.11-CUDA-11.7.0/Gaussian/g16c01-CUDA-11.7.0/g16/l502.exe)
 Keep R1 ints in memory in canonical form, NReq=1117474633.
 FoFCou: FMM=F IPFlag=           0 FMFlag=           0 FMFlg1=           0
         NFxFlg=           0 DoJE=F BraDBF=F KetDBF=F FulRan=T
         wScrn=  0.000000 ICntrl=       600 IOpCl=  0 I1Cent=           0 NGrid=           0
         NMat0=    1 NMatS0=  33153 NMatT0=    0 NMatD0=    1 NMtDS0=    0 NMtDT0=    0
 Symmetry not used in FoFCou.
 Two-electron integral symmetry not used.
 Closed shell SCF:
 Using DIIS extrapolation, IDIIS=  1040.
 NGot=  3758096384 LenX=  2658793852 LenY=  2658721587
 Requested convergence on RMS density matrix=1.00D-08 within  32 cycles.
 Requested convergence on MAX density matrix=1.00D-06.
 Requested convergence on             energy=1.00D-06.
 No special actions if energy rises.

 Cycle   1  Pass 1  IDiag  1:
 E= -1199.76587217154    
 DIIS: error= 4.71D-04 at cycle   1 NSaved=   1.
 NSaved= 1 IEnMin= 1 EnMin= -1199.76587217154     IErMin= 1 ErrMin= 4.71D-04
 ErrMax= 4.71D-04  0.00D+00 EMaxC= 1.00D-01 BMatC= 3.93D-05 BMatP= 3.93D-05
 IDIUse=3 WtCom= 9.95D-01 WtEn= 4.71D-03
 Coeff-Com:  0.100D+01
 Coeff-En:   0.100D+01
 Coeff:      0.100D+01
 Gap=     0.466 Goal=   None    Shift=    0.000
 RMSDP=6.12D-05 MaxDP=2.73D-03              OVMax= 3.04D-03

 Cycle   2  Pass 1  IDiag  1:
 E= -1199.76591941036     Delta-E=       -0.000047238820 Rises=F Damp=F
 DIIS: error= 3.59D-04 at cycle   2 NSaved=   2.
 NSaved= 2 IEnMin= 2 EnMin= -1199.76591941036     IErMin= 2 ErrMin= 3.59D-04
 ErrMax= 3.59D-04  0.00D+00 EMaxC= 1.00D-01 BMatC= 7.85D-06 BMatP= 3.93D-05
 IDIUse=3 WtCom= 9.96D-01 WtEn= 3.59D-03
 Coeff-Com:  0.160D+00 0.840D+00
 Coeff-En:   0.000D+00 0.100D+01
 Coeff:      0.159D+00 0.841D+00
 Gap=     0.466 Goal=   None    Shift=    0.000
 RMSDP=2.19D-05 MaxDP=6.11D-04 DE=-4.72D-05 OVMax= 1.71D-03

 Cycle   3  Pass 1  IDiag  1:
 E= -1199.76592105424     Delta-E=       -0.000001643883 Rises=F Damp=F
 DIIS: error= 2.96D-04 at cycle   3 NSaved=   3.
 NSaved= 3 IEnMin= 3 EnMin= -1199.76592105424     IErMin= 3 ErrMin= 2.96D-04
 ErrMax= 2.96D-04  0.00D+00 EMaxC= 1.00D-01 BMatC= 9.23D-06 BMatP= 7.85D-06
 IDIUse=3 WtCom= 3.68D-01 WtEn= 6.32D-01
 Coeff-Com: -0.971D-01 0.552D+00 0.545D+00
 Coeff-En:   0.000D+00 0.430D+00 0.570D+00
 Coeff:     -0.357D-01 0.475D+00 0.561D+00
 Gap=     0.466 Goal=   None    Shift=    0.000
 RMSDP=2.50D-05 MaxDP=9.24D-04 DE=-1.64D-06 OVMax= 8.08D-04

 Cycle   4  Pass 1  IDiag  1:
 E= -1199.76592741868     Delta-E=       -0.000006364436 Rises=F Damp=F
 DIIS: error= 1.02D-04 at cycle   4 NSaved=   4.
 NSaved= 4 IEnMin= 4 EnMin= -1199.76592741868     IErMin= 4 ErrMin= 1.02D-04
 ErrMax= 1.02D-04  0.00D+00 EMaxC= 1.00D-01 BMatC= 5.77D-07 BMatP= 7.85D-06
 IDIUse=3 WtCom= 9.99D-01 WtEn= 1.02D-03
 Coeff-Com: -0.271D-03-0.187D+00 0.102D+00 0.109D+01
 Coeff-En:   0.000D+00 0.000D+00 0.000D+00 0.100D+01
 Coeff:     -0.271D-03-0.187D+00 0.101D+00 0.109D+01
 Gap=     0.466 Goal=   None    Shift=    0.000
 RMSDP=5.14D-06 MaxDP=1.55D-04 DE=-6.36D-06 OVMax= 4.75D-04

 Cycle   5  Pass 1  IDiag  1:
 E= -1199.76592801615     Delta-E=       -0.000000597468 Rises=F Damp=F
 DIIS: error= 5.48D-06 at cycle   5 NSaved=   5.
 NSaved= 5 IEnMin= 5 EnMin= -1199.76592801615     IErMin= 5 ErrMin= 5.48D-06
 ErrMax= 5.48D-06  0.00D+00 EMaxC= 1.00D-01 BMatC= 9.87D-09 BMatP= 5.77D-07
 IDIUse=1 WtCom= 1.00D+00 WtEn= 0.00D+00
 Coeff-Com:  0.817D-02-0.926D-01-0.294D-01 0.264D+00 0.849D+00
 Coeff:      0.817D-02-0.926D-01-0.294D-01 0.264D+00 0.849D+00
 Gap=     0.466 Goal=   None    Shift=    0.000
 RMSDP=1.67D-06 MaxDP=5.46D-05 DE=-5.97D-07 OVMax= 8.66D-05

 Cycle   6  Pass 1  IDiag  1:
 E= -1199.76592803135     Delta-E=       -0.000000015206 Rises=F Damp=F
 DIIS: error= 3.32D-06 at cycle   6 NSaved=   6.
 NSaved= 6 IEnMin= 6 EnMin= -1199.76592803135     IErMin= 6 ErrMin= 3.32D-06
 ErrMax= 3.32D-06  0.00D+00 EMaxC= 1.00D-01 BMatC= 3.31D-09 BMatP= 9.87D-09
 IDIUse=1 WtCom= 1.00D+00 WtEn= 0.00D+00
 Coeff-Com:  0.426D-02-0.279D-01-0.285D-01 0.211D-01 0.442D+00 0.589D+00
 Coeff:      0.426D-02-0.279D-01-0.285D-01 0.211D-01 0.442D+00 0.589D+00
 Gap=     0.466 Goal=   None    Shift=    0.000
 RMSDP=4.10D-07 MaxDP=1.18D-05 DE=-1.52D-08 OVMax= 2.05D-05

 Cycle   7  Pass 1  IDiag  1:
 E= -1199.76592803377     Delta-E=       -0.000000002420 Rises=F Damp=F
 DIIS: error= 5.28D-07 at cycle   7 NSaved=   7.
 NSaved= 7 IEnMin= 7 EnMin= -1199.76592803377     IErMin= 7 ErrMin= 5.28D-07
 ErrMax= 5.28D-07  0.00D+00 EMaxC= 1.00D-01 BMatC= 7.72D-11 BMatP= 3.31D-09
 IDIUse=1 WtCom= 1.00D+00 WtEn= 0.00D+00
 Coeff-Com: -0.380D-03 0.758D-02-0.134D-02-0.286D-01-0.334D-01 0.710D-01
 Coeff-Com:  0.985D+00
 Coeff:     -0.380D-03 0.758D-02-0.134D-02-0.286D-01-0.334D-01 0.710D-01
 Coeff:      0.985D+00
 Gap=     0.466 Goal=   None    Shift=    0.000
 RMSDP=1.62D-07 MaxDP=4.87D-06 DE=-2.42D-09 OVMax= 9.35D-06

 Cycle   8  Pass 1  IDiag  1:
 E= -1199.76592803389     Delta-E=       -0.000000000121 Rises=F Damp=F
 DIIS: error= 1.34D-07 at cycle   8 NSaved=   8.
 NSaved= 8 IEnMin= 8 EnMin= -1199.76592803389     IErMin= 8 ErrMin= 1.34D-07
 ErrMax= 1.34D-07  0.00D+00 EMaxC= 1.00D-01 BMatC= 1.01D-11 BMatP= 7.72D-11
 IDIUse=1 WtCom= 1.00D+00 WtEn= 0.00D+00
 Coeff-Com: -0.348D-03 0.421D-02 0.939D-03-0.120D-01-0.344D-01-0.149D-02
 Coeff-Com:  0.349D+00 0.694D+00
 Coeff:     -0.348D-03 0.421D-02 0.939D-03-0.120D-01-0.344D-01-0.149D-02
 Coeff:      0.349D+00 0.694D+00
 Gap=     0.466 Goal=   None    Shift=    0.000
 RMSDP=3.25D-08 MaxDP=1.09D-06 DE=-1.21D-10 OVMax= 1.82D-06

 Cycle   9  Pass 1  IDiag  1:
 E= -1199.76592803391     Delta-E=       -0.000000000018 Rises=F Damp=F
 DIIS: error= 8.49D-08 at cycle   9 NSaved=   9.
 NSaved= 9 IEnMin= 9 EnMin= -1199.76592803391     IErMin= 9 ErrMin= 8.49D-08
 ErrMax= 8.49D-08  0.00D+00 EMaxC= 1.00D-01 BMatC= 4.18D-12 BMatP= 1.01D-11
 IDIUse=1 WtCom= 1.00D+00 WtEn= 0.00D+00
 Coeff-Com: -0.144D-03 0.112D-02 0.895D-03-0.184D-02-0.150D-01-0.149D-01
 Coeff-Com:  0.134D-01 0.414D+00 0.603D+00
 Coeff:     -0.144D-03 0.112D-02 0.895D-03-0.184D-02-0.150D-01-0.149D-01
 Coeff:      0.134D-01 0.414D+00 0.603D+00
 Gap=     0.466 Goal=   None    Shift=    0.000
 RMSDP=1.31D-08 MaxDP=2.72D-07 DE=-1.82D-11 OVMax= 8.04D-07

 Cycle  10  Pass 1  IDiag  1:
 E= -1199.76592803389     Delta-E=        0.000000000022 Rises=F Damp=F
 DIIS: error= 1.52D-08 at cycle  10 NSaved=  10.
 NSaved=10 IEnMin= 9 EnMin= -1199.76592803391     IErMin=10 ErrMin= 1.52D-08
 ErrMax= 1.52D-08  0.00D+00 EMaxC= 1.00D-01 BMatC= 6.37D-14 BMatP= 4.18D-12
 IDIUse=1 WtCom= 1.00D+00 WtEn= 0.00D+00
 Coeff-Com:  0.482D-05-0.140D-03 0.480D-04 0.525D-03 0.733D-03-0.133D-02
 Coeff-Com: -0.230D-01-0.688D-02 0.758D-01 0.954D+00
 Coeff:      0.482D-05-0.140D-03 0.480D-04 0.525D-03 0.733D-03-0.133D-02
 Coeff:     -0.230D-01-0.688D-02 0.758D-01 0.954D+00
 Gap=     0.466 Goal=   None    Shift=    0.000
 RMSDP=4.27D-09 MaxDP=1.24D-07 DE= 2.18D-11 OVMax= 2.69D-07

 SCF Done:  E(RwB97XD) =  -1199.76592803     A.U. after   10 cycles
            NFock= 10  Conv=0.43D-08     -V/T= 2.0020
 KE= 1.197374206237D+03 PE=-4.695315304554D+03 EE= 1.373484745427D+03
 Leave Link  502 at Fri May 23 03:46:39 2025, MaxMem=  3758096384 cpu:              55.8 elap:              11.3
 (Enter /apps/easybuild-2022/easybuild/software/Compiler/NVHPC/22.11-CUDA-11.7.0/Gaussian/g16c01-CUDA-11.7.0/g16/l508.exe)
 QCSCF skips out because SCF is already converged.
 Leave Link  508 at Fri May 23 03:46:39 2025, MaxMem=  3758096384 cpu:               0.1 elap:               0.0
 (Enter /apps/easybuild-2022/easybuild/software/Compiler/NVHPC/22.11-CUDA-11.7.0/Gaussian/g16c01-CUDA-11.7.0/g16/l801.exe)
 DoSCS=F DFT=T ScalE2(SS,OS)=  1.000000  1.000000
 Range of M.O.s used for correlation:     1   257
 NBasis=   257 NAE=    49 NBE=    49 NFC=     0 NFV=     0
 NROrb=    257 NOA=    49 NOB=    49 NVA=   208 NVB=   208

 **** Warning!!: The largest alpha MO coefficient is  0.40262538D+02

 Leave Link  801 at Fri May 23 03:46:39 2025, MaxMem=  3758096384 cpu:               0.0 elap:               0.0
 (Enter /apps/easybuild-2022/easybuild/software/Compiler/NVHPC/22.11-CUDA-11.7.0/Gaussian/g16c01-CUDA-11.7.0/g16/l1101.exe)
 Leave Link 1101 at Fri May 23 03:46:39 2025, MaxMem=  3758096384 cpu:               0.1 elap:               0.0
 (Enter /apps/easybuild-2022/easybuild/software/Compiler/NVHPC/22.11-CUDA-11.7.0/Gaussian/g16c01-CUDA-11.7.0/g16/l1102.exe)
 Symmetrizing basis deriv contribution to polar:
 IMax=3 JMax=2 DiffMx= 0.00D+00
 Leave Link 1102 at Fri May 23 03:46:39 2025, MaxMem=  3758096384 cpu:               0.1 elap:               0.0
 (Enter /apps/easybuild-2022/easybuild/software/Compiler/NVHPC/22.11-CUDA-11.7.0/Gaussian/g16c01-CUDA-11.7.0/g16/l1110.exe)
 Leave Link 1110 at Fri May 23 03:46:39 2025, MaxMem=  3758096384 cpu:               0.0 elap:               0.0
 (Enter /apps/easybuild-2022/easybuild/software/Compiler/NVHPC/22.11-CUDA-11.7.0/Gaussian/g16c01-CUDA-11.7.0/g16/l1002.exe)
 Minotr:  Closed shell wavefunction.
 Leave Link 1002 at Fri May 23 03:46:39 2025, MaxMem=  3758096384 cpu:               0.1 elap:               0.0
 (Enter /apps/easybuild-2022/easybuild/software/Compiler/NVHPC/22.11-CUDA-11.7.0/Gaussian/g16c01-CUDA-11.7.0/g16/l701.exe)
 ... and contract with generalized density number  0.
 Compute integral first derivatives.
 R6Disp: Adding Grimme-D2 dispersion energy 1st derivatives to the gradient.
 Leave Link  701 at Fri May 23 03:46:39 2025, MaxMem=  3758096384 cpu:               0.5 elap:               0.1
 (Enter /apps/easybuild-2022/easybuild/software/Compiler/NVHPC/22.11-CUDA-11.7.0/Gaussian/g16c01-CUDA-11.7.0/g16/l702.exe)
 L702 exits ... SP integral derivatives will be done elsewhere.
 Leave Link  702 at Fri May 23 03:46:39 2025, MaxMem=  3758096384 cpu:               0.0 elap:               0.0
 (Enter /apps/easybuild-2022/easybuild/software/Compiler/NVHPC/22.11-CUDA-11.7.0/Gaussian/g16c01-CUDA-11.7.0/g16/l703.exe)
 Integral derivatives from FoFJK, PRISM(SPDF).
 Compute integral first derivatives, UseDBF=F ICtDFT=           0.
 Calling FoFJK, ICntrl=      2127 FMM=F ISym2X=0 I1Cent= 0 IOpClX= 0 NMat=1 NMatS=1 NMatT=0.
 FoFJK:  IHMeth= 1 ICntrl=    2127 DoSepK=T KAlg= 0 I1Cent=           0 FoldK=F
 IRaf=         1 NMat=       1 IRICut=       1 DoRegI=T DoRafI=F ISym2E= 0 IDoP0=0 IntGTp=1.
 FoFCou: FMM=F IPFlag=           0 FMFlag=      100000 FMFlg1=         800
         NFxFlg=           0 DoJE=F BraDBF=F KetDBF=F FulRan=T
         wScrn=  0.000000 ICntrl=      2527 IOpCl=  0 I1Cent=           0 NGrid=           0
         NMat0=    1 NMatS0=      1 NMatT0=    0 NMatD0=    1 NMtDS0=    0 NMtDT0=    0
 Symmetry not used in FoFCou.
 Leave Link  703 at Fri May 23 03:46:44 2025, MaxMem=  3758096384 cpu:              33.9 elap:               4.4
 (Enter /apps/easybuild-2022/easybuild/software/Compiler/NVHPC/22.11-CUDA-11.7.0/Gaussian/g16c01-CUDA-11.7.0/g16/l716.exe)
 Dipole        = 2.52829891D-01-4.20280575D-01-2.93926362D-01
 Polarizability= 0.00000000D+00 0.00000000D+00 0.00000000D+00
                 0.00000000D+00 0.00000000D+00 0.00000000D+00
 -------------------------------------------------------------------
 Center     Atomic                   Forces (Hartrees/Bohr)
 Number     Number              X              Y              Z
 -------------------------------------------------------------------
      1        6           0.000064629    0.000053836   -0.000052980
      2        6          -0.000013503   -0.000088312    0.000048408
      3        9           0.000050424   -0.000022916    0.000057305
      4        9          -0.000107787   -0.000057546    0.000029296
      5       16           0.001101919    0.002279577   -0.001727497
      6        8          -0.000857084   -0.000363256   -0.001408039
      7        8          -0.000160183   -0.000338265    0.000258492
      8        8           0.001006002    0.000674547    0.001188454
      9        9          -0.000036138   -0.000020114    0.000020717
     10        9          -0.000005246   -0.000027844    0.000027181
     11        9          -0.000004294   -0.000013476    0.000001894
     12        1          -0.001038739   -0.002076232    0.001556769
 -------------------------------------------------------------------
 Cartesian Forces:  Max     0.002279577 RMS     0.000802599
 Leave Link  716 at Fri May 23 03:46:44 2025, MaxMem=  3758096384 cpu:               0.1 elap:               0.0
 (Enter /apps/easybuild-2022/easybuild/software/Compiler/NVHPC/22.11-CUDA-11.7.0/Gaussian/g16c01-CUDA-11.7.0/g16/l123.exe)
 IRC-IRC-IRC-IRC-IRC-IRC-IRC-IRC-IRC-IRC-IRC-IRC-IRC-IRC-IRC-IRC-IRC-IRC
 Pt  1 Step number   1 out of a maximum of  20
 Using modified Bulirsch-Stoer corrector integration.
   Using distance weighted interpolants to fit PES.
 PreDWI: IReCr0= 2 IReCr1= 1 IReCr2= 1 IReCr3= 1
 Modified Bulirsch-Stoer Extrapolation Cycles:
    EPS =    0.000010000000000
    Cycle     1 NS=    48
      PEZero:  N= 2 I= 1 D=  5.44D-05 Err=  1.16D-04
    Cycle     2 NS=    64 Truncation Error =  0.000116185
      PEZero:  N= 3 I= 2 D=  5.44D-05 Err=  7.75D-05
      PEZero:  N= 3 I= 1 D=  1.09D-04 Err=  5.68D-10
    Cycle     3 NS=    96 Truncation Error =  0.000000001
 BS completed in    3 cycles and     208 integration steps.
 Maximum DWI energy   std dev =  0.000000036 at pt     1
 Maximum DWI gradient std dev =  0.001798017 at pt     1
 SUMMARY OF CORRECTOR INTEGRATION:
   Predictor End Point Energy = -1199.765928
   Old End Point Energy       = -1199.765928
   Corrected End Point Energy = -1199.765928
   Predictor End-Start Dist.  =     0.020875
   Old End-Start Dist.        =     0.020875
   New End-Start Dist.        =     0.020875
   New End-Old End Dist.      =     0.000029
 CORRECTOR INTEGRATION CONVERGENCE:
   Recorrection delta-x convergence threshold:    0.010000
   Delta-x Convergence Met
 Point Number:   1          Path Number:   1
                    CURRENT STRUCTURE
                Cartesian Coordinates (Ang):                
 ---------------------------------------------------------------------
 Center     Atomic                     Coordinates (Angstroms)
 Number     Number                        X           Y           Z
 ---------------------------------------------------------------------
      1          6                    0.860335   -1.129938   -0.377094
      2          6                    0.598482    0.213518    0.366825
      3          9                    0.818001    0.038748    1.665706
      4          9                    1.418872    1.150217   -0.105754
      5         16                   -1.146043    0.892279    0.179073
      6          8                   -2.092662   -0.284474   -0.028071
      7          8                   -1.341966    1.802736    1.260109
      8          8                   -1.281219    1.355924   -1.262954
      9          9                    0.196398   -2.115270    0.205490
     10          9                    0.492216   -1.039246   -1.649666
     11          9                    2.160930   -1.393863   -0.323493
     12          1                   -2.052606    0.317681   -1.152299
 ---------------------------------------------------------------------
   CHANGE IN THE REACTION COORDINATE =    0.02087
   NET REACTION COORDINATE UP TO THIS POINT =    0.02087
  # OF POINTS ALONG THE PATH =   1
  # OF STEPS =   1

 Calculating another point on the path.
 Point Number  2 in FORWARD path direction.
 Using LQA Reaction Path Following.
   LQA: T_Est iteration completed in    3 iterations.
 IRC-IRC-IRC-IRC-IRC-IRC-IRC-IRC-IRC-IRC-IRC-IRC-IRC-IRC-IRC-IRC-IRC-IRC
 Leave Link  123 at Fri May 23 03:46:44 2025, MaxMem=  3758096384 cpu:               0.2 elap:               0.2
 (Enter /apps/easybuild-2022/easybuild/software/Compiler/NVHPC/22.11-CUDA-11.7.0/Gaussian/g16c01-CUDA-11.7.0/g16/l202.exe)
                          Input orientation:                          
 ---------------------------------------------------------------------
 Center     Atomic      Atomic             Coordinates (Angstroms)
 Number     Number       Type             X           Y           Z
 ---------------------------------------------------------------------
      1          6           0        0.860356   -1.129921   -0.377111
      2          6           0        0.598477    0.213490    0.366840
      3          9           0        0.818010    0.038743    1.665718
      4          9           0        1.418851    1.150206   -0.105747
      5         16           0       -1.145912    0.892550    0.178867
      6          8           0       -2.092866   -0.284560   -0.028406
      7          8           0       -1.342004    1.802655    1.260170
      8          8           0       -1.280980    1.356084   -1.262672
      9          9           0        0.196391   -2.115274    0.205494
     10          9           0        0.492215   -1.039252   -1.649661
     11          9           0        2.160929   -1.393865   -0.323493
     12          1           0       -2.056522    0.309843   -1.146413
 ---------------------------------------------------------------------
                    Distance matrix (angstroms):
                    1          2          3          4          5
     1  C    0.000000
     2  C    1.557818   0.000000
     3  F    2.353873   1.328840   0.000000
     4  F    2.363161   1.331836   2.175878   0.000000
     5  S    2.902518   1.881316   2.607049   2.593338   0.000000
     6  O    3.091561   2.765430   3.383457   3.794296   1.524884
     7  O    4.016352   2.662509   2.818070   3.148609   1.426871
     8  O    3.398493   2.737369   3.836224   2.944477   1.520244
     9  F    1.323329   2.368723   2.675529   3.500662   3.293857
    10  F    1.327829   2.376327   3.501421   2.834791   3.123913
    11  F    1.328169   2.345508   2.795131   2.659020   4.051575
    12  H    3.342592   3.057489   4.030448   3.723897   1.710300
                    6          7          8          9         10
     6  O    0.000000
     7  O    2.565286   0.000000
     8  O    2.207778   2.562788   0.000000
     9  F    2.940565   4.339259   4.048267   0.000000
    10  F    3.143353   4.461828   3.005265   2.164933   0.000000
    11  F    4.405951   4.999627   4.504555   2.158626   2.160805
    12  H    1.266718   2.920731   1.307518   3.575537   2.927350
                   11         12
    11  F    0.000000
    12  H    4.622414   0.000000
 Symmetry turned off by external request.
 Stoichiometry    C2HF5O3S
 Rotational constants (GHZ):           1.5610800           0.8542442           0.7713452
 Leave Link  202 at Fri May 23 03:46:44 2025, MaxMem=  3758096384 cpu:               0.1 elap:               0.0
 (Enter /apps/easybuild-2022/easybuild/software/Compiler/NVHPC/22.11-CUDA-11.7.0/Gaussian/g16c01-CUDA-11.7.0/g16/l301.exe)
 Standard basis: 6-311++G(d,p) (5D, 7F)
 Ernie: Thresh=  0.10000D-02 Tol=  0.10000D-05 Strict=F.
   257 basis functions,   419 primitive gaussians,   268 cartesian basis functions
    49 alpha electrons       49 beta electrons
       nuclear repulsion energy       924.6971162330 Hartrees.
 IExCor= 4639 DFT=T Ex+Corr=wB97XD ExCW=0 ScaHFX=  1.000000
 ScaDFX=  1.000000  1.000000  1.000000  1.000000 ScalE2=  1.000000  1.000000
 IRadAn=      5 IRanWt=     -1 IRanGd=            0 ICorTp=0 IEmpDi=121
 HFx  wShort=  0.000000 wLong=  0.200000 cFull=  0.222036 cShort=  0.000000 cLong=  0.777964
 DFx  wShort=  0.000000 wLong=  0.200000 cFull=  0.000000 cShort=  0.000000 cLong=  1.000000
 NAtoms=   12 NActive=   12 NUniq=   12 SFac= 1.00D+00 NAtFMM=   60 NAOKFM=F Big=F
 Integral buffers will be    131072 words long.
 Raffenetti 2 integral format.
 Two-electron integral symmetry is turned off.
 R6Disp:  Grimme-D2 Dispersion energy=       -0.0056630457 Hartrees.
 Nuclear repulsion after empirical dispersion term =      924.6914531874 Hartrees.
 Leave Link  301 at Fri May 23 03:46:44 2025, MaxMem=  3758096384 cpu:               0.1 elap:               0.1
 (Enter /apps/easybuild-2022/easybuild/software/Compiler/NVHPC/22.11-CUDA-11.7.0/Gaussian/g16c01-CUDA-11.7.0/g16/l302.exe)
 NPDir=0 NMtPBC=     1 NCelOv=     1 NCel=       1 NClECP=     1 NCelD=      1
         NCelK=      1 NCelE2=     1 NClLst=     1 CellRange=     0.0.
 One-electron integrals computed using PRISM.
 NBasis=   257 RedAO= T EigKep=  6.07D-05  NBF=   257
 NBsUse=   257 1.00D-06 EigRej= -1.00D+00 NBFU=   257
 Precomputing XC quadrature grid using
 IXCGrd= 4 IRadAn=           5 IRanWt=          -1 IRanGd=           0 AccXCQ= 0.00D+00.
 Generated NRdTot=       0 NPtTot=           0 NUsed=           0 NTot=          32
 NSgBfM=   268   268   268   268   268 MxSgAt=    12 MxSgA2=    12.
 Leave Link  302 at Fri May 23 03:46:44 2025, MaxMem=  3758096384 cpu:               0.8 elap:               0.3
 (Enter /apps/easybuild-2022/easybuild/software/Compiler/NVHPC/22.11-CUDA-11.7.0/Gaussian/g16c01-CUDA-11.7.0/g16/l303.exe)
 DipDrv:  MaxL=1.
 Leave Link  303 at Fri May 23 03:46:44 2025, MaxMem=  3758096384 cpu:               0.1 elap:               0.0
 (Enter /apps/easybuild-2022/easybuild/software/Compiler/NVHPC/22.11-CUDA-11.7.0/Gaussian/g16c01-CUDA-11.7.0/g16/l401.exe)
 Initial guess from the checkpoint file:  "2003846667223680600001_intra_H_migration_suprafacial_6_12_IRC_F.chk"
 B after Tr=    -0.000036   -0.000072    0.000054
         Rot=    1.000000    0.000016   -0.000023   -0.000016 Ang=   0.00 deg.
 Guess basis will be translated and rotated to current coordinates.
 JPrj=2 DoOrth=T DoCkMO=T.
 Generating alternative initial guess.
 ExpMin= 3.60D-02 ExpMax= 9.34D+04 ExpMxC= 3.17D+03 IAcc=3 IRadAn=         5 AccDes= 0.00D+00
 Harris functional with IExCor= 4639 and IRadAn=       5 diagonalized for initial guess.
 HarFok:  IExCor= 4639 AccDes= 0.00D+00 IRadAn=         5 IDoV= 1 UseB2=F ITyADJ=14
 ICtDFT=  3500011 ScaDFX=  1.000000  1.000000  1.000000  1.000000
 FoFCou: FMM=F IPFlag=           0 FMFlag=      100000 FMFlg1=           0
         NFxFlg=           0 DoJE=T BraDBF=F KetDBF=T FulRan=T
         wScrn=  0.000000 ICntrl=       500 IOpCl=  0 I1Cent=   200000004 NGrid=           0
         NMat0=    1 NMatS0=      1 NMatT0=    0 NMatD0=    1 NMtDS0=    0 NMtDT0=    0
 Symmetry not used in FoFCou.
 Harris En= -1167.06010708888    
 Leave Link  401 at Fri May 23 03:46:45 2025, MaxMem=  3758096384 cpu:               2.7 elap:               0.4
 (Enter /apps/easybuild-2022/easybuild/software/Compiler/NVHPC/22.11-CUDA-11.7.0/Gaussian/g16c01-CUDA-11.7.0/g16/l502.exe)
 Keep R1 ints in memory in canonical form, NReq=1117474633.
 FoFCou: FMM=F IPFlag=           0 FMFlag=           0 FMFlg1=           0
         NFxFlg=           0 DoJE=F BraDBF=F KetDBF=F FulRan=T
         wScrn=  0.000000 ICntrl=       600 IOpCl=  0 I1Cent=           0 NGrid=           0
         NMat0=    1 NMatS0=  33153 NMatT0=    0 NMatD0=    1 NMtDS0=    0 NMtDT0=    0
 Symmetry not used in FoFCou.
 Two-electron integral symmetry not used.
 Closed shell SCF:
 Using DIIS extrapolation, IDIIS=  1040.
 NGot=  3758096384 LenX=  2658793852 LenY=  2658721587
 Requested convergence on RMS density matrix=1.00D-08 within  32 cycles.
 Requested convergence on MAX density matrix=1.00D-06.
 Requested convergence on             energy=1.00D-06.
 No special actions if energy rises.

 Cycle   1  Pass 1  IDiag  1:
 E= -1199.76596271818    
 DIIS: error= 4.70D-04 at cycle   1 NSaved=   1.
 NSaved= 1 IEnMin= 1 EnMin= -1199.76596271818     IErMin= 1 ErrMin= 4.70D-04
 ErrMax= 4.70D-04  0.00D+00 EMaxC= 1.00D-01 BMatC= 3.92D-05 BMatP= 3.92D-05
 IDIUse=3 WtCom= 9.95D-01 WtEn= 4.70D-03
 Coeff-Com:  0.100D+01
 Coeff-En:   0.100D+01
 Coeff:      0.100D+01
 Gap=     0.719 Goal=   None    Shift=    0.000
 RMSDP=6.10D-05 MaxDP=2.75D-03              OVMax= 3.01D-03

 Cycle   2  Pass 1  IDiag  1:
 E= -1199.76600983507     Delta-E=       -0.000047116888 Rises=F Damp=F
 DIIS: error= 3.57D-04 at cycle   2 NSaved=   2.
 NSaved= 2 IEnMin= 2 EnMin= -1199.76600983507     IErMin= 2 ErrMin= 3.57D-04
 ErrMax= 3.57D-04  0.00D+00 EMaxC= 1.00D-01 BMatC= 7.83D-06 BMatP= 3.92D-05
 IDIUse=3 WtCom= 9.96D-01 WtEn= 3.57D-03
 Coeff-Com:  0.159D+00 0.841D+00
 Coeff-En:   0.000D+00 0.100D+01
 Coeff:      0.159D+00 0.841D+00
 Gap=     0.466 Goal=   None    Shift=    0.000
 RMSDP=2.19D-05 MaxDP=6.15D-04 DE=-4.71D-05 OVMax= 1.71D-03

 Cycle   3  Pass 1  IDiag  1:
 E= -1199.76601147393     Delta-E=       -0.000001638860 Rises=F Damp=F
 DIIS: error= 2.94D-04 at cycle   3 NSaved=   3.
 NSaved= 3 IEnMin= 3 EnMin= -1199.76601147393     IErMin= 3 ErrMin= 2.94D-04
 ErrMax= 2.94D-04  0.00D+00 EMaxC= 1.00D-01 BMatC= 9.21D-06 BMatP= 7.83D-06
 IDIUse=3 WtCom= 3.68D-01 WtEn= 6.32D-01
 Coeff-Com: -0.969D-01 0.552D+00 0.545D+00
 Coeff-En:   0.000D+00 0.430D+00 0.570D+00
 Coeff:     -0.357D-01 0.475D+00 0.561D+00
 Gap=     0.466 Goal=   None    Shift=    0.000
 RMSDP=2.49D-05 MaxDP=9.45D-04 DE=-1.64D-06 OVMax= 8.01D-04

 Cycle   4  Pass 1  IDiag  1:
 E= -1199.76601782117     Delta-E=       -0.000006347234 Rises=F Damp=F
 DIIS: error= 1.01D-04 at cycle   4 NSaved=   4.
 NSaved= 4 IEnMin= 4 EnMin= -1199.76601782117     IErMin= 4 ErrMin= 1.01D-04
 ErrMax= 1.01D-04  0.00D+00 EMaxC= 1.00D-01 BMatC= 5.73D-07 BMatP= 7.83D-06
 IDIUse=3 WtCom= 9.99D-01 WtEn= 1.01D-03
 Coeff-Com: -0.464D-03-0.185D+00 0.102D+00 0.108D+01
 Coeff-En:   0.000D+00 0.000D+00 0.000D+00 0.100D+01
 Coeff:     -0.464D-03-0.185D+00 0.102D+00 0.108D+01
 Gap=     0.466 Goal=   None    Shift=    0.000
 RMSDP=5.13D-06 MaxDP=1.54D-04 DE=-6.35D-06 OVMax= 4.73D-04

 Cycle   5  Pass 1  IDiag  1:
 E= -1199.76601841491     Delta-E=       -0.000000593748 Rises=F Damp=F
 DIIS: error= 5.66D-06 at cycle   5 NSaved=   5.
 NSaved= 5 IEnMin= 5 EnMin= -1199.76601841491     IErMin= 5 ErrMin= 5.66D-06
 ErrMax= 5.66D-06  0.00D+00 EMaxC= 1.00D-01 BMatC= 1.02D-08 BMatP= 5.73D-07
 IDIUse=1 WtCom= 1.00D+00 WtEn= 0.00D+00
 Coeff-Com:  0.814D-02-0.939D-01-0.285D-01 0.273D+00 0.842D+00
 Coeff:      0.814D-02-0.939D-01-0.285D-01 0.273D+00 0.842D+00
 Gap=     0.466 Goal=   None    Shift=    0.000
 RMSDP=1.68D-06 MaxDP=6.28D-05 DE=-5.94D-07 OVMax= 8.64D-05

 Cycle   6  Pass 1  IDiag  1:
 E= -1199.76601843022     Delta-E=       -0.000000015305 Rises=F Damp=F
 DIIS: error= 3.24D-06 at cycle   6 NSaved=   6.
 NSaved= 6 IEnMin= 6 EnMin= -1199.76601843022     IErMin= 6 ErrMin= 3.24D-06
 ErrMax= 3.24D-06  0.00D+00 EMaxC= 1.00D-01 BMatC= 3.48D-09 BMatP= 1.02D-08
 IDIUse=1 WtCom= 1.00D+00 WtEn= 0.00D+00
 Coeff-Com:  0.431D-02-0.284D-01-0.287D-01 0.222D-01 0.442D+00 0.588D+00
 Coeff:      0.431D-02-0.284D-01-0.287D-01 0.222D-01 0.442D+00 0.588D+00
 Gap=     0.466 Goal=   None    Shift=    0.000
 RMSDP=4.32D-07 MaxDP=1.19D-05 DE=-1.53D-08 OVMax= 2.12D-05

 Cycle   7  Pass 1  IDiag  1:
 E= -1199.76601843290     Delta-E=       -0.000000002680 Rises=F Damp=F
 DIIS: error= 5.56D-07 at cycle   7 NSaved=   7.
 NSaved= 7 IEnMin= 7 EnMin= -1199.76601843290     IErMin= 7 ErrMin= 5.56D-07
 ErrMax= 5.56D-07  0.00D+00 EMaxC= 1.00D-01 BMatC= 8.50D-11 BMatP= 3.48D-09
 IDIUse=1 WtCom= 1.00D+00 WtEn= 0.00D+00
 Coeff-Com: -0.267D-03 0.680D-02-0.205D-02-0.279D-01-0.220D-01 0.809D-01
 Coeff-Com:  0.964D+00
 Coeff:     -0.267D-03 0.680D-02-0.205D-02-0.279D-01-0.220D-01 0.809D-01
 Coeff:      0.964D+00
 Gap=     0.466 Goal=   None    Shift=    0.000
 RMSDP=1.66D-07 MaxDP=4.75D-06 DE=-2.68D-09 OVMax= 9.28D-06

 Cycle   8  Pass 1  IDiag  1:
 E= -1199.76601843300     Delta-E=       -0.000000000098 Rises=F Damp=F
 DIIS: error= 2.06D-07 at cycle   8 NSaved=   8.
 NSaved= 8 IEnMin= 8 EnMin= -1199.76601843300     IErMin= 8 ErrMin= 2.06D-07
 ErrMax= 2.06D-07  0.00D+00 EMaxC= 1.00D-01 BMatC= 2.43D-11 BMatP= 8.50D-11
 IDIUse=1 WtCom= 1.00D+00 WtEn= 0.00D+00
 Coeff-Com: -0.390D-03 0.515D-02 0.704D-03-0.157D-01-0.377D-01 0.629D-02
 Coeff-Com:  0.474D+00 0.568D+00
 Coeff:     -0.390D-03 0.515D-02 0.704D-03-0.157D-01-0.377D-01 0.629D-02
 Coeff:      0.474D+00 0.568D+00
 Gap=     0.466 Goal=   None    Shift=    0.000
 RMSDP=3.72D-08 MaxDP=1.19D-06 DE=-9.78D-11 OVMax= 1.85D-06

 Cycle   9  Pass 1  IDiag  1:
 E= -1199.76601843291     Delta-E=        0.000000000085 Rises=F Damp=F
 DIIS: error= 7.36D-08 at cycle   9 NSaved=   9.
 NSaved= 9 IEnMin= 8 EnMin= -1199.76601843300     IErMin= 9 ErrMin= 7.36D-08
 ErrMax= 7.36D-08  0.00D+00 EMaxC= 1.00D-01 BMatC= 3.38D-12 BMatP= 2.43D-11
 IDIUse=1 WtCom= 1.00D+00 WtEn= 0.00D+00
 Coeff-Com: -0.147D-03 0.115D-02 0.909D-03-0.191D-02-0.152D-01-0.152D-01
 Coeff-Com:  0.138D-01 0.275D+00 0.741D+00
 Coeff:     -0.147D-03 0.115D-02 0.909D-03-0.191D-02-0.152D-01-0.152D-01
 Coeff:      0.138D-01 0.275D+00 0.741D+00
 Gap=     0.466 Goal=   None    Shift=    0.000
 RMSDP=1.49D-08 MaxDP=3.22D-07 DE= 8.50D-11 OVMax= 1.04D-06

 Cycle  10  Pass 1  IDiag  1:
 E= -1199.76601843303     Delta-E=       -0.000000000118 Rises=F Damp=F
 DIIS: error= 1.35D-08 at cycle  10 NSaved=  10.
 NSaved=10 IEnMin=10 EnMin= -1199.76601843303     IErMin=10 ErrMin= 1.35D-08
 ErrMax= 1.35D-08  0.00D+00 EMaxC= 1.00D-01 BMatC= 5.73D-14 BMatP= 3.38D-12
 IDIUse=1 WtCom= 1.00D+00 WtEn= 0.00D+00
 Coeff-Com:  0.220D-05-0.120D-03 0.647D-04 0.497D-03 0.454D-03-0.151D-02
 Coeff-Com: -0.225D-01-0.524D-02 0.714D-01 0.957D+00
 Coeff:      0.220D-05-0.120D-03 0.647D-04 0.497D-03 0.454D-03-0.151D-02
 Coeff:     -0.225D-01-0.524D-02 0.714D-01 0.957D+00
 Gap=     0.466 Goal=   None    Shift=    0.000
 RMSDP=4.35D-09 MaxDP=1.19D-07 DE=-1.18D-10 OVMax= 2.69D-07

 SCF Done:  E(RwB97XD) =  -1199.76601843     A.U. after   10 cycles
            NFock= 10  Conv=0.44D-08     -V/T= 2.0020
 KE= 1.197374615158D+03 PE=-4.695317067801D+03 EE= 1.373484981023D+03
 Leave Link  502 at Fri May 23 03:46:56 2025, MaxMem=  3758096384 cpu:              55.2 elap:              11.6
 (Enter /apps/easybuild-2022/easybuild/software/Compiler/NVHPC/22.11-CUDA-11.7.0/Gaussian/g16c01-CUDA-11.7.0/g16/l508.exe)
 QCSCF skips out because SCF is already converged.
 Leave Link  508 at Fri May 23 03:46:56 2025, MaxMem=  3758096384 cpu:               0.1 elap:               0.0
 (Enter /apps/easybuild-2022/easybuild/software/Compiler/NVHPC/22.11-CUDA-11.7.0/Gaussian/g16c01-CUDA-11.7.0/g16/l801.exe)
 DoSCS=F DFT=T ScalE2(SS,OS)=  1.000000  1.000000
 Range of M.O.s used for correlation:     1   257
 NBasis=   257 NAE=    49 NBE=    49 NFC=     0 NFV=     0
 NROrb=    257 NOA=    49 NOB=    49 NVA=   208 NVB=   208

 **** Warning!!: The largest alpha MO coefficient is  0.40265136D+02

 Leave Link  801 at Fri May 23 03:46:56 2025, MaxMem=  3758096384 cpu:               0.1 elap:               0.0
 (Enter /apps/easybuild-2022/easybuild/software/Compiler/NVHPC/22.11-CUDA-11.7.0/Gaussian/g16c01-CUDA-11.7.0/g16/l1101.exe)
 Leave Link 1101 at Fri May 23 03:46:56 2025, MaxMem=  3758096384 cpu:               0.1 elap:               0.0
 (Enter /apps/easybuild-2022/easybuild/software/Compiler/NVHPC/22.11-CUDA-11.7.0/Gaussian/g16c01-CUDA-11.7.0/g16/l1102.exe)
 Symmetrizing basis deriv contribution to polar:
 IMax=3 JMax=2 DiffMx= 0.00D+00
 Leave Link 1102 at Fri May 23 03:46:56 2025, MaxMem=  3758096384 cpu:               0.0 elap:               0.0
 (Enter /apps/easybuild-2022/easybuild/software/Compiler/NVHPC/22.11-CUDA-11.7.0/Gaussian/g16c01-CUDA-11.7.0/g16/l1110.exe)
 Leave Link 1110 at Fri May 23 03:46:57 2025, MaxMem=  3758096384 cpu:               0.1 elap:               0.0
 (Enter /apps/easybuild-2022/easybuild/software/Compiler/NVHPC/22.11-CUDA-11.7.0/Gaussian/g16c01-CUDA-11.7.0/g16/l1002.exe)
 Minotr:  Closed shell wavefunction.
 Leave Link 1002 at Fri May 23 03:46:57 2025, MaxMem=  3758096384 cpu:               0.1 elap:               0.0
 (Enter /apps/easybuild-2022/easybuild/software/Compiler/NVHPC/22.11-CUDA-11.7.0/Gaussian/g16c01-CUDA-11.7.0/g16/l701.exe)
 ... and contract with generalized density number  0.
 Compute integral first derivatives.
 R6Disp: Adding Grimme-D2 dispersion energy 1st derivatives to the gradient.
 Leave Link  701 at Fri May 23 03:46:57 2025, MaxMem=  3758096384 cpu:               0.4 elap:               0.1
 (Enter /apps/easybuild-2022/easybuild/software/Compiler/NVHPC/22.11-CUDA-11.7.0/Gaussian/g16c01-CUDA-11.7.0/g16/l702.exe)
 L702 exits ... SP integral derivatives will be done elsewhere.
 Leave Link  702 at Fri May 23 03:46:57 2025, MaxMem=  3758096384 cpu:               0.1 elap:               0.0
 (Enter /apps/easybuild-2022/easybuild/software/Compiler/NVHPC/22.11-CUDA-11.7.0/Gaussian/g16c01-CUDA-11.7.0/g16/l703.exe)
 Integral derivatives from FoFJK, PRISM(SPDF).
 Compute integral first derivatives, UseDBF=F ICtDFT=           0.
 Calling FoFJK, ICntrl=      2127 FMM=F ISym2X=0 I1Cent= 0 IOpClX= 0 NMat=1 NMatS=1 NMatT=0.
 FoFJK:  IHMeth= 1 ICntrl=    2127 DoSepK=T KAlg= 0 I1Cent=           0 FoldK=F
 IRaf=         1 NMat=       1 IRICut=       1 DoRegI=T DoRafI=F ISym2E= 0 IDoP0=0 IntGTp=1.
 FoFCou: FMM=F IPFlag=           0 FMFlag=      100000 FMFlg1=         800
         NFxFlg=           0 DoJE=F BraDBF=F KetDBF=F FulRan=T
         wScrn=  0.000000 ICntrl=      2527 IOpCl=  0 I1Cent=           0 NGrid=           0
         NMat0=    1 NMatS0=      1 NMatT0=    0 NMatD0=    1 NMtDS0=    0 NMtDT0=    0
 Symmetry not used in FoFCou.
 Leave Link  703 at Fri May 23 03:47:01 2025, MaxMem=  3758096384 cpu:              34.1 elap:               4.4
 (Enter /apps/easybuild-2022/easybuild/software/Compiler/NVHPC/22.11-CUDA-11.7.0/Gaussian/g16c01-CUDA-11.7.0/g16/l716.exe)
 Dipole        = 2.46729025D-01-4.32725295D-01-2.84834396D-01
 Polarizability= 0.00000000D+00 0.00000000D+00 0.00000000D+00
                 0.00000000D+00 0.00000000D+00 0.00000000D+00
 -------------------------------------------------------------------
 Center     Atomic                   Forces (Hartrees/Bohr)
 Number     Number              X              Y              Z
 -------------------------------------------------------------------
      1        6           0.000130083    0.000108578   -0.000104834
      2        6          -0.000028608   -0.000177408    0.000098388
      3        9           0.000096430   -0.000048863    0.000116202
      4        9          -0.000215396   -0.000114443    0.000064215
      5       16           0.002185319    0.004540623   -0.003466783
      6        8          -0.001716718   -0.000748519   -0.002779171
      7        8          -0.000323027   -0.000679335    0.000515465
      8        8           0.002018862    0.001357483    0.002377470
      9        9          -0.000072231   -0.000040654    0.000037706
     10        9          -0.000006657   -0.000052381    0.000053193
     11        9          -0.000007645   -0.000025905    0.000006155
     12        1          -0.002060413   -0.004119176    0.003081993
 -------------------------------------------------------------------
 Cartesian Forces:  Max     0.004540623 RMS     0.001598105
 Leave Link  716 at Fri May 23 03:47:01 2025, MaxMem=  3758096384 cpu:               0.1 elap:               0.0
 (Enter /apps/easybuild-2022/easybuild/software/Compiler/NVHPC/22.11-CUDA-11.7.0/Gaussian/g16c01-CUDA-11.7.0/g16/l123.exe)
 IRC-IRC-IRC-IRC-IRC-IRC-IRC-IRC-IRC-IRC-IRC-IRC-IRC-IRC-IRC-IRC-IRC-IRC
 Pt  2 Step number   1 out of a maximum of  20
 Using modified Bulirsch-Stoer corrector integration.
   Using distance weighted interpolants to fit PES.
 PreDWI: IReCr0= 2 IReCr1= 1 IReCr2= 1 IReCr3= 1
 Modified Bulirsch-Stoer Extrapolation Cycles:
    EPS =    0.000010000000000
    Cycle     1 NS=    48
      PEZero:  N= 2 I= 1 D=  1.09D-04 Err=  1.98D-07
    Cycle     2 NS=    64 Truncation Error =  0.000000198
 BS completed in    2 cycles and     112 integration steps.
 Maximum DWI energy   std dev =  0.000000063 at pt    46
 Maximum DWI gradient std dev =  0.001263217 at pt    27
 SUMMARY OF CORRECTOR INTEGRATION:
   Predictor End Point Energy = -1199.766018
   Old End Point Energy       = -1199.766018
   Corrected End Point Energy = -1199.766018
   Predictor End-Start Dist.  =     0.020867
   Old End-Start Dist.        =     0.020867
   New End-Start Dist.        =     0.020867
   New End-Old End Dist.      =     0.000028
 CORRECTOR INTEGRATION CONVERGENCE:
   Recorrection delta-x convergence threshold:    0.010000
   Delta-x Convergence Met
 Point Number:   2          Path Number:   1
                    CURRENT STRUCTURE
                Cartesian Coordinates (Ang):                
 ---------------------------------------------------------------------
 Center     Atomic                     Coordinates (Angstroms)
 Number     Number                        X           Y           Z
 ---------------------------------------------------------------------
      1          6                    0.860356   -1.129921   -0.377111
      2          6                    0.598477    0.213490    0.366840
      3          9                    0.818011    0.038743    1.665718
      4          9                    1.418850    1.150205   -0.105747
      5         16                   -1.145912    0.892551    0.178866
      6          8                   -2.092867   -0.284561   -0.028405
      7          8                   -1.342004    1.802655    1.260171
      8          8                   -1.280979    1.356085   -1.262670
      9          9                    0.196391   -2.115274    0.205494
     10          9                    0.492215   -1.039252   -1.649660
     11          9                    2.160929   -1.393865   -0.323493
     12          1                   -2.056524    0.309842   -1.146420
 ---------------------------------------------------------------------
   CHANGE IN THE REACTION COORDINATE =    0.02087
   NET REACTION COORDINATE UP TO THIS POINT =    0.04174
  # OF POINTS ALONG THE PATH =   2
  # OF STEPS =   1

 Calculating another point on the path.
 Point Number  3 in FORWARD path direction.
 Using LQA Reaction Path Following.
   LQA: T_Est iteration completed in    3 iterations.
 IRC-IRC-IRC-IRC-IRC-IRC-IRC-IRC-IRC-IRC-IRC-IRC-IRC-IRC-IRC-IRC-IRC-IRC
 Leave Link  123 at Fri May 23 03:47:01 2025, MaxMem=  3758096384 cpu:               0.1 elap:               0.0
 (Enter /apps/easybuild-2022/easybuild/software/Compiler/NVHPC/22.11-CUDA-11.7.0/Gaussian/g16c01-CUDA-11.7.0/g16/l202.exe)
                          Input orientation:                          
 ---------------------------------------------------------------------
 Center     Atomic      Atomic             Coordinates (Angstroms)
 Number     Number       Type             X           Y           Z
 ---------------------------------------------------------------------
      1          6           0        0.860377   -1.129903   -0.377128
      2          6           0        0.598473    0.213462    0.366856
      3          9           0        0.818020    0.038738    1.665730
      4          9           0        1.418829    1.150194   -0.105741
      5         16           0       -1.145781    0.892823    0.178658
      6          8           0       -2.093073   -0.284652   -0.028738
      7          8           0       -1.342043    1.802573    1.260232
      8          8           0       -1.280736    1.356248   -1.262385
      9          9           0        0.196384   -2.115278    0.205498
     10          9           0        0.492215   -1.039257   -1.649655
     11          9           0        2.160928   -1.393868   -0.323492
     12          1           0       -2.060444    0.302002   -1.140551
 ---------------------------------------------------------------------
                    Distance matrix (angstroms):
                    1          2          3          4          5
     1  C    0.000000
     2  C    1.557798   0.000000
     3  F    2.353887   1.328835   0.000000
     4  F    2.363126   1.331840   2.175870   0.000000
     5  S    2.902583   1.881322   2.607175   2.593134   0.000000
     6  O    3.091713   2.765688   3.383824   3.794491   1.525392
     7  O    4.016344   2.662517   2.818052   3.148634   1.426873
     8  O    3.398381   2.737118   3.835944   2.944136   1.519730
     9  F    1.323368   2.368701   2.675537   3.500650   3.294055
    10  F    1.327812   2.376323   3.501428   2.834780   3.123890
    11  F    1.328152   2.345497   2.795132   2.659018   4.051597
    12  H    3.341311   3.057769   4.028656   3.727680   1.710552
                    6          7          8          9         10
     6  O    0.000000
     7  O    2.565541   0.000000
     8  O    2.207788   2.562531   0.000000
     9  F    2.940692   4.339215   4.048217   0.000000
    10  F    3.143328   4.461832   3.005292   2.164932   0.000000
    11  F    4.406106   4.999623   4.504411   2.158633   2.160801
    12  H    1.257519   2.920886   1.316899   3.570485   2.928178
                   11         12
    11  F    0.000000
    12  H    4.622071   0.000000
 Symmetry turned off by external request.
 Stoichiometry    C2HF5O3S
 Rotational constants (GHZ):           1.5610739           0.8542596           0.7713315
 Leave Link  202 at Fri May 23 03:47:01 2025, MaxMem=  3758096384 cpu:               0.1 elap:               0.0
 (Enter /apps/easybuild-2022/easybuild/software/Compiler/NVHPC/22.11-CUDA-11.7.0/Gaussian/g16c01-CUDA-11.7.0/g16/l301.exe)
 Standard basis: 6-311++G(d,p) (5D, 7F)
 Ernie: Thresh=  0.10000D-02 Tol=  0.10000D-05 Strict=F.
   257 basis functions,   419 primitive gaussians,   268 cartesian basis functions
    49 alpha electrons       49 beta electrons
       nuclear repulsion energy       924.6982327667 Hartrees.
 IExCor= 4639 DFT=T Ex+Corr=wB97XD ExCW=0 ScaHFX=  1.000000
 ScaDFX=  1.000000  1.000000  1.000000  1.000000 ScalE2=  1.000000  1.000000
 IRadAn=      5 IRanWt=     -1 IRanGd=            0 ICorTp=0 IEmpDi=121
 HFx  wShort=  0.000000 wLong=  0.200000 cFull=  0.222036 cShort=  0.000000 cLong=  0.777964
 DFx  wShort=  0.000000 wLong=  0.200000 cFull=  0.000000 cShort=  0.000000 cLong=  1.000000
 NAtoms=   12 NActive=   12 NUniq=   12 SFac= 1.00D+00 NAtFMM=   60 NAOKFM=F Big=F
 Integral buffers will be    131072 words long.
 Raffenetti 2 integral format.
 Two-electron integral symmetry is turned off.
 R6Disp:  Grimme-D2 Dispersion energy=       -0.0056633561 Hartrees.
 Nuclear repulsion after empirical dispersion term =      924.6925694106 Hartrees.
 Leave Link  301 at Fri May 23 03:47:01 2025, MaxMem=  3758096384 cpu:               0.1 elap:               0.0
 (Enter /apps/easybuild-2022/easybuild/software/Compiler/NVHPC/22.11-CUDA-11.7.0/Gaussian/g16c01-CUDA-11.7.0/g16/l302.exe)
 NPDir=0 NMtPBC=     1 NCelOv=     1 NCel=       1 NClECP=     1 NCelD=      1
         NCelK=      1 NCelE2=     1 NClLst=     1 CellRange=     0.0.
 One-electron integrals computed using PRISM.
 NBasis=   257 RedAO= T EigKep=  6.06D-05  NBF=   257
 NBsUse=   257 1.00D-06 EigRej= -1.00D+00 NBFU=   257
 Precomputing XC quadrature grid using
 IXCGrd= 4 IRadAn=           5 IRanWt=          -1 IRanGd=           0 AccXCQ= 0.00D+00.
 Generated NRdTot=       0 NPtTot=           0 NUsed=           0 NTot=          32
 NSgBfM=   268   268   268   268   268 MxSgAt=    12 MxSgA2=    12.
 Leave Link  302 at Fri May 23 03:47:01 2025, MaxMem=  3758096384 cpu:               0.8 elap:               0.2
 (Enter /apps/easybuild-2022/easybuild/software/Compiler/NVHPC/22.11-CUDA-11.7.0/Gaussian/g16c01-CUDA-11.7.0/g16/l303.exe)
 DipDrv:  MaxL=1.
 Leave Link  303 at Fri May 23 03:47:02 2025, MaxMem=  3758096384 cpu:               0.1 elap:               0.1
 (Enter /apps/easybuild-2022/easybuild/software/Compiler/NVHPC/22.11-CUDA-11.7.0/Gaussian/g16c01-CUDA-11.7.0/g16/l401.exe)
 Initial guess from the checkpoint file:  "2003846667223680600001_intra_H_migration_suprafacial_6_12_IRC_F.chk"
 B after Tr=    -0.000036   -0.000072    0.000054
         Rot=    1.000000    0.000016   -0.000023   -0.000016 Ang=   0.00 deg.
 Guess basis will be translated and rotated to current coordinates.
 JPrj=2 DoOrth=T DoCkMO=T.
 Generating alternative initial guess.
 ExpMin= 3.60D-02 ExpMax= 9.34D+04 ExpMxC= 3.17D+03 IAcc=3 IRadAn=         5 AccDes= 0.00D+00
 Harris functional with IExCor= 4639 and IRadAn=       5 diagonalized for initial guess.
 HarFok:  IExCor= 4639 AccDes= 0.00D+00 IRadAn=         5 IDoV= 1 UseB2=F ITyADJ=14
 ICtDFT=  3500011 ScaDFX=  1.000000  1.000000  1.000000  1.000000
 FoFCou: FMM=F IPFlag=           0 FMFlag=      100000 FMFlg1=           0
         NFxFlg=           0 DoJE=T BraDBF=F KetDBF=T FulRan=T
         wScrn=  0.000000 ICntrl=       500 IOpCl=  0 I1Cent=   200000004 NGrid=           0
         NMat0=    1 NMatS0=      1 NMatT0=    0 NMatD0=    1 NMtDS0=    0 NMtDT0=    0
 Symmetry not used in FoFCou.
 Harris En= -1167.06021809255    
 Leave Link  401 at Fri May 23 03:47:02 2025, MaxMem=  3758096384 cpu:               3.4 elap:               0.6
 (Enter /apps/easybuild-2022/easybuild/software/Compiler/NVHPC/22.11-CUDA-11.7.0/Gaussian/g16c01-CUDA-11.7.0/g16/l502.exe)
 Keep R1 ints in memory in canonical form, NReq=1117474633.
 FoFCou: FMM=F IPFlag=           0 FMFlag=           0 FMFlg1=           0
         NFxFlg=           0 DoJE=F BraDBF=F KetDBF=F FulRan=T
         wScrn=  0.000000 ICntrl=       600 IOpCl=  0 I1Cent=           0 NGrid=           0
         NMat0=    1 NMatS0=  33153 NMatT0=    0 NMatD0=    1 NMtDS0=    0 NMtDT0=    0
 Symmetry not used in FoFCou.
 Two-electron integral symmetry not used.
 Closed shell SCF:
 Using DIIS extrapolation, IDIIS=  1040.
 NGot=  3758096384 LenX=  2658793852 LenY=  2658721587
 Requested convergence on RMS density matrix=1.00D-08 within  32 cycles.
 Requested convergence on MAX density matrix=1.00D-06.
 Requested convergence on             energy=1.00D-06.
 No special actions if energy rises.

 Cycle   1  Pass 1  IDiag  1:
 E= -1199.76611250262    
 DIIS: error= 4.68D-04 at cycle   1 NSaved=   1.
 NSaved= 1 IEnMin= 1 EnMin= -1199.76611250262     IErMin= 1 ErrMin= 4.68D-04
 ErrMax= 4.68D-04  0.00D+00 EMaxC= 1.00D-01 BMatC= 3.92D-05 BMatP= 3.92D-05
 IDIUse=3 WtCom= 9.95D-01 WtEn= 4.68D-03
 Coeff-Com:  0.100D+01
 Coeff-En:   0.100D+01
 Coeff:      0.100D+01
 Gap=     0.719 Goal=   None    Shift=    0.000
 RMSDP=6.10D-05 MaxDP=2.77D-03              OVMax= 3.00D-03

 Cycle   2  Pass 1  IDiag  1:
 E= -1199.76615953508     Delta-E=       -0.000047032463 Rises=F Damp=F
 DIIS: error= 3.54D-04 at cycle   2 NSaved=   2.
 NSaved= 2 IEnMin= 2 EnMin= -1199.76615953508     IErMin= 2 ErrMin= 3.54D-04
 ErrMax= 3.54D-04  0.00D+00 EMaxC= 1.00D-01 BMatC= 7.79D-06 BMatP= 3.92D-05
 IDIUse=3 WtCom= 9.96D-01 WtEn= 3.54D-03
 Coeff-Com:  0.159D+00 0.841D+00
 Coeff-En:   0.000D+00 0.100D+01
 Coeff:      0.158D+00 0.842D+00
 Gap=     0.466 Goal=   None    Shift=    0.000
 RMSDP=2.19D-05 MaxDP=6.19D-04 DE=-4.70D-05 OVMax= 1.70D-03

 Cycle   3  Pass 1  IDiag  1:
 E= -1199.76616116382     Delta-E=       -0.000001628740 Rises=F Damp=F
 DIIS: error= 2.91D-04 at cycle   3 NSaved=   3.
 NSaved= 3 IEnMin= 3 EnMin= -1199.76616116382     IErMin= 3 ErrMin= 2.91D-04
 ErrMax= 2.91D-04  0.00D+00 EMaxC= 1.00D-01 BMatC= 9.17D-06 BMatP= 7.79D-06
 IDIUse=3 WtCom= 3.70D-01 WtEn= 6.30D-01
 Coeff-Com: -0.967D-01 0.552D+00 0.545D+00
 Coeff-En:   0.000D+00 0.430D+00 0.570D+00
 Coeff:     -0.357D-01 0.475D+00 0.561D+00
 Gap=     0.466 Goal=   None    Shift=    0.000
 RMSDP=2.49D-05 MaxDP=9.65D-04 DE=-1.63D-06 OVMax= 7.91D-04

 Cycle   4  Pass 1  IDiag  1:
 E= -1199.76616748368     Delta-E=       -0.000006319865 Rises=F Damp=F
 DIIS: error= 1.00D-04 at cycle   4 NSaved=   4.
 NSaved= 4 IEnMin= 4 EnMin= -1199.76616748368     IErMin= 4 ErrMin= 1.00D-04
 ErrMax= 1.00D-04  0.00D+00 EMaxC= 1.00D-01 BMatC= 5.71D-07 BMatP= 7.79D-06
 IDIUse=3 WtCom= 9.99D-01 WtEn= 1.00D-03
 Coeff-Com: -0.831D-03-0.183D+00 0.104D+00 0.108D+01
 Coeff-En:   0.000D+00 0.000D+00 0.000D+00 0.100D+01
 Coeff:     -0.830D-03-0.183D+00 0.103D+00 0.108D+01
 Gap=     0.466 Goal=   None    Shift=    0.000
 RMSDP=5.11D-06 MaxDP=1.53D-04 DE=-6.32D-06 OVMax= 4.70D-04

 Cycle   5  Pass 1  IDiag  1:
 E= -1199.76616807357     Delta-E=       -0.000000589889 Rises=F Damp=F
 DIIS: error= 5.86D-06 at cycle   5 NSaved=   5.
 NSaved= 5 IEnMin= 5 EnMin= -1199.76616807357     IErMin= 5 ErrMin= 5.86D-06
 ErrMax= 5.86D-06  0.00D+00 EMaxC= 1.00D-01 BMatC= 1.08D-08 BMatP= 5.71D-07
 IDIUse=1 WtCom= 1.00D+00 WtEn= 0.00D+00
 Coeff-Com:  0.809D-02-0.959D-01-0.269D-01 0.285D+00 0.829D+00
 Coeff:      0.809D-02-0.959D-01-0.269D-01 0.285D+00 0.829D+00
 Gap=     0.466 Goal=   None    Shift=    0.000
 RMSDP=1.71D-06 MaxDP=7.03D-05 DE=-5.90D-07 OVMax= 8.62D-05

 Cycle   6  Pass 1  IDiag  1:
 E= -1199.76616808922     Delta-E=       -0.000000015651 Rises=F Damp=F
 DIIS: error= 3.10D-06 at cycle   6 NSaved=   6.
 NSaved= 6 IEnMin= 6 EnMin= -1199.76616808922     IErMin= 6 ErrMin= 3.10D-06
 ErrMax= 3.10D-06  0.00D+00 EMaxC= 1.00D-01 BMatC= 3.73D-09 BMatP= 1.08D-08
 IDIUse=1 WtCom= 1.00D+00 WtEn= 0.00D+00
 Coeff-Com:  0.438D-02-0.291D-01-0.289D-01 0.236D-01 0.441D+00 0.589D+00
 Coeff:      0.438D-02-0.291D-01-0.289D-01 0.236D-01 0.441D+00 0.589D+00
 Gap=     0.466 Goal=   None    Shift=    0.000
 RMSDP=4.66D-07 MaxDP=1.22D-05 DE=-1.57D-08 OVMax= 2.24D-05

 Cycle   7  Pass 1  IDiag  1:
 E= -1199.76616809206     Delta-E=       -0.000000002840 Rises=F Damp=F
 DIIS: error= 5.76D-07 at cycle   7 NSaved=   7.
 NSaved= 7 IEnMin= 7 EnMin= -1199.76616809206     IErMin= 7 ErrMin= 5.76D-07
 ErrMax= 5.76D-07  0.00D+00 EMaxC= 1.00D-01 BMatC= 9.50D-11 BMatP= 3.73D-09
 IDIUse=1 WtCom= 1.00D+00 WtEn= 0.00D+00
 Coeff-Com: -0.125D-03 0.581D-02-0.294D-02-0.269D-01-0.843D-02 0.922D-01
 Coeff-Com:  0.940D+00
 Coeff:     -0.125D-03 0.581D-02-0.294D-02-0.269D-01-0.843D-02 0.922D-01
 Coeff:      0.940D+00
 Gap=     0.466 Goal=   None    Shift=    0.000
 RMSDP=1.70D-07 MaxDP=4.80D-06 DE=-2.84D-09 OVMax= 9.20D-06

 Cycle   8  Pass 1  IDiag  1:
 E= -1199.76616809216     Delta-E=       -0.000000000099 Rises=F Damp=F
 DIIS: error= 2.75D-07 at cycle   8 NSaved=   8.
 NSaved= 8 IEnMin= 8 EnMin= -1199.76616809216     IErMin= 8 ErrMin= 2.75D-07
 ErrMax= 2.75D-07  0.00D+00 EMaxC= 1.00D-01 BMatC= 3.95D-11 BMatP= 9.50D-11
 IDIUse=1 WtCom= 1.00D+00 WtEn= 0.00D+00
 Coeff-Com: -0.403D-03 0.549D-02 0.594D-03-0.170D-01-0.386D-01 0.649D-02
 Coeff-Com:  0.512D+00 0.532D+00
 Coeff:     -0.403D-03 0.549D-02 0.594D-03-0.170D-01-0.386D-01 0.649D-02
 Coeff:      0.512D+00 0.532D+00
 Gap=     0.466 Goal=   None    Shift=    0.000
 RMSDP=4.23D-08 MaxDP=1.20D-06 DE=-9.91D-11 OVMax= 2.04D-06

 Cycle   9  Pass 1  IDiag  1:
 E= -1199.76616809219     Delta-E=       -0.000000000027 Rises=F Damp=F
 DIIS: error= 7.15D-08 at cycle   9 NSaved=   9.
 NSaved= 9 IEnMin= 9 EnMin= -1199.76616809219     IErMin= 9 ErrMin= 7.15D-08
 ErrMax= 7.15D-08  0.00D+00 EMaxC= 1.00D-01 BMatC= 2.59D-12 BMatP= 3.95D-11
 IDIUse=1 WtCom= 1.00D+00 WtEn= 0.00D+00
 Coeff-Com: -0.149D-03 0.117D-02 0.915D-03-0.196D-02-0.151D-01-0.153D-01
 Coeff-Com:  0.141D-01 0.200D+00 0.816D+00
 Coeff:     -0.149D-03 0.117D-02 0.915D-03-0.196D-02-0.151D-01-0.153D-01
 Coeff:      0.141D-01 0.200D+00 0.816D+00
 Gap=     0.466 Goal=   None    Shift=    0.000
 RMSDP=1.58D-08 MaxDP=3.51D-07 DE=-2.73D-11 OVMax= 1.14D-06

 Cycle  10  Pass 1  IDiag  1:
 E= -1199.76616809225     Delta-E=       -0.000000000062 Rises=F Damp=F
 DIIS: error= 1.27D-08 at cycle  10 NSaved=  10.
 NSaved=10 IEnMin=10 EnMin= -1199.76616809225     IErMin=10 ErrMin= 1.27D-08
 ErrMax= 1.27D-08  0.00D+00 EMaxC= 1.00D-01 BMatC= 6.58D-14 BMatP= 2.59D-12
 IDIUse=1 WtCom= 1.00D+00 WtEn= 0.00D+00
 Coeff-Com: -0.339D-05-0.776D-04 0.100D-03 0.433D-03-0.125D-03-0.198D-02
 Coeff-Com: -0.218D-01-0.116D-02 0.100D+00 0.924D+00
 Coeff:     -0.339D-05-0.776D-04 0.100D-03 0.433D-03-0.125D-03-0.198D-02
 Coeff:     -0.218D-01-0.116D-02 0.100D+00 0.924D+00
 Gap=     0.466 Goal=   None    Shift=    0.000
 RMSDP=4.32D-09 MaxDP=1.13D-07 DE=-6.23D-11 OVMax= 2.64D-07

 SCF Done:  E(RwB97XD) =  -1199.76616809     A.U. after   10 cycles
            NFock= 10  Conv=0.43D-08     -V/T= 2.0020
 KE= 1.197375239556D+03 PE=-4.695319261443D+03 EE= 1.373485284384D+03
 Leave Link  502 at Fri May 23 03:47:14 2025, MaxMem=  3758096384 cpu:              56.9 elap:              11.7
 (Enter /apps/easybuild-2022/easybuild/software/Compiler/NVHPC/22.11-CUDA-11.7.0/Gaussian/g16c01-CUDA-11.7.0/g16/l508.exe)
 QCSCF skips out because SCF is already converged.
 Leave Link  508 at Fri May 23 03:47:14 2025, MaxMem=  3758096384 cpu:               0.1 elap:               0.0
 (Enter /apps/easybuild-2022/easybuild/software/Compiler/NVHPC/22.11-CUDA-11.7.0/Gaussian/g16c01-CUDA-11.7.0/g16/l801.exe)
 DoSCS=F DFT=T ScalE2(SS,OS)=  1.000000  1.000000
 Range of M.O.s used for correlation:     1   257
 NBasis=   257 NAE=    49 NBE=    49 NFC=     0 NFV=     0
 NROrb=    257 NOA=    49 NOB=    49 NVA=   208 NVB=   208

 **** Warning!!: The largest alpha MO coefficient is  0.40260197D+02

 Leave Link  801 at Fri May 23 03:47:14 2025, MaxMem=  3758096384 cpu:               0.1 elap:               0.1
 (Enter /apps/easybuild-2022/easybuild/software/Compiler/NVHPC/22.11-CUDA-11.7.0/Gaussian/g16c01-CUDA-11.7.0/g16/l1101.exe)
 Leave Link 1101 at Fri May 23 03:47:14 2025, MaxMem=  3758096384 cpu:               0.1 elap:               0.0
 (Enter /apps/easybuild-2022/easybuild/software/Compiler/NVHPC/22.11-CUDA-11.7.0/Gaussian/g16c01-CUDA-11.7.0/g16/l1102.exe)
 Symmetrizing basis deriv contribution to polar:
 IMax=3 JMax=2 DiffMx= 0.00D+00
 Leave Link 1102 at Fri May 23 03:47:14 2025, MaxMem=  3758096384 cpu:               0.1 elap:               0.1
 (Enter /apps/easybuild-2022/easybuild/software/Compiler/NVHPC/22.11-CUDA-11.7.0/Gaussian/g16c01-CUDA-11.7.0/g16/l1110.exe)
 Leave Link 1110 at Fri May 23 03:47:14 2025, MaxMem=  3758096384 cpu:               0.1 elap:               0.0
 (Enter /apps/easybuild-2022/easybuild/software/Compiler/NVHPC/22.11-CUDA-11.7.0/Gaussian/g16c01-CUDA-11.7.0/g16/l1002.exe)
 Minotr:  Closed shell wavefunction.
 Leave Link 1002 at Fri May 23 03:47:14 2025, MaxMem=  3758096384 cpu:               0.1 elap:               0.0
 (Enter /apps/easybuild-2022/easybuild/software/Compiler/NVHPC/22.11-CUDA-11.7.0/Gaussian/g16c01-CUDA-11.7.0/g16/l701.exe)
 ... and contract with generalized density number  0.
 Compute integral first derivatives.
 R6Disp: Adding Grimme-D2 dispersion energy 1st derivatives to the gradient.
 Leave Link  701 at Fri May 23 03:47:14 2025, MaxMem=  3758096384 cpu:               0.5 elap:               0.1
 (Enter /apps/easybuild-2022/easybuild/software/Compiler/NVHPC/22.11-CUDA-11.7.0/Gaussian/g16c01-CUDA-11.7.0/g16/l702.exe)
 L702 exits ... SP integral derivatives will be done elsewhere.
 Leave Link  702 at Fri May 23 03:47:14 2025, MaxMem=  3758096384 cpu:               0.1 elap:               0.0
 (Enter /apps/easybuild-2022/easybuild/software/Compiler/NVHPC/22.11-CUDA-11.7.0/Gaussian/g16c01-CUDA-11.7.0/g16/l703.exe)
 Integral derivatives from FoFJK, PRISM(SPDF).
 Compute integral first derivatives, UseDBF=F ICtDFT=           0.
 Calling FoFJK, ICntrl=      2127 FMM=F ISym2X=0 I1Cent= 0 IOpClX= 0 NMat=1 NMatS=1 NMatT=0.
 FoFJK:  IHMeth= 1 ICntrl=    2127 DoSepK=T KAlg= 0 I1Cent=           0 FoldK=F
 IRaf=         1 NMat=       1 IRICut=       1 DoRegI=T DoRafI=F ISym2E= 0 IDoP0=0 IntGTp=1.
 FoFCou: FMM=F IPFlag=           0 FMFlag=      100000 FMFlg1=         800
         NFxFlg=           0 DoJE=F BraDBF=F KetDBF=F FulRan=T
         wScrn=  0.000000 ICntrl=      2527 IOpCl=  0 I1Cent=           0 NGrid=           0
         NMat0=    1 NMatS0=      1 NMatT0=    0 NMatD0=    1 NMtDS0=    0 NMtDT0=    0
 Symmetry not used in FoFCou.
 Leave Link  703 at Fri May 23 03:47:19 2025, MaxMem=  3758096384 cpu:              33.9 elap:               4.6
 (Enter /apps/easybuild-2022/easybuild/software/Compiler/NVHPC/22.11-CUDA-11.7.0/Gaussian/g16c01-CUDA-11.7.0/g16/l716.exe)
 Dipole        = 2.40605790D-01-4.45138464D-01-2.75860649D-01
 Polarizability= 0.00000000D+00 0.00000000D+00 0.00000000D+00
                 0.00000000D+00 0.00000000D+00 0.00000000D+00
 -------------------------------------------------------------------
 Center     Atomic                   Forces (Hartrees/Bohr)
 Number     Number              X              Y              Z
 -------------------------------------------------------------------
      1        6           0.000194856    0.000163194   -0.000155686
      2        6          -0.000043781   -0.000266463    0.000147487
      3        9           0.000142049   -0.000074592    0.000174701
      4        9          -0.000322553   -0.000171173    0.000099017
      5       16           0.003245504    0.006780055   -0.005217429
      6        8          -0.002573842   -0.001148162   -0.004109966
      7        8          -0.000484784   -0.001020084    0.000770073
      8        8           0.003041089    0.002057425    0.003556590
      9        9          -0.000108067   -0.000061035    0.000054434
     10        9          -0.000008261   -0.000076562    0.000078910
     11        9          -0.000010720   -0.000038427    0.000010247
     12        1          -0.003071490   -0.006144175    0.004591621
 -------------------------------------------------------------------
 Cartesian Forces:  Max     0.006780055 RMS     0.002387706
 Leave Link  716 at Fri May 23 03:47:19 2025, MaxMem=  3758096384 cpu:               0.1 elap:               0.0
 (Enter /apps/easybuild-2022/easybuild/software/Compiler/NVHPC/22.11-CUDA-11.7.0/Gaussian/g16c01-CUDA-11.7.0/g16/l123.exe)
 IRC-IRC-IRC-IRC-IRC-IRC-IRC-IRC-IRC-IRC-IRC-IRC-IRC-IRC-IRC-IRC-IRC-IRC
 Pt  3 Step number   1 out of a maximum of  20
 Using modified Bulirsch-Stoer corrector integration.
   Using distance weighted interpolants to fit PES.
 PreDWI: IReCr0= 2 IReCr1= 1 IReCr2= 1 IReCr3= 1
 Modified Bulirsch-Stoer Extrapolation Cycles:
    EPS =    0.000010000000000
    Cycle     1 NS=    48
      PEZero:  N= 2 I= 1 D=  1.09D-04 Err=  1.63D-07
    Cycle     2 NS=    64 Truncation Error =  0.000000163
 BS completed in    2 cycles and     112 integration steps.
 Maximum DWI energy   std dev =  0.000000039 at pt    34
 Maximum DWI gradient std dev =  0.000578279 at pt    28
 SUMMARY OF CORRECTOR INTEGRATION:
   Predictor End Point Energy = -1199.766168
   Old End Point Energy       = -1199.766168
   Corrected End Point Energy = -1199.766168
   Predictor End-Start Dist.  =     0.020869
   Old End-Start Dist.        =     0.020869
   New End-Start Dist.        =     0.020869
   New End-Old End Dist.      =     0.000014
 CORRECTOR INTEGRATION CONVERGENCE:
   Recorrection delta-x convergence threshold:    0.010000
   Delta-x Convergence Met
 Point Number:   3          Path Number:   1
                    CURRENT STRUCTURE
                Cartesian Coordinates (Ang):                
 ---------------------------------------------------------------------
 Center     Atomic                     Coordinates (Angstroms)
 Number     Number                        X           Y           Z
 ---------------------------------------------------------------------
      1          6                    0.860377   -1.129903   -0.377128
      2          6                    0.598473    0.213462    0.366856
      3          9                    0.818020    0.038738    1.665730
      4          9                    1.418829    1.150194   -0.105741
      5         16                   -1.145781    0.892823    0.178657
      6          8                   -2.093073   -0.284652   -0.028737
      7          8                   -1.342043    1.802573    1.260232
      8          8                   -1.280736    1.356249   -1.262385
      9          9                    0.196384   -2.115278    0.205498
     10          9                    0.492215   -1.039257   -1.649655
     11          9                    2.160928   -1.393868   -0.323492
     12          1                   -2.060444    0.302001   -1.140553
 ---------------------------------------------------------------------
   CHANGE IN THE REACTION COORDINATE =    0.02087
   NET REACTION COORDINATE UP TO THIS POINT =    0.06261
  # OF POINTS ALONG THE PATH =   3
  # OF STEPS =   1

 Calculating another point on the path.
 Point Number  4 in FORWARD path direction.
 Using LQA Reaction Path Following.
   LQA: T_Est iteration completed in    3 iterations.
 IRC-IRC-IRC-IRC-IRC-IRC-IRC-IRC-IRC-IRC-IRC-IRC-IRC-IRC-IRC-IRC-IRC-IRC
 Leave Link  123 at Fri May 23 03:47:19 2025, MaxMem=  3758096384 cpu:               0.1 elap:               0.1
 (Enter /apps/easybuild-2022/easybuild/software/Compiler/NVHPC/22.11-CUDA-11.7.0/Gaussian/g16c01-CUDA-11.7.0/g16/l202.exe)
                          Input orientation:                          
 ---------------------------------------------------------------------
 Center     Atomic      Atomic             Coordinates (Angstroms)
 Number     Number       Type             X           Y           Z
 ---------------------------------------------------------------------
      1          6           0        0.860398   -1.129886   -0.377145
      2          6           0        0.598468    0.213433    0.366872
      3          9           0        0.818030    0.038733    1.665741
      4          9           0        1.418807    1.150182   -0.105734
      5         16           0       -1.145651    0.893096    0.178447
      6          8           0       -2.093280   -0.284745   -0.029067
      7          8           0       -1.342082    1.802491    1.260294
      8          8           0       -1.280490    1.356415   -1.262099
      9          9           0        0.196377   -2.115282    0.205501
     10          9           0        0.492214   -1.039262   -1.649650
     11          9           0        2.160928   -1.393871   -0.323491
     12          1           0       -2.064364    0.294158   -1.134693
 ---------------------------------------------------------------------
                    Distance matrix (angstroms):
                    1          2          3          4          5
     1  C    0.000000
     2  C    1.557778   0.000000
     3  F    2.353901   1.328830   0.000000
     4  F    2.363090   1.331845   2.175862   0.000000
     5  S    2.902648   1.881328   2.607302   2.592932   0.000000
     6  O    3.091866   2.765946   3.384190   3.794687   1.525901
     7  O    4.016336   2.662526   2.818034   3.148658   1.426877
     8  O    3.398270   2.736866   3.835664   2.943793   1.519216
     9  F    1.323407   2.368678   2.675544   3.500637   3.294254
    10  F    1.327796   2.376319   3.501435   2.834769   3.123867
    11  F    1.328136   2.345486   2.795134   2.659016   4.051619
    12  H    3.340062   3.058086   4.026893   3.731489   1.710876
                    6          7          8          9         10
     6  O    0.000000
     7  O    2.565796   0.000000
     8  O    2.207805   2.562273   0.000000
     9  F    2.940819   4.339169   4.048169   0.000000
    10  F    3.143305   4.461836   3.005320   2.164931   0.000000
    11  F    4.406260   4.999618   4.504266   2.158641   2.160798
    12  H    1.248348   2.921082   1.326303   3.565455   2.929041
                   11         12
    11  F    0.000000
    12  H    4.621751   0.000000
 Symmetry turned off by external request.
 Stoichiometry    C2HF5O3S
 Rotational constants (GHZ):           1.5610662           0.8542744           0.7713178
 Leave Link  202 at Fri May 23 03:47:19 2025, MaxMem=  3758096384 cpu:               0.1 elap:               0.0
 (Enter /apps/easybuild-2022/easybuild/software/Compiler/NVHPC/22.11-CUDA-11.7.0/Gaussian/g16c01-CUDA-11.7.0/g16/l301.exe)
 Standard basis: 6-311++G(d,p) (5D, 7F)
 Ernie: Thresh=  0.10000D-02 Tol=  0.10000D-05 Strict=F.
   257 basis functions,   419 primitive gaussians,   268 cartesian basis functions
    49 alpha electrons       49 beta electrons
       nuclear repulsion energy       924.6995162518 Hartrees.
 IExCor= 4639 DFT=T Ex+Corr=wB97XD ExCW=0 ScaHFX=  1.000000
 ScaDFX=  1.000000  1.000000  1.000000  1.000000 ScalE2=  1.000000  1.000000
 IRadAn=      5 IRanWt=     -1 IRanGd=            0 ICorTp=0 IEmpDi=121
 HFx  wShort=  0.000000 wLong=  0.200000 cFull=  0.222036 cShort=  0.000000 cLong=  0.777964
 DFx  wShort=  0.000000 wLong=  0.200000 cFull=  0.000000 cShort=  0.000000 cLong=  1.000000
 NAtoms=   12 NActive=   12 NUniq=   12 SFac= 1.00D+00 NAtFMM=   60 NAOKFM=F Big=F
 Integral buffers will be    131072 words long.
 Raffenetti 2 integral format.
 Two-electron integral symmetry is turned off.
 R6Disp:  Grimme-D2 Dispersion energy=       -0.0056636609 Hartrees.
[...]

 Cycle   5  Pass 1  IDiag  1:
 E= -1199.81707214460     Delta-E=       -0.000000004494 Rises=F Damp=F
 DIIS: error= 1.66D-06 at cycle   5 NSaved=   5.
 NSaved= 5 IEnMin= 5 EnMin= -1199.81707214460     IErMin= 5 ErrMin= 1.66D-06
 ErrMax= 1.66D-06  0.00D+00 EMaxC= 1.00D-01 BMatC= 1.71D-09 BMatP= 4.35D-09
 IDIUse=1 WtCom= 1.00D+00 WtEn= 0.00D+00
 Coeff-Com:  0.290D-02-0.469D-01-0.130D-01 0.502D+00 0.555D+00
 Coeff:      0.290D-02-0.469D-01-0.130D-01 0.502D+00 0.555D+00
 Gap=     0.466 Goal=   None    Shift=    0.000
 RMSDP=3.81D-07 MaxDP=2.11D-05 DE=-4.49D-09 OVMax= 9.15D-06

 Cycle   6  Pass 1  IDiag  1:
 E= -1199.81707214579     Delta-E=       -0.000000001186 Rises=F Damp=F
 DIIS: error= 5.57D-07 at cycle   6 NSaved=   6.
 NSaved= 6 IEnMin= 6 EnMin= -1199.81707214579     IErMin= 6 ErrMin= 5.57D-07
 ErrMax= 5.57D-07  0.00D+00 EMaxC= 1.00D-01 BMatC= 1.04D-10 BMatP= 1.71D-09
 IDIUse=1 WtCom= 1.00D+00 WtEn= 0.00D+00
 Coeff-Com:  0.269D-02-0.199D-01-0.163D-01 0.471D-01 0.210D+00 0.776D+00
 Coeff:      0.269D-02-0.199D-01-0.163D-01 0.471D-01 0.210D+00 0.776D+00
 Gap=     0.466 Goal=   None    Shift=    0.000
 RMSDP=1.06D-07 MaxDP=4.52D-06 DE=-1.19D-09 OVMax= 3.30D-06

 Cycle   7  Pass 1  IDiag  1:
 E= -1199.81707214585     Delta-E=       -0.000000000061 Rises=F Damp=F
 DIIS: error= 1.27D-07 at cycle   7 NSaved=   7.
 NSaved= 7 IEnMin= 7 EnMin= -1199.81707214585     IErMin= 7 ErrMin= 1.27D-07
 ErrMax= 1.27D-07  0.00D+00 EMaxC= 1.00D-01 BMatC= 9.21D-12 BMatP= 1.04D-10
 IDIUse=1 WtCom= 1.00D+00 WtEn= 0.00D+00
 Coeff-Com:  0.961D-03-0.536D-02-0.598D-02-0.925D-02 0.495D-01 0.301D+00
 Coeff-Com:  0.669D+00
 Coeff:      0.961D-03-0.536D-02-0.598D-02-0.925D-02 0.495D-01 0.301D+00
 Coeff:      0.669D+00
 Gap=     0.466 Goal=   None    Shift=    0.000
 RMSDP=3.93D-08 MaxDP=2.45D-06 DE=-6.14D-11 OVMax= 9.97D-07

 Cycle   8  Pass 1  IDiag  1:
 E= -1199.81707214590     Delta-E=       -0.000000000044 Rises=F Damp=F
 DIIS: error= 7.25D-08 at cycle   8 NSaved=   8.
 NSaved= 8 IEnMin= 8 EnMin= -1199.81707214590     IErMin= 8 ErrMin= 7.25D-08
 ErrMax= 7.25D-08  0.00D+00 EMaxC= 1.00D-01 BMatC= 1.56D-12 BMatP= 9.21D-12
 IDIUse=1 WtCom= 1.00D+00 WtEn= 0.00D+00
 Coeff-Com: -0.131D-03 0.171D-02 0.790D-03-0.119D-01-0.216D-01-0.318D-01
 Coeff-Com:  0.283D+00 0.780D+00
 Coeff:     -0.131D-03 0.171D-02 0.790D-03-0.119D-01-0.216D-01-0.318D-01
 Coeff:      0.283D+00 0.780D+00
 Gap=     0.466 Goal=   None    Shift=    0.000
 RMSDP=1.59D-08 MaxDP=4.93D-07 DE=-4.41D-11 OVMax= 4.98D-07

 Cycle   9  Pass 1  IDiag  1:
 E= -1199.81707214586     Delta-E=        0.000000000037 Rises=F Damp=F
 DIIS: error= 1.22D-08 at cycle   9 NSaved=   9.
 NSaved= 9 IEnMin= 8 EnMin= -1199.81707214590     IErMin= 9 ErrMin= 1.22D-08
 ErrMax= 1.22D-08  0.00D+00 EMaxC= 1.00D-01 BMatC= 7.79D-14 BMatP= 1.56D-12
 IDIUse=1 WtCom= 1.00D+00 WtEn= 0.00D+00
 Coeff-Com: -0.938D-04 0.790D-03 0.615D-03-0.250D-02-0.949D-02-0.289D-01
 Coeff-Com:  0.342D-01 0.231D+00 0.775D+00
 Coeff:     -0.938D-04 0.790D-03 0.615D-03-0.250D-02-0.949D-02-0.289D-01
 Coeff:      0.342D-01 0.231D+00 0.775D+00
 Gap=     0.466 Goal=   None    Shift=    0.000
 RMSDP=3.93D-09 MaxDP=1.15D-07 DE= 3.73D-11 OVMax= 1.29D-07

 SCF Done:  E(RwB97XD) =  -1199.81707215     A.U. after    9 cycles
            NFock=  9  Conv=0.39D-08     -V/T= 2.0020
 KE= 1.197425360774D+03 PE=-4.691302429714D+03 EE= 1.371627418410D+03
 Leave Link  502 at Fri May 23 04:15:21 2025, MaxMem=  3758096384 cpu:              53.1 elap:              10.4
 (Enter /apps/easybuild-2022/easybuild/software/Compiler/NVHPC/22.11-CUDA-11.7.0/Gaussian/g16c01-CUDA-11.7.0/g16/l508.exe)
 QCSCF skips out because SCF is already converged.
 Leave Link  508 at Fri May 23 04:15:21 2025, MaxMem=  3758096384 cpu:               0.1 elap:               0.0
 (Enter /apps/easybuild-2022/easybuild/software/Compiler/NVHPC/22.11-CUDA-11.7.0/Gaussian/g16c01-CUDA-11.7.0/g16/l801.exe)
 DoSCS=F DFT=T ScalE2(SS,OS)=  1.000000  1.000000
 Range of M.O.s used for correlation:     1   257
 NBasis=   257 NAE=    49 NBE=    49 NFC=     0 NFV=     0
 NROrb=    257 NOA=    49 NOB=    49 NVA=   208 NVB=   208

 **** Warning!!: The largest alpha MO coefficient is  0.39592640D+02

 Leave Link  801 at Fri May 23 04:15:21 2025, MaxMem=  3758096384 cpu:               0.1 elap:               0.0
 (Enter /apps/easybuild-2022/easybuild/software/Compiler/NVHPC/22.11-CUDA-11.7.0/Gaussian/g16c01-CUDA-11.7.0/g16/l1101.exe)
 Leave Link 1101 at Fri May 23 04:15:21 2025, MaxMem=  3758096384 cpu:               0.1 elap:               0.0
 (Enter /apps/easybuild-2022/easybuild/software/Compiler/NVHPC/22.11-CUDA-11.7.0/Gaussian/g16c01-CUDA-11.7.0/g16/l1102.exe)
 Symmetrizing basis deriv contribution to polar:
 IMax=3 JMax=2 DiffMx= 0.00D+00
 Leave Link 1102 at Fri May 23 04:15:21 2025, MaxMem=  3758096384 cpu:               0.1 elap:               0.0
 (Enter /apps/easybuild-2022/easybuild/software/Compiler/NVHPC/22.11-CUDA-11.7.0/Gaussian/g16c01-CUDA-11.7.0/g16/l1110.exe)
 Leave Link 1110 at Fri May 23 04:15:21 2025, MaxMem=  3758096384 cpu:               0.1 elap:               0.0
 (Enter /apps/easybuild-2022/easybuild/software/Compiler/NVHPC/22.11-CUDA-11.7.0/Gaussian/g16c01-CUDA-11.7.0/g16/l1002.exe)
 Minotr:  Closed shell wavefunction.
 Leave Link 1002 at Fri May 23 04:15:21 2025, MaxMem=  3758096384 cpu:               0.0 elap:               0.0
 (Enter /apps/easybuild-2022/easybuild/software/Compiler/NVHPC/22.11-CUDA-11.7.0/Gaussian/g16c01-CUDA-11.7.0/g16/l701.exe)
 ... and contract with generalized density number  0.
 Compute integral first derivatives.
 R6Disp: Adding Grimme-D2 dispersion energy 1st derivatives to the gradient.
 Leave Link  701 at Fri May 23 04:15:21 2025, MaxMem=  3758096384 cpu:               0.5 elap:               0.1
 (Enter /apps/easybuild-2022/easybuild/software/Compiler/NVHPC/22.11-CUDA-11.7.0/Gaussian/g16c01-CUDA-11.7.0/g16/l702.exe)
 L702 exits ... SP integral derivatives will be done elsewhere.
 Leave Link  702 at Fri May 23 04:15:21 2025, MaxMem=  3758096384 cpu:               0.1 elap:               0.0
 (Enter /apps/easybuild-2022/easybuild/software/Compiler/NVHPC/22.11-CUDA-11.7.0/Gaussian/g16c01-CUDA-11.7.0/g16/l703.exe)
 Integral derivatives from FoFJK, PRISM(SPDF).
 Compute integral first derivatives, UseDBF=F ICtDFT=           0.
 Calling FoFJK, ICntrl=      2127 FMM=F ISym2X=0 I1Cent= 0 IOpClX= 0 NMat=1 NMatS=1 NMatT=0.
 FoFJK:  IHMeth= 1 ICntrl=    2127 DoSepK=T KAlg= 0 I1Cent=           0 FoldK=F
 IRaf=         1 NMat=       1 IRICut=       1 DoRegI=T DoRafI=F ISym2E= 0 IDoP0=0 IntGTp=1.
 FoFCou: FMM=F IPFlag=           0 FMFlag=      100000 FMFlg1=         800
         NFxFlg=           0 DoJE=F BraDBF=F KetDBF=F FulRan=T
         wScrn=  0.000000 ICntrl=      2527 IOpCl=  0 I1Cent=           0 NGrid=           0
         NMat0=    1 NMatS0=      1 NMatT0=    0 NMatD0=    1 NMtDS0=    0 NMtDT0=    0
 Symmetry not used in FoFCou.
 Leave Link  703 at Fri May 23 04:15:25 2025, MaxMem=  3758096384 cpu:              33.4 elap:               4.3
 (Enter /apps/easybuild-2022/easybuild/software/Compiler/NVHPC/22.11-CUDA-11.7.0/Gaussian/g16c01-CUDA-11.7.0/g16/l716.exe)
 Dipole        =-1.24178743D-01-8.19688174D-01-3.59464621D-01
 Polarizability= 0.00000000D+00 0.00000000D+00 0.00000000D+00
                 0.00000000D+00 0.00000000D+00 0.00000000D+00
 -------------------------------------------------------------------
 Center     Atomic                   Forces (Hartrees/Bohr)
 Number     Number              X              Y              Z
 -------------------------------------------------------------------
      1        6           0.000094299   -0.000129783    0.000552653
      2        6          -0.001699587   -0.000416641   -0.000656865
      3        9          -0.001811809   -0.000316576   -0.000635550
      4        9          -0.000899612   -0.001085912    0.000381883
      5       16          -0.002683476    0.007576340   -0.018888365
      6        8           0.000725740   -0.006733621    0.020805221
      7        8          -0.004489194   -0.010376747   -0.000511520
      8        8           0.011723978    0.016118057   -0.002484168
      9        9           0.000017117   -0.000684134   -0.000204659
     10        9          -0.000164813   -0.000294397    0.000147780
     11        9           0.000184709   -0.000408861   -0.000150057
     12        1          -0.000997352   -0.003247725    0.001643648
 -------------------------------------------------------------------
 Cartesian Forces:  Max     0.020805221 RMS     0.006360607
 Leave Link  716 at Fri May 23 04:15:25 2025, MaxMem=  3758096384 cpu:               0.1 elap:               0.0
 (Enter /apps/easybuild-2022/easybuild/software/Compiler/NVHPC/22.11-CUDA-11.7.0/Gaussian/g16c01-CUDA-11.7.0/g16/l123.exe)
 IRC-IRC-IRC-IRC-IRC-IRC-IRC-IRC-IRC-IRC-IRC-IRC-IRC-IRC-IRC-IRC-IRC-IRC
 Pt100 Step number   1 out of a maximum of  20
 Using modified Bulirsch-Stoer corrector integration.
   Using distance weighted interpolants to fit PES.
 PreDWI: IReCr0= 2 IReCr1= 1 IReCr2= 1 IReCr3= 1
 Modified Bulirsch-Stoer Extrapolation Cycles:
    EPS =    0.000010000000000
    Cycle     1 NS=    48
      PEZero:  N= 2 I= 1 D=  1.09D-04 Err=  7.82D-07
    Cycle     2 NS=    64 Truncation Error =  0.000000782
 BS completed in    2 cycles and     112 integration steps.
 Maximum DWI energy   std dev =  0.000000001 at pt    47
 Maximum DWI gradient std dev =  0.000319369 at pt    29
 SUMMARY OF CORRECTOR INTEGRATION:
   Predictor End Point Energy = -1199.817072
   Old End Point Energy       = -1199.817072
   Corrected End Point Energy = -1199.817072
   Predictor End-Start Dist.  =     0.020870
   Old End-Start Dist.        =     0.020870
   New End-Start Dist.        =     0.020870
   New End-Old End Dist.      =     0.000008
 CORRECTOR INTEGRATION CONVERGENCE:
   Recorrection delta-x convergence threshold:    0.010000
   Delta-x Convergence Met
 Point Number: 100          Path Number:   1
                    CURRENT STRUCTURE
                Cartesian Coordinates (Ang):                
 ---------------------------------------------------------------------
 Center     Atomic                     Coordinates (Angstroms)
 Number     Number                        X           Y           Z
 ---------------------------------------------------------------------
      1          6                    0.862445   -1.128495   -0.376061
      2          6                    0.592410    0.207593    0.368318
      3          9                    0.817429    0.037386    1.666714
      4          9                    1.414344    1.146910   -0.104054
      5         16                   -1.139693    0.932792    0.123813
      6          8                   -2.116834   -0.333931    0.024495
      7          8                   -1.354649    1.767822    1.266064
      8          8                   -1.224618    1.411955   -1.232299
      9          9                    0.195656   -2.116327    0.205316
     10          9                    0.491972   -1.040291   -1.649169
     11          9                    2.161625   -1.394972   -0.323841
     12          1                   -2.418652   -0.315861   -0.895182
 ---------------------------------------------------------------------
   CHANGE IN THE REACTION COORDINATE =    0.02087
   NET REACTION COORDINATE UP TO THIS POINT =    2.08699
  # OF POINTS ALONG THE PATH = 100
  # OF STEPS =   1

 Maximum number of steps reached.
 Calculation of FORWARD path complete.
 Reaction path calculation complete.
 
 Energies reported relative to the TS energy of       -1199.765898
 --------------------------------------------------------------------------
    Summary of reaction path following
 --------------------------------------------------------------------------
                        Energy    RxCoord
   1                    0.00000   0.00000
   2                   -0.00003   0.02087
   3                   -0.00012   0.04174
   4                   -0.00027   0.06261
   5                   -0.00048   0.08348
   6                   -0.00075   0.10435
   7                   -0.00107   0.12522
   8                   -0.00145   0.14609
   9                   -0.00189   0.16696
  10                   -0.00238   0.18783
  11                   -0.00292   0.20870
  12                   -0.00350   0.22957
  13                   -0.00413   0.25044
  14                   -0.00480   0.27131
  15                   -0.00552   0.29218
  16                   -0.00627   0.31305
  17                   -0.00705   0.33392
  18                   -0.00786   0.35479
  19                   -0.00870   0.37566
  20                   -0.00956   0.39653
  21                   -0.01043   0.41740
  22                   -0.01132   0.43827
  23                   -0.01222   0.45914
  24                   -0.01313   0.48001
  25                   -0.01404   0.50088
  26                   -0.01496   0.52175
  27                   -0.01586   0.54262
  28                   -0.01677   0.56349
  29                   -0.01766   0.58436
  30                   -0.01855   0.60523
  31                   -0.01942   0.62610
  32                   -0.02027   0.64697
  33                   -0.02112   0.66783
  34                   -0.02195   0.68870
  35                   -0.02276   0.70957
  36                   -0.02355   0.73044
  37                   -0.02433   0.75131
  38                   -0.02510   0.77218
  39                   -0.02584   0.79305
  40                   -0.02658   0.81392
  41                   -0.02729   0.83479
  42                   -0.02800   0.85566
  43                   -0.02869   0.87653
  44                   -0.02936   0.89740
  45                   -0.03002   0.91827
  46                   -0.03066   0.93914
  47                   -0.03130   0.96001
  48                   -0.03192   0.98088
  49                   -0.03252   1.00175
  50                   -0.03311   1.02262
  51                   -0.03369   1.04349
  52                   -0.03426   1.06436
  53                   -0.03482   1.08523
  54                   -0.03536   1.10610
  55                   -0.03589   1.12697
  56                   -0.03641   1.14784
  57                   -0.03692   1.16871
  58                   -0.03742   1.18958
  59                   -0.03791   1.21045
  60                   -0.03838   1.23132
  61                   -0.03885   1.25219
  62                   -0.03930   1.27306
  63                   -0.03975   1.29393
  64                   -0.04019   1.31480
  65                   -0.04061   1.33567
  66                   -0.04103   1.35654
  67                   -0.04144   1.37741
  68                   -0.04183   1.39828
  69                   -0.04222   1.41915
  70                   -0.04260   1.44002
  71                   -0.04298   1.46089
  72                   -0.04334   1.48176
  73                   -0.04370   1.50263
  74                   -0.04405   1.52350
  75                   -0.04439   1.54437
  76                   -0.04472   1.56524
  77                   -0.04505   1.58611
  78                   -0.04537   1.60698
  79                   -0.04568   1.62785
  80                   -0.04599   1.64872
  81                   -0.04629   1.66959
  82                   -0.04658   1.69046
  83                   -0.04687   1.71133
  84                   -0.04715   1.73220
  85                   -0.04743   1.75307
  86                   -0.04770   1.77394
  87                   -0.04796   1.79481
  88                   -0.04822   1.81568
  89                   -0.04848   1.83655
  90                   -0.04873   1.85742
  91                   -0.04897   1.87829
  92                   -0.04921   1.89916
  93                   -0.04945   1.92003
  94                   -0.04968   1.94090
  95                   -0.04991   1.96177
  96                   -0.05013   1.98264
  97                   -0.05035   2.00351
  98                   -0.05056   2.02438
  99                   -0.05077   2.04525
 100                   -0.05097   2.06612
 101                   -0.05117   2.08699
 --------------------------------------------------------------------------
 
 Total number of points:                  100
 Total number of gradient calculations:   100
 Total number of Hessian calculations:      0
 IRC-IRC-IRC-IRC-IRC-IRC-IRC-IRC-IRC-IRC-IRC-IRC-IRC-IRC-IRC-IRC-IRC-IRC
 Leave Link  123 at Fri May 23 04:15:25 2025, MaxMem=  3758096384 cpu:               0.1 elap:               0.0
 (Enter /apps/easybuild-2022/easybuild/software/Compiler/NVHPC/22.11-CUDA-11.7.0/Gaussian/g16c01-CUDA-11.7.0/g16/l202.exe)
                          Input orientation:                          
 ---------------------------------------------------------------------
 Center     Atomic      Atomic             Coordinates (Angstroms)
 Number     Number       Type             X           Y           Z
 ---------------------------------------------------------------------
      1          6           0        0.862445   -1.128495   -0.376061
      2          6           0        0.592410    0.207593    0.368318
      3          9           0        0.817429    0.037386    1.666714
      4          9           0        1.414344    1.146910   -0.104054
      5         16           0       -1.139693    0.932792    0.123813
      6          8           0       -2.116834   -0.333931    0.024495
      7          8           0       -1.354649    1.767822    1.266064
      8          8           0       -1.224618    1.411955   -1.232299
      9          9           0        0.195656   -2.116327    0.205316
     10          9           0        0.491972   -1.040291   -1.649169
     11          9           0        2.161625   -1.394972   -0.323841
     12          1           0       -2.418654   -0.315861   -0.895185
 ---------------------------------------------------------------------
                    Distance matrix (angstroms):
                    1          2          3          4          5
     1  C    0.000000
     2  C    1.553109   0.000000
     3  F    2.352495   1.328697   0.000000
     4  F    2.357127   1.334552   2.173239   0.000000
     5  S    2.916733   1.893641   2.648135   2.573105   0.000000
     6  O    3.109321   2.784145   3.382996   3.831270   1.602890
     7  O    4.000091   2.651660   2.805860   3.151202   1.431160
     8  O    3.397479   2.704450   3.803113   2.882239   1.440781
     9  F    1.326054   2.363172   2.675961   3.497088   3.329703
    10  F    1.328847   2.374353   3.501769   2.832313   3.114297
    11  F    1.327255   2.347283   2.796573   2.658553   4.064183
    12  H    3.419864   3.307106   4.142505   4.178213   2.057482
                    6          7          8          9         10
     6  O    0.000000
     7  O    2.557301   0.000000
     8  O    2.328884   2.526928   0.000000
     9  F    2.925276   4.314539   4.066041   0.000000
    10  F    3.178987   4.449055   3.022246   2.164433   0.000000
    11  F    4.421805   4.989514   4.491189   2.159952   2.161026
    12  H    0.968108   3.185097   2.127139   3.359672   3.092739
                   11         12
    11  F    0.000000
    12  H    4.740240   0.000000
 Symmetry turned off by external request.
 Stoichiometry    C2HF5O3S
 Rotational constants (GHZ):           1.5502148           0.8494624           0.7729432
 Leave Link  202 at Fri May 23 04:15:25 2025, MaxMem=  3758096384 cpu:               0.0 elap:               0.0
 (Enter /apps/easybuild-2022/easybuild/software/Compiler/NVHPC/22.11-CUDA-11.7.0/Gaussian/g16c01-CUDA-11.7.0/g16/l9999.exe)

 This type of calculation cannot be archived.


 RESEARCH IS WHAT I AM DOING WHEN I DON'T KNOW WHAT I AM DOING.
     -- WERNER VON BRAUN
 Job cpu time:       0 days  2 hours 40 minutes 44.7 seconds.
 Elapsed time:       0 days  0 hours 28 minutes 44.5 seconds.
 File lengths (MBytes):  RWF=     31 Int=      0 D2E=      0 Chk=      8 Scr=      1
 Normal termination of Gaussian 16 at Fri May 23 04:15:25 2025.
done
