 Entering Gaussian System, Link 0=g16
 Initial command:
 /apps/easybuild-2022/easybuild/software/Compiler/NVHPC/22.11-CUDA-11.7.0/Gaussian/g16c01-CUDA-11.7.0/g16/l1.exe "/tmp/Gau-144722.inp" -scrdir="/tmp/"
 Entering Link 1 = /apps/easybuild-2022/easybuild/software/Compiler/NVHPC/22.11-CUDA-11.7.0/Gaussian/g16c01-CUDA-11.7.0/g16/l1.exe PID=    144723.
  
 Copyright (c) 1988-2019, Gaussian, Inc.  All Rights Reserved.
  
 This is part of the Gaussian(R) 16 program.  It is based on
 the Gaussian(R) 09 system (copyright 2009, Gaussian, Inc.),
 the Gaussian(R) 03 system (copyright 2003, Gaussian, Inc.),
 the Gaussian(R) 98 system (copyright 1998, Gaussian, Inc.),
 the Gaussian(R) 94 system (copyright 1995, Gaussian, Inc.),
 the Gaussian 92(TM) system (copyright 1992, Gaussian, Inc.),
 the Gaussian 90(TM) system (copyright 1990, Gaussian, Inc.),
 the Gaussian 88(TM) system (copyright 1988, Gaussian, Inc.),
 the Gaussian 86(TM) system (copyright 1986, Carnegie Mellon
 University), and the Gaussian 82(TM) system (copyright 1983,
 Carnegie Mellon University). Gaussian is a federally registered
 trademark of Gaussian, Inc.
  
 This software contains proprietary and confidential information,
 including trade secrets, belonging to Gaussian, Inc.
  
 This software is provided under written license and may be
 used, copied, transmitted, or stored only in accord with that
 written license.
  
 The following legend is applicable only to US Government
 contracts under FAR:
  
                    RESTRICTED RIGHTS LEGEND
  
 Use, reproduction and disclosure by the US Government is
 subject to restrictions as set forth in subparagraphs (a)
 and (c) of the Commercial Computer Software - Restricted
 Rights clause in FAR 52.227-19.
  
 Gaussian, Inc.
 340 Quinnipiac St., Bldg. 40, Wallingford CT 06492
  
  
 ---------------------------------------------------------------
 Warning -- This program may not be used in any manner that
 competes with the business of Gaussian, Inc. or will provide
 assistance to any competitor of Gaussian, Inc.  The licensee
 of this program is prohibited from giving any competitor of
 Gaussian, Inc. access to this program.  By using this program,
 the user acknowledges that Gaussian, Inc. is engaged in the
 business of creating and licensing software in the field of
 computational chemistry and represents and warrants to the
 licensee that it is not a competitor of Gaussian, Inc. and that
 it will not use this program in any manner prohibited above.
 ---------------------------------------------------------------
  

 Cite this work as:
 Gaussian 16, Revision C.01,
 M. J. Frisch, G. W. Trucks, H. B. Schlegel, G. E. Scuseria, 
 M. A. Robb, J. R. Cheeseman, G. Scalmani, V. Barone, 
 G. A. Petersson, H. Nakatsuji, X. Li, M. Caricato, A. V. Marenich, 
 J. Bloino, B. G. Janesko, R. Gomperts, B. Mennucci, H. P. Hratchian, 
 J. V. Ortiz, A. F. Izmaylov, J. L. Sonnenberg, D. Williams-Young, 
 F. Ding, F. Lipparini, F. Egidi, J. Goings, B. Peng, A. Petrone, 
 T. Henderson, D. Ranasinghe, V. G. Zakrzewski, J. Gao, N. Rega, 
 G. Zheng, W. Liang, M. Hada, M. Ehara, K. Toyota, R. Fukuda, 
 J. Hasegawa, M. Ishida, T. Nakajima, Y. Honda, O. Kitao, H. Nakai, 
 T. Vreven, K. Throssell, J. A. Montgomery, Jr., J. E. Peralta, 
 F. Ogliaro, M. J. Bearpark, J. J. Heyd, E. N. Brothers, K. N. Kudin, 
 V. N. Staroverov, T. A. Keith, R. Kobayashi, J. Normand, 
 K. Raghavachari, A. P. Rendell, J. C. Burant, S. S. Iyengar, 
 J. Tomasi, M. Cossi, J. M. Millam, M. Klene, C. Adamo, R. Cammi, 
 J. W. Ochterski, R. L. Martin, K. Morokuma, O. Farkas, 
 J. B. Foresman, and D. J. Fox, Gaussian, Inc., Wallingford CT, 2019.
 
 ******************************************
 Gaussian 16:  ES64L-G16RevC.01  3-Jul-2019
                23-May-2025 
 ******************************************
 %mem=28GB
 %chk=2003846667223680600001_r12_insertion_R_9_1_2_IRC_F_prod
 %nprocshared=8
 Will use up to    8 processors via shared memory.
 ----------------------------------------------------------------------
 #P wb97xd/6-311++G(d,p) Symm(None) scf(xqc) pop(None) freq opt(CalcFC)
 ----------------------------------------------------------------------
 1/10=4,18=20,19=15,26=3,38=1/1,3;
 2/9=110,12=2,15=3,17=6,18=5,40=1/2;
 3/5=4,6=6,7=1111,11=2,25=1,30=1,71=2,74=-58,140=1/1,2,3;
 4//1;
 5/5=2,8=3,13=1,38=5/2,8;
 8/6=4,10=90,11=11/1;
 11/6=1,8=1,9=11,15=111,16=1,31=1/1,2,10;
 10/6=1,13=1,31=1/2;
 7/10=1,25=1,30=1/1,2,3,16;
 1/10=4,18=20,19=15,26=3/3(2);
 2/9=110,15=3/2;
 99//99;
 2/9=110,15=3/2;
 3/5=4,6=6,7=1111,11=2,25=1,30=1,71=1,74=-58/1,2,3;
 4/5=5,16=3,69=1/1;
 5/5=2,8=3,13=1,38=5/2,8;
 7/30=1/1,2,3,16;
 1/18=20,19=15,26=3/3(-5);
 2/9=110,15=3/2;
 99/9=1/99;
 Leave Link    1 at Fri May 23 04:15:58 2025, MaxMem=  3758096384 cpu:               0.1 elap:               0.1
 (Enter /apps/easybuild-2022/easybuild/software/Compiler/NVHPC/22.11-CUDA-11.7.0/Gaussian/g16c01-CUDA-11.7.0/g16/l101.exe)
 ------------------------------
 Gaussian input prepared by ASE
 ------------------------------
 Symbolic Z-matrix:
 Charge =  0 Multiplicity = 1
 C                    -2.79066  -0.0168    0.20213 
 C                    -0.00274   0.21191  -0.20324 
 F                    -0.47852  -0.20714  -1.36644 
 F                    -0.36449   1.46006   0.00754 
 S                     1.80649   0.00495  -0.15254 
 O                     2.24592   0.63084   1.05173 
 O                     2.04968  -1.36905  -0.48959 
 O                     2.20644   0.94699  -1.38347 
 F                    -0.43676  -0.56773   0.78428 
 F                    -2.77191   0.3015    1.46171 
 F                    -2.81904  -1.31665   0.17819 
 H                     2.27843   0.4263   -2.19415 
 
 Add virtual bond connecting atoms F9         and C1         Dist= 4.70D+00.
 Add virtual bond connecting atoms F9         and F10        Dist= 4.88D+00.
 Add virtual bond connecting atoms F9         and F11        Dist= 4.86D+00.
 Add atom      1 valence  3 ND=      0 dihedral       9      1     10     11
 ITRead=  0  0  0  0  0  0  0  0  0  0  0  0
 MicOpt= -1 -1 -1 -1 -1 -1 -1 -1 -1 -1 -1 -1
 NAtoms=     12 NQM=       12 NQMF=       0 NMMI=      0 NMMIF=      0
                NMic=       0 NMicF=      0.
                    Isotopes and Nuclear Properties:
 (Nuclear quadrupole moments (NQMom) in fm**2, nuclear magnetic moments (NMagM)
  in nuclear magnetons)

  Atom         1           2           3           4           5           6           7           8           9          10
 IAtWgt=          12          12          19          19          32          16          16          16          19          19
 AtmWgt=  12.0000000  12.0000000  18.9984032  18.9984032  31.9720718  15.9949146  15.9949146  15.9949146  18.9984032  18.9984032
 NucSpn=           0           0           1           1           0           0           0           0           1           1
 AtZEff=  -0.0000000  -0.0000000  -0.0000000  -0.0000000  -0.0000000  -0.0000000  -0.0000000  -0.0000000  -0.0000000  -0.0000000
 NQMom=    0.0000000   0.0000000   0.0000000   0.0000000   0.0000000   0.0000000   0.0000000   0.0000000   0.0000000   0.0000000
 NMagM=    0.0000000   0.0000000   2.6288670   2.6288670   0.0000000   0.0000000   0.0000000   0.0000000   2.6288670   2.6288670
 AtZNuc=   6.0000000   6.0000000   9.0000000   9.0000000  16.0000000   8.0000000   8.0000000   8.0000000   9.0000000   9.0000000

  Atom        11          12
 IAtWgt=          19           1
 AtmWgt=  18.9984032   1.0078250
 NucSpn=           1           1
 AtZEff=  -0.0000000  -0.0000000
 NQMom=    0.0000000   0.0000000
 NMagM=    2.6288670   2.7928460
 AtZNuc=   9.0000000   1.0000000
 Leave Link  101 at Fri May 23 04:15:58 2025, MaxMem=  3758096384 cpu:               0.3 elap:               0.3
 (Enter /apps/easybuild-2022/easybuild/software/Compiler/NVHPC/22.11-CUDA-11.7.0/Gaussian/g16c01-CUDA-11.7.0/g16/l103.exe)

 GradGradGradGradGradGradGradGradGradGradGradGradGradGradGradGradGradGrad
 Berny optimization.
 Initialization pass.
                           ----------------------------
                           !    Initial Parameters    !
                           ! (Angstroms and Degrees)  !
 --------------------------                            --------------------------
 ! Name  Definition              Value          Derivative Info.                !
 --------------------------------------------------------------------------------
 ! R1    R(1,9)                  2.4866         calculate D2E/DX2 analytically  !
 ! R2    R(1,10)                 1.2993         calculate D2E/DX2 analytically  !
 ! R3    R(1,11)                 1.3004         calculate D2E/DX2 analytically  !
 ! R4    R(2,3)                  1.3248         calculate D2E/DX2 analytically  !
 ! R5    R(2,4)                  1.3165         calculate D2E/DX2 analytically  !
 ! R6    R(2,5)                  1.8217         calculate D2E/DX2 analytically  !
 ! R7    R(2,9)                  1.3309         calculate D2E/DX2 analytically  !
 ! R8    R(5,6)                  1.4266         calculate D2E/DX2 analytically  !
 ! R9    R(5,7)                  1.4355         calculate D2E/DX2 analytically  !
 ! R10   R(5,8)                  1.6008         calculate D2E/DX2 analytically  !
 ! R11   R(8,12)                 0.9662         calculate D2E/DX2 analytically  !
 ! R12   R(9,10)                 2.5821         calculate D2E/DX2 analytically  !
 ! R13   R(9,11)                 2.5697         calculate D2E/DX2 analytically  !
 ! A1    A(10,1,11)            105.2502         calculate D2E/DX2 analytically  !
 ! A2    A(3,2,4)              109.9856         calculate D2E/DX2 analytically  !
 ! A3    A(3,2,5)              110.1929         calculate D2E/DX2 analytically  !
 ! A4    A(3,2,9)              110.4304         calculate D2E/DX2 analytically  !
 ! A5    A(4,2,5)              112.0953         calculate D2E/DX2 analytically  !
 ! A6    A(4,2,9)              110.302          calculate D2E/DX2 analytically  !
 ! A7    A(5,2,9)              103.6901         calculate D2E/DX2 analytically  !
 ! A8    A(2,5,6)              106.2346         calculate D2E/DX2 analytically  !
 ! A9    A(2,5,7)              105.6915         calculate D2E/DX2 analytically  !
 ! A10   A(2,5,8)               99.1994         calculate D2E/DX2 analytically  !
 ! A11   A(6,5,7)              124.4702         calculate D2E/DX2 analytically  !
 ! A12   A(6,5,8)              108.2985         calculate D2E/DX2 analytically  !
 ! A13   A(7,5,8)              109.9008         calculate D2E/DX2 analytically  !
 ! A14   A(5,8,12)             110.2834         calculate D2E/DX2 analytically  !
 ! A15   A(1,9,2)               90.2985         calculate D2E/DX2 analytically  !
 ! A16   A(2,9,10)             107.0005         calculate D2E/DX2 analytically  !
 ! A17   A(2,9,11)             107.3398         calculate D2E/DX2 analytically  !
 ! A18   A(10,9,11)             47.2815         calculate D2E/DX2 analytically  !
 ! D1    D(9,1,10,11)          -74.9887         calculate D2E/DX2 analytically  !
 ! D2    D(3,2,5,6)            172.8598         calculate D2E/DX2 analytically  !
 ! D3    D(3,2,5,7)            -53.1844         calculate D2E/DX2 analytically  !
 ! D4    D(3,2,5,8)             60.6236         calculate D2E/DX2 analytically  !
 ! D5    D(4,2,5,6)             50.0168         calculate D2E/DX2 analytically  !
 ! D6    D(4,2,5,7)           -176.0275         calculate D2E/DX2 analytically  !
 ! D7    D(4,2,5,8)            -62.2194         calculate D2E/DX2 analytically  !
 ! D8    D(9,2,5,6)            -68.9503         calculate D2E/DX2 analytically  !
 ! D9    D(9,2,5,7)             65.0054         calculate D2E/DX2 analytically  !
 ! D10   D(9,2,5,8)            178.8135         calculate D2E/DX2 analytically  !
 ! D11   D(3,2,9,1)            -59.3813         calculate D2E/DX2 analytically  !
 ! D12   D(3,2,9,10)           -84.2351         calculate D2E/DX2 analytically  !
 ! D13   D(3,2,9,11)           -34.6042         calculate D2E/DX2 analytically  !
 ! D14   D(4,2,9,1)             62.4008         calculate D2E/DX2 analytically  !
 ! D15   D(4,2,9,10)            37.5471         calculate D2E/DX2 analytically  !
 ! D16   D(4,2,9,11)            87.1779         calculate D2E/DX2 analytically  !
 ! D17   D(5,2,9,1)           -177.4066         calculate D2E/DX2 analytically  !
 ! D18   D(5,2,9,10)           157.7396         calculate D2E/DX2 analytically  !
 ! D19   D(5,2,9,11)          -152.6295         calculate D2E/DX2 analytically  !
 ! D20   D(2,5,8,12)           -93.4952         calculate D2E/DX2 analytically  !
 ! D21   D(6,5,8,12)           155.9041         calculate D2E/DX2 analytically  !
 ! D22   D(7,5,8,12)            16.9928         calculate D2E/DX2 analytically  !
 --------------------------------------------------------------------------------
 Trust Radius=3.00D-01 FncErr=1.00D-07 GrdErr=1.00D-06 EigMax=2.50D+02 EigMin=1.00D-04
 Number of steps in this run=     63 maximum allowed number of steps=    100.
 GradGradGradGradGradGradGradGradGradGradGradGradGradGradGradGradGradGrad

 Leave Link  103 at Fri May 23 04:15:58 2025, MaxMem=  3758096384 cpu:               0.1 elap:               0.0
 (Enter /apps/easybuild-2022/easybuild/software/Compiler/NVHPC/22.11-CUDA-11.7.0/Gaussian/g16c01-CUDA-11.7.0/g16/l202.exe)
                          Input orientation:                          
 ---------------------------------------------------------------------
 Center     Atomic      Atomic             Coordinates (Angstroms)
 Number     Number       Type             X           Y           Z
 ---------------------------------------------------------------------
      1          6           0       -2.790656   -0.016798    0.202126
      2          6           0       -0.002735    0.211907   -0.203235
      3          9           0       -0.478523   -0.207142   -1.366439
      4          9           0       -0.364486    1.460059    0.007537
      5         16           0        1.806490    0.004947   -0.152536
      6          8           0        2.245922    0.630840    1.051725
      7          8           0        2.049682   -1.369045   -0.489594
      8          8           0        2.206438    0.946989   -1.383466
      9          9           0       -0.436761   -0.567725    0.784281
     10          9           0       -2.771905    0.301504    1.461709
     11          9           0       -2.819037   -1.316646    0.178193
     12          1           0        2.278428    0.426296   -2.194154
 ---------------------------------------------------------------------
                    Distance matrix (angstroms):
                    1          2          3          4          5
     1  C    0.000000
     2  C    2.826504   0.000000
     3  F    2.800462   1.324772   0.000000
     4  F    2.846976   1.316500   2.163417   0.000000
     5  S    4.610858   1.821729   2.596118   2.618418   0.000000
     6  O    5.148628   2.609001   3.737958   2.931239   1.426565
     7  O    5.073058   2.606497   2.917310   3.752223   1.435481
     8  O    5.330472   2.610313   2.922554   2.967790   1.600809
     9  F    2.486613   1.330937   2.181137   2.172663   2.497550
    10  F    1.299314   3.232394   3.676512   3.041798   4.863685
    11  F    1.300378   3.226998   3.015774   3.709991   4.821980
    12  H    5.624420   3.035363   2.947395   3.591811   2.137397
                    6          7          8          9         10
     6  O    0.000000
     7  O    2.532531   0.000000
     8  O    2.455945   2.487487   0.000000
     9  F    2.950402   2.906419   3.738982   0.000000
    10  F    5.045308   5.463151   5.770231   2.582124   0.000000
    11  F    5.496323   4.914581   5.728719   2.569721   2.065925
    12  H    3.252480   2.486182   0.966188   4.151073   6.235926
                   11         12
    11  F    0.000000
    12  H    5.886427   0.000000
 Symmetry turned off by external request.
 Stoichiometry    C2HF5O3S
 Rotational constants (GHZ):           2.0408599           0.5745467           0.5575761
 Leave Link  202 at Fri May 23 04:15:58 2025, MaxMem=  3758096384 cpu:               0.0 elap:               0.0
 (Enter /apps/easybuild-2022/easybuild/software/Compiler/NVHPC/22.11-CUDA-11.7.0/Gaussian/g16c01-CUDA-11.7.0/g16/l301.exe)
 Standard basis: 6-311++G(d,p) (5D, 7F)
 Ernie: Thresh=  0.10000D-02 Tol=  0.10000D-05 Strict=F.
   257 basis functions,   419 primitive gaussians,   268 cartesian basis functions
    49 alpha electrons       49 beta electrons
       nuclear repulsion energy       880.2112833174 Hartrees.
 IExCor= 4639 DFT=T Ex+Corr=wB97XD ExCW=0 ScaHFX=  1.000000
 ScaDFX=  1.000000  1.000000  1.000000  1.000000 ScalE2=  1.000000  1.000000
 IRadAn=      5 IRanWt=     -1 IRanGd=            0 ICorTp=0 IEmpDi=121
 HFx  wShort=  0.000000 wLong=  0.200000 cFull=  0.222036 cShort=  0.000000 cLong=  0.777964
 DFx  wShort=  0.000000 wLong=  0.200000 cFull=  0.000000 cShort=  0.000000 cLong=  1.000000
 NAtoms=   12 NActive=   12 NUniq=   12 SFac= 1.00D+00 NAtFMM=   60 NAOKFM=F Big=F
 Integral buffers will be    131072 words long.
 Raffenetti 2 integral format.
 Two-electron integral symmetry is turned off.
 R6Disp:  Grimme-D2 Dispersion energy=       -0.0051408228 Hartrees.
 Nuclear repulsion after empirical dispersion term =      880.2061424946 Hartrees.
 Leave Link  301 at Fri May 23 04:15:59 2025, MaxMem=  3758096384 cpu:               0.1 elap:               0.0
 (Enter /apps/easybuild-2022/easybuild/software/Compiler/NVHPC/22.11-CUDA-11.7.0/Gaussian/g16c01-CUDA-11.7.0/g16/l302.exe)
 NPDir=0 NMtPBC=     1 NCelOv=     1 NCel=       1 NClECP=     1 NCelD=      1
         NCelK=      1 NCelE2=     1 NClLst=     1 CellRange=     0.0.
 One-electron integrals computed using PRISM.
 NBasis=   257 RedAO= T EigKep=  6.13D-05  NBF=   257
 NBsUse=   257 1.00D-06 EigRej= -1.00D+00 NBFU=   257
 Precomputing XC quadrature grid using
 IXCGrd= 4 IRadAn=           5 IRanWt=          -1 IRanGd=           0 AccXCQ= 0.00D+00.
 Generated NRdTot=       0 NPtTot=           0 NUsed=           0 NTot=          32
 NSgBfM=   268   268   268   268   268 MxSgAt=    12 MxSgA2=    12.
 Leave Link  302 at Fri May 23 04:15:59 2025, MaxMem=  3758096384 cpu:               0.7 elap:               0.3
 (Enter /apps/easybuild-2022/easybuild/software/Compiler/NVHPC/22.11-CUDA-11.7.0/Gaussian/g16c01-CUDA-11.7.0/g16/l303.exe)
 DipDrv:  MaxL=1.
 Leave Link  303 at Fri May 23 04:15:59 2025, MaxMem=  3758096384 cpu:               0.2 elap:               0.1
 (Enter /apps/easybuild-2022/easybuild/software/Compiler/NVHPC/22.11-CUDA-11.7.0/Gaussian/g16c01-CUDA-11.7.0/g16/l401.exe)
 ExpMin= 3.60D-02 ExpMax= 9.34D+04 ExpMxC= 3.17D+03 IAcc=3 IRadAn=         5 AccDes= 0.00D+00
 Harris functional with IExCor= 4639 and IRadAn=       5 diagonalized for initial guess.
 HarFok:  IExCor= 4639 AccDes= 0.00D+00 IRadAn=         5 IDoV= 1 UseB2=F ITyADJ=14
 ICtDFT=  3500011 ScaDFX=  1.000000  1.000000  1.000000  1.000000
 FoFCou: FMM=F IPFlag=           0 FMFlag=      100000 FMFlg1=           0
         NFxFlg=           0 DoJE=T BraDBF=F KetDBF=T FulRan=T
         wScrn=  0.000000 ICntrl=       500 IOpCl=  0 I1Cent=   200000004 NGrid=           0
         NMat0=    1 NMatS0=      1 NMatT0=    0 NMatD0=    1 NMtDS0=    0 NMtDT0=    0
 Symmetry not used in FoFCou.
 Harris En= -1167.04537479402    
 JPrj=0 DoOrth=F DoCkMO=F.
 Leave Link  401 at Fri May 23 04:16:00 2025, MaxMem=  3758096384 cpu:               2.9 elap:               1.0
 (Enter /apps/easybuild-2022/easybuild/software/Compiler/NVHPC/22.11-CUDA-11.7.0/Gaussian/g16c01-CUDA-11.7.0/g16/l502.exe)
 Keep R1 ints in memory in canonical form, NReq=1117474609.
 FoFCou: FMM=F IPFlag=           0 FMFlag=           0 FMFlg1=           0
         NFxFlg=           0 DoJE=F BraDBF=F KetDBF=F FulRan=T
         wScrn=  0.000000 ICntrl=       600 IOpCl=  0 I1Cent=           0 NGrid=           0
         NMat0=    1 NMatS0=  33153 NMatT0=    0 NMatD0=    1 NMtDS0=    0 NMtDT0=    0
 Symmetry not used in FoFCou.
 Two-electron integral symmetry not used.
 Closed shell SCF:
 Using DIIS extrapolation, IDIIS=  1040.
 NGot=  3758096384 LenX=  2658793876 LenY=  2658721611
 Requested convergence on RMS density matrix=1.00D-08 within  32 cycles.
 Requested convergence on MAX density matrix=1.00D-06.
 Requested convergence on             energy=1.00D-06.
 No special actions if energy rises.

 Cycle   1  Pass 1  IDiag  1:
 E= -1198.99419467173    
 DIIS: error= 1.17D-01 at cycle   1 NSaved=   1.
 NSaved= 1 IEnMin= 1 EnMin= -1198.99419467173     IErMin= 1 ErrMin= 1.17D-01
 ErrMax= 1.17D-01  0.00D+00 EMaxC= 1.00D-01 BMatC= 3.40D+00 BMatP= 3.40D+00
 IDIUse=3 WtCom= 0.00D+00 WtEn= 1.00D+00
 Coeff-Com:  0.100D+01
 Coeff-En:   0.100D+01
 Coeff:      0.100D+01
 Gap=     0.575 Goal=   None    Shift=    0.000
 GapD=    0.575 DampG=2.000 DampE=0.250 DampFc=0.5000 IDamp=-1.
 Damping current iteration by 5.00D-01
 RMSDP=6.80D-03 MaxDP=3.07D-01              OVMax= 1.89D-01

 Cycle   2  Pass 1  IDiag  1:
 E= -1199.36655495765     Delta-E=       -0.372360285918 Rises=F Damp=T
 DIIS: error= 5.01D-02 at cycle   2 NSaved=   2.
 NSaved= 2 IEnMin= 2 EnMin= -1199.36655495765     IErMin= 2 ErrMin= 5.01D-02
 ErrMax= 5.01D-02  0.00D+00 EMaxC= 1.00D-01 BMatC= 4.82D-01 BMatP= 3.40D+00
 IDIUse=3 WtCom= 4.99D-01 WtEn= 5.01D-01
 Coeff-Com: -0.367D+00 0.137D+01
 Coeff-En:   0.000D+00 0.100D+01
 Coeff:     -0.183D+00 0.118D+01
 Gap=     0.447 Goal=   None    Shift=    0.000
 RMSDP=2.72D-03 MaxDP=1.34D-01 DE=-3.72D-01 OVMax= 1.04D-01

 Cycle   3  Pass 1  IDiag  1:
 E= -1199.67980232919     Delta-E=       -0.313247371543 Rises=F Damp=F
 DIIS: error= 1.49D-02 at cycle   3 NSaved=   3.
 NSaved= 3 IEnMin= 3 EnMin= -1199.67980232919     IErMin= 3 ErrMin= 1.49D-02
 ErrMax= 1.49D-02  0.00D+00 EMaxC= 1.00D-01 BMatC= 7.32D-02 BMatP= 4.82D-01
 IDIUse=3 WtCom= 8.51D-01 WtEn= 1.49D-01
 Coeff-Com: -0.162D+00 0.469D+00 0.693D+00
 Coeff-En:   0.000D+00 0.000D+00 0.100D+01
 Coeff:     -0.138D+00 0.399D+00 0.739D+00
 Gap=     0.383 Goal=   None    Shift=    0.000
 RMSDP=2.27D-03 MaxDP=1.30D-01 DE=-3.13D-01 OVMax= 5.58D-02

 Cycle   4  Pass 1  IDiag  1:
 E= -1199.71317120986     Delta-E=       -0.033368880675 Rises=F Damp=F
 DIIS: error= 7.36D-03 at cycle   4 NSaved=   4.
 NSaved= 4 IEnMin= 4 EnMin= -1199.71317120986     IErMin= 4 ErrMin= 7.36D-03
 ErrMax= 7.36D-03  0.00D+00 EMaxC= 1.00D-01 BMatC= 1.81D-02 BMatP= 7.32D-02
 IDIUse=3 WtCom= 9.26D-01 WtEn= 7.36D-02
 Coeff-Com: -0.326D-01 0.819D-01 0.360D+00 0.590D+00
 Coeff-En:   0.000D+00 0.000D+00 0.198D+00 0.802D+00
 Coeff:     -0.302D-01 0.759D-01 0.349D+00 0.606D+00
 Gap=     0.381 Goal=   None    Shift=    0.000
 RMSDP=1.08D-03 MaxDP=6.44D-02 DE=-3.34D-02 OVMax= 2.20D-02

 Cycle   5  Pass 1  IDiag  1:
 E= -1199.72424134369     Delta-E=       -0.011070133831 Rises=F Damp=F
 DIIS: error= 1.45D-03 at cycle   5 NSaved=   5.
 NSaved= 5 IEnMin= 5 EnMin= -1199.72424134369     IErMin= 5 ErrMin= 1.45D-03
 ErrMax= 1.45D-03  0.00D+00 EMaxC= 1.00D-01 BMatC= 9.06D-04 BMatP= 1.81D-02
 IDIUse=3 WtCom= 9.86D-01 WtEn= 1.45D-02
 Coeff-Com: -0.654D-02 0.141D-01 0.146D+00 0.317D+00 0.530D+00
 Coeff-En:   0.000D+00 0.000D+00 0.000D+00 0.000D+00 0.100D+01
 Coeff:     -0.644D-02 0.139D-01 0.143D+00 0.312D+00 0.537D+00
 Gap=     0.381 Goal=   None    Shift=    0.000
 RMSDP=1.78D-04 MaxDP=9.37D-03 DE=-1.11D-02 OVMax= 4.65D-03

 Cycle   6  Pass 1  IDiag  1:
 E= -1199.72477930312     Delta-E=       -0.000537959428 Rises=F Damp=F
 DIIS: error= 2.46D-04 at cycle   6 NSaved=   6.
 NSaved= 6 IEnMin= 6 EnMin= -1199.72477930312     IErMin= 6 ErrMin= 2.46D-04
 ErrMax= 2.46D-04  0.00D+00 EMaxC= 1.00D-01 BMatC= 2.24D-05 BMatP= 9.06D-04
 IDIUse=3 WtCom= 9.98D-01 WtEn= 2.46D-03
 Coeff-Com:  0.190D-02-0.501D-02 0.457D-02 0.324D-01 0.149D+00 0.817D+00
 Coeff-En:   0.000D+00 0.000D+00 0.000D+00 0.000D+00 0.000D+00 0.100D+01
 Coeff:      0.189D-02-0.500D-02 0.456D-02 0.323D-01 0.149D+00 0.818D+00
 Gap=     0.381 Goal=   None    Shift=    0.000
 RMSDP=4.77D-05 MaxDP=2.57D-03 DE=-5.38D-04 OVMax= 1.34D-03

 Cycle   7  Pass 1  IDiag  1:
 E= -1199.72480091860     Delta-E=       -0.000021615478 Rises=F Damp=F
 DIIS: error= 8.12D-05 at cycle   7 NSaved=   7.
 NSaved= 7 IEnMin= 7 EnMin= -1199.72480091860     IErMin= 7 ErrMin= 8.12D-05
 ErrMax= 8.12D-05  0.00D+00 EMaxC= 1.00D-01 BMatC= 2.70D-06 BMatP= 2.24D-05
 IDIUse=1 WtCom= 1.00D+00 WtEn= 0.00D+00
 Coeff-Com:  0.142D-02-0.332D-02-0.143D-01-0.231D-01-0.177D-01 0.245D+00
 Coeff-Com:  0.812D+00
 Coeff:      0.142D-02-0.332D-02-0.143D-01-0.231D-01-0.177D-01 0.245D+00
 Coeff:      0.812D+00
 Gap=     0.381 Goal=   None    Shift=    0.000
 RMSDP=1.40D-05 MaxDP=9.10D-04 DE=-2.16D-05 OVMax= 6.80D-04

 Cycle   8  Pass 1  IDiag  1:
 E= -1199.72480322060     Delta-E=       -0.000002301997 Rises=F Damp=F
 DIIS: error= 4.09D-05 at cycle   8 NSaved=   8.
 NSaved= 8 IEnMin= 8 EnMin= -1199.72480322060     IErMin= 8 ErrMin= 4.09D-05
 ErrMax= 4.09D-05  0.00D+00 EMaxC= 1.00D-01 BMatC= 4.35D-07 BMatP= 2.70D-06
 IDIUse=1 WtCom= 1.00D+00 WtEn= 0.00D+00
 Coeff-Com:  0.476D-03-0.105D-02-0.671D-02-0.132D-01-0.216D-01 0.416D-01
 Coeff-Com:  0.370D+00 0.631D+00
 Coeff:      0.476D-03-0.105D-02-0.671D-02-0.132D-01-0.216D-01 0.416D-01
 Coeff:      0.370D+00 0.631D+00
 Gap=     0.381 Goal=   None    Shift=    0.000
 RMSDP=4.60D-06 MaxDP=2.51D-04 DE=-2.30D-06 OVMax= 1.90D-04

 Cycle   9  Pass 1  IDiag  1:
 E= -1199.72480354306     Delta-E=       -0.000000322466 Rises=F Damp=F
 DIIS: error= 6.49D-06 at cycle   9 NSaved=   9.
 NSaved= 9 IEnMin= 9 EnMin= -1199.72480354306     IErMin= 9 ErrMin= 6.49D-06
 ErrMax= 6.49D-06  0.00D+00 EMaxC= 1.00D-01 BMatC= 1.53D-08 BMatP= 4.35D-07
 IDIUse=1 WtCom= 1.00D+00 WtEn= 0.00D+00
 Coeff-Com: -0.626D-04 0.153D-03 0.424D-03 0.203D-03-0.714D-03-0.142D-01
 Coeff-Com: -0.329D-01 0.875D-01 0.960D+00
 Coeff:     -0.626D-04 0.153D-03 0.424D-03 0.203D-03-0.714D-03-0.142D-01
 Coeff:     -0.329D-01 0.875D-01 0.960D+00
 Gap=     0.381 Goal=   None    Shift=    0.000
 RMSDP=2.09D-06 MaxDP=1.14D-04 DE=-3.22D-07 OVMax= 1.21D-04

 Cycle  10  Pass 1  IDiag  1:
 E= -1199.72480357307     Delta-E=       -0.000000030010 Rises=F Damp=F
 DIIS: error= 3.53D-06 at cycle  10 NSaved=  10.
 NSaved=10 IEnMin=10 EnMin= -1199.72480357307     IErMin=10 ErrMin= 3.53D-06
 ErrMax= 3.53D-06  0.00D+00 EMaxC= 1.00D-01 BMatC= 1.50D-09 BMatP= 1.53D-08
 IDIUse=1 WtCom= 1.00D+00 WtEn= 0.00D+00
 Coeff-Com: -0.531D-04 0.119D-03 0.652D-03 0.124D-02 0.192D-02-0.632D-02
 Coeff-Com: -0.407D-01-0.476D-01 0.159D+00 0.932D+00
 Coeff:     -0.531D-04 0.119D-03 0.652D-03 0.124D-02 0.192D-02-0.632D-02
 Coeff:     -0.407D-01-0.476D-01 0.159D+00 0.932D+00
 Gap=     0.381 Goal=   None    Shift=    0.000
 RMSDP=5.87D-07 MaxDP=2.60D-05 DE=-3.00D-08 OVMax= 4.94D-05

 Cycle  11  Pass 1  IDiag  1:
 E= -1199.72480357687     Delta-E=       -0.000000003802 Rises=F Damp=F
 DIIS: error= 1.26D-06 at cycle  11 NSaved=  11.
 NSaved=11 IEnMin=11 EnMin= -1199.72480357687     IErMin=11 ErrMin= 1.26D-06
 ErrMax= 1.26D-06  0.00D+00 EMaxC= 1.00D-01 BMatC= 2.77D-10 BMatP= 1.50D-09
 IDIUse=1 WtCom= 1.00D+00 WtEn= 0.00D+00
 Coeff-Com: -0.108D-04 0.229D-04 0.156D-03 0.368D-03 0.646D-03-0.551D-03
 Coeff-Com: -0.834D-02-0.203D-01-0.466D-01 0.264D+00 0.811D+00
 Coeff:     -0.108D-04 0.229D-04 0.156D-03 0.368D-03 0.646D-03-0.551D-03
 Coeff:     -0.834D-02-0.203D-01-0.466D-01 0.264D+00 0.811D+00
 Gap=     0.381 Goal=   None    Shift=    0.000
 RMSDP=1.59D-07 MaxDP=8.30D-06 DE=-3.80D-09 OVMax= 1.65D-05

 Cycle  12  Pass 1  IDiag  1:
 E= -1199.72480357735     Delta-E=       -0.000000000478 Rises=F Damp=F
 DIIS: error= 6.05D-07 at cycle  12 NSaved=  12.
 NSaved=12 IEnMin=12 EnMin= -1199.72480357735     IErMin=12 ErrMin= 6.05D-07
 ErrMax= 6.05D-07  0.00D+00 EMaxC= 1.00D-01 BMatC= 8.23D-11 BMatP= 2.77D-10
 IDIUse=1 WtCom= 1.00D+00 WtEn= 0.00D+00
 Coeff-Com:  0.709D-05-0.162D-04-0.728D-04-0.106D-03-0.148D-03 0.894D-03
 Coeff-Com:  0.496D-02 0.162D-02-0.536D-01-0.704D-01 0.361D+00 0.756D+00
 Coeff:      0.709D-05-0.162D-04-0.728D-04-0.106D-03-0.148D-03 0.894D-03
 Coeff:      0.496D-02 0.162D-02-0.536D-01-0.704D-01 0.361D+00 0.756D+00
 Gap=     0.381 Goal=   None    Shift=    0.000
 RMSDP=7.35D-08 MaxDP=3.20D-06 DE=-4.78D-10 OVMax= 8.73D-06

 Cycle  13  Pass 1  IDiag  1:
 E= -1199.72480357753     Delta-E=       -0.000000000178 Rises=F Damp=F
 DIIS: error= 2.34D-07 at cycle  13 NSaved=  13.
 NSaved=13 IEnMin=13 EnMin= -1199.72480357753     IErMin=13 ErrMin= 2.34D-07
 ErrMax= 2.34D-07  0.00D+00 EMaxC= 1.00D-01 BMatC= 1.47D-11 BMatP= 8.23D-11
 IDIUse=1 WtCom= 1.00D+00 WtEn= 0.00D+00
 Coeff-Com:  0.481D-05-0.107D-04-0.507D-04-0.950D-04-0.142D-03 0.453D-03
 Coeff-Com:  0.326D-02 0.349D-02-0.136D-01-0.701D-01 0.313D-03 0.323D+00
 Coeff-Com:  0.753D+00
 Coeff:      0.481D-05-0.107D-04-0.507D-04-0.950D-04-0.142D-03 0.453D-03
 Coeff:      0.326D-02 0.349D-02-0.136D-01-0.701D-01 0.313D-03 0.323D+00
 Coeff:      0.753D+00
 Gap=     0.381 Goal=   None    Shift=    0.000
 RMSDP=3.23D-08 MaxDP=1.37D-06 DE=-1.78D-10 OVMax= 3.53D-06

 Cycle  14  Pass 1  IDiag  1:
 E= -1199.72480357754     Delta-E=       -0.000000000007 Rises=F Damp=F
 DIIS: error= 8.37D-08 at cycle  14 NSaved=  14.
 NSaved=14 IEnMin=14 EnMin= -1199.72480357754     IErMin=14 ErrMin= 8.37D-08
 ErrMax= 8.37D-08  0.00D+00 EMaxC= 1.00D-01 BMatC= 2.61D-12 BMatP= 1.47D-11
 IDIUse=1 WtCom= 1.00D+00 WtEn= 0.00D+00
 Coeff-Com:  0.507D-06-0.104D-05-0.483D-05-0.167D-04-0.289D-04-0.468D-05
 Coeff-Com:  0.446D-03 0.121D-02 0.503D-02-0.191D-01-0.748D-01 0.359D-02
 Coeff-Com:  0.338D+00 0.746D+00
 Coeff:      0.507D-06-0.104D-05-0.483D-05-0.167D-04-0.289D-04-0.468D-05
 Coeff:      0.446D-03 0.121D-02 0.503D-02-0.191D-01-0.748D-01 0.359D-02
 Coeff:      0.338D+00 0.746D+00
 Gap=     0.381 Goal=   None    Shift=    0.000
 RMSDP=1.49D-08 MaxDP=4.44D-07 DE=-7.28D-12 OVMax= 1.38D-06

 Cycle  15  Pass 1  IDiag  1:
 E= -1199.72480357758     Delta-E=       -0.000000000040 Rises=F Damp=F
 DIIS: error= 2.31D-08 at cycle  15 NSaved=  15.
 NSaved=15 IEnMin=15 EnMin= -1199.72480357758     IErMin=15 ErrMin= 2.31D-08
 ErrMax= 2.31D-08  0.00D+00 EMaxC= 1.00D-01 BMatC= 4.37D-13 BMatP= 2.61D-12
 IDIUse=1 WtCom= 1.00D+00 WtEn= 0.00D+00
 Coeff-Com: -0.244D-06 0.570D-06 0.208D-05-0.277D-06-0.608D-05-0.599D-04
 Coeff-Com: -0.757D-04 0.370D-03 0.398D-02-0.284D-02-0.363D-01-0.337D-01
 Coeff-Com:  0.783D-01 0.377D+00 0.613D+00
 Coeff:     -0.244D-06 0.570D-06 0.208D-05-0.277D-06-0.608D-05-0.599D-04
 Coeff:     -0.757D-04 0.370D-03 0.398D-02-0.284D-02-0.363D-01-0.337D-01
 Coeff:      0.783D-01 0.377D+00 0.613D+00
 Gap=     0.381 Goal=   None    Shift=    0.000
 RMSDP=4.67D-09 MaxDP=2.69D-07 DE=-4.00D-11 OVMax= 2.81D-07

 SCF Done:  E(RwB97XD) =  -1199.72480358     A.U. after   15 cycles
            NFock= 15  Conv=0.47D-08     -V/T= 2.0018
 KE= 1.197547511482D+03 PE=-4.607226560678D+03 EE= 1.329748103124D+03
 Leave Link  502 at Fri May 23 04:16:15 2025, MaxMem=  3758096384 cpu:              65.9 elap:              15.5
 (Enter /apps/easybuild-2022/easybuild/software/Compiler/NVHPC/22.11-CUDA-11.7.0/Gaussian/g16c01-CUDA-11.7.0/g16/l508.exe)
 QCSCF skips out because SCF is already converged.
 Leave Link  508 at Fri May 23 04:16:16 2025, MaxMem=  3758096384 cpu:               0.1 elap:               0.0
 (Enter /apps/easybuild-2022/easybuild/software/Compiler/NVHPC/22.11-CUDA-11.7.0/Gaussian/g16c01-CUDA-11.7.0/g16/l801.exe)
 DoSCS=F DFT=T ScalE2(SS,OS)=  1.000000  1.000000
 Range of M.O.s used for correlation:     1   257
 NBasis=   257 NAE=    49 NBE=    49 NFC=     0 NFV=     0
 NROrb=    257 NOA=    49 NOB=    49 NVA=   208 NVB=   208

 **** Warning!!: The largest alpha MO coefficient is  0.27458955D+02

 Leave Link  801 at Fri May 23 04:16:16 2025, MaxMem=  3758096384 cpu:               0.1 elap:               0.1
 (Enter /apps/easybuild-2022/easybuild/software/Compiler/NVHPC/22.11-CUDA-11.7.0/Gaussian/g16c01-CUDA-11.7.0/g16/l1101.exe)
 Using compressed storage, NAtomX=    12.
 Will process     13 centers per pass.
 R6Disp: Adding Grimme-D2 dispersion energy 1st derivatives to the gradient.
 Leave Link 1101 at Fri May 23 04:16:16 2025, MaxMem=  3758096384 cpu:               0.8 elap:               0.3
 (Enter /apps/easybuild-2022/easybuild/software/Compiler/NVHPC/22.11-CUDA-11.7.0/Gaussian/g16c01-CUDA-11.7.0/g16/l1102.exe)
 Symmetrizing basis deriv contribution to polar:
 IMax=3 JMax=2 DiffMx= 0.00D+00
 Leave Link 1102 at Fri May 23 04:16:16 2025, MaxMem=  3758096384 cpu:               0.1 elap:               0.1
 (Enter /apps/easybuild-2022/easybuild/software/Compiler/NVHPC/22.11-CUDA-11.7.0/Gaussian/g16c01-CUDA-11.7.0/g16/l1110.exe)
 Forming Gx(P) for the SCF density, NAtomX=    12.
 Integral derivatives from FoFJK, PRISM(SPDF).
 Do as many integral derivatives as possible in FoFJK.
 G2DrvN: MDV=    3758095012.
 G2DrvN: will do    13 centers at a time, making    1 passes.
 Calling FoFCou, ICntrl=  3107 FMM=F I1Cent=   0 AccDes= 0.00D+00.
 FoFJK:  IHMeth= 1 ICntrl=    3107 DoSepK=T KAlg= 0 I1Cent=           0 FoldK=F
 IRaf=         1 NMat=       1 IRICut=       1 DoRegI=T DoRafI=F ISym2E= 0 IDoP0=0 IntGTp=1.
 FoFCou: FMM=F IPFlag=           0 FMFlag=      100000 FMFlg1=           0
         NFxFlg=           0 DoJE=F BraDBF=F KetDBF=F FulRan=T
         wScrn=  0.000000 ICntrl=      3507 IOpCl=  0 I1Cent=           0 NGrid=           0
         NMat0=    1 NMatS0=      1 NMatT0=    0 NMatD0=    1 NMtDS0=    0 NMtDT0=    0
 Symmetry not used in FoFCou.
 End of G2Drv F.D. properties file   721 does not exist.
 End of G2Drv F.D. properties file   722 does not exist.
 End of G2Drv F.D. properties file   788 does not exist.
 Leave Link 1110 at Fri May 23 04:16:31 2025, MaxMem=  3758096384 cpu:              92.7 elap:              14.9
 (Enter /apps/easybuild-2022/easybuild/software/Compiler/NVHPC/22.11-CUDA-11.7.0/Gaussian/g16c01-CUDA-11.7.0/g16/l1002.exe)
 Minotr:  Closed shell wavefunction.
          IDoAtm=111111111111
          Direct CPHF calculation.
          Differentiating once with respect to nuclear coordinates.
          Requested convergence is 1.0D-08 RMS, and 1.0D-07 maximum.
          Secondary convergence is 1.0D-12 RMS, and 1.0D-12 maximum.
          NewPWx=T KeepS1=F KeepF1=F KeepIn=T MapXYZ=F SortEE=F KeepMc=T.
         3731 words used for storage of precomputed grid.
 Keep R1 ints in memory in canonical form, NReq=1117480323.
 FoFCou: FMM=F IPFlag=           0 FMFlag=           0 FMFlg1=           0
         NFxFlg=           0 DoJE=F BraDBF=F KetDBF=F FulRan=T
         wScrn=  0.000000 ICntrl=       600 IOpCl=  0 I1Cent=           0 NGrid=           0
         NMat0=    1 NMatS0=  33153 NMatT0=    0 NMatD0=    1 NMtDS0=    0 NMtDT0=    0
 Symmetry not used in FoFCou.
 Two-electron integral symmetry not used.
          MDV=    3758096384 using IRadAn=       1.
          Solving linear equations simultaneously, MaxMat=       0.
          There are    39 degrees of freedom in the 1st order CPHF.  IDoFFX=6 NUNeed=     0.
     33 vectors produced by pass  0 Test12= 2.61D-14 2.56D-09 XBig12= 3.10D-01 1.81D-01.
 AX will form    33 AO Fock derivatives at one time.
     33 vectors produced by pass  1 Test12= 2.61D-14 2.56D-09 XBig12= 3.56D-02 3.64D-02.
     33 vectors produced by pass  2 Test12= 2.61D-14 2.56D-09 XBig12= 1.61D-03 6.41D-03.
     33 vectors produced by pass  3 Test12= 2.61D-14 2.56D-09 XBig12= 2.51D-05 6.20D-04.
     33 vectors produced by pass  4 Test12= 2.61D-14 2.56D-09 XBig12= 2.53D-07 7.29D-05.
     33 vectors produced by pass  5 Test12= 2.61D-14 2.56D-09 XBig12= 3.00D-09 7.57D-06.
     33 vectors produced by pass  6 Test12= 2.61D-14 2.56D-09 XBig12= 2.59D-11 7.17D-07.
     25 vectors produced by pass  7 Test12= 2.61D-14 2.56D-09 XBig12= 1.85D-13 4.67D-08.
      3 vectors produced by pass  8 Test12= 2.61D-14 2.56D-09 XBig12= 1.17D-15 3.75D-09.
 InvSVY:  IOpt=1 It=  1 EMax= 1.22D-15
 Solved reduced A of dimension   259 with    33 vectors.
 End of Minotr F.D. properties file   721 does not exist.
 End of Minotr F.D. properties file   722 does not exist.
 End of Minotr F.D. properties file   788 does not exist.
 Leave Link 1002 at Fri May 23 04:17:19 2025, MaxMem=  3758096384 cpu:             198.1 elap:              48.0
 (Enter /apps/easybuild-2022/easybuild/software/Compiler/NVHPC/22.11-CUDA-11.7.0/Gaussian/g16c01-CUDA-11.7.0/g16/l701.exe)
 ... and contract with generalized density number  0.
 Compute integral second derivatives.
 R6Disp: Adding Grimme-D2 dispersion energy 2nd derivatives to the Hessian.
 Leave Link  701 at Fri May 23 04:17:19 2025, MaxMem=  3758096384 cpu:               0.8 elap:               0.2
 (Enter /apps/easybuild-2022/easybuild/software/Compiler/NVHPC/22.11-CUDA-11.7.0/Gaussian/g16c01-CUDA-11.7.0/g16/l702.exe)
 L702 exits ... SP integral derivatives will be done elsewhere.
 Leave Link  702 at Fri May 23 04:17:19 2025, MaxMem=  3758096384 cpu:               0.1 elap:               0.1
 (Enter /apps/easybuild-2022/easybuild/software/Compiler/NVHPC/22.11-CUDA-11.7.0/Gaussian/g16c01-CUDA-11.7.0/g16/l703.exe)
 Integral derivatives from FoFJK, PRISM(SPDF).
 Compute integral second derivatives, UseDBF=F ICtDFT=           0.
 Calling FoFJK, ICntrl=    100127 FMM=F ISym2X=0 I1Cent= 0 IOpClX= 0 NMat=1 NMatS=1 NMatT=0.
 FoFJK:  IHMeth= 1 ICntrl=  100127 DoSepK=T KAlg= 0 I1Cent=           0 FoldK=F
 IRaf=         1 NMat=       1 IRICut=       1 DoRegI=T DoRafI=F ISym2E= 0 IDoP0=0 IntGTp=1.
 FoFCou: FMM=F IPFlag=           0 FMFlag=      100000 FMFlg1=         800
         NFxFlg=           0 DoJE=F BraDBF=F KetDBF=F FulRan=T
         wScrn=  0.000000 ICntrl=    100527 IOpCl=  0 I1Cent=           0 NGrid=           0
         NMat0=    1 NMatS0=      1 NMatT0=    0 NMatD0=    1 NMtDS0=    0 NMtDT0=    0
 Symmetry not used in FoFCou.
 Leave Link  703 at Fri May 23 04:18:45 2025, MaxMem=  3758096384 cpu:             250.4 elap:              86.1
 (Enter /apps/easybuild-2022/easybuild/software/Compiler/NVHPC/22.11-CUDA-11.7.0/Gaussian/g16c01-CUDA-11.7.0/g16/l716.exe)
 Dipole        =-1.76714028D-01 4.66311768D-02-9.72106285D-01
 Polarizability= 0.00000000D+00 0.00000000D+00 0.00000000D+00
                 0.00000000D+00 0.00000000D+00 0.00000000D+00
 -------------------------------------------------------------------
 Center     Atomic                   Forces (Hartrees/Bohr)
 Number     Number              X              Y              Z
 -------------------------------------------------------------------
      1        6          -0.010684488   -0.000160040    0.000755934
      2        6           0.001045879   -0.000287297    0.000279863
      3        9           0.000785265   -0.000153066    0.000549308
      4        9           0.001355580   -0.000309732   -0.000005817
      5       16           0.006796937    0.000626484   -0.001095020
      6        8           0.004790674    0.000526666   -0.001151534
      7        8           0.004579744    0.000575209   -0.000812322
      8        8           0.003618185    0.000292031   -0.000545250
      9        9          -0.000779098    0.000474954   -0.000642481
     10        9          -0.005736162   -0.001096856    0.001283047
     11        9          -0.005958854   -0.000509544    0.001424759
     12        1           0.000186340    0.000021190   -0.000040487
 -------------------------------------------------------------------
 Cartesian Forces:  Max     0.010684488 RMS     0.002893961
 Force constants in Cartesian coordinates: 
                1             2             3             4             5 
      1  0.191419D-01
      2  0.101050D-01  0.418866D+00
      3 -0.656790D-04 -0.448546D-01  0.442917D+00
      4  0.200737D-02 -0.720918D-02  0.100969D-01  0.539823D+00
      5 -0.841811D-02  0.165099D-01  0.189535D-03 -0.133614D-01  0.548925D+00
      6  0.116514D-01 -0.324138D-03  0.162450D-01  0.393260D-02  0.108535D-01
      7 -0.947902D-02  0.262437D-02 -0.356849D-02 -0.128494D+00 -0.301543D-01
      8  0.142452D-02 -0.288727D-02 -0.191027D-02 -0.306989D-01 -0.923574D-01
      9  0.986206D-03 -0.198492D-02 -0.565974D-02 -0.870780D-01 -0.547016D-01
     10 -0.799502D-02  0.238832D-02 -0.265370D-02 -0.113613D+00  0.843593D-01
     11 -0.746382D-03 -0.657376D-02 -0.124746D-02  0.838602D-01 -0.276418D+00
     12 -0.115355D-02 -0.130397D-02 -0.224682D-02  0.148589D-01 -0.348036D-01
     13 -0.171789D-04 -0.109828D-02  0.181948D-02 -0.208497D+00  0.215444D-01
     14 -0.117644D-03  0.313802D-02  0.105514D-02  0.203870D-01 -0.184713D-01
     15  0.235583D-03  0.119080D-02  0.234185D-02 -0.215526D-02 -0.345242D-02
     16 -0.174242D-03  0.494582D-03 -0.775922D-03  0.156819D-01 -0.124244D-01
     17 -0.471803D-05 -0.820065D-03 -0.734529D-03  0.796381D-02 -0.256970D-02
     18 -0.250489D-03 -0.472440D-03 -0.169393D-02  0.160114D-01 -0.105006D-01
     19 -0.121540D-03  0.301818D-03 -0.732739D-03  0.154452D-01  0.216485D-01
     20  0.224264D-03 -0.214370D-02 -0.172493D-03 -0.215161D-01 -0.209412D-01
     21 -0.980205D-04 -0.518891D-03 -0.560828D-03 -0.603391D-02 -0.371889D-02
     22  0.117624D-03  0.233400D-03 -0.388847D-03  0.979680D-02 -0.138380D-01
     23  0.220380D-03 -0.624183D-03  0.361008D-04  0.883374D-02 -0.398795D-02
     24 -0.500981D-03  0.486101D-04 -0.721138D-03 -0.165583D-01  0.137978D-01
     25 -0.459144D-02  0.482435D-03 -0.108752D-02 -0.123977D+00 -0.524967D-01
     26  0.530844D-02 -0.639123D-02  0.244157D-02 -0.539014D-01 -0.135932D+00
     27 -0.677668D-02  0.263866D-02 -0.732491D-02  0.703496D-01  0.832867D-01
     28  0.521970D-03 -0.194257D-02 -0.376071D-02 -0.459842D-02  0.158501D-02
     29 -0.295076D-02 -0.710737D-01 -0.555407D-02  0.604273D-03 -0.274197D-02
     30 -0.564810D-02 -0.145186D-01 -0.361682D+00 -0.500419D-02 -0.446093D-02
     31  0.414488D-03 -0.628071D-02  0.724633D-03 -0.438080D-02  0.286762D-02
     32 -0.509175D-02 -0.348195D+00  0.506686D-01  0.425398D-02 -0.108035D-01
     33  0.161850D-02  0.600195D-01 -0.816441D-01 -0.157074D-02  0.307918D-02
     34  0.175066D-03 -0.991567D-04  0.392593D-03  0.804782D-03 -0.131206D-02
     35  0.468033D-04  0.194851D-03  0.824598D-04  0.783983D-03 -0.121233D-02
     36  0.181856D-05  0.800277D-04  0.301968D-04  0.315105D-02  0.431411D-03
                6             7             8             9            10 
      6  0.530614D+00
      7 -0.885945D-01  0.118775D+00
      8 -0.550097D-01  0.375904D-01  0.115420D+00
      9 -0.228950D+00  0.108371D+00  0.956228D-01  0.340632D+00
     10  0.137203D-01  0.168597D-01 -0.134177D-01 -0.405508D-02  0.970315D-01
     11 -0.340594D-01 -0.933758D-03 -0.408582D-01 -0.428183D-01 -0.911757D-01
     12 -0.790201D-01  0.526460D-02 -0.557005D-01 -0.224509D-01 -0.137816D-01
     13 -0.731687D-02 -0.202486D-02  0.182993D-02  0.721840D-03  0.384844D-02
     14 -0.292996D-02 -0.143428D-01 -0.293178D-02 -0.109158D-01  0.350145D-01
     15 -0.141866D-01 -0.377697D-01 -0.814664D-02 -0.282561D-01  0.532924D-02
     16 -0.237911D-01 -0.130638D-01 -0.236999D-02 -0.792567D-02 -0.298600D-02
     17 -0.600820D-02 -0.155707D-02  0.114733D-02  0.426295D-03 -0.379110D-02
     18 -0.162626D-01 -0.677576D-02 -0.310189D-04 -0.112394D-02 -0.290817D-02
     19  0.396310D-02 -0.258440D-02 -0.313747D-03 -0.115278D-02 -0.110279D-01
     20 -0.476219D-02  0.492910D-02  0.477328D-02  0.510760D-02  0.779772D-02
     21 -0.663060D-03  0.377372D-02  0.303198D-02  0.611105D-02  0.148567D-02
     22  0.168692D-01 -0.151477D-02 -0.415292D-03 -0.146568D-03 -0.255721D-02
     23  0.870712D-02 -0.382675D-03  0.835492D-03 -0.147117D-02 -0.454119D-02
     24 -0.171509D-01  0.637796D-02  0.562476D-03  0.100231D-01  0.378459D-02
     25  0.691111D-01  0.188092D-01  0.738375D-02 -0.777009D-02  0.180726D-01
     26  0.830392D-01  0.477231D-02  0.144234D-01  0.933769D-02 -0.118203D-01
     27 -0.178812D+00  0.687254D-02  0.202533D-01 -0.736119D-01 -0.200422D-02
     28 -0.353126D-02  0.215388D-02  0.207670D-04  0.613355D-03  0.866085D-03
     29  0.132446D-02 -0.741020D-03  0.369719D-03 -0.581206D-04 -0.890581D-03
     30 -0.106321D-01  0.537670D-02  0.139472D-02  0.342634D-02  0.761759D-03
     31 -0.260352D-02  0.136398D-02 -0.789538D-03  0.589544D-03  0.151633D-02
     32 -0.236499D-02 -0.810859D-03  0.261989D-02  0.224143D-02 -0.425569D-02
     33 -0.240271D-02  0.118400D-02  0.108123D-03  0.313833D-03  0.152506D-02
     34  0.658947D-02 -0.800755D-03 -0.244204D-03 -0.315408D-02 -0.157931D-04
     35  0.153437D-02 -0.993698D-03 -0.554287D-03 -0.785921D-03  0.332397D-03
     36  0.122082D-02 -0.512424D-03 -0.175240D-03 -0.452906D-03 -0.120393D-02
               11            12            13            14            15 
     11  0.404294D+00
     12  0.551473D-01  0.904227D-01
     13 -0.437462D-02 -0.215393D-02  0.573535D+00
     14 -0.305556D-01 -0.530237D-02 -0.176562D-02  0.985421D+00
     15 -0.558495D-02 -0.111764D-03  0.923899D-01  0.287267D+00  0.889343D+00
     16  0.247555D-02  0.122004D-02 -0.158717D+00 -0.843017D-01 -0.163393D+00
     17  0.730721D-02  0.252615D-02 -0.841852D-01 -0.202659D+00 -0.224184D+00
     18  0.477173D-02  0.308734D-02 -0.164420D+00 -0.224816D+00 -0.494437D+00
     19  0.849968D-02  0.170625D-02 -0.114677D+00  0.101046D+00  0.247042D-01
     20 -0.226967D-02 -0.294867D-03  0.102365D+00 -0.595742D+00 -0.132544D+00
     21 -0.220222D-03  0.780002D-03  0.247034D-01 -0.126893D+00 -0.121446D+00
     22  0.277646D-02  0.222257D-03 -0.839292D-01 -0.308091D-01  0.388812D-01
     23  0.649311D-02 -0.324376D-03 -0.287433D-01 -0.140274D+00  0.458589D-01
     24 -0.420342D-02  0.123717D-02  0.475525D-01  0.773516D-01 -0.175348D+00
     25  0.112500D-02 -0.653158D-02 -0.704636D-02 -0.266101D-01  0.333121D-01
     26 -0.661454D-01  0.388171D-01 -0.233979D-02 -0.111775D-01  0.159504D-01
     27  0.258727D-01  0.597072D-02  0.438338D-02  0.180742D-01 -0.204878D-01
     28 -0.417270D-03  0.936588D-03 -0.343214D-03 -0.126873D-04 -0.177045D-03
     29  0.999570D-03  0.513367D-03 -0.114227D-03 -0.535067D-03 -0.214050D-03
     30  0.269789D-02  0.203466D-02 -0.151358D-02 -0.115968D-02 -0.211782D-02
     31 -0.725069D-03  0.106411D-03 -0.240790D-03  0.138121D-03  0.946968D-05
     32  0.391531D-02  0.844802D-03  0.126486D-02 -0.259511D-02 -0.867079D-03
     33 -0.874066D-03  0.174855D-03 -0.202390D-03  0.197037D-03 -0.301737D-03
     34 -0.364030D-03 -0.694438D-03 -0.189092D-02  0.137398D-02  0.863342D-02
     35 -0.188479D-03 -0.118995D-03 -0.438306D-02  0.163825D-01  0.247269D-01
     36  0.518135D-03  0.122192D-03  0.403641D-02 -0.119286D-01 -0.349916D-01
               16            17            18            19            20 
     16  0.125911D+00
     17  0.904961D-01  0.187857D+00
     18  0.177572D+00  0.240547D+00  0.527825D+00
     19  0.220599D-01 -0.119810D-01 -0.627692D-02  0.790570D-01
     20  0.687428D-02 -0.375812D-02  0.439658D-02 -0.109269D+00  0.636734D+00
     21  0.438089D-02 -0.329691D-01  0.270378D-02 -0.237805D-01  0.134979D+00
     22  0.134383D-01  0.209880D-02 -0.524466D-02  0.167106D-01  0.143148D-02
     23  0.554439D-03  0.129927D-01 -0.183387D-01 -0.945650D-02 -0.226667D-01
     24  0.794034D-02  0.164897D-01 -0.300230D-01  0.134707D-02  0.216896D-02
     25 -0.406390D-02  0.371431D-03 -0.567592D-02 -0.321135D-02  0.573565D-02
     26 -0.874204D-03  0.137551D-02 -0.285318D-02 -0.938611D-03  0.774212D-02
     27  0.296724D-02 -0.212830D-03  0.858802D-02  0.112508D-02 -0.466958D-02
     28  0.194543D-03  0.464987D-04  0.196928D-03  0.169976D-03 -0.128056D-03
     29 -0.357155D-05  0.166678D-03  0.152107D-03  0.376983D-04  0.278850D-03
     30  0.630209D-03  0.724013D-03  0.149251D-02  0.551701D-03  0.392231D-03
     31  0.177675D-03  0.000000D+00  0.120874D-03  0.124065D-03 -0.160720D-03
     32 -0.478205D-03  0.628314D-03  0.317975D-03 -0.337589D-03  0.181311D-02
     33  0.107332D-03  0.280040D-05  0.150915D-03  0.110635D-03 -0.200928D-03
     34  0.154195D-02  0.541810D-03 -0.234956D-02 -0.194493D-02  0.171620D-02
     35 -0.442841D-03 -0.166795D-02  0.682651D-02  0.762556D-03 -0.382047D-02
     36  0.106722D-02  0.339330D-02 -0.307237D-03 -0.156506D-02 -0.440029D-02
               21            22            23            24            25 
     21  0.960766D-01
     22 -0.294113D-02  0.655489D-01
     23  0.309977D-01  0.237536D-01  0.328882D+00
     24  0.812628D-02 -0.907997D-01  0.138335D+00  0.568268D+00
     25 -0.967526D-03 -0.109269D-01 -0.240690D-02  0.802002D-02  0.134838D+00
     26 -0.174588D-02 -0.410057D-02  0.481354D-03  0.109841D-02  0.670516D-01
     27  0.239456D-02  0.590924D-02  0.131396D-03 -0.152865D-02 -0.866583D-01
     28  0.500651D-04  0.689828D-04 -0.323181D-04  0.103233D-03 -0.774071D-02
     29  0.725339D-04  0.691947D-04  0.163609D-03 -0.147292D-03  0.380616D-02
     30  0.516438D-03  0.395052D-03  0.131711D-03  0.448555D-03  0.278806D-02
     31 -0.723292D-05  0.303041D-04 -0.669193D-04  0.617242D-04 -0.914000D-02
     32  0.448371D-03 -0.385110D-03  0.414982D-03  0.151554D-03 -0.325754D-02
     33  0.437287D-04 -0.129000D-05 -0.148941D-03  0.217694D-03 -0.302588D-02
     34 -0.565465D-03 -0.678343D-02  0.122676D-01  0.326716D-01 -0.102198D-02
     35 -0.346425D-02  0.191850D-01 -0.182711D+00 -0.245654D+00 -0.118484D-02
     36  0.591755D-02  0.372453D-01 -0.203915D+00 -0.363549D+00 -0.151457D-02
               26            27            28            29            30 
     26  0.191231D+00
     27 -0.142545D+00  0.258257D+00
     28  0.228492D-02  0.523651D-02  0.999854D-02
     29  0.809004D-03 -0.176755D-02  0.129792D-02  0.124429D+00
     30 -0.928686D-03  0.430668D-02  0.327676D-02  0.101907D+00  0.372570D+00
     31 -0.556649D-02 -0.101213D-02 -0.121297D-02 -0.112644D-02 -0.130741D-02
     32  0.397324D-02 -0.146471D-02 -0.269247D-02 -0.528417D-01 -0.860945D-01
     33 -0.216645D-02  0.169205D-02 -0.296819D-02 -0.962400D-01 -0.103357D-01
     34  0.124162D-03 -0.392305D-03 -0.786578D-04  0.113562D-04 -0.306952D-03
     35 -0.389916D-03  0.402108D-03 -0.974471D-05 -0.239406D-04 -0.850934D-04
     36 -0.445655D-03  0.556124D-03  0.237611D-04  0.116637D-04 -0.272658D-04
               31            32            33            34            35 
     31  0.113947D-01
     32  0.117228D-01  0.401251D+00
     33  0.328655D-02  0.362124D-01  0.920983D-01
     34 -0.469356D-04  0.675952D-04 -0.635891D-04  0.100616D-01
     35 -0.133204D-04 -0.180329D-03  0.113364D-04 -0.140833D-01  0.174171D+00
     36  0.310987D-04 -0.938986D-04 -0.716311D-05 -0.407607D-01  0.216524D+00
               36 
     36  0.391488D+00
 FormGI is forming the generalized inverse of G from B-inverse, IUseBI=4.
 Leave Link  716 at Fri May 23 04:18:45 2025, MaxMem=  3758096384 cpu:               0.1 elap:               0.0
 (Enter /apps/easybuild-2022/easybuild/software/Compiler/NVHPC/22.11-CUDA-11.7.0/Gaussian/g16c01-CUDA-11.7.0/g16/l103.exe)

 GradGradGradGradGradGradGradGradGradGradGradGradGradGradGradGradGradGrad
 Berny optimization.
 Red2BG is reusing G-inverse.
 Internal  Forces:  Max     0.019503828 RMS     0.005433341
 Search for a local minimum.
 Step number   1 out of a maximum of   63
 All quantities printed in internal units (Hartrees-Bohrs-Radians)
 RMS Force = .54333D-02 SwitMx=.10000D-02 MixMth= 1
 Mixed Optimization -- RFO/linear search
 Second derivative matrix not updated -- analytic derivatives used.
 ITU=  0
     Eigenvalues ---    0.00196   0.00266   0.00300   0.00381   0.00905
     Eigenvalues ---    0.01182   0.02068   0.06392   0.06578   0.09200
     Eigenvalues ---    0.10477   0.10949   0.13339   0.13962   0.16040
     Eigenvalues ---    0.18586   0.19734   0.22637   0.24560   0.28835
     Eigenvalues ---    0.29146   0.33830   0.38535   0.39458   0.40429
     Eigenvalues ---    0.43569   0.52930   0.53846   0.69251   0.72233
 RFO step:  Lambda=-1.22635379D-02 EMin= 1.95841620D-03
 Linear search not attempted -- first point.
 Maximum step size (   0.300) exceeded in Quadratic search.
    -- Step size scaled by   0.671
 Iteration  1 RMS(Cart)=  0.07176169 RMS(Int)=  0.00085123
 Iteration  2 RMS(Cart)=  0.00073408 RMS(Int)=  0.00047944
 Iteration  3 RMS(Cart)=  0.00000224 RMS(Int)=  0.00047944
 Iteration  4 RMS(Cart)=  0.00000001 RMS(Int)=  0.00047944
 ITry= 1 IFail=0 DXMaxC= 2.34D-01 DCOld= 1.00D+10 DXMaxT= 3.00D-01 DXLimC= 3.00D+00 Rises=F
 Variable       Old X    -DE/DX   Delta X   Delta X   Delta X     New X
                                 (Linear)    (Quad)   (Total)
    R1        4.69902   0.01009   0.00000   0.12364   0.12365   4.82267
    R2        2.45535  -0.00206   0.00000  -0.00089  -0.00166   2.45369
    R3        2.45736  -0.00228   0.00000  -0.00088  -0.00163   2.45573
    R4        2.50346  -0.00072   0.00000  -0.00114  -0.00114   2.50232
    R5        2.48782  -0.00067   0.00000  -0.00064  -0.00064   2.48718
    R6        3.44257   0.01950   0.00000   0.04897   0.04897   3.49154
    R7        2.51511   0.01040   0.00000   0.00008   0.00008   2.51519
    R8        2.69582   0.00074   0.00000   0.00050   0.00050   2.69631
    R9        2.71267   0.00042   0.00000   0.00044   0.00044   2.71310
   R10        3.02509   0.00158   0.00000   0.00267   0.00267   3.02776
   R11        1.82583   0.00004   0.00000   0.00004   0.00004   1.82587
   R12        4.87951   0.00606   0.00000   0.16124   0.16161   5.04112
   R13        4.85607   0.00644   0.00000   0.15701   0.15738   5.01345
    A1        1.83696  -0.00188   0.00000  -0.00520  -0.00640   1.83056
    A2        1.91961   0.00282   0.00000  -0.00046  -0.00066   1.91895
    A3        1.92323  -0.00392   0.00000  -0.00654  -0.00656   1.91667
    A4        1.92737  -0.00405   0.00000  -0.01211  -0.01220   1.91518
    A5        1.95643  -0.00514   0.00000  -0.01458  -0.01463   1.94180
    A6        1.92513  -0.00356   0.00000  -0.00822  -0.00816   1.91697
    A7        1.80973   0.01413   0.00000   0.04347   0.04350   1.85323
    A8        1.85414   0.00434   0.00000   0.01225   0.01220   1.86634
    A9        1.84466   0.00424   0.00000   0.01246   0.01240   1.85707
   A10        1.73136   0.00448   0.00000   0.00067   0.00070   1.73206
   A11        2.17241  -0.00269   0.00000  -0.00445  -0.00469   2.16773
   A12        1.89016  -0.00405   0.00000  -0.00984  -0.00988   1.88029
   A13        1.91813  -0.00371   0.00000  -0.00771  -0.00776   1.91037
   A14        1.92481   0.00015   0.00000  -0.00082  -0.00082   1.92398
   A15        1.57601   0.01275   0.00000   0.08539   0.08465   1.66065
   A16        1.86751   0.01157   0.00000   0.07541   0.07521   1.94272
   A17        1.87343   0.01083   0.00000   0.06958   0.06933   1.94276
   A18        0.82522  -0.00252   0.00000  -0.03068  -0.03032   0.79490
    D1       -1.30880   0.00052   0.00000  -0.03209  -0.03203  -1.34083
    D2        3.01697  -0.00265   0.00000  -0.01572  -0.01575   3.00122
    D3       -0.92824  -0.00020   0.00000  -0.00459  -0.00454  -0.93279
    D4        1.05808  -0.00124   0.00000  -0.00892  -0.00892   1.04916
    D5        0.87296   0.00015   0.00000  -0.00021  -0.00031   0.87264
    D6       -3.07226   0.00260   0.00000   0.01092   0.01090  -3.06136
    D7       -1.08593   0.00155   0.00000   0.00659   0.00652  -1.07941
    D8       -1.20341  -0.00148   0.00000  -0.00912  -0.00910  -1.21252
    D9        1.13456   0.00096   0.00000   0.00201   0.00211   1.13667
   D10        3.12088  -0.00008   0.00000  -0.00233  -0.00227   3.11862
   D11       -1.03640   0.00066   0.00000   0.00344   0.00342  -1.03298
   D12       -1.47018   0.00060   0.00000   0.01141   0.01017  -1.46001
   D13       -0.60396   0.00114   0.00000  -0.00024   0.00088  -0.60307
   D14        1.08910  -0.00087   0.00000  -0.01069  -0.01065   1.07845
   D15        0.65532  -0.00094   0.00000  -0.00271  -0.00390   0.65142
   D16        1.52154  -0.00040   0.00000  -0.01437  -0.01319   1.50835
   D17       -3.09633  -0.00064   0.00000  -0.00715  -0.00709  -3.10342
   D18        2.75308  -0.00070   0.00000   0.00082  -0.00034   2.75274
   D19       -2.66389  -0.00016   0.00000  -0.01083  -0.00963  -2.67351
   D20       -1.63180  -0.00015   0.00000   0.00255   0.00255  -1.62925
   D21        2.72104  -0.00555   0.00000  -0.00821  -0.00812   2.71292
   D22        0.29658   0.00540   0.00000   0.01427   0.01418   0.31076
         Item               Value     Threshold  Converged?
 Maximum Force            0.019504     0.000450     NO 
 RMS     Force            0.005433     0.000300     NO 
 Maximum Displacement     0.233654     0.001800     NO 
 RMS     Displacement     0.072117     0.001200     NO 
 Predicted change in Energy=-6.034618D-03
 Lowest energy point so far.  Saving SCF results.
 GradGradGradGradGradGradGradGradGradGradGradGradGradGradGradGradGradGrad

 Leave Link  103 at Fri May 23 04:18:46 2025, MaxMem=  3758096384 cpu:               0.1 elap:               0.1
 (Enter /apps/easybuild-2022/easybuild/software/Compiler/NVHPC/22.11-CUDA-11.7.0/Gaussian/g16c01-CUDA-11.7.0/g16/l202.exe)
                          Input orientation:                          
 ---------------------------------------------------------------------
 Center     Atomic      Atomic             Coordinates (Angstroms)
 Number     Number       Type             X           Y           Z
 ---------------------------------------------------------------------
      1          6           0       -2.913384   -0.034438    0.247447
      2          6           0        0.022171    0.215986   -0.215018
      3          9           0       -0.442147   -0.196521   -1.384494
      4          9           0       -0.322258    1.469977   -0.012162
      5         16           0        1.857308    0.008242   -0.161100
      6          8           0        2.312077    0.639807    1.034787
      7          8           0        2.120367   -1.361750   -0.500495
      8          8           0        2.259133    0.949986   -1.393483
      9          9           0       -0.466551   -0.549623    0.757866
     10          9           0       -2.891691    0.268651    1.509828
     11          9           0       -2.942681   -1.333253    0.216465
     12          1           0        2.330512    0.428122   -2.203495
 ---------------------------------------------------------------------
                    Distance matrix (angstroms):
                    1          2          3          4          5
     1  C    0.000000
     2  C    2.982293   0.000000
     3  F    2.965891   1.324170   0.000000
     4  F    3.007424   1.316160   2.162148   0.000000
     5  S    4.788343   1.847644   2.612683   2.628566   0.000000
     6  O    5.327284   2.642973   3.760068   2.953812   1.426828
     7  O    5.259261   2.640677   2.950542   3.771414   1.435711
     8  O    5.515131   2.632781   2.934532   2.973553   1.602221
     9  F    2.552045   1.330981   2.171401   2.166229   2.560475
    10  F    1.298437   3.386512   3.820176   3.218948   5.041111
    11  F    1.299515   3.372932   3.179292   3.844085   4.998206
    12  H    5.806851   3.054092   2.957800   3.595078   2.138129
                    6          7          8          9         10
     6  O    0.000000
     7  O    2.529837   0.000000
     8  O    2.448573   2.482098   0.000000
     9  F    3.035161   2.989175   3.782392   0.000000
    10  F    5.238570   5.640951   5.951842   2.667644   0.000000
    11  F    5.672310   5.113639   5.904574   2.653001   2.059486
    12  H    3.245246   2.479519   0.966207   4.189177   6.409805
                   11         12
    11  F    0.000000
    12  H    6.063433   0.000000
 Symmetry turned off by external request.
 Stoichiometry    C2HF5O3S
 Rotational constants (GHZ):           2.0442016           0.5388365           0.5241304
 Leave Link  202 at Fri May 23 04:18:46 2025, MaxMem=  3758096384 cpu:               0.1 elap:               0.0
 (Enter /apps/easybuild-2022/easybuild/software/Compiler/NVHPC/22.11-CUDA-11.7.0/Gaussian/g16c01-CUDA-11.7.0/g16/l301.exe)
 Standard basis: 6-311++G(d,p) (5D, 7F)
 Ernie: Thresh=  0.10000D-02 Tol=  0.10000D-05 Strict=F.
   257 basis functions,   419 primitive gaussians,   268 cartesian basis functions
    49 alpha electrons       49 beta electrons
       nuclear repulsion energy       868.0055599776 Hartrees.
 IExCor= 4639 DFT=T Ex+Corr=wB97XD ExCW=0 ScaHFX=  1.000000
 ScaDFX=  1.000000  1.000000  1.000000  1.000000 ScalE2=  1.000000  1.000000
 IRadAn=      5 IRanWt=     -1 IRanGd=            0 ICorTp=0 IEmpDi=121
 HFx  wShort=  0.000000 wLong=  0.200000 cFull=  0.222036 cShort=  0.000000 cLong=  0.777964
 DFx  wShort=  0.000000 wLong=  0.200000 cFull=  0.000000 cShort=  0.000000 cLong=  1.000000
 NAtoms=   12 NActive=   12 NUniq=   12 SFac= 1.00D+00 NAtFMM=   60 NAOKFM=F Big=F
 Integral buffers will be    131072 words long.
 Raffenetti 2 integral format.
 Two-electron integral symmetry is turned off.
 R6Disp:  Grimme-D2 Dispersion energy=       -0.0051504189 Hartrees.
 Nuclear repulsion after empirical dispersion term =      868.0004095587 Hartrees.
 Leave Link  301 at Fri May 23 04:18:46 2025, MaxMem=  3758096384 cpu:               0.1 elap:               0.1
 (Enter /apps/easybuild-2022/easybuild/software/Compiler/NVHPC/22.11-CUDA-11.7.0/Gaussian/g16c01-CUDA-11.7.0/g16/l302.exe)
 NPDir=0 NMtPBC=     1 NCelOv=     1 NCel=       1 NClECP=     1 NCelD=      1
         NCelK=      1 NCelE2=     1 NClLst=     1 CellRange=     0.0.
 One-electron integrals computed using PRISM.
 NBasis=   257 RedAO= T EigKep=  7.26D-05  NBF=   257
 NBsUse=   257 1.00D-06 EigRej= -1.00D+00 NBFU=   257
 Precomputing XC quadrature grid using
 IXCGrd= 4 IRadAn=           5 IRanWt=          -1 IRanGd=           0 AccXCQ= 0.00D+00.
 Generated NRdTot=       0 NPtTot=           0 NUsed=           0 NTot=          32
 NSgBfM=   268   268   268   268   268 MxSgAt=    12 MxSgA2=    12.
 Leave Link  302 at Fri May 23 04:18:46 2025, MaxMem=  3758096384 cpu:               1.0 elap:               0.2
 (Enter /apps/easybuild-2022/easybuild/software/Compiler/NVHPC/22.11-CUDA-11.7.0/Gaussian/g16c01-CUDA-11.7.0/g16/l303.exe)
 DipDrv:  MaxL=1.
 Leave Link  303 at Fri May 23 04:18:46 2025, MaxMem=  3758096384 cpu:               0.1 elap:               0.1
 (Enter /apps/easybuild-2022/easybuild/software/Compiler/NVHPC/22.11-CUDA-11.7.0/Gaussian/g16c01-CUDA-11.7.0/g16/l401.exe)
 Initial guess from the checkpoint file:  "2003846667223680600001_r12_insertion_R_9_1_2_IRC_F_prod.chk"
 B after Tr=     0.000861    0.000569   -0.000835
         Rot=    1.000000   -0.000152   -0.000524    0.000013 Ang=  -0.06 deg.
 Guess basis will be translated and rotated to current coordinates.
 JPrj=2 DoOrth=T DoCkMO=T.
 Generating alternative initial guess.
 ExpMin= 3.60D-02 ExpMax= 9.34D+04 ExpMxC= 3.17D+03 IAcc=3 IRadAn=         5 AccDes= 0.00D+00
 Harris functional with IExCor= 4639 and IRadAn=       5 diagonalized for initial guess.
 HarFok:  IExCor= 4639 AccDes= 0.00D+00 IRadAn=         5 IDoV= 1 UseB2=F ITyADJ=14
 ICtDFT=  3500011 ScaDFX=  1.000000  1.000000  1.000000  1.000000
 FoFCou: FMM=F IPFlag=           0 FMFlag=      100000 FMFlg1=           0
         NFxFlg=           0 DoJE=T BraDBF=F KetDBF=T FulRan=T
         wScrn=  0.000000 ICntrl=       500 IOpCl=  0 I1Cent=   200000004 NGrid=           0
         NMat0=    1 NMatS0=      1 NMatT0=    0 NMatD0=    1 NMtDS0=    0 NMtDT0=    0
 Symmetry not used in FoFCou.
 Harris En= -1167.05724423426    
 Leave Link  401 at Fri May 23 04:18:47 2025, MaxMem=  3758096384 cpu:               2.8 elap:               1.4
 (Enter /apps/easybuild-2022/easybuild/software/Compiler/NVHPC/22.11-CUDA-11.7.0/Gaussian/g16c01-CUDA-11.7.0/g16/l502.exe)
 Keep R1 ints in memory in canonical form, NReq=1117474609.
 FoFCou: FMM=F IPFlag=           0 FMFlag=           0 FMFlg1=           0
         NFxFlg=           0 DoJE=F BraDBF=F KetDBF=F FulRan=T
         wScrn=  0.000000 ICntrl=       600 IOpCl=  0 I1Cent=           0 NGrid=           0
         NMat0=    1 NMatS0=  33153 NMatT0=    0 NMatD0=    1 NMtDS0=    0 NMtDT0=    0
 Symmetry not used in FoFCou.
 Two-electron integral symmetry not used.
 Closed shell SCF:
 Using DIIS extrapolation, IDIIS=  1040.
 NGot=  3758096384 LenX=  2658793876 LenY=  2658721611
 Requested convergence on RMS density matrix=1.00D-08 within  32 cycles.
 Requested convergence on MAX density matrix=1.00D-06.
 Requested convergence on             energy=1.00D-06.
 No special actions if energy rises.

 Cycle   1  Pass 1  IDiag  1:
 E= -1199.72873928147    
 DIIS: error= 1.62D-03 at cycle   1 NSaved=   1.
 NSaved= 1 IEnMin= 1 EnMin= -1199.72873928147     IErMin= 1 ErrMin= 1.62D-03
 ErrMax= 1.62D-03  0.00D+00 EMaxC= 1.00D-01 BMatC= 1.61D-03 BMatP= 1.61D-03
 IDIUse=3 WtCom= 9.84D-01 WtEn= 1.62D-02
 Coeff-Com:  0.100D+01
 Coeff-En:   0.100D+01
 Coeff:      0.100D+01
 Gap=     0.666 Goal=   None    Shift=    0.000
 GapD=    0.666 DampG=2.000 DampE=1.000 DampFc=2.0000 IDamp=-1.
 RMSDP=1.10D-03 MaxDP=7.99D-02              OVMax= 9.44D-03

 Cycle   2  Pass 1  IDiag  1:
 E= -1199.73089994888     Delta-E=       -0.002160667405 Rises=F Damp=F
 DIIS: error= 6.05D-04 at cycle   2 NSaved=   2.
 NSaved= 2 IEnMin= 2 EnMin= -1199.73089994888     IErMin= 2 ErrMin= 6.05D-04
 ErrMax= 6.05D-04  0.00D+00 EMaxC= 1.00D-01 BMatC= 9.51D-05 BMatP= 1.61D-03
 IDIUse=3 WtCom= 9.94D-01 WtEn= 6.05D-03
 Coeff-Com: -0.648D-01 0.106D+01
 Coeff-En:   0.000D+00 0.100D+01
 Coeff:     -0.644D-01 0.106D+01
 Gap=     0.383 Goal=   None    Shift=    0.000
 RMSDP=1.39D-04 MaxDP=6.20D-03 DE=-2.16D-03 OVMax= 3.25D-03

 Cycle   3  Pass 1  IDiag  1:
 E= -1199.73097118638     Delta-E=       -0.000071237499 Rises=F Damp=F
 DIIS: error= 4.81D-04 at cycle   3 NSaved=   3.
 NSaved= 3 IEnMin= 3 EnMin= -1199.73097118638     IErMin= 3 ErrMin= 4.81D-04
 ErrMax= 4.81D-04  0.00D+00 EMaxC= 1.00D-01 BMatC= 1.00D-04 BMatP= 9.51D-05
 IDIUse=3 WtCom= 9.95D-01 WtEn= 4.81D-03
 Coeff-Com: -0.846D-01 0.578D+00 0.506D+00
 Coeff-En:   0.000D+00 0.502D-01 0.950D+00
 Coeff:     -0.841D-01 0.576D+00 0.508D+00
 Gap=     0.383 Goal=   None    Shift=    0.000
 RMSDP=7.49D-05 MaxDP=4.20D-03 DE=-7.12D-05 OVMax= 1.68D-03

 Cycle   4  Pass 1  IDiag  1:
 E= -1199.73103641948     Delta-E=       -0.000065233106 Rises=F Damp=F
 DIIS: error= 7.20D-05 at cycle   4 NSaved=   4.
 NSaved= 4 IEnMin= 4 EnMin= -1199.73103641948     IErMin= 4 ErrMin= 7.20D-05
 ErrMax= 7.20D-05  0.00D+00 EMaxC= 1.00D-01 BMatC= 2.84D-06 BMatP= 9.51D-05
 IDIUse=1 WtCom= 1.00D+00 WtEn= 0.00D+00
 Coeff-Com: -0.178D-01 0.610D-01 0.147D+00 0.810D+00
 Coeff:     -0.178D-01 0.610D-01 0.147D+00 0.810D+00
 Gap=     0.383 Goal=   None    Shift=    0.000
 RMSDP=1.75D-05 MaxDP=7.19D-04 DE=-6.52D-05 OVMax= 4.16D-04

 Cycle   5  Pass 1  IDiag  1:
 E= -1199.73103851921     Delta-E=       -0.000002099731 Rises=F Damp=F
 DIIS: error= 4.98D-05 at cycle   5 NSaved=   5.
 NSaved= 5 IEnMin= 5 EnMin= -1199.73103851921     IErMin= 5 ErrMin= 4.98D-05
 ErrMax= 4.98D-05  0.00D+00 EMaxC= 1.00D-01 BMatC= 7.72D-07 BMatP= 2.84D-06
 IDIUse=1 WtCom= 1.00D+00 WtEn= 0.00D+00
 Coeff-Com:  0.705D-03-0.367D-01 0.144D-01 0.395D+00 0.627D+00
 Coeff:      0.705D-03-0.367D-01 0.144D-01 0.395D+00 0.627D+00
 Gap=     0.383 Goal=   None    Shift=    0.000
 RMSDP=5.67D-06 MaxDP=1.86D-04 DE=-2.10D-06 OVMax= 1.97D-04

 Cycle   6  Pass 1  IDiag  1:
 E= -1199.73103908427     Delta-E=       -0.000000565052 Rises=F Damp=F
 DIIS: error= 1.37D-05 at cycle   6 NSaved=   6.
 NSaved= 6 IEnMin= 6 EnMin= -1199.73103908427     IErMin= 6 ErrMin= 1.37D-05
 ErrMax= 1.37D-05  0.00D+00 EMaxC= 1.00D-01 BMatC= 6.44D-08 BMatP= 7.72D-07
 IDIUse=1 WtCom= 1.00D+00 WtEn= 0.00D+00
 Coeff-Com:  0.210D-02-0.241D-01-0.837D-02 0.956D-01 0.276D+00 0.659D+00
 Coeff:      0.210D-02-0.241D-01-0.837D-02 0.956D-01 0.276D+00 0.659D+00
 Gap=     0.383 Goal=   None    Shift=    0.000
 RMSDP=1.75D-06 MaxDP=5.09D-05 DE=-5.65D-07 OVMax= 6.33D-05

 Cycle   7  Pass 1  IDiag  1:
 E= -1199.73103913071     Delta-E=       -0.000000046447 Rises=F Damp=F
 DIIS: error= 3.30D-06 at cycle   7 NSaved=   7.
 NSaved= 7 IEnMin= 7 EnMin= -1199.73103913071     IErMin= 7 ErrMin= 3.30D-06
 ErrMax= 3.30D-06  0.00D+00 EMaxC= 1.00D-01 BMatC= 5.39D-09 BMatP= 6.44D-08
 IDIUse=1 WtCom= 1.00D+00 WtEn= 0.00D+00
 Coeff-Com:  0.732D-03-0.560D-02-0.486D-02-0.308D-02 0.431D-01 0.252D+00
 Coeff-Com:  0.718D+00
 Coeff:      0.732D-03-0.560D-02-0.486D-02-0.308D-02 0.431D-01 0.252D+00
 Coeff:      0.718D+00
 Gap=     0.383 Goal=   None    Shift=    0.000
 RMSDP=9.77D-07 MaxDP=5.14D-05 DE=-4.64D-08 OVMax= 2.45D-05

 Cycle   8  Pass 1  IDiag  1:
 E= -1199.73103913531     Delta-E=       -0.000000004601 Rises=F Damp=F
 DIIS: error= 2.02D-06 at cycle   8 NSaved=   8.
 NSaved= 8 IEnMin= 8 EnMin= -1199.73103913531     IErMin= 8 ErrMin= 2.02D-06
 ErrMax= 2.02D-06  0.00D+00 EMaxC= 1.00D-01 BMatC= 1.08D-09 BMatP= 5.39D-09
 IDIUse=1 WtCom= 1.00D+00 WtEn= 0.00D+00
 Coeff-Com:  0.740D-04 0.537D-03-0.122D-02-0.138D-01-0.151D-01 0.308D-01
 Coeff-Com:  0.341D+00 0.658D+00
 Coeff:      0.740D-04 0.537D-03-0.122D-02-0.138D-01-0.151D-01 0.308D-01
 Coeff:      0.341D+00 0.658D+00
 Gap=     0.383 Goal=   None    Shift=    0.000
 RMSDP=2.64D-07 MaxDP=7.56D-06 DE=-4.60D-09 OVMax= 1.31D-05

 Cycle   9  Pass 1  IDiag  1:
 E= -1199.73103913621     Delta-E=       -0.000000000901 Rises=F Damp=F
 DIIS: error= 4.58D-07 at cycle   9 NSaved=   9.
 NSaved= 9 IEnMin= 9 EnMin= -1199.73103913621     IErMin= 9 ErrMin= 4.58D-07
 ErrMax= 4.58D-07  0.00D+00 EMaxC= 1.00D-01 BMatC= 1.27D-10 BMatP= 1.08D-09
 IDIUse=1 WtCom= 1.00D+00 WtEn= 0.00D+00
 Coeff-Com: -0.937D-04 0.122D-02 0.313D-03-0.560D-02-0.137D-01-0.288D-01
 Coeff-Com:  0.297D-01 0.287D+00 0.730D+00
 Coeff:     -0.937D-04 0.122D-02 0.313D-03-0.560D-02-0.137D-01-0.288D-01
 Coeff:      0.297D-01 0.287D+00 0.730D+00
 Gap=     0.383 Goal=   None    Shift=    0.000
 RMSDP=1.55D-07 MaxDP=8.16D-06 DE=-9.01D-10 OVMax= 3.95D-06

 Cycle  10  Pass 1  IDiag  1:
 E= -1199.73103913632     Delta-E=       -0.000000000102 Rises=F Damp=F
 DIIS: error= 9.27D-08 at cycle  10 NSaved=  10.
 NSaved=10 IEnMin=10 EnMin= -1199.73103913632     IErMin=10 ErrMin= 9.27D-08
 ErrMax= 9.27D-08  0.00D+00 EMaxC= 1.00D-01 BMatC= 6.79D-12 BMatP= 1.27D-10
 IDIUse=1 WtCom= 1.00D+00 WtEn= 0.00D+00
 Coeff-Com: -0.329D-04 0.305D-03 0.187D-03-0.549D-03-0.261D-02-0.103D-01
 Coeff-Com: -0.197D-01 0.243D-01 0.193D+00 0.815D+00
 Coeff:     -0.329D-04 0.305D-03 0.187D-03-0.549D-03-0.261D-02-0.103D-01
 Coeff:     -0.197D-01 0.243D-01 0.193D+00 0.815D+00
 Gap=     0.383 Goal=   None    Shift=    0.000
 RMSDP=3.65D-08 MaxDP=1.56D-06 DE=-1.02D-10 OVMax= 1.65D-06

 Cycle  11  Pass 1  IDiag  1:
 E= -1199.73103913635     Delta-E=       -0.000000000032 Rises=F Damp=F
 DIIS: error= 6.91D-08 at cycle  11 NSaved=  11.
 NSaved=11 IEnMin=11 EnMin= -1199.73103913635     IErMin=11 ErrMin= 6.91D-08
 ErrMax= 6.91D-08  0.00D+00 EMaxC= 1.00D-01 BMatC= 1.86D-12 BMatP= 6.79D-12
 IDIUse=1 WtCom= 1.00D+00 WtEn= 0.00D+00
 Coeff-Com:  0.762D-06-0.673D-04 0.340D-04 0.686D-03 0.109D-02-0.515D-04
 Coeff-Com: -0.143D-01-0.358D-01-0.339D-01 0.366D+00 0.716D+00
 Coeff:      0.762D-06-0.673D-04 0.340D-04 0.686D-03 0.109D-02-0.515D-04
 Coeff:     -0.143D-01-0.358D-01-0.339D-01 0.366D+00 0.716D+00
 Gap=     0.383 Goal=   None    Shift=    0.000
 RMSDP=1.36D-08 MaxDP=5.11D-07 DE=-3.18D-11 OVMax= 5.25D-07

 Cycle  12  Pass 1  IDiag  1:
 E= -1199.73103913633     Delta-E=        0.000000000018 Rises=F Damp=F
 DIIS: error= 1.15D-08 at cycle  12 NSaved=  12.
 NSaved=12 IEnMin=11 EnMin= -1199.73103913635     IErMin=12 ErrMin= 1.15D-08
 ErrMax= 1.15D-08  0.00D+00 EMaxC= 1.00D-01 BMatC= 9.06D-14 BMatP= 1.86D-12
 IDIUse=1 WtCom= 1.00D+00 WtEn= 0.00D+00
 Coeff-Com:  0.303D-05-0.448D-04-0.466D-05 0.232D-03 0.511D-03 0.940D-03
 Coeff-Com: -0.166D-02-0.109D-01-0.272D-01 0.221D-01 0.191D+00 0.825D+00
 Coeff:      0.303D-05-0.448D-04-0.466D-05 0.232D-03 0.511D-03 0.940D-03
 Coeff:     -0.166D-02-0.109D-01-0.272D-01 0.221D-01 0.191D+00 0.825D+00
 Gap=     0.383 Goal=   None    Shift=    0.000
 RMSDP=4.01D-09 MaxDP=1.66D-07 DE= 1.77D-11 OVMax= 1.50D-07

 SCF Done:  E(RwB97XD) =  -1199.73103914     A.U. after   12 cycles
            NFock= 12  Conv=0.40D-08     -V/T= 2.0019
 KE= 1.197477275682D+03 PE=-4.582781578782D+03 EE= 1.317572854406D+03
 Leave Link  502 at Fri May 23 04:18:59 2025, MaxMem=  3758096384 cpu:              55.3 elap:              11.9
 (Enter /apps/easybuild-2022/easybuild/software/Compiler/NVHPC/22.11-CUDA-11.7.0/Gaussian/g16c01-CUDA-11.7.0/g16/l508.exe)
 QCSCF skips out because SCF is already converged.
 Leave Link  508 at Fri May 23 04:18:59 2025, MaxMem=  3758096384 cpu:               0.1 elap:               0.0
 (Enter /apps/easybuild-2022/easybuild/software/Compiler/NVHPC/22.11-CUDA-11.7.0/Gaussian/g16c01-CUDA-11.7.0/g16/l701.exe)
 ... and contract with generalized density number  0.
 Compute integral first derivatives.
 R6Disp: Adding Grimme-D2 dispersion energy 1st derivatives to the gradient.
 Leave Link  701 at Fri May 23 04:19:00 2025, MaxMem=  3758096384 cpu:               0.6 elap:               0.3
 (Enter /apps/easybuild-2022/easybuild/software/Compiler/NVHPC/22.11-CUDA-11.7.0/Gaussian/g16c01-CUDA-11.7.0/g16/l702.exe)
 L702 exits ... SP integral derivatives will be done elsewhere.
 Leave Link  702 at Fri May 23 04:19:00 2025, MaxMem=  3758096384 cpu:               0.1 elap:               0.0
 (Enter /apps/easybuild-2022/easybuild/software/Compiler/NVHPC/22.11-CUDA-11.7.0/Gaussian/g16c01-CUDA-11.7.0/g16/l703.exe)
 Integral derivatives from FoFJK, PRISM(SPDF).
 Compute integral first derivatives, UseDBF=F ICtDFT=           0.
 Calling FoFJK, ICntrl=      2127 FMM=F ISym2X=0 I1Cent= 0 IOpClX= 0 NMat=1 NMatS=1 NMatT=0.
 FoFJK:  IHMeth= 1 ICntrl=    2127 DoSepK=T KAlg= 0 I1Cent=           0 FoldK=F
 IRaf=         1 NMat=       1 IRICut=       1 DoRegI=T DoRafI=F ISym2E= 0 IDoP0=0 IntGTp=1.
 FoFCou: FMM=F IPFlag=           0 FMFlag=      100000 FMFlg1=         800
         NFxFlg=           0 DoJE=F BraDBF=F KetDBF=F FulRan=T
         wScrn=  0.000000 ICntrl=      2527 IOpCl=  0 I1Cent=           0 NGrid=           0
         NMat0=    1 NMatS0=      1 NMatT0=    0 NMatD0=    1 NMtDS0=    0 NMtDT0=    0
 Symmetry not used in FoFCou.
 Leave Link  703 at Fri May 23 04:19:16 2025, MaxMem=  3758096384 cpu:              31.6 elap:              15.9
 (Enter /apps/easybuild-2022/easybuild/software/Compiler/NVHPC/22.11-CUDA-11.7.0/Gaussian/g16c01-CUDA-11.7.0/g16/l716.exe)
 Dipole        =-2.05100430D-01 3.03469292D-02-9.54469865D-01
 -------------------------------------------------------------------
 Center     Atomic                   Forces (Hartrees/Bohr)
 Number     Number              X              Y              Z
 -------------------------------------------------------------------
      1        6          -0.005905160   -0.000236077    0.000474063
      2        6           0.001195413   -0.000952989    0.001037382
      3        9           0.000680050    0.000075897   -0.000153298
      4        9           0.000835744    0.000217076   -0.000118417
      5       16           0.003217073    0.000136888   -0.000300935
      6        8           0.001808075    0.000283299   -0.000492168
      7        8           0.001763530    0.000219405   -0.000328542
      8        8           0.001337442    0.000119888   -0.000251837
      9        9           0.003356883    0.001026882   -0.001535913
     10        9          -0.004003246    0.000367986    0.001618360
     11        9          -0.004280004   -0.001264181    0.000082476
     12        1          -0.000005798    0.000005925   -0.000031169
 -------------------------------------------------------------------
 Cartesian Forces:  Max     0.005905160 RMS     0.001766874
 Leave Link  716 at Fri May 23 04:19:16 2025, MaxMem=  3758096384 cpu:               0.1 elap:               0.1
 (Enter /apps/easybuild-2022/easybuild/software/Compiler/NVHPC/22.11-CUDA-11.7.0/Gaussian/g16c01-CUDA-11.7.0/g16/l103.exe)

 GradGradGradGradGradGradGradGradGradGradGradGradGradGradGradGradGradGrad
 Berny optimization.
 Using GEDIIS/GDIIS optimizer.
 FormGI is forming the generalized inverse of G from B-inverse, IUseBI=4.
 Internal  Forces:  Max     0.007939331 RMS     0.002552909
 Search for a local minimum.
 Step number   2 out of a maximum of   63
 All quantities printed in internal units (Hartrees-Bohrs-Radians)
 RMS Force = .25529D-02 SwitMx=.10000D-02 MixMth= 1
 Mixed Optimization -- RFO/linear search
 Update second derivatives using D2CorX and points    1    2
 DE= -6.24D-03 DEPred=-6.03D-03 R= 1.03D+00
 TightC=F SS=  1.41D+00  RLast= 3.04D-01 DXNew= 5.0454D-01 9.1235D-01
 Trust test= 1.03D+00 RLast= 3.04D-01 DXMaxT set to 5.05D-01
 ITU=  1  0
 Use linear search instead of GDIIS.
 Linear search step of   0.600 exceeds DXMaxT=   0.505 but not scaled.
 Quartic linear search produced a step of  2.00000.
 Iteration  1 RMS(Cart)=  0.12313653 RMS(Int)=  0.02268129
 Iteration  2 RMS(Cart)=  0.02009616 RMS(Int)=  0.00284695
 Iteration  3 RMS(Cart)=  0.00010609 RMS(Int)=  0.00284413
 Iteration  4 RMS(Cart)=  0.00000210 RMS(Int)=  0.00284413
 Iteration  5 RMS(Cart)=  0.00000009 RMS(Int)=  0.00284413
 ITry= 1 IFail=0 DXMaxC= 4.56D-01 DCOld= 1.00D+10 DXMaxT= 5.05D-01 DXLimC= 3.00D+00 Rises=F
 Variable       Old X    -DE/DX   Delta X   Delta X   Delta X     New X
                                 (Linear)    (Quad)   (Total)
    R1        4.82267   0.00570   0.24730   0.00000   0.24716   5.06983
    R2        2.45369  -0.00058  -0.00331   0.00000  -0.00773   2.44597
    R3        2.45573  -0.00077  -0.00326   0.00000  -0.00775   2.44798
    R4        2.50232  -0.00013  -0.00227   0.00000  -0.00227   2.50005
    R5        2.48718  -0.00003  -0.00129   0.00000  -0.00129   2.48590
    R6        3.49154   0.00794   0.09794   0.00000   0.09794   3.58949
    R7        2.51519   0.00450   0.00017   0.00000   0.00017   2.51536
    R8        2.69631   0.00029   0.00099   0.00000   0.00099   2.69731
    R9        2.71310   0.00019   0.00087   0.00000   0.00087   2.71397
   R10        3.02776   0.00062   0.00534   0.00000   0.00534   3.03310
   R11        1.82587   0.00002   0.00007   0.00000   0.00007   1.82594
   R12        5.04112   0.00442   0.32322   0.00000   0.32524   5.36636
   R13        5.01345   0.00464   0.31475   0.00000   0.31692   5.33037
    A1        1.83056  -0.00009  -0.01280   0.00000  -0.01973   1.81084
    A2        1.91895   0.00106  -0.00131   0.00000  -0.00248   1.91647
    A3        1.91667  -0.00185  -0.01311   0.00000  -0.01322   1.90345
    A4        1.91518  -0.00125  -0.02440   0.00000  -0.02493   1.89024
    A5        1.94180  -0.00228  -0.02927   0.00000  -0.02960   1.91220
    A6        1.91697  -0.00107  -0.01633   0.00000  -0.01603   1.90094
    A7        1.85323   0.00548   0.08700   0.00000   0.08715   1.94039
    A8        1.86634   0.00169   0.02439   0.00000   0.02404   1.89038
    A9        1.85707   0.00167   0.02481   0.00000   0.02445   1.88151
   A10        1.73206   0.00138   0.00140   0.00000   0.00155   1.73361
   A11        2.16773  -0.00107  -0.00937   0.00000  -0.01077   2.15696
   A12        1.88029  -0.00150  -0.01976   0.00000  -0.01996   1.86033
   A13        1.91037  -0.00140  -0.01551   0.00000  -0.01574   1.89463
   A14        1.92398   0.00003  -0.00165   0.00000  -0.00165   1.92233
   A15        1.66065   0.00684   0.16930   0.00000   0.16419   1.82485
   A16        1.94272   0.00605   0.15042   0.00000   0.14833   2.09105
   A17        1.94276   0.00575   0.13866   0.00000   0.13580   2.07857
   A18        0.79490  -0.00102  -0.06065   0.00000  -0.05856   0.73634
    D1       -1.34083   0.00008  -0.06407   0.00000  -0.06340  -1.40423
    D2        3.00122  -0.00130  -0.03151   0.00000  -0.03172   2.96950
    D3       -0.93279  -0.00025  -0.00908   0.00000  -0.00883  -0.94161
    D4        1.04916  -0.00072  -0.01783   0.00000  -0.01779   1.03137
    D5        0.87264   0.00015  -0.00063   0.00000  -0.00124   0.87140
    D6       -3.06136   0.00120   0.02180   0.00000   0.02165  -3.03971
    D7       -1.07941   0.00073   0.01305   0.00000   0.01269  -1.06672
[...]
   D20       -1.59357  -0.00000   0.00000  -0.00009  -0.00009  -1.59365
   D21        2.73695   0.00000   0.00000  -0.00007  -0.00007   2.73688
   D22        0.35620  -0.00000   0.00000  -0.00008  -0.00008   0.35611
         Item               Value     Threshold  Converged?
 Maximum Force            0.000022     0.000450     YES
 RMS     Force            0.000005     0.000300     YES
 Maximum Displacement     0.009500     0.001800     NO 
 RMS     Displacement     0.001877     0.001200     NO 
 Predicted change in Energy=-1.889425D-08
                           ----------------------------
                           ! Non-Optimized Parameters !
                           ! (Angstroms and Degrees)  !
 --------------------------                            --------------------------
 ! Name  Definition              Value          Derivative Info.                !
 --------------------------------------------------------------------------------
 ! R1    R(1,9)                  3.412          -DE/DX =    0.0                 !
 ! R2    R(1,10)                 1.2992         -DE/DX =    0.0                 !
 ! R3    R(1,11)                 1.2991         -DE/DX =    0.0                 !
 ! R4    R(2,3)                  1.3259         -DE/DX =    0.0                 !
 ! R5    R(2,4)                  1.319          -DE/DX =    0.0                 !
 ! R6    R(2,5)                  1.8707         -DE/DX =    0.0                 !
 ! R7    R(2,9)                  1.3202         -DE/DX =    0.0                 !
 ! R8    R(5,6)                  1.4278         -DE/DX =    0.0                 !
 ! R9    R(5,7)                  1.4366         -DE/DX =    0.0                 !
 ! R10   R(5,8)                  1.6052         -DE/DX =    0.0                 !
 ! R11   R(8,12)                 0.966          -DE/DX =    0.0                 !
 ! R12   R(9,10)                 4.1953         -DE/DX =    0.0                 !
 ! R13   R(9,11)                 4.2833         -DE/DX =    0.0                 !
 ! A1    A(10,1,11)            104.7545         -DE/DX =    0.0                 !
 ! A2    A(3,2,4)              109.7421         -DE/DX =    0.0                 !
 ! A3    A(3,2,5)              108.8345         -DE/DX =    0.0                 !
 ! A4    A(3,2,9)              109.8542         -DE/DX =    0.0                 !
 ! A5    A(4,2,5)              109.9315         -DE/DX =    0.0                 !
 ! A6    A(4,2,9)              110.0528         -DE/DX =    0.0                 !
 ! A7    A(5,2,9)              108.3991         -DE/DX =    0.0                 !
 ! A8    A(2,5,6)              107.7113         -DE/DX =    0.0                 !
 ! A9    A(2,5,7)              107.0322         -DE/DX =    0.0                 !
 ! A10   A(2,5,8)               99.2029         -DE/DX =    0.0                 !
 ! A11   A(6,5,7)              123.885          -DE/DX =    0.0                 !
 ! A12   A(6,5,8)              107.1743         -DE/DX =    0.0                 !
 ! A13   A(7,5,8)              109.0694         -DE/DX =    0.0                 !
 ! A14   A(5,8,12)             110.0743         -DE/DX =    0.0                 !
 ! A15   A(1,9,2)               87.202          -DE/DX =    0.0                 !
 ! A16   A(2,9,10)              83.0955         -DE/DX =    0.0                 !
 ! A17   A(2,9,11)              99.5754         -DE/DX =    0.0                 !
 ! A18   A(10,9,11)             28.0698         -DE/DX =    0.0                 !
 ! D1    D(9,1,10,11)         -144.3571         -DE/DX =    0.0                 !
 ! D2    D(3,2,5,6)            168.5906         -DE/DX =    0.0                 !
 ! D3    D(3,2,5,7)            -56.1785         -DE/DX =    0.0                 !
 ! D4    D(3,2,5,8)             57.1366         -DE/DX =    0.0                 !
 ! D5    D(4,2,5,6)             48.3703         -DE/DX =    0.0                 !
 ! D6    D(4,2,5,7)           -176.3988         -DE/DX =    0.0                 !
 ! D7    D(4,2,5,8)            -63.0837         -DE/DX =    0.0                 !
 ! D8    D(9,2,5,6)            -71.9612         -DE/DX =    0.0                 !
 ! D9    D(9,2,5,7)             63.2697         -DE/DX =    0.0                 !
 ! D10   D(9,2,5,8)            176.5848         -DE/DX =    0.0                 !
 ! D11   D(3,2,9,1)            -65.6877         -DE/DX =    0.0                 !
 ! D12   D(3,2,9,10)           -80.9468         -DE/DX =    0.0                 !
 ! D13   D(3,2,9,11)           -58.1385         -DE/DX =    0.0                 !
 ! D14   D(4,2,9,1)             55.2506         -DE/DX =    0.0                 !
 ! D15   D(4,2,9,10)            39.9915         -DE/DX =    0.0                 !
 ! D16   D(4,2,9,11)            62.7998         -DE/DX =    0.0                 !
 ! D17   D(5,2,9,1)            175.5065         -DE/DX =    0.0                 !
 ! D18   D(5,2,9,10)           160.2475         -DE/DX =    0.0                 !
 ! D19   D(5,2,9,11)          -176.9442         -DE/DX =    0.0                 !
 ! D20   D(2,5,8,12)           -91.3097         -DE/DX =    0.0                 !
 ! D21   D(6,5,8,12)           156.8115         -DE/DX =    0.0                 !
 ! D22   D(7,5,8,12)            20.4037         -DE/DX =    0.0                 !
 --------------------------------------------------------------------------------
 GradGradGradGradGradGradGradGradGradGradGradGradGradGradGradGradGradGrad

 Leave Link  103 at Fri May 23 04:39:51 2025, MaxMem=  3758096384 cpu:               0.1 elap:               0.0
 (Enter /apps/easybuild-2022/easybuild/software/Compiler/NVHPC/22.11-CUDA-11.7.0/Gaussian/g16c01-CUDA-11.7.0/g16/l9999.exe)

 ----------------------------------------------------------------------

 Electric dipole moment (input orientation):
 (Debye = 10**-18 statcoulomb cm , SI units = C m)
                  (au)            (Debye)         (10**-30 SI)
   Tot        0.118825D+01      0.302024D+01      0.100744D+02
   x         -0.757985D+00     -0.192661D+01     -0.642647D+01
   y          0.122228D+00      0.310673D+00      0.103629D+01
   z         -0.906900D+00     -0.230511D+01     -0.768902D+01

 Dipole polarizability, Alpha (input orientation).
 (esu units = cm**3 , SI units = C**2 m**2 J**-1)
 Alpha(0;0):
               (au)            (10**-24 esu)      (10**-40 SI)
   iso        0.578416D+02      0.857123D+01      0.953678D+01
   aniso      0.642951D+01      0.952755D+00      0.106008D+01
   xx         0.601346D+02      0.891103D+01      0.991486D+01
   yx         0.139429D+01      0.206613D+00      0.229888D+00
   yy         0.578236D+02      0.856857D+01      0.953382D+01
   zx        -0.114524D+01     -0.169707D+00     -0.188825D+00
   zy         0.230362D+01      0.341361D+00      0.379815D+00
   zz         0.555665D+02      0.823410D+01      0.916167D+01

 ----------------------------------------------------------------------

 Dipole orientation:
     6         -5.26583504          0.72599456          3.14239212
     6          0.57950152          0.15325428         -0.28206885
     9          1.21934154          1.13785456          1.93143357
     9         -0.57875247         -2.02572502          0.06884485
    16          3.50665771         -0.33348562         -2.20351352
     8          2.84434839         -1.84143464         -4.34077324
     8          4.75361226          2.07184610         -2.37617240
     8          5.04979893         -2.11499775         -0.29402374
     9         -0.91532998          1.72868876         -1.50981898
     9         -6.48815978         -1.40286639          3.17878034
     9         -6.89502936          2.39543201          3.90720314
     1          6.10294918         -1.09943921          0.79779562

 Electric dipole moment (dipole orientation):
 (Debye = 10**-18 statcoulomb cm , SI units = C m)
                  (au)            (Debye)         (10**-30 SI)
   Tot        0.118825D+01      0.302024D+01      0.100744D+02
   x          0.000000D+00      0.000000D+00      0.000000D+00
   y          0.000000D+00      0.000000D+00      0.000000D+00
   z          0.118825D+01      0.302024D+01      0.100744D+02

 Dipole polarizability, Alpha (dipole orientation).
 (esu units = cm**3 , SI units = C**2 m**2 J**-1)
 Alpha(0;0):
               (au)            (10**-24 esu)      (10**-40 SI)
   iso        0.578416D+02      0.857123D+01      0.953678D+01
   aniso      0.642951D+01      0.952755D+00      0.106008D+01
   xx         0.593669D+02      0.879727D+01      0.978829D+01
   yx         0.232994D+00      0.345262D-01      0.384155D-01
   yy         0.583683D+02      0.864930D+01      0.962364D+01
   zx        -0.216590D+01     -0.320953D+00     -0.357109D+00
   zy         0.237197D+01      0.351490D+00      0.391085D+00
   zz         0.557894D+02      0.826713D+01      0.919843D+01

 ----------------------------------------------------------------------
 Unable to Open any file for archive entry.
 1\1\GINC-SPARTAN-BM180\Freq\RwB97XD\6-311++G(d,p)\C2H1F5O3S1\AKHALILOV
 \23-May-2025\0\\#P Geom=AllCheck Guess=TCheck SCRF=Check GenChk RwB97X
 D/6-311++G(d,p) Freq\\Gaussian input prepared by ASE\\0,1\C,-3.2185270
 671,-0.3145233908,0.4688776644\C,0.3280860584,-0.0845538666,-0.0900376
 663\F,-0.1780462029,-0.4693673519,-1.2536041778\F,-0.2189308397,1.0578
 849272,0.2778257376\S,2.1777878582,0.1245259346,-0.2756063678\O,2.6593
 435258,0.788329372,0.8932395657\O,2.6962812957,-1.1255249005,-0.757726
 0162\O,2.1964435606,1.1959323942,-1.4707400931\F,0.1030244746,-1.00950
 26203,0.8246658475\F,-3.6864396357,0.7831707583,0.9826709251\F,-4.1727
 439765,-1.1831026796,0.619066844\H,2.2365779484,0.7419174232,-2.322485
 2632\\Version=ES64L-G16RevC.01\HF=-1199.7382666\RMSD=4.654e-09\RMSF=7.
 623e-06\ZeroPoint=0.0469879\Thermal=0.0599127\ETot=-1199.6783539\HTot=
 -1199.6774097\GTot=-1199.7371002\Dipole=-0.7579852,0.1222281,-0.906899
 9\DipoleDeriv=1.1175975,0.290821,-0.3978412,0.3065915,1.6708593,0.3856
 415,-0.4512344,0.3837391,0.1892851,1.8344086,0.0361416,-0.0863222,0.04
 70466,1.5167237,-0.0360386,-0.1023585,-0.0297768,1.5215171,-0.648857,-
 0.1352071,-0.2469323,-0.1444368,-0.3125302,-0.1588967,-0.2877193,-0.17
 10182,-0.7320214,-0.6820659,0.2783508,0.1557126,0.3181039,-0.6971734,-
 0.1654884,0.1521246,-0.1501698,-0.3046431,1.7947622,-0.0855771,0.06933
 74,-0.0434174,2.1671575,-0.0194113,0.0175538,0.0122705,2.3121814,-0.75
 893,-0.1017665,-0.1542478,-0.1713484,-0.645701,-0.2587064,-0.242957,-0
 .1942241,-0.8798571,-0.7845265,0.1939526,0.0696157,0.2875645,-0.983782
 7,-0.0998745,0.1511558,-0.2173288,-0.6489106,-0.6013593,-0.0198436,0.0
 500699,-0.1059881,-0.7157479,0.3997209,0.1545834,0.4833333,-1.1162536,
 -0.5058471,-0.1621028,0.1746078,-0.184299,-0.5747951,0.3440269,0.18846
 11,0.3327772,-0.5795965,-0.3132104,0.4801105,0.2845864,0.0879648,-0.95
 88597,-0.3245172,0.1927605,-0.492963,-0.1570948,-0.8075295,-0.7749639,
 0.1141011,-0.3959011,-0.6938134,-0.0618847,0.2614703,0.1091996,-0.0116
 749,0.3555574,0.0000844,-0.0326872,-0.0018805,0.227663,-0.0045716,-0.0
 338401,-0.0658391,0.4070683\Polar=60.1346206,1.3942928,57.8235663,-1.1
 452406,2.3036168,55.5664699\PG=Unknown\NImag=0\\0.41029956,0.02576971,
 0.36514363,-0.16363588,0.09397881,0.09855550,-0.00681947,0.00005775,0.
 00395924,0.49453737,0.00045182,0.00503844,0.00348296,-0.01114652,0.553
 42286,-0.00101478,0.00280250,-0.00509565,-0.00016925,0.00005662,0.5447
 9887,0.00172267,-0.00099168,0.00063640,-0.13092532,-0.03263192,-0.0920
 3080,0.11912314,0.00036858,-0.00103803,-0.00028218,-0.03138569,-0.0923
 9205,-0.05449451,0.03621807,0.10977539,0.00143631,-0.00141797,0.000904
 75,-0.08433632,-0.05201690,-0.22119158,0.11367867,0.08680960,0.3387116
 8,0.00150377,0.00053703,-0.00104936,-0.14046483,0.09955648,0.03442905,
 0.01915474,-0.00884091,-0.00204008,0.12841482,-0.00103171,-0.00310508,
 -0.00105282,0.09395195,-0.22937619,-0.05244611,0.00479405,-0.03260841,
 -0.04539438,-0.12650645,0.34625130,-0.00017588,-0.00117196,0.00072290,
 0.03400703,-0.05458483,-0.09223348,0.01189356,-0.05400577,-0.03306034,
 -0.03918678,0.08588844,0.10882889,-0.00335774,-0.00046670,0.00192554,-
 0.17276844,-0.01601713,0.01257315,-0.00391885,-0.00020646,0.00074406,-
 0.00357427,0.00014388,-0.00003161,0.57819491,-0.00033913,0.00128625,0.
 00074205,-0.02168510,-0.02310629,0.00038100,-0.01044609,-0.00251536,-0
 .00644542,0.03869889,-0.02282173,-0.01209127,-0.05764820,0.91895254,0.
 00027661,0.00066170,-0.00038310,0.02181969,0.00141858,-0.02288513,-0.0
 3894641,-0.01280911,-0.02641289,0.00880119,-0.00640556,-0.00148505,0.0
 7261779,0.31731528,0.88798909,0.00130799,0.00009844,-0.00068814,0.0182
 5802,-0.00715319,-0.02414545,-0.01300297,-0.00393039,-0.00703796,-0.00
 267658,0.00102326,0.00167351,-0.16673368,-0.09919047,-0.16786608,0.134
 18785,0.00049830,-0.00046630,-0.00037455,0.01218103,-0.00147971,-0.011
 52365,-0.00446514,-0.00017465,-0.00104331,-0.00544039,0.00645420,0.003
 75475,-0.09836011,-0.21694706,-0.23177852,0.10056299,0.20231494,0.0006
 1385,-0.00038423,-0.00027655,0.01535613,-0.00480767,-0.01246578,-0.004
 34182,-0.00036396,0.00051660,-0.00343311,0.00444301,0.00359819,-0.1634
 6202,-0.22931851,-0.46662808,0.18414690,0.24655123,0.49882525,0.001299
 88,0.00029256,-0.00071435,0.01738843,0.02612062,0.00467357,-0.00315904
 ,-0.00191548,-0.00189631,-0.01333942,0.00628393,0.00363099,-0.17182392
 ,0.18040184,0.07207445,0.02145050,-0.01066522,-0.01112444,0.14068581,-
 0.00061248,-0.00078201,0.00009826,-0.01523195,-0.01519476,-0.00282012,
 0.00386116,0.00426390,0.00436093,0.00434775,0.00068708,-0.00028242,0.1
 7602974,-0.49809040,-0.16561752,0.01336526,-0.00277951,-0.00148734,-0.
 19990944,0.53154644,-0.00036567,-0.00035334,0.00023545,-0.00951834,-0.
 00951189,-0.00040040,0.00486935,0.00351227,0.00655732,0.00382745,-0.00
 081147,-0.00001845,0.07047855,-0.16250075,-0.15296262,0.01014123,-0.03
 001594,0.00078323,-0.07106392,0.17548661,0.12858977,0.00092316,0.00015
 145,-0.00048481,0.00923999,-0.00950589,0.00951151,-0.00021022,-0.00075
 681,0.00176262,-0.00116046,0.00069154,0.00065423,-0.06693228,-0.005716
 72,0.01174391,0.01188701,0.00514125,-0.00879160,0.01490639,0.01253339,
 -0.01035452,0.04375557,0.00047289,-0.00028387,-0.00063146,0.01524834,-
 0.00552536,0.01032451,-0.00155634,0.00056686,-0.00205194,-0.00650433,0
 .00616426,0.00081284,-0.00626153,-0.15393964,0.05178581,-0.00289747,0.
 01388336,-0.01709659,0.00385407,-0.02555452,0.02792115,-0.00856543,0.3
 1509703,-0.00068524,-0.00009036,0.00083201,-0.02288360,0.01097286,-0.0
 1430517,0.00718010,0.00091261,0.00949168,0.00471621,-0.00331110,0.0004
 4597,0.01198007,0.08451391,-0.16879844,-0.00250823,0.01953486,-0.03202
 675,0.00033421,0.00000657,0.01097627,-0.02866679,0.11219406,0.59803402
 ,0.00053540,0.00024953,-0.00310473,-0.09918613,-0.04894048,0.04876438,
 0.01570310,0.01097487,-0.01848424,0.01545743,0.02061086,-0.01187693,0.
 00658347,-0.02095955,0.02130234,-0.00424773,-0.00059893,-0.00463796,-0
 .00341241,0.00383815,-0.00001648,-0.00694011,-0.00441822,0.00763509,0.
 07877911,0.00000170,-0.00116302,-0.00175987,-0.04399792,-0.18355901,0.
 10797109,0.00534899,0.01349232,0.01709516,0.00562911,-0.07462087,0.030
 71647,0.00593888,-0.01553063,0.01704992,-0.00304616,0.00069312,-0.0042
 6656,-0.00463905,0.00778854,-0.00013093,-0.00537798,-0.00149764,0.0031
 9901,0.04004980,0.25332337,0.00003385,0.00008303,0.00208540,0.04290190
 ,0.10744188,-0.17958256,-0.00332282,0.03054979,-0.07472217,-0.00575988
 ,0.01758034,0.01320921,-0.00520418,0.01645352,-0.01436769,0.00533246,0
 .00111211,0.00697605,0.00250214,-0.00438159,0.00108692,0.00512806,0.00
 168996,-0.00245197,-0.04092912,-0.17056758,0.24862282,-0.14251480,0.11
 056685,0.09148763,0.00244700,0.00323767,0.00154079,-0.00160110,-0.0008
 1099,-0.00086081,0.00001631,-0.00118491,-0.00048739,0.00110955,0.00063
 565,0.00013453,-0.00047726,-0.00037579,-0.00040106,-0.00036794,-0.0001
 0644,-0.00001498,-0.00029593,-0.00033849,0.00027429,-0.00102258,-0.000
 78692,0.00008866,0.10017288,0.10065191,-0.22207610,-0.10630847,-0.0019
 3468,-0.00462137,-0.00163317,0.00147080,0.00099716,0.00098181,-0.00052
 090,0.00209235,0.00076491,-0.00065018,-0.00094412,-0.00028909,0.000320
 27,0.00043867,0.00041786,0.00017399,0.00036995,0.00012350,0.00016244,0
 .00036700,-0.00021754,0.00100853,0.00116916,-0.00028192,-0.06843600,0.
 33942737,0.08867697,-0.11060664,-0.07003721,-0.00193255,-0.00351893,0.
 00106510,0.00065557,0.00058513,-0.00006573,-0.00007098,0.00132987,0.00
 006254,-0.00087786,-0.00064427,0.00004992,0.00035840,0.00030336,0.0002
 4700,0.00029168,0.00013493,-0.00002278,0.00020706,0.00037083,-0.000381
 14,0.00144234,0.00123127,-0.00090060,-0.06170481,0.12684070,0.06302712
 ,-0.26457642,-0.13625235,0.07162936,0.00604726,-0.00305750,-0.00033393
 ,-0.00182226,0.00032560,0.00014316,-0.00293555,0.00146011,0.00059855,0
 .00260370,-0.00022663,-0.00042471,-0.00100254,-0.00019425,-0.00033298,
 -0.00108941,0.00078151,0.00040978,-0.00071868,-0.00025293,0.00052068,-
 0.00131061,0.00086161,-0.00033120,0.04242480,-0.03218389,-0.02702142,0
 .22215727,-0.12621123,-0.14267162,0.01207927,0.00246302,-0.00191569,-0
 .00121216,-0.00044918,0.00033098,0.00050589,-0.00134507,0.00110077,0.0
 0055641,0.00120130,-0.00034871,-0.00037890,-0.00044588,0.00001992,-0.0
 0004004,-0.00052201,0.00048030,0.00026092,-0.00032906,-0.00007451,0.00
 028907,-0.00074427,0.00038843,0.00006951,-0.04246308,-0.11713892,-0.01
 598404,0.16876195,0.25986594,0.07454802,0.01640845,-0.02733577,-0.0021
 9873,0.00003306,0.00205040,0.00018549,-0.00010871,-0.00066351,0.000987
 54,-0.00017938,-0.00045362,-0.00099084,-0.00009583,0.00031719,0.000361
 00,0.00009545,0.00006815,0.00040302,-0.00021754,-0.00018507,0.00024774
 ,0.00021946,-0.00037240,0.00107644,0.00029163,-0.00062637,-0.02997639,
 -0.02043292,0.00686891,-0.04460982,0.00398408,0.02021830,-0.00032400,-
 0.00001259,0.00003911,0.00224613,-0.00091396,0.00620177,-0.00106390,-0
 .00004038,-0.00310910,-0.00039596,-0.00023653,-0.00069929,0.00061756,-
 0.00352449,-0.00153331,0.00104940,0.00171625,-0.00359188,-0.00253886,0
 .00110335,0.00160755,-0.00445444,0.01121944,0.02210320,-0.00093895,0.0
 0001793,-0.00043987,0.00010908,-0.00006229,-0.00002440,0.00022244,0.00
 008349,-0.00003348,0.00547149,-0.00002036,0.00011773,0.00002799,0.0014
 7976,-0.00129086,0.00259400,-0.00115273,-0.00069810,-0.00138349,0.0003
 8878,-0.00021768,-0.00035758,-0.00370348,0.01400515,0.02904740,0.00129
 334,-0.00195698,0.00635281,0.00052418,-0.00273502,-0.00398012,0.011571
 81,-0.14920296,-0.22800395,-0.00107031,-0.00048378,0.00025097,0.000062
 45,-0.00008114,-0.00004221,-0.00002323,-0.00003689,0.00000226,-0.00935
 023,0.14258054,0.00029183,0.00008998,-0.00020774,0.00299479,0.00103425
 ,0.00024537,-0.00045729,-0.00030514,-0.00006580,-0.00122125,0.00035916
 ,0.00038324,0.00024736,-0.00830971,-0.03443320,0.00023236,0.00338422,0
 .00038268,0.00088896,-0.00528076,0.00536036,0.01904258,-0.18553861,-0.
 40144408,-0.00117114,-0.00082959,0.00067096,-0.00008045,0.00003433,0.0
 0008686,-0.00024747,-0.00013003,0.00011379,-0.02052028,0.19549191,0.42
 890755\\-0.00000386,-0.00002032,-0.00000510,-0.00000356,0.00002293,-0.
 00000018,-0.00000224,-0.00000492,0.00000132,0.00000579,-0.00000895,-0.
 00000433,-0.00000193,-0.00000207,-0.00000373,0.00000140,-0.00000194,-0
 .00000095,-0.00000158,-0.00000138,0.00000245,0.00000204,-0.00000212,0.
 00000058,-0.00000014,-0.00000797,0.00000514,-0.00000816,0.00000627,0.0
 0000604,0.00001275,0.00002212,-0.00000024,-0.00000052,-0.00000165,-0.0
 0000099\\\@
 The archive entry for this job was punched.


 TO BEHOLD HARMS OF OUR OWN HANDS DOING,
 WHERE NONE BESIDE US WROUGHT,
 CAUSES SHARP RUING...

                                         SOPHOCLES
 Job cpu time:       0 days  0 hours  8 minutes 52.3 seconds.
 Elapsed time:       0 days  0 hours  1 minutes 24.3 seconds.
 File lengths (MBytes):  RWF=     99 Int=      0 D2E=      0 Chk=      6 Scr=      1
 Normal termination of Gaussian 16 at Fri May 23 04:39:51 2025.
done
