 Entering Gaussian System, Link 0=g16
 Initial command:
 /apps/easybuild-2022/easybuild/software/Compiler/NVHPC/22.11-CUDA-11.7.0/Gaussian/g16c01-CUDA-11.7.0/g16/l1.exe "/tmp/Gau-188459.inp" -scrdir="/tmp/"
 Entering Link 1 = /apps/easybuild-2022/easybuild/software/Compiler/NVHPC/22.11-CUDA-11.7.0/Gaussian/g16c01-CUDA-11.7.0/g16/l1.exe PID=    188462.
  
 Copyright (c) 1988-2019, Gaussian, Inc.  All Rights Reserved.
  
 This is part of the Gaussian(R) 16 program.  It is based on
 the Gaussian(R) 09 system (copyright 2009, Gaussian, Inc.),
 the Gaussian(R) 03 system (copyright 2003, Gaussian, Inc.),
 the Gaussian(R) 98 system (copyright 1998, Gaussian, Inc.),
 the Gaussian(R) 94 system (copyright 1995, Gaussian, Inc.),
 the Gaussian 92(TM) system (copyright 1992, Gaussian, Inc.),
 the Gaussian 90(TM) system (copyright 1990, Gaussian, Inc.),
 the Gaussian 88(TM) system (copyright 1988, Gaussian, Inc.),
 the Gaussian 86(TM) system (copyright 1986, Carnegie Mellon
 University), and the Gaussian 82(TM) system (copyright 1983,
 Carnegie Mellon University). Gaussian is a federally registered
 trademark of Gaussian, Inc.
  
 This software contains proprietary and confidential information,
 including trade secrets, belonging to Gaussian, Inc.
  
 This software is provided under written license and may be
 used, copied, transmitted, or stored only in accord with that
 written license.
  
 The following legend is applicable only to US Government
 contracts under FAR:
  
                    RESTRICTED RIGHTS LEGEND
  
 Use, reproduction and disclosure by the US Government is
 subject to restrictions as set forth in subparagraphs (a)
 and (c) of the Commercial Computer Software - Restricted
 Rights clause in FAR 52.227-19.
  
 Gaussian, Inc.
 340 Quinnipiac St., Bldg. 40, Wallingford CT 06492
  
  
 ---------------------------------------------------------------
 Warning -- This program may not be used in any manner that
 competes with the business of Gaussian, Inc. or will provide
 assistance to any competitor of Gaussian, Inc.  The licensee
 of this program is prohibited from giving any competitor of
 Gaussian, Inc. access to this program.  By using this program,
 the user acknowledges that Gaussian, Inc. is engaged in the
 business of creating and licensing software in the field of
 computational chemistry and represents and warrants to the
 licensee that it is not a competitor of Gaussian, Inc. and that
 it will not use this program in any manner prohibited above.
 ---------------------------------------------------------------
  

 Cite this work as:
 Gaussian 16, Revision C.01,
 M. J. Frisch, G. W. Trucks, H. B. Schlegel, G. E. Scuseria, 
 M. A. Robb, J. R. Cheeseman, G. Scalmani, V. Barone, 
 G. A. Petersson, H. Nakatsuji, X. Li, M. Caricato, A. V. Marenich, 
 J. Bloino, B. G. Janesko, R. Gomperts, B. Mennucci, H. P. Hratchian, 
 J. V. Ortiz, A. F. Izmaylov, J. L. Sonnenberg, D. Williams-Young, 
 F. Ding, F. Lipparini, F. Egidi, J. Goings, B. Peng, A. Petrone, 
 T. Henderson, D. Ranasinghe, V. G. Zakrzewski, J. Gao, N. Rega, 
 G. Zheng, W. Liang, M. Hada, M. Ehara, K. Toyota, R. Fukuda, 
 J. Hasegawa, M. Ishida, T. Nakajima, Y. Honda, O. Kitao, H. Nakai, 
 T. Vreven, K. Throssell, J. A. Montgomery, Jr., J. E. Peralta, 
 F. Ogliaro, M. J. Bearpark, J. J. Heyd, E. N. Brothers, K. N. Kudin, 
 V. N. Staroverov, T. A. Keith, R. Kobayashi, J. Normand, 
 K. Raghavachari, A. P. Rendell, J. C. Burant, S. S. Iyengar, 
 J. Tomasi, M. Cossi, J. M. Millam, M. Klene, C. Adamo, R. Cammi, 
 J. W. Ochterski, R. L. Martin, K. Morokuma, O. Farkas, 
 J. B. Foresman, and D. J. Fox, Gaussian, Inc., Wallingford CT, 2019.
 
 ******************************************
 Gaussian 16:  ES64L-G16RevC.01  3-Jul-2019
                23-May-2025 
 ******************************************
 %mem=28GB
 %chk=2003846667223680600001_r12_insertion_R_2_5_6
 %nprocshared=8
 Will use up to    8 processors via shared memory.
 ----------------------------------------------------------------------
 #P wb97xd/6-311++G(d,p) Symm(None) scf(xqc) pop(None) opt(NoFreeze,TS,
 CalcAll,NoEigentest,MaxCycle=999)
 ----------------------------------------------------------------------
 1/5=1,6=999,10=4,11=1,18=20,26=3,29=2000,38=1/1,3;
 2/9=110,12=2,15=3,17=6,18=5,40=1/2;
 3/5=4,6=6,7=1111,11=2,25=1,30=1,71=2,74=-58,140=1/1,2,3;
 4//1;
 5/5=2,8=3,13=1,38=5/2,8;
 8/6=4,10=90,11=11/1;
 11/6=1,8=1,9=11,15=111,16=1,31=1/1,2,10;
 10/6=1,31=1/2;
 7/10=1,25=1,30=1/1,2,3,16;
 1/5=1,6=999,10=4,11=1,18=20,26=3/3(3);
 2/9=110,15=3/2;
 7/8=1,9=1,25=1,30=1,44=-1/16;
 99//99;
 2/9=110,15=3/2;
 3/5=4,6=6,7=1111,11=2,25=1,30=1,71=2,74=-58,140=1/1,2,3;
 4/5=5,16=3,69=1/1;
 5/5=2,8=3,13=1,38=5/2,8;
 8/6=4,10=90,11=11/1;
 11/6=1,8=1,9=11,15=111,16=1,31=1/1,2,10;
 10/6=1,31=1/2;
 7/10=1,25=1,30=1/1,2,3,16;
 1/5=1,6=999,10=4,11=1,18=20,26=3/3(-8);
 2/9=110,15=3/2;
 7/8=1,9=1,25=1,30=1,44=-1/16;
 99//99;
 Leave Link    1 at Fri May 23 03:14:23 2025, MaxMem=  3758096384 cpu:               0.1 elap:               0.1
 (Enter /apps/easybuild-2022/easybuild/software/Compiler/NVHPC/22.11-CUDA-11.7.0/Gaussian/g16c01-CUDA-11.7.0/g16/l101.exe)
 ------------------------------
 Gaussian input prepared by ASE
 ------------------------------
 Symbolic Z-matrix:
 Charge =  0 Multiplicity = 1
 C                    -0.67852  -0.16152   1.4064 
 C                     0.17694   0.43466   0.21863 
 F                    -0.56999   0.15409  -0.91428 
 F                     0.04087   1.79506   0.17772 
 S                     1.77046  -0.0396    0.06169 
 O                     1.42829   0.85683   1.58462 
 O                     2.11205  -1.27473  -0.31782 
 O                     2.41255   0.96517  -0.91429 
 F                    -0.10595  -1.18884   1.99359 
 F                    -0.94056   0.73912   2.35242 
 F                    -1.86223  -0.6003    0.98564 
 H                     2.2665    1.9181   -0.81602 
 
 ITRead=  0  0  0  0  0  0  0  0  0  0  0  0
 MicOpt= -1 -1 -1 -1 -1 -1 -1 -1 -1 -1 -1 -1
 NAtoms=     12 NQM=       12 NQMF=       0 NMMI=      0 NMMIF=      0
                NMic=       0 NMicF=      0.
                    Isotopes and Nuclear Properties:
 (Nuclear quadrupole moments (NQMom) in fm**2, nuclear magnetic moments (NMagM)
  in nuclear magnetons)

  Atom         1           2           3           4           5           6           7           8           9          10
 IAtWgt=          12          12          19          19          32          16          16          16          19          19
 AtmWgt=  12.0000000  12.0000000  18.9984032  18.9984032  31.9720718  15.9949146  15.9949146  15.9949146  18.9984032  18.9984032
 NucSpn=           0           0           1           1           0           0           0           0           1           1
 AtZEff=  -0.0000000  -0.0000000  -0.0000000  -0.0000000  -0.0000000  -0.0000000  -0.0000000  -0.0000000  -0.0000000  -0.0000000
 NQMom=    0.0000000   0.0000000   0.0000000   0.0000000   0.0000000   0.0000000   0.0000000   0.0000000   0.0000000   0.0000000
 NMagM=    0.0000000   0.0000000   2.6288670   2.6288670   0.0000000   0.0000000   0.0000000   0.0000000   2.6288670   2.6288670
 AtZNuc=   6.0000000   6.0000000   9.0000000   9.0000000  16.0000000   8.0000000   8.0000000   8.0000000   9.0000000   9.0000000

  Atom        11          12
 IAtWgt=          19           1
 AtmWgt=  18.9984032   1.0078250
 NucSpn=           1           1
 AtZEff=  -0.0000000  -0.0000000
 NQMom=    0.0000000   0.0000000
 NMagM=    2.6288670   2.7928460
 AtZNuc=   9.0000000   1.0000000
 Leave Link  101 at Fri May 23 03:14:24 2025, MaxMem=  3758096384 cpu:               0.8 elap:               0.8
 (Enter /apps/easybuild-2022/easybuild/software/Compiler/NVHPC/22.11-CUDA-11.7.0/Gaussian/g16c01-CUDA-11.7.0/g16/l103.exe)

 GradGradGradGradGradGradGradGradGradGradGradGradGradGradGradGradGradGrad
 Berny optimization.
 Initialization pass.
                           ----------------------------
                           !    Initial Parameters    !
                           ! (Angstroms and Degrees)  !
 --------------------------                            --------------------------
 ! Name  Definition              Value          Derivative Info.                !
 --------------------------------------------------------------------------------
 ! R1    R(1,2)                  1.5805         calculate D2E/DX2 analytically  !
 ! R2    R(1,9)                  1.3145         calculate D2E/DX2 analytically  !
 ! R3    R(1,10)                 1.3322         calculate D2E/DX2 analytically  !
 ! R4    R(1,11)                 1.3307         calculate D2E/DX2 analytically  !
 ! R5    R(2,3)                  1.3857         calculate D2E/DX2 analytically  !
 ! R6    R(2,4)                  1.3678         calculate D2E/DX2 analytically  !
 ! R7    R(2,5)                  1.67           calculate D2E/DX2 analytically  !
 ! R8    R(5,6)                  1.8            calculate D2E/DX2 analytically  !
 ! R9    R(5,7)                  1.3365         calculate D2E/DX2 analytically  !
 ! R10   R(5,8)                  1.5409         calculate D2E/DX2 analytically  !
 ! R11   R(8,12)                 0.9691         calculate D2E/DX2 analytically  !
 ! A1    A(2,1,9)              113.249          calculate D2E/DX2 analytically  !
 ! A2    A(2,1,10)             112.6506         calculate D2E/DX2 analytically  !
 ! A3    A(2,1,11)             111.6065         calculate D2E/DX2 analytically  !
 ! A4    A(9,1,10)             107.266          calculate D2E/DX2 analytically  !
 ! A5    A(9,1,11)             105.7237         calculate D2E/DX2 analytically  !
 ! A6    A(10,1,11)            105.8122         calculate D2E/DX2 analytically  !
 ! A7    A(1,2,3)              104.2583         calculate D2E/DX2 analytically  !
 ! A8    A(1,2,4)              110.1089         calculate D2E/DX2 analytically  !
 ! A9    A(1,2,5)              118.6835         calculate D2E/DX2 analytically  !
 ! A10   A(3,2,4)               97.083          calculate D2E/DX2 analytically  !
 ! A11   A(3,2,5)              112.3341         calculate D2E/DX2 analytically  !
 ! A12   A(4,2,5)              111.9976         calculate D2E/DX2 analytically  !
 ! A13   A(2,5,6)               66.2756         calculate D2E/DX2 analytically  !
 ! A14   A(2,5,7)              122.2095         calculate D2E/DX2 analytically  !
 ! A15   A(2,5,8)              105.781          calculate D2E/DX2 analytically  !
 ! A16   A(6,5,7)              138.5099         calculate D2E/DX2 analytically  !
 ! A17   A(6,5,8)              106.8793         calculate D2E/DX2 analytically  !
 ! A18   A(7,5,8)              108.4368         calculate D2E/DX2 analytically  !
 ! A19   A(5,8,12)             120.943          calculate D2E/DX2 analytically  !
 ! D1    D(9,1,2,3)            112.7615         calculate D2E/DX2 analytically  !
 ! D2    D(9,1,2,4)           -144.0283         calculate D2E/DX2 analytically  !
 ! D3    D(9,1,2,5)            -13.1095         calculate D2E/DX2 analytically  !
 ! D4    D(10,1,2,3)          -125.2793         calculate D2E/DX2 analytically  !
 ! D5    D(10,1,2,4)           -22.0691         calculate D2E/DX2 analytically  !
 ! D6    D(10,1,2,5)           108.8498         calculate D2E/DX2 analytically  !
 ! D7    D(11,1,2,3)            -6.4078         calculate D2E/DX2 analytically  !
 ! D8    D(11,1,2,4)            96.8024         calculate D2E/DX2 analytically  !
 ! D9    D(11,1,2,5)          -132.2788         calculate D2E/DX2 analytically  !
 ! D10   D(1,2,5,6)            -63.5486         calculate D2E/DX2 analytically  !
 ! D11   D(1,2,5,7)             70.096          calculate D2E/DX2 analytically  !
 ! D12   D(1,2,5,8)           -165.4003         calculate D2E/DX2 analytically  !
 ! D13   D(3,2,5,6)            174.5621         calculate D2E/DX2 analytically  !
 ! D14   D(3,2,5,7)            -51.7933         calculate D2E/DX2 analytically  !
 ! D15   D(3,2,5,8)             72.7104         calculate D2E/DX2 analytically  !
 ! D16   D(4,2,5,6)             66.5187         calculate D2E/DX2 analytically  !
 ! D17   D(4,2,5,7)           -159.8366         calculate D2E/DX2 analytically  !
 ! D18   D(4,2,5,8)            -35.333          calculate D2E/DX2 analytically  !
 ! D19   D(2,5,8,12)            46.0851         calculate D2E/DX2 analytically  !
 ! D20   D(6,5,8,12)           -23.3562         calculate D2E/DX2 analytically  !
 ! D21   D(7,5,8,12)           178.7787         calculate D2E/DX2 analytically  !
 --------------------------------------------------------------------------------
 Trust Radius=3.00D-01 FncErr=1.00D-07 GrdErr=1.00D-06 EigMax=2.50D+02 EigMin=1.00D-04
 Number of steps in this run=    100 maximum allowed number of steps=    100.
 Search for a saddle point of order  1.
 GradGradGradGradGradGradGradGradGradGradGradGradGradGradGradGradGradGrad

 Leave Link  103 at Fri May 23 03:14:24 2025, MaxMem=  3758096384 cpu:               0.1 elap:               0.0
 (Enter /apps/easybuild-2022/easybuild/software/Compiler/NVHPC/22.11-CUDA-11.7.0/Gaussian/g16c01-CUDA-11.7.0/g16/l202.exe)
                          Input orientation:                          
 ---------------------------------------------------------------------
 Center     Atomic      Atomic             Coordinates (Angstroms)
 Number     Number       Type             X           Y           Z
 ---------------------------------------------------------------------
      1          6           0       -0.678518   -0.161518    1.406397
      2          6           0        0.176937    0.434664    0.218633
      3          9           0       -0.569985    0.154090   -0.914281
      4          9           0        0.040871    1.795061    0.177716
      5         16           0        1.770461   -0.039601    0.061686
      6          8           0        1.428292    0.856827    1.584615
      7          8           0        2.112051   -1.274734   -0.317816
      8          8           0        2.412553    0.965173   -0.914289
      9          9           0       -0.105948   -1.188844    1.993588
     10          9           0       -0.940559    0.739118    2.352423
     11          9           0       -1.862228   -0.600303    0.985643
     12          1           0        2.266497    1.918101   -0.816021
 ---------------------------------------------------------------------
                    Distance matrix (angstroms):
                    1          2          3          4          5
     1  C    0.000000
     2  C    1.580512   0.000000
     3  F    2.344554   1.385680   0.000000
     4  F    2.419789   1.367797   2.063586   0.000000
     5  S    2.796535   1.669994   2.543170   2.524070   0.000000
     6  O    2.346793   1.900005   3.275886   2.187369   1.799993
     7  O    3.464020   2.637136   3.096874   3.736172   1.336510
     8  O    4.026132   2.561822   3.090856   2.739720   1.540902
     9  F    1.314545   2.422038   3.236434   3.496089   2.928125
    10  F    1.332207   2.427869   3.339302   2.609132   3.633663
    11  F    1.330690   2.411982   2.418411   3.164222   3.790054
    12  H    4.235218   2.763577   3.341709   2.440505   2.202049
                    6          7          8          9         10
     6  O    0.000000
     7  O    2.937741   0.000000
     8  O    2.687942   2.337363   0.000000
     9  F    2.589579   3.204604   4.408898   0.000000
    10  F    2.492958   4.528157   4.686776   2.131285   0.000000
    11  F    3.648221   4.236597   4.932972   2.108756   2.124055
    12  H    2.755348   3.235160   0.969051   4.814094   4.659855
                   11         12
    11  F    0.000000
    12  H    5.160884   0.000000
 Symmetry turned off by external request.
 Stoichiometry    C2HF5O3S
 Rotational constants (GHZ):           1.6686764           0.8586597           0.8175294
 Leave Link  202 at Fri May 23 03:14:24 2025, MaxMem=  3758096384 cpu:               0.1 elap:               0.1
 (Enter /apps/easybuild-2022/easybuild/software/Compiler/NVHPC/22.11-CUDA-11.7.0/Gaussian/g16c01-CUDA-11.7.0/g16/l301.exe)
 Standard basis: 6-311++G(d,p) (5D, 7F)
 Ernie: Thresh=  0.10000D-02 Tol=  0.10000D-05 Strict=F.
   257 basis functions,   419 primitive gaussians,   268 cartesian basis functions
    49 alpha electrons       49 beta electrons
       nuclear repulsion energy       940.4590936863 Hartrees.
 IExCor= 4639 DFT=T Ex+Corr=wB97XD ExCW=0 ScaHFX=  1.000000
 ScaDFX=  1.000000  1.000000  1.000000  1.000000 ScalE2=  1.000000  1.000000
 IRadAn=      5 IRanWt=     -1 IRanGd=            0 ICorTp=0 IEmpDi=121
 HFx  wShort=  0.000000 wLong=  0.200000 cFull=  0.222036 cShort=  0.000000 cLong=  0.777964
 DFx  wShort=  0.000000 wLong=  0.200000 cFull=  0.000000 cShort=  0.000000 cLong=  1.000000
 NAtoms=   12 NActive=   12 NUniq=   12 SFac= 1.00D+00 NAtFMM=   60 NAOKFM=F Big=F
 Integral buffers will be    131072 words long.
 Raffenetti 2 integral format.
 Two-electron integral symmetry is turned off.
 R6Disp:  Grimme-D2 Dispersion energy=       -0.0053056952 Hartrees.
 Nuclear repulsion after empirical dispersion term =      940.4537879910 Hartrees.
 Leave Link  301 at Fri May 23 03:14:25 2025, MaxMem=  3758096384 cpu:               0.2 elap:               0.2
 (Enter /apps/easybuild-2022/easybuild/software/Compiler/NVHPC/22.11-CUDA-11.7.0/Gaussian/g16c01-CUDA-11.7.0/g16/l302.exe)
 NPDir=0 NMtPBC=     1 NCelOv=     1 NCel=       1 NClECP=     1 NCelD=      1
         NCelK=      1 NCelE2=     1 NClLst=     1 CellRange=     0.0.
 One-electron integrals computed using PRISM.
 NBasis=   257 RedAO= T EigKep=  4.90D-05  NBF=   257
 NBsUse=   257 1.00D-06 EigRej= -1.00D+00 NBFU=   257
 Precomputing XC quadrature grid using
 IXCGrd= 4 IRadAn=           5 IRanWt=          -1 IRanGd=           0 AccXCQ= 0.00D+00.
 Generated NRdTot=       0 NPtTot=           0 NUsed=           0 NTot=          32
 NSgBfM=   268   268   268   268   268 MxSgAt=    12 MxSgA2=    12.
 Leave Link  302 at Fri May 23 03:14:25 2025, MaxMem=  3758096384 cpu:               0.8 elap:               0.3
 (Enter /apps/easybuild-2022/easybuild/software/Compiler/NVHPC/22.11-CUDA-11.7.0/Gaussian/g16c01-CUDA-11.7.0/g16/l303.exe)
 DipDrv:  MaxL=1.
 Leave Link  303 at Fri May 23 03:14:25 2025, MaxMem=  3758096384 cpu:               0.1 elap:               0.1
 (Enter /apps/easybuild-2022/easybuild/software/Compiler/NVHPC/22.11-CUDA-11.7.0/Gaussian/g16c01-CUDA-11.7.0/g16/l401.exe)
 ExpMin= 3.60D-02 ExpMax= 9.34D+04 ExpMxC= 3.17D+03 IAcc=3 IRadAn=         5 AccDes= 0.00D+00
 Harris functional with IExCor= 4639 and IRadAn=       5 diagonalized for initial guess.
 HarFok:  IExCor= 4639 AccDes= 0.00D+00 IRadAn=         5 IDoV= 1 UseB2=F ITyADJ=14
 ICtDFT=  3500011 ScaDFX=  1.000000  1.000000  1.000000  1.000000
 FoFCou: FMM=F IPFlag=           0 FMFlag=      100000 FMFlg1=           0
         NFxFlg=           0 DoJE=T BraDBF=F KetDBF=T FulRan=T
         wScrn=  0.000000 ICntrl=       500 IOpCl=  0 I1Cent=   200000004 NGrid=           0
         NMat0=    1 NMatS0=      1 NMatT0=    0 NMatD0=    1 NMtDS0=    0 NMtDT0=    0
 Symmetry not used in FoFCou.
 Harris En= -1166.93175705528    
 JPrj=0 DoOrth=F DoCkMO=F.
 Leave Link  401 at Fri May 23 03:14:25 2025, MaxMem=  3758096384 cpu:               3.3 elap:               0.5
 (Enter /apps/easybuild-2022/easybuild/software/Compiler/NVHPC/22.11-CUDA-11.7.0/Gaussian/g16c01-CUDA-11.7.0/g16/l502.exe)
 Keep R1 ints in memory in canonical form, NReq=1117474609.
 FoFCou: FMM=F IPFlag=           0 FMFlag=           0 FMFlg1=           0
         NFxFlg=           0 DoJE=F BraDBF=F KetDBF=F FulRan=T
         wScrn=  0.000000 ICntrl=       600 IOpCl=  0 I1Cent=           0 NGrid=           0
         NMat0=    1 NMatS0=  33153 NMatT0=    0 NMatD0=    1 NMtDS0=    0 NMtDT0=    0
 Symmetry not used in FoFCou.
 Two-electron integral symmetry not used.
 Closed shell SCF:
 Using DIIS extrapolation, IDIIS=  1040.
 NGot=  3758096384 LenX=  2658793876 LenY=  2658721611
 Requested convergence on RMS density matrix=1.00D-08 within  32 cycles.
 Requested convergence on MAX density matrix=1.00D-06.
 Requested convergence on             energy=1.00D-06.
 No special actions if energy rises.

 Cycle   1  Pass 1  IDiag  1:
 E= -1198.96752826460    
 DIIS: error= 8.89D-02 at cycle   1 NSaved=   1.
 NSaved= 1 IEnMin= 1 EnMin= -1198.96752826460     IErMin= 1 ErrMin= 8.89D-02
 ErrMax= 8.89D-02  0.00D+00 EMaxC= 1.00D-01 BMatC= 3.30D+00 BMatP= 3.30D+00
 IDIUse=3 WtCom= 1.11D-01 WtEn= 8.89D-01
 Coeff-Com:  0.100D+01
 Coeff-En:   0.100D+01
 Coeff:      0.100D+01
 Gap=     0.467 Goal=   None    Shift=    0.000
 GapD=    0.467 DampG=2.000 DampE=0.500 DampFc=1.0000 IDamp=-1.
 RMSDP=1.63D-02 MaxDP=1.22D+00              OVMax= 2.59D-01

 Cycle   2  Pass 1  IDiag  1:
 E= -1199.12367901968     Delta-E=       -0.156150755077 Rises=F Damp=F
 DIIS: error= 5.56D-02 at cycle   2 NSaved=   2.
 NSaved= 2 IEnMin= 2 EnMin= -1199.12367901968     IErMin= 2 ErrMin= 5.56D-02
 ErrMax= 5.56D-02  0.00D+00 EMaxC= 1.00D-01 BMatC= 9.75D-01 BMatP= 3.30D+00
 IDIUse=3 WtCom= 4.44D-01 WtEn= 5.56D-01
 Coeff-Com:  0.321D+00 0.679D+00
 Coeff-En:   0.420D+00 0.580D+00
 Coeff:      0.376D+00 0.624D+00
 Gap=     0.436 Goal=   None    Shift=    0.000
 RMSDP=1.65D-02 MaxDP=1.19D+00 DE=-1.56D-01 OVMax= 1.80D-01

 Cycle   3  Pass 1  IDiag  1:
 E= -1199.43650934402     Delta-E=       -0.312830324346 Rises=F Damp=F
 DIIS: error= 2.81D-02 at cycle   3 NSaved=   3.
 NSaved= 3 IEnMin= 3 EnMin= -1199.43650934402     IErMin= 3 ErrMin= 2.81D-02
 ErrMax= 2.81D-02  0.00D+00 EMaxC= 1.00D-01 BMatC= 2.92D-01 BMatP= 9.75D-01
 IDIUse=3 WtCom= 7.19D-01 WtEn= 2.81D-01
 Coeff-Com:  0.110D+00 0.361D+00 0.528D+00
 Coeff-En:   0.000D+00 0.289D+00 0.711D+00
 Coeff:      0.793D-01 0.341D+00 0.580D+00
 Gap=     0.429 Goal=   None    Shift=    0.000
 RMSDP=9.84D-03 MaxDP=7.12D-01 DE=-3.13D-01 OVMax= 2.10D-01

 Cycle   4  Pass 1  IDiag  1:
 E= -1199.58969399024     Delta-E=       -0.153184646215 Rises=F Damp=F
 DIIS: error= 1.48D-02 at cycle   4 NSaved=   4.
 NSaved= 4 IEnMin= 4 EnMin= -1199.58969399024     IErMin= 4 ErrMin= 1.48D-02
 ErrMax= 1.48D-02  0.00D+00 EMaxC= 1.00D-01 BMatC= 7.08D-02 BMatP= 2.92D-01
 IDIUse=3 WtCom= 8.52D-01 WtEn= 1.48D-01
 Coeff-Com:  0.136D-01 0.107D+00 0.349D+00 0.530D+00
 Coeff-En:   0.000D+00 0.000D+00 0.232D+00 0.768D+00
 Coeff:      0.116D-01 0.910D-01 0.332D+00 0.565D+00
 Gap=     0.358 Goal=   None    Shift=    0.000
 RMSDP=4.97D-03 MaxDP=3.65D-01 DE=-1.53D-01 OVMax= 7.49D-02

 Cycle   5  Pass 1  IDiag  1:
 E= -1199.63657420427     Delta-E=       -0.046880214032 Rises=F Damp=F
 DIIS: error= 3.43D-03 at cycle   5 NSaved=   5.
 NSaved= 5 IEnMin= 5 EnMin= -1199.63657420427     IErMin= 5 ErrMin= 3.43D-03
 ErrMax= 3.43D-03  0.00D+00 EMaxC= 1.00D-01 BMatC= 6.85D-03 BMatP= 7.08D-02
 IDIUse=3 WtCom= 9.66D-01 WtEn= 3.43D-02
 Coeff-Com: -0.211D-02 0.172D-01 0.117D+00 0.316D+00 0.551D+00
 Coeff-En:   0.000D+00 0.000D+00 0.000D+00 0.618D-01 0.938D+00
 Coeff:     -0.203D-02 0.166D-01 0.113D+00 0.307D+00 0.565D+00
 Gap=     0.347 Goal=   None    Shift=    0.000
 RMSDP=5.97D-04 MaxDP=2.91D-02 DE=-4.69D-02 OVMax= 2.36D-02

 Cycle   6  Pass 1  IDiag  1:
 E= -1199.64129006606     Delta-E=       -0.004715861788 Rises=F Damp=F
 DIIS: error= 7.33D-04 at cycle   6 NSaved=   6.
 NSaved= 6 IEnMin= 6 EnMin= -1199.64129006606     IErMin= 6 ErrMin= 7.33D-04
 ErrMax= 7.33D-04  0.00D+00 EMaxC= 1.00D-01 BMatC= 3.35D-04 BMatP= 6.85D-03
 IDIUse=3 WtCom= 9.93D-01 WtEn= 7.33D-03
 Coeff-Com: -0.131D-02-0.597D-02-0.353D-02 0.453D-01 0.235D+00 0.731D+00
 Coeff-En:   0.000D+00 0.000D+00 0.000D+00 0.000D+00 0.000D+00 0.100D+01
 Coeff:     -0.130D-02-0.593D-02-0.351D-02 0.449D-01 0.233D+00 0.733D+00
 Gap=     0.350 Goal=   None    Shift=    0.000
 RMSDP=2.13D-04 MaxDP=1.23D-02 DE=-4.72D-03 OVMax= 4.09D-03

 Cycle   7  Pass 1  IDiag  1:
 E= -1199.64154312946     Delta-E=       -0.000253063409 Rises=F Damp=F
 DIIS: error= 3.34D-04 at cycle   7 NSaved=   7.
 NSaved= 7 IEnMin= 7 EnMin= -1199.64154312946     IErMin= 7 ErrMin= 3.34D-04
 ErrMax= 3.34D-04  0.00D+00 EMaxC= 1.00D-01 BMatC= 4.20D-05 BMatP= 3.35D-04
 IDIUse=3 WtCom= 9.97D-01 WtEn= 3.34D-03
 Coeff-Com: -0.331D-03-0.446D-02-0.129D-01-0.919D-02 0.682D-01 0.356D+00
 Coeff-Com:  0.603D+00
 Coeff-En:   0.000D+00 0.000D+00 0.000D+00 0.000D+00 0.000D+00 0.000D+00
 Coeff-En:   0.100D+01
 Coeff:     -0.330D-03-0.444D-02-0.129D-01-0.915D-02 0.679D-01 0.355D+00
 Coeff:      0.604D+00
 Gap=     0.350 Goal=   None    Shift=    0.000
 RMSDP=1.12D-04 MaxDP=7.82D-03 DE=-2.53D-04 OVMax= 2.03D-03

 Cycle   8  Pass 1  IDiag  1:
 E= -1199.64158420371     Delta-E=       -0.000041074250 Rises=F Damp=F
 DIIS: error= 1.36D-04 at cycle   8 NSaved=   8.
 NSaved= 8 IEnMin= 8 EnMin= -1199.64158420371     IErMin= 8 ErrMin= 1.36D-04
 ErrMax= 1.36D-04  0.00D+00 EMaxC= 1.00D-01 BMatC= 3.69D-06 BMatP= 4.20D-05
 IDIUse=3 WtCom= 9.99D-01 WtEn= 1.36D-03
 Coeff-Com:  0.948D-04-0.623D-03-0.375D-02-0.143D-01-0.276D-01-0.570D-01
 Coeff-Com:  0.138D+00 0.965D+00
 Coeff-En:   0.000D+00 0.000D+00 0.000D+00 0.000D+00 0.000D+00 0.000D+00
 Coeff-En:   0.000D+00 0.100D+01
 Coeff:      0.947D-04-0.622D-03-0.374D-02-0.143D-01-0.275D-01-0.569D-01
 Coeff:      0.138D+00 0.965D+00
 Gap=     0.351 Goal=   None    Shift=    0.000
 RMSDP=9.17D-05 MaxDP=6.82D-03 DE=-4.11D-05 OVMax= 1.97D-03

 Cycle   9  Pass 1  IDiag  1:
 E= -1199.64159579079     Delta-E=       -0.000011587075 Rises=F Damp=F
 DIIS: error= 3.59D-05 at cycle   9 NSaved=   9.
 NSaved= 9 IEnMin= 9 EnMin= -1199.64159579079     IErMin= 9 ErrMin= 3.59D-05
 ErrMax= 3.59D-05  0.00D+00 EMaxC= 1.00D-01 BMatC= 3.24D-07 BMatP= 3.69D-06
 IDIUse=1 WtCom= 1.00D+00 WtEn= 0.00D+00
 Coeff-Com:  0.149D-04 0.259D-03 0.528D-03-0.132D-02-0.120D-01-0.462D-01
 Coeff-Com: -0.676D-01 0.584D-01 0.107D+01
 Coeff:      0.149D-04 0.259D-03 0.528D-03-0.132D-02-0.120D-01-0.462D-01
 Coeff:     -0.676D-01 0.584D-01 0.107D+01
 Gap=     0.351 Goal=   None    Shift=    0.000
 RMSDP=4.27D-05 MaxDP=3.28D-03 DE=-1.16D-05 OVMax= 1.03D-03

 Cycle  10  Pass 1  IDiag  1:
 E= -1199.64159763620     Delta-E=       -0.000001845411 Rises=F Damp=F
 DIIS: error= 1.44D-05 at cycle  10 NSaved=  10.
 NSaved=10 IEnMin=10 EnMin= -1199.64159763620     IErMin=10 ErrMin= 1.44D-05
 ErrMax= 1.44D-05  0.00D+00 EMaxC= 1.00D-01 BMatC= 1.18D-07 BMatP= 3.24D-07
 IDIUse=1 WtCom= 1.00D+00 WtEn= 0.00D+00
 Coeff-Com: -0.157D-05 0.199D-03 0.659D-03 0.121D-02-0.203D-02-0.138D-01
 Coeff-Com: -0.515D-01-0.105D+00 0.488D+00 0.683D+00
 Coeff:     -0.157D-05 0.199D-03 0.659D-03 0.121D-02-0.203D-02-0.138D-01
 Coeff:     -0.515D-01-0.105D+00 0.488D+00 0.683D+00
 Gap=     0.351 Goal=   None    Shift=    0.000
 RMSDP=7.84D-06 MaxDP=5.28D-04 DE=-1.85D-06 OVMax= 3.39D-04

 Cycle  11  Pass 1  IDiag  1:
 E= -1199.64159786464     Delta-E=       -0.000000228442 Rises=F Damp=F
 DIIS: error= 5.07D-06 at cycle  11 NSaved=  11.
 NSaved=11 IEnMin=11 EnMin= -1199.64159786464     IErMin=11 ErrMin= 5.07D-06
 ErrMax= 5.07D-06  0.00D+00 EMaxC= 1.00D-01 BMatC= 1.42D-08 BMatP= 1.18D-07
 IDIUse=1 WtCom= 1.00D+00 WtEn= 0.00D+00
 Coeff-Com:  0.844D-06 0.117D-04 0.613D-04 0.652D-03 0.241D-02 0.738D-02
 Coeff-Com: -0.253D-03-0.446D-01-0.772D-01 0.194D+00 0.918D+00
 Coeff:      0.844D-06 0.117D-04 0.613D-04 0.652D-03 0.241D-02 0.738D-02
 Coeff:     -0.253D-03-0.446D-01-0.772D-01 0.194D+00 0.918D+00
 Gap=     0.351 Goal=   None    Shift=    0.000
 RMSDP=3.34D-06 MaxDP=2.14D-04 DE=-2.28D-07 OVMax= 2.08D-04

 Cycle  12  Pass 1  IDiag  1:
 E= -1199.64159790992     Delta-E=       -0.000000045281 Rises=F Damp=F
 DIIS: error= 2.10D-06 at cycle  12 NSaved=  12.
 NSaved=12 IEnMin=12 EnMin= -1199.64159790992     IErMin=12 ErrMin= 2.10D-06
 ErrMax= 2.10D-06  0.00D+00 EMaxC= 1.00D-01 BMatC= 1.99D-09 BMatP= 1.42D-08
 IDIUse=1 WtCom= 1.00D+00 WtEn= 0.00D+00
 Coeff-Com:  0.107D-05-0.173D-04-0.450D-04-0.470D-04 0.603D-03 0.244D-02
 Coeff-Com:  0.543D-02 0.568D-02-0.645D-01-0.469D-01 0.149D+00 0.949D+00
 Coeff:      0.107D-05-0.173D-04-0.450D-04-0.470D-04 0.603D-03 0.244D-02
 Coeff:      0.543D-02 0.568D-02-0.645D-01-0.469D-01 0.149D+00 0.949D+00
 Gap=     0.351 Goal=   None    Shift=    0.000
 RMSDP=1.08D-06 MaxDP=6.90D-05 DE=-4.53D-08 OVMax= 9.49D-05

 Cycle  13  Pass 1  IDiag  1:
 E= -1199.64159791915     Delta-E=       -0.000000009230 Rises=F Damp=F
 DIIS: error= 1.02D-06 at cycle  13 NSaved=  13.
 NSaved=13 IEnMin=13 EnMin= -1199.64159791915     IErMin=13 ErrMin= 1.02D-06
 ErrMax= 1.02D-06  0.00D+00 EMaxC= 1.00D-01 BMatC= 5.94D-10 BMatP= 1.99D-09
 IDIUse=1 WtCom= 1.00D+00 WtEn= 0.00D+00
 Coeff-Com: -0.565D-06-0.944D-05-0.296D-04-0.163D-03-0.404D-03-0.986D-03
 Coeff-Com:  0.176D-02 0.118D-01 0.444D-02-0.707D-01-0.205D+00 0.316D+00
 Coeff-Com:  0.944D+00
 Coeff:     -0.565D-06-0.944D-05-0.296D-04-0.163D-03-0.404D-03-0.986D-03
 Coeff:      0.176D-02 0.118D-01 0.444D-02-0.707D-01-0.205D+00 0.316D+00
 Coeff:      0.944D+00
 Gap=     0.351 Goal=   None    Shift=    0.000
 RMSDP=6.85D-07 MaxDP=4.78D-05 DE=-9.23D-09 OVMax= 6.22D-05

 Cycle  14  Pass 1  IDiag  1:
 E= -1199.64159792188     Delta-E=       -0.000000002724 Rises=F Damp=F
 DIIS: error= 5.12D-07 at cycle  14 NSaved=  14.
 NSaved=14 IEnMin=14 EnMin= -1199.64159792188     IErMin=14 ErrMin= 5.12D-07
 ErrMax= 5.12D-07  0.00D+00 EMaxC= 1.00D-01 BMatC= 1.59D-10 BMatP= 5.94D-10
 IDIUse=1 WtCom= 1.00D+00 WtEn= 0.00D+00
 Coeff-Com: -0.415D-06 0.360D-06-0.849D-05-0.436D-04-0.285D-03-0.783D-03
 Coeff-Com: -0.309D-03 0.258D-02 0.125D-01-0.169D-01-0.839D-01-0.659D-01
 Coeff-Com:  0.309D+00 0.844D+00
 Coeff:     -0.415D-06 0.360D-06-0.849D-05-0.436D-04-0.285D-03-0.783D-03
 Coeff:     -0.309D-03 0.258D-02 0.125D-01-0.169D-01-0.839D-01-0.659D-01
 Coeff:      0.309D+00 0.844D+00
 Gap=     0.351 Goal=   None    Shift=    0.000
 RMSDP=3.12D-07 MaxDP=1.84D-05 DE=-2.72D-09 OVMax= 2.15D-05

 Cycle  15  Pass 1  IDiag  1:
 E= -1199.64159792214     Delta-E=       -0.000000000261 Rises=F Damp=F
 DIIS: error= 2.17D-07 at cycle  15 NSaved=  15.
 NSaved=15 IEnMin=15 EnMin= -1199.64159792214     IErMin=15 ErrMin= 2.17D-07
 ErrMax= 2.17D-07  0.00D+00 EMaxC= 1.00D-01 BMatC= 2.39D-11 BMatP= 1.59D-10
 IDIUse=1 WtCom= 1.00D+00 WtEn= 0.00D+00
 Coeff-Com: -0.136D-07 0.206D-05-0.762D-06 0.148D-04-0.392D-04-0.880D-04
 Coeff-Com: -0.379D-03-0.120D-02 0.337D-02 0.656D-02 0.912D-02-0.897D-01
 Coeff-Com: -0.668D-01 0.293D+00 0.846D+00
 Coeff:     -0.136D-07 0.206D-05-0.762D-06 0.148D-04-0.392D-04-0.880D-04
 Coeff:     -0.379D-03-0.120D-02 0.337D-02 0.656D-02 0.912D-02-0.897D-01
 Coeff:     -0.668D-01 0.293D+00 0.846D+00
 Gap=     0.351 Goal=   None    Shift=    0.000
 RMSDP=1.38D-07 MaxDP=7.92D-06 DE=-2.61D-10 OVMax= 8.23D-06

 Cycle  16  Pass 1  IDiag  1:
 E= -1199.64159792232     Delta-E=       -0.000000000180 Rises=F Damp=F
 DIIS: error= 3.37D-08 at cycle  16 NSaved=  16.
 NSaved=16 IEnMin=16 EnMin= -1199.64159792232     IErMin=16 ErrMin= 3.37D-08
 ErrMax= 3.37D-08  0.00D+00 EMaxC= 1.00D-01 BMatC= 6.07D-13 BMatP= 2.39D-11
 IDIUse=1 WtCom= 1.00D+00 WtEn= 0.00D+00
 Coeff-Com:  0.427D-07 0.231D-07 0.825D-06 0.428D-05 0.230D-04 0.537D-04
 Coeff-Com: -0.152D-04-0.230D-03-0.780D-03 0.176D-02 0.680D-02 0.422D-02
 Coeff-Com: -0.287D-01-0.668D-01 0.231D-01 0.106D+01
 Coeff:      0.427D-07 0.231D-07 0.825D-06 0.428D-05 0.230D-04 0.537D-04
 Coeff:     -0.152D-04-0.230D-03-0.780D-03 0.176D-02 0.680D-02 0.422D-02
 Coeff:     -0.287D-01-0.668D-01 0.231D-01 0.106D+01
 Gap=     0.351 Goal=   None    Shift=    0.000
 RMSDP=3.68D-08 MaxDP=1.80D-06 DE=-1.80D-10 OVMax= 1.39D-06

 Cycle  17  Pass 1  IDiag  1:
 E= -1199.64159792219     Delta-E=        0.000000000125 Rises=F Damp=F
 DIIS: error= 1.55D-08 at cycle  17 NSaved=  17.
 NSaved=17 IEnMin=16 EnMin= -1199.64159792232     IErMin=17 ErrMin= 1.55D-08
 ErrMax= 1.55D-08  0.00D+00 EMaxC= 1.00D-01 BMatC= 1.03D-13 BMatP= 6.07D-13
 IDIUse=1 WtCom= 1.00D+00 WtEn= 0.00D+00
 Coeff-Com:  0.182D-07-0.404D-07 0.493D-06 0.507D-06 0.889D-05 0.194D-04
 Coeff-Com:  0.117D-04 0.916D-05-0.386D-03 0.231D-03 0.157D-02 0.561D-02
 Coeff-Com: -0.609D-02-0.329D-01-0.403D-01 0.296D+00 0.776D+00
 Coeff:      0.182D-07-0.404D-07 0.493D-06 0.507D-06 0.889D-05 0.194D-04
 Coeff:      0.117D-04 0.916D-05-0.386D-03 0.231D-03 0.157D-02 0.561D-02
 Coeff:     -0.609D-02-0.329D-01-0.403D-01 0.296D+00 0.776D+00
 Gap=     0.351 Goal=   None    Shift=    0.000
 RMSDP=8.25D-09 MaxDP=3.95D-07 DE= 1.25D-10 OVMax= 1.99D-07

 SCF Done:  E(RwB97XD) =  -1199.64159792     A.U. after   17 cycles
            NFock= 17  Conv=0.82D-08     -V/T= 2.0015
 KE= 1.197889533443D+03 PE=-4.728434575048D+03 EE= 1.390449655692D+03
 Leave Link  502 at Fri May 23 03:15:08 2025, MaxMem=  3758096384 cpu:             178.3 elap:              43.1
 (Enter /apps/easybuild-2022/easybuild/software/Compiler/NVHPC/22.11-CUDA-11.7.0/Gaussian/g16c01-CUDA-11.7.0/g16/l508.exe)
 QCSCF skips out because SCF is already converged.
 Leave Link  508 at Fri May 23 03:15:09 2025, MaxMem=  3758096384 cpu:               0.1 elap:               0.0
 (Enter /apps/easybuild-2022/easybuild/software/Compiler/NVHPC/22.11-CUDA-11.7.0/Gaussian/g16c01-CUDA-11.7.0/g16/l801.exe)
 DoSCS=F DFT=T ScalE2(SS,OS)=  1.000000  1.000000
 Range of M.O.s used for correlation:     1   257
 NBasis=   257 NAE=    49 NBE=    49 NFC=     0 NFV=     0
 NROrb=    257 NOA=    49 NOB=    49 NVA=   208 NVB=   208

 **** Warning!!: The largest alpha MO coefficient is  0.38525494D+02

 Leave Link  801 at Fri May 23 03:15:09 2025, MaxMem=  3758096384 cpu:               0.2 elap:               0.2
 (Enter /apps/easybuild-2022/easybuild/software/Compiler/NVHPC/22.11-CUDA-11.7.0/Gaussian/g16c01-CUDA-11.7.0/g16/l1101.exe)
 Using compressed storage, NAtomX=    12.
 Will process     13 centers per pass.
 R6Disp: Adding Grimme-D2 dispersion energy 1st derivatives to the gradient.
 Leave Link 1101 at Fri May 23 03:15:09 2025, MaxMem=  3758096384 cpu:               1.1 elap:               0.2
 (Enter /apps/easybuild-2022/easybuild/software/Compiler/NVHPC/22.11-CUDA-11.7.0/Gaussian/g16c01-CUDA-11.7.0/g16/l1102.exe)
 Symmetrizing basis deriv contribution to polar:
 IMax=3 JMax=2 DiffMx= 0.00D+00
 Leave Link 1102 at Fri May 23 03:15:09 2025, MaxMem=  3758096384 cpu:               0.1 elap:               0.0
 (Enter /apps/easybuild-2022/easybuild/software/Compiler/NVHPC/22.11-CUDA-11.7.0/Gaussian/g16c01-CUDA-11.7.0/g16/l1110.exe)
 Forming Gx(P) for the SCF density, NAtomX=    12.
 Integral derivatives from FoFJK, PRISM(SPDF).
 Do as many integral derivatives as possible in FoFJK.
 G2DrvN: MDV=    3758095012.
 G2DrvN: will do    13 centers at a time, making    1 passes.
 Calling FoFCou, ICntrl=  3107 FMM=F I1Cent=   0 AccDes= 0.00D+00.
 FoFJK:  IHMeth= 1 ICntrl=    3107 DoSepK=T KAlg= 0 I1Cent=           0 FoldK=F
 IRaf=         1 NMat=       1 IRICut=       1 DoRegI=T DoRafI=F ISym2E= 0 IDoP0=0 IntGTp=1.
 FoFCou: FMM=F IPFlag=           0 FMFlag=      100000 FMFlg1=           0
         NFxFlg=           0 DoJE=F BraDBF=F KetDBF=F FulRan=T
         wScrn=  0.000000 ICntrl=      3507 IOpCl=  0 I1Cent=           0 NGrid=           0
         NMat0=    1 NMatS0=      1 NMatT0=    0 NMatD0=    1 NMtDS0=    0 NMtDT0=    0
 Symmetry not used in FoFCou.
 End of G2Drv F.D. properties file   721 does not exist.
 End of G2Drv F.D. properties file   722 does not exist.
 End of G2Drv F.D. properties file   788 does not exist.
 Leave Link 1110 at Fri May 23 03:15:31 2025, MaxMem=  3758096384 cpu:             175.7 elap:              22.3
 (Enter /apps/easybuild-2022/easybuild/software/Compiler/NVHPC/22.11-CUDA-11.7.0/Gaussian/g16c01-CUDA-11.7.0/g16/l1002.exe)
 Minotr:  Closed shell wavefunction.
          IDoAtm=111111111111
          Direct CPHF calculation.
          Differentiating once with respect to electric field.
                with respect to dipole field.
          Differentiating once with respect to nuclear coordinates.
          Requested convergence is 1.0D-08 RMS, and 1.0D-07 maximum.
          Secondary convergence is 1.0D-12 RMS, and 1.0D-12 maximum.
          NewPWx=T KeepS1=F KeepF1=F KeepIn=T MapXYZ=F SortEE=F KeepMc=T.
         3710 words used for storage of precomputed grid.
 Keep R1 ints in memory in canonical form, NReq=1117480302.
 FoFCou: FMM=F IPFlag=           0 FMFlag=           0 FMFlg1=           0
         NFxFlg=           0 DoJE=F BraDBF=F KetDBF=F FulRan=T
         wScrn=  0.000000 ICntrl=       600 IOpCl=  0 I1Cent=           0 NGrid=           0
         NMat0=    1 NMatS0=  33153 NMatT0=    0 NMatD0=    1 NMtDS0=    0 NMtDT0=    0
 Symmetry not used in FoFCou.
 Two-electron integral symmetry not used.
          MDV=    3758096384 using IRadAn=       1.
          Solving linear equations simultaneously, MaxMat=       0.
          There are    39 degrees of freedom in the 1st order CPHF.  IDoFFX=6 NUNeed=     3.
     36 vectors produced by pass  0 Test12= 2.61D-14 2.56D-09 XBig12= 2.56D+01 1.81D+00.
 AX will form    36 AO Fock derivatives at one time.
     36 vectors produced by pass  1 Test12= 2.61D-14 2.56D-09 XBig12= 6.31D+00 3.55D-01.
     36 vectors produced by pass  2 Test12= 2.61D-14 2.56D-09 XBig12= 2.51D-01 1.36D-01.
     36 vectors produced by pass  3 Test12= 2.61D-14 2.56D-09 XBig12= 5.15D-03 1.42D-02.
     36 vectors produced by pass  4 Test12= 2.61D-14 2.56D-09 XBig12= 9.04D-05 1.36D-03.
     36 vectors produced by pass  5 Test12= 2.61D-14 2.56D-09 XBig12= 1.03D-06 1.31D-04.
     36 vectors produced by pass  6 Test12= 2.61D-14 2.56D-09 XBig12= 8.29D-09 1.00D-05.
     28 vectors produced by pass  7 Test12= 2.61D-14 2.56D-09 XBig12= 5.66D-11 8.87D-07.
      6 vectors produced by pass  8 Test12= 2.61D-14 2.56D-09 XBig12= 3.86D-13 7.97D-08.
      3 vectors produced by pass  9 Test12= 2.61D-14 2.56D-09 XBig12= 2.53D-15 6.66D-09.
 InvSVY:  IOpt=1 It=  1 EMax= 5.33D-15
 Solved reduced A of dimension   289 with    39 vectors.
 FullF1:  Do perturbations      1 to       3.
 Isotropic polarizability for W=    0.000000       57.66 Bohr**3.
 End of Minotr F.D. properties file   721 does not exist.
 End of Minotr F.D. properties file   722 does not exist.
 End of Minotr F.D. properties file   788 does not exist.
 Leave Link 1002 at Fri May 23 03:16:39 2025, MaxMem=  3758096384 cpu:             513.7 elap:              67.3
 (Enter /apps/easybuild-2022/easybuild/software/Compiler/NVHPC/22.11-CUDA-11.7.0/Gaussian/g16c01-CUDA-11.7.0/g16/l701.exe)
 ... and contract with generalized density number  0.
 Compute integral second derivatives.
 R6Disp: Adding Grimme-D2 dispersion energy 2nd derivatives to the Hessian.
 Leave Link  701 at Fri May 23 03:16:39 2025, MaxMem=  3758096384 cpu:               0.9 elap:               0.2
 (Enter /apps/easybuild-2022/easybuild/software/Compiler/NVHPC/22.11-CUDA-11.7.0/Gaussian/g16c01-CUDA-11.7.0/g16/l702.exe)
 L702 exits ... SP integral derivatives will be done elsewhere.
 Leave Link  702 at Fri May 23 03:16:39 2025, MaxMem=  3758096384 cpu:               0.1 elap:               0.1
 (Enter /apps/easybuild-2022/easybuild/software/Compiler/NVHPC/22.11-CUDA-11.7.0/Gaussian/g16c01-CUDA-11.7.0/g16/l703.exe)
 Integral derivatives from FoFJK, PRISM(SPDF).
 Compute integral second derivatives, UseDBF=F ICtDFT=           0.
 Calling FoFJK, ICntrl=    100127 FMM=F ISym2X=0 I1Cent= 0 IOpClX= 0 NMat=1 NMatS=1 NMatT=0.
 FoFJK:  IHMeth= 1 ICntrl=  100127 DoSepK=T KAlg= 0 I1Cent=           0 FoldK=F
 IRaf=         1 NMat=       1 IRICut=       1 DoRegI=T DoRafI=F ISym2E= 0 IDoP0=0 IntGTp=1.
 FoFCou: FMM=F IPFlag=           0 FMFlag=      100000 FMFlg1=         800
         NFxFlg=           0 DoJE=F BraDBF=F KetDBF=F FulRan=T
         wScrn=  0.000000 ICntrl=    100527 IOpCl=  0 I1Cent=           0 NGrid=           0
         NMat0=    1 NMatS0=      1 NMatT0=    0 NMatD0=    1 NMtDS0=    0 NMtDT0=    0
 Symmetry not used in FoFCou.
 Leave Link  703 at Fri May 23 03:17:49 2025, MaxMem=  3758096384 cpu:             556.0 elap:              70.2
 (Enter /apps/easybuild-2022/easybuild/software/Compiler/NVHPC/22.11-CUDA-11.7.0/Gaussian/g16c01-CUDA-11.7.0/g16/l716.exe)
 Dipole        = 9.88923845D-01 5.06841141D-01-9.29298311D-01
 Polarizability= 5.84289653D+01-7.53842793D-01 5.64361518D+01
                -5.30556568D+00 3.89701066D+00 5.81022199D+01
 -------------------------------------------------------------------
 Center     Atomic                   Forces (Hartrees/Bohr)
 Number     Number              X              Y              Z
 -------------------------------------------------------------------
      1        6          -0.019144167   -0.001074296    0.015173136
      2        6          -0.128827094    0.034394901   -0.022048805
      3        9           0.000467350   -0.021933201   -0.018332022
      4        9          -0.003885524    0.010875653   -0.006643889
      5       16          -0.031612417    0.201282719    0.153951039
      6        8           0.099890638   -0.066891357   -0.052395739
      7        8           0.050419999   -0.157310789   -0.035193404
      8        8           0.019683735    0.011826605   -0.026244177
      9        9           0.015601044   -0.015924869    0.000802043
     10        9           0.004732027    0.005934845   -0.008986749
     11        9          -0.002882469    0.002535256   -0.010868658
     12        1          -0.004443120   -0.003715466    0.010787224
 -------------------------------------------------------------------
 Cartesian Forces:  Max     0.201282719 RMS     0.060766751
 Force constants in Cartesian coordinates: 
                1             2             3             4             5 
      1  0.534144D+00
      2 -0.165937D-01  0.559784D+00
      3  0.229037D-02 -0.261623D-01  0.566452D+00
      4 -0.676683D-01  0.102039D-01  0.582766D-01  0.583273D+00
      5 -0.150408D-01 -0.675942D-01  0.418060D-01 -0.762314D-01  0.430867D+00
      6  0.735691D-01  0.318263D-01 -0.885635D-01 -0.111106D+00 -0.547717D-01
      7 -0.949379D-02 -0.818596D-02 -0.552111D-02 -0.106375D+00 -0.110588D-02
      8 -0.161060D-02  0.433480D-02  0.341284D-02 -0.397272D-02 -0.570267D-01
      9 -0.271663D-01 -0.999842D-02 -0.393101D-01 -0.323801D-01  0.156913D-02
     10  0.271397D-02 -0.113828D-01 -0.861820D-03 -0.629458D-01  0.241337D-01
     11  0.989407D-02 -0.306389D-01 -0.159304D-02 -0.103693D-02 -0.223469D+00
     12 -0.641022D-02  0.188092D-01 -0.214557D-02  0.117597D-01  0.126018D-01
     13 -0.200161D-01 -0.245209D-02  0.239264D-01 -0.316013D+00  0.985524D-01
     14 -0.483890D-02  0.262873D-01 -0.808788D-02  0.890804D-01 -0.316466D-01
     15  0.256529D-01 -0.108101D-01  0.362367D-02  0.736163D-01  0.213619D-01
     16 -0.128877D-01 -0.108643D-01 -0.266995D-01  0.229305D-02 -0.713618D-02
     17 -0.490548D-02 -0.964310D-02 -0.116117D-01 -0.567057D-03 -0.177712D-01
     18 -0.141692D-01 -0.153164D-02 -0.178386D-01  0.191237D-01 -0.253743D-01
     19  0.175826D-02  0.821215D-03 -0.393143D-02  0.119806D-01  0.135166D-01
     20 -0.928299D-03 -0.105026D-01  0.423405D-02 -0.139058D-01 -0.376120D-02
     21 -0.356232D-02 -0.152776D-02 -0.108314D-02 -0.108518D-01 -0.465489D-02
     22  0.369949D-02  0.686393D-02 -0.643990D-02 -0.660436D-02 -0.277889D-01
     23  0.390697D-02  0.792335D-03 -0.215347D-02  0.758401D-02 -0.145438D-01
     24 -0.721594D-02 -0.391154D-02 -0.698118D-03 -0.109669D-01  0.745119D-02
     25 -0.106241D+00  0.704914D-01 -0.429176D-01  0.326284D-02 -0.590030D-02
     26  0.694736D-01 -0.221714D+00  0.100665D+00  0.132018D-01 -0.153543D-01
     27 -0.393971D-01  0.106279D+00 -0.142061D+00 -0.215064D-01  0.234297D-01
     28 -0.854136D-01  0.255185D-01  0.335930D-01 -0.789060D-02  0.123251D-01
     29  0.269454D-01 -0.149705D+00 -0.896778D-01 -0.787935D-03 -0.561923D-02
     30  0.398603D-01 -0.862685D-01 -0.188746D+00  0.136718D-01 -0.276286D-01
     31 -0.240441D+00 -0.640224D-01 -0.325387D-01 -0.339524D-01 -0.791607D-02
     32 -0.645127D-01 -0.100073D+00 -0.119853D-01 -0.204240D-01  0.195303D-02
     33 -0.442815D-01 -0.170161D-01 -0.894975D-01  0.817840D-02  0.133341D-02
     34 -0.154434D-03 -0.397612D-03  0.823661D-03  0.640362D-03 -0.740816D-02
     35 -0.178957D-02 -0.132783D-02  0.115367D-02 -0.314430D-02  0.396632D-02
     36  0.829826D-03  0.312023D-03 -0.132700D-03  0.218496D-02  0.287645D-02
                6             7             8             9            10 
      6  0.290387D+00
      7 -0.520488D-01  0.137060D+00
      8 -0.675548D-02  0.442545D-01  0.108606D+00
      9 -0.133899D+00  0.109761D+00  0.611313D-01  0.237882D+00
     10  0.934168D-02  0.543148D-02 -0.405657D-01 -0.214044D-01  0.957305D-01
     11  0.581231D-02 -0.256887D-01 -0.691809D-01 -0.498155D-01 -0.222731D-01
     12 -0.536593D-01 -0.183052D-01 -0.680174D-01 -0.211397D-01  0.492171D-01
     13  0.412197D-01 -0.196225D-01  0.321072D-03 -0.142594D-01 -0.109688D-01
     14  0.397769D-01 -0.701724D-02  0.243080D-02 -0.880545D-02  0.203611D-01
     15  0.541160D-01 -0.418992D-01  0.884970D-03 -0.319462D-01 -0.963329D-02
     16  0.295822D-01 -0.105194D-01  0.135660D-02 -0.212399D-01 -0.293026D-01
     17 -0.168797D-01 -0.795439D-02  0.432388D-02 -0.697548D-02  0.289107D-01
     18 -0.120400D-01 -0.195097D-01  0.216435D-02 -0.116940D-01 -0.354536D-01
     19 -0.105385D-01 -0.294154D-02 -0.196602D-02 -0.902048D-03 -0.194933D-02
     20 -0.812659D-02  0.679300D-02  0.282635D-02  0.765155D-02  0.350496D-02
     21 -0.766946D-02  0.653361D-02  0.897436D-03  0.734906D-02  0.212302D-02
     22  0.192012D-01 -0.168312D-02  0.148536D-02 -0.239747D-02 -0.132350D-02
     23  0.960193D-02 -0.293101D-02  0.186247D-02 -0.418849D-02  0.106826D-02
     24 -0.180139D-01  0.556023D-02 -0.103564D-02  0.873220D-02  0.249823D-02
     25 -0.153426D-02  0.263229D-02  0.116377D-03  0.225165D-02  0.667171D-03
     26  0.968315D-02 -0.529810D-03  0.327281D-03  0.684353D-02 -0.346868D-02
     27 -0.650867D-02  0.182053D-02 -0.735327D-03 -0.526805D-02  0.421130D-02
     28  0.110859D-01  0.212369D-02 -0.366750D-03  0.462147D-02  0.864392D-03
     29 -0.366184D-02  0.163847D-02  0.137982D-02 -0.434388D-03 -0.294351D-02
     30 -0.238060D-01  0.770750D-04  0.223179D-02 -0.622250D-02  0.115165D-03
     31 -0.125894D-01  0.353791D-02 -0.248730D-03  0.368142D-02  0.972889D-03
     32 -0.388137D-02 -0.431870D-03  0.663790D-03  0.236996D-02  0.102581D-02
     33 -0.301147D-02  0.142806D-01  0.612938D-02 -0.281008D-02  0.198800D-03
     34  0.381737D-02 -0.150388D-03  0.119659D-02 -0.566349D-03  0.109549D-03
     35 -0.262388D-02  0.115888D-02 -0.547483D-03  0.652252D-03  0.162935D-02
     36  0.266851D-02 -0.749331D-03 -0.308252D-03 -0.167401D-02 -0.352287D-03
               11            12            13            14            15 
     11  0.346317D+00
     12  0.935284D-02  0.108388D+00
     13  0.895915D-02 -0.614948D-02  0.651504D+00
     14 -0.248633D-01 -0.376529D-02 -0.285555D+00  0.139844D+01
     15  0.899641D-02 -0.143196D-01 -0.153544D+00  0.174811D+00  0.345025D+00
     16  0.302798D-01 -0.382666D-01 -0.626608D-01 -0.378764D-01 -0.502889D-01
     17 -0.501083D-02  0.285981D-01 -0.520308D-01 -0.485117D-01  0.917122D-02
     18  0.267434D-01 -0.235128D-01 -0.788986D-01  0.190886D-01 -0.634959D-01
     19  0.349166D-02  0.397210D-02 -0.115174D+00  0.309909D+00  0.884486D-01
     20 -0.236199D-02  0.417878D-03  0.318990D+00 -0.108610D+01 -0.326433D+00
     21  0.910215D-04  0.446094D-02  0.105661D+00 -0.353193D+00 -0.114395D+00
     22 -0.915893D-03  0.145354D-02 -0.107788D+00 -0.668050D-01  0.796751D-01
     23  0.966071D-02 -0.461751D-02 -0.868350D-01 -0.197201D+00  0.119073D+00
     24 -0.513591D-02  0.370865D-02  0.988314D-01  0.106403D+00 -0.167376D+00
     25 -0.219739D-02  0.183424D-02 -0.461843D-03  0.399629D-02 -0.447189D-02
     26 -0.305824D-02  0.270507D-02  0.160264D-02 -0.111284D-01  0.180809D-02
     27  0.495578D-02 -0.358231D-02 -0.280399D-02  0.230269D-02 -0.259734D-02
     28 -0.925009D-03 -0.598561D-04 -0.714387D-03 -0.214448D-02  0.163208D-03
     29  0.504222D-02  0.364155D-02 -0.435367D-02 -0.273444D-02  0.220407D-03
     30 -0.596049D-04  0.112746D-02 -0.837837D-02  0.202591D-02 -0.485155D-02
     31 -0.492429D-02  0.275952D-02  0.545675D-02 -0.322708D-02 -0.604530D-02
     32  0.149769D-03  0.319773D-03  0.260094D-02 -0.419317D-02 -0.100449D-02
     33  0.196507D-02  0.858128D-03 -0.267043D-02  0.214366D-02 -0.162377D-02
     34  0.533663D-02 -0.180498D-02 -0.354213D-02 -0.158830D-01 -0.167393D-02
     35 -0.258658D-02 -0.460076D-04  0.200530D-03 -0.207776D-01  0.192110D-02
     36 -0.131283D-02 -0.183688D-03 -0.293451D-02  0.272998D-01 -0.215930D-02
               16            17            18            19            20 
     16  0.109255D+00
     17  0.314746D-01  0.609320D-01
     18  0.779169D-01 -0.215054D-01  0.100346D+00
     19  0.161710D-01  0.896340D-02  0.241550D-01  0.780377D-01
     20 -0.778629D-02  0.120276D-01  0.986141D-02 -0.313586D+00  0.112051D+01
     21  0.368406D-02  0.160444D-02  0.194288D-01 -0.106022D+00  0.318608D+00
     22  0.788756D-02  0.806435D-02  0.144907D-01  0.119676D-01  0.897929D-02
     23  0.676223D-02  0.470218D-02 -0.847658D-02 -0.205240D-01 -0.448273D-01
     24  0.154949D-01  0.151879D-01 -0.385739D-02 -0.232546D-02 -0.750430D-02
     25 -0.294186D-02 -0.993750D-02  0.595692D-02 -0.588920D-03 -0.168968D-02
     26 -0.685538D-02 -0.454491D-02  0.183885D-02 -0.594544D-03  0.496114D-02
     27  0.379762D-02  0.834449D-03  0.540277D-02  0.163665D-02 -0.121975D-02
     28 -0.818574D-02  0.208222D-02  0.794792D-02 -0.222758D-03  0.107013D-02
     29  0.171186D-02  0.357514D-02  0.119757D-02  0.777347D-03  0.177391D-02
     30  0.373707D-02  0.265711D-02  0.294950D-02  0.176557D-02 -0.586189D-03
     31 -0.753819D-02 -0.366635D-02 -0.463011D-03 -0.935512D-03  0.218970D-02
     32 -0.355847D-02 -0.727102D-03 -0.116962D-02 -0.539745D-03  0.208356D-02
     33  0.434890D-02  0.164308D-02  0.324126D-02  0.545113D-03 -0.714300D-03
     34 -0.156981D-02 -0.433648D-03 -0.109708D-02  0.189665D-02 -0.363074D-02
     35  0.249190D-02  0.648031D-03 -0.283673D-02 -0.269074D-03  0.337327D-02
     36 -0.206680D-02 -0.272400D-02  0.107088D-02  0.319665D-02  0.381050D-02
               21            22            23            24            25 
     21  0.824971D-01
     22 -0.452321D-02  0.119033D+00
     23  0.348007D-01  0.677047D-02  0.725692D+00
     24  0.942381D-02 -0.127985D+00 -0.718361D-01  0.193714D+00
     25  0.137005D-02  0.353080D-03 -0.945846D-03  0.114489D-02  0.172384D+00
     26  0.459855D-03 -0.171373D-02  0.788314D-03  0.107511D-02 -0.132418D+00
     27 -0.397639D-03  0.105922D-02  0.378603D-04  0.219666D-03  0.835778D-01
     28  0.759847D-03 -0.196466D-02 -0.134812D-02  0.308516D-02 -0.316100D-02
     29  0.846400D-03  0.590548D-03  0.574771D-03  0.567863D-03  0.384709D-01
     30  0.816780D-03  0.350776D-02  0.121862D-02  0.567204D-04  0.436813D-02
     31  0.201579D-02 -0.212868D-02 -0.197700D-02  0.277001D-02 -0.658028D-01
     32  0.902776D-03 -0.133281D-02 -0.582526D-03  0.116910D-02  0.397313D-01
     33  0.311400D-03  0.799017D-03  0.504588D-04  0.353994D-03 -0.513668D-01
     34  0.281241D-02 -0.214489D-01  0.884690D-01  0.191084D-01 -0.102427D-03
     35  0.116425D-02  0.658024D-01 -0.486918D+00 -0.424308D-01  0.282117D-03
     36 -0.742893D-03  0.211590D-01 -0.735100D-01 -0.262635D-01 -0.213187D-03
               26            27            28            29            30 
     26  0.310876D+00
     27 -0.126534D+00  0.144681D+00
     28  0.385548D-01  0.114144D-01  0.105324D+00
     29 -0.744821D-01 -0.268008D-01 -0.357653D-01  0.250087D+00
     30 -0.978161D-02  0.208165D-01 -0.320003D-01  0.160638D+00  0.229480D+00
     31  0.221285D-01 -0.432607D-01 -0.693042D-03 -0.264013D-01 -0.264768D-01
     32  0.130822D-01  0.175662D-01 -0.398192D-01 -0.297060D-01 -0.436823D-01
     33  0.115224D-01 -0.108236D-01 -0.405032D-01 -0.464565D-01 -0.316187D-01
     34  0.618473D-03 -0.549364D-03 -0.661154D-04  0.117204D-03 -0.247373D-03
     35  0.246978D-03 -0.115231D-03  0.818113D-03 -0.185573D-03 -0.765015D-03
     36 -0.284982D-03  0.118005D-03 -0.107642D-03 -0.808846D-04 -0.228532D-05
               31            32            33            34            35 
     31  0.341398D+00
     32  0.871551D-01  0.116941D+00
     33  0.110633D+00  0.395770D-01  0.134647D+00
     34  0.126285D-03  0.105588D-03 -0.162312D-03  0.242613D-01
     35  0.909925D-03  0.408153D-03 -0.177529D-03 -0.680903D-01  0.503700D+00
     36 -0.486197D-03 -0.181709D-03 -0.268621D-04 -0.204605D-01  0.441039D-01
               36 
     36  0.273278D-01
 FormGI is forming the generalized inverse of G from B-inverse, IUseBI=4.
 Leave Link  716 at Fri May 23 03:17:50 2025, MaxMem=  3758096384 cpu:               0.2 elap:               0.1
 (Enter /apps/easybuild-2022/easybuild/software/Compiler/NVHPC/22.11-CUDA-11.7.0/Gaussian/g16c01-CUDA-11.7.0/g16/l103.exe)

 GradGradGradGradGradGradGradGradGradGradGradGradGradGradGradGradGradGrad
 Berny optimization.
 Red2BG is reusing G-inverse.
 Internal  Forces:  Max     0.168255011 RMS     0.045841139
 Search for a saddle point.
 Step number   1 out of a maximum of  100
 All quantities printed in internal units (Hartrees-Bohrs-Radians)
 Swapping is turned off.
 Second derivative matrix not updated -- analytic derivatives used.
 ITU=  0
     Eigenvalues ---   -0.00360   0.00482   0.00549   0.01502   0.02988
     Eigenvalues ---    0.05071   0.08215   0.09055   0.10123   0.10667
     Eigenvalues ---    0.12508   0.15308   0.18170   0.19709   0.22734
     Eigenvalues ---    0.26754   0.27550   0.28123   0.28875   0.36886
     Eigenvalues ---    0.37688   0.39188   0.39856   0.41335   0.43675
     Eigenvalues ---    0.44110   0.51967   0.60756   0.95042   1.30224
 Eigenvectors required to have negative eigenvalues:
                          R8        D6        D9        D17       D18
   1                   -0.78798  -0.20921  -0.20234  -0.20160  -0.20118
                          D3        D20       A16       A13       A11
   1                   -0.19648  -0.16908  -0.15574   0.15480   0.13228
 RFO step:  Lambda0=1.104028235D-01 Lambda=-1.16790476D-01.
 Linear search not attempted -- option 19 set.
 Maximum step size (   0.300) exceeded in Quadratic search.
    -- Step size scaled by   0.389
 Iteration  1 RMS(Cart)=  0.07591356 RMS(Int)=  0.00583825
 Iteration  2 RMS(Cart)=  0.00613670 RMS(Int)=  0.00059491
 Iteration  3 RMS(Cart)=  0.00002086 RMS(Int)=  0.00059480
 Iteration  4 RMS(Cart)=  0.00000002 RMS(Int)=  0.00059480
 ITry= 1 IFail=0 DXMaxC= 2.30D-01 DCOld= 1.00D+10 DXMaxT= 3.00D-01 DXLimC= 3.00D+00 Rises=F
 Variable       Old X    -DE/DX   Delta X   Delta X   Delta X     New X
                                 (Linear)    (Quad)   (Total)
    R1        2.98674   0.00122   0.00000  -0.00668  -0.00668   2.98005
    R2        2.48413   0.01960   0.00000   0.00748   0.00748   2.49161
    R3        2.51751  -0.00330   0.00000  -0.00690  -0.00690   2.51061
    R4        2.51464   0.00516   0.00000  -0.00047  -0.00047   2.51417
    R5        2.61856   0.01918   0.00000   0.02568   0.02568   2.64423
    R6        2.58476   0.01140   0.00000  -0.03099  -0.03099   2.55377
    R7        3.15583   0.12722   0.00000   0.06266   0.06266   3.21850
    R8        3.40149  -0.09663   0.00000   0.23946   0.23946   3.64096
    R9        2.52564   0.16826   0.00000   0.04998   0.04998   2.57562
   R10        2.91188   0.02143   0.00000   0.01785   0.01785   2.92973
   R11        1.83124  -0.00189   0.00000   0.00104   0.00104   1.83228
    A1        1.97657  -0.01060   0.00000  -0.00905  -0.00909   1.96748
    A2        1.96612  -0.01297   0.00000  -0.01720  -0.01726   1.94886
    A3        1.94790  -0.01220   0.00000  -0.00776  -0.00782   1.94008
    A4        1.87215   0.01501   0.00000   0.02000   0.01996   1.89211
    A5        1.84523   0.01244   0.00000   0.00679   0.00675   1.85197
    A6        1.84677   0.01202   0.00000   0.01070   0.01061   1.85738
    A7        1.81965   0.00369   0.00000  -0.00703  -0.00939   1.81026
    A8        1.92176  -0.00014   0.00000   0.05159   0.05061   1.97237
    A9        2.07142   0.00470   0.00000  -0.00727  -0.00925   2.06217
   A10        1.69442   0.00526   0.00000   0.01342   0.01425   1.70867
   A11        1.96060  -0.01825   0.00000  -0.07856  -0.07934   1.88126
   A12        1.95473   0.00415   0.00000   0.02688   0.02602   1.98075
   A13        1.15673   0.16764   0.00000   0.00906   0.00967   1.16640
   A14        2.13296  -0.01389   0.00000  -0.04119  -0.04111   2.09184
   A15        1.84623  -0.01602   0.00000   0.00627   0.00630   1.85253
   A16        2.41745  -0.05321   0.00000   0.06586   0.06650   2.48395
   A17        1.86540  -0.02819   0.00000  -0.06157  -0.06160   1.80379
   A18        1.89258   0.00380   0.00000   0.00902   0.00884   1.90142
   A19        2.11085  -0.02164   0.00000  -0.04760  -0.04760   2.06326
    D1        1.96806  -0.00963   0.00000  -0.00020  -0.00028   1.96778
    D2       -2.51377  -0.00217   0.00000   0.02968   0.02947  -2.48430
    D3       -0.22880   0.00837   0.00000   0.11646   0.11676  -0.11204
    D4       -2.18654  -0.00771   0.00000   0.00628   0.00618  -2.18036
    D5       -0.38518  -0.00025   0.00000   0.03615   0.03593  -0.34925
    D6        1.89979   0.01029   0.00000   0.12294   0.12322   2.02301
    D7       -0.11184  -0.00964   0.00000   0.00285   0.00278  -0.10906
    D8        1.68952  -0.00218   0.00000   0.03272   0.03253   1.72205
    D9       -2.30870   0.00836   0.00000   0.11951   0.11982  -2.18888
   D10       -1.10913  -0.00480   0.00000  -0.06397  -0.06314  -1.17227
   D11        1.22341   0.00808   0.00000   0.01823   0.01858   1.24199
   D12       -2.88678  -0.01270   0.00000   0.00504   0.00569  -2.88109
   D13        3.04668   0.00257   0.00000   0.02262   0.02195   3.06863
   D14       -0.90396   0.01544   0.00000   0.10482   0.10367  -0.80029
   D15        1.26904  -0.00534   0.00000   0.09162   0.09077   1.35981
   D16        1.16097   0.00402   0.00000   0.03502   0.03552   1.19649
   D17       -2.78968   0.01689   0.00000   0.11722   0.11724  -2.67244
   D18       -0.61668  -0.00389   0.00000   0.10402   0.10434  -0.51234
   D19        0.80434   0.06654   0.00000   0.04986   0.04965   0.85398
   D20       -0.40764  -0.10267   0.00000   0.05045   0.05086  -0.35678
   D21        3.12028   0.04020   0.00000   0.00864   0.00845   3.12873
         Item               Value     Threshold  Converged?
 Maximum Force            0.168255     0.000450     NO 
 RMS     Force            0.045841     0.000300     NO 
 Maximum Displacement     0.229735     0.001800     NO 
 RMS     Displacement     0.078674     0.001200     NO 
 Predicted change in Energy= 3.508223D-03
 Lowest energy point so far.  Saving SCF results.
 GradGradGradGradGradGradGradGradGradGradGradGradGradGradGradGradGradGrad

 Leave Link  103 at Fri May 23 03:17:50 2025, MaxMem=  3758096384 cpu:               0.1 elap:               0.1
 (Enter /apps/easybuild-2022/easybuild/software/Compiler/NVHPC/22.11-CUDA-11.7.0/Gaussian/g16c01-CUDA-11.7.0/g16/l202.exe)
                          Input orientation:                          
 ---------------------------------------------------------------------
 Center     Atomic      Atomic             Coordinates (Angstroms)
 Number     Number       Type             X           Y           Z
 ---------------------------------------------------------------------
      1          6           0       -0.683973   -0.157918    1.418527
      2          6           0        0.154757    0.465420    0.237495
      3          9           0       -0.566142    0.106779   -0.906896
      4          9           0        0.009569    1.805172    0.136192
      5         16           0        1.760729   -0.061176    0.027053
      6          8           0        1.497282    0.937190    1.653730
      7          8           0        2.007044   -1.317927   -0.439387
      8          8           0        2.431055    0.967399   -0.919664
      9          9           0       -0.049672   -1.137475    2.032186
     10          9           0       -1.015034    0.758342    2.321818
     11          9           0       -1.825262   -0.678063    0.974702
     12          1           0        2.330070    1.910292   -0.717462
 ---------------------------------------------------------------------
                    Distance matrix (angstroms):
                    1          2          3          4          5
     1  C    0.000000
     2  C    1.576977   0.000000
     3  F    2.343405   1.399268   0.000000
     4  F    2.445222   1.351399   2.074612   0.000000
     5  S    2.814628   1.703154   2.512927   2.561587   0.000000
     6  O    2.452031   2.007650   3.391771   2.295562   1.926712
     7  O    3.469732   2.658846   2.978194   3.751659   1.362960
     8  O    4.054242   2.602409   3.118336   2.771333   1.550348
     9  F    1.318502   2.414949   3.233128   3.501068   2.908011
    10  F    1.328558   2.408031   3.324249   2.631088   3.693564
    11  F    1.330440   2.402395   2.396199   3.199399   3.760043
    12  H    4.233722   2.780573   3.417103   2.474773   2.182920
                    6          7          8          9         10
     6  O    0.000000
     7  O    3.118742   0.000000
     8  O    2.737737   2.373430   0.000000
     9  F    2.615441   3.220453   4.392940   0.000000
    10  F    2.605774   4.590000   4.735656   2.147075   0.000000
    11  F    3.756250   4.134688   4.940891   2.117085   2.129424
    12  H    2.694998   3.256236   0.969603   4.744747   4.664111
                   11         12
    11  F    0.000000
    12  H    5.179748   0.000000
 Symmetry turned off by external request.
 Stoichiometry    C2HF5O3S
 Rotational constants (GHZ):           1.6185733           0.8431239           0.8169758
 Leave Link  202 at Fri May 23 03:17:50 2025, MaxMem=  3758096384 cpu:               0.1 elap:               0.1
 (Enter /apps/easybuild-2022/easybuild/software/Compiler/NVHPC/22.11-CUDA-11.7.0/Gaussian/g16c01-CUDA-11.7.0/g16/l301.exe)
 Standard basis: 6-311++G(d,p) (5D, 7F)
 Ernie: Thresh=  0.10000D-02 Tol=  0.10000D-05 Strict=F.
   257 basis functions,   419 primitive gaussians,   268 cartesian basis functions
    49 alpha electrons       49 beta electrons
       nuclear repulsion energy       930.8791279713 Hartrees.
 IExCor= 4639 DFT=T Ex+Corr=wB97XD ExCW=0 ScaHFX=  1.000000
 ScaDFX=  1.000000  1.000000  1.000000  1.000000 ScalE2=  1.000000  1.000000
 IRadAn=      5 IRanWt=     -1 IRanGd=            0 ICorTp=0 IEmpDi=121
 HFx  wShort=  0.000000 wLong=  0.200000 cFull=  0.222036 cShort=  0.000000 cLong=  0.777964
 DFx  wShort=  0.000000 wLong=  0.200000 cFull=  0.000000 cShort=  0.000000 cLong=  1.000000
 NAtoms=   12 NActive=   12 NUniq=   12 SFac= 1.00D+00 NAtFMM=   60 NAOKFM=F Big=F
 Integral buffers will be    131072 words long.
 Raffenetti 2 integral format.
 Two-electron integral symmetry is turned off.
 R6Disp:  Grimme-D2 Dispersion energy=       -0.0053666966 Hartrees.
 Nuclear repulsion after empirical dispersion term =      930.8737612747 Hartrees.
 Leave Link  301 at Fri May 23 03:17:50 2025, MaxMem=  3758096384 cpu:               0.2 elap:               0.2
 (Enter /apps/easybuild-2022/easybuild/software/Compiler/NVHPC/22.11-CUDA-11.7.0/Gaussian/g16c01-CUDA-11.7.0/g16/l302.exe)
 NPDir=0 NMtPBC=     1 NCelOv=     1 NCel=       1 NClECP=     1 NCelD=      1
         NCelK=      1 NCelE2=     1 NClLst=     1 CellRange=     0.0.
 One-electron integrals computed using PRISM.
 NBasis=   257 RedAO= T EigKep=  4.84D-05  NBF=   257
 NBsUse=   257 1.00D-06 EigRej= -1.00D+00 NBFU=   257
 Precomputing XC quadrature grid using
 IXCGrd= 4 IRadAn=           5 IRanWt=          -1 IRanGd=           0 AccXCQ= 0.00D+00.
 Generated NRdTot=       0 NPtTot=           0 NUsed=           0 NTot=          32
 NSgBfM=   268   268   268   268   268 MxSgAt=    12 MxSgA2=    12.
 Leave Link  302 at Fri May 23 03:17:50 2025, MaxMem=  3758096384 cpu:               0.9 elap:               0.2
 (Enter /apps/easybuild-2022/easybuild/software/Compiler/NVHPC/22.11-CUDA-11.7.0/Gaussian/g16c01-CUDA-11.7.0/g16/l303.exe)
 DipDrv:  MaxL=1.
 Leave Link  303 at Fri May 23 03:17:50 2025, MaxMem=  3758096384 cpu:               0.1 elap:               0.0
 (Enter /apps/easybuild-2022/easybuild/software/Compiler/NVHPC/22.11-CUDA-11.7.0/Gaussian/g16c01-CUDA-11.7.0/g16/l401.exe)
 Initial guess from the checkpoint file:  "2003846667223680600001_r12_insertion_R_2_5_6.chk"
 B after Tr=    -0.014304   -0.019484   -0.011934
         Rot=    0.999979    0.004698   -0.003365   -0.003076 Ang=   0.75 deg.
 Guess basis will be translated and rotated to current coordinates.
 JPrj=2 DoOrth=T DoCkMO=T.
 Generating alternative initial guess.
 ExpMin= 3.60D-02 ExpMax= 9.34D+04 ExpMxC= 3.17D+03 IAcc=3 IRadAn=         5 AccDes= 0.00D+00
 Harris functional with IExCor= 4639 and IRadAn=       5 diagonalized for initial guess.
 HarFok:  IExCor= 4639 AccDes= 0.00D+00 IRadAn=         5 IDoV= 1 UseB2=F ITyADJ=14
 ICtDFT=  3500011 ScaDFX=  1.000000  1.000000  1.000000  1.000000
 FoFCou: FMM=F IPFlag=           0 FMFlag=      100000 FMFlg1=           0
         NFxFlg=           0 DoJE=T BraDBF=F KetDBF=T FulRan=T
         wScrn=  0.000000 ICntrl=       500 IOpCl=  0 I1Cent=   200000004 NGrid=           0
         NMat0=    1 NMatS0=      1 NMatT0=    0 NMatD0=    1 NMtDS0=    0 NMtDT0=    0
 Symmetry not used in FoFCou.
 Harris En= -1166.96918296512    
 Leave Link  401 at Fri May 23 03:17:51 2025, MaxMem=  3758096384 cpu:               3.1 elap:               0.5
 (Enter /apps/easybuild-2022/easybuild/software/Compiler/NVHPC/22.11-CUDA-11.7.0/Gaussian/g16c01-CUDA-11.7.0/g16/l502.exe)
 Keep R1 ints in memory in canonical form, NReq=1117474609.
 FoFCou: FMM=F IPFlag=           0 FMFlag=           0 FMFlg1=           0
         NFxFlg=           0 DoJE=F BraDBF=F KetDBF=F FulRan=T
         wScrn=  0.000000 ICntrl=       600 IOpCl=  0 I1Cent=           0 NGrid=           0
         NMat0=    1 NMatS0=  33153 NMatT0=    0 NMatD0=    1 NMtDS0=    0 NMtDT0=    0
 Symmetry not used in FoFCou.
 Two-electron integral symmetry not used.
 Closed shell SCF:
 Using DIIS extrapolation, IDIIS=  1040.
 NGot=  3758096384 LenX=  2658793876 LenY=  2658721611
 Requested convergence on RMS density matrix=1.00D-08 within  32 cycles.
 Requested convergence on MAX density matrix=1.00D-06.
 Requested convergence on             energy=1.00D-06.
 No special actions if energy rises.

 Cycle   1  Pass 1  IDiag  1:
 E= -1199.59939220694    
 DIIS: error= 4.65D-03 at cycle   1 NSaved=   1.
 NSaved= 1 IEnMin= 1 EnMin= -1199.59939220694     IErMin= 1 ErrMin= 4.65D-03
 ErrMax= 4.65D-03  0.00D+00 EMaxC= 1.00D-01 BMatC= 2.48D-02 BMatP= 2.48D-02
 IDIUse=3 WtCom= 9.53D-01 WtEn= 4.65D-02
 Coeff-Com:  0.100D+01
 Coeff-En:   0.100D+01
 Coeff:      0.100D+01
 Gap=     0.736 Goal=   None    Shift=    0.000
 GapD=    0.736 DampG=2.000 DampE=1.000 DampFc=2.0000 IDamp=-1.
 RMSDP=3.78D-03 MaxDP=2.31D-01              OVMax= 5.78D-02

 Cycle   2  Pass 1  IDiag  1:
 E= -1199.63539253150     Delta-E=       -0.036000324555 Rises=F Damp=F
 DIIS: error= 1.94D-03 at cycle   2 NSaved=   2.
 NSaved= 2 IEnMin= 2 EnMin= -1199.63539253150     IErMin= 2 ErrMin= 1.94D-03
 ErrMax= 1.94D-03  0.00D+00 EMaxC= 1.00D-01 BMatC= 2.38D-03 BMatP= 2.48D-02
 IDIUse=3 WtCom= 9.81D-01 WtEn= 1.94D-02
 Coeff-Com: -0.687D-02 0.101D+01
 Coeff-En:   0.000D+00 0.100D+01
 Coeff:     -0.674D-02 0.101D+01
 Gap=     0.322 Goal=   None    Shift=    0.000
 RMSDP=1.92D-03 MaxDP=1.45D-01 DE=-3.60D-02 OVMax= 3.18D-02

 Cycle   3  Pass 1  IDiag  1:
 E= -1199.63483539013     Delta-E=        0.000557141367 Rises=F Damp=F
 DIIS: error= 2.94D-03 at cycle   3 NSaved=   3.
 NSaved= 3 IEnMin= 2 EnMin= -1199.63539253150     IErMin= 2 ErrMin= 1.94D-03
 ErrMax= 2.94D-03  0.00D+00 EMaxC= 1.00D-01 BMatC= 5.09D-03 BMatP= 2.38D-03
 IDIUse=3 WtCom= 1.56D-01 WtEn= 8.44D-01
 Coeff-Com: -0.960D-01 0.669D+00 0.427D+00
 Coeff-En:   0.000D+00 0.555D+00 0.445D+00
 Coeff:     -0.150D-01 0.573D+00 0.442D+00
 Gap=     0.310 Goal=   None    Shift=    0.000
 RMSDP=8.51D-04 MaxDP=6.49D-02 DE= 5.57D-04 OVMax= 3.01D-02

 Cycle   4  Pass 1  IDiag  1:
 E= -1199.63816908901     Delta-E=       -0.003333698875 Rises=F Damp=F
 DIIS: error= 1.42D-03 at cycle   4 NSaved=   4.
 NSaved= 4 IEnMin= 4 EnMin= -1199.63816908901     IErMin= 4 ErrMin= 1.42D-03
 ErrMax= 1.42D-03  0.00D+00 EMaxC= 1.00D-01 BMatC= 6.77D-04 BMatP= 2.38D-03
 IDIUse=3 WtCom= 9.86D-01 WtEn= 1.42D-02
 Coeff-Com: -0.484D-01 0.193D+00 0.299D+00 0.556D+00
 Coeff-En:   0.000D+00 0.000D+00 0.127D+00 0.873D+00
 Coeff:     -0.477D-01 0.190D+00 0.297D+00 0.560D+00
 Gap=     0.314 Goal=   None    Shift=    0.000
 RMSDP=5.16D-04 MaxDP=4.15D-02 DE=-3.33D-03 OVMax= 9.12D-03

 Cycle   5  Pass 1  IDiag  1:
 E= -1199.63874980693     Delta-E=       -0.000580717926 Rises=F Damp=F
 DIIS: error= 2.21D-04 at cycle   5 NSaved=   5.
 NSaved= 5 IEnMin= 5 EnMin= -1199.63874980693     IErMin= 5 ErrMin= 2.21D-04
 ErrMax= 2.21D-04  0.00D+00 EMaxC= 1.00D-01 BMatC= 3.41D-05 BMatP= 6.77D-04
 IDIUse=3 WtCom= 9.98D-01 WtEn= 2.21D-03
 Coeff-Com:  0.298D-02-0.877D-01 0.303D-01 0.252D+00 0.802D+00
 Coeff-En:   0.000D+00 0.000D+00 0.000D+00 0.000D+00 0.100D+01
 Coeff:      0.297D-02-0.875D-01 0.302D-01 0.252D+00 0.802D+00
 Gap=     0.314 Goal=   None    Shift=    0.000
 RMSDP=1.42D-04 MaxDP=1.13D-02 DE=-5.81D-04 OVMax= 3.45D-03

 Cycle   6  Pass 1  IDiag  1:
 E= -1199.63880239568     Delta-E=       -0.000052588743 Rises=F Damp=F
 DIIS: error= 1.28D-04 at cycle   6 NSaved=   6.
 NSaved= 6 IEnMin= 6 EnMin= -1199.63880239568     IErMin= 6 ErrMin= 1.28D-04
 ErrMax= 1.28D-04  0.00D+00 EMaxC= 1.00D-01 BMatC= 2.88D-06 BMatP= 3.41D-05
 IDIUse=3 WtCom= 9.99D-01 WtEn= 1.28D-03
 Coeff-Com:  0.591D-02-0.412D-01-0.246D-01-0.854D-02 0.202D+00 0.866D+00
 Coeff-En:   0.000D+00 0.000D+00 0.000D+00 0.000D+00 0.000D+00 0.100D+01
 Coeff:      0.590D-02-0.411D-01-0.246D-01-0.853D-02 0.202D+00 0.866D+00
 Gap=     0.315 Goal=   None    Shift=    0.000
 RMSDP=6.12D-05 MaxDP=4.54D-03 DE=-5.26D-05 OVMax= 1.98D-03

 Cycle   7  Pass 1  IDiag  1:
 E= -1199.63881301105     Delta-E=       -0.000010615377 Rises=F Damp=F
 DIIS: error= 4.10D-05 at cycle   7 NSaved=   7.
 NSaved= 7 IEnMin= 7 EnMin= -1199.63881301105     IErMin= 7 ErrMin= 4.10D-05
 ErrMax= 4.10D-05  0.00D+00 EMaxC= 1.00D-01 BMatC= 5.87D-07 BMatP= 2.88D-06
 IDIUse=1 WtCom= 1.00D+00 WtEn= 0.00D+00
 Coeff-Com:  0.304D-03 0.114D-01-0.957D-02-0.575D-01-0.127D+00 0.122D+00
 Coeff-Com:  0.106D+01
 Coeff:      0.304D-03 0.114D-01-0.957D-02-0.575D-01-0.127D+00 0.122D+00
 Coeff:      0.106D+01
 Gap=     0.315 Goal=   None    Shift=    0.000
 RMSDP=3.92D-05 MaxDP=2.74D-03 DE=-1.06D-05 OVMax= 1.56D-03

 Cycle   8  Pass 1  IDiag  1:
 E= -1199.63881692888     Delta-E=       -0.000003917822 Rises=F Damp=F
 DIIS: error= 2.67D-05 at cycle   8 NSaved=   8.
 NSaved= 8 IEnMin= 8 EnMin= -1199.63881692888     IErMin= 8 ErrMin= 2.67D-05
 ErrMax= 2.67D-05  0.00D+00 EMaxC= 1.00D-01 BMatC= 1.53D-07 BMatP= 5.87D-07
 IDIUse=1 WtCom= 1.00D+00 WtEn= 0.00D+00
 Coeff-Com: -0.987D-03 0.118D-01 0.179D-02-0.190D-01-0.805D-01-0.122D+00
 Coeff-Com:  0.328D+00 0.880D+00
 Coeff:     -0.987D-03 0.118D-01 0.179D-02-0.190D-01-0.805D-01-0.122D+00
 Coeff:      0.328D+00 0.880D+00
 Gap=     0.315 Goal=   None    Shift=    0.000
 RMSDP=1.49D-05 MaxDP=8.44D-04 DE=-3.92D-06 OVMax= 7.86D-04

 Cycle   9  Pass 1  IDiag  1:
 E= -1199.63881784585     Delta-E=       -0.000000916970 Rises=F Damp=F
 DIIS: error= 9.50D-06 at cycle   9 NSaved=   9.
 NSaved= 9 IEnMin= 9 EnMin= -1199.63881784585     IErMin= 9 ErrMin= 9.50D-06
 ErrMax= 9.50D-06  0.00D+00 EMaxC= 1.00D-01 BMatC= 4.39D-08 BMatP= 1.53D-07
 IDIUse=1 WtCom= 1.00D+00 WtEn= 0.00D+00
 Coeff-Com: -0.465D-03 0.120D-02 0.365D-02 0.944D-02 0.605D-02-0.832D-01
 Coeff-Com: -0.171D+00 0.316D+00 0.919D+00
 Coeff:     -0.465D-03 0.120D-02 0.365D-02 0.944D-02 0.605D-02-0.832D-01
 Coeff:     -0.171D+00 0.316D+00 0.919D+00
 Gap=     0.315 Goal=   None    Shift=    0.000
 RMSDP=7.17D-06 MaxDP=2.75D-04 DE=-9.17D-07 OVMax= 4.84D-04

 Cycle  10  Pass 1  IDiag  1:
 E= -1199.63881812532     Delta-E=       -0.000000279476 Rises=F Damp=F
 DIIS: error= 5.02D-06 at cycle  10 NSaved=  10.
 NSaved=10 IEnMin=10 EnMin= -1199.63881812532     IErMin=10 ErrMin= 5.02D-06
 ErrMax= 5.02D-06  0.00D+00 EMaxC= 1.00D-01 BMatC= 8.65D-09 BMatP= 4.39D-08
 IDIUse=1 WtCom= 1.00D+00 WtEn= 0.00D+00
 Coeff-Com:  0.215D-03-0.334D-02 0.929D-04 0.791D-02 0.250D-01 0.175D-01
 Coeff-Com: -0.123D+00-0.179D+00 0.174D+00 0.108D+01
 Coeff:      0.215D-03-0.334D-02 0.929D-04 0.791D-02 0.250D-01 0.175D-01
 Coeff:     -0.123D+00-0.179D+00 0.174D+00 0.108D+01
 Gap=     0.315 Goal=   None    Shift=    0.000
 RMSDP=4.55D-06 MaxDP=2.52D-04 DE=-2.79D-07 OVMax= 2.70D-04

 Cycle  11  Pass 1  IDiag  1:
 E= -1199.63881819440     Delta-E=       -0.000000069077 Rises=F Damp=F
 DIIS: error= 1.77D-06 at cycle  11 NSaved=  11.
 NSaved=11 IEnMin=11 EnMin= -1199.63881819440     IErMin=11 ErrMin= 1.77D-06
 ErrMax= 1.77D-06  0.00D+00 EMaxC= 1.00D-01 BMatC= 1.83D-09 BMatP= 8.65D-09
 IDIUse=1 WtCom= 1.00D+00 WtEn= 0.00D+00
 Coeff-Com:  0.137D-03-0.121D-02-0.679D-03 0.945D-03 0.563D-02 0.174D-01
 Coeff-Com: -0.391D-02-0.101D+00-0.113D+00 0.279D+00 0.917D+00
 Coeff:      0.137D-03-0.121D-02-0.679D-03 0.945D-03 0.563D-02 0.174D-01
 Coeff:     -0.391D-02-0.101D+00-0.113D+00 0.279D+00 0.917D+00
 Gap=     0.315 Goal=   None    Shift=    0.000
 RMSDP=1.69D-06 MaxDP=1.02D-04 DE=-6.91D-08 OVMax= 9.90D-05

 Cycle  12  Pass 1  IDiag  1:
 E= -1199.63881820426     Delta-E=       -0.000000009862 Rises=F Damp=F
 DIIS: error= 1.16D-06 at cycle  12 NSaved=  12.
 NSaved=12 IEnMin=12 EnMin= -1199.63881820426     IErMin=12 ErrMin= 1.16D-06
 ErrMax= 1.16D-06  0.00D+00 EMaxC= 1.00D-01 BMatC= 5.71D-10 BMatP= 1.83D-09
 IDIUse=1 WtCom= 1.00D+00 WtEn= 0.00D+00
 Coeff-Com:  0.112D-04 0.208D-03-0.316D-03-0.113D-02-0.319D-02 0.286D-02
 Coeff-Com:  0.259D-01-0.840D-03-0.838D-01-0.140D+00 0.407D+00 0.793D+00
 Coeff:      0.112D-04 0.208D-03-0.316D-03-0.113D-02-0.319D-02 0.286D-02
 Coeff:      0.259D-01-0.840D-03-0.838D-01-0.140D+00 0.407D+00 0.793D+00
 Gap=     0.315 Goal=   None    Shift=    0.000
 RMSDP=6.70D-07 MaxDP=3.23D-05 DE=-9.86D-09 OVMax= 3.57D-05

 Cycle  13  Pass 1  IDiag  1:
 E= -1199.63881820584     Delta-E=       -0.000000001582 Rises=F Damp=F
 DIIS: error= 3.67D-07 at cycle  13 NSaved=  13.
 NSaved=13 IEnMin=13 EnMin= -1199.63881820584     IErMin=13 ErrMin= 3.67D-07
 ErrMax= 3.67D-07  0.00D+00 EMaxC= 1.00D-01 BMatC= 1.17D-10 BMatP= 5.71D-10
 IDIUse=1 WtCom= 1.00D+00 WtEn= 0.00D+00
 Coeff-Com: -0.214D-04 0.342D-03-0.289D-04-0.714D-03-0.271D-02-0.197D-02
 Coeff-Com:  0.137D-01 0.192D-01-0.181D-01-0.129D+00 0.199D-01 0.385D+00
 Coeff-Com:  0.715D+00
 Coeff:     -0.214D-04 0.342D-03-0.289D-04-0.714D-03-0.271D-02-0.197D-02
 Coeff:      0.137D-01 0.192D-01-0.181D-01-0.129D+00 0.199D-01 0.385D+00
 Coeff:      0.715D+00
 Gap=     0.315 Goal=   None    Shift=    0.000
 RMSDP=3.22D-07 MaxDP=2.09D-05 DE=-1.58D-09 OVMax= 1.19D-05

 Cycle  14  Pass 1  IDiag  1:
 E= -1199.63881820599     Delta-E=       -0.000000000149 Rises=F Damp=F
 DIIS: error= 1.12D-07 at cycle  14 NSaved=  14.
 NSaved=14 IEnMin=14 EnMin= -1199.63881820599     IErMin=14 ErrMin= 1.12D-07
 ErrMax= 1.12D-07  0.00D+00 EMaxC= 1.00D-01 BMatC= 8.00D-12 BMatP= 1.17D-10
 IDIUse=1 WtCom= 1.00D+00 WtEn= 0.00D+00
 Coeff-Com: -0.703D-05 0.605D-04 0.333D-04-0.204D-04-0.298D-03-0.108D-02
 Coeff-Com:  0.337D-03 0.552D-02 0.656D-02-0.181D-01-0.438D-01 0.103D-03
 Coeff-Com:  0.190D+00 0.861D+00
 Coeff:     -0.703D-05 0.605D-04 0.333D-04-0.204D-04-0.298D-03-0.108D-02
 Coeff:      0.337D-03 0.552D-02 0.656D-02-0.181D-01-0.438D-01 0.103D-03
 Coeff:      0.190D+00 0.861D+00
 Gap=     0.315 Goal=   None    Shift=    0.000
 RMSDP=7.51D-08 MaxDP=3.95D-06 DE=-1.49D-10 OVMax= 2.88D-06

 Cycle  15  Pass 1  IDiag  1:
 E= -1199.63881820602     Delta-E=       -0.000000000031 Rises=F Damp=F
 DIIS: error= 7.54D-08 at cycle  15 NSaved=  15.
 NSaved=15 IEnMin=15 EnMin= -1199.63881820602     IErMin=15 ErrMin= 7.54D-08
 ErrMax= 7.54D-08  0.00D+00 EMaxC= 1.00D-01 BMatC= 2.11D-12 BMatP= 8.00D-12
 IDIUse=1 WtCom= 1.00D+00 WtEn= 0.00D+00
 Coeff-Com:  0.333D-06-0.268D-04 0.162D-04 0.103D-03 0.286D-03-0.136D-03
 Coeff-Com: -0.196D-02-0.658D-03 0.575D-02 0.121D-01-0.226D-01-0.616D-01
 Coeff-Com: -0.245D-01 0.375D+00 0.718D+00
 Coeff:      0.333D-06-0.268D-04 0.162D-04 0.103D-03 0.286D-03-0.136D-03
 Coeff:     -0.196D-02-0.658D-03 0.575D-02 0.121D-01-0.226D-01-0.616D-01
 Coeff:     -0.245D-01 0.375D+00 0.718D+00
 Gap=     0.315 Goal=   None    Shift=    0.000
 RMSDP=2.98D-08 MaxDP=1.66D-06 DE=-3.09D-11 OVMax= 1.01D-06

 Cycle  16  Pass 1  IDiag  1:
 E= -1199.63881820600     Delta-E=        0.000000000020 Rises=F Damp=F
 DIIS: error= 2.17D-08 at cycle  16 NSaved=  16.
 NSaved=16 IEnMin=15 EnMin= -1199.63881820602     IErMin=16 ErrMin= 2.17D-08
 ErrMax= 2.17D-08  0.00D+00 EMaxC= 1.00D-01 BMatC= 2.36D-13 BMatP= 2.11D-12
 IDIUse=1 WtCom= 1.00D+00 WtEn= 0.00D+00
 Coeff-Com:  0.106D-05-0.183D-04 0.101D-05 0.443D-04 0.146D-03 0.862D-04
 Coeff-Com: -0.764D-03-0.952D-03 0.121D-02 0.685D-02-0.254D-02-0.236D-01
 Coeff-Com: -0.319D-01 0.209D-01 0.266D+00 0.765D+00
 Coeff:      0.106D-05-0.183D-04 0.101D-05 0.443D-04 0.146D-03 0.862D-04
 Coeff:     -0.764D-03-0.952D-03 0.121D-02 0.685D-02-0.254D-02-0.236D-01
 Coeff:     -0.319D-01 0.209D-01 0.266D+00 0.765D+00
 Gap=     0.315 Goal=   None    Shift=    0.000
 RMSDP=7.13D-09 MaxDP=2.73D-07 DE= 2.05D-11 OVMax= 3.95D-07

 SCF Done:  E(RwB97XD) =  -1199.63881821     A.U. after   16 cycles
            NFock= 16  Conv=0.71D-08     -V/T= 2.0017
 KE= 1.197577848461D+03 PE=-4.708964702126D+03 EE= 1.380874274184D+03
 Leave Link  502 at Fri May 23 03:18:39 2025, MaxMem=  3758096384 cpu:             181.9 elap:              47.8
 (Enter /apps/easybuild-2022/easybuild/software/Compiler/NVHPC/22.11-CUDA-11.7.0/Gaussian/g16c01-CUDA-11.7.0/g16/l508.exe)
 QCSCF skips out because SCF is already converged.
 Leave Link  508 at Fri May 23 03:18:39 2025, MaxMem=  3758096384 cpu:               0.1 elap:               0.0
 (Enter /apps/easybuild-2022/easybuild/software/Compiler/NVHPC/22.11-CUDA-11.7.0/Gaussian/g16c01-CUDA-11.7.0/g16/l801.exe)
 DoSCS=F DFT=T ScalE2(SS,OS)=  1.000000  1.000000
 Range of M.O.s used for correlation:     1   257
 NBasis=   257 NAE=    49 NBE=    49 NFC=     0 NFV=     0
 NROrb=    257 NOA=    49 NOB=    49 NVA=   208 NVB=   208

 **** Warning!!: The largest alpha MO coefficient is  0.38171659D+02

 Leave Link  801 at Fri May 23 03:18:39 2025, MaxMem=  3758096384 cpu:               0.1 elap:               0.1
 (Enter /apps/easybuild-2022/easybuild/software/Compiler/NVHPC/22.11-CUDA-11.7.0/Gaussian/g16c01-CUDA-11.7.0/g16/l1101.exe)
 Using compressed storage, NAtomX=    12.
 Will process     13 centers per pass.
 R6Disp: Adding Grimme-D2 dispersion energy 1st derivatives to the gradient.
 Leave Link 1101 at Fri May 23 03:18:39 2025, MaxMem=  3758096384 cpu:               1.1 elap:               0.3
 (Enter /apps/easybuild-2022/easybuild/software/Compiler/NVHPC/22.11-CUDA-11.7.0/Gaussian/g16c01-CUDA-11.7.0/g16/l1102.exe)
 Symmetrizing basis deriv contribution to polar:
 IMax=3 JMax=2 DiffMx= 0.00D+00
 Leave Link 1102 at Fri May 23 03:18:39 2025, MaxMem=  3758096384 cpu:               0.1 elap:               0.0
 (Enter /apps/easybuild-2022/easybuild/software/Compiler/NVHPC/22.11-CUDA-11.7.0/Gaussian/g16c01-CUDA-11.7.0/g16/l1110.exe)
 Forming Gx(P) for the SCF density, NAtomX=    12.
 Integral derivatives from FoFJK, PRISM(SPDF).
 Do as many integral derivatives as possible in FoFJK.
 G2DrvN: MDV=    3758095012.
 G2DrvN: will do    13 centers at a time, making    1 passes.
 Calling FoFCou, ICntrl=  3107 FMM=F I1Cent=   0 AccDes= 0.00D+00.
 FoFJK:  IHMeth= 1 ICntrl=    3107 DoSepK=T KAlg= 0 I1Cent=           0 FoldK=F
 IRaf=         1 NMat=       1 IRICut=       1 DoRegI=T DoRafI=F ISym2E= 0 IDoP0=0 IntGTp=1.
[...]
     17 -0.167313D-01 -0.380289D-02 -0.631308D-02  0.725152D-02 -0.171980D-01
     18  0.802136D-03 -0.166263D-02  0.772005D-02  0.215665D-02 -0.971010D-02
     19  0.173099D-01  0.330679D-02 -0.600240D-01  0.527649D-01  0.126203D-01
     20  0.524012D-02  0.382516D-03  0.630291D-01 -0.577073D+00 -0.107070D+00
     21  0.157308D-01  0.484951D-02  0.220639D-01 -0.160486D+00 -0.831195D-01
     22 -0.188064D-03 -0.101843D-02 -0.607785D-01 -0.313611D-01  0.481591D-01
     23 -0.962432D-02 -0.361853D-02 -0.339653D-01 -0.784247D-01  0.338526D-01
     24  0.707684D-02  0.392948D-02  0.663444D-01  0.512487D-01 -0.191609D+00
     25 -0.713238D-02  0.186827D-02  0.859187D-03  0.215249D-02 -0.941911D-03
     26 -0.105351D-01  0.240264D-02  0.191687D-02 -0.616428D-02 -0.283492D-02
     27  0.331023D-02  0.407388D-03  0.201687D-03 -0.131031D-02 -0.208134D-02
     28  0.116838D-03  0.871644D-03  0.137989D-02  0.451057D-03 -0.126883D-02
     29  0.164287D-02  0.768762D-03  0.595356D-04 -0.351371D-02 -0.305501D-03
     30  0.457569D-02  0.282301D-02 -0.141462D-02  0.216757D-02 -0.333813D-02
     31  0.193303D-02  0.109726D-02  0.755369D-02 -0.705254D-02  0.260901D-02
     32  0.422674D-02  0.883191D-03  0.546521D-04 -0.326587D-02  0.151311D-03
     33  0.524627D-03  0.477468D-03 -0.221737D-02  0.347500D-02 -0.248209D-02
     34  0.258560D-02  0.178079D-02 -0.150329D-03 -0.127434D-01 -0.334167D-02
     35  0.823465D-02  0.331077D-02 -0.102551D-01 -0.358968D-01  0.177310D-01
     36  0.638326D-02  0.149558D-02  0.329246D-02  0.198240D-01  0.273444D-01
               16            17            18            19            20 
     16 -0.141658D-01
     17  0.144361D-01  0.280325D-01
     18 -0.314299D-02  0.161463D-01  0.142522D-01
     19 -0.669805D-02  0.247574D-02 -0.116467D-02  0.478128D-01
     20 -0.569643D-02  0.120152D-02 -0.138542D-02 -0.761064D-01  0.608406D+00
     21 -0.120353D-01  0.362986D-02  0.108484D-02 -0.223741D-01  0.107150D+00
     22  0.458303D-02  0.183056D-02 -0.868492D-03  0.590673D-02  0.390064D-03
     23  0.206875D-01 -0.194641D-01 -0.244724D-01 -0.783871D-02 -0.216565D-01
     24 -0.202790D-02 -0.516822D-02 -0.781647D-02 -0.638567D-02 -0.594329D-02
     25  0.599899D-03 -0.100365D-03  0.223695D-03 -0.264679D-02 -0.771020D-03
     26  0.280536D-02 -0.507243D-03  0.986115D-03  0.130437D-02  0.658675D-02
     27 -0.235127D-04 -0.131381D-03  0.417021D-04  0.107261D-02  0.929515D-03
     28 -0.700728D-03  0.134828D-03 -0.633857D-04 -0.623550D-03 -0.738134D-03
     29  0.449792D-03 -0.135701D-04  0.103123D-03  0.591119D-03  0.237905D-02
     30 -0.453828D-03 -0.318033D-03 -0.111266D-03  0.989710D-03 -0.201313D-02
     31 -0.264218D-02  0.176596D-03  0.725759D-04 -0.117752D-02  0.250726D-02
     32  0.495281D-03 -0.146318D-03  0.136585D-04  0.719196D-03  0.249385D-02
     33  0.559357D-03 -0.113079D-03 -0.805058D-04  0.376150D-03 -0.170197D-02
     34 -0.497819D-02 -0.267385D-02 -0.347100D-02  0.165886D-02  0.110369D-02
     35 -0.988966D-02  0.459049D-03  0.721531D-02 -0.171533D-02 -0.136200D-02
     36 -0.880388D-02  0.619956D-02  0.528104D-02  0.164902D-02  0.463725D-02
               21            22            23            24            25 
     21  0.607740D-01
     22 -0.156905D-02  0.818246D-01
     23  0.383257D-01  0.940678D-01  0.487613D+00
     24  0.221570D-01 -0.557030D-01  0.872076D-01  0.275049D+00
     25  0.974483D-04 -0.111798D-03 -0.574608D-03  0.796361D-03  0.807045D-01
     26  0.238172D-02 -0.153597D-02 -0.304051D-03  0.138054D-02  0.160899D-01
     27  0.116952D-02  0.174882D-04  0.142872D-03  0.600783D-03  0.120706D-01
     28  0.788419D-03 -0.981902D-04  0.373040D-03  0.106449D-02  0.722331D-02
     29  0.211114D-03 -0.396463D-03  0.170003D-03  0.267016D-03 -0.141755D-01
     30  0.650447D-03  0.705107D-03  0.292549D-03  0.934303D-03 -0.179836D-01
     31 -0.124339D-03 -0.324976D-02 -0.158441D-02  0.197884D-02 -0.557835D-02
     32  0.565590D-03 -0.614415D-03 -0.147803D-03  0.672082D-04  0.555591D-01
     33  0.275751D-03  0.140078D-02  0.629008D-03 -0.152772D-05  0.169842D-01
     34  0.160679D-02 -0.200287D-01 -0.547761D-01 -0.113052D-01  0.223199D-03
     35 -0.104479D-02 -0.532073D-01 -0.361643D+00 -0.135000D+00  0.106915D-03
     36 -0.108860D-01 -0.148264D-01 -0.143967D+00 -0.988341D-01 -0.956595D-04
               26            27            28            29            30 
     26  0.375488D+00
     27  0.133013D+00  0.134476D+00
     28 -0.109048D-01 -0.205264D-01  0.113173D+00
     29 -0.435751D-02 -0.543635D-01 -0.118926D-01  0.788811D-01
     30 -0.368580D-01 -0.490226D-01  0.104561D+00 -0.214284D-01  0.376443D+00
     31  0.378342D-01  0.120840D-01 -0.406649D-01  0.199268D-01 -0.381040D-01
     32 -0.492747D-01 -0.197340D-01  0.226918D-01  0.472508D-02  0.147619D-01
     33 -0.194043D-01  0.744405D-02 -0.562629D-01  0.198423D-01 -0.111242D-01
     34  0.394203D-03 -0.449906D-04  0.158035D-03  0.192281D-03 -0.232366D-03
     35  0.281475D-03  0.767468D-04  0.192293D-03  0.675161D-04  0.202197D-03
     36 -0.135486D-03 -0.519470D-04 -0.302014D-03 -0.620239D-04  0.553912D-04
               31            32            33            34            35 
     31  0.359118D+00
     32 -0.129767D+00  0.135147D+00
     33 -0.742864D-03  0.608613D-02  0.764312D-01
     34 -0.243859D-04  0.115505D-04  0.221774D-04  0.285017D-01
     35  0.705638D-04  0.118111D-03  0.617926D-04  0.683883D-01  0.394772D+00
     36 -0.665533D-03  0.162428D-03  0.904076D-04  0.127735D-01  0.111096D+00
               36 
     36  0.797749D-01
 Red2BG is reusing G-inverse.
 Leave Link  716 at Fri May 23 06:18:50 2025, MaxMem=  3758096384 cpu:               0.3 elap:               0.2
 (Enter /apps/easybuild-2022/easybuild/software/Compiler/NVHPC/22.11-CUDA-11.7.0/Gaussian/g16c01-CUDA-11.7.0/g16/l9999.exe)

 ----------------------------------------------------------------------

 Electric dipole moment (input orientation):
 (Debye = 10**-18 statcoulomb cm , SI units = C m)
                  (au)            (Debye)         (10**-30 SI)
   Tot        0.416791D+00      0.105938D+01      0.353370D+01
   x         -0.742482D-01     -0.188720D+00     -0.629502D+00
   y          0.395777D+00      0.100597D+01      0.335554D+01
   z          0.107526D+00      0.273303D+00      0.911641D+00

 Dipole polarizability, Alpha (input orientation).
 (esu units = cm**3 , SI units = C**2 m**2 J**-1)
 Alpha(0;0):
               (au)            (10**-24 esu)      (10**-40 SI)
   iso        0.743503D+02      0.110176D+02      0.122587D+02
   aniso      0.470861D+02      0.697744D+01      0.776345D+01
   xx         0.670320D+02      0.993311D+01      0.110521D+02
   yx         0.605349D+01      0.897035D+00      0.998086D+00
   yy         0.100619D+03      0.149102D+02      0.165899D+02
   zx        -0.926291D+00     -0.137262D+00     -0.152725D+00
   zy         0.122537D+02      0.181582D+01      0.202037D+01
   zz         0.553995D+02      0.820936D+01      0.913414D+01

 ----------------------------------------------------------------------

 Dipole orientation:
     6         -1.46695774         -2.40626047          0.02810344
     6          0.26901272         -0.21983844          0.87593624
     9         -0.75818383          1.99668089          0.34950415
     9          0.68593483         -0.39168733          3.38075089
    16          3.65421593         -0.49286936         -0.44187497
     8          4.55208375         -0.22123851          4.53203634
     8          3.51104392         -0.66774055         -3.17817765
     8          4.44531125          2.35896445          0.29237767
     9         -2.09540950         -2.11986587         -2.37401784
     9         -0.24268571         -4.58822042          0.31538358
     9         -3.55417082         -2.45659133          1.42186077
     1          5.01799386          2.23113777          2.05434182

 Electric dipole moment (dipole orientation):
 (Debye = 10**-18 statcoulomb cm , SI units = C m)
                  (au)            (Debye)         (10**-30 SI)
   Tot        0.416791D+00      0.105938D+01      0.353370D+01
   x          0.000000D+00      0.000000D+00      0.000000D+00
   y          0.000000D+00      0.000000D+00      0.000000D+00
   z          0.416791D+00      0.105938D+01      0.353370D+01

 Dipole polarizability, Alpha (dipole orientation).
 (esu units = cm**3 , SI units = C**2 m**2 J**-1)
 Alpha(0;0):
               (au)            (10**-24 esu)      (10**-40 SI)
   iso        0.743503D+02      0.110176D+02      0.122587D+02
   aniso      0.470861D+02      0.697744D+01      0.776345D+01
   xx         0.691225D+02      0.102429D+02      0.113968D+02
   yx         0.491627D+01      0.728517D+00      0.810584D+00
   yy         0.533436D+02      0.790471D+01      0.879517D+01
   zx         0.115069D+02      0.170514D+01      0.189723D+01
   zy         0.200721D+01      0.297437D+00      0.330944D+00
   zz         0.100585D+03      0.149051D+02      0.165842D+02

 ----------------------------------------------------------------------
 Unable to Open any file for archive entry.
 1\1\GINC-SPARTAN-BM162\Freq\RwB97XD\6-311++G(d,p)\C2H1F5O3S1\AKHALILOV
 \23-May-2025\0\\#P wb97xd/6-311++G(d,p) Symm(None) scf(xqc) pop(None) 
 opt(NoFreeze,TS,CalcAll,NoEigentest,MaxCycle=999)\\Gaussian input prep
 ared by ASE\\0,1\C,-0.9305727517,-0.4508890277,1.0746889629\C,0.040547
 2114,0.4263516854,0.2554106302\F,-0.2819589396,0.4209149759,-1.0270870
 695\F,0.0072522695,1.6889286168,0.7230241297\S,1.8915295225,-0.0358787
 537,0.5318205437\O,1.9051177518,2.5681015569,1.1590053996\O,2.06318245
 66,-1.4472609809,0.232636615\O,2.4333133936,0.8167770437,-0.726404263\
 F,-1.0079205945,-1.6597479966,0.5435954602\F,-0.4814057727,-0.54642269
 71,2.3257497652\F,-2.1421849492,0.0934052079,1.0934961106\H,2.55352440
 23,1.7237543693,-0.3676422845\\Version=ES64L-G16RevC.01\HF=-1199.59650
 19\RMSD=6.307e-09\RMSF=4.519e-06\ZeroPoint=0.0470851\Thermal=0.057858\
 ETot=-1199.5386438\HTot=-1199.5376996\GTot=-1199.5868961\Dipole=-0.074
 2482,0.3957774,0.1075258\DipoleDeriv=1.8399604,-0.015945,0.0978711,0.2
 49476,1.5699595,0.0984217,-0.2085827,-0.0316569,1.5151443,0.6381078,0.
 5266173,0.3158488,-0.3157699,0.0246248,-0.1338643,0.3855073,-0.0688342
 ,1.017299,-0.4840365,-0.17275,-0.2394365,0.0181224,-0.1358213,0.106668
 5,-0.4330004,-0.0680753,-0.839996,-0.4659932,0.2683905,0.1254726,0.055
 6707,0.1529315,0.1008617,-0.009893,0.1488571,-0.1945884,1.0525136,0.06
 48049,-0.1346573,-0.1431367,1.034833,-0.5040539,-0.288045,0.6879726,1.
 2906865,-0.0373533,-0.5187616,-0.1844059,0.0743016,0.1968813,0.1050716
 ,0.1080904,0.0766541,-0.196307,-0.4578677,-0.0368795,-0.0437818,0.3256
 334,-1.2849773,-0.0050622,0.0912714,-0.5649923,-0.4908864,-0.5914115,-
 0.1288142,0.1597739,-0.2054367,-0.2728874,0.4012514,0.360654,0.0560721
 ,-0.8492109,-0.3574952,-0.1280276,-0.0128388,-0.1596162,-0.766485,-0.2
 219306,0.0220348,-0.1447431,-0.362455,-0.4120422,-0.0468423,-0.1038131
 ,-0.0396274,-0.2811595,0.0994553,-0.1081978,0.086621,-0.8387418,-1.088
 0943,0.1033212,0.0154822,0.1490716,-0.3577925,0.0277302,0.1462784,0.04
 39377,-0.2861634,0.3637121,0.0848863,0.0044848,-0.0086889,0.1198929,-0
 .0745494,-0.0661173,-0.2218128,0.235219\Polar=67.0319616,6.0534936,100
 .6193386,-0.9262907,12.253745,55.3994885\PG=Unknown\NImag=1\\0.5640921
 5,0.01917945,0.57106443,-0.01301894,-0.00130492,0.55784335,-0.11305520
 ,-0.02850409,0.03732709,0.38094857,-0.06015903,-0.08508871,0.04540724,
 0.05989695,0.47081223,0.05830268,0.04368247,-0.07954118,0.02231559,-0.
 03667137,0.54866155,0.00640539,0.00004511,0.01229080,-0.07940148,-0.00
 324752,-0.07143057,0.07473138,0.01021128,0.00262952,0.01547499,0.00011
 913,-0.06663638,0.02412406,0.00674287,0.07015566,-0.02192818,-0.003732
 13,-0.04424225,-0.05627351,0.02859049,-0.32039028,0.08159459,0.0047377
 3,0.41875173,0.00172326,-0.02000366,-0.00937212,-0.07526995,0.02818299
 ,0.01327933,0.01005066,-0.01611826,-0.00987846,0.07817191,0.01000608,-
 0.04328747,-0.02175460,-0.01788686,-0.22955270,-0.02647707,-0.00015474
 ,-0.01366299,-0.03785333,-0.02779540,0.30625527,-0.00361375,0.00440087
 ,0.00379552,-0.00505178,-0.03902033,-0.07219357,-0.00203788,-0.0574900
 9,-0.04153272,-0.00440543,0.08635243,0.10535176,-0.02282570,-0.0057548
 2,0.00574949,-0.08649212,0.00812678,-0.04327691,-0.01603412,0.00076800
 ,-0.00909170,-0.01473175,-0.00889803,-0.00235347,0.24054659,-0.0094198
 6,0.02684780,-0.00558136,0.00671110,-0.04638003,-0.00629164,-0.0102850
 6,0.00511056,-0.00715901,0.04805308,-0.00220577,0.00543065,-0.00876864
 ,0.71371450,0.01078768,-0.00087202,0.01095658,-0.01536582,0.01176345,-
 0.02177069,-0.02806488,0.00692772,-0.02792601,-0.00687418,-0.03867100,
 -0.00774080,-0.04701792,0.09652567,0.31147642,0.00137430,0.00102219,0.
 00091327,0.01250766,-0.02871895,-0.01248261,-0.00438083,0.00480675,-0.
 00075778,0.00380366,0.03010403,0.00955599,0.01069721,-0.03050193,0.028
 69916,-0.01416579,0.00012238,0.00026880,0.00006338,-0.00921498,0.00008
 345,0.00080927,0.00097778,-0.00043426,-0.00011668,-0.00185167,-0.01673
 132,-0.00380289,-0.00631308,0.00725152,-0.01719804,0.01443607,0.028032
 47,-0.00006364,-0.00067070,0.00090461,-0.00187818,-0.00119156,-0.00323
 197,-0.00058590,0.00029686,0.00104850,0.00322193,0.00080214,-0.0016626
 3,0.00772005,0.00215665,-0.00971010,-0.00314299,0.01614626,0.01425225,
 0.00348040,-0.00358613,-0.00260365,0.01507074,0.01562083,0.01146175,0.
 00198309,-0.00153944,0.00105176,-0.00474264,0.01730988,0.00330679,-0.0
 6002405,0.05276485,0.01262030,-0.00669805,0.00247574,-0.00116467,0.047
 81278,0.00054445,-0.01554914,0.00509119,0.00513527,-0.01272712,-0.0096
 9030,0.00539937,0.00206064,0.00961411,0.00520271,0.00524012,0.00038252
 ,0.06302913,-0.57707321,-0.10707029,-0.00569643,0.00120152,-0.00138542
 ,-0.07610637,0.60840604,-0.00112941,-0.00298532,-0.00224719,0.00380156
 ,-0.00304407,-0.00062901,0.00361917,-0.00043450,0.00592058,0.00525486,
 0.01573079,0.00484951,0.02206394,-0.16048589,-0.08311951,-0.01203528,0
 .00362986,0.00108484,-0.02237410,0.10714982,0.06077401,-0.00006154,0.0
 0577108,-0.00389225,-0.01190924,-0.01335191,0.02361013,0.00305245,-0.0
 0140425,0.00398509,0.00087093,-0.00018806,-0.00101843,-0.06077849,-0.0
 3136112,0.04815906,0.00458303,0.00183056,-0.00086849,0.00590673,0.0003
 9006,-0.00156905,0.08182463,0.00117677,0.00102794,-0.00250390,-0.01571
 824,0.00239876,0.01616445,0.00455282,0.00005513,-0.00205280,-0.0064005
 1,-0.00962432,-0.00361853,-0.03396527,-0.07842469,0.03385258,0.0206874
 9,-0.01946411,-0.02447244,-0.00783871,-0.02165650,0.03832567,0.0940677
 8,0.48761288,-0.00339910,-0.00247733,-0.00067952,0.00654037,0.00357177
 ,-0.01287135,-0.00075547,-0.00223109,0.00914078,0.00285191,0.00707684,
 0.00392948,0.06634436,0.05124868,-0.19160875,-0.00202790,-0.00516822,-
 0.00781647,-0.00638567,-0.00594329,0.02215703,-0.05570299,0.08720760,0
 .27504937,-0.08406108,-0.03197378,-0.00443574,0.00631889,-0.01892765,-
 0.01121577,0.00014197,-0.00025320,0.00263210,-0.00367291,-0.00713238,0
 .00186827,0.00085919,0.00215249,-0.00094191,0.00059990,-0.00010036,0.0
 0022369,-0.00264679,-0.00077102,0.00009745,-0.00011180,-0.00057461,0.0
 0079636,0.08070446,-0.03518643,-0.27794489,-0.06107896,-0.00429480,-0.
 03509887,-0.02310401,0.00036030,0.00183067,0.00325184,-0.00878326,-0.0
 1053508,0.00240264,0.00191687,-0.00616428,-0.00283492,0.00280536,-0.00
 050724,0.00098611,0.00130437,0.00658675,0.00238172,-0.00153597,-0.0003
 0405,0.00138054,0.01608994,0.37548776,-0.00717239,-0.06714991,-0.10057
 970,0.00013850,0.00313846,0.00300944,0.00103689,0.00207853,0.00458710,
 0.00114551,0.00331023,0.00040739,0.00020169,-0.00131031,-0.00208134,-0
 .00002351,-0.00013138,0.00004170,0.00107261,0.00092951,0.00116952,0.00
 001749,0.00014287,0.00060078,0.01207063,0.13301280,0.13447557,-0.08852
 738,0.00373527,-0.04236807,0.00826749,-0.00186354,0.00885627,-0.000313
 12,-0.00229609,0.00464931,0.00072633,0.00011684,0.00087164,0.00137989,
 0.00045106,-0.00126883,-0.00070073,0.00013483,-0.00006339,-0.00062355,
 -0.00073813,0.00078842,-0.00009819,0.00037304,0.00106449,0.00722331,-0
 .01090476,-0.02052639,0.11317283,0.00204885,-0.08187699,0.03065017,0.0
 0632738,0.00438084,0.01869132,-0.00282865,-0.00248464,0.00562572,-0.00
 030253,0.00164287,0.00076876,0.00005954,-0.00351371,-0.00030550,0.0004
 4979,-0.00001357,0.00010312,0.00059112,0.00237905,0.00021111,-0.000396
 46,0.00017000,0.00026702,-0.01417546,-0.00435751,-0.05436355,-0.011892
 64,0.07888107,-0.03831930,0.03366946,-0.26814551,-0.01930383,-0.001181
 75,-0.04184518,0.00677821,0.00612989,-0.00731966,0.00277699,0.00457569
 ,0.00282301,-0.00141462,0.00216757,-0.00333813,-0.00045383,-0.00031803
 ,-0.00011127,0.00098971,-0.00201313,0.00065045,0.00070511,0.00029255,0
 .00093430,-0.01798360,-0.03685798,-0.04902258,0.10456148,-0.02142840,0
 .37644333,-0.26797315,0.06008368,0.01932922,-0.05313882,0.01775013,-0.
 00148617,0.00324093,-0.00187795,0.00395201,0.00453630,0.00193303,0.001
 09726,0.00755369,-0.00705254,0.00260901,-0.00264218,0.00017660,0.00007
 258,-0.00117752,0.00250726,-0.00012434,-0.00324976,-0.00158441,0.00197
 884,-0.00557835,0.03783420,0.01208397,-0.04066492,0.01992679,-0.038103
 96,0.35911816,0.06185834,-0.09797367,-0.00391033,-0.00834490,0.0033133
 0,0.00126582,-0.00047316,0.00078427,-0.00031293,-0.00219016,0.00422674
 ,0.00088319,0.00005465,-0.00326587,0.00015131,0.00049528,-0.00014632,0
 .00001366,0.00071920,0.00249385,0.00056559,-0.00061442,-0.00014780,0.0
 0006721,0.05555912,-0.04927473,-0.01973400,0.02269183,0.00472508,0.014
 76192,-0.12976734,0.13514705,0.01870906,-0.00318144,-0.07780470,0.0220
 6337,-0.00555876,0.00293249,-0.00019446,-0.00065926,0.00384162,-0.0006
 9744,0.00052463,0.00047747,-0.00221737,0.00347500,-0.00248209,0.000559
 36,-0.00011308,-0.00008051,0.00037615,-0.00170197,0.00027575,0.0014007
 8,0.00062901,-0.00000153,0.01698417,-0.01940431,0.00744405,-0.05626292
 ,0.01984225,-0.01112416,-0.00074286,0.00608613,0.07643119,-0.00057147,
 -0.00001430,0.00008091,-0.00384654,-0.00330908,0.00206628,0.00052367,0
 .00084116,0.00006476,-0.00146580,0.00258560,0.00178079,-0.00015033,-0.
 01274344,-0.00334167,-0.00497819,-0.00267385,-0.00347100,0.00165886,0.
 00110369,0.00160679,-0.02002875,-0.05477614,-0.01130521,0.00022320,0.0
 0039420,-0.00004499,0.00015804,0.00019228,-0.00023237,-0.00002439,0.00
 001155,0.00002218,0.02850170,-0.00038228,-0.00011762,-0.00055290,0.005
 77404,-0.00550478,-0.00250299,-0.00108912,0.00059181,-0.00059300,0.002
 00666,0.00823465,0.00331077,-0.01025511,-0.03589681,0.01773104,-0.0098
 8966,0.00045905,0.00721531,-0.00171533,-0.00136200,-0.00104479,-0.0532
 0729,-0.36164323,-0.13499971,0.00010691,0.00028147,0.00007675,0.000192
 29,0.00006752,0.00020220,0.00007056,0.00011811,0.00006179,0.06838832,0
 .39477184,0.00084528,0.00062096,-0.00025999,0.00568664,-0.00580358,-0.
 00213025,-0.00225052,0.00104516,-0.00187939,0.00269711,0.00638326,0.00
 149558,0.00329246,0.01982399,0.02734442,-0.00880388,0.00619956,0.00528
 104,0.00164902,0.00463725,-0.01088599,-0.01482644,-0.14396706,-0.09883
 414,-0.00009566,-0.00013549,-0.00005195,-0.00030201,-0.00006202,0.0000
 5539,-0.00066553,0.00016243,0.00009041,0.01277352,0.11109554,0.0797748
 7\\0.00000047,-0.00000383,-0.00000570,0.00000190,-0.00000093,-0.000002
 29,0.00000139,0.00000487,-0.00000088,0.00000008,0.00000126,0.00000634,
 0.00000137,-0.00000097,0.00000354,-0.00000678,0.00000350,0.00001032,0.
 00000119,0.00000216,-0.00000547,0.00000062,0.00000948,0.00000517,0.000
 00243,-0.00000199,-0.00000930,-0.00000137,-0.00000797,-0.00000409,-0.0
 0000091,-0.00000541,-0.00000453,-0.00000038,-0.00000018,0.00000688\\\@
 The archive entry for this job was punched.


 IF IT'S NOT TRUE, IT'S WELL INVENTED -- DANTE
 Job cpu time:       0 days 17 hours  1 minutes 27.9 seconds.
 Elapsed time:       0 days  3 hours  4 minutes 11.9 seconds.
 File lengths (MBytes):  RWF=    104 Int=      0 D2E=      0 Chk=      6 Scr=      1
 Normal termination of Gaussian 16 at Fri May 23 06:18:50 2025.
done
