 Entering Gaussian System, Link 0=g16
 Initial command:
 /apps/easybuild-2022/easybuild/software/Compiler/NVHPC/22.11-CUDA-11.7.0/Gaussian/g16c01-CUDA-11.7.0/g16/l1.exe "/tmp/Gau-34361.inp" -scrdir="/tmp/"
 Entering Link 1 = /apps/easybuild-2022/easybuild/software/Compiler/NVHPC/22.11-CUDA-11.7.0/Gaussian/g16c01-CUDA-11.7.0/g16/l1.exe PID=     34373.
  
 Copyright (c) 1988-2019, Gaussian, Inc.  All Rights Reserved.
  
 This is part of the Gaussian(R) 16 program.  It is based on
 the Gaussian(R) 09 system (copyright 2009, Gaussian, Inc.),
 the Gaussian(R) 03 system (copyright 2003, Gaussian, Inc.),
 the Gaussian(R) 98 system (copyright 1998, Gaussian, Inc.),
 the Gaussian(R) 94 system (copyright 1995, Gaussian, Inc.),
 the Gaussian 92(TM) system (copyright 1992, Gaussian, Inc.),
 the Gaussian 90(TM) system (copyright 1990, Gaussian, Inc.),
 the Gaussian 88(TM) system (copyright 1988, Gaussian, Inc.),
 the Gaussian 86(TM) system (copyright 1986, Carnegie Mellon
 University), and the Gaussian 82(TM) system (copyright 1983,
 Carnegie Mellon University). Gaussian is a federally registered
 trademark of Gaussian, Inc.
  
 This software contains proprietary and confidential information,
 including trade secrets, belonging to Gaussian, Inc.
  
 This software is provided under written license and may be
 used, copied, transmitted, or stored only in accord with that
 written license.
  
 The following legend is applicable only to US Government
 contracts under FAR:
  
                    RESTRICTED RIGHTS LEGEND
  
 Use, reproduction and disclosure by the US Government is
 subject to restrictions as set forth in subparagraphs (a)
 and (c) of the Commercial Computer Software - Restricted
 Rights clause in FAR 52.227-19.
  
 Gaussian, Inc.
 340 Quinnipiac St., Bldg. 40, Wallingford CT 06492
  
  
 ---------------------------------------------------------------
 Warning -- This program may not be used in any manner that
 competes with the business of Gaussian, Inc. or will provide
 assistance to any competitor of Gaussian, Inc.  The licensee
 of this program is prohibited from giving any competitor of
 Gaussian, Inc. access to this program.  By using this program,
 the user acknowledges that Gaussian, Inc. is engaged in the
 business of creating and licensing software in the field of
 computational chemistry and represents and warrants to the
 licensee that it is not a competitor of Gaussian, Inc. and that
 it will not use this program in any manner prohibited above.
 ---------------------------------------------------------------
  

 Cite this work as:
 Gaussian 16, Revision C.01,
 M. J. Frisch, G. W. Trucks, H. B. Schlegel, G. E. Scuseria, 
 M. A. Robb, J. R. Cheeseman, G. Scalmani, V. Barone, 
 G. A. Petersson, H. Nakatsuji, X. Li, M. Caricato, A. V. Marenich, 
 J. Bloino, B. G. Janesko, R. Gomperts, B. Mennucci, H. P. Hratchian, 
 J. V. Ortiz, A. F. Izmaylov, J. L. Sonnenberg, D. Williams-Young, 
 F. Ding, F. Lipparini, F. Egidi, J. Goings, B. Peng, A. Petrone, 
 T. Henderson, D. Ranasinghe, V. G. Zakrzewski, J. Gao, N. Rega, 
 G. Zheng, W. Liang, M. Hada, M. Ehara, K. Toyota, R. Fukuda, 
 J. Hasegawa, M. Ishida, T. Nakajima, Y. Honda, O. Kitao, H. Nakai, 
 T. Vreven, K. Throssell, J. A. Montgomery, Jr., J. E. Peralta, 
 F. Ogliaro, M. J. Bearpark, J. J. Heyd, E. N. Brothers, K. N. Kudin, 
 V. N. Staroverov, T. A. Keith, R. Kobayashi, J. Normand, 
 K. Raghavachari, A. P. Rendell, J. C. Burant, S. S. Iyengar, 
 J. Tomasi, M. Cossi, J. M. Millam, M. Klene, C. Adamo, R. Cammi, 
 J. W. Ochterski, R. L. Martin, K. Morokuma, O. Farkas, 
 J. B. Foresman, and D. J. Fox, Gaussian, Inc., Wallingford CT, 2019.
 
 ******************************************
 Gaussian 16:  ES64L-G16RevC.01  3-Jul-2019
                23-May-2025 
 ******************************************
 %mem=28GB
 %chk=2003846667223680600001_r12_insertion_R_6_5_8_IRC_R_prod
 %nprocshared=8
 Will use up to    8 processors via shared memory.
 ----------------------------------------------------------------------
 #P wb97xd/6-311++G(d,p) Symm(None) scf(xqc) pop(None) freq opt(CalcFC)
 ----------------------------------------------------------------------
 1/10=4,18=20,19=15,26=3,38=1/1,3;
 2/9=110,12=2,15=3,17=6,18=5,40=1/2;
 3/5=4,6=6,7=1111,11=2,25=1,30=1,71=2,74=-58,140=1/1,2,3;
 4//1;
 5/5=2,8=3,13=1,38=5/2,8;
 8/6=4,10=90,11=11/1;
 11/6=1,8=1,9=11,15=111,16=1,31=1/1,2,10;
 10/6=1,13=1,31=1/2;
 7/10=1,25=1,30=1/1,2,3,16;
 1/10=4,18=20,19=15,26=3/3(2);
 2/9=110,15=3/2;
 99//99;
 2/9=110,15=3/2;
 3/5=4,6=6,7=1111,11=2,25=1,30=1,71=1,74=-58/1,2,3;
 4/5=5,16=3,69=1/1;
 5/5=2,8=3,13=1,38=5/2,8;
 7/30=1/1,2,3,16;
 1/18=20,19=15,26=3/3(-5);
 2/9=110,15=3/2;
 99/9=1/99;
 Leave Link    1 at Fri May 23 03:38:13 2025, MaxMem=  3758096384 cpu:               0.0 elap:               0.0
 (Enter /apps/easybuild-2022/easybuild/software/Compiler/NVHPC/22.11-CUDA-11.7.0/Gaussian/g16c01-CUDA-11.7.0/g16/l101.exe)
 ------------------------------
 Gaussian input prepared by ASE
 ------------------------------
 Symbolic Z-matrix:
 Charge =  0 Multiplicity = 1
 C                    -1.2651   -0.30825   0.78093 
 C                    -0.41585   0.37363  -0.36335 
 F                    -0.90255   0.03196  -1.5519 
 F                    -0.47323   1.70426  -0.2376 
 S                     1.39908  -0.09464  -0.32626 
 O                     1.96032   0.45927   0.87427 
 O                     1.50526  -1.46573  -0.70919 
 O                     1.88482   0.77971  -1.58022 
 F                    -0.49448  -1.08085   1.53948 
 F                    -1.82034   0.61989   1.54648 
 F                    -2.22078  -1.05452   0.24855 
 H                     2.15097   1.6613   -1.28778 
 
 ITRead=  0  0  0  0  0  0  0  0  0  0  0  0
 MicOpt= -1 -1 -1 -1 -1 -1 -1 -1 -1 -1 -1 -1
 NAtoms=     12 NQM=       12 NQMF=       0 NMMI=      0 NMMIF=      0
                NMic=       0 NMicF=      0.
                    Isotopes and Nuclear Properties:
 (Nuclear quadrupole moments (NQMom) in fm**2, nuclear magnetic moments (NMagM)
  in nuclear magnetons)

  Atom         1           2           3           4           5           6           7           8           9          10
 IAtWgt=          12          12          19          19          32          16          16          16          19          19
 AtmWgt=  12.0000000  12.0000000  18.9984032  18.9984032  31.9720718  15.9949146  15.9949146  15.9949146  18.9984032  18.9984032
 NucSpn=           0           0           1           1           0           0           0           0           1           1
 AtZEff=  -0.0000000  -0.0000000  -0.0000000  -0.0000000  -0.0000000  -0.0000000  -0.0000000  -0.0000000  -0.0000000  -0.0000000
 NQMom=    0.0000000   0.0000000   0.0000000   0.0000000   0.0000000   0.0000000   0.0000000   0.0000000   0.0000000   0.0000000
 NMagM=    0.0000000   0.0000000   2.6288670   2.6288670   0.0000000   0.0000000   0.0000000   0.0000000   2.6288670   2.6288670
 AtZNuc=   6.0000000   6.0000000   9.0000000   9.0000000  16.0000000   8.0000000   8.0000000   8.0000000   9.0000000   9.0000000

  Atom        11          12
 IAtWgt=          19           1
 AtmWgt=  18.9984032   1.0078250
 NucSpn=           1           1
 AtZEff=  -0.0000000  -0.0000000
 NQMom=    0.0000000   0.0000000
 NMagM=    2.6288670   2.7928460
 AtZNuc=   9.0000000   1.0000000
 Leave Link  101 at Fri May 23 03:38:13 2025, MaxMem=  3758096384 cpu:               0.2 elap:               0.2
 (Enter /apps/easybuild-2022/easybuild/software/Compiler/NVHPC/22.11-CUDA-11.7.0/Gaussian/g16c01-CUDA-11.7.0/g16/l103.exe)

 GradGradGradGradGradGradGradGradGradGradGradGradGradGradGradGradGradGrad
 Berny optimization.
 Initialization pass.
                           ----------------------------
                           !    Initial Parameters    !
                           ! (Angstroms and Degrees)  !
 --------------------------                            --------------------------
 ! Name  Definition              Value          Derivative Info.                !
 --------------------------------------------------------------------------------
 ! R1    R(1,2)                  1.5797         calculate D2E/DX2 analytically  !
 ! R2    R(1,9)                  1.329          calculate D2E/DX2 analytically  !
 ! R3    R(1,10)                 1.3251         calculate D2E/DX2 analytically  !
 ! R4    R(1,11)                 1.3243         calculate D2E/DX2 analytically  !
 ! R5    R(2,3)                  1.329          calculate D2E/DX2 analytically  !
 ! R6    R(2,4)                  1.3378         calculate D2E/DX2 analytically  !
 ! R7    R(2,5)                  1.8747         calculate D2E/DX2 analytically  !
 ! R8    R(5,6)                  1.4363         calculate D2E/DX2 analytically  !
 ! R9    R(5,7)                  1.4275         calculate D2E/DX2 analytically  !
 ! R10   R(5,8)                  1.604          calculate D2E/DX2 analytically  !
 ! R11   R(8,12)                 0.9662         calculate D2E/DX2 analytically  !
 ! A1    A(2,1,9)              110.6493         calculate D2E/DX2 analytically  !
 ! A2    A(2,1,10)             109.9631         calculate D2E/DX2 analytically  !
 ! A3    A(2,1,11)             109.8772         calculate D2E/DX2 analytically  !
 ! A4    A(9,1,10)             108.6886         calculate D2E/DX2 analytically  !
 ! A5    A(9,1,11)             108.6822         calculate D2E/DX2 analytically  !
 ! A6    A(10,1,11)            108.9409         calculate D2E/DX2 analytically  !
 ! A7    A(1,2,3)              109.874          calculate D2E/DX2 analytically  !
 ! A8    A(1,2,4)              109.7662         calculate D2E/DX2 analytically  !
 ! A9    A(1,2,5)              113.4715         calculate D2E/DX2 analytically  !
 ! A10   A(3,2,4)              108.9095         calculate D2E/DX2 analytically  !
 ! A11   A(3,2,5)              107.9395         calculate D2E/DX2 analytically  !
 ! A12   A(4,2,5)              106.7443         calculate D2E/DX2 analytically  !
 ! A13   A(2,5,6)              107.3673         calculate D2E/DX2 analytically  !
 ! A14   A(2,5,7)              107.855          calculate D2E/DX2 analytically  !
 ! A15   A(2,5,8)               98.1375         calculate D2E/DX2 analytically  !
 ! A16   A(6,5,7)              124.4396         calculate D2E/DX2 analytically  !
 ! A17   A(6,5,8)              108.9583         calculate D2E/DX2 analytically  !
 ! A18   A(7,5,8)              106.9369         calculate D2E/DX2 analytically  !
 ! A19   A(5,8,12)             110.1307         calculate D2E/DX2 analytically  !
 ! D1    D(9,1,2,3)            121.0166         calculate D2E/DX2 analytically  !
 ! D2    D(9,1,2,4)           -119.2429         calculate D2E/DX2 analytically  !
 ! D3    D(9,1,2,5)              0.0842         calculate D2E/DX2 analytically  !
 ! D4    D(10,1,2,3)          -118.9037         calculate D2E/DX2 analytically  !
 ! D5    D(10,1,2,4)             0.8368         calculate D2E/DX2 analytically  !
 ! D6    D(10,1,2,5)           120.1638         calculate D2E/DX2 analytically  !
 ! D7    D(11,1,2,3)             1.0003         calculate D2E/DX2 analytically  !
 ! D8    D(11,1,2,4)           120.7409         calculate D2E/DX2 analytically  !
 ! D9    D(11,1,2,5)          -119.9321         calculate D2E/DX2 analytically  !
 ! D10   D(1,2,5,6)            -66.5912         calculate D2E/DX2 analytically  !
 ! D11   D(1,2,5,7)             69.7348         calculate D2E/DX2 analytically  !
 ! D12   D(1,2,5,8)           -179.4575         calculate D2E/DX2 analytically  !
 ! D13   D(3,2,5,6)            171.3939         calculate D2E/DX2 analytically  !
 ! D14   D(3,2,5,7)            -52.2801         calculate D2E/DX2 analytically  !
 ! D15   D(3,2,5,8)             58.5277         calculate D2E/DX2 analytically  !
 ! D16   D(4,2,5,6)             54.4499         calculate D2E/DX2 analytically  !
 ! D17   D(4,2,5,7)           -169.2241         calculate D2E/DX2 analytically  !
 ! D18   D(4,2,5,8)            -58.4164         calculate D2E/DX2 analytically  !
 ! D19   D(2,5,8,12)            89.7555         calculate D2E/DX2 analytically  !
 ! D20   D(6,5,8,12)           -21.8334         calculate D2E/DX2 analytically  !
 ! D21   D(7,5,8,12)          -158.6944         calculate D2E/DX2 analytically  !
 --------------------------------------------------------------------------------
 Trust Radius=3.00D-01 FncErr=1.00D-07 GrdErr=1.00D-06 EigMax=2.50D+02 EigMin=1.00D-04
 Number of steps in this run=     61 maximum allowed number of steps=    100.
 GradGradGradGradGradGradGradGradGradGradGradGradGradGradGradGradGradGrad

 Leave Link  103 at Fri May 23 03:38:13 2025, MaxMem=  3758096384 cpu:               0.0 elap:               0.0
 (Enter /apps/easybuild-2022/easybuild/software/Compiler/NVHPC/22.11-CUDA-11.7.0/Gaussian/g16c01-CUDA-11.7.0/g16/l202.exe)
                          Input orientation:                          
 ---------------------------------------------------------------------
 Center     Atomic      Atomic             Coordinates (Angstroms)
 Number     Number       Type             X           Y           Z
 ---------------------------------------------------------------------
      1          6           0       -1.265104   -0.308245    0.780930
      2          6           0       -0.415854    0.373632   -0.363352
      3          9           0       -0.902553    0.031963   -1.551895
      4          9           0       -0.473227    1.704262   -0.237595
      5         16           0        1.399076   -0.094638   -0.326256
      6          8           0        1.960319    0.459265    0.874273
      7          8           0        1.505259   -1.465730   -0.709187
      8          8           0        1.884823    0.779705   -1.580216
      9          9           0       -0.494477   -1.080848    1.539477
     10          9           0       -1.820344    0.619890    1.546478
     11          9           0       -2.220784   -1.054520    0.248551
     12          1           0        2.150970    1.661304   -1.287775
 ---------------------------------------------------------------------
                    Distance matrix (angstroms):
                    1          2          3          4          5
     1  C    0.000000
     2  C    1.579735   0.000000
     3  F    2.385216   1.329003   0.000000
     4  F    2.390533   1.337790   2.169859   0.000000
     5  S    2.892982   1.874733   2.610692   2.597965   0.000000
     6  O    3.316796   2.680531   3.776892   2.951002   1.436340
     7  O    3.351885   2.682076   2.958175   3.766385   1.427517
     8  O    4.084200   2.634154   2.886067   2.866677   1.604008
     9  F    1.328975   2.396341   3.310809   3.303827   2.835333
    10  F    1.325062   2.383419   3.284496   2.484654   3.792407
    11  F    1.324265   2.381557   2.481891   3.301692   3.788821
    12  H    4.452890   3.016827   3.471097   2.826859   2.138503
                    6          7          8          9         10
     6  O    0.000000
     7  O    2.533778   0.000000
     8  O    2.476469   2.438183   0.000000
     9  F    2.973292   3.033738   4.342259   0.000000
    10  F    3.843315   4.527413   4.850775   2.156498   0.000000
    11  F    4.490512   3.869076   4.854357   2.155764   2.156065
    12  H    2.481068   3.245004   0.966216   4.744591   4.988874
                   11         12
    11  F    0.000000
    12  H    5.371055   0.000000
 Symmetry turned off by external request.
 Stoichiometry    C2HF5O3S
 Rotational constants (GHZ):           1.5866567           0.8172293           0.7717108
 Leave Link  202 at Fri May 23 03:38:13 2025, MaxMem=  3758096384 cpu:               0.0 elap:               0.0
 (Enter /apps/easybuild-2022/easybuild/software/Compiler/NVHPC/22.11-CUDA-11.7.0/Gaussian/g16c01-CUDA-11.7.0/g16/l301.exe)
 Standard basis: 6-311++G(d,p) (5D, 7F)
 Ernie: Thresh=  0.10000D-02 Tol=  0.10000D-05 Strict=F.
   257 basis functions,   419 primitive gaussians,   268 cartesian basis functions
    49 alpha electrons       49 beta electrons
       nuclear repulsion energy       921.3713648401 Hartrees.
 IExCor= 4639 DFT=T Ex+Corr=wB97XD ExCW=0 ScaHFX=  1.000000
 ScaDFX=  1.000000  1.000000  1.000000  1.000000 ScalE2=  1.000000  1.000000
 IRadAn=      5 IRanWt=     -1 IRanGd=            0 ICorTp=0 IEmpDi=121
 HFx  wShort=  0.000000 wLong=  0.200000 cFull=  0.222036 cShort=  0.000000 cLong=  0.777964
 DFx  wShort=  0.000000 wLong=  0.200000 cFull=  0.000000 cShort=  0.000000 cLong=  1.000000
 NAtoms=   12 NActive=   12 NUniq=   12 SFac= 1.00D+00 NAtFMM=   60 NAOKFM=F Big=F
 Integral buffers will be    131072 words long.
 Raffenetti 2 integral format.
 Two-electron integral symmetry is turned off.
 R6Disp:  Grimme-D2 Dispersion energy=       -0.0054934696 Hartrees.
 Nuclear repulsion after empirical dispersion term =      921.3658713706 Hartrees.
 Leave Link  301 at Fri May 23 03:38:13 2025, MaxMem=  3758096384 cpu:               0.0 elap:               0.0
 (Enter /apps/easybuild-2022/easybuild/software/Compiler/NVHPC/22.11-CUDA-11.7.0/Gaussian/g16c01-CUDA-11.7.0/g16/l302.exe)
 NPDir=0 NMtPBC=     1 NCelOv=     1 NCel=       1 NClECP=     1 NCelD=      1
         NCelK=      1 NCelE2=     1 NClLst=     1 CellRange=     0.0.
 One-electron integrals computed using PRISM.
 NBasis=   257 RedAO= T EigKep=  5.97D-05  NBF=   257
 NBsUse=   257 1.00D-06 EigRej= -1.00D+00 NBFU=   257
 Precomputing XC quadrature grid using
 IXCGrd= 4 IRadAn=           5 IRanWt=          -1 IRanGd=           0 AccXCQ= 0.00D+00.
 Generated NRdTot=       0 NPtTot=           0 NUsed=           0 NTot=          32
 NSgBfM=   268   268   268   268   268 MxSgAt=    12 MxSgA2=    12.
 Leave Link  302 at Fri May 23 03:38:14 2025, MaxMem=  3758096384 cpu:               0.5 elap:               0.1
 (Enter /apps/easybuild-2022/easybuild/software/Compiler/NVHPC/22.11-CUDA-11.7.0/Gaussian/g16c01-CUDA-11.7.0/g16/l303.exe)
 DipDrv:  MaxL=1.
 Leave Link  303 at Fri May 23 03:38:14 2025, MaxMem=  3758096384 cpu:               0.1 elap:               0.0
 (Enter /apps/easybuild-2022/easybuild/software/Compiler/NVHPC/22.11-CUDA-11.7.0/Gaussian/g16c01-CUDA-11.7.0/g16/l401.exe)
 ExpMin= 3.60D-02 ExpMax= 9.34D+04 ExpMxC= 3.17D+03 IAcc=3 IRadAn=         5 AccDes= 0.00D+00
 Harris functional with IExCor= 4639 and IRadAn=       5 diagonalized for initial guess.
 HarFok:  IExCor= 4639 AccDes= 0.00D+00 IRadAn=         5 IDoV= 1 UseB2=F ITyADJ=14
 ICtDFT=  3500011 ScaDFX=  1.000000  1.000000  1.000000  1.000000
 FoFCou: FMM=F IPFlag=           0 FMFlag=      100000 FMFlg1=           0
         NFxFlg=           0 DoJE=T BraDBF=F KetDBF=T FulRan=T
         wScrn=  0.000000 ICntrl=       500 IOpCl=  0 I1Cent=   200000004 NGrid=           0
         NMat0=    1 NMatS0=      1 NMatT0=    0 NMatD0=    1 NMtDS0=    0 NMtDT0=    0
 Symmetry not used in FoFCou.
 Harris En= -1167.09944345248    
 JPrj=0 DoOrth=F DoCkMO=F.
 Leave Link  401 at Fri May 23 03:38:14 2025, MaxMem=  3758096384 cpu:               2.4 elap:               0.3
 (Enter /apps/easybuild-2022/easybuild/software/Compiler/NVHPC/22.11-CUDA-11.7.0/Gaussian/g16c01-CUDA-11.7.0/g16/l502.exe)
 Keep R1 ints in memory in canonical form, NReq=1117474609.
 FoFCou: FMM=F IPFlag=           0 FMFlag=           0 FMFlg1=           0
         NFxFlg=           0 DoJE=F BraDBF=F KetDBF=F FulRan=T
         wScrn=  0.000000 ICntrl=       600 IOpCl=  0 I1Cent=           0 NGrid=           0
         NMat0=    1 NMatS0=  33153 NMatT0=    0 NMatD0=    1 NMtDS0=    0 NMtDT0=    0
 Symmetry not used in FoFCou.
 Two-electron integral symmetry not used.
 Closed shell SCF:
 Using DIIS extrapolation, IDIIS=  1040.
 NGot=  3758096384 LenX=  2658793876 LenY=  2658721611
 Requested convergence on RMS density matrix=1.00D-08 within  32 cycles.
 Requested convergence on MAX density matrix=1.00D-06.
 Requested convergence on             energy=1.00D-06.
 No special actions if energy rises.

 Cycle   1  Pass 1  IDiag  1:
 E= -1199.14699053101    
 DIIS: error= 1.21D-01 at cycle   1 NSaved=   1.
 NSaved= 1 IEnMin= 1 EnMin= -1199.14699053101     IErMin= 1 ErrMin= 1.21D-01
 ErrMax= 1.21D-01  0.00D+00 EMaxC= 1.00D-01 BMatC= 3.33D+00 BMatP= 3.33D+00
 IDIUse=3 WtCom= 0.00D+00 WtEn= 1.00D+00
 Coeff-Com:  0.100D+01
 Coeff-En:   0.100D+01
 Coeff:      0.100D+01
 Gap=     0.662 Goal=   None    Shift=    0.000
 GapD=    0.662 DampG=2.000 DampE=0.250 DampFc=0.5000 IDamp=-1.
 Damping current iteration by 5.00D-01
 RMSDP=7.11D-03 MaxDP=3.77D-01              OVMax= 1.84D-01

 Cycle   2  Pass 1  IDiag  1:
 E= -1199.49458232083     Delta-E=       -0.347591789821 Rises=F Damp=T
 DIIS: error= 5.25D-02 at cycle   2 NSaved=   2.
 NSaved= 2 IEnMin= 2 EnMin= -1199.49458232083     IErMin= 2 ErrMin= 5.25D-02
 ErrMax= 5.25D-02  0.00D+00 EMaxC= 1.00D-01 BMatC= 4.81D-01 BMatP= 3.33D+00
 IDIUse=3 WtCom= 4.75D-01 WtEn= 5.25D-01
 Coeff-Com: -0.398D+00 0.140D+01
 Coeff-En:   0.000D+00 0.100D+01
 Coeff:     -0.189D+00 0.119D+01
 Gap=     0.543 Goal=   None    Shift=    0.000
 RMSDP=2.63D-03 MaxDP=1.31D-01 DE=-3.48D-01 OVMax= 9.65D-02

 Cycle   3  Pass 1  IDiag  1:
 E= -1199.78227024305     Delta-E=       -0.287687922226 Rises=F Damp=F
 DIIS: error= 1.60D-02 at cycle   3 NSaved=   3.
 NSaved= 3 IEnMin= 3 EnMin= -1199.78227024305     IErMin= 3 ErrMin= 1.60D-02
 ErrMax= 1.60D-02  0.00D+00 EMaxC= 1.00D-01 BMatC= 6.38D-02 BMatP= 4.81D-01
 IDIUse=3 WtCom= 8.40D-01 WtEn= 1.60D-01
 Coeff-Com: -0.161D+00 0.465D+00 0.695D+00
 Coeff-En:   0.000D+00 0.000D+00 0.100D+01
 Coeff:     -0.135D+00 0.391D+00 0.744D+00
 Gap=     0.463 Goal=   None    Shift=    0.000
 RMSDP=2.44D-03 MaxDP=1.26D-01 DE=-2.88D-01 OVMax= 5.78D-02

 Cycle   4  Pass 1  IDiag  1:
 E= -1199.80952560821     Delta-E=       -0.027255365155 Rises=F Damp=F
 DIIS: error= 8.58D-03 at cycle   4 NSaved=   4.
 NSaved= 4 IEnMin= 4 EnMin= -1199.80952560821     IErMin= 4 ErrMin= 8.58D-03
 ErrMax= 8.58D-03  0.00D+00 EMaxC= 1.00D-01 BMatC= 1.90D-02 BMatP= 6.38D-02
 IDIUse=3 WtCom= 9.14D-01 WtEn= 8.58D-02
 Coeff-Com: -0.296D-01 0.753D-01 0.374D+00 0.580D+00
 Coeff-En:   0.000D+00 0.000D+00 0.243D+00 0.757D+00
 Coeff:     -0.270D-01 0.689D-01 0.363D+00 0.595D+00
 Gap=     0.478 Goal=   None    Shift=    0.000
 RMSDP=1.16D-03 MaxDP=6.55D-02 DE=-2.73D-02 OVMax= 2.30D-02

 Cycle   5  Pass 1  IDiag  1:
 E= -1199.82151254687     Delta-E=       -0.011986938666 Rises=F Damp=F
 DIIS: error= 1.37D-03 at cycle   5 NSaved=   5.
 NSaved= 5 IEnMin= 5 EnMin= -1199.82151254687     IErMin= 5 ErrMin= 1.37D-03
 ErrMax= 1.37D-03  0.00D+00 EMaxC= 1.00D-01 BMatC= 8.17D-04 BMatP= 1.90D-02
 IDIUse=3 WtCom= 9.86D-01 WtEn= 1.37D-02
 Coeff-Com: -0.598D-02 0.136D-01 0.156D+00 0.311D+00 0.526D+00
 Coeff-En:   0.000D+00 0.000D+00 0.000D+00 0.000D+00 0.100D+01
 Coeff:     -0.590D-02 0.134D-01 0.153D+00 0.307D+00 0.532D+00
 Gap=     0.468 Goal=   None    Shift=    0.000
 RMSDP=1.53D-04 MaxDP=7.42D-03 DE=-1.20D-02 OVMax= 4.28D-03

 Cycle   6  Pass 1  IDiag  1:
 E= -1199.82199936176     Delta-E=       -0.000486814885 Rises=F Damp=F
 DIIS: error= 2.03D-04 at cycle   6 NSaved=   6.
 NSaved= 6 IEnMin= 6 EnMin= -1199.82199936176     IErMin= 6 ErrMin= 2.03D-04
 ErrMax= 2.03D-04  0.00D+00 EMaxC= 1.00D-01 BMatC= 1.64D-05 BMatP= 8.17D-04
 IDIUse=3 WtCom= 9.98D-01 WtEn= 2.03D-03
 Coeff-Com:  0.203D-02-0.524D-02-0.850D-04 0.213D-01 0.131D+00 0.851D+00
 Coeff-En:   0.000D+00 0.000D+00 0.000D+00 0.000D+00 0.000D+00 0.100D+01
 Coeff:      0.203D-02-0.523D-02-0.848D-04 0.212D-01 0.131D+00 0.851D+00
 Gap=     0.467 Goal=   None    Shift=    0.000
 RMSDP=4.04D-05 MaxDP=1.72D-03 DE=-4.87D-04 OVMax= 8.56D-04

 Cycle   7  Pass 1  IDiag  1:
 E= -1199.82201537999     Delta-E=       -0.000016018231 Rises=F Damp=F
 DIIS: error= 4.81D-05 at cycle   7 NSaved=   7.
 NSaved= 7 IEnMin= 7 EnMin= -1199.82201537999     IErMin= 7 ErrMin= 4.81D-05
 ErrMax= 4.81D-05  0.00D+00 EMaxC= 1.00D-01 BMatC= 8.94D-07 BMatP= 1.64D-05
 IDIUse=1 WtCom= 1.00D+00 WtEn= 0.00D+00
 Coeff-Com:  0.846D-03-0.195D-02-0.124D-01-0.214D-01-0.330D-01 0.117D+00
 Coeff-Com:  0.951D+00
 Coeff:      0.846D-03-0.195D-02-0.124D-01-0.214D-01-0.330D-01 0.117D+00
 Coeff:      0.951D+00
 Gap=     0.467 Goal=   None    Shift=    0.000
 RMSDP=1.15D-05 MaxDP=5.50D-04 DE=-1.60D-05 OVMax= 3.16D-04

 Cycle   8  Pass 1  IDiag  1:
 E= -1199.82201632473     Delta-E=       -0.000000944743 Rises=F Damp=F
 DIIS: error= 1.62D-05 at cycle   8 NSaved=   8.
 NSaved= 8 IEnMin= 8 EnMin= -1199.82201632473     IErMin= 8 ErrMin= 1.62D-05
 ErrMax= 1.62D-05  0.00D+00 EMaxC= 1.00D-01 BMatC= 1.30D-07 BMatP= 8.94D-07
 IDIUse=1 WtCom= 1.00D+00 WtEn= 0.00D+00
 Coeff-Com:  0.344D-03-0.776D-03-0.564D-02-0.103D-01-0.171D-01 0.418D-01
 Coeff-Com:  0.433D+00 0.559D+00
 Coeff:      0.344D-03-0.776D-03-0.564D-02-0.103D-01-0.171D-01 0.418D-01
 Coeff:      0.433D+00 0.559D+00
 Gap=     0.467 Goal=   None    Shift=    0.000
 RMSDP=3.31D-06 MaxDP=2.08D-04 DE=-9.45D-07 OVMax= 5.72D-05

 Cycle   9  Pass 1  IDiag  1:
 E= -1199.82201641251     Delta-E=       -0.000000087773 Rises=F Damp=F
 DIIS: error= 4.80D-06 at cycle   9 NSaved=   9.
 NSaved= 9 IEnMin= 9 EnMin= -1199.82201641251     IErMin= 9 ErrMin= 4.80D-06
 ErrMax= 4.80D-06  0.00D+00 EMaxC= 1.00D-01 BMatC= 1.03D-08 BMatP= 1.30D-07
 IDIUse=1 WtCom= 1.00D+00 WtEn= 0.00D+00
 Coeff-Com: -0.558D-04 0.133D-03 0.470D-03 0.470D-03 0.171D-03-0.110D-01
 Coeff-Com: -0.477D-01 0.171D+00 0.887D+00
 Coeff:     -0.558D-04 0.133D-03 0.470D-03 0.470D-03 0.171D-03-0.110D-01
 Coeff:     -0.477D-01 0.171D+00 0.887D+00
 Gap=     0.467 Goal=   None    Shift=    0.000
 RMSDP=1.90D-06 MaxDP=9.53D-05 DE=-8.78D-08 OVMax= 4.37D-05

 Cycle  10  Pass 1  IDiag  1:
 E= -1199.82201642429     Delta-E=       -0.000000011780 Rises=F Damp=F
 DIIS: error= 1.88D-06 at cycle  10 NSaved=  10.
 NSaved=10 IEnMin=10 EnMin= -1199.82201642429     IErMin=10 ErrMin= 1.88D-06
 ErrMax= 1.88D-06  0.00D+00 EMaxC= 1.00D-01 BMatC= 1.46D-09 BMatP= 1.03D-08
 IDIUse=1 WtCom= 1.00D+00 WtEn= 0.00D+00
 Coeff-Com: -0.462D-04 0.106D-03 0.523D-03 0.822D-03 0.109D-02-0.682D-02
 Coeff-Com: -0.463D-01 0.368D-01 0.365D+00 0.649D+00
 Coeff:     -0.462D-04 0.106D-03 0.523D-03 0.822D-03 0.109D-02-0.682D-02
 Coeff:     -0.463D-01 0.368D-01 0.365D+00 0.649D+00
 Gap=     0.467 Goal=   None    Shift=    0.000
 RMSDP=4.69D-07 MaxDP=3.22D-05 DE=-1.18D-08 OVMax= 1.39D-05

 Cycle  11  Pass 1  IDiag  1:
 E= -1199.82201642539     Delta-E=       -0.000000001105 Rises=F Damp=F
 DIIS: error= 9.83D-07 at cycle  11 NSaved=  11.
 NSaved=11 IEnMin=11 EnMin= -1199.82201642539     IErMin=11 ErrMin= 9.83D-07
 ErrMax= 9.83D-07  0.00D+00 EMaxC= 1.00D-01 BMatC= 3.61D-10 BMatP= 1.46D-09
 IDIUse=1 WtCom= 1.00D+00 WtEn= 0.00D+00
 Coeff-Com: -0.130D-04 0.288D-04 0.169D-03 0.341D-03 0.558D-03-0.105D-02
 Coeff-Com: -0.146D-01-0.160D-01 0.221D-02 0.341D+00 0.687D+00
 Coeff:     -0.130D-04 0.288D-04 0.169D-03 0.341D-03 0.558D-03-0.105D-02
 Coeff:     -0.146D-01-0.160D-01 0.221D-02 0.341D+00 0.687D+00
 Gap=     0.467 Goal=   None    Shift=    0.000
 RMSDP=2.35D-07 MaxDP=1.14D-05 DE=-1.11D-09 OVMax= 6.34D-06

 Cycle  12  Pass 1  IDiag  1:
 E= -1199.82201642566     Delta-E=       -0.000000000265 Rises=F Damp=F
 DIIS: error= 2.25D-07 at cycle  12 NSaved=  12.
 NSaved=12 IEnMin=12 EnMin= -1199.82201642566     IErMin=12 ErrMin= 2.25D-07
 ErrMax= 2.25D-07  0.00D+00 EMaxC= 1.00D-01 BMatC= 2.10D-11 BMatP= 3.61D-10
 IDIUse=1 WtCom= 1.00D+00 WtEn= 0.00D+00
 Coeff-Com:  0.480D-06-0.136D-05 0.237D-05 0.343D-04 0.930D-04 0.306D-03
 Coeff-Com: -0.853D-03-0.101D-01-0.369D-01 0.699D-01 0.268D+00 0.710D+00
 Coeff:      0.480D-06-0.136D-05 0.237D-05 0.343D-04 0.930D-04 0.306D-03
 Coeff:     -0.853D-03-0.101D-01-0.369D-01 0.699D-01 0.268D+00 0.710D+00
 Gap=     0.467 Goal=   None    Shift=    0.000
 RMSDP=5.60D-08 MaxDP=2.31D-06 DE=-2.65D-10 OVMax= 1.39D-06

 Cycle  13  Pass 1  IDiag  1:
 E= -1199.82201642573     Delta-E=       -0.000000000072 Rises=F Damp=F
 DIIS: error= 5.95D-08 at cycle  13 NSaved=  13.
 NSaved=13 IEnMin=13 EnMin= -1199.82201642573     IErMin=13 ErrMin= 5.95D-08
 ErrMax= 5.95D-08  0.00D+00 EMaxC= 1.00D-01 BMatC= 2.20D-12 BMatP= 2.10D-11
 IDIUse=1 WtCom= 1.00D+00 WtEn= 0.00D+00
 Coeff-Com:  0.126D-05-0.285D-05-0.116D-04-0.147D-04-0.292D-05 0.197D-03
 Coeff-Com:  0.872D-03-0.209D-02-0.123D-01-0.721D-02 0.287D-01 0.267D+00
 Coeff-Com:  0.724D+00
 Coeff:      0.126D-05-0.285D-05-0.116D-04-0.147D-04-0.292D-05 0.197D-03
 Coeff:      0.872D-03-0.209D-02-0.123D-01-0.721D-02 0.287D-01 0.267D+00
 Coeff:      0.724D+00
 Gap=     0.467 Goal=   None    Shift=    0.000
 RMSDP=2.04D-08 MaxDP=9.76D-07 DE=-7.19D-11 OVMax= 5.24D-07

 Cycle  14  Pass 1  IDiag  1:
 E= -1199.82201642572     Delta-E=        0.000000000013 Rises=F Damp=F
 DIIS: error= 2.55D-08 at cycle  14 NSaved=  14.
 NSaved=14 IEnMin=13 EnMin= -1199.82201642573     IErMin=14 ErrMin= 2.55D-08
 ErrMax= 2.55D-08  0.00D+00 EMaxC= 1.00D-01 BMatC= 2.52D-13 BMatP= 2.20D-12
 IDIUse=1 WtCom= 1.00D+00 WtEn= 0.00D+00
 Coeff-Com:  0.441D-06-0.953D-06-0.516D-05-0.122D-04-0.177D-04 0.195D-04
 Coeff-Com:  0.492D-03 0.729D-03 0.842D-03-0.130D-01-0.284D-01 0.428D-02
 Coeff-Com:  0.265D+00 0.770D+00
 Coeff:      0.441D-06-0.953D-06-0.516D-05-0.122D-04-0.177D-04 0.195D-04
 Coeff:      0.492D-03 0.729D-03 0.842D-03-0.130D-01-0.284D-01 0.428D-02
 Coeff:      0.265D+00 0.770D+00
 Gap=     0.467 Goal=   None    Shift=    0.000
 RMSDP=7.35D-09 MaxDP=3.21D-07 DE= 1.27D-11 OVMax= 2.11D-07

 SCF Done:  E(RwB97XD) =  -1199.82201643     A.U. after   14 cycles
            NFock= 14  Conv=0.74D-08     -V/T= 2.0020
 KE= 1.197419451279D+03 PE=-4.689384715208D+03 EE= 1.370777376133D+03
 Leave Link  502 at Fri May 23 03:38:27 2025, MaxMem=  3758096384 cpu:              63.3 elap:              12.6
 (Enter /apps/easybuild-2022/easybuild/software/Compiler/NVHPC/22.11-CUDA-11.7.0/Gaussian/g16c01-CUDA-11.7.0/g16/l508.exe)
 QCSCF skips out because SCF is already converged.
 Leave Link  508 at Fri May 23 03:38:27 2025, MaxMem=  3758096384 cpu:               0.0 elap:               0.0
 (Enter /apps/easybuild-2022/easybuild/software/Compiler/NVHPC/22.11-CUDA-11.7.0/Gaussian/g16c01-CUDA-11.7.0/g16/l801.exe)
 DoSCS=F DFT=T ScalE2(SS,OS)=  1.000000  1.000000
 Range of M.O.s used for correlation:     1   257
 NBasis=   257 NAE=    49 NBE=    49 NFC=     0 NFV=     0
 NROrb=    257 NOA=    49 NOB=    49 NVA=   208 NVB=   208

 **** Warning!!: The largest alpha MO coefficient is  0.36383787D+02

 Leave Link  801 at Fri May 23 03:38:27 2025, MaxMem=  3758096384 cpu:               0.0 elap:               0.0
 (Enter /apps/easybuild-2022/easybuild/software/Compiler/NVHPC/22.11-CUDA-11.7.0/Gaussian/g16c01-CUDA-11.7.0/g16/l1101.exe)
 Using compressed storage, NAtomX=    12.
 Will process     13 centers per pass.
 R6Disp: Adding Grimme-D2 dispersion energy 1st derivatives to the gradient.
 Leave Link 1101 at Fri May 23 03:38:27 2025, MaxMem=  3758096384 cpu:               0.5 elap:               0.1
 (Enter /apps/easybuild-2022/easybuild/software/Compiler/NVHPC/22.11-CUDA-11.7.0/Gaussian/g16c01-CUDA-11.7.0/g16/l1102.exe)
 Symmetrizing basis deriv contribution to polar:
 IMax=3 JMax=2 DiffMx= 0.00D+00
 Leave Link 1102 at Fri May 23 03:38:27 2025, MaxMem=  3758096384 cpu:               0.0 elap:               0.0
 (Enter /apps/easybuild-2022/easybuild/software/Compiler/NVHPC/22.11-CUDA-11.7.0/Gaussian/g16c01-CUDA-11.7.0/g16/l1110.exe)
 Forming Gx(P) for the SCF density, NAtomX=    12.
 Integral derivatives from FoFJK, PRISM(SPDF).
 Do as many integral derivatives as possible in FoFJK.
 G2DrvN: MDV=    3758095012.
 G2DrvN: will do    13 centers at a time, making    1 passes.
 Calling FoFCou, ICntrl=  3107 FMM=F I1Cent=   0 AccDes= 0.00D+00.
 FoFJK:  IHMeth= 1 ICntrl=    3107 DoSepK=T KAlg= 0 I1Cent=           0 FoldK=F
 IRaf=         1 NMat=       1 IRICut=       1 DoRegI=T DoRafI=F ISym2E= 0 IDoP0=0 IntGTp=1.
 FoFCou: FMM=F IPFlag=           0 FMFlag=      100000 FMFlg1=           0
         NFxFlg=           0 DoJE=F BraDBF=F KetDBF=F FulRan=T
         wScrn=  0.000000 ICntrl=      3507 IOpCl=  0 I1Cent=           0 NGrid=           0
         NMat0=    1 NMatS0=      1 NMatT0=    0 NMatD0=    1 NMtDS0=    0 NMtDT0=    0
 Symmetry not used in FoFCou.
 End of G2Drv F.D. properties file   721 does not exist.
 End of G2Drv F.D. properties file   722 does not exist.
 End of G2Drv F.D. properties file   788 does not exist.
 Leave Link 1110 at Fri May 23 03:38:40 2025, MaxMem=  3758096384 cpu:             103.9 elap:              13.1
 (Enter /apps/easybuild-2022/easybuild/software/Compiler/NVHPC/22.11-CUDA-11.7.0/Gaussian/g16c01-CUDA-11.7.0/g16/l1002.exe)
 Minotr:  Closed shell wavefunction.
          IDoAtm=111111111111
          Direct CPHF calculation.
          Differentiating once with respect to nuclear coordinates.
          Requested convergence is 1.0D-08 RMS, and 1.0D-07 maximum.
          Secondary convergence is 1.0D-12 RMS, and 1.0D-12 maximum.
          NewPWx=T KeepS1=F KeepF1=F KeepIn=T MapXYZ=F SortEE=F KeepMc=T.
         3724 words used for storage of precomputed grid.
 Keep R1 ints in memory in canonical form, NReq=1117480316.
 FoFCou: FMM=F IPFlag=           0 FMFlag=           0 FMFlg1=           0
         NFxFlg=           0 DoJE=F BraDBF=F KetDBF=F FulRan=T
         wScrn=  0.000000 ICntrl=       600 IOpCl=  0 I1Cent=           0 NGrid=           0
         NMat0=    1 NMatS0=  33153 NMatT0=    0 NMatD0=    1 NMtDS0=    0 NMtDT0=    0
 Symmetry not used in FoFCou.
 Two-electron integral symmetry not used.
          MDV=    3758096384 using IRadAn=       1.
          Solving linear equations simultaneously, MaxMat=       0.
          There are    39 degrees of freedom in the 1st order CPHF.  IDoFFX=6 NUNeed=     0.
     33 vectors produced by pass  0 Test12= 2.61D-14 2.56D-09 XBig12= 2.67D-01 9.51D-02.
 AX will form    33 AO Fock derivatives at one time.
     33 vectors produced by pass  1 Test12= 2.61D-14 2.56D-09 XBig12= 3.73D-02 2.46D-02.
     33 vectors produced by pass  2 Test12= 2.61D-14 2.56D-09 XBig12= 1.39D-03 5.08D-03.
     33 vectors produced by pass  3 Test12= 2.61D-14 2.56D-09 XBig12= 2.61D-05 6.73D-04.
     33 vectors produced by pass  4 Test12= 2.61D-14 2.56D-09 XBig12= 3.97D-07 8.80D-05.
     33 vectors produced by pass  5 Test12= 2.61D-14 2.56D-09 XBig12= 5.53D-09 9.99D-06.
     33 vectors produced by pass  6 Test12= 2.61D-14 2.56D-09 XBig12= 4.58D-11 1.18D-06.
     23 vectors produced by pass  7 Test12= 2.61D-14 2.56D-09 XBig12= 3.37D-13 7.30D-08.
      5 vectors produced by pass  8 Test12= 2.61D-14 2.56D-09 XBig12= 1.96D-15 5.89D-09.
 InvSVY:  IOpt=1 It=  1 EMax= 1.11D-15
 Solved reduced A of dimension   259 with    33 vectors.
 End of Minotr F.D. properties file   721 does not exist.
 End of Minotr F.D. properties file   722 does not exist.
 End of Minotr F.D. properties file   788 does not exist.
 Leave Link 1002 at Fri May 23 03:39:03 2025, MaxMem=  3758096384 cpu:             181.6 elap:              23.3
 (Enter /apps/easybuild-2022/easybuild/software/Compiler/NVHPC/22.11-CUDA-11.7.0/Gaussian/g16c01-CUDA-11.7.0/g16/l701.exe)
 ... and contract with generalized density number  0.
 Compute integral second derivatives.
 R6Disp: Adding Grimme-D2 dispersion energy 2nd derivatives to the Hessian.
 Leave Link  701 at Fri May 23 03:39:03 2025, MaxMem=  3758096384 cpu:               0.5 elap:               0.1
 (Enter /apps/easybuild-2022/easybuild/software/Compiler/NVHPC/22.11-CUDA-11.7.0/Gaussian/g16c01-CUDA-11.7.0/g16/l702.exe)
 L702 exits ... SP integral derivatives will be done elsewhere.
 Leave Link  702 at Fri May 23 03:39:03 2025, MaxMem=  3758096384 cpu:               0.0 elap:               0.0
 (Enter /apps/easybuild-2022/easybuild/software/Compiler/NVHPC/22.11-CUDA-11.7.0/Gaussian/g16c01-CUDA-11.7.0/g16/l703.exe)
 Integral derivatives from FoFJK, PRISM(SPDF).
 Compute integral second derivatives, UseDBF=F ICtDFT=           0.
 Calling FoFJK, ICntrl=    100127 FMM=F ISym2X=0 I1Cent= 0 IOpClX= 0 NMat=1 NMatS=1 NMatT=0.
 FoFJK:  IHMeth= 1 ICntrl=  100127 DoSepK=T KAlg= 0 I1Cent=           0 FoldK=F
 IRaf=         1 NMat=       1 IRICut=       1 DoRegI=T DoRafI=F ISym2E= 0 IDoP0=0 IntGTp=1.
 FoFCou: FMM=F IPFlag=           0 FMFlag=      100000 FMFlg1=         800
         NFxFlg=           0 DoJE=F BraDBF=F KetDBF=F FulRan=T
         wScrn=  0.000000 ICntrl=    100527 IOpCl=  0 I1Cent=           0 NGrid=           0
         NMat0=    1 NMatS0=      1 NMatT0=    0 NMatD0=    1 NMtDS0=    0 NMtDT0=    0
 Symmetry not used in FoFCou.
 Leave Link  703 at Fri May 23 03:39:41 2025, MaxMem=  3758096384 cpu:             296.8 elap:              37.4
 (Enter /apps/easybuild-2022/easybuild/software/Compiler/NVHPC/22.11-CUDA-11.7.0/Gaussian/g16c01-CUDA-11.7.0/g16/l716.exe)
 Dipole        =-1.22227592D-01 1.02476182D+00-3.08439843D-01
 Polarizability= 0.00000000D+00 0.00000000D+00 0.00000000D+00
                 0.00000000D+00 0.00000000D+00 0.00000000D+00
 -------------------------------------------------------------------
 Center     Atomic                   Forces (Hartrees/Bohr)
 Number     Number              X              Y              Z
 -------------------------------------------------------------------
      1        6          -0.000009843   -0.000004308    0.000007308
      2        6          -0.000004288   -0.000002290   -0.000005781
      3        9           0.000008602   -0.000020227    0.000001492
      4        9          -0.000012962   -0.000011966   -0.000018453
      5       16           0.000005012    0.000011626    0.000012452
      6        8          -0.000012335    0.000005063    0.000006760
      7        8           0.000013465    0.000011001    0.000003821
      8        8           0.000003896    0.000014536    0.000011790
      9        9          -0.000024003   -0.000014614   -0.000032766
     10        9           0.000036908   -0.000022993   -0.000000040
     11        9          -0.000003131    0.000036169    0.000013519
     12        1          -0.000001322   -0.000001997   -0.000000103
 -------------------------------------------------------------------
 Cartesian Forces:  Max     0.000036908 RMS     0.000014762
 Force constants in Cartesian coordinates: 
                1             2             3             4             5 
      1  0.559006D+00
      2  0.614350D-02  0.557818D+00
      3 -0.459471D-02  0.488449D-02  0.559074D+00
      4 -0.965043D-01 -0.908120D-02  0.296088D-01  0.426337D+00
      5 -0.309734D-01 -0.656776D-01  0.414233D-01  0.114747D-01  0.515793D+00
      6  0.568180D-01  0.343522D-01 -0.102978D+00  0.238098D-01 -0.712332D-02
      7  0.254831D-02 -0.316921D-02  0.494219D-02 -0.108076D+00 -0.166799D-01
      8  0.487198D-03  0.406723D-02  0.265322D-02 -0.163597D-01 -0.750203D-01
      9 -0.259072D-01 -0.146189D-01 -0.375266D-01 -0.781406D-01 -0.291379D-01
     10  0.444471D-02 -0.141605D-01  0.160127D-02 -0.723695D-01  0.267894D-01
     11  0.993635D-02 -0.396330D-01 -0.104005D-01  0.152663D-01 -0.295308D+00
     12 -0.200742D-02  0.160262D-01  0.482665D-02  0.197911D-02 -0.386540D-02
     13 -0.202800D-01 -0.954866D-02  0.239705D-01 -0.140823D+00  0.375044D-01
     14 -0.127487D-01  0.257474D-01 -0.738946D-02  0.103256D-01 -0.359920D-01
     15  0.278188D-01 -0.895784D-02  0.194262D-01  0.218574D-01  0.305113D-02
     16  0.332734D-02  0.445788D-02 -0.464476D-02  0.133374D-01 -0.170078D-01
     17  0.167428D-02 -0.376473D-02 -0.927306D-03  0.707393D-02 -0.221236D-02
     18 -0.524979D-02  0.417037D-02 -0.104715D-01  0.722699D-02 -0.137669D-01
     19  0.225622D-02  0.192885D-03 -0.570640D-02  0.146750D-01  0.129992D-01
     20  0.194819D-02 -0.105252D-01  0.625005D-02 -0.181848D-01 -0.753532D-02
     21 -0.379499D-02  0.797431D-03 -0.257847D-02 -0.915197D-02 -0.278992D-02
     22 -0.540830D-03  0.661818D-02 -0.884837D-02 -0.388907D-02 -0.181216D-01
     23  0.256969D-02 -0.362082D-03 -0.274301D-02  0.573922D-02 -0.106202D-01
     24 -0.334440D-02 -0.254233D-02  0.239131D-02 -0.508088D-02  0.151227D-01
     25 -0.124997D+00  0.599543D-01 -0.616210D-01  0.340177D-02 -0.834995D-03
     26  0.582414D-01 -0.155066D+00  0.868415D-01  0.208674D-01 -0.839065D-02
     27 -0.594721D-01  0.864154D-01 -0.166874D+00 -0.257520D-01  0.197293D-01
     28 -0.125588D+00  0.574379D-01  0.674656D-01 -0.878974D-02  0.206600D-01
     29  0.633228D-01 -0.160118D+00 -0.869804D-01  0.254721D-02 -0.872017D-02
     30  0.688645D-01 -0.808908D-01 -0.166706D+00  0.247846D-01 -0.279995D-01
     31 -0.203187D+00 -0.986287D-01 -0.423738D-01 -0.260436D-01 -0.205461D-01
     32 -0.999102D-01 -0.151833D+00 -0.346760D-01 -0.288705D-01 -0.101751D-01
     33 -0.497254D-01 -0.396185D-01 -0.992428D-01  0.811454D-02  0.393252D-02
     34 -0.485399D-03 -0.216433D-03  0.200669D-03 -0.125626D-02 -0.526395D-02
     35 -0.691125D-03 -0.653100D-03  0.106412D-02 -0.798172D-03  0.385916D-02
     36  0.594655D-03 -0.176922D-04  0.659008D-03  0.744177D-03  0.142410D-02
                6             7             8             9            10 
      6  0.529456D+00
      7 -0.909220D-01  0.114376D+00
      8 -0.388482D-01  0.391866D-01  0.101060D+00
      9 -0.274882D+00  0.114630D+00  0.823310D-01  0.353122D+00
     10  0.325033D-02  0.927188D-02 -0.228952D-01 -0.904401D-02  0.675094D-01
     11  0.892379D-02 -0.126875D-01 -0.367525D-01 -0.419985D-01 -0.149752D-01
     12 -0.703510D-01 -0.481889D-02 -0.571252D-01 -0.148532D-01 -0.298615D-02
     13 -0.102867D-01 -0.751199D-02 -0.322993D-03 -0.319965D-02  0.193821D-02
     14  0.111017D-01 -0.106264D-01 -0.798108D-03 -0.106061D-01  0.316797D-01
     15 -0.357968D-01 -0.397966D-01  0.573456D-04 -0.278230D-01  0.645083D-03
     16 -0.170332D-01 -0.127257D-01  0.242487D-03 -0.820845D-02 -0.180779D-02
     17 -0.228086D-02 -0.163704D-03  0.120125D-02  0.103804D-02 -0.138460D-02
     18 -0.368756D-02 -0.453651D-02  0.289815D-03 -0.101799D-02 -0.940074D-03
     19  0.680333D-02 -0.119126D-02 -0.104102D-03 -0.538304D-03 -0.790276D-02
     20 -0.131786D-01  0.440457D-02  0.366878D-02  0.624591D-02  0.692291D-02
     21  0.109835D-02  0.432399D-02  0.196105D-02  0.608299D-02  0.168923D-02
     22  0.246723D-01 -0.800683D-03 -0.452084D-03 -0.149881D-02 -0.436746D-03
     23  0.110361D-01 -0.944540D-03  0.123370D-02 -0.210806D-02 -0.155716D-02
     24 -0.134178D-01  0.461654D-02 -0.514774D-03  0.819201D-02 -0.140433D-03
     25  0.199061D-02  0.180162D-02 -0.104624D-04  0.164566D-02  0.139273D-02
     26  0.132926D-01 -0.244339D-02 -0.113591D-02  0.787576D-02 -0.376748D-02
     27 -0.110007D-01  0.334461D-02  0.650055D-03 -0.668357D-02  0.442471D-02
     28  0.161589D-01 -0.477097D-03 -0.113966D-02  0.750014D-02 -0.133717D-03
     29 -0.358345D-02  0.100926D-02  0.170817D-02 -0.410627D-03 -0.621495D-02
     30 -0.174759D-01  0.256427D-03  0.207678D-02 -0.561612D-02  0.734392D-03
     31 -0.174739D-01  0.246358D-02  0.589834D-03  0.243867D-02 -0.232148D-02
     32 -0.122123D-01  0.120631D-02  0.101483D-02  0.104542D-02 -0.686894D-03
     33  0.940423D-03  0.889236D-02  0.649389D-02  0.140136D-02  0.319377D-03
     34  0.221251D-02  0.321573D-03  0.778055D-03  0.322548D-03  0.415048D-03
     35 -0.147960D-02  0.907968D-03 -0.247277D-03  0.344028D-03  0.249838D-03
     36 -0.190509D-02 -0.932181D-03 -0.249227D-04 -0.395671D-03  0.446275D-03
               11            12            13            14            15 
     11  0.401351D+00
     12  0.353021D-01  0.815560D-01
     13 -0.891295D-02  0.731062D-03  0.528761D+00
     14 -0.424679D-01 -0.202677D-02  0.561763D-01  0.101639D+01
     15 -0.319274D-02 -0.815910D-03  0.127210D+00  0.273571D+00  0.821081D+00
     16  0.500004D-02  0.971296D-03 -0.184986D+00 -0.868643D-01 -0.191073D+00
     17  0.847919D-02  0.180796D-02 -0.851803D-01 -0.171425D+00 -0.177172D+00
     18  0.507359D-02  0.266620D-02 -0.185695D+00 -0.181665D+00 -0.468022D+00
     19  0.109568D-01  0.707046D-03 -0.970743D-01  0.576264D-01  0.131653D-01
     20 -0.538267D-02 -0.553020D-03  0.506477D-01 -0.621656D+00 -0.160500D+00
     21 -0.644257D-03  0.789430D-03  0.127979D-01 -0.162471D+00 -0.126537D+00
     22  0.166919D-02  0.545294D-03 -0.860808D-01 -0.353718D-01  0.470273D-01
     23  0.106932D-01 -0.190112D-02 -0.384010D-01 -0.126462D+00  0.693632D-01
     24 -0.366613D-02  0.176307D-02  0.362896D-01  0.386569D-01 -0.174889D+00
     25 -0.115429D-02 -0.361852D-03 -0.185197D-02  0.483241D-02 -0.746773D-02
     26 -0.291044D-02  0.204670D-02  0.234411D-02 -0.776226D-02  0.253493D-02
     27  0.798097D-02 -0.423366D-02 -0.416890D-02  0.183049D-02 -0.641265D-02
     28 -0.127408D-02  0.169196D-02  0.488731D-02 -0.945523D-03 -0.123022D-03
     29  0.601472D-02  0.751911D-02 -0.216325D-02 -0.376855D-02  0.413076D-03
     30  0.901656D-03 -0.104186D-02 -0.825049D-02  0.317649D-02 -0.515080D-02
     31 -0.707082D-02  0.432404D-02  0.635431D-02 -0.275328D-02 -0.932327D-03
     32 -0.254394D-02  0.278361D-02  0.566628D-02 -0.588250D-02  0.159404D-02
     33  0.312263D-02  0.125691D-03 -0.226732D-02  0.997977D-03 -0.444910D-02
     34  0.324621D-02 -0.775503D-03 -0.333318D-02 -0.113304D-01  0.166893D-02
     35 -0.153949D-02 -0.142250D-04 -0.780964D-02 -0.259209D-01 -0.762113D-03
     36 -0.140272D-02 -0.431345D-03  0.128692D-01  0.348243D-01  0.938932D-02
               16            17            18            19            20 
     16  0.152855D+00
     17  0.932071D-01  0.151608D+00
     18  0.206862D+00  0.193535D+00  0.501594D+00
     19  0.199842D-01 -0.166611D-01 -0.816880D-02  0.603383D-01
     20  0.471173D-02 -0.324915D-02  0.370120D-02 -0.494494D-01  0.663782D+00
     21  0.114823D-02 -0.318831D-01  0.278175D-02 -0.131773D-01  0.164333D+00
     22  0.175608D-01  0.381653D-02 -0.104836D-01  0.101727D-01 -0.380779D-02
     23 -0.150821D-02  0.134649D-01 -0.449067D-02 -0.144657D-01 -0.294737D-01
     24  0.915707D-02  0.196545D-01 -0.314090D-01 -0.906427D-04 -0.869039D-02
     25 -0.216904D-02 -0.243089D-02  0.448134D-02 -0.114540D-02 -0.215458D-02
     26 -0.283815D-02  0.723713D-03 -0.568489D-03 -0.852298D-04  0.399351D-02
     27  0.203120D-02  0.164047D-03  0.345968D-02  0.301455D-02 -0.140979D-02
     28 -0.156937D-02 -0.510718D-03 -0.784722D-03 -0.908726D-03  0.579746D-03
     29  0.404428D-03  0.132302D-02  0.398320D-03  0.643249D-03  0.149672D-02
     30  0.230809D-02  0.825125D-03  0.316701D-02  0.167363D-02 -0.165175D-02
     31 -0.151630D-02 -0.953942D-04  0.158617D-03 -0.133310D-02  0.230080D-02
     32 -0.145803D-02  0.573312D-03 -0.746363D-03 -0.867971D-03  0.327585D-02
     33  0.498157D-03  0.130302D-03  0.202406D-02  0.738243D-03 -0.556923D-03
     34 -0.229131D-02  0.654846D-03 -0.286985D-02  0.212914D-02  0.208094D-02
     35  0.165279D-02  0.327804D-02 -0.593025D-02 -0.784862D-03  0.160504D-02
     36 -0.201606D-02 -0.489132D-02 -0.108425D-02  0.157933D-02  0.601021D-02
               21            22            23            24            25 
     21  0.110100D+00
     22  0.234767D-02  0.111655D+00
     23  0.286199D-01  0.179931D+00  0.567046D+00
     24  0.113798D-01 -0.138100D-01  0.644224D-01  0.280733D+00
     25  0.298280D-02  0.106547D-02 -0.121670D-02  0.133206D-02  0.198097D+00
     26 -0.104935D-02 -0.968025D-03  0.980421D-03  0.489410D-04 -0.116551D+00
     27 -0.310833D-03  0.124250D-02 -0.440718D-04  0.318217D-03  0.115057D+00
     28  0.423950D-03 -0.202165D-02 -0.116618D-02  0.149921D-02 -0.248100D-01
     29 -0.222541D-03  0.513030D-03  0.117964D-02 -0.635526D-03  0.488945D-01
     30  0.371347D-03  0.356126D-02  0.141524D-02 -0.159244D-02 -0.559227D-02
     31  0.955323D-03 -0.261510D-02 -0.134890D-02  0.207760D-02 -0.507344D-01
     32  0.490198D-03 -0.264268D-02 -0.680576D-03  0.150190D-02  0.103553D-01
     33  0.784629D-03  0.104538D-02  0.131165D-03  0.203711D-03 -0.522335D-01
     34 -0.544912D-03 -0.440688D-01 -0.127631D+00 -0.325057D-01 -0.511846D-04
     35  0.285876D-02 -0.131184D+00 -0.426999D+00 -0.123358D+00  0.316610D-03
     36 -0.396201D-02 -0.458010D-01 -0.163701D+00 -0.836730D-01 -0.213072D-03
               26            27            28            29            30 
     26  0.195023D+00
     27 -0.110636D+00  0.188585D+00
     28  0.484511D-01  0.593365D-02  0.139086D+00
     29 -0.485032D-01 -0.762944D-02 -0.100962D+00  0.256715D+00
     30  0.690169D-02  0.244383D-01 -0.802294D-01  0.139975D+00  0.192228D+00
     31 -0.351951D-02 -0.452886D-01  0.202511D-01 -0.813271D-02 -0.803100D-02
     32  0.229970D-01  0.298674D-02 -0.216100D-01 -0.470387D-01 -0.440750D-01
     33 -0.713210D-02 -0.212868D-01 -0.195452D-01 -0.487274D-01 -0.224150D-01
     34  0.269152D-03 -0.366720D-03  0.737180D-04  0.138120D-03 -0.797515D-04
     35  0.509577D-04 -0.374388D-04  0.479186D-03 -0.288888D-03 -0.655329D-03
     36 -0.155911D-03  0.150795D-05  0.888298D-05 -0.116560D-03 -0.207013D-03
               31            32            33            34            35 
     31  0.258512D+00
     32  0.138671D+00  0.189903D+00
     33  0.104205D+00  0.813124D-01  0.142031D+00
     34  0.170741D-03  0.147140D-03 -0.417198D-04  0.483759D-01
     35  0.533594D-03  0.389843D-03 -0.859848D-04  0.137128D+00  0.446466D+00
     36 -0.596709D-04 -0.469935D-05 -0.117589D-03  0.327795D-01  0.128056D+00
               36 
     36  0.817261D-01
 FormGI is forming the generalized inverse of G from B-inverse, IUseBI=4.
 Leave Link  716 at Fri May 23 03:39:41 2025, MaxMem=  3758096384 cpu:               0.0 elap:               0.0
 (Enter /apps/easybuild-2022/easybuild/software/Compiler/NVHPC/22.11-CUDA-11.7.0/Gaussian/g16c01-CUDA-11.7.0/g16/l103.exe)

 GradGradGradGradGradGradGradGradGradGradGradGradGradGradGradGradGradGrad
 Berny optimization.
 Red2BG is reusing G-inverse.
 Internal  Forces:  Max     0.000041285 RMS     0.000015429
 Search for a local minimum.
 Step number   1 out of a maximum of   61
 All quantities printed in internal units (Hartrees-Bohrs-Radians)
 RMS Force = .15429D-04 SwitMx=.10000D-02 MixMth= 2
 Mixed Optimization -- En-DIIS/RFO-DIIS
 Second derivative matrix not updated -- analytic derivatives used.
 ITU=  0
     Eigenvalues ---   -0.00242   0.00396   0.00632   0.04972   0.08595
     Eigenvalues ---    0.09747   0.10645   0.11098   0.11615   0.12591
     Eigenvalues ---    0.12746   0.16009   0.18229   0.19285   0.19564
     Eigenvalues ---    0.21614   0.23831   0.27110   0.27223   0.29536
     Eigenvalues ---    0.32321   0.37230   0.38771   0.39110   0.41710
     Eigenvalues ---    0.48620   0.52898   0.57033   0.68773   0.71570
 Eigenvalue     1 is  -2.42D-03 should be greater than     0.000000 Eigenvector:
                          D3        D6        D9        D1        D2
   1                   -0.32836  -0.32503  -0.32414  -0.32367  -0.32315
                          D4        D5        D7        D8        D10
   1                   -0.32035  -0.31983  -0.31945  -0.31893   0.08680
 RFO step:  Lambda=-2.42634397D-03 EMin=-2.42371242D-03
 I=     1 Eig=   -2.42D-03 Dot1=  4.79D-05
 I=     1 Stepn=  6.00D-01 RXN=   6.00D-01 EDone=F
 Mixed    1 eigenvectors in step.  Raw Step.Grad=  4.79D-05.
 RFO eigenvector is Hessian eigenvector with negative curvature.
 Taking step of  6.00D-01 in eigenvector direction(s).  Step.Grad=  2.51D-07.
 Linear search not attempted -- first point.
 Iteration  1 RMS(Cart)=  0.09814532 RMS(Int)=  0.00599826
 Iteration  2 RMS(Cart)=  0.00662877 RMS(Int)=  0.00001822
 Iteration  3 RMS(Cart)=  0.00002699 RMS(Int)=  0.00000231
 Iteration  4 RMS(Cart)=  0.00000000 RMS(Int)=  0.00000231
 ITry= 1 IFail=0 DXMaxC= 3.21D-01 DCOld= 1.00D+10 DXMaxT= 3.00D-01 DXLimC= 3.00D+00 Rises=F
 Variable       Old X    -DE/DX   Delta X   Delta X   Delta X     New X
                                 (Linear)    (Quad)   (Total)
    R1        2.98527  -0.00000   0.00000   0.00037   0.00037   2.98563
    R2        2.51140  -0.00002   0.00000   0.00010   0.00010   2.51150
    R3        2.50400  -0.00003   0.00000  -0.00138  -0.00138   2.50262
    R4        2.50250  -0.00003   0.00000   0.00126   0.00126   2.50376
    R5        2.51145  -0.00000   0.00000  -0.00097  -0.00097   2.51048
    R6        2.52806  -0.00001   0.00000   0.00122   0.00122   2.52928
    R7        3.54273  -0.00000   0.00000  -0.00036  -0.00036   3.54238
    R8        2.71429  -0.00000   0.00000   0.00088   0.00088   2.71517
    R9        2.69762  -0.00001   0.00000  -0.00094  -0.00094   2.69667
   R10        3.03114   0.00000   0.00000  -0.00031  -0.00031   3.03082
   R11        1.82588  -0.00001   0.00000   0.00003   0.00003   1.82591
    A1        1.93119   0.00001   0.00000  -0.00085  -0.00085   1.93034
    A2        1.91922  -0.00001   0.00000   0.00194   0.00194   1.92116
    A3        1.91772   0.00001   0.00000  -0.00109  -0.00109   1.91663
    A4        1.89697  -0.00000   0.00000   0.00103   0.00103   1.89800
    A5        1.89686  -0.00001   0.00000  -0.00104  -0.00104   1.89582
    A6        1.90138  -0.00000   0.00000   0.00000   0.00001   1.90138
    A7        1.91766  -0.00001   0.00000   0.00218   0.00218   1.91985
    A8        1.91578   0.00001   0.00000  -0.00174  -0.00174   1.91404
    A9        1.98045  -0.00000   0.00000  -0.00087  -0.00087   1.97958
   A10        1.90083   0.00000   0.00000   0.00003   0.00004   1.90086
   A11        1.88390   0.00002   0.00000   0.00142   0.00142   1.88532
   A12        1.86304  -0.00002   0.00000  -0.00105  -0.00105   1.86199
   A13        1.87391  -0.00002   0.00000  -0.00790  -0.00789   1.86602
   A14        1.88242   0.00002   0.00000   0.00707   0.00708   1.88950
   A15        1.71282   0.00000   0.00000   0.00060   0.00060   1.71342
   A16        2.17188   0.00000   0.00000   0.00025   0.00026   2.17214
   A17        1.90168   0.00000   0.00000   0.00219   0.00219   1.90387
   A18        1.86640  -0.00000   0.00000  -0.00202  -0.00203   1.86437
   A19        1.92214   0.00000   0.00000   0.00161   0.00161   1.92375
    D1        2.11214  -0.00002   0.00000  -0.19420  -0.19420   1.91794
    D2       -2.08118  -0.00002   0.00000  -0.19389  -0.19389  -2.27507
    D3        0.00147  -0.00004   0.00000  -0.19702  -0.19701  -0.19555
    D4       -2.07526  -0.00002   0.00000  -0.19221  -0.19221  -2.26747
    D5        0.01460  -0.00002   0.00000  -0.19190  -0.19190  -0.17729
    D6        2.09725  -0.00004   0.00000  -0.19502  -0.19502   1.90224
    D7        0.01746  -0.00002   0.00000  -0.19167  -0.19167  -0.17421
    D8        2.10733  -0.00002   0.00000  -0.19136  -0.19136   1.91597
    D9       -2.09321  -0.00004   0.00000  -0.19448  -0.19448  -2.28769
   D10       -1.16224   0.00000   0.00000   0.05208   0.05208  -1.11015
   D11        1.21710   0.00000   0.00000   0.05173   0.05173   1.26883
   D12       -3.13212   0.00001   0.00000   0.05173   0.05173  -3.08039
   D13        2.99139  -0.00000   0.00000   0.04886   0.04886   3.04025
   D14       -0.91246  -0.00000   0.00000   0.04851   0.04851  -0.86395
   D15        1.02150   0.00000   0.00000   0.04851   0.04851   1.07001
   D16        0.95033  -0.00000   0.00000   0.04865   0.04865   0.99898
   D17       -2.95352  -0.00000   0.00000   0.04830   0.04830  -2.90522
   D18       -1.01956   0.00000   0.00000   0.04830   0.04830  -0.97126
   D19        1.56653  -0.00001   0.00000  -0.01815  -0.01815   1.54838
   D20       -0.38107   0.00001   0.00000  -0.01038  -0.01038  -0.39145
   D21       -2.76974   0.00001   0.00000  -0.01083  -0.01083  -2.78057
         Item               Value     Threshold  Converged?
 Maximum Force            0.000041     0.000450     YES
 RMS     Force            0.000015     0.000300     YES
 Maximum Displacement     0.321380     0.001800     NO 
 RMS     Displacement     0.098111     0.001200     NO 
 Predicted change in Energy=-4.842112D-04
 Lowest energy point so far.  Saving SCF results.
 GradGradGradGradGradGradGradGradGradGradGradGradGradGradGradGradGradGrad

 Leave Link  103 at Fri May 23 03:39:41 2025, MaxMem=  3758096384 cpu:               0.0 elap:               0.0
 (Enter /apps/easybuild-2022/easybuild/software/Compiler/NVHPC/22.11-CUDA-11.7.0/Gaussian/g16c01-CUDA-11.7.0/g16/l202.exe)
                          Input orientation:                          
 ---------------------------------------------------------------------
 Center     Atomic      Atomic             Coordinates (Angstroms)
 Number     Number       Type             X           Y           Z
 ---------------------------------------------------------------------
      1          6           0       -1.262242   -0.304297    0.780717
      2          6           0       -0.418846    0.338525   -0.390454
      3          9           0       -0.884558   -0.072982   -1.564616
      4          9           0       -0.509550    1.672569   -0.331206
      5         16           0        1.406478   -0.080821   -0.311338
      6          8           0        1.915298    0.494359    0.903028
      7          8           0        1.567810   -1.448149   -0.686530
      8          8           0        1.897633    0.803106   -1.556227
      9          9           0       -0.538226   -1.203232    1.439532
     10          9           0       -1.650277    0.634872    1.629977
     11          9           0       -2.333941   -0.905256    0.284979
     12          1           0        2.118524    1.697345   -1.264429
 ---------------------------------------------------------------------
                    Distance matrix (angstroms):
                    1          2          3          4          5
     1  C    0.000000
     2  C    1.579930   0.000000
     3  F    2.386784   1.328489   0.000000
     4  F    2.389752   1.338436   2.169995   0.000000
     5  S    2.892160   1.874545   2.611439   2.597293   0.000000
     6  O    3.278654   2.673127   3.774962   2.965029   1.436807
     7  O    3.386799   2.688246   2.945544   3.765708   1.427019
     8  O    4.083192   2.634565   2.916880   2.837458   1.603842
     9  F    1.329030   2.395854   3.228361   3.377360   2.847319
    10  F    1.324331   2.384615   3.360478   2.494857   3.691161
    11  F    1.324932   2.381342   2.492868   3.217649   3.876341
    12  H    4.429308   3.008067   3.498953   2.788959   2.139455
                    6          7          8          9         10
     6  O    0.000000
     7  O    2.533926   0.000000
     8  O    2.478623   2.435837   0.000000
     9  F    3.031407   3.002585   4.351249   0.000000
    10  F    3.641637   4.478981   4.771568   2.156746   0.000000
    11  F    4.516296   4.057367   4.920849   2.155545   2.156017
    12  H    2.487237   3.245209   0.966231   4.773162   4.869322
                   11         12
    11  F    0.000000
    12  H    5.385038   0.000000
 Symmetry turned off by external request.
 Stoichiometry    C2HF5O3S
 Rotational constants (GHZ):           1.5863636           0.8176107           0.7721215
 Leave Link  202 at Fri May 23 03:39:41 2025, MaxMem=  3758096384 cpu:               0.0 elap:               0.0
 (Enter /apps/easybuild-2022/easybuild/software/Compiler/NVHPC/22.11-CUDA-11.7.0/Gaussian/g16c01-CUDA-11.7.0/g16/l301.exe)
 Standard basis: 6-311++G(d,p) (5D, 7F)
 Ernie: Thresh=  0.10000D-02 Tol=  0.10000D-05 Strict=F.
   257 basis functions,   419 primitive gaussians,   268 cartesian basis functions
    49 alpha electrons       49 beta electrons
       nuclear repulsion energy       921.3705649017 Hartrees.
 IExCor= 4639 DFT=T Ex+Corr=wB97XD ExCW=0 ScaHFX=  1.000000
 ScaDFX=  1.000000  1.000000  1.000000  1.000000 ScalE2=  1.000000  1.000000
 IRadAn=      5 IRanWt=     -1 IRanGd=            0 ICorTp=0 IEmpDi=121
 HFx  wShort=  0.000000 wLong=  0.200000 cFull=  0.222036 cShort=  0.000000 cLong=  0.777964
 DFx  wShort=  0.000000 wLong=  0.200000 cFull=  0.000000 cShort=  0.000000 cLong=  1.000000
 NAtoms=   12 NActive=   12 NUniq=   12 SFac= 1.00D+00 NAtFMM=   60 NAOKFM=F Big=F
 Integral buffers will be    131072 words long.
 Raffenetti 2 integral format.
 Two-electron integral symmetry is turned off.
 R6Disp:  Grimme-D2 Dispersion energy=       -0.0055150924 Hartrees.
 Nuclear repulsion after empirical dispersion term =      921.3650498092 Hartrees.
 Leave Link  301 at Fri May 23 03:39:41 2025, MaxMem=  3758096384 cpu:               0.0 elap:               0.0
 (Enter /apps/easybuild-2022/easybuild/software/Compiler/NVHPC/22.11-CUDA-11.7.0/Gaussian/g16c01-CUDA-11.7.0/g16/l302.exe)
 NPDir=0 NMtPBC=     1 NCelOv=     1 NCel=       1 NClECP=     1 NCelD=      1
         NCelK=      1 NCelE2=     1 NClLst=     1 CellRange=     0.0.
 One-electron integrals computed using PRISM.
 NBasis=   257 RedAO= T EigKep=  6.15D-05  NBF=   257
 NBsUse=   257 1.00D-06 EigRej= -1.00D+00 NBFU=   257
 Precomputing XC quadrature grid using
 IXCGrd= 4 IRadAn=           5 IRanWt=          -1 IRanGd=           0 AccXCQ= 0.00D+00.
 Generated NRdTot=       0 NPtTot=           0 NUsed=           0 NTot=          32
 NSgBfM=   268   268   268   268   268 MxSgAt=    12 MxSgA2=    12.
 Leave Link  302 at Fri May 23 03:39:41 2025, MaxMem=  3758096384 cpu:               0.5 elap:               0.1
 (Enter /apps/easybuild-2022/easybuild/software/Compiler/NVHPC/22.11-CUDA-11.7.0/Gaussian/g16c01-CUDA-11.7.0/g16/l303.exe)
 DipDrv:  MaxL=1.
 Leave Link  303 at Fri May 23 03:39:41 2025, MaxMem=  3758096384 cpu:               0.0 elap:               0.0
 (Enter /apps/easybuild-2022/easybuild/software/Compiler/NVHPC/22.11-CUDA-11.7.0/Gaussian/g16c01-CUDA-11.7.0/g16/l401.exe)
 Initial guess from the checkpoint file:  "2003846667223680600001_r12_insertion_R_6_5_8_IRC_R_prod.chk"
 B after Tr=     0.005393   -0.003024   -0.001391
         Rot=    0.999998    0.001101   -0.000259    0.001762 Ang=   0.24 deg.
 Guess basis will be translated and rotated to current coordinates.
 JPrj=2 DoOrth=T DoCkMO=T.
 Generating alternative initial guess.
 ExpMin= 3.60D-02 ExpMax= 9.34D+04 ExpMxC= 3.17D+03 IAcc=3 IRadAn=         5 AccDes= 0.00D+00
 Harris functional with IExCor= 4639 and IRadAn=       5 diagonalized for initial guess.
 HarFok:  IExCor= 4639 AccDes= 0.00D+00 IRadAn=         5 IDoV= 1 UseB2=F ITyADJ=14
 ICtDFT=  3500011 ScaDFX=  1.000000  1.000000  1.000000  1.000000
 FoFCou: FMM=F IPFlag=           0 FMFlag=      100000 FMFlg1=           0
         NFxFlg=           0 DoJE=T BraDBF=F KetDBF=T FulRan=T
         wScrn=  0.000000 ICntrl=       500 IOpCl=  0 I1Cent=   200000004 NGrid=           0
         NMat0=    1 NMatS0=      1 NMatT0=    0 NMatD0=    1 NMtDS0=    0 NMtDT0=    0
 Symmetry not used in FoFCou.
 Harris En= -1167.10006492716    
 Leave Link  401 at Fri May 23 03:39:42 2025, MaxMem=  3758096384 cpu:               2.5 elap:               0.4
 (Enter /apps/easybuild-2022/easybuild/software/Compiler/NVHPC/22.11-CUDA-11.7.0/Gaussian/g16c01-CUDA-11.7.0/g16/l502.exe)
 Keep R1 ints in memory in canonical form, NReq=1117474609.
 FoFCou: FMM=F IPFlag=           0 FMFlag=           0 FMFlg1=           0
         NFxFlg=           0 DoJE=F BraDBF=F KetDBF=F FulRan=T
         wScrn=  0.000000 ICntrl=       600 IOpCl=  0 I1Cent=           0 NGrid=           0
         NMat0=    1 NMatS0=  33153 NMatT0=    0 NMatD0=    1 NMtDS0=    0 NMtDT0=    0
 Symmetry not used in FoFCou.
 Two-electron integral symmetry not used.
 Closed shell SCF:
 Using DIIS extrapolation, IDIIS=  1040.
 NGot=  3758096384 LenX=  2658793876 LenY=  2658721611
 Requested convergence on RMS density matrix=1.00D-08 within  32 cycles.
 Requested convergence on MAX density matrix=1.00D-06.
 Requested convergence on             energy=1.00D-06.
 No special actions if energy rises.

 Cycle   1  Pass 1  IDiag  1:
 E= -1199.78409809081    
 DIIS: error= 7.09D-03 at cycle   1 NSaved=   1.
 NSaved= 1 IEnMin= 1 EnMin= -1199.78409809081     IErMin= 1 ErrMin= 7.09D-03
 ErrMax= 7.09D-03  0.00D+00 EMaxC= 1.00D-01 BMatC= 2.52D-02 BMatP= 2.52D-02
 IDIUse=3 WtCom= 9.29D-01 WtEn= 7.09D-02
 Coeff-Com:  0.100D+01
 Coeff-En:   0.100D+01
 Coeff:      0.100D+01
 Gap=     0.744 Goal=   None    Shift=    0.000
 GapD=    0.744 DampG=2.000 DampE=1.000 DampFc=2.0000 IDamp=-1.
 RMSDP=1.49D-03 MaxDP=4.74D-02              OVMax= 4.39D-02

 Cycle   2  Pass 1  IDiag  1:
 E= -1199.82059641182     Delta-E=       -0.036498321010 Rises=F Damp=F
 DIIS: error= 1.91D-03 at cycle   2 NSaved=   2.
 NSaved= 2 IEnMin= 2 EnMin= -1199.82059641182     IErMin= 2 ErrMin= 1.91D-03
 ErrMax= 1.91D-03  0.00D+00 EMaxC= 1.00D-01 BMatC= 1.07D-03 BMatP= 2.52D-02
 IDIUse=3 WtCom= 9.81D-01 WtEn= 1.91D-02
 Coeff-Com: -0.155D+00 0.116D+01
 Coeff-En:   0.000D+00 0.100D+01
 Coeff:     -0.153D+00 0.115D+01
 Gap=     0.467 Goal=   None    Shift=    0.000
 RMSDP=2.63D-04 MaxDP=4.80D-03 DE=-3.65D-02 OVMax= 1.23D-02

 Cycle   3  Pass 1  IDiag  1:
 E= -1199.82223398041     Delta-E=       -0.001637568590 Rises=F Damp=F
 DIIS: error= 1.46D-03 at cycle   3 NSaved=   3.
 NSaved= 3 IEnMin= 3 EnMin= -1199.82223398041     IErMin= 3 ErrMin= 1.46D-03
 ErrMax= 1.46D-03  0.00D+00 EMaxC= 1.00D-01 BMatC= 3.86D-04 BMatP= 1.07D-03
 IDIUse=3 WtCom= 9.85D-01 WtEn= 1.46D-02
 Coeff-Com: -0.871D-01 0.500D+00 0.587D+00
 Coeff-En:   0.000D+00 0.000D+00 0.100D+01
 Coeff:     -0.859D-01 0.492D+00 0.593D+00
 Gap=     0.467 Goal=   None    Shift=    0.000
 RMSDP=1.02D-04 MaxDP=6.32D-03 DE=-1.64D-03 OVMax= 2.79D-03

 Cycle   4  Pass 1  IDiag  1:
 E= -1199.82244544140     Delta-E=       -0.000211460986 Rises=F Damp=F
 DIIS: error= 3.72D-04 at cycle   4 NSaved=   4.
 NSaved= 4 IEnMin= 4 EnMin= -1199.82244544140     IErMin= 4 ErrMin= 3.72D-04
 ErrMax= 3.72D-04  0.00D+00 EMaxC= 1.00D-01 BMatC= 4.14D-05 BMatP= 3.86D-04
 IDIUse=3 WtCom= 9.96D-01 WtEn= 3.72D-03
 Coeff-Com: -0.493D-04-0.376D-01 0.227D+00 0.811D+00
 Coeff-En:   0.000D+00 0.000D+00 0.000D+00 0.100D+01
 Coeff:     -0.491D-04-0.375D-01 0.226D+00 0.811D+00
 Gap=     0.467 Goal=   None    Shift=    0.000
 RMSDP=4.37D-05 MaxDP=2.69D-03 DE=-2.11D-04 OVMax= 1.41D-03

 Cycle   5  Pass 1  IDiag  1:
 E= -1199.82247231152     Delta-E=       -0.000026870119 Rises=F Damp=F
 DIIS: error= 1.31D-04 at cycle   5 NSaved=   5.
 NSaved= 5 IEnMin= 5 EnMin= -1199.82247231152     IErMin= 5 ErrMin= 1.31D-04
 ErrMax= 1.31D-04  0.00D+00 EMaxC= 1.00D-01 BMatC= 6.31D-06 BMatP= 4.14D-05
 IDIUse=3 WtCom= 9.99D-01 WtEn= 1.31D-03
 Coeff-Com:  0.459D-02-0.485D-01 0.939D-01 0.453D+00 0.497D+00
 Coeff-En:   0.000D+00 0.000D+00 0.000D+00 0.000D+00 0.100D+01
 Coeff:      0.459D-02-0.485D-01 0.938D-01 0.453D+00 0.497D+00
 Gap=     0.467 Goal=   None    Shift=    0.000
 RMSDP=1.57D-05 MaxDP=1.05D-03 DE=-2.69D-05 OVMax= 5.57D-04

 Cycle   6  Pass 1  IDiag  1:
 E= -1199.82247652078     Delta-E=       -0.000004209267 Rises=F Damp=F
 DIIS: error= 1.92D-05 at cycle   6 NSaved=   6.
 NSaved= 6 IEnMin= 6 EnMin= -1199.82247652078     IErMin= 6 ErrMin= 1.92D-05
 ErrMax= 1.92D-05  0.00D+00 EMaxC= 1.00D-01 BMatC= 1.89D-07 BMatP= 6.31D-06
 IDIUse=1 WtCom= 1.00D+00 WtEn= 0.00D+00
 Coeff-Com:  0.166D-02-0.129D-01-0.460D-02 0.332D-01 0.149D+00 0.833D+00
 Coeff:      0.166D-02-0.129D-01-0.460D-02 0.332D-01 0.149D+00 0.833D+00
 Gap=     0.467 Goal=   None    Shift=    0.000
 RMSDP=3.75D-06 MaxDP=8.19D-05 DE=-4.21D-06 OVMax= 1.28D-04

 Cycle   7  Pass 1  IDiag  1:
 E= -1199.82247669329     Delta-E=       -0.000000172507 Rises=F Damp=F
 DIIS: error= 6.98D-06 at cycle   7 NSaved=   7.
 NSaved= 7 IEnMin= 7 EnMin= -1199.82247669329     IErMin= 7 ErrMin= 6.98D-06
 ErrMax= 6.98D-06  0.00D+00 EMaxC= 1.00D-01 BMatC= 2.21D-08 BMatP= 1.89D-07
 IDIUse=1 WtCom= 1.00D+00 WtEn= 0.00D+00
 Coeff-Com:  0.438D-03-0.254D-02-0.683D-02-0.113D-01 0.311D-01 0.329D+00
 Coeff-Com:  0.660D+00
 Coeff:      0.438D-03-0.254D-02-0.683D-02-0.113D-01 0.311D-01 0.329D+00
 Coeff:      0.660D+00
 Gap=     0.467 Goal=   None    Shift=    0.000
 RMSDP=1.52D-06 MaxDP=9.46D-05 DE=-1.73D-07 OVMax= 4.30D-05

 Cycle   8  Pass 1  IDiag  1:
 E= -1199.82247671062     Delta-E=       -0.000000017329 Rises=F Damp=F
 DIIS: error= 2.89D-06 at cycle   8 NSaved=   8.
 NSaved= 8 IEnMin= 8 EnMin= -1199.82247671062     IErMin= 8 ErrMin= 2.89D-06
 ErrMax= 2.89D-06  0.00D+00 EMaxC= 1.00D-01 BMatC= 4.07D-09 BMatP= 2.21D-08
 IDIUse=1 WtCom= 1.00D+00 WtEn= 0.00D+00
 Coeff-Com: -0.160D-03 0.164D-02-0.127D-02-0.998D-02-0.185D-01-0.488D-01
 Coeff-Com:  0.288D+00 0.789D+00
 Coeff:     -0.160D-03 0.164D-02-0.127D-02-0.998D-02-0.185D-01-0.488D-01
 Coeff:      0.288D+00 0.789D+00
 Gap=     0.467 Goal=   None    Shift=    0.000
 RMSDP=6.25D-07 MaxDP=1.97D-05 DE=-1.73D-08 OVMax= 2.15D-05

 Cycle   9  Pass 1  IDiag  1:
 E= -1199.82247671445     Delta-E=       -0.000000003827 Rises=F Damp=F
 DIIS: error= 9.21D-07 at cycle   9 NSaved=   9.
 NSaved= 9 IEnMin= 9 EnMin= -1199.82247671445     IErMin= 9 ErrMin= 9.21D-07
 ErrMax= 9.21D-07  0.00D+00 EMaxC= 1.00D-01 BMatC= 2.64D-10 BMatP= 4.07D-09
 IDIUse=1 WtCom= 1.00D+00 WtEn= 0.00D+00
 Coeff-Com: -0.845D-04 0.764D-03-0.129D-03-0.320D-02-0.888D-02-0.370D-01
 Coeff-Com:  0.779D-01 0.302D+00 0.668D+00
 Coeff:     -0.845D-04 0.764D-03-0.129D-03-0.320D-02-0.888D-02-0.370D-01
 Coeff:      0.779D-01 0.302D+00 0.668D+00
 Gap=     0.467 Goal=   None    Shift=    0.000
 RMSDP=1.80D-07 MaxDP=9.95D-06 DE=-3.83D-09 OVMax= 5.88D-06

 Cycle  10  Pass 1  IDiag  1:
 E= -1199.82247671469     Delta-E=       -0.000000000246 Rises=F Damp=F
 DIIS: error= 3.72D-07 at cycle  10 NSaved=  10.
 NSaved=10 IEnMin=10 EnMin= -1199.82247671469     IErMin=10 ErrMin= 3.72D-07
 ErrMax= 3.72D-07  0.00D+00 EMaxC= 1.00D-01 BMatC= 5.16D-11 BMatP= 2.64D-10
 IDIUse=1 WtCom= 1.00D+00 WtEn= 0.00D+00
 Coeff-Com: -0.471D-06-0.433D-04 0.235D-03 0.880D-03 0.281D-03-0.549D-02
 Coeff-Com: -0.327D-01-0.495D-01 0.285D+00 0.802D+00
 Coeff:     -0.471D-06-0.433D-04 0.235D-03 0.880D-03 0.281D-03-0.549D-02
 Coeff:     -0.327D-01-0.495D-01 0.285D+00 0.802D+00
 Gap=     0.467 Goal=   None    Shift=    0.000
 RMSDP=9.94D-08 MaxDP=3.13D-06 DE=-2.46D-10 OVMax= 3.41D-06

 Cycle  11  Pass 1  IDiag  1:
 E= -1199.82247671474     Delta-E=       -0.000000000047 Rises=F Damp=F
 DIIS: error= 9.98D-08 at cycle  11 NSaved=  11.
 NSaved=11 IEnMin=11 EnMin= -1199.82247671474     IErMin=11 ErrMin= 9.98D-08
 ErrMax= 9.98D-08  0.00D+00 EMaxC= 1.00D-01 BMatC= 6.28D-12 BMatP= 5.16D-11
 IDIUse=1 WtCom= 1.00D+00 WtEn= 0.00D+00
 Coeff-Com:  0.815D-05-0.953D-04 0.116D-03 0.697D-03 0.101D-02 0.129D-02
 Coeff-Com: -0.225D-01-0.517D-01 0.593D-01 0.355D+00 0.657D+00
 Coeff:      0.815D-05-0.953D-04 0.116D-03 0.697D-03 0.101D-02 0.129D-02
 Coeff:     -0.225D-01-0.517D-01 0.593D-01 0.355D+00 0.657D+00
 Gap=     0.467 Goal=   None    Shift=    0.000
 RMSDP=2.76D-08 MaxDP=1.24D-06 DE=-4.73D-11 OVMax= 9.87D-07

 Cycle  12  Pass 1  IDiag  1:
 E= -1199.82247671471     Delta-E=        0.000000000033 Rises=F Damp=F
 DIIS: error= 2.63D-08 at cycle  12 NSaved=  12.
 NSaved=12 IEnMin=11 EnMin= -1199.82247671474     IErMin=12 ErrMin= 2.63D-08
 ErrMax= 2.63D-08  0.00D+00 EMaxC= 1.00D-01 BMatC= 2.65D-13 BMatP= 6.28D-12
 IDIUse=1 WtCom= 1.00D+00 WtEn= 0.00D+00
 Coeff-Com:  0.149D-05-0.124D-04-0.619D-05 0.315D-04 0.164D-03 0.899D-03
 Coeff-Com: -0.618D-03-0.444D-02-0.179D-01-0.179D-01 0.123D+00 0.917D+00
 Coeff:      0.149D-05-0.124D-04-0.619D-05 0.315D-04 0.164D-03 0.899D-03
 Coeff:     -0.618D-03-0.444D-02-0.179D-01-0.179D-01 0.123D+00 0.917D+00
 Gap=     0.467 Goal=   None    Shift=    0.000
 RMSDP=1.12D-08 MaxDP=3.40D-07 DE= 3.27D-11 OVMax= 3.08D-07

 Cycle  13  Pass 1  IDiag  1:
 E= -1199.82247671471     Delta-E=        0.000000000001 Rises=F Damp=F
 DIIS: error= 1.12D-08 at cycle  13 NSaved=  13.
 NSaved=13 IEnMin=11 EnMin= -1199.82247671474     IErMin=13 ErrMin= 1.12D-08
 ErrMax= 1.12D-08  0.00D+00 EMaxC= 1.00D-01 BMatC= 5.44D-14 BMatP= 2.65D-13
 IDIUse=1 WtCom= 1.00D+00 WtEn= 0.00D+00
 Coeff-Com: -0.360D-06 0.592D-05-0.158D-04-0.652D-04-0.436D-04 0.237D-03
 Coeff-Com:  0.219D-02 0.374D-02-0.139D-01-0.450D-01-0.227D-01 0.357D+00
 Coeff-Com:  0.718D+00
 Coeff:     -0.360D-06 0.592D-05-0.158D-04-0.652D-04-0.436D-04 0.237D-03
 Coeff:      0.219D-02 0.374D-02-0.139D-01-0.450D-01-0.227D-01 0.357D+00
 Coeff:      0.718D+00
 Gap=     0.467 Goal=   None    Shift=    0.000
 RMSDP=3.16D-09 MaxDP=9.48D-08 DE= 9.09D-13 OVMax= 8.44D-08

 SCF Done:  E(RwB97XD) =  -1199.82247671     A.U. after   13 cycles
            NFock= 13  Conv=0.32D-08     -V/T= 2.0020
 KE= 1.197416620503D+03 PE=-4.689371033223D+03 EE= 1.370766886196D+03
 Leave Link  502 at Fri May 23 03:39:53 2025, MaxMem=  3758096384 cpu:              59.7 elap:              11.9
 (Enter /apps/easybuild-2022/easybuild/software/Compiler/NVHPC/22.11-CUDA-11.7.0/Gaussian/g16c01-CUDA-11.7.0/g16/l508.exe)
 QCSCF skips out because SCF is already converged.
 Leave Link  508 at Fri May 23 03:39:53 2025, MaxMem=  3758096384 cpu:               0.0 elap:               0.0
 (Enter /apps/easybuild-2022/easybuild/software/Compiler/NVHPC/22.11-CUDA-11.7.0/Gaussian/g16c01-CUDA-11.7.0/g16/l701.exe)
 ... and contract with generalized density number  0.
 Compute integral first derivatives.
 R6Disp: Adding Grimme-D2 dispersion energy 1st derivatives to the gradient.
 Leave Link  701 at Fri May 23 03:39:54 2025, MaxMem=  3758096384 cpu:               0.3 elap:               0.1
 (Enter /apps/easybuild-2022/easybuild/software/Compiler/NVHPC/22.11-CUDA-11.7.0/Gaussian/g16c01-CUDA-11.7.0/g16/l702.exe)
 L702 exits ... SP integral derivatives will be done elsewhere.
 Leave Link  702 at Fri May 23 03:39:54 2025, MaxMem=  3758096384 cpu:               0.0 elap:               0.0
 (Enter /apps/easybuild-2022/easybuild/software/Compiler/NVHPC/22.11-CUDA-11.7.0/Gaussian/g16c01-CUDA-11.7.0/g16/l703.exe)
 Integral derivatives from FoFJK, PRISM(SPDF).
 Compute integral first derivatives, UseDBF=F ICtDFT=           0.
 Calling FoFJK, ICntrl=      2127 FMM=F ISym2X=0 I1Cent= 0 IOpClX= 0 NMat=1 NMatS=1 NMatT=0.
 FoFJK:  IHMeth= 1 ICntrl=    2127 DoSepK=T KAlg= 0 I1Cent=           0 FoldK=F
 IRaf=         1 NMat=       1 IRICut=       1 DoRegI=T DoRafI=F ISym2E= 0 IDoP0=0 IntGTp=1.
 FoFCou: FMM=F IPFlag=           0 FMFlag=      100000 FMFlg1=         800
         NFxFlg=           0 DoJE=F BraDBF=F KetDBF=F FulRan=T
         wScrn=  0.000000 ICntrl=      2527 IOpCl=  0 I1Cent=           0 NGrid=           0
         NMat0=    1 NMatS0=      1 NMatT0=    0 NMatD0=    1 NMtDS0=    0 NMtDT0=    0
 Symmetry not used in FoFCou.
 Leave Link  703 at Fri May 23 03:39:58 2025, MaxMem=  3758096384 cpu:              34.4 elap:               4.4
 (Enter /apps/easybuild-2022/easybuild/software/Compiler/NVHPC/22.11-CUDA-11.7.0/Gaussian/g16c01-CUDA-11.7.0/g16/l716.exe)
 Dipole        =-1.51529782D-01 1.01755182D+00-3.21056468D-01
 -------------------------------------------------------------------
 Center     Atomic                   Forces (Hartrees/Bohr)
 Number     Number              X              Y              Z
 -------------------------------------------------------------------
      1        6           0.000512794    0.000284587   -0.000155112
      2        6          -0.000197891   -0.000176679    0.000522051
      3        9           0.000056048   -0.000731412    0.000104816
      4        9          -0.000638267    0.000015953   -0.000257928
      5       16          -0.000055310    0.000479851    0.000359790
      6        8          -0.000038177   -0.000267062    0.000041419
      7        8           0.000035135   -0.000036423   -0.000049965
      8        8           0.000103763    0.000075448    0.000092078
      9        9          -0.000017749   -0.000350357   -0.000525051
     10        9           0.000568925    0.000162116    0.000116340
     11        9          -0.000275758    0.000526023   -0.000241437
     12        1          -0.000053514    0.000017956   -0.000007000
 -------------------------------------------------------------------
 Cartesian Forces:  Max     0.000731412 RMS     0.000306319
 Leave Link  716 at Fri May 23 03:39:58 2025, MaxMem=  3758096384 cpu:               0.0 elap:               0.0
 (Enter /apps/easybuild-2022/easybuild/software/Compiler/NVHPC/22.11-CUDA-11.7.0/Gaussian/g16c01-CUDA-11.7.0/g16/l103.exe)

 GradGradGradGradGradGradGradGradGradGradGradGradGradGradGradGradGradGrad
 Berny optimization.
 Using GEDIIS/GDIIS optimizer.
 FormGI is forming the generalized inverse of G from B-inverse, IUseBI=4.
 Internal  Forces:  Max     0.001270341 RMS     0.000306398
 Search for a local minimum.
 Step number   2 out of a maximum of   61
 All quantities printed in internal units (Hartrees-Bohrs-Radians)
 RMS Force = .30640D-03 SwitMx=.10000D-02 MixMth= 2
 Mixed Optimization -- En-DIIS/RFO-DIIS
 Swapping is turned off.
 Update second derivatives using D2CorX and points    1    2
 ITU=  0  0
     Eigenvalues ---   -0.00217   0.00396   0.00632   0.04972   0.08594
     Eigenvalues ---    0.09743   0.10645   0.11097   0.11614   0.12591
     Eigenvalues ---    0.12745   0.16009   0.18229   0.19285   0.19564
     Eigenvalues ---    0.21599   0.23744   0.27106   0.27221   0.29535
     Eigenvalues ---    0.32320   0.37230   0.38771   0.39110   0.41484
     Eigenvalues ---    0.48610   0.52898   0.57011   0.68772   0.71569
 Eigenvalue     1 is  -2.17D-03 should be greater than     0.000000 Eigenvector:
                          D3        D6        D9        D1        D2
   1                   -0.32742  -0.32337  -0.32335  -0.32295  -0.32272
                          D4        D7        D5        D8        D10
   1                   -0.31890  -0.31889  -0.31866  -0.31865   0.09092
 Use linear search instead of GDIIS.
 RFO step:  Lambda=-2.84870176D-03 EMin=-2.17417984D-03
 Skip linear search -- no minimum in search direction.
 Iteration  1 RMS(Cart)=  0.10296628 RMS(Int)=  0.01888456
 Iteration  2 RMS(Cart)=  0.02316250 RMS(Int)=  0.00036660
 Iteration  3 RMS(Cart)=  0.00038553 RMS(Int)=  0.00000493
 Iteration  4 RMS(Cart)=  0.00000009 RMS(Int)=  0.00000493
 ITry= 1 IFail=0 DXMaxC= 4.22D-01 DCOld= 1.00D+10 DXMaxT= 3.00D-01 DXLimC= 3.00D+00 Rises=F
 Variable       Old X    -DE/DX   Delta X   Delta X   Delta X     New X
                                 (Linear)    (Quad)   (Total)
    R1        2.98563  -0.00127   0.00000  -0.00873  -0.00873   2.97691
    R2        2.51150  -0.00003   0.00000  -0.00021  -0.00021   2.51129
    R3        2.50262   0.00003   0.00000  -0.00131  -0.00131   2.50131
    R4        2.50376   0.00007   0.00000   0.00234   0.00234   2.50610
    R5        2.51048   0.00011   0.00000  -0.00060  -0.00060   2.50988
    R6        2.52928   0.00005   0.00000   0.00184   0.00184   2.53112
    R7        3.54238  -0.00005   0.00000  -0.00112  -0.00112   3.54126
    R8        2.71517  -0.00009   0.00000   0.00077   0.00077   2.71594
    R9        2.69667   0.00005   0.00000  -0.00096  -0.00096   2.69571
   R10        3.03082   0.00000   0.00000  -0.00057  -0.00057   3.03026
   R11        1.82591  -0.00000   0.00000   0.00007   0.00007   1.82598
    A1        1.93034  -0.00025   0.00000  -0.00087  -0.00087   1.92947
    A2        1.92116  -0.00041   0.00000   0.00066   0.00066   1.92182
    A3        1.91663  -0.00037   0.00000  -0.00301  -0.00302   1.91361
    A4        1.89800   0.00037   0.00000   0.00284   0.00284   1.90084
    A5        1.89582   0.00033   0.00000  -0.00035  -0.00035   1.89547
    A6        1.90138   0.00036   0.00000   0.00080   0.00080   1.90218
    A7        1.91985  -0.00010   0.00000   0.00163   0.00163   1.92148
    A8        1.91404  -0.00014   0.00000  -0.00351  -0.00351   1.91053
    A9        1.97958  -0.00034   0.00000  -0.00411  -0.00411   1.97547
   A10        1.90086   0.00004   0.00000   0.00096   0.00095   1.90182
   A11        1.88532   0.00029   0.00000   0.00402   0.00402   1.88934
   A12        1.86199   0.00028   0.00000   0.00124   0.00123   1.86321
   A13        1.86602   0.00002   0.00000  -0.00911  -0.00911   1.85691
   A14        1.88950  -0.00000   0.00000   0.00788   0.00788   1.89739
   A15        1.71342   0.00006   0.00000   0.00201   0.00200   1.71543
   A16        2.17214  -0.00010   0.00000  -0.00124  -0.00123   2.17091
   A17        1.90387   0.00002   0.00000   0.00316   0.00316   1.90703
   A18        1.86437   0.00003   0.00000  -0.00178  -0.00179   1.86258
[...]
   D17       -2.81822   0.00000   0.00000   0.00008   0.00008  -2.81814
   D18       -0.88339   0.00000   0.00000   0.00008   0.00008  -0.88332
   D19        1.52619   0.00000   0.00000  -0.00003  -0.00003   1.52616
   D20       -0.42070  -0.00000   0.00000  -0.00003  -0.00003  -0.42074
   D21       -2.80345  -0.00000   0.00000  -0.00003  -0.00003  -2.80349
         Item               Value     Threshold  Converged?
 Maximum Force            0.000001     0.000450     YES
 RMS     Force            0.000000     0.000300     YES
 Maximum Displacement     0.000201     0.001800     YES
 RMS     Displacement     0.000069     0.001200     YES
 Predicted change in Energy=-8.008100D-11
 Optimization completed.
    -- Stationary point found.
                           ----------------------------
                           !   Optimized Parameters   !
                           ! (Angstroms and Degrees)  !
 --------------------------                            --------------------------
 ! Name  Definition              Value          Derivative Info.                !
 --------------------------------------------------------------------------------
 ! R1    R(1,2)                  1.5553         -DE/DX =    0.0                 !
 ! R2    R(1,9)                  1.327          -DE/DX =    0.0                 !
 ! R3    R(1,10)                 1.3243         -DE/DX =    0.0                 !
 ! R4    R(1,11)                 1.3293         -DE/DX =    0.0                 !
 ! R5    R(2,3)                  1.3301         -DE/DX =    0.0                 !
 ! R6    R(2,4)                  1.3406         -DE/DX =    0.0                 !
 ! R7    R(2,5)                  1.8759         -DE/DX =    0.0                 !
 ! R8    R(5,6)                  1.4362         -DE/DX =    0.0                 !
 ! R9    R(5,7)                  1.4266         -DE/DX =    0.0                 !
 ! R10   R(5,8)                  1.603          -DE/DX =    0.0                 !
 ! R11   R(8,12)                 0.9663         -DE/DX =    0.0                 !
 ! A1    A(2,1,9)              110.1435         -DE/DX =    0.0                 !
 ! A2    A(2,1,10)             110.6322         -DE/DX =    0.0                 !
 ! A3    A(2,1,11)             108.7802         -DE/DX =    0.0                 !
 ! A4    A(9,1,10)             109.3553         -DE/DX =    0.0                 !
 ! A5    A(9,1,11)             109.0086         -DE/DX =    0.0                 !
 ! A6    A(10,1,11)            108.888          -DE/DX =    0.0                 !
 ! A7    A(1,2,3)              109.279          -DE/DX =    0.0                 !
 ! A8    A(1,2,4)              108.8271         -DE/DX =    0.0                 !
 ! A9    A(1,2,5)              113.9016         -DE/DX =    0.0                 !
 ! A10   A(3,2,4)              109.3115         -DE/DX =    0.0                 !
 ! A11   A(3,2,5)              108.1228         -DE/DX =    0.0                 !
 ! A12   A(4,2,5)              107.3125         -DE/DX =    0.0                 !
 ! A13   A(2,5,6)              107.1924         -DE/DX =    0.0                 !
 ! A14   A(2,5,7)              108.1911         -DE/DX =    0.0                 !
 ! A15   A(2,5,8)               98.2349         -DE/DX =    0.0                 !
 ! A16   A(6,5,7)              124.0033         -DE/DX =    0.0                 !
 ! A17   A(6,5,8)              109.3351         -DE/DX =    0.0                 !
 ! A18   A(7,5,8)              106.8606         -DE/DX =    0.0                 !
 ! A19   A(5,8,12)             110.4098         -DE/DX =    0.0                 !
 ! D1    D(9,1,2,3)             67.7017         -DE/DX =    0.0                 !
 ! D2    D(9,1,2,4)           -172.9961         -DE/DX =    0.0                 !
 ! D3    D(9,1,2,5)            -53.3265         -DE/DX =    0.0                 !
 ! D4    D(10,1,2,3)          -171.2794         -DE/DX =    0.0                 !
 ! D5    D(10,1,2,4)           -51.9771         -DE/DX =    0.0                 !
 ! D6    D(10,1,2,5)            67.6925         -DE/DX =    0.0                 !
 ! D7    D(11,1,2,3)           -51.7159         -DE/DX =    0.0                 !
 ! D8    D(11,1,2,4)            67.5863         -DE/DX =    0.0                 !
 ! D9    D(11,1,2,5)          -172.744          -DE/DX =    0.0                 !
 ! D10   D(1,2,5,6)            -57.873          -DE/DX =    0.0                 !
 ! D11   D(1,2,5,7)             78.0057         -DE/DX =    0.0                 !
 ! D12   D(1,2,5,8)           -171.137          -DE/DX =    0.0                 !
 ! D13   D(3,2,5,6)           -179.5436         -DE/DX =    0.0                 !
 ! D14   D(3,2,5,7)            -43.6649         -DE/DX =    0.0                 !
 ! D15   D(3,2,5,8)             67.1924         -DE/DX =    0.0                 !
 ! D16   D(4,2,5,6)             62.6493         -DE/DX =    0.0                 !
 ! D17   D(4,2,5,7)           -161.472          -DE/DX =    0.0                 !
 ! D18   D(4,2,5,8)            -50.6147         -DE/DX =    0.0                 !
 ! D19   D(2,5,8,12)            87.4442         -DE/DX =    0.0                 !
 ! D20   D(6,5,8,12)           -24.1046         -DE/DX =    0.0                 !
 ! D21   D(7,5,8,12)          -160.6261         -DE/DX =    0.0                 !
 --------------------------------------------------------------------------------
 GradGradGradGradGradGradGradGradGradGradGradGradGradGradGradGradGradGrad

 Leave Link  103 at Fri May 23 03:43:55 2025, MaxMem=  3758096384 cpu:               0.1 elap:               0.0
 (Enter /apps/easybuild-2022/easybuild/software/Compiler/NVHPC/22.11-CUDA-11.7.0/Gaussian/g16c01-CUDA-11.7.0/g16/l9999.exe)

 ----------------------------------------------------------------------

 Electric dipole moment (input orientation):
 (Debye = 10**-18 statcoulomb cm , SI units = C m)
                  (au)            (Debye)         (10**-30 SI)
   Tot        0.107975D+01      0.274444D+01      0.915448D+01
   x         -0.204556D+00     -0.519930D+00     -0.173430D+01
   y          0.989293D+00      0.251453D+01      0.838757D+01
   z         -0.381196D+00     -0.968904D+00     -0.323192D+01

 Dipole polarizability, Alpha (input orientation).
 (esu units = cm**3 , SI units = C**2 m**2 J**-1)
 Alpha(0;0):
               (au)            (10**-24 esu)      (10**-40 SI)
   iso        0.557061D+02      0.825479D+01      0.918470D+01
   aniso      0.562338D+01      0.833300D+00      0.927171D+00
   xx         0.587290D+02      0.870274D+01      0.968311D+01
   yx         0.506473D+00      0.750515D-01      0.835061D-01
   yy         0.555182D+02      0.822695D+01      0.915372D+01
   zx        -0.843518D+00     -0.124996D+00     -0.139077D+00
   zy         0.983553D+00      0.145747D+00      0.162166D+00
   zz         0.528711D+02      0.783468D+01      0.871726D+01

 ----------------------------------------------------------------------

 Dipole orientation:
     6         -2.64164596         -0.79791953         -0.60412055
     6         -0.55781093          0.70502406          0.82320498
     9         -1.00411640          3.16763847          0.59059468
     9         -0.62521496          0.06926104          3.27449932
    16          2.72819317          0.06496555         -0.34264940
     8          3.16226631         -2.60260070         -0.09398209
     8          3.09366610          1.44522158         -2.62943382
     8          4.25137421          1.53523744          1.82402278
     9         -2.43631197         -0.42451584         -3.07539444
     9         -2.45407681         -3.24528817         -0.11670471
     9         -4.89220597          0.01362370          0.16176971
     1          4.55830374          0.43257941          3.24680101

 Electric dipole moment (dipole orientation):
 (Debye = 10**-18 statcoulomb cm , SI units = C m)
                  (au)            (Debye)         (10**-30 SI)
   Tot        0.107975D+01      0.274444D+01      0.915448D+01
   x          0.000000D+00      0.000000D+00      0.000000D+00
   y          0.000000D+00      0.000000D+00      0.000000D+00
   z          0.107975D+01      0.274444D+01      0.915448D+01

 Dipole polarizability, Alpha (dipole orientation).
 (esu units = cm**3 , SI units = C**2 m**2 J**-1)
 Alpha(0;0):
               (au)            (10**-24 esu)      (10**-40 SI)
   iso        0.557061D+02      0.825479D+01      0.918470D+01
   aniso      0.562338D+01      0.833300D+00      0.927171D+00
   xx         0.588558D+02      0.872152D+01      0.970400D+01
   yx        -0.368970D+00     -0.546757D-01     -0.608349D-01
   yy         0.538840D+02      0.798478D+01      0.888427D+01
   zx        -0.285419D+00     -0.422947D-01     -0.470592D-01
   zy        -0.167982D+01     -0.248924D+00     -0.276965D+00
   zz         0.543786D+02      0.805807D+01      0.896581D+01

 ----------------------------------------------------------------------
 Unable to Open any file for archive entry.
 1\1\GINC-SPARTAN-BM169\Freq\RwB97XD\6-311++G(d,p)\C2H1F5O3S1\AKHALILOV
 \23-May-2025\0\\#P Geom=AllCheck Guess=TCheck SCRF=Check GenChk RwB97X
 D/6-311++G(d,p) Freq\\Gaussian input prepared by ASE\\0,1\C,-1.2460861
 408,-0.3119685529,0.7645607334\C,-0.4177402767,0.219649649,-0.43969923
 77\F,-0.7915089361,-0.4180661985,-1.5454886052\F,-0.6550496764,1.53127
 2817,-0.5826498393\S,1.4353431593,0.0060264268,-0.2409901286\O,1.81511
 41711,0.6918634033,0.9623958467\O,1.7591664076,-1.3551377879,-0.519620
 0194\O,1.9029707114,0.8646155023,-1.5113288579\F,-0.9179098102,-1.5712
 179874,1.0246201139\F,-1.0321826779,0.4286618074,1.8412937911\F,-2.537
 3149865,-0.2564178671,0.4536248278\H,1.9933020553,1.7967587879,-1.2732
 856246\\Version=ES64L-G16RevC.01\HF=-1199.8260443\RMSD=2.770e-09\RMSF=
 8.588e-07\ZeroPoint=0.051825\Thermal=0.0622753\ETot=-1199.7637689\HTot
 =-1199.7628247\GTot=-1199.8115321\Dipole=-0.2045564,0.9892927,-0.38119
 61\DipoleDeriv=1.7235998,-0.0595617,0.1186755,0.0801342,1.5922996,0.04
 97186,-0.1833685,0.0653429,1.4918714,0.8574466,-0.0583329,0.1952988,-0
 .1417646,1.0942749,0.143027,0.3809264,0.1379382,0.8594577,-0.4599141,-
 0.1257766,-0.1944623,-0.1370134,-0.3552025,-0.1904747,-0.2762136,-0.27
 50333,-0.7138295,-0.4268207,0.1679318,-0.0047117,0.2541364,-0.8712542,
 0.0577069,-0.0292784,0.1405141,-0.2694323,1.8995788,0.0838193,-0.11433
 08,0.0722761,2.2048739,-0.0252134,-0.0498789,-0.065102,2.1368729,-0.73
 43424,-0.0800049,-0.1621906,-0.1437121,-0.6697762,-0.2704981,-0.220313
 4,-0.1273269,-0.9468934,-0.707933,0.1647474,0.0280849,0.2561644,-0.990
 7567,-0.0638333,0.0478889,-0.1534057,-0.5190309,-0.7356709,-0.1793234,
 0.1935738,-0.303714,-0.8197148,0.4727726,0.2926562,0.385959,-0.8750993
 ,-0.3563374,0.0709943,0.0226314,0.1025451,-0.826996,0.1269515,0.026038
 9,0.1867078,-0.3364124,-0.3295364,-0.0393691,0.0092787,-0.0659043,-0.4
 463473,-0.2270119,0.0015598,-0.2865178,-0.740481,-1.0925205,0.0078936,
 -0.0948911,-0.0437845,-0.2814308,0.0284959,-0.0036778,0.0273309,-0.345
 3438,0.3624502,0.046982,0.0030434,0.0706367,0.3700301,-0.1016411,0.013
 6604,-0.0364073,0.2583207\Polar=58.7290278,0.5064729,55.5182041,-0.843
 518,0.9835527,52.8710665\PG=Unknown\NImag=0\\0.55764018,0.00610868,0.5
 6593119,-0.01481241,-0.00242369,0.57848258,-0.09929678,-0.01409044,0.0
 3740286,0.43209949,-0.03120296,-0.05575818,0.03917894,0.00850766,0.517
 01089,0.07172694,0.03688548,-0.12264955,0.00907990,-0.00523788,0.54528
 435,0.00261693,0.00262468,0.00768520,-0.09394344,-0.03188455,-0.068952
 93,0.09127971,-0.00028002,-0.00079143,-0.00414798,-0.02910630,-0.10505
 372,-0.08656501,0.04574692,0.15487616,-0.02433813,-0.03081523,-0.03824
 101,-0.05615787,-0.07545603,-0.25961134,0.08206803,0.14219705,0.315944
 58,0.00460348,-0.01169382,0.00186295,-0.08112512,0.05093754,-0.0084453
 1,0.01233252,-0.01241988,0.00023450,0.07404561,0.01620787,-0.04210406,
 -0.00110432,0.03944888,-0.27248986,0.05407621,-0.00287148,-0.05708376,
 -0.03321908,-0.05718219,0.38867167,-0.01219330,0.02732251,0.00061171,-
 0.00668550,0.04219768,-0.08100965,0.00431054,-0.04798716,0.00408111,0.
 00762363,-0.03360623,0.07742459,-0.02076460,-0.00896586,0.02599224,-0.
 14486107,0.02071613,-0.02349758,-0.00333197,-0.00032491,-0.00020174,-0
 .00111110,-0.00383146,0.00231969,0.50531509,-0.01035560,0.02595766,-0.
 00159932,-0.00162456,-0.02875042,0.00945882,-0.01626169,-0.00668911,-0
 .01565120,0.03527442,-0.03674875,0.00789508,-0.03638444,1.04988206,0.0
 2620639,-0.00131956,0.02633023,0.01537463,0.00679936,-0.04286067,-0.03
 557168,-0.00970162,-0.02479082,-0.00511418,0.00335196,-0.00140626,0.06
 253512,0.26839916,0.80167710,0.00382826,0.00481685,-0.00341286,0.01620
 713,-0.01448920,-0.01471657,-0.01172501,-0.00310560,-0.00797874,-0.002
 48944,0.00420255,-0.00023555,-0.13581649,-0.07503102,-0.13425102,0.099
 77362,0.00113535,-0.00439300,-0.00369636,0.00959967,-0.00316664,-0.003
 31611,-0.00212038,0.00100365,-0.00004105,-0.00366120,0.00837692,0.0000
 2414,-0.07225463,-0.21554230,-0.21994649,0.07693598,0.19876206,-0.0045
 1233,-0.00082855,-0.01278221,0.01053153,-0.01314127,-0.00224420,-0.005
 72754,-0.00101878,-0.00186619,-0.00216856,0.00453030,0.00150573,-0.126
 93482,-0.22349173,-0.46742328,0.14086075,0.24330328,0.50088956,0.00169
 548,0.00035372,-0.00729789,0.01399256,0.01624493,0.00878890,-0.0016103
 7,-0.00079110,-0.00128285,-0.00962293,0.00985760,-0.00163578,-0.125832
 07,0.14165795,0.02721853,0.02113739,-0.01115594,-0.00679635,0.09157817
 ,0.00192004,-0.01106676,0.00558544,-0.01439414,-0.00930337,-0.01354326
 ,0.00306868,0.00562309,0.00607742,0.00590375,-0.00279393,0.00058592,0.
 13388192,-0.61439343,-0.11890702,0.00851895,-0.00634093,0.00353795,-0.
 14341280,0.65686494,-0.00258033,0.00062735,-0.00302594,-0.00761511,-0.
 00245629,0.00277027,0.00317012,0.00313971,0.00519681,0.00075314,0.0004
 9458,0.00076246,0.02775160,-0.12138936,-0.10595657,0.00649315,-0.03282
 041,0.00422848,-0.02832225,0.11920900,0.08889804,-0.00110806,0.0049913
 7,-0.01050828,-0.00339931,-0.01493588,0.02656012,-0.00114731,-0.001220
 32,-0.00288536,-0.00096229,-0.00036666,0.00136860,-0.08271881,-0.02810
 909,0.04737702,0.01707490,0.00244587,-0.00610125,0.01158452,0.00301169
 ,-0.00209470,0.07506793,0.00164462,-0.00055411,-0.00449042,0.00569696,
 -0.01041553,0.01570809,-0.00075136,0.00079291,-0.00164258,-0.00191148,
 0.01012165,-0.00406645,-0.03500736,-0.12992838,0.07100545,0.00030527,0
 .01435820,-0.00856031,-0.01102713,-0.03015791,0.03090859,0.08758429,0.
 62214371,-0.00279702,-0.00241733,0.00193790,-0.00705441,0.01264356,-0.
 01357517,0.00482222,0.00151992,0.00750460,0.00025820,-0.00451460,0.002
 65148,0.04162943,0.03899986,-0.17593190,0.01066732,0.01880207,-0.03097
 279,0.00172466,-0.00613204,0.00985077,-0.05167734,0.04497158,0.2653451
 7,-0.08348376,0.03160456,-0.00551016,0.00898215,-0.00917676,0.00058466
 ,0.00044660,0.00016165,0.00190483,-0.00031038,-0.00403013,0.00331355,0
 .00052472,0.00530335,-0.00255140,-0.00030281,-0.00103761,0.00030044,-0
 .00248059,-0.00254604,0.00170675,0.00037133,-0.00080598,0.00048383,0.0
 9955966,0.02749413,-0.27137390,0.06496850,0.01289265,-0.03418411,-0.00
 000973,-0.00086013,0.00444039,0.00539305,-0.00505677,-0.00492865,0.007
 06411,0.00503301,-0.00956596,0.00087669,-0.00203679,0.00151225,-0.0001
 2845,-0.00104155,0.00561562,-0.00027451,-0.00181357,0.00085609,0.00037
 467,-0.08141396,0.39300507,-0.00409742,0.05966158,-0.09954242,-0.00830
 932,0.02775163,0.00246680,0.00069116,-0.00012421,0.00064051,0.00365491
 ,0.00728521,-0.00592616,-0.00372639,0.00018871,-0.00352759,0.00092456,
 0.00030789,0.00186664,0.00273218,-0.00075223,0.00004490,0.00120305,0.0
 0023612,0.00001981,0.02039134,-0.06289515,0.08848263,-0.07994041,-0.01
 234417,-0.01185224,0.00958667,0.00786982,0.00801856,-0.00044799,-0.000
 16466,0.00581000,0.00024682,-0.00144255,0.00098842,-0.00028509,-0.0016
 3193,-0.00561048,-0.00330811,0.00070196,0.00350866,0.00008162,0.000633
 58,0.00070014,0.00036664,-0.00017029,0.00093113,0.01325617,0.00528622,
 0.00437127,0.08909727,-0.00938077,-0.12955065,-0.09548650,-0.00267990,
 -0.00387393,-0.00401437,0.00115892,0.00152506,0.00075299,-0.00019992,0
 .00602989,0.00184182,-0.00184043,-0.00496059,-0.00345708,-0.00063146,0
 .00217832,0.00239720,0.00077276,0.00176385,0.00043081,0.00046935,0.000
 78084,0.00019915,0.00325480,-0.06867995,-0.04672837,0.02964192,0.18993
 135,-0.00863971,-0.08849313,-0.24957144,-0.00939821,-0.03221241,-0.030
 00206,0.00509079,0.00146059,-0.01192853,0.00066400,0.00342147,0.000986
 33,-0.00745280,-0.00199884,-0.00786703,0.00232805,0.00204822,0.0050036
 7,0.00218107,-0.00016010,0.00093742,0.00265459,0.00127142,-0.00003762,
 0.00287362,-0.02877032,0.00881424,0.05064620,0.16197673,0.30785132,-0.
 28532448,-0.00321943,-0.01955946,-0.05762299,0.00340826,-0.01231800,0.
 00531035,0.00055788,0.00257049,0.00431804,-0.00366988,0.00215787,0.010
 43498,-0.00204225,0.00290966,-0.00216272,-0.00064059,-0.00106446,-0.00
 253053,0.00221791,0.00036011,-0.00412253,-0.00295931,0.00308872,-0.036
 63212,0.04106390,-0.01753035,-0.02871265,-0.02069238,-0.04079754,0.397
 19928,-0.00269177,-0.07565302,0.00189987,-0.01289790,0.00327183,-0.001
 64532,0.00131336,0.00126019,0.00196151,-0.00063118,0.00400514,-0.00124
 955,0.00226729,-0.00344379,0.00160750,-0.00065273,0.00039829,-0.000370
 96,-0.00051657,0.00176029,-0.00017828,-0.00117868,-0.00005839,0.000482
 16,0.05857619,-0.01681926,0.01520906,-0.02858965,0.00493570,-0.0181566
 0,-0.01499062,0.08018581,-0.02448490,0.00136973,-0.08238882,0.02198315
 ,-0.00058912,0.00301613,0.00325994,0.00144254,0.00345784,0.00011598,0.
 00014933,0.00064102,-0.00445682,0.00167992,-0.00582503,0.00075711,0.00
 061252,0.00248721,0.00125331,-0.00144885,0.00072785,0.00213557,0.00069
 766,-0.00023089,-0.02349298,0.01356762,0.00673629,-0.05731712,-0.01768
 121,-0.02393339,0.08022918,0.00047525,0.09546988,-0.00046624,-0.000186
 15,0.00001007,-0.00061929,-0.00599497,0.00317131,0.00021997,0.00094633
 ,0.00025686,0.00007478,0.00367746,-0.00133218,-0.00155358,-0.01079513,
 0.00147741,-0.00221672,0.00005153,-0.00189606,0.00200675,0.00119647,-0
 .00032263,-0.01100702,-0.04259821,-0.00207674,0.00006903,0.00045287,-0
 .00030500,0.00005906,0.00012710,-0.00015006,-0.00015463,-0.00000774,0.
 00001759,0.01358789,-0.00059957,-0.00064374,0.00131586,-0.00135257,0.0
 0271303,-0.00179691,0.00083704,0.00009658,0.00044315,0.00064073,-0.001
 05626,-0.00002185,-0.00328925,-0.02581699,0.00129166,0.00116721,0.0028
 5316,-0.00622870,-0.00094186,0.00242853,0.00230882,-0.05087837,-0.4779
 3907,-0.10492900,0.00010992,0.00012240,-0.00014024,0.00020976,-0.00007
 989,-0.00038703,0.00096651,0.00015721,-0.00027539,0.05313045,0.4971650
 5,0.00052221,0.00043085,0.00083898,0.00084836,0.00052181,-0.00158490,-
 0.00084585,-0.00021504,-0.00038757,0.00056073,-0.00086484,-0.00032236,
 0.00604207,0.03750891,0.00758183,-0.00143618,-0.00527768,-0.00069262,0
 .00143648,0.00594777,-0.00443450,-0.00803203,-0.14603915,-0.06656135,-
 0.00000449,-0.00016647,-0.00007564,-0.00019454,-0.00023116,-0.00025292
 ,-0.00004621,-0.00003463,-0.00015810,0.00114943,0.10841963,0.06604915\
 \0.00000103,-0.00000036,0.00000115,-0.00000036,0.00000241,-0.00000017,
 -0.00000147,-0.00000014,0.00000058,0.00000082,-0.00000014,0.00000009,-
 0.00000038,-0.00000132,-0.00000127,0.00000053,-0.00000018,-0.00000008,
 -0.00000082,-0.00000103,-0.00000030,0.00000021,-0.00000114,-0.00000035
 ,-0.00000091,0.00000076,0.00000039,0.00000085,0.00000073,0.00000067,-0
 .00000014,0.00000152,0.00000003,0.00000065,-0.00000110,-0.00000073\\\@
 The archive entry for this job was punched.


 EXPERIENCE IS A WONDERFUL THING.  IT ENABLES
 YOU TO RECOGNIZE A MISTAKE WHEN YOU MAKE IT AGAIN.
           - BACK OF A SUGAR PACKET
 Job cpu time:       0 days  0 hours 10 minutes  9.5 seconds.
 Elapsed time:       0 days  0 hours  1 minutes 18.4 seconds.
 File lengths (MBytes):  RWF=     99 Int=      0 D2E=      0 Chk=      6 Scr=      1
 Normal termination of Gaussian 16 at Fri May 23 03:43:55 2025.
done
