 Entering Gaussian System, Link 0=g16
 Initial command:
 /apps/easybuild-2022/easybuild/software/Compiler/NVHPC/22.11-CUDA-11.7.0/Gaussian/g16c01-CUDA-11.7.0/g16/l1.exe "/tmp/Gau-212717.inp" -scrdir="/tmp/"
 Entering Link 1 = /apps/easybuild-2022/easybuild/software/Compiler/NVHPC/22.11-CUDA-11.7.0/Gaussian/g16c01-CUDA-11.7.0/g16/l1.exe PID=    212718.
  
 Copyright (c) 1988-2019, Gaussian, Inc.  All Rights Reserved.
  
 This is part of the Gaussian(R) 16 program.  It is based on
 the Gaussian(R) 09 system (copyright 2009, Gaussian, Inc.),
 the Gaussian(R) 03 system (copyright 2003, Gaussian, Inc.),
 the Gaussian(R) 98 system (copyright 1998, Gaussian, Inc.),
 the Gaussian(R) 94 system (copyright 1995, Gaussian, Inc.),
 the Gaussian 92(TM) system (copyright 1992, Gaussian, Inc.),
 the Gaussian 90(TM) system (copyright 1990, Gaussian, Inc.),
 the Gaussian 88(TM) system (copyright 1988, Gaussian, Inc.),
 the Gaussian 86(TM) system (copyright 1986, Carnegie Mellon
 University), and the Gaussian 82(TM) system (copyright 1983,
 Carnegie Mellon University). Gaussian is a federally registered
 trademark of Gaussian, Inc.
  
 This software contains proprietary and confidential information,
 including trade secrets, belonging to Gaussian, Inc.
  
 This software is provided under written license and may be
 used, copied, transmitted, or stored only in accord with that
 written license.
  
 The following legend is applicable only to US Government
 contracts under FAR:
  
                    RESTRICTED RIGHTS LEGEND
  
 Use, reproduction and disclosure by the US Government is
 subject to restrictions as set forth in subparagraphs (a)
 and (c) of the Commercial Computer Software - Restricted
 Rights clause in FAR 52.227-19.
  
 Gaussian, Inc.
 340 Quinnipiac St., Bldg. 40, Wallingford CT 06492
  
  
 ---------------------------------------------------------------
 Warning -- This program may not be used in any manner that
 competes with the business of Gaussian, Inc. or will provide
 assistance to any competitor of Gaussian, Inc.  The licensee
 of this program is prohibited from giving any competitor of
 Gaussian, Inc. access to this program.  By using this program,
 the user acknowledges that Gaussian, Inc. is engaged in the
 business of creating and licensing software in the field of
 computational chemistry and represents and warrants to the
 licensee that it is not a competitor of Gaussian, Inc. and that
 it will not use this program in any manner prohibited above.
 ---------------------------------------------------------------
  

 Cite this work as:
 Gaussian 16, Revision C.01,
 M. J. Frisch, G. W. Trucks, H. B. Schlegel, G. E. Scuseria, 
 M. A. Robb, J. R. Cheeseman, G. Scalmani, V. Barone, 
 G. A. Petersson, H. Nakatsuji, X. Li, M. Caricato, A. V. Marenich, 
 J. Bloino, B. G. Janesko, R. Gomperts, B. Mennucci, H. P. Hratchian, 
 J. V. Ortiz, A. F. Izmaylov, J. L. Sonnenberg, D. Williams-Young, 
 F. Ding, F. Lipparini, F. Egidi, J. Goings, B. Peng, A. Petrone, 
 T. Henderson, D. Ranasinghe, V. G. Zakrzewski, J. Gao, N. Rega, 
 G. Zheng, W. Liang, M. Hada, M. Ehara, K. Toyota, R. Fukuda, 
 J. Hasegawa, M. Ishida, T. Nakajima, Y. Honda, O. Kitao, H. Nakai, 
 T. Vreven, K. Throssell, J. A. Montgomery, Jr., J. E. Peralta, 
 F. Ogliaro, M. J. Bearpark, J. J. Heyd, E. N. Brothers, K. N. Kudin, 
 V. N. Staroverov, T. A. Keith, R. Kobayashi, J. Normand, 
 K. Raghavachari, A. P. Rendell, J. C. Burant, S. S. Iyengar, 
 J. Tomasi, M. Cossi, J. M. Millam, M. Klene, C. Adamo, R. Cammi, 
 J. W. Ochterski, R. L. Martin, K. Morokuma, O. Farkas, 
 J. B. Foresman, and D. J. Fox, Gaussian, Inc., Wallingford CT, 2019.
 
 ******************************************
 Gaussian 16:  ES64L-G16RevC.01  3-Jul-2019
                23-May-2025 
 ******************************************
 %mem=28GB
 %chk=2003846667223680600001_r12_insertion_R_1_2_5_IRC_F_prod
 %nprocshared=8
 Will use up to    8 processors via shared memory.
 ----------------------------------------------------------------------
 #P wb97xd/6-311++G(d,p) Symm(None) scf(xqc) pop(None) freq opt(CalcFC)
 ----------------------------------------------------------------------
 1/10=4,18=20,19=15,26=3,38=1/1,3;
 2/9=110,12=2,15=3,17=6,18=5,40=1/2;
 3/5=4,6=6,7=1111,11=2,25=1,30=1,71=2,74=-58,140=1/1,2,3;
 4//1;
 5/5=2,8=3,13=1,38=5/2,8;
 8/6=4,10=90,11=11/1;
 11/6=1,8=1,9=11,15=111,16=1,31=1/1,2,10;
 10/6=1,13=1,31=1/2;
 7/10=1,25=1,30=1/1,2,3,16;
 1/10=4,18=20,19=15,26=3/3(2);
 2/9=110,15=3/2;
 99//99;
 2/9=110,15=3/2;
 3/5=4,6=6,7=1111,11=2,25=1,30=1,71=1,74=-58/1,2,3;
 4/5=5,16=3,69=1/1;
 5/5=2,8=3,13=1,38=5/2,8;
 7/30=1/1,2,3,16;
 1/18=20,19=15,26=3/3(-5);
 2/9=110,15=3/2;
 99/9=1/99;
 Leave Link    1 at Fri May 23 04:13:46 2025, MaxMem=  3758096384 cpu:               0.0 elap:               0.0
 (Enter /apps/easybuild-2022/easybuild/software/Compiler/NVHPC/22.11-CUDA-11.7.0/Gaussian/g16c01-CUDA-11.7.0/g16/l101.exe)
 ------------------------------
 Gaussian input prepared by ASE
 ------------------------------
 Symbolic Z-matrix:
 Charge =  0 Multiplicity = 1
 C                    -1.21418  -0.63063   0.58564 
 C                    -0.51172   0.18296  -0.49857 
 F                    -0.66601  -0.44292  -1.66796 
 F                    -1.10442   1.37122  -0.5963 
 S                     1.4185    0.36933  -0.03377 
 O                     1.58159   1.26136   1.07359 
 O                     2.12569  -0.8856   -0.05999 
 O                     1.7412    1.15995  -1.39311 
 F                    -0.6497   -1.82874   0.66322 
 F                    -1.08668  -0.0085    1.74928 
 F                    -2.50027  -0.75595   0.27677 
 H                     2.31725   0.6254   -1.95407 
 
 ITRead=  0  0  0  0  0  0  0  0  0  0  0  0
 MicOpt= -1 -1 -1 -1 -1 -1 -1 -1 -1 -1 -1 -1
 NAtoms=     12 NQM=       12 NQMF=       0 NMMI=      0 NMMIF=      0
                NMic=       0 NMicF=      0.
                    Isotopes and Nuclear Properties:
 (Nuclear quadrupole moments (NQMom) in fm**2, nuclear magnetic moments (NMagM)
  in nuclear magnetons)

  Atom         1           2           3           4           5           6           7           8           9          10
 IAtWgt=          12          12          19          19          32          16          16          16          19          19
 AtmWgt=  12.0000000  12.0000000  18.9984032  18.9984032  31.9720718  15.9949146  15.9949146  15.9949146  18.9984032  18.9984032
 NucSpn=           0           0           1           1           0           0           0           0           1           1
 AtZEff=  -0.0000000  -0.0000000  -0.0000000  -0.0000000  -0.0000000  -0.0000000  -0.0000000  -0.0000000  -0.0000000  -0.0000000
 NQMom=    0.0000000   0.0000000   0.0000000   0.0000000   0.0000000   0.0000000   0.0000000   0.0000000   0.0000000   0.0000000
 NMagM=    0.0000000   0.0000000   2.6288670   2.6288670   0.0000000   0.0000000   0.0000000   0.0000000   2.6288670   2.6288670
 AtZNuc=   6.0000000   6.0000000   9.0000000   9.0000000  16.0000000   8.0000000   8.0000000   8.0000000   9.0000000   9.0000000

  Atom        11          12
 IAtWgt=          19           1
 AtmWgt=  18.9984032   1.0078250
 NucSpn=           1           1
 AtZEff=  -0.0000000  -0.0000000
 NQMom=    0.0000000   0.0000000
 NMagM=    2.6288670   2.7928460
 AtZNuc=   9.0000000   1.0000000
 Leave Link  101 at Fri May 23 04:13:46 2025, MaxMem=  3758096384 cpu:               0.3 elap:               0.2
 (Enter /apps/easybuild-2022/easybuild/software/Compiler/NVHPC/22.11-CUDA-11.7.0/Gaussian/g16c01-CUDA-11.7.0/g16/l103.exe)

 GradGradGradGradGradGradGradGradGradGradGradGradGradGradGradGradGradGrad
 Berny optimization.
 Initialization pass.
                           ----------------------------
                           !    Initial Parameters    !
                           ! (Angstroms and Degrees)  !
 --------------------------                            --------------------------
 ! Name  Definition              Value          Derivative Info.                !
 --------------------------------------------------------------------------------
 ! R1    R(1,2)                  1.5267         calculate D2E/DX2 analytically  !
 ! R2    R(1,9)                  1.3267         calculate D2E/DX2 analytically  !
 ! R3    R(1,10)                 1.3257         calculate D2E/DX2 analytically  !
 ! R4    R(1,11)                 1.3286         calculate D2E/DX2 analytically  !
 ! R5    R(2,3)                  1.3353         calculate D2E/DX2 analytically  !
 ! R6    R(2,4)                  1.3315         calculate D2E/DX2 analytically  !
 ! R7    R(2,5)                  1.9941         calculate D2E/DX2 analytically  !
 ! R8    R(5,6)                  1.4313         calculate D2E/DX2 analytically  !
 ! R9    R(5,7)                  1.4407         calculate D2E/DX2 analytically  !
 ! R10   R(5,8)                  1.6053         calculate D2E/DX2 analytically  !
 ! R11   R(8,12)                 0.9655         calculate D2E/DX2 analytically  !
 ! A1    A(2,1,9)              109.0873         calculate D2E/DX2 analytically  !
 ! A2    A(2,1,10)             109.2091         calculate D2E/DX2 analytically  !
 ! A3    A(2,1,11)             109.3029         calculate D2E/DX2 analytically  !
 ! A4    A(9,1,10)             109.3632         calculate D2E/DX2 analytically  !
 ! A5    A(9,1,11)             109.8944         calculate D2E/DX2 analytically  !
 ! A6    A(10,1,11)            109.9648         calculate D2E/DX2 analytically  !
 ! A7    A(1,2,3)              108.601          calculate D2E/DX2 analytically  !
 ! A8    A(1,2,4)              108.8376         calculate D2E/DX2 analytically  !
 ! A9    A(1,2,5)              109.247          calculate D2E/DX2 analytically  !
 ! A10   A(3,2,4)              107.6134         calculate D2E/DX2 analytically  !
 ! A11   A(3,2,5)              111.0865         calculate D2E/DX2 analytically  !
 ! A12   A(4,2,5)              111.3823         calculate D2E/DX2 analytically  !
 ! A13   A(2,5,6)              110.4185         calculate D2E/DX2 analytically  !
 ! A14   A(2,5,7)              112.9226         calculate D2E/DX2 analytically  !
 ! A15   A(2,5,8)               92.4779         calculate D2E/DX2 analytically  !
 ! A16   A(6,5,7)              120.0675         calculate D2E/DX2 analytically  !
 ! A17   A(6,5,8)              108.9824         calculate D2E/DX2 analytically  !
 ! A18   A(7,5,8)              108.3557         calculate D2E/DX2 analytically  !
 ! A19   A(5,8,12)             109.8294         calculate D2E/DX2 analytically  !
 ! D1    D(9,1,2,3)             61.511          calculate D2E/DX2 analytically  !
 ! D2    D(9,1,2,4)            178.3933         calculate D2E/DX2 analytically  !
 ! D3    D(9,1,2,5)            -59.7938         calculate D2E/DX2 analytically  !
 ! D4    D(10,1,2,3)          -179.0108         calculate D2E/DX2 analytically  !
 ! D5    D(10,1,2,4)           -62.1284         calculate D2E/DX2 analytically  !
 ! D6    D(10,1,2,5)            59.6844         calculate D2E/DX2 analytically  !
 ! D7    D(11,1,2,3)           -58.6699         calculate D2E/DX2 analytically  !
 ! D8    D(11,1,2,4)            58.2124         calculate D2E/DX2 analytically  !
 ! D9    D(11,1,2,5)          -179.9747         calculate D2E/DX2 analytically  !
 ! D10   D(1,2,5,6)            -71.559          calculate D2E/DX2 analytically  !
 ! D11   D(1,2,5,7)             65.9913         calculate D2E/DX2 analytically  !
 ! D12   D(1,2,5,8)            177.1244         calculate D2E/DX2 analytically  !
 ! D13   D(3,2,5,6)            168.6564         calculate D2E/DX2 analytically  !
 ! D14   D(3,2,5,7)            -53.7933         calculate D2E/DX2 analytically  !
 ! D15   D(3,2,5,8)             57.3399         calculate D2E/DX2 analytically  !
 ! D16   D(4,2,5,6)             48.7054         calculate D2E/DX2 analytically  !
 ! D17   D(4,2,5,7)           -173.7442         calculate D2E/DX2 analytically  !
 ! D18   D(4,2,5,8)            -62.6111         calculate D2E/DX2 analytically  !
 ! D19   D(2,5,8,12)          -113.5604         calculate D2E/DX2 analytically  !
 ! D20   D(6,5,8,12)           133.8475         calculate D2E/DX2 analytically  !
 ! D21   D(7,5,8,12)             1.5972         calculate D2E/DX2 analytically  !
 --------------------------------------------------------------------------------
 Trust Radius=3.00D-01 FncErr=1.00D-07 GrdErr=1.00D-06 EigMax=2.50D+02 EigMin=1.00D-04
 Number of steps in this run=     61 maximum allowed number of steps=    100.
 GradGradGradGradGradGradGradGradGradGradGradGradGradGradGradGradGradGrad

 Leave Link  103 at Fri May 23 04:13:46 2025, MaxMem=  3758096384 cpu:               0.0 elap:               0.0
 (Enter /apps/easybuild-2022/easybuild/software/Compiler/NVHPC/22.11-CUDA-11.7.0/Gaussian/g16c01-CUDA-11.7.0/g16/l202.exe)
                          Input orientation:                          
 ---------------------------------------------------------------------
 Center     Atomic      Atomic             Coordinates (Angstroms)
 Number     Number       Type             X           Y           Z
 ---------------------------------------------------------------------
      1          6           0       -1.214183   -0.630630    0.585636
      2          6           0       -0.511721    0.182963   -0.498572
      3          9           0       -0.666011   -0.442915   -1.667964
      4          9           0       -1.104423    1.371221   -0.596295
      5         16           0        1.418500    0.369325   -0.033769
      6          8           0        1.581588    1.261358    1.073586
      7          8           0        2.125688   -0.885596   -0.059985
      8          8           0        1.741200    1.159954   -1.393107
      9          9           0       -0.649696   -1.828735    0.663221
     10          9           0       -1.086677   -0.008500    1.749277
     11          9           0       -2.500265   -0.755949    0.276767
     12          1           0        2.317245    0.625396   -1.954067
 ---------------------------------------------------------------------
                    Distance matrix (angstroms):
                    1          2          3          4          5
     1  C    0.000000
     2  C    1.526726   0.000000
     3  F    2.326895   1.335293   0.000000
     4  F    2.327319   1.331466   2.152154   0.000000
     5  S    2.883503   1.994123   2.770472   2.772250   0.000000
     6  O    3.410872   2.831353   3.933490   3.164684   1.431278
     7  O    3.411242   2.879254   3.251945   3.976741   1.440704
     8  O    3.981947   2.613495   2.905065   2.962619   1.605313
     9  F    1.326695   2.327172   2.712045   3.468844   3.097531
    10  F    1.325656   2.328102   3.470333   2.721333   3.098050
    11  F    1.328575   2.331740   2.691553   2.689882   4.088935
    12  H    4.527546   3.212049   3.181660   3.756010   2.135617
                    6          7          8          9         10
     6  O    0.000000
     7  O    2.488059   0.000000
     8  O    2.473931   2.471704   0.000000
     9  F    3.833497   3.019155   4.344782   0.000000
    10  F    3.031293   3.789725   4.385972   2.164192   0.000000
    11  F    4.622334   4.640006   4.944612   2.173666   2.173752
    12  H    3.179988   2.430501   0.965534   4.655716   5.069839
                   11         12
    11  F    0.000000
    12  H    5.485721   0.000000
 Symmetry turned off by external request.
 Stoichiometry    C2HF5O3S
 Rotational constants (GHZ):           1.5475918           0.8207290           0.7602620
 Leave Link  202 at Fri May 23 04:13:46 2025, MaxMem=  3758096384 cpu:               0.1 elap:               0.0
 (Enter /apps/easybuild-2022/easybuild/software/Compiler/NVHPC/22.11-CUDA-11.7.0/Gaussian/g16c01-CUDA-11.7.0/g16/l301.exe)
 Standard basis: 6-311++G(d,p) (5D, 7F)
 Ernie: Thresh=  0.10000D-02 Tol=  0.10000D-05 Strict=F.
   257 basis functions,   419 primitive gaussians,   268 cartesian basis functions
    49 alpha electrons       49 beta electrons
       nuclear repulsion energy       915.3375775320 Hartrees.
 IExCor= 4639 DFT=T Ex+Corr=wB97XD ExCW=0 ScaHFX=  1.000000
 ScaDFX=  1.000000  1.000000  1.000000  1.000000 ScalE2=  1.000000  1.000000
 IRadAn=      5 IRanWt=     -1 IRanGd=            0 ICorTp=0 IEmpDi=121
 HFx  wShort=  0.000000 wLong=  0.200000 cFull=  0.222036 cShort=  0.000000 cLong=  0.777964
 DFx  wShort=  0.000000 wLong=  0.200000 cFull=  0.000000 cShort=  0.000000 cLong=  1.000000
 NAtoms=   12 NActive=   12 NUniq=   12 SFac= 1.00D+00 NAtFMM=   60 NAOKFM=F Big=F
 Integral buffers will be    131072 words long.
 Raffenetti 2 integral format.
 Two-electron integral symmetry is turned off.
 R6Disp:  Grimme-D2 Dispersion energy=       -0.0054872610 Hartrees.
 Nuclear repulsion after empirical dispersion term =      915.3320902710 Hartrees.
 Leave Link  301 at Fri May 23 04:13:46 2025, MaxMem=  3758096384 cpu:               0.1 elap:               0.1
 (Enter /apps/easybuild-2022/easybuild/software/Compiler/NVHPC/22.11-CUDA-11.7.0/Gaussian/g16c01-CUDA-11.7.0/g16/l302.exe)
 NPDir=0 NMtPBC=     1 NCelOv=     1 NCel=       1 NClECP=     1 NCelD=      1
         NCelK=      1 NCelE2=     1 NClLst=     1 CellRange=     0.0.
 One-electron integrals computed using PRISM.
 NBasis=   257 RedAO= T EigKep=  6.75D-05  NBF=   257
 NBsUse=   257 1.00D-06 EigRej= -1.00D+00 NBFU=   257
 Precomputing XC quadrature grid using
 IXCGrd= 4 IRadAn=           5 IRanWt=          -1 IRanGd=           0 AccXCQ= 0.00D+00.
 Generated NRdTot=       0 NPtTot=           0 NUsed=           0 NTot=          32
 NSgBfM=   268   268   268   268   268 MxSgAt=    12 MxSgA2=    12.
 Leave Link  302 at Fri May 23 04:13:46 2025, MaxMem=  3758096384 cpu:               0.7 elap:               0.2
 (Enter /apps/easybuild-2022/easybuild/software/Compiler/NVHPC/22.11-CUDA-11.7.0/Gaussian/g16c01-CUDA-11.7.0/g16/l303.exe)
 DipDrv:  MaxL=1.
 Leave Link  303 at Fri May 23 04:13:46 2025, MaxMem=  3758096384 cpu:               0.1 elap:               0.0
 (Enter /apps/easybuild-2022/easybuild/software/Compiler/NVHPC/22.11-CUDA-11.7.0/Gaussian/g16c01-CUDA-11.7.0/g16/l401.exe)
 ExpMin= 3.60D-02 ExpMax= 9.34D+04 ExpMxC= 3.17D+03 IAcc=3 IRadAn=         5 AccDes= 0.00D+00
 Harris functional with IExCor= 4639 and IRadAn=       5 diagonalized for initial guess.
 HarFok:  IExCor= 4639 AccDes= 0.00D+00 IRadAn=         5 IDoV= 1 UseB2=F ITyADJ=14
 ICtDFT=  3500011 ScaDFX=  1.000000  1.000000  1.000000  1.000000
 FoFCou: FMM=F IPFlag=           0 FMFlag=      100000 FMFlg1=           0
         NFxFlg=           0 DoJE=T BraDBF=F KetDBF=T FulRan=T
         wScrn=  0.000000 ICntrl=       500 IOpCl=  0 I1Cent=   200000004 NGrid=           0
         NMat0=    1 NMatS0=      1 NMatT0=    0 NMatD0=    1 NMtDS0=    0 NMtDT0=    0
 Symmetry not used in FoFCou.
 Harris En= -1167.10623304013    
 JPrj=0 DoOrth=F DoCkMO=F.
 Leave Link  401 at Fri May 23 04:13:47 2025, MaxMem=  3758096384 cpu:               3.1 elap:               0.5
 (Enter /apps/easybuild-2022/easybuild/software/Compiler/NVHPC/22.11-CUDA-11.7.0/Gaussian/g16c01-CUDA-11.7.0/g16/l502.exe)
 Keep R1 ints in memory in canonical form, NReq=1117474609.
 FoFCou: FMM=F IPFlag=           0 FMFlag=           0 FMFlg1=           0
         NFxFlg=           0 DoJE=F BraDBF=F KetDBF=F FulRan=T
         wScrn=  0.000000 ICntrl=       600 IOpCl=  0 I1Cent=           0 NGrid=           0
         NMat0=    1 NMatS0=  33153 NMatT0=    0 NMatD0=    1 NMtDS0=    0 NMtDT0=    0
 Symmetry not used in FoFCou.
 Two-electron integral symmetry not used.
 Closed shell SCF:
 Using DIIS extrapolation, IDIIS=  1040.
 NGot=  3758096384 LenX=  2658793876 LenY=  2658721611
 Requested convergence on RMS density matrix=1.00D-08 within  32 cycles.
 Requested convergence on MAX density matrix=1.00D-06.
 Requested convergence on             energy=1.00D-06.
 No special actions if energy rises.

 Cycle   1  Pass 1  IDiag  1:
 E= -1199.13060785920    
 DIIS: error= 1.36D-01 at cycle   1 NSaved=   1.
 NSaved= 1 IEnMin= 1 EnMin= -1199.13060785920     IErMin= 1 ErrMin= 1.36D-01
 ErrMax= 1.36D-01  0.00D+00 EMaxC= 1.00D-01 BMatC= 3.34D+00 BMatP= 3.34D+00
 IDIUse=3 WtCom= 0.00D+00 WtEn= 1.00D+00
 Coeff-Com:  0.100D+01
 Coeff-En:   0.100D+01
 Coeff:      0.100D+01
 Gap=     0.656 Goal=   None    Shift=    0.000
 GapD=    0.656 DampG=2.000 DampE=0.250 DampFc=0.5000 IDamp=-1.
 Damping current iteration by 5.00D-01
 RMSDP=6.66D-03 MaxDP=4.06D-01              OVMax= 2.00D-01

 Cycle   2  Pass 1  IDiag  1:
 E= -1199.48240826133     Delta-E=       -0.351800402139 Rises=F Damp=T
 DIIS: error= 5.89D-02 at cycle   2 NSaved=   2.
 NSaved= 2 IEnMin= 2 EnMin= -1199.48240826133     IErMin= 2 ErrMin= 5.89D-02
 ErrMax= 5.89D-02  0.00D+00 EMaxC= 1.00D-01 BMatC= 4.81D-01 BMatP= 3.34D+00
 IDIUse=3 WtCom= 4.11D-01 WtEn= 5.89D-01
 Coeff-Com: -0.391D+00 0.139D+01
 Coeff-En:   0.000D+00 0.100D+01
 Coeff:     -0.161D+00 0.116D+01
 Gap=     0.501 Goal=   None    Shift=    0.000
 RMSDP=2.46D-03 MaxDP=1.78D-01 DE=-3.52D-01 OVMax= 9.98D-02

 Cycle   3  Pass 1  IDiag  1:
 E= -1199.77867995588     Delta-E=       -0.296271694544 Rises=F Damp=F
 DIIS: error= 1.42D-02 at cycle   3 NSaved=   3.
 NSaved= 3 IEnMin= 3 EnMin= -1199.77867995588     IErMin= 3 ErrMin= 1.42D-02
 ErrMax= 1.42D-02  0.00D+00 EMaxC= 1.00D-01 BMatC= 6.09D-02 BMatP= 4.81D-01
 IDIUse=3 WtCom= 8.58D-01 WtEn= 1.42D-01
 Coeff-Com: -0.148D+00 0.444D+00 0.704D+00
 Coeff-En:   0.000D+00 0.000D+00 0.100D+01
 Coeff:     -0.127D+00 0.381D+00 0.746D+00
 Gap=     0.459 Goal=   None    Shift=    0.000
 RMSDP=2.04D-03 MaxDP=1.01D-01 DE=-2.96D-01 OVMax= 5.86D-02

 Cycle   4  Pass 1  IDiag  1:
 E= -1199.80409601368     Delta-E=       -0.025416057797 Rises=F Damp=F
 DIIS: error= 8.07D-03 at cycle   4 NSaved=   4.
 NSaved= 4 IEnMin= 4 EnMin= -1199.80409601368     IErMin= 4 ErrMin= 8.07D-03
 ErrMax= 8.07D-03  0.00D+00 EMaxC= 1.00D-01 BMatC= 1.94D-02 BMatP= 6.09D-02
 IDIUse=3 WtCom= 9.19D-01 WtEn= 8.07D-02
 Coeff-Com: -0.273D-01 0.724D-01 0.377D+00 0.577D+00
 Coeff-En:   0.000D+00 0.000D+00 0.256D+00 0.744D+00
 Coeff:     -0.251D-01 0.666D-01 0.368D+00 0.591D+00
 Gap=     0.463 Goal=   None    Shift=    0.000
 RMSDP=9.65D-04 MaxDP=5.13D-02 DE=-2.54D-02 OVMax= 2.49D-02

 Cycle   5  Pass 1  IDiag  1:
 E= -1199.81625943826     Delta-E=       -0.012163424587 Rises=F Damp=F
 DIIS: error= 1.26D-03 at cycle   5 NSaved=   5.
 NSaved= 5 IEnMin= 5 EnMin= -1199.81625943826     IErMin= 5 ErrMin= 1.26D-03
 ErrMax= 1.26D-03  0.00D+00 EMaxC= 1.00D-01 BMatC= 9.59D-04 BMatP= 1.94D-02
 IDIUse=3 WtCom= 9.87D-01 WtEn= 1.26D-02
 Coeff-Com: -0.481D-02 0.114D-01 0.157D+00 0.313D+00 0.524D+00
 Coeff-En:   0.000D+00 0.000D+00 0.000D+00 0.000D+00 0.100D+01
 Coeff:     -0.475D-02 0.112D-01 0.155D+00 0.309D+00 0.530D+00
 Gap=     0.452 Goal=   None    Shift=    0.000
 RMSDP=1.39D-04 MaxDP=5.76D-03 DE=-1.22D-02 OVMax= 4.35D-03

 Cycle   6  Pass 1  IDiag  1:
 E= -1199.81683344593     Delta-E=       -0.000574007672 Rises=F Damp=F
 DIIS: error= 1.93D-04 at cycle   6 NSaved=   6.
 NSaved= 6 IEnMin= 6 EnMin= -1199.81683344593     IErMin= 6 ErrMin= 1.93D-04
 ErrMax= 1.93D-04  0.00D+00 EMaxC= 1.00D-01 BMatC= 1.60D-05 BMatP= 9.59D-04
 IDIUse=3 WtCom= 9.98D-01 WtEn= 1.93D-03
 Coeff-Com:  0.189D-02-0.495D-02 0.660D-03 0.219D-01 0.121D+00 0.860D+00
 Coeff-En:   0.000D+00 0.000D+00 0.000D+00 0.000D+00 0.000D+00 0.100D+01
 Coeff:      0.188D-02-0.494D-02 0.659D-03 0.218D-01 0.120D+00 0.860D+00
 Gap=     0.452 Goal=   None    Shift=    0.000
 RMSDP=3.64D-05 MaxDP=1.46D-03 DE=-5.74D-04 OVMax= 9.88D-04

 Cycle   7  Pass 1  IDiag  1:
 E= -1199.81684944084     Delta-E=       -0.000015994908 Rises=F Damp=F
 DIIS: error= 5.07D-05 at cycle   7 NSaved=   7.
 NSaved= 7 IEnMin= 7 EnMin= -1199.81684944084     IErMin= 7 ErrMin= 5.07D-05
 ErrMax= 5.07D-05  0.00D+00 EMaxC= 1.00D-01 BMatC= 1.25D-06 BMatP= 1.60D-05
 IDIUse=1 WtCom= 1.00D+00 WtEn= 0.00D+00
 Coeff-Com:  0.836D-03-0.200D-02-0.123D-01-0.201D-01-0.273D-01 0.162D+00
 Coeff-Com:  0.899D+00
 Coeff:      0.836D-03-0.200D-02-0.123D-01-0.201D-01-0.273D-01 0.162D+00
 Coeff:      0.899D+00
 Gap=     0.451 Goal=   None    Shift=    0.000
 RMSDP=1.26D-05 MaxDP=7.24D-04 DE=-1.60D-05 OVMax= 3.22D-04

 Cycle   8  Pass 1  IDiag  1:
 E= -1199.81685044336     Delta-E=       -0.000001002518 Rises=F Damp=F
 DIIS: error= 3.22D-05 at cycle   8 NSaved=   8.
 NSaved= 8 IEnMin= 8 EnMin= -1199.81685044336     IErMin= 8 ErrMin= 3.22D-05
 ErrMax= 3.22D-05  0.00D+00 EMaxC= 1.00D-01 BMatC= 4.44D-07 BMatP= 1.25D-06
 IDIUse=1 WtCom= 1.00D+00 WtEn= 0.00D+00
 Coeff-Com:  0.361D-03-0.836D-03-0.679D-02-0.122D-01-0.211D-01 0.505D-01
 Coeff-Com:  0.503D+00 0.487D+00
 Coeff:      0.361D-03-0.836D-03-0.679D-02-0.122D-01-0.211D-01 0.505D-01
 Coeff:      0.503D+00 0.487D+00
 Gap=     0.452 Goal=   None    Shift=    0.000
 RMSDP=4.34D-06 MaxDP=1.99D-04 DE=-1.00D-06 OVMax= 1.24D-04

 Cycle   9  Pass 1  IDiag  1:
 E= -1199.81685074031     Delta-E=       -0.000000296947 Rises=F Damp=F
 DIIS: error= 7.00D-06 at cycle   9 NSaved=   9.
 NSaved= 9 IEnMin= 9 EnMin= -1199.81685074031     IErMin= 9 ErrMin= 7.00D-06
 ErrMax= 7.00D-06  0.00D+00 EMaxC= 1.00D-01 BMatC= 1.23D-08 BMatP= 4.44D-07
 IDIUse=1 WtCom= 1.00D+00 WtEn= 0.00D+00
 Coeff-Com:  0.274D-05-0.902D-06-0.494D-03-0.123D-02-0.264D-02-0.326D-02
 Coeff-Com:  0.291D-01 0.117D+00 0.862D+00
 Coeff:      0.274D-05-0.902D-06-0.494D-03-0.123D-02-0.264D-02-0.326D-02
 Coeff:      0.291D-01 0.117D+00 0.862D+00
 Gap=     0.452 Goal=   None    Shift=    0.000
 RMSDP=2.19D-06 MaxDP=1.24D-04 DE=-2.97D-07 OVMax= 5.29D-05

 Cycle  10  Pass 1  IDiag  1:
 E= -1199.81685075284     Delta-E=       -0.000000012529 Rises=F Damp=F
 DIIS: error= 4.04D-06 at cycle  10 NSaved=  10.
 NSaved=10 IEnMin=10 EnMin= -1199.81685075284     IErMin=10 ErrMin= 4.04D-06
 ErrMax= 4.04D-06  0.00D+00 EMaxC= 1.00D-01 BMatC= 6.46D-09 BMatP= 1.23D-08
 IDIUse=1 WtCom= 1.00D+00 WtEn= 0.00D+00
 Coeff-Com: -0.515D-04 0.122D-03 0.643D-03 0.956D-03 0.125D-02-0.971D-02
 Coeff-Com: -0.546D-01-0.294D-02 0.492D+00 0.573D+00
 Coeff:     -0.515D-04 0.122D-03 0.643D-03 0.956D-03 0.125D-02-0.971D-02
 Coeff:     -0.546D-01-0.294D-02 0.492D+00 0.573D+00
 Gap=     0.452 Goal=   None    Shift=    0.000
 RMSDP=7.74D-07 MaxDP=3.80D-05 DE=-1.25D-08 OVMax= 2.19D-05

 Cycle  11  Pass 1  IDiag  1:
 E= -1199.81685075788     Delta-E=       -0.000000005048 Rises=F Damp=F
 DIIS: error= 7.92D-07 at cycle  11 NSaved=  11.
 NSaved=11 IEnMin=11 EnMin= -1199.81685075788     IErMin=11 ErrMin= 7.92D-07
 ErrMax= 7.92D-07  0.00D+00 EMaxC= 1.00D-01 BMatC= 2.04D-10 BMatP= 6.46D-09
 IDIUse=1 WtCom= 1.00D+00 WtEn= 0.00D+00
 Coeff-Com: -0.126D-04 0.283D-04 0.189D-03 0.379D-03 0.658D-03-0.112D-02
 Coeff-Com: -0.158D-01-0.143D-01-0.364D-02 0.117D+00 0.916D+00
 Coeff:     -0.126D-04 0.283D-04 0.189D-03 0.379D-03 0.658D-03-0.112D-02
 Coeff:     -0.158D-01-0.143D-01-0.364D-02 0.117D+00 0.916D+00
 Gap=     0.452 Goal=   None    Shift=    0.000
 RMSDP=3.30D-07 MaxDP=1.93D-05 DE=-5.05D-09 OVMax= 6.99D-06

 Cycle  12  Pass 1  IDiag  1:
 E= -1199.81685075816     Delta-E=       -0.000000000275 Rises=F Damp=F
 DIIS: error= 1.85D-07 at cycle  12 NSaved=  12.
 NSaved=12 IEnMin=12 EnMin= -1199.81685075816     IErMin=12 ErrMin= 1.85D-07
 ErrMax= 1.85D-07  0.00D+00 EMaxC= 1.00D-01 BMatC= 2.50D-11 BMatP= 2.04D-10
 IDIUse=1 WtCom= 1.00D+00 WtEn= 0.00D+00
 Coeff-Com:  0.568D-07-0.464D-06 0.572D-05 0.415D-04 0.108D-03 0.313D-03
 Coeff-Com: -0.992D-03-0.461D-02-0.407D-01-0.161D-02 0.340D+00 0.708D+00
 Coeff:      0.568D-07-0.464D-06 0.572D-05 0.415D-04 0.108D-03 0.313D-03
 Coeff:     -0.992D-03-0.461D-02-0.407D-01-0.161D-02 0.340D+00 0.708D+00
 Gap=     0.452 Goal=   None    Shift=    0.000
 RMSDP=6.30D-08 MaxDP=2.88D-06 DE=-2.75D-10 OVMax= 1.65D-06

 Cycle  13  Pass 1  IDiag  1:
 E= -1199.81685075820     Delta-E=       -0.000000000039 Rises=F Damp=F
 DIIS: error= 6.95D-08 at cycle  13 NSaved=  13.
 NSaved=13 IEnMin=13 EnMin= -1199.81685075820     IErMin=13 ErrMin= 6.95D-08
 ErrMax= 6.95D-08  0.00D+00 EMaxC= 1.00D-01 BMatC= 2.86D-12 BMatP= 2.50D-11
 IDIUse=1 WtCom= 1.00D+00 WtEn= 0.00D+00
 Coeff-Com:  0.132D-05-0.302D-05-0.142D-04-0.191D-04-0.987D-05 0.234D-03
 Coeff-Com:  0.108D-02-0.416D-03-0.136D-01-0.117D-01 0.260D-01 0.260D+00
 Coeff-Com:  0.739D+00
 Coeff:      0.132D-05-0.302D-05-0.142D-04-0.191D-04-0.987D-05 0.234D-03
 Coeff:      0.108D-02-0.416D-03-0.136D-01-0.117D-01 0.260D-01 0.260D+00
 Coeff:      0.739D+00
 Gap=     0.452 Goal=   None    Shift=    0.000
 RMSDP=2.40D-08 MaxDP=1.12D-06 DE=-3.87D-11 OVMax= 5.54D-07

 Cycle  14  Pass 1  IDiag  1:
 E= -1199.81685075819     Delta-E=        0.000000000003 Rises=F Damp=F
 DIIS: error= 2.90D-08 at cycle  14 NSaved=  14.
 NSaved=14 IEnMin=13 EnMin= -1199.81685075820     IErMin=14 ErrMin= 2.90D-08
 ErrMax= 2.90D-08  0.00D+00 EMaxC= 1.00D-01 BMatC= 2.68D-13 BMatP= 2.86D-12
 IDIUse=1 WtCom= 1.00D+00 WtEn= 0.00D+00
 Coeff-Com:  0.449D-06-0.975D-06-0.531D-05-0.127D-04-0.191D-04 0.203D-04
 Coeff-Com:  0.491D-03 0.490D-03 0.135D-02-0.343D-02-0.378D-01-0.788D-02
 Coeff-Com:  0.226D+00 0.820D+00
 Coeff:      0.449D-06-0.975D-06-0.531D-05-0.127D-04-0.191D-04 0.203D-04
 Coeff:      0.491D-03 0.490D-03 0.135D-02-0.343D-02-0.378D-01-0.788D-02
 Coeff:      0.226D+00 0.820D+00
 Gap=     0.452 Goal=   None    Shift=    0.000
 RMSDP=8.61D-09 MaxDP=3.84D-07 DE= 3.18D-12 OVMax= 2.69D-07

 SCF Done:  E(RwB97XD) =  -1199.81685076     A.U. after   14 cycles
            NFock= 14  Conv=0.86D-08     -V/T= 2.0021
 KE= 1.197343416371D+03 PE=-4.677329452122D+03 EE= 1.364837094722D+03
 Leave Link  502 at Fri May 23 04:14:01 2025, MaxMem=  3758096384 cpu:              70.7 elap:              14.5
 (Enter /apps/easybuild-2022/easybuild/software/Compiler/NVHPC/22.11-CUDA-11.7.0/Gaussian/g16c01-CUDA-11.7.0/g16/l508.exe)
 QCSCF skips out because SCF is already converged.
 Leave Link  508 at Fri May 23 04:14:01 2025, MaxMem=  3758096384 cpu:               0.1 elap:               0.0
 (Enter /apps/easybuild-2022/easybuild/software/Compiler/NVHPC/22.11-CUDA-11.7.0/Gaussian/g16c01-CUDA-11.7.0/g16/l801.exe)
 DoSCS=F DFT=T ScalE2(SS,OS)=  1.000000  1.000000
 Range of M.O.s used for correlation:     1   257
 NBasis=   257 NAE=    49 NBE=    49 NFC=     0 NFV=     0
 NROrb=    257 NOA=    49 NOB=    49 NVA=   208 NVB=   208

 **** Warning!!: The largest alpha MO coefficient is  0.36506952D+02

 Leave Link  801 at Fri May 23 04:14:01 2025, MaxMem=  3758096384 cpu:               0.0 elap:               0.0
 (Enter /apps/easybuild-2022/easybuild/software/Compiler/NVHPC/22.11-CUDA-11.7.0/Gaussian/g16c01-CUDA-11.7.0/g16/l1101.exe)
 Using compressed storage, NAtomX=    12.
 Will process     13 centers per pass.
 R6Disp: Adding Grimme-D2 dispersion energy 1st derivatives to the gradient.
 Leave Link 1101 at Fri May 23 04:14:02 2025, MaxMem=  3758096384 cpu:               0.8 elap:               0.2
 (Enter /apps/easybuild-2022/easybuild/software/Compiler/NVHPC/22.11-CUDA-11.7.0/Gaussian/g16c01-CUDA-11.7.0/g16/l1102.exe)
 Symmetrizing basis deriv contribution to polar:
 IMax=3 JMax=2 DiffMx= 0.00D+00
 Leave Link 1102 at Fri May 23 04:14:02 2025, MaxMem=  3758096384 cpu:               0.1 elap:               0.0
 (Enter /apps/easybuild-2022/easybuild/software/Compiler/NVHPC/22.11-CUDA-11.7.0/Gaussian/g16c01-CUDA-11.7.0/g16/l1110.exe)
 Forming Gx(P) for the SCF density, NAtomX=    12.
 Integral derivatives from FoFJK, PRISM(SPDF).
 Do as many integral derivatives as possible in FoFJK.
 G2DrvN: MDV=    3758095012.
 G2DrvN: will do    13 centers at a time, making    1 passes.
 Calling FoFCou, ICntrl=  3107 FMM=F I1Cent=   0 AccDes= 0.00D+00.
 FoFJK:  IHMeth= 1 ICntrl=    3107 DoSepK=T KAlg= 0 I1Cent=           0 FoldK=F
 IRaf=         1 NMat=       1 IRICut=       1 DoRegI=T DoRafI=F ISym2E= 0 IDoP0=0 IntGTp=1.
 FoFCou: FMM=F IPFlag=           0 FMFlag=      100000 FMFlg1=           0
         NFxFlg=           0 DoJE=F BraDBF=F KetDBF=F FulRan=T
         wScrn=  0.000000 ICntrl=      3507 IOpCl=  0 I1Cent=           0 NGrid=           0
         NMat0=    1 NMatS0=      1 NMatT0=    0 NMatD0=    1 NMtDS0=    0 NMtDT0=    0
 Symmetry not used in FoFCou.
 End of G2Drv F.D. properties file   721 does not exist.
 End of G2Drv F.D. properties file   722 does not exist.
 End of G2Drv F.D. properties file   788 does not exist.
 Leave Link 1110 at Fri May 23 04:14:15 2025, MaxMem=  3758096384 cpu:             108.8 elap:              13.8
 (Enter /apps/easybuild-2022/easybuild/software/Compiler/NVHPC/22.11-CUDA-11.7.0/Gaussian/g16c01-CUDA-11.7.0/g16/l1002.exe)
 Minotr:  Closed shell wavefunction.
          IDoAtm=111111111111
          Direct CPHF calculation.
          Differentiating once with respect to nuclear coordinates.
          Requested convergence is 1.0D-08 RMS, and 1.0D-07 maximum.
          Secondary convergence is 1.0D-12 RMS, and 1.0D-12 maximum.
          NewPWx=T KeepS1=F KeepF1=F KeepIn=T MapXYZ=F SortEE=F KeepMc=T.
         3724 words used for storage of precomputed grid.
 Keep R1 ints in memory in canonical form, NReq=1117480316.
 FoFCou: FMM=F IPFlag=           0 FMFlag=           0 FMFlg1=           0
         NFxFlg=           0 DoJE=F BraDBF=F KetDBF=F FulRan=T
         wScrn=  0.000000 ICntrl=       600 IOpCl=  0 I1Cent=           0 NGrid=           0
         NMat0=    1 NMatS0=  33153 NMatT0=    0 NMatD0=    1 NMtDS0=    0 NMtDT0=    0
 Symmetry not used in FoFCou.
 Two-electron integral symmetry not used.
          MDV=    3758096384 using IRadAn=       1.
          Solving linear equations simultaneously, MaxMat=       0.
          There are    39 degrees of freedom in the 1st order CPHF.  IDoFFX=6 NUNeed=     0.
     33 vectors produced by pass  0 Test12= 2.61D-14 2.56D-09 XBig12= 2.74D-01 8.71D-02.
 AX will form    33 AO Fock derivatives at one time.
     33 vectors produced by pass  1 Test12= 2.61D-14 2.56D-09 XBig12= 2.94D-02 2.21D-02.
     33 vectors produced by pass  2 Test12= 2.61D-14 2.56D-09 XBig12= 1.40D-03 5.23D-03.
     33 vectors produced by pass  3 Test12= 2.61D-14 2.56D-09 XBig12= 2.31D-05 9.13D-04.
     33 vectors produced by pass  4 Test12= 2.61D-14 2.56D-09 XBig12= 3.17D-07 7.42D-05.
     33 vectors produced by pass  5 Test12= 2.61D-14 2.56D-09 XBig12= 3.31D-09 7.56D-06.
     33 vectors produced by pass  6 Test12= 2.61D-14 2.56D-09 XBig12= 2.77D-11 7.18D-07.
     24 vectors produced by pass  7 Test12= 2.61D-14 2.56D-09 XBig12= 2.00D-13 4.67D-08.
      5 vectors produced by pass  8 Test12= 2.61D-14 2.56D-09 XBig12= 1.24D-15 3.71D-09.
 InvSVY:  IOpt=1 It=  1 EMax= 1.11D-15
 Solved reduced A of dimension   260 with    33 vectors.
 End of Minotr F.D. properties file   721 does not exist.
 End of Minotr F.D. properties file   722 does not exist.
 End of Minotr F.D. properties file   788 does not exist.
 Leave Link 1002 at Fri May 23 04:14:42 2025, MaxMem=  3758096384 cpu:             204.7 elap:              26.3
 (Enter /apps/easybuild-2022/easybuild/software/Compiler/NVHPC/22.11-CUDA-11.7.0/Gaussian/g16c01-CUDA-11.7.0/g16/l701.exe)
 ... and contract with generalized density number  0.
 Compute integral second derivatives.
 R6Disp: Adding Grimme-D2 dispersion energy 2nd derivatives to the Hessian.
 Leave Link  701 at Fri May 23 04:14:42 2025, MaxMem=  3758096384 cpu:               0.8 elap:               0.2
 (Enter /apps/easybuild-2022/easybuild/software/Compiler/NVHPC/22.11-CUDA-11.7.0/Gaussian/g16c01-CUDA-11.7.0/g16/l702.exe)
 L702 exits ... SP integral derivatives will be done elsewhere.
 Leave Link  702 at Fri May 23 04:14:42 2025, MaxMem=  3758096384 cpu:               0.1 elap:               0.0
 (Enter /apps/easybuild-2022/easybuild/software/Compiler/NVHPC/22.11-CUDA-11.7.0/Gaussian/g16c01-CUDA-11.7.0/g16/l703.exe)
 Integral derivatives from FoFJK, PRISM(SPDF).
 Compute integral second derivatives, UseDBF=F ICtDFT=           0.
 Calling FoFJK, ICntrl=    100127 FMM=F ISym2X=0 I1Cent= 0 IOpClX= 0 NMat=1 NMatS=1 NMatT=0.
 FoFJK:  IHMeth= 1 ICntrl=  100127 DoSepK=T KAlg= 0 I1Cent=           0 FoldK=F
 IRaf=         1 NMat=       1 IRICut=       1 DoRegI=T DoRafI=F ISym2E= 0 IDoP0=0 IntGTp=1.
 FoFCou: FMM=F IPFlag=           0 FMFlag=      100000 FMFlg1=         800
         NFxFlg=           0 DoJE=F BraDBF=F KetDBF=F FulRan=T
         wScrn=  0.000000 ICntrl=    100527 IOpCl=  0 I1Cent=           0 NGrid=           0
         NMat0=    1 NMatS0=      1 NMatT0=    0 NMatD0=    1 NMtDS0=    0 NMtDT0=    0
 Symmetry not used in FoFCou.
 Leave Link  703 at Fri May 23 04:15:20 2025, MaxMem=  3758096384 cpu:             299.5 elap:              37.8
 (Enter /apps/easybuild-2022/easybuild/software/Compiler/NVHPC/22.11-CUDA-11.7.0/Gaussian/g16c01-CUDA-11.7.0/g16/l716.exe)
 Dipole        =-2.59192285D-03-1.12056409D-01-9.84104370D-01
 Polarizability= 0.00000000D+00 0.00000000D+00 0.00000000D+00
                 0.00000000D+00 0.00000000D+00 0.00000000D+00
 -------------------------------------------------------------------
 Center     Atomic                   Forces (Hartrees/Bohr)
 Number     Number              X              Y              Z
 -------------------------------------------------------------------
      1        6           0.000151902   -0.001049918    0.001778051
      2        6           0.004483270   -0.000423968    0.002349226
      3        9           0.013113640    0.000413004    0.002309805
      4        9           0.012651774    0.001947901    0.003335650
      5       16          -0.007815073    0.003648738   -0.009253625
      6        8          -0.009399796    0.001087334   -0.003811903
      7        8          -0.010259981   -0.001239752   -0.004157287
      8        8           0.004653358    0.003260803   -0.001680083
      9        9          -0.003477970   -0.003425468    0.002361814
     10        9          -0.003827892   -0.001783879    0.003360739
     11        9           0.000228981   -0.002141959    0.003824878
     12        1          -0.000502212   -0.000292835   -0.000417265
 -------------------------------------------------------------------
 Cartesian Forces:  Max     0.013113640 RMS     0.004955778
 Force constants in Cartesian coordinates: 
                1             2             3             4             5 
      1  0.568596D+00
      2  0.147842D-01  0.580161D+00
      3 -0.225007D-01 -0.217178D-01  0.593911D+00
      4 -0.891685D-01 -0.402148D-01  0.450675D-01  0.382992D+00
      5 -0.553950D-01 -0.860478D-01  0.637257D-01 -0.176711D-01  0.533614D+00
      6  0.711289D-01  0.706028D-01 -0.124617D+00 -0.301613D-01 -0.320052D-01
      7  0.167556D-02  0.551309D-02  0.100541D-01 -0.733040D-01 -0.175408D-01
      8  0.130757D-02  0.213328D-02  0.141269D-03 -0.892938D-02 -0.102235D+00
      9 -0.149662D-01 -0.331343D-01 -0.456963D-01 -0.180768D-01 -0.691455D-01
     10 -0.101043D-02  0.248967D-03  0.645239D-03 -0.115057D+00  0.100943D+00
     11  0.295190D-01 -0.429007D-01 -0.294800D-03  0.804441D-01 -0.257052D+00
     12 -0.179520D-01  0.224191D-01  0.260714D-02 -0.132225D-01  0.364499D-01
     13 -0.189310D-01 -0.212889D-01  0.171243D-01 -0.967214D-01  0.221033D-02
     14 -0.215742D-01  0.192125D-01  0.269228D-02 -0.244287D-01 -0.409392D-01
     15  0.189317D-01  0.388726D-02  0.269678D-01  0.136270D-01  0.515771D-02
     16  0.642504D-03  0.671781D-02 -0.311132D-02  0.177381D-01 -0.111805D-01
     17  0.150051D-02 -0.186081D-02 -0.503573D-02  0.176216D-01 -0.310397D-02
     18 -0.281435D-02 -0.765531D-03 -0.123959D-01  0.144628D-01 -0.108072D-01
     19  0.117254D-02  0.352014D-02 -0.726873D-02  0.199956D-01  0.152384D-01
     20  0.543824D-02 -0.104798D-01  0.288860D-02 -0.104527D-01 -0.238091D-02
     21 -0.242816D-02  0.369097D-03 -0.382577D-02 -0.312793D-02  0.128258D-02
     22 -0.233260D-02  0.596859D-02 -0.969509D-02 -0.337509D-02 -0.171929D-01
     23  0.139367D-02 -0.512797D-03 -0.292766D-02  0.403731D-02 -0.488124D-04
     24 -0.169710D-02 -0.401275D-02  0.362848D-02 -0.912919D-02  0.926359D-02
     25 -0.101119D+00  0.679210D-01 -0.878353D-02  0.545761D-02 -0.873817D-03
     26  0.612151D-01 -0.269486D+00  0.390480D-01  0.253198D-01 -0.401074D-01
     27 -0.536915D-02  0.323321D-01 -0.851446D-01 -0.113155D-01  0.220330D-01
     28 -0.774706D-01 -0.525542D-02 -0.178206D-02  0.712274D-02  0.794254D-02
     29 -0.355677D-02 -0.108395D+00 -0.768272D-01 -0.994971D-04  0.271329D-02
     30  0.287775D-02 -0.680864D-01 -0.272802D+00 -0.750593D-02 -0.316552D-01
     31 -0.281301D+00 -0.379756D-01 -0.195010D-01 -0.543102D-01 -0.577609D-02
     32 -0.339484D-01 -0.830815D-01 -0.437343D-03 -0.246201D-01 -0.121122D-02
     33 -0.259401D-01 -0.200913D-02 -0.821672D-01  0.184583D-01  0.365359D-02
     34 -0.753186D-03  0.609360D-04 -0.248639D-03 -0.137002D-02 -0.703866D-03
     35 -0.683816D-03  0.125798D-02 -0.125518D-02 -0.100649D-02 -0.320109D-02
     36  0.729398D-03  0.115548D-03 -0.465384D-03  0.923529D-03  0.204691D-02
                6             7             8             9            10 
      6  0.558351D+00
      7 -0.333414D-01  0.599179D-01
      8 -0.817367D-01  0.453833D-02  0.150713D+00
      9 -0.268022D+00  0.201760D-01  0.137001D+00  0.333922D+00
     10 -0.179353D-01  0.961781D-02  0.103046D-01  0.988915D-02  0.111463D+00
     11  0.446165D-01  0.189135D-01 -0.549828D-01 -0.376858D-01 -0.129322D+00
     12 -0.804851D-01  0.187052D-01 -0.538969D-01 -0.216071D-02  0.986343D-02
     13 -0.283899D-01  0.754119D-02  0.402449D-02  0.112710D-01 -0.635524D-03
     14 -0.302347D-02 -0.103401D-01 -0.513681D-02 -0.943945D-02  0.347341D-01
     15 -0.358695D-01 -0.236819D-01 -0.114038D-01 -0.241510D-01 -0.349014D-02
     16 -0.347256D-02 -0.755677D-02 -0.437233D-02 -0.783943D-02 -0.166944D-02
     17  0.469377D-03 -0.349356D-02 -0.994372D-03 -0.207616D-02 -0.669449D-02
     18  0.356750D-02 -0.428968D-02 -0.205416D-02 -0.233993D-02 -0.294298D-02
     19  0.122572D-01 -0.271542D-02 -0.407655D-02 -0.550075D-02 -0.111669D-01
     20 -0.836253D-02  0.273859D-02  0.420547D-02  0.487998D-02  0.188984D-02
     21  0.219161D-02  0.203936D-02  0.159907D-02  0.374524D-02 -0.116533D-02
     22  0.265938D-01 -0.881995D-03 -0.136647D-02 -0.158073D-02 -0.109782D-02
     23  0.100431D-01  0.397021D-03  0.280970D-03  0.537798D-03 -0.517784D-02
     24 -0.245617D-01  0.195310D-02  0.245574D-02  0.112506D-01  0.381252D-02
     25  0.723392D-03  0.917961D-03 -0.857037D-03  0.735264D-03  0.181174D-02
     26 -0.385317D-02 -0.173349D-02  0.414242D-02  0.451408D-02 -0.405357D-02
     27  0.393055D-02  0.191716D-03  0.196994D-02  0.197780D-02  0.135389D-02
     28  0.105474D-01 -0.149178D-03 -0.102167D-02  0.536637D-02  0.110951D-02
     29  0.128721D-02 -0.543349D-04  0.118878D-02  0.382834D-02 -0.112148D-02
     30 -0.399569D-01  0.577996D-02  0.458527D-02 -0.118226D-01  0.102446D-03
     31 -0.132300D-01  0.422828D-02  0.612133D-03  0.245908D-02  0.575816D-02
     32 -0.398558D-02  0.120671D-02  0.135793D-02  0.243094D-02 -0.226476D-02
     33  0.375058D-02  0.230456D-02  0.166960D-02  0.410042D-02  0.949396D-03
     34  0.527968D-02  0.708627D-03 -0.163655D-03 -0.193306D-02  0.876668D-03
     35  0.594769D-02 -0.144922D-03 -0.673085D-03 -0.171069D-02  0.514212D-03
     36  0.172120D-02  0.108916D-03 -0.330019D-03 -0.803563D-03 -0.108235D-02
               11            12            13            14            15 
     11  0.360050D+00
     12 -0.187079D-01  0.797927D-01
     13 -0.143495D-02  0.789038D-03  0.505147D+00
     14 -0.175230D-01  0.707328D-02 -0.164731D+00  0.968068D+00
     15  0.684926D-03 -0.100815D-02 -0.580621D-02  0.238826D+00  0.765950D+00
     16  0.217477D-02  0.164003D-03 -0.965100D-01 -0.482125D-01 -0.625628D-01
     17  0.685028D-02 -0.355371D-03 -0.387112D-01 -0.312330D+00 -0.285230D+00
     18  0.410004D-02  0.795461D-03 -0.495750D-01 -0.283011D+00 -0.419332D+00
     19  0.540343D-02 -0.177055D-02 -0.220296D+00  0.243570D+00  0.557253D-02
     20  0.607278D-03 -0.134237D-04  0.223784D+00 -0.492719D+00 -0.131199D-01
     21  0.713627D-03  0.413763D-03  0.631026D-02 -0.969655D-02 -0.868045D-01
     22  0.247821D-02 -0.310476D-03 -0.845506D-01 -0.156245D-01  0.524973D-01
     23  0.481076D-02 -0.165548D-02 -0.560630D-03 -0.117184D+00  0.478347D-01
     24 -0.432822D-02  0.266367D-02  0.354000D-01  0.762076D-01 -0.180685D+00
     25 -0.294729D-02  0.179925D-02 -0.174147D-02  0.765962D-02 -0.146655D-02
     26 -0.817845D-02  0.819482D-02  0.710872D-02 -0.628133D-02 -0.139578D-03
     27  0.717036D-02 -0.440729D-02 -0.231901D-02 -0.675840D-03 -0.335250D-02
     28 -0.251757D-02  0.558083D-03  0.151914D-02 -0.484499D-03 -0.483005D-02
     29  0.454626D-02  0.137294D-02  0.111892D-02 -0.511011D-02 -0.396343D-02
     30  0.399447D-02  0.130843D-02 -0.482210D-02 -0.338567D-02 -0.782853D-02
     31 -0.222401D-02  0.178552D-02  0.943940D-02  0.823919D-03  0.269846D-02
     32  0.342271D-02 -0.555039D-03  0.497026D-02 -0.301366D-02  0.213755D-02
     33 -0.367891D-04  0.564442D-03 -0.332691D-02  0.802116D-03 -0.520082D-02
     34 -0.486738D-03 -0.409039D-03 -0.425999D-02 -0.139190D-02  0.851071D-02
     35  0.350181D-03 -0.325882D-03 -0.164903D-01  0.129570D-01  0.153292D-01
     36 -0.226382D-03 -0.844201D-04  0.233446D-01 -0.163685D-01 -0.286862D-01
               16            17            18            19            20 
     16  0.600064D-01
     17  0.353665D-01  0.312330D+00
     18  0.507788D-01  0.308027D+00  0.443363D+00
     19  0.173320D-01 -0.249973D-02 -0.641105D-02  0.186563D+00
     20  0.217974D-01 -0.151907D-01 -0.906744D-04 -0.256602D+00  0.529266D+00
     21  0.141880D-01 -0.335245D-01  0.642149D-02 -0.168999D-02  0.717901D-02
     22  0.140350D-01  0.422659D-04  0.707851D-02  0.162417D-01  0.118494D-01
     23  0.317743D-02  0.124115D-01 -0.200834D-01 -0.184539D-02 -0.185125D-01
     24  0.970802D-02  0.106400D-01 -0.250737D-01  0.261960D-02  0.990363D-02
     25  0.656338D-03 -0.113290D-02 -0.410538D-03 -0.208349D-02 -0.489874D-02
     26 -0.227997D-02  0.738347D-03  0.542104D-04 -0.304407D-02  0.460196D-02
     27  0.516359D-03  0.678526D-03  0.152262D-02  0.193084D-02 -0.785040D-04
     28 -0.293009D-02 -0.602515D-03  0.260277D-02 -0.327670D-03  0.256472D-03
     29 -0.229369D-02  0.135930D-02  0.263242D-02 -0.242534D-04  0.199034D-02
     30  0.154191D-02  0.260664D-02  0.504181D-02  0.201778D-02  0.378059D-03
     31 -0.225374D-02 -0.151834D-02 -0.160182D-02 -0.267896D-02  0.575212D-03
     32 -0.137741D-02 -0.162203D-03 -0.826746D-03 -0.143800D-02  0.194860D-02
     33  0.773521D-03  0.832450D-03  0.228804D-02  0.126738D-02 -0.982257D-03
     34  0.509647D-03  0.121850D-03 -0.687744D-02 -0.203554D-02  0.362383D-02
     35  0.482524D-03 -0.472765D-04  0.282570D-02  0.179800D-02 -0.333705D-02
     36 -0.684475D-03  0.296835D-02 -0.385887D-02 -0.302430D-02 -0.258202D-02
               21            22            23            24            25 
     21  0.689527D-01
     22 -0.132033D-01  0.248668D+00
     23  0.344179D-01 -0.168033D+00  0.301930D+00
     24  0.164552D-04 -0.234580D+00  0.653132D-01  0.394619D+00
     25  0.139285D-02  0.924873D-03 -0.729557D-03  0.422904D-03  0.137084D+00
     26 -0.813469D-04 -0.203316D-02  0.331407D-03  0.100929D-02 -0.131913D+00
     27  0.913561D-03  0.101749D-02  0.271224D-03 -0.131762D-03  0.122580D-01
     28  0.527100D-03  0.203644D-03 -0.967920D-04  0.843422D-03  0.100029D-01
     29  0.417293D-03 -0.389432D-04  0.483646D-03  0.499369D-03  0.144797D-01
     30  0.124568D-02  0.192242D-02  0.913696D-03  0.148422D-03  0.975193D-02
     31  0.205157D-03 -0.413199D-02 -0.166484D-02  0.415425D-02 -0.520743D-01
     32 -0.260187D-03 -0.221448D-02 -0.229772D-03  0.154051D-02  0.530752D-01
     33  0.725605D-03  0.198801D-02  0.457797D-03 -0.472041D-03 -0.161263D-01
     34 -0.304807D-02 -0.183703D+00  0.169102D+00  0.186493D+00  0.163168D-03
     35 -0.241601D-02  0.186165D+00 -0.183761D+00 -0.168492D+00  0.216457D-03
     36  0.600413D-02  0.168272D+00 -0.135123D+00 -0.181402D+00 -0.296694D-03
               26            27            28            29            30 
     26  0.369135D+00
     27 -0.185429D-01  0.775250D-01
     28  0.158853D-01  0.147097D-01  0.811703D-01
     29 -0.528853D-01 -0.540422D-01  0.107785D-01  0.152290D+00
     30 -0.369265D-01 -0.258510D-02  0.268847D-01  0.146819D+00  0.352731D+00
     31  0.354782D-01 -0.128644D-01 -0.204269D-01 -0.192326D-01 -0.383308D-01
     32 -0.162685D-02  0.886319D-02 -0.249174D-01  0.192609D-02 -0.192757D-01
     33  0.681510D-02  0.966060D-02 -0.552612D-01 -0.219922D-01 -0.255360D-01
     34  0.498250D-04 -0.110027D-03  0.176166D-03  0.444215D-04 -0.220050D-03
     35 -0.383429D-03  0.211357D-04  0.330993D-04 -0.106921D-03  0.325785D-04
     36 -0.919164D-04  0.910929D-04 -0.166323D-03 -0.312447D-04  0.560089D-04
               31            32            33            34            35 
     31  0.397859D+00
     32  0.316415D-01  0.811152D-01
     33  0.748837D-01  0.105386D-01  0.922188D-01
     34 -0.107744D-03 -0.113043D-03  0.296279D-04  0.189795D+00
     35 -0.739451D-03 -0.445312D-03  0.251110D-03 -0.170144D+00  0.177390D+00
     36 -0.658213D-03 -0.170187D-03  0.675704D-04 -0.187466D+00  0.149792D+00
               36 
     36  0.207360D+00
 FormGI is forming the generalized inverse of G from B-inverse, IUseBI=4.
 Leave Link  716 at Fri May 23 04:15:20 2025, MaxMem=  3758096384 cpu:               0.1 elap:               0.0
 (Enter /apps/easybuild-2022/easybuild/software/Compiler/NVHPC/22.11-CUDA-11.7.0/Gaussian/g16c01-CUDA-11.7.0/g16/l103.exe)

 GradGradGradGradGradGradGradGradGradGradGradGradGradGradGradGradGradGrad
 Berny optimization.
 Red2BG is reusing G-inverse.
 Internal  Forces:  Max     0.026476905 RMS     0.007400523
 Search for a local minimum.
 Step number   1 out of a maximum of   61
 All quantities printed in internal units (Hartrees-Bohrs-Radians)
 RMS Force = .74005D-02 SwitMx=.10000D-02 MixMth= 1
 Mixed Optimization -- RFO/linear search
 Second derivative matrix not updated -- analytic derivatives used.
 ITU=  0
     Eigenvalues ---   -0.00019   0.00097   0.00417   0.04735   0.07128
     Eigenvalues ---    0.08955   0.09193   0.10399   0.10529   0.11012
     Eigenvalues ---    0.11313   0.12620   0.14576   0.15012   0.18213
     Eigenvalues ---    0.22952   0.23372   0.23837   0.27016   0.28401
     Eigenvalues ---    0.33492   0.36530   0.39770   0.40349   0.41091
     Eigenvalues ---    0.48541   0.53159   0.55616   0.66964   0.70225
 Eigenvalue     1 is  -1.90D-04 should be greater than     0.000000 Eigenvector:
                          D17       D14       D16       D11       D13
   1                    0.26474   0.26384   0.26284   0.26211   0.26194
                          D10       D18       D15       D12       D9
   1                    0.26020   0.25270   0.25179   0.25006   0.19574
 RFO step:  Lambda=-1.72748208D-02 EMin=-1.89816930D-04
 Linear search not attempted -- first point.
 Maximum step size (   0.300) exceeded in Quadratic search.
    -- Step size scaled by   0.834
 Iteration  1 RMS(Cart)=  0.17193937 RMS(Int)=  0.01497659
 Iteration  2 RMS(Cart)=  0.01841898 RMS(Int)=  0.00101320
 Iteration  3 RMS(Cart)=  0.00016376 RMS(Int)=  0.00100283
 Iteration  4 RMS(Cart)=  0.00000028 RMS(Int)=  0.00100283
 ITry= 1 IFail=0 DXMaxC= 4.92D-01 DCOld= 1.00D+10 DXMaxT= 3.00D-01 DXLimC= 3.00D+00 Rises=F
 Variable       Old X    -DE/DX   Delta X   Delta X   Delta X     New X
                                 (Linear)    (Quad)   (Total)
    R1        2.88509   0.01571   0.00000   0.04004   0.04004   2.92513
    R2        2.50709   0.00175   0.00000  -0.00520  -0.00520   2.50189
    R3        2.50513   0.00174   0.00000   0.00488   0.00488   2.51000
    R4        2.51064  -0.00091   0.00000   0.00017   0.00017   2.51081
    R5        2.52334  -0.00373   0.00000   0.00220   0.00220   2.52554
    R6        2.51611  -0.00414   0.00000  -0.00098  -0.00098   2.51512
    R7        3.76835  -0.02648   0.00000  -0.22066  -0.22066   3.54768
    R8        2.70472  -0.00334   0.00000  -0.00879  -0.00879   2.69594
    R9        2.72254  -0.00388   0.00000  -0.00861  -0.00861   2.71393
   R10        3.03360   0.00407   0.00000  -0.00418  -0.00418   3.02942
   R11        1.82460   0.00010   0.00000   0.00026   0.00026   1.82486
    A1        1.90393   0.00655   0.00000   0.02331   0.02317   1.92710
    A2        1.90606   0.00652   0.00000   0.01167   0.01151   1.91757
    A3        1.90770   0.00451   0.00000  -0.00671  -0.00666   1.90103
    A4        1.90875  -0.00476   0.00000  -0.00160  -0.00192   1.90682
    A5        1.91802  -0.00630   0.00000  -0.01392  -0.01387   1.90415
    A6        1.91925  -0.00633   0.00000  -0.01229  -0.01226   1.90699
    A7        1.89544   0.00198   0.00000  -0.00013   0.00098   1.89643
    A8        1.89957   0.00189   0.00000   0.00518   0.00673   1.90631
    A9        1.90672   0.01418   0.00000   0.07838   0.07908   1.98580
   A10        1.87821   0.00721   0.00000   0.02841   0.02630   1.90451
   A11        1.93882  -0.01254   0.00000  -0.04777  -0.04899   1.88984
   A12        1.94399  -0.01238   0.00000  -0.06314  -0.06428   1.87971
   A13        1.92717  -0.00968   0.00000  -0.03845  -0.03945   1.88771
   A14        1.97087  -0.01247   0.00000  -0.07955  -0.08087   1.89000
   A15        1.61404   0.01356   0.00000   0.07972   0.08110   1.69514
   A16        2.09557   0.01255   0.00000   0.05685   0.05419   2.14977
   A17        1.90210  -0.00227   0.00000  -0.02234  -0.02125   1.88085
   A18        1.89116  -0.00098   0.00000   0.01225   0.01485   1.90602
   A19        1.91688   0.00015   0.00000   0.00297   0.00297   1.91985
    D1        1.07357  -0.00644   0.00000  -0.17881  -0.17857   0.89500
    D2        3.11355   0.00429   0.00000  -0.14218  -0.14268   2.97087
    D3       -1.04360  -0.00095   0.00000  -0.16795  -0.16799  -1.21159
    D4       -3.12433  -0.00443   0.00000  -0.15993  -0.15949   2.99936
    D5       -1.08435   0.00629   0.00000  -0.12331  -0.12361  -1.20795
    D6        1.04169   0.00105   0.00000  -0.14907  -0.14892   0.89277
    D7       -1.02398  -0.00545   0.00000  -0.17191  -0.17157  -1.19555
    D8        1.01600   0.00528   0.00000  -0.13529  -0.13568   0.88032
    D9       -3.14115   0.00004   0.00000  -0.16106  -0.16099   2.98104
   D10       -1.24894   0.00177   0.00000  -0.19197  -0.19279  -1.44174
   D11        1.15177  -0.00223   0.00000  -0.22791  -0.22626   0.92550
   D12        3.09140   0.00044   0.00000  -0.19358  -0.19395   2.89746
   D13        2.94361  -0.00201   0.00000  -0.21255  -0.21245   2.73116
   D14       -0.93887  -0.00601   0.00000  -0.24848  -0.24591  -1.18478
   D15        1.00077  -0.00334   0.00000  -0.21416  -0.21360   0.78717
   D16        0.85007   0.00561   0.00000  -0.17397  -0.17618   0.67389
   D17       -3.03241   0.00161   0.00000  -0.20991  -0.20964   3.04113
   D18       -1.09277   0.00428   0.00000  -0.17558  -0.17733  -1.27010
   D19       -1.98200   0.00133   0.00000   0.20153   0.20083  -1.78117
   D20        2.33608   0.00687   0.00000   0.21595   0.21630   2.55238
   D21        0.02788  -0.00700   0.00000   0.14950   0.14985   0.17773
         Item               Value     Threshold  Converged?
 Maximum Force            0.026477     0.000450     NO 
 RMS     Force            0.007401     0.000300     NO 
 Maximum Displacement     0.491993     0.001800     NO 
 RMS     Displacement     0.178817     0.001200     NO 
 Predicted change in Energy=-9.755070D-03
 Lowest energy point so far.  Saving SCF results.
 GradGradGradGradGradGradGradGradGradGradGradGradGradGradGradGradGradGrad

 Leave Link  103 at Fri May 23 04:15:20 2025, MaxMem=  3758096384 cpu:               0.1 elap:               0.0
 (Enter /apps/easybuild-2022/easybuild/software/Compiler/NVHPC/22.11-CUDA-11.7.0/Gaussian/g16c01-CUDA-11.7.0/g16/l202.exe)
                          Input orientation:                          
 ---------------------------------------------------------------------
 Center     Atomic      Atomic             Coordinates (Angstroms)
 Number     Number       Type             X           Y           Z
 ---------------------------------------------------------------------
      1          6           0       -1.184520   -0.694534    0.569791
      2          6           0       -0.446676    0.212124   -0.444896
      3          9           0       -0.529589   -0.346214   -1.656300
      4          9           0       -1.034307    1.405968   -0.473967
      5         16           0        1.367526    0.478612   -0.042268
      6          8           0        1.459342    1.521710    0.926642
      7          8           0        1.985362   -0.806870    0.126067
      8          8           0        1.798353    1.089146   -1.460568
      9          9           0       -0.758088   -1.943789    0.468117
     10          9           0       -0.969300   -0.257482    1.805460
     11          9           0       -2.487519   -0.657622    0.312529
     12          1           0        2.250661    0.416844   -1.985880
 ---------------------------------------------------------------------
                    Distance matrix (angstroms):
                    1          2          3          4          5
     1  C    0.000000
     2  C    1.547913   0.000000
     3  F    2.346432   1.336456   0.000000
     4  F    2.350341   1.330947   2.173199   0.000000
     5  S    2.874687   1.877353   2.623830   2.610585   0.000000
     6  O    3.468297   2.688686   3.757203   2.862409   1.426628
     7  O    3.202758   2.697991   3.116732   3.791450   1.436149
     8  O    4.025097   2.615513   2.741876   3.016243   1.603102
     9  F    1.323941   2.361891   2.667884   3.490657   3.262937
    10  F    1.328236   2.357492   3.490702   2.822601   3.068662
    11  F    1.328665   2.344183   2.794056   2.643634   4.034635
    12  H    4.423470   3.113224   2.901840   3.749035   2.135737
                    6          7          8          9         10
     6  O    0.000000
     7  O    2.517916   0.000000
     8  O    2.449655   2.479367   0.000000
     9  F    4.139676   2.989331   4.410659   0.000000
    10  F    3.136263   3.442704   4.487788   2.162574   0.000000
    11  F    4.550201   4.479252   4.956185   2.160871   2.166551
    12  H    3.213984   2.455236   0.965673   4.543926   5.019674
                   11         12
    11  F    0.000000
    12  H    5.374710   0.000000
 Symmetry turned off by external request.
 Stoichiometry    C2HF5O3S
 Rotational constants (GHZ):           1.5903033           0.8254372           0.7801340
 Leave Link  202 at Fri May 23 04:15:20 2025, MaxMem=  3758096384 cpu:               0.1 elap:               0.0
 (Enter /apps/easybuild-2022/easybuild/software/Compiler/NVHPC/22.11-CUDA-11.7.0/Gaussian/g16c01-CUDA-11.7.0/g16/l301.exe)
 Standard basis: 6-311++G(d,p) (5D, 7F)
 Ernie: Thresh=  0.10000D-02 Tol=  0.10000D-05 Strict=F.
   257 basis functions,   419 primitive gaussians,   268 cartesian basis functions
    49 alpha electrons       49 beta electrons
       nuclear repulsion energy       923.0796646302 Hartrees.
 IExCor= 4639 DFT=T Ex+Corr=wB97XD ExCW=0 ScaHFX=  1.000000
 ScaDFX=  1.000000  1.000000  1.000000  1.000000 ScalE2=  1.000000  1.000000
 IRadAn=      5 IRanWt=     -1 IRanGd=            0 ICorTp=0 IEmpDi=121
 HFx  wShort=  0.000000 wLong=  0.200000 cFull=  0.222036 cShort=  0.000000 cLong=  0.777964
 DFx  wShort=  0.000000 wLong=  0.200000 cFull=  0.000000 cShort=  0.000000 cLong=  1.000000
 NAtoms=   12 NActive=   12 NUniq=   12 SFac= 1.00D+00 NAtFMM=   60 NAOKFM=F Big=F
 Integral buffers will be    131072 words long.
 Raffenetti 2 integral format.
 Two-electron integral symmetry is turned off.
 R6Disp:  Grimme-D2 Dispersion energy=       -0.0055211298 Hartrees.
 Nuclear repulsion after empirical dispersion term =      923.0741435003 Hartrees.
 Leave Link  301 at Fri May 23 04:15:20 2025, MaxMem=  3758096384 cpu:               0.1 elap:               0.0
 (Enter /apps/easybuild-2022/easybuild/software/Compiler/NVHPC/22.11-CUDA-11.7.0/Gaussian/g16c01-CUDA-11.7.0/g16/l302.exe)
 NPDir=0 NMtPBC=     1 NCelOv=     1 NCel=       1 NClECP=     1 NCelD=      1
         NCelK=      1 NCelE2=     1 NClLst=     1 CellRange=     0.0.
 One-electron integrals computed using PRISM.
 NBasis=   257 RedAO= T EigKep=  7.00D-05  NBF=   257
 NBsUse=   257 1.00D-06 EigRej= -1.00D+00 NBFU=   257
 Precomputing XC quadrature grid using
 IXCGrd= 4 IRadAn=           5 IRanWt=          -1 IRanGd=           0 AccXCQ= 0.00D+00.
 Generated NRdTot=       0 NPtTot=           0 NUsed=           0 NTot=          32
 NSgBfM=   268   268   268   268   268 MxSgAt=    12 MxSgA2=    12.
 Leave Link  302 at Fri May 23 04:15:20 2025, MaxMem=  3758096384 cpu:               0.8 elap:               0.2
 (Enter /apps/easybuild-2022/easybuild/software/Compiler/NVHPC/22.11-CUDA-11.7.0/Gaussian/g16c01-CUDA-11.7.0/g16/l303.exe)
 DipDrv:  MaxL=1.
 Leave Link  303 at Fri May 23 04:15:20 2025, MaxMem=  3758096384 cpu:               0.1 elap:               0.0
 (Enter /apps/easybuild-2022/easybuild/software/Compiler/NVHPC/22.11-CUDA-11.7.0/Gaussian/g16c01-CUDA-11.7.0/g16/l401.exe)
 Initial guess from the checkpoint file:  "2003846667223680600001_r12_insertion_R_1_2_5_IRC_F_prod.chk"
 B after Tr=     0.002099    0.042388    0.001532
         Rot=    0.999935   -0.009772    0.000867   -0.005787 Ang=  -1.31 deg.
 Guess basis will be translated and rotated to current coordinates.
 JPrj=2 DoOrth=T DoCkMO=T.
 Generating alternative initial guess.
 ExpMin= 3.60D-02 ExpMax= 9.34D+04 ExpMxC= 3.17D+03 IAcc=3 IRadAn=         5 AccDes= 0.00D+00
 Harris functional with IExCor= 4639 and IRadAn=       5 diagonalized for initial guess.
 HarFok:  IExCor= 4639 AccDes= 0.00D+00 IRadAn=         5 IDoV= 1 UseB2=F ITyADJ=14
 ICtDFT=  3500011 ScaDFX=  1.000000  1.000000  1.000000  1.000000
 FoFCou: FMM=F IPFlag=           0 FMFlag=      100000 FMFlg1=           0
         NFxFlg=           0 DoJE=T BraDBF=F KetDBF=T FulRan=T
         wScrn=  0.000000 ICntrl=       500 IOpCl=  0 I1Cent=   200000004 NGrid=           0
         NMat0=    1 NMatS0=      1 NMatT0=    0 NMatD0=    1 NMtDS0=    0 NMtDT0=    0
 Symmetry not used in FoFCou.
 Harris En= -1167.10203971471    
 Leave Link  401 at Fri May 23 04:15:21 2025, MaxMem=  3758096384 cpu:               2.9 elap:               0.5
 (Enter /apps/easybuild-2022/easybuild/software/Compiler/NVHPC/22.11-CUDA-11.7.0/Gaussian/g16c01-CUDA-11.7.0/g16/l502.exe)
 Keep R1 ints in memory in canonical form, NReq=1117474609.
 FoFCou: FMM=F IPFlag=           0 FMFlag=           0 FMFlg1=           0
         NFxFlg=           0 DoJE=F BraDBF=F KetDBF=F FulRan=T
         wScrn=  0.000000 ICntrl=       600 IOpCl=  0 I1Cent=           0 NGrid=           0
         NMat0=    1 NMatS0=  33153 NMatT0=    0 NMatD0=    1 NMtDS0=    0 NMtDT0=    0
 Symmetry not used in FoFCou.
 Two-electron integral symmetry not used.
 Closed shell SCF:
 Using DIIS extrapolation, IDIIS=  1040.
 NGot=  3758096384 LenX=  2658793876 LenY=  2658721611
 Requested convergence on RMS density matrix=1.00D-08 within  32 cycles.
 Requested convergence on MAX density matrix=1.00D-06.
 Requested convergence on             energy=1.00D-06.
 No special actions if energy rises.

 Cycle   1  Pass 1  IDiag  1:
 E= -1199.69775843005    
 DIIS: error= 1.11D-02 at cycle   1 NSaved=   1.
 NSaved= 1 IEnMin= 1 EnMin= -1199.69775843005     IErMin= 1 ErrMin= 1.11D-02
 ErrMax= 1.11D-02  0.00D+00 EMaxC= 1.00D-01 BMatC= 8.63D-02 BMatP= 8.63D-02
 IDIUse=3 WtCom= 8.89D-01 WtEn= 1.11D-01
 Coeff-Com:  0.100D+01
 Coeff-En:   0.100D+01
 Coeff:      0.100D+01
 Recover alternate guess density for next cycle.
 RMSDP=5.52D-03 MaxDP=2.02D-01              OVMax= 0.00D+00

 Cycle   2  Pass 1  IDiag  1:
 E= -1199.14688581374     Delta-E=        0.550872616314 Rises=F Damp=F
 Switch densities from cycles 1 and 2 for lowest energy.
 DIIS: error= 1.35D-01 at cycle   2 NSaved=   2.
 NSaved= 2 IEnMin= 1 EnMin= -1199.69775843005     IErMin= 1 ErrMin= 1.11D-02
 ErrMax= 1.35D-01  0.00D+00 EMaxC= 1.00D+00 BMatC= 3.33D+00 BMatP= 8.63D-02
 IDIUse=1 WtCom= 1.00D+00 WtEn= 0.00D+00
 Coeff-Com:  0.975D+00 0.245D-01
 Coeff:      0.975D+00 0.245D-01
 Gap=     0.492 Goal=   None    Shift=    0.000
 RMSDP=3.55D-03 MaxDP=1.55D-01 DE= 5.51D-01 OVMax= 1.16D-01

 Cycle   3  Pass 1  IDiag  1:
 E= -1199.81813745921     Delta-E=       -0.671251645473 Rises=F Damp=F
 DIIS: error= 3.47D-03 at cycle   3 NSaved=   3.
 NSaved= 3 IEnMin= 3 EnMin= -1199.81813745921     IErMin= 3 ErrMin= 3.47D-03
 ErrMax= 3.47D-03  0.00D+00 EMaxC= 1.00D+00 BMatC= 5.16D-03 BMatP= 8.63D-02
 IDIUse=1 WtCom= 1.00D+00 WtEn= 0.00D+00
 Coeff-Com: -0.800D-01 0.914D-02 0.107D+01
 Coeff:     -0.800D-01 0.914D-02 0.107D+01
 Gap=     0.484 Goal=   None    Shift=    0.000
 RMSDP=8.85D-04 MaxDP=2.72D-02 DE=-6.71D-01 OVMax= 2.34D-02

 Cycle   4  Pass 1  IDiag  1:
 E= -1199.82147583670     Delta-E=       -0.003338377486 Rises=F Damp=F
 DIIS: error= 4.05D-03 at cycle   4 NSaved=   4.
 NSaved= 4 IEnMin= 4 EnMin= -1199.82147583670     IErMin= 3 ErrMin= 3.47D-03
 ErrMax= 4.05D-03  0.00D+00 EMaxC= 1.00D+00 BMatC= 5.78D-03 BMatP= 5.16D-03
 IDIUse=1 WtCom= 1.00D+00 WtEn= 0.00D+00
 Coeff-Com: -0.931D-01 0.273D-02 0.604D+00 0.487D+00
 Coeff:     -0.931D-01 0.273D-02 0.604D+00 0.487D+00
 Gap=     0.468 Goal=   None    Shift=    0.000
 RMSDP=5.46D-04 MaxDP=3.39D-02 DE=-3.34D-03 OVMax= 1.20D-02

 Cycle   5  Pass 1  IDiag  1:
 E= -1199.82532329227     Delta-E=       -0.003847455573 Rises=F Damp=F
 DIIS: error= 4.80D-04 at cycle   5 NSaved=   5.
 NSaved= 5 IEnMin= 5 EnMin= -1199.82532329227     IErMin= 5 ErrMin= 4.80D-04
 ErrMax= 4.80D-04  0.00D+00 EMaxC= 1.00D+00 BMatC= 9.64D-05 BMatP= 5.16D-03
 IDIUse=1 WtCom= 1.00D+00 WtEn= 0.00D+00
 Coeff-Com: -0.942D-02-0.740D-03 0.138D-01 0.104D+00 0.892D+00
 Coeff:     -0.942D-02-0.740D-03 0.138D-01 0.104D+00 0.892D+00
 Gap=     0.469 Goal=   None    Shift=    0.000
 RMSDP=9.06D-05 MaxDP=3.67D-03 DE=-3.85D-03 OVMax= 2.82D-03

 Cycle   6  Pass 1  IDiag  1:
 E= -1199.82541096961     Delta-E=       -0.000087677334 Rises=F Damp=F
 DIIS: error= 1.23D-04 at cycle   6 NSaved=   6.
 NSaved= 6 IEnMin= 6 EnMin= -1199.82541096961     IErMin= 6 ErrMin= 1.23D-04
 ErrMax= 1.23D-04  0.00D+00 EMaxC= 1.00D+00 BMatC= 1.43D-05 BMatP= 9.64D-05
 IDIUse=1 WtCom= 1.00D+00 WtEn= 0.00D+00
 Coeff-Com:  0.251D-02-0.336D-03-0.362D-01 0.941D-02 0.341D+00 0.684D+00
 Coeff:      0.251D-02-0.336D-03-0.362D-01 0.941D-02 0.341D+00 0.684D+00
 Gap=     0.468 Goal=   None    Shift=    0.000
 RMSDP=2.40D-05 MaxDP=5.90D-04 DE=-8.77D-05 OVMax= 8.91D-04

 Cycle   7  Pass 1  IDiag  1:
 E= -1199.82542208856     Delta-E=       -0.000011118953 Rises=F Damp=F
 DIIS: error= 5.36D-05 at cycle   7 NSaved=   7.
 NSaved= 7 IEnMin= 7 EnMin= -1199.82542208856     IErMin= 7 ErrMin= 5.36D-05
 ErrMax= 5.36D-05  0.00D+00 EMaxC= 1.00D+00 BMatC= 2.25D-06 BMatP= 1.43D-05
 IDIUse=1 WtCom= 1.00D+00 WtEn= 0.00D+00
 Coeff-Com:  0.222D-02 0.115D-04-0.200D-01-0.785D-02 0.610D-01 0.314D+00
 Coeff-Com:  0.650D+00
 Coeff:      0.222D-02 0.115D-04-0.200D-01-0.785D-02 0.610D-01 0.314D+00
 Coeff:      0.650D+00
 Gap=     0.468 Goal=   None    Shift=    0.000
 RMSDP=9.95D-06 MaxDP=2.90D-04 DE=-1.11D-05 OVMax= 3.64D-04

 Cycle   8  Pass 1  IDiag  1:
 E= -1199.82542383021     Delta-E=       -0.000001741649 Rises=F Damp=F
 DIIS: error= 1.49D-05 at cycle   8 NSaved=   8.
 NSaved= 8 IEnMin= 8 EnMin= -1199.82542383021     IErMin= 8 ErrMin= 1.49D-05
 ErrMax= 1.49D-05  0.00D+00 EMaxC= 1.00D+00 BMatC= 9.31D-08 BMatP= 2.25D-06
 IDIUse=1 WtCom= 1.00D+00 WtEn= 0.00D+00
 Coeff-Com:  0.366D-03 0.141D-04-0.149D-02-0.375D-02-0.220D-01 0.276D-02
 Coeff-Com:  0.142D+00 0.882D+00
 Coeff:      0.366D-03 0.141D-04-0.149D-02-0.375D-02-0.220D-01 0.276D-02
 Coeff:      0.142D+00 0.882D+00
 Gap=     0.468 Goal=   None    Shift=    0.000
 RMSDP=4.35D-06 MaxDP=1.52D-04 DE=-1.74D-06 OVMax= 1.73D-04

 Cycle   9  Pass 1  IDiag  1:
 E= -1199.82542397094     Delta-E=       -0.000000140729 Rises=F Damp=F
 DIIS: error= 6.43D-06 at cycle   9 NSaved=   9.
 NSaved= 9 IEnMin= 9 EnMin= -1199.82542397094     IErMin= 9 ErrMin= 6.43D-06
 ErrMax= 6.43D-06  0.00D+00 EMaxC= 1.00D+00 BMatC= 1.52D-08 BMatP= 9.31D-08
 IDIUse=1 WtCom= 1.00D+00 WtEn= 0.00D+00
 Coeff-Com: -0.105D-03-0.335D-06 0.158D-02-0.408D-03-0.132D-01-0.297D-01
 Coeff-Com: -0.168D-01 0.301D+00 0.758D+00
 Coeff:     -0.105D-03-0.335D-06 0.158D-02-0.408D-03-0.132D-01-0.297D-01
 Coeff:     -0.168D-01 0.301D+00 0.758D+00
 Gap=     0.468 Goal=   None    Shift=    0.000
 RMSDP=1.53D-06 MaxDP=5.84D-05 DE=-1.41D-07 OVMax= 6.64D-05

 Cycle  10  Pass 1  IDiag  1:
 E= -1199.82542398657     Delta-E=       -0.000000015632 Rises=F Damp=F
 DIIS: error= 5.15D-06 at cycle  10 NSaved=  10.
 NSaved=10 IEnMin=10 EnMin= -1199.82542398657     IErMin=10 ErrMin= 5.15D-06
 ErrMax= 5.15D-06  0.00D+00 EMaxC= 1.00D+00 BMatC= 4.30D-09 BMatP= 1.52D-08
 IDIUse=1 WtCom= 1.00D+00 WtEn= 0.00D+00
 Coeff-Com: -0.894D-04-0.993D-06 0.931D-03 0.250D-03-0.384D-02-0.143D-01
 Coeff-Com: -0.237D-01 0.460D-01 0.394D+00 0.601D+00
 Coeff:     -0.894D-04-0.993D-06 0.931D-03 0.250D-03-0.384D-02-0.143D-01
 Coeff:     -0.237D-01 0.460D-01 0.394D+00 0.601D+00
 Gap=     0.468 Goal=   None    Shift=    0.000
 RMSDP=5.04D-07 MaxDP=2.00D-05 DE=-1.56D-08 OVMax= 2.11D-05

 Cycle  11  Pass 1  IDiag  1:
 E= -1199.82542399010     Delta-E=       -0.000000003529 Rises=F Damp=F
 DIIS: error= 1.50D-06 at cycle  11 NSaved=  11.
 NSaved=11 IEnMin=11 EnMin= -1199.82542399010     IErMin=11 ErrMin= 1.50D-06
 ErrMax= 1.50D-06  0.00D+00 EMaxC= 1.00D+00 BMatC= 4.29D-10 BMatP= 4.30D-09
 IDIUse=1 WtCom= 1.00D+00 WtEn= 0.00D+00
 Coeff-Com: -0.155D-04 0.291D-06 0.639D-04 0.197D-03 0.108D-02 0.322D-03
 Coeff-Com: -0.610D-02-0.440D-01 0.889D-02 0.246D+00 0.794D+00
 Coeff:     -0.155D-04 0.291D-06 0.639D-04 0.197D-03 0.108D-02 0.322D-03
 Coeff:     -0.610D-02-0.440D-01 0.889D-02 0.246D+00 0.794D+00
 Gap=     0.468 Goal=   None    Shift=    0.000
 RMSDP=2.53D-07 MaxDP=9.18D-06 DE=-3.53D-09 OVMax= 1.13D-05

 Cycle  12  Pass 1  IDiag  1:
 E= -1199.82542399058     Delta-E=       -0.000000000484 Rises=F Damp=F
 DIIS: error= 3.09D-07 at cycle  12 NSaved=  12.
 NSaved=12 IEnMin=12 EnMin= -1199.82542399058     IErMin=12 ErrMin= 3.09D-07
 ErrMax= 3.09D-07  0.00D+00 EMaxC= 1.00D+00 BMatC= 3.51D-11 BMatP= 4.29D-10
 IDIUse=1 WtCom= 1.00D+00 WtEn= 0.00D+00
 Coeff-Com:  0.144D-05-0.508D-08-0.553D-04 0.436D-04 0.649D-03 0.122D-02
 Coeff-Com: -0.275D-03-0.186D-01-0.331D-01 0.326D-01 0.278D+00 0.740D+00
 Coeff:      0.144D-05-0.508D-08-0.553D-04 0.436D-04 0.649D-03 0.122D-02
 Coeff:     -0.275D-03-0.186D-01-0.331D-01 0.326D-01 0.278D+00 0.740D+00
 Gap=     0.468 Goal=   None    Shift=    0.000
 RMSDP=6.42D-08 MaxDP=1.78D-06 DE=-4.84D-10 OVMax= 2.66D-06

 Cycle  13  Pass 1  IDiag  1:
 E= -1199.82542399068     Delta-E=       -0.000000000096 Rises=F Damp=F
 DIIS: error= 1.14D-07 at cycle  13 NSaved=  13.
 NSaved=13 IEnMin=13 EnMin= -1199.82542399068     IErMin=13 ErrMin= 1.14D-07
 ErrMax= 1.14D-07  0.00D+00 EMaxC= 1.00D+00 BMatC= 6.67D-12 BMatP= 3.51D-11
 IDIUse=1 WtCom= 1.00D+00 WtEn= 0.00D+00
 Coeff-Com:  0.312D-05-0.477D-07-0.388D-04-0.590D-05 0.188D-03 0.622D-03
 Coeff-Com:  0.735D-03-0.360D-02-0.180D-01-0.142D-01 0.326D-01 0.340D+00
 Coeff-Com:  0.662D+00
 Coeff:      0.312D-05-0.477D-07-0.388D-04-0.590D-05 0.188D-03 0.622D-03
 Coeff:      0.735D-03-0.360D-02-0.180D-01-0.142D-01 0.326D-01 0.340D+00
 Coeff:      0.662D+00
 Gap=     0.468 Goal=   None    Shift=    0.000
 RMSDP=2.17D-08 MaxDP=5.74D-07 DE=-9.64D-11 OVMax= 8.33D-07

 Cycle  14  Pass 1  IDiag  1:
 E= -1199.82542399063     Delta-E=        0.000000000046 Rises=F Damp=F
 DIIS: error= 2.07D-08 at cycle  14 NSaved=  14.
 NSaved=14 IEnMin=13 EnMin= -1199.82542399068     IErMin=14 ErrMin= 2.07D-08
 ErrMax= 2.07D-08  0.00D+00 EMaxC= 1.00D+00 BMatC= 2.66D-13 BMatP= 6.67D-12
 IDIUse=1 WtCom= 1.00D+00 WtEn= 0.00D+00
 Coeff-Com:  0.483D-06 0.215D-07-0.272D-05-0.514D-05-0.182D-04 0.198D-04
 Coeff-Com:  0.181D-03 0.967D-03-0.812D-03-0.584D-02-0.205D-01 0.255D-02
 Coeff-Com:  0.144D+00 0.880D+00
 Coeff:      0.483D-06 0.215D-07-0.272D-05-0.514D-05-0.182D-04 0.198D-04
 Coeff:      0.181D-03 0.967D-03-0.812D-03-0.584D-02-0.205D-01 0.255D-02
 Coeff:      0.144D+00 0.880D+00
 Gap=     0.468 Goal=   None    Shift=    0.000
 RMSDP=8.10D-09 MaxDP=2.04D-07 DE= 4.64D-11 OVMax= 2.57D-07

 SCF Done:  E(RwB97XD) =  -1199.82542399     A.U. after   14 cycles
            NFock= 14  Conv=0.81D-08     -V/T= 2.0020
 KE= 1.197440908337D+03 PE=-4.692812887413D+03 EE= 1.372472411585D+03
 Leave Link  502 at Fri May 23 04:15:36 2025, MaxMem=  3758096384 cpu:              72.8 elap:              14.9
 (Enter /apps/easybuild-2022/easybuild/software/Compiler/NVHPC/22.11-CUDA-11.7.0/Gaussian/g16c01-CUDA-11.7.0/g16/l508.exe)
 QCSCF skips out because SCF is already converged.
 Leave Link  508 at Fri May 23 04:15:36 2025, MaxMem=  3758096384 cpu:               0.0 elap:               0.0
 (Enter /apps/easybuild-2022/easybuild/software/Compiler/NVHPC/22.11-CUDA-11.7.0/Gaussian/g16c01-CUDA-11.7.0/g16/l701.exe)
 ... and contract with generalized density number  0.
 Compute integral first derivatives.
 R6Disp: Adding Grimme-D2 dispersion energy 1st derivatives to the gradient.
 Leave Link  701 at Fri May 23 04:15:36 2025, MaxMem=  3758096384 cpu:               0.6 elap:               0.1
 (Enter /apps/easybuild-2022/easybuild/software/Compiler/NVHPC/22.11-CUDA-11.7.0/Gaussian/g16c01-CUDA-11.7.0/g16/l702.exe)
 L702 exits ... SP integral derivatives will be done elsewhere.
 Leave Link  702 at Fri May 23 04:15:36 2025, MaxMem=  3758096384 cpu:               0.0 elap:               0.0
 (Enter /apps/easybuild-2022/easybuild/software/Compiler/NVHPC/22.11-CUDA-11.7.0/Gaussian/g16c01-CUDA-11.7.0/g16/l703.exe)
 Integral derivatives from FoFJK, PRISM(SPDF).
 Compute integral first derivatives, UseDBF=F ICtDFT=           0.
 Calling FoFJK, ICntrl=      2127 FMM=F ISym2X=0 I1Cent= 0 IOpClX= 0 NMat=1 NMatS=1 NMatT=0.
 FoFJK:  IHMeth= 1 ICntrl=    2127 DoSepK=T KAlg= 0 I1Cent=           0 FoldK=F
 IRaf=         1 NMat=       1 IRICut=       1 DoRegI=T DoRafI=F ISym2E= 0 IDoP0=0 IntGTp=1.
 FoFCou: FMM=F IPFlag=           0 FMFlag=      100000 FMFlg1=         800
         NFxFlg=           0 DoJE=F BraDBF=F KetDBF=F FulRan=T
         wScrn=  0.000000 ICntrl=      2527 IOpCl=  0 I1Cent=           0 NGrid=           0
         NMat0=    1 NMatS0=      1 NMatT0=    0 NMatD0=    1 NMtDS0=    0 NMtDT0=    0
 Symmetry not used in FoFCou.
 Leave Link  703 at Fri May 23 04:15:41 2025, MaxMem=  3758096384 cpu:              36.9 elap:               4.7
 (Enter /apps/easybuild-2022/easybuild/software/Compiler/NVHPC/22.11-CUDA-11.7.0/Gaussian/g16c01-CUDA-11.7.0/g16/l716.exe)
 Dipole        = 2.38865750D-02-2.85105602D-01-1.00414809D+00
 -------------------------------------------------------------------
 Center     Atomic                   Forces (Hartrees/Bohr)
 Number     Number              X              Y              Z
 -------------------------------------------------------------------
      1        6           0.000913608   -0.000661159    0.002100773
      2        6          -0.001436717    0.002226963   -0.001599191
      3        9           0.001370870   -0.001259750   -0.000863618
      4        9           0.000268650    0.000686052    0.000265928
      5       16           0.000501434    0.000972432    0.000123367
      6        8          -0.001389185    0.000820372   -0.000233621
      7        8          -0.000192303   -0.001760010   -0.001199656
      8        8           0.002919016    0.001073162    0.000934003
      9        9          -0.000784579   -0.000966152    0.000097521
     10        9          -0.001155556   -0.000155598    0.000475545
     11        9           0.000161860   -0.000488415    0.000773082
     12        1          -0.001177099   -0.000487896   -0.000874133
 -------------------------------------------------------------------
 Cartesian Forces:  Max     0.002919016 RMS     0.001123908
 Leave Link  716 at Fri May 23 04:15:41 2025, MaxMem=  3758096384 cpu:               0.1 elap:               0.0
 (Enter /apps/easybuild-2022/easybuild/software/Compiler/NVHPC/22.11-CUDA-11.7.0/Gaussian/g16c01-CUDA-11.7.0/g16/l103.exe)

 GradGradGradGradGradGradGradGradGradGradGradGradGradGradGradGradGradGrad
 Berny optimization.
 Using GEDIIS/GDIIS optimizer.
 FormGI is forming the generalized inverse of G from B-inverse, IUseBI=4.
 Internal  Forces:  Max     0.003999769 RMS     0.001151011
 Search for a local minimum.
 Step number   2 out of a maximum of   61
 All quantities printed in internal units (Hartrees-Bohrs-Radians)
 RMS Force = .11510D-02 SwitMx=.10000D-02 MixMth= 1
 Mixed Optimization -- RFO/linear search
 Update second derivatives using D2CorX and points    1    2
 DE= -8.57D-03 DEPred=-9.76D-03 R= 8.79D-01
 TightC=F SS=  1.41D+00  RLast= 8.91D-01 DXNew= 5.0454D-01 2.6728D+00
 Trust test= 8.79D-01 RLast= 8.91D-01 DXMaxT set to 5.05D-01
 ITU=  1  0
 Use linear search instead of GDIIS.
     Eigenvalues ---   -0.00021   0.00097   0.00417   0.04729   0.07832
     Eigenvalues ---    0.08910   0.09138   0.10396   0.10714   0.11006
     Eigenvalues ---    0.11374   0.14293   0.14598   0.15006   0.17772
     Eigenvalues ---    0.22965   0.23373   0.23906   0.26826   0.28427
     Eigenvalues ---    0.33396   0.36533   0.39735   0.40347   0.40506
     Eigenvalues ---    0.48586   0.53160   0.55620   0.67039   0.70273
 Eigenvalue     1 is  -2.12D-04 should be greater than     0.000000 Eigenvector:
                          D16       D17       D13       D14       D10
   1                    0.26535   0.26481   0.26242   0.26188   0.26134
                          D11       D18       D15       D12       D9
   1                    0.26081   0.25461   0.25168   0.25060   0.19542
 RFO step:  Lambda=-1.66467280D-03 EMin=-2.11738056D-04
 Quartic linear search produced a step of  0.04570.
 Iteration  1 RMS(Cart)=  0.17869867 RMS(Int)=  0.05270390
 Iteration  2 RMS(Cart)=  0.07904393 RMS(Int)=  0.00233686
 Iteration  3 RMS(Cart)=  0.00289880 RMS(Int)=  0.00010828
 Iteration  4 RMS(Cart)=  0.00000346 RMS(Int)=  0.00010824
 Iteration  5 RMS(Cart)=  0.00000000 RMS(Int)=  0.00010824
 ITry= 1 IFail=0 DXMaxC= 6.62D-01 DCOld= 1.00D+10 DXMaxT= 5.05D-01 DXLimC= 3.00D+00 Rises=F
 Variable       Old X    -DE/DX   Delta X   Delta X   Delta X     New X
                                 (Linear)    (Quad)   (Total)
    R1        2.92513   0.00400   0.00183   0.01403   0.01586   2.94099
    R2        2.50189   0.00065  -0.00024   0.00538   0.00514   2.50703
    R3        2.51000   0.00020   0.00022  -0.00734  -0.00711   2.50289
    R4        2.51081  -0.00032   0.00001   0.00156   0.00157   2.51238
    R5        2.52554   0.00122   0.00010   0.00698   0.00708   2.53261
    R6        2.51512   0.00049  -0.00004  -0.00222  -0.00226   2.51286
    R7        3.54768   0.00046  -0.01008  -0.00700  -0.01708   3.53060
    R8        2.69594   0.00035  -0.00040  -0.00161  -0.00201   2.69393
    R9        2.71393   0.00135  -0.00039   0.00020  -0.00019   2.71374
   R10        3.02942   0.00064  -0.00019   0.00063   0.00044   3.02987
   R11        1.82486   0.00026   0.00001   0.00072   0.00073   1.82559
    A1        1.92710   0.00112   0.00106  -0.00017   0.00086   1.92796
    A2        1.91757   0.00133   0.00053   0.00948   0.00998   1.92755
    A3        1.90103   0.00082  -0.00030  -0.00215  -0.00245   1.89858
    A4        1.90682  -0.00064  -0.00009   0.00213   0.00198   1.90881
    A5        1.90415  -0.00125  -0.00063  -0.00330  -0.00394   1.90022
    A6        1.90699  -0.00143  -0.00056  -0.00617  -0.00672   1.90027
    A7        1.89643   0.00090   0.00004   0.00815   0.00819   1.90461
    A8        1.90631   0.00032   0.00031  -0.00245  -0.00221   1.90410
    A9        1.98580  -0.00093   0.00361   0.00215   0.00573   1.99153
   A10        1.90451   0.00045   0.00120   0.00313   0.00433   1.90883
[...]
   D16        0.76066   0.00001   0.00000  -0.00013  -0.00013   0.76053
   D17        3.13203   0.00001   0.00000  -0.00013  -0.00013   3.13190
   D18       -1.17412   0.00000   0.00000  -0.00013  -0.00013  -1.17425
   D19       -1.52714   0.00002   0.00000   0.00065   0.00065  -1.52649
   D20        2.80283  -0.00001   0.00000   0.00050   0.00050   2.80333
   D21        0.41986   0.00001   0.00000   0.00061   0.00061   0.42047
         Item               Value     Threshold  Converged?
 Maximum Force            0.000044     0.000450     YES
 RMS     Force            0.000011     0.000300     YES
 Maximum Displacement     0.000892     0.001800     YES
 RMS     Displacement     0.000209     0.001200     YES
 Predicted change in Energy=-1.711984D-08
 Optimization completed.
    -- Stationary point found.
                           ----------------------------
                           !   Optimized Parameters   !
                           ! (Angstroms and Degrees)  !
 --------------------------                            --------------------------
 ! Name  Definition              Value          Derivative Info.                !
 --------------------------------------------------------------------------------
 ! R1    R(1,2)                  1.5554         -DE/DX =    0.0                 !
 ! R2    R(1,9)                  1.3242         -DE/DX =    0.0                 !
 ! R3    R(1,10)                 1.3271         -DE/DX =    0.0                 !
 ! R4    R(1,11)                 1.3293         -DE/DX =    0.0                 !
 ! R5    R(2,3)                  1.3405         -DE/DX =    0.0                 !
 ! R6    R(2,4)                  1.3302         -DE/DX =    0.0                 !
 ! R7    R(2,5)                  1.8759         -DE/DX =    0.0                 !
 ! R8    R(5,6)                  1.4266         -DE/DX =    0.0                 !
 ! R9    R(5,7)                  1.4362         -DE/DX =    0.0                 !
 ! R10   R(5,8)                  1.6029         -DE/DX =    0.0                 !
 ! R11   R(8,12)                 0.9663         -DE/DX =    0.0                 !
 ! A1    A(2,1,9)              110.6315         -DE/DX =    0.0                 !
 ! A2    A(2,1,10)             110.1449         -DE/DX =    0.0                 !
 ! A3    A(2,1,11)             108.7863         -DE/DX =    0.0                 !
 ! A4    A(9,1,10)             109.3549         -DE/DX =    0.0                 !
 ! A5    A(9,1,11)             108.8853         -DE/DX =    0.0                 !
 ! A6    A(10,1,11)            109.0048         -DE/DX =    0.0                 !
 ! A7    A(1,2,3)              108.831          -DE/DX =    0.0                 !
 ! A8    A(1,2,4)              109.2735         -DE/DX =    0.0                 !
 ! A9    A(1,2,5)              113.8851         -DE/DX =    0.0                 !
 ! A10   A(3,2,4)              109.3124         -DE/DX =    0.0                 !
 ! A11   A(3,2,5)              107.3232         -DE/DX =    0.0                 !
 ! A12   A(4,2,5)              108.1299         -DE/DX =    0.0                 !
 ! A13   A(2,5,6)              108.1685         -DE/DX =    0.0                 !
 ! A14   A(2,5,7)              107.1904         -DE/DX =    0.0                 !
 ! A15   A(2,5,8)               98.2505         -DE/DX =    0.0                 !
 ! A16   A(6,5,7)              124.0108         -DE/DX =    0.0                 !
 ! A17   A(6,5,8)              106.8583         -DE/DX =    0.0                 !
 ! A18   A(7,5,8)              109.3408         -DE/DX =    0.0                 !
 ! A19   A(5,8,12)             110.4286         -DE/DX =    0.0                 !
 ! D1    D(9,1,2,3)             51.8142         -DE/DX =    0.0                 !
 ! D2    D(9,1,2,4)            171.1166         -DE/DX =    0.0                 !
 ! D3    D(9,1,2,5)            -67.8612         -DE/DX =    0.0                 !
 ! D4    D(10,1,2,3)           172.8331         -DE/DX =    0.0                 !
 ! D5    D(10,1,2,4)           -67.8644         -DE/DX =    0.0                 !
 ! D6    D(10,1,2,5)            53.1577         -DE/DX =    0.0                 !
 ! D7    D(11,1,2,3)           -67.7495         -DE/DX =    0.0                 !
 ! D8    D(11,1,2,4)            51.553          -DE/DX =    0.0                 !
 ! D9    D(11,1,2,5)           172.5751         -DE/DX =    0.0                 !
 ! D10   D(1,2,5,6)            -78.075          -DE/DX =    0.0                 !
 ! D11   D(1,2,5,7)             57.7943         -DE/DX =    0.0                 !
 ! D12   D(1,2,5,8)            171.0701         -DE/DX =    0.0                 !
 ! D13   D(3,2,5,6)            161.4005         -DE/DX =    0.0                 !
 ! D14   D(3,2,5,7)            -62.7301         -DE/DX =    0.0                 !
 ! D15   D(3,2,5,8)             50.5457         -DE/DX =    0.0                 !
 ! D16   D(4,2,5,6)             43.5829         -DE/DX =    0.0                 !
 ! D17   D(4,2,5,7)            179.4522         -DE/DX =    0.0                 !
 ! D18   D(4,2,5,8)            -67.272          -DE/DX =    0.0                 !
 ! D19   D(2,5,8,12)           -87.4987         -DE/DX =    0.0                 !
 ! D20   D(6,5,8,12)           160.5906         -DE/DX =    0.0                 !
 ! D21   D(7,5,8,12)            24.0564         -DE/DX =    0.0                 !
 --------------------------------------------------------------------------------
 GradGradGradGradGradGradGradGradGradGradGradGradGradGradGradGradGradGrad

 Leave Link  103 at Fri May 23 04:19:06 2025, MaxMem=  3758096384 cpu:               0.1 elap:               0.0
 (Enter /apps/easybuild-2022/easybuild/software/Compiler/NVHPC/22.11-CUDA-11.7.0/Gaussian/g16c01-CUDA-11.7.0/g16/l9999.exe)

 ----------------------------------------------------------------------

 Electric dipole moment (input orientation):
 (Debye = 10**-18 statcoulomb cm , SI units = C m)
                  (au)            (Debye)         (10**-30 SI)
   Tot        0.108020D+01      0.274560D+01      0.915835D+01
   x         -0.903414D-01     -0.229625D+00     -0.765946D+00
   y         -0.229240D+00     -0.582671D+00     -0.194358D+01
   z         -0.105173D+01     -0.267322D+01     -0.891691D+01

 Dipole polarizability, Alpha (input orientation).
 (esu units = cm**3 , SI units = C**2 m**2 J**-1)
 Alpha(0;0):
               (au)            (10**-24 esu)      (10**-40 SI)
   iso        0.557100D+02      0.825536D+01      0.918533D+01
   aniso      0.561858D+01      0.832587D+00      0.926378D+00
   xx         0.585981D+02      0.868335D+01      0.966153D+01
   yx         0.101362D+01      0.150203D+00      0.167123D+00
   yy         0.547642D+02      0.811521D+01      0.902939D+01
   zx        -0.798278D+00     -0.118293D+00     -0.131618D+00
   zy         0.153418D+01      0.227342D+00      0.252952D+00
   zz         0.537676D+02      0.796753D+01      0.886508D+01

 ----------------------------------------------------------------------

 Dipole orientation:
     6         -2.31771036          1.46583578         -0.61028412
     6         -0.72553017         -0.55010342          0.81806940
     9         -0.62126630          0.07743674          3.27016363
     9         -1.82660689         -2.79728590          0.58116285
    16          2.61225896         -0.82928573         -0.34289774
     8          2.59029809         -2.25733427         -2.62939510
     8          3.75580039          1.61939474         -0.09330912
     8          3.67499225         -2.65847092          1.82507106
     9         -1.47453137          3.76906686         -0.11391939
     9         -2.21220773          1.05692974         -3.08226744
     9         -4.70699563          1.29413035          0.14602298
     1          4.27034915         -1.68136476          3.24815852

 Electric dipole moment (dipole orientation):
 (Debye = 10**-18 statcoulomb cm , SI units = C m)
                  (au)            (Debye)         (10**-30 SI)
   Tot        0.108020D+01      0.274560D+01      0.915835D+01
   x          0.000000D+00      0.000000D+00      0.000000D+00
   y          0.000000D+00      0.000000D+00      0.000000D+00
   z          0.108020D+01      0.274560D+01      0.915835D+01

 Dipole polarizability, Alpha (dipole orientation).
 (esu units = cm**3 , SI units = C**2 m**2 J**-1)
 Alpha(0;0):
               (au)            (10**-24 esu)      (10**-40 SI)
   iso        0.557100D+02      0.825536D+01      0.918533D+01
   aniso      0.561858D+01      0.832587D+00      0.926378D+00
   xx         0.586812D+02      0.869566D+01      0.967523D+01
   yx        -0.980772D+00     -0.145335D+00     -0.161707D+00
   yy         0.540624D+02      0.801123D+01      0.891369D+01
   zx         0.195310D+00      0.289419D-01      0.322022D-01
   zy         0.169565D+01      0.251269D+00      0.279575D+00
   zz         0.543862D+02      0.805921D+01      0.896708D+01

 ----------------------------------------------------------------------
 Unable to Open any file for archive entry.
 1\1\GINC-SPARTAN-BM176\Freq\RwB97XD\6-311++G(d,p)\C2H1F5O3S1\AKHALILOV
 \23-May-2025\0\\#P Geom=AllCheck Guess=TCheck SCRF=Check GenChk RwB97X
 D/6-311++G(d,p) Freq\\Gaussian input prepared by ASE\\0,1\C,-1.1881478
 392,-0.6784206319,0.5816252934\C,-0.4213965159,0.1960414701,-0.4511586
 679\F,-0.4719539832,-0.4043312953,-1.6486826825\F,-1.0022054432,1.3899
 082564,-0.5327303646\S,1.3886780547,0.4549017973,-0.0320710667\O,1.471
 4957378,1.4502303371,0.986592097\O,1.9922763247,-0.8447862473,0.063715
 7076\O,1.8444066472,1.1522525333,-1.4015197444\F,-0.7545449681,-1.9291
 805637,0.5472254436\F,-1.025059447,-0.1898686133,1.804666045\F,-2.4823
 112729,-0.6631958717,0.2784157655\H,2.1000077051,0.4843408289,-2.05134
 98259\\Version=ES64L-G16RevC.01\HF=-1199.8260482\RMSD=1.425e-09\RMSF=1
 .415e-05\ZeroPoint=0.0518882\Thermal=0.06231\ETot=-1199.7637382\HTot=-
 1199.762794\GTot=-1199.8112439\Dipole=-0.0903414,-0.2292404,-1.0517261
 \DipoleDeriv=1.7155479,-0.0484867,0.1132662,0.1314859,1.5832286,0.1060
 592,-0.1578494,0.0309487,1.5082063,0.8975261,-0.1724217,0.122148,-0.28
 39291,0.9804982,0.1688729,0.2866849,0.2102981,0.9333651,-0.3727421,-0.
 070284,-0.0822296,-0.1012625,-0.3817877,-0.2138797,-0.1525775,-0.30815
 4,-0.8125546,-0.5560151,0.270015,-0.0204161,0.3503873,-0.7219132,0.040
 3236,-0.0676767,0.1125708,-0.2508638,1.915797,0.0149778,-0.1508063,-0.
 031025,2.1177456,-0.0343931,-0.1147225,0.0156749,2.209127,-0.6459567,-
 0.0786153,-0.063413,-0.1377576,-0.7941665,-0.3326668,-0.144691,-0.2510
 246,-0.7786355,-0.8147436,0.2221223,-0.0535306,0.295472,-0.9649308,0.1
 249823,-0.0063332,-0.0178906,-0.5714826,-0.7472779,-0.1326214,0.256464
 8,-0.1427935,-0.5085307,0.2032816,0.3975608,0.3166405,-1.174738,-0.358
 3586,0.1002705,0.0357353,0.1237492,-0.8663739,0.002149,0.0442758,0.061
 9562,-0.2917761,-0.3311971,-0.0434679,0.0074973,-0.0676668,-0.354181,-
 0.1302712,-0.0073229,-0.1922017,-0.8338113,-1.0810036,-0.0605136,-0.11
 66195,-0.1091781,-0.3080842,0.022619,-0.0260097,0.0431461,-0.3305595,0
 .3784237,-0.0009752,-0.0480965,-0.0274818,0.2184957,0.0429233,-0.05133
 87,-0.0219644,0.393723\Polar=58.5981324,1.0136182,54.7641706,-0.798277
 6,1.5341797,53.7675887\PG=Unknown\NImag=0\\0.55687765,0.00690734,0.575
 50922,-0.01280088,-0.00848266,0.56960994,-0.09264529,-0.03151001,0.024
 49705,0.43951633,-0.05103408,-0.08221629,0.04695922,-0.02709127,0.5250
 0678,0.05627913,0.05623038,-0.10238181,-0.00639672,-0.01714256,0.52876
 429,0.00354200,0.00725988,0.01390520,-0.07212975,-0.01226864,-0.021302
 21,0.06477161,0.00212737,0.00166180,0.00297554,-0.00678333,-0.09643116
 ,-0.07787836,0.00274714,0.13963233,-0.01192167,-0.03003956,-0.04208100
 ,-0.01283707,-0.06471475,-0.26605663,0.01126468,0.13184335,0.33566408,
 0.00011063,-0.00200420,0.00224501,-0.12064812,0.10184201,-0.01880136,0
 .00761878,0.01161007,0.01198475,0.13033979,0.02837780,-0.04002432,-0.0
 0195846,0.08879785,-0.26004141,0.04285602,0.01909136,-0.04663820,-0.03
 545728,-0.13877918,0.35781586,-0.01648462,0.01971650,0.00351244,-0.012
 56803,0.03355678,-0.07733507,0.02037269,-0.04957180,-0.00151108,0.0097
 6908,-0.01769517,0.07323349,-0.01676470,-0.02410970,0.01792334,-0.1388
 4555,-0.01065732,-0.03823665,0.00265254,0.00250187,0.00961296,-0.01022
 180,0.00394847,-0.00148024,0.53312262,-0.02358918,0.01773699,0.0011790
 3,-0.03125076,-0.03538153,0.00111197,-0.01187723,-0.00836095,-0.015482
 84,0.04183785,-0.02378147,0.00840634,-0.15285767,1.09000942,0.01923995
 ,0.00115794,0.03033348,0.00018241,0.01197706,-0.04208280,-0.02779292,-
 0.01628070,-0.03352696,-0.00543566,-0.00108802,-0.00081454,0.00874592,
 0.22767762,0.74437269,0.00078305,0.00648838,-0.00236366,0.01347937,-0.
 01133176,-0.00757607,-0.00710831,-0.00507211,-0.00923213,-0.00066915,-
 0.00053868,-0.00028329,-0.09413907,-0.03226853,-0.03649790,0.05997503,
 0.00206116,-0.00114245,-0.00518175,0.01808713,-0.00744986,-0.00364920,
 -0.00497282,-0.00129638,-0.00332550,-0.00611931,0.00864470,0.00033099,
 -0.02841364,-0.38108023,-0.29990324,0.02642380,0.37999078,-0.00210001,
 0.00023453,-0.01203377,0.01145582,-0.01379449,0.00142649,-0.00469685,-
 0.00245097,-0.00329374,-0.00170328,0.00347274,0.00125949,-0.03017967,-
 0.29661239,-0.37316265,0.02872001,0.32464388,0.39963391,0.00339459,0.0
 0288932,-0.00589330,0.01408884,0.02419534,0.00671081,-0.00229984,-0.00
 354257,-0.00522451,-0.01356491,0.00618338,-0.00266231,-0.19853714,0.22
 259843,-0.01736151,0.01941443,-0.00248941,-0.00422665,0.16758400,0.005
 53543,-0.01131677,0.00357611,-0.00926233,-0.00809955,-0.00876752,0.001
 99670,0.00550765,0.00578609,0.00384110,0.00056857,0.00056715,0.2152606
 1,-0.53953422,0.02733224,0.01657966,-0.01057858,0.00742399,-0.24024001
 ,0.57266147,-0.00290205,0.00094021,-0.00540920,-0.00197714,0.00216043,
 0.00475676,0.00114686,0.00188933,0.00416758,-0.00251291,0.00176822,0.0
 0037767,-0.01651229,0.03164359,-0.08921518,0.01151639,-0.02823998,0.01
 014316,0.02100734,-0.04336231,0.06779496,-0.00156847,0.00648705,-0.009
 71453,-0.00256735,-0.01547259,0.02681473,-0.00094012,-0.00139943,-0.00
 015186,-0.00108713,0.00228930,-0.00052430,-0.08318893,-0.02394157,0.05
 105012,0.00978529,-0.00020675,0.00459687,0.01754076,0.00844696,-0.0098
 8601,0.10661978,0.00163320,-0.00050730,-0.00312929,0.00200863,-0.00203
 378,0.01077369,0.00040745,0.00079011,0.00137658,-0.00470557,0.00529264
 ,-0.00184761,-0.01311542,-0.12030377,0.03611186,0.00676262,0.01065224,
 -0.03064853,-0.00646803,-0.01376470,0.03442851,-0.06908603,0.39469241,
 -0.00254101,-0.00368264,0.00235628,-0.00845505,0.00654772,-0.02276225,
 0.00051140,0.00183724,0.01199981,0.00363510,-0.00385336,0.00295461,0.0
 4838897,0.06748821,-0.18507430,0.01202557,0.00774697,-0.02917001,0.005
 25973,0.01030732,-0.00326076,-0.15841334,0.15520771,0.46147977,-0.0911
 9292,0.05127964,0.00089010,0.00881206,-0.00403550,-0.00041415,0.000400
 82,-0.00100821,0.00086910,0.00078334,-0.00389082,0.00227425,-0.0023737
 8,0.00677640,-0.00159503,0.00062911,-0.00109609,-0.00024686,-0.0023483
 5,-0.00474611,0.00105931,0.00080182,-0.00070693,0.00047766,0.11811376,
 0.04650522,-0.28787344,0.01971564,0.01823590,-0.03797208,-0.00952544,-
 0.00149011,0.00452999,0.00436822,-0.00403639,-0.00865306,0.00703324,0.
 00833545,-0.00703000,0.00114416,-0.00236048,0.00071934,-0.00006864,-0.
 00306820,0.00505934,-0.00044487,-0.00258407,0.00028618,0.00115568,-0.1
 1139689,0.39155304,0.00121753,0.01300884,-0.08026338,-0.00530014,0.016
 70155,0.00465486,-0.00006739,0.00267835,0.00232265,0.00089550,0.006066
 01,-0.00296107,-0.00213100,-0.00051699,-0.00361397,0.00030120,0.000723
 06,0.00142546,0.00152114,-0.00015569,0.00116058,0.00102224,0.00027565,
 0.00000121,0.00079225,0.01191700,0.07778342,-0.07822556,-0.00640843,-0
 .00638699,0.00818521,0.00675535,0.01055945,-0.00086170,-0.00116229,0.0
 0522022,0.00078634,-0.00266300,0.00081674,0.00117144,0.00051944,-0.004
 63282,-0.00237539,-0.00089806,0.00219398,-0.00057474,-0.00009760,0.000
 87027,0.00018171,-0.00008120,0.00083933,0.01217191,0.00902627,0.010740
 78,0.08444018,-0.00504930,-0.09481783,-0.05620470,0.00055545,0.0056728
 9,0.00507639,-0.00092867,0.00054621,0.00453494,-0.00070773,0.00361675,
 0.00020315,0.00168336,-0.00456437,-0.00365036,-0.00253461,0.00069927,0
 .00235287,-0.00011297,0.00187046,0.00026663,-0.00013798,0.00050763,0.0
 0059006,0.00793682,-0.04640494,-0.05941790,0.01258610,0.12426292,-0.00
 308200,-0.05035572,-0.28139464,-0.00791694,-0.02586205,-0.03646507,0.0
 0632079,0.00446740,-0.01082528,0.00011032,0.00557882,0.00106922,-0.005
 09413,-0.00307539,-0.00915462,0.00134116,0.00280220,0.00485294,0.00209
 529,0.00001237,0.00176364,0.00202774,0.00092998,0.00056791,0.00679590,
 -0.04176852,-0.01249892,0.04078626,0.12090766,0.37259961,-0.28382009,-
 0.01707085,-0.02261953,-0.05600205,-0.00134164,-0.01357505,0.00383998,
 0.00058966,0.00391291,0.00613104,-0.00215084,0.00137853,0.00986047,0.0
 0086010,0.00402710,-0.00200388,-0.00194362,-0.00188892,-0.00225738,0.0
 0059401,-0.00018157,-0.00404479,-0.00178269,0.00375889,-0.04585586,0.0
 4267430,-0.00879878,-0.02501346,-0.01335013,-0.04284028,0.39917918,-0.
 01311714,-0.07816941,0.00126167,-0.02153442,-0.00016402,-0.00298274,0.
 00056590,0.00123765,0.00270907,-0.00314678,0.00341063,-0.00055088,0.00
 471480,-0.00307713,0.00270777,-0.00113054,-0.00017153,-0.00090035,-0.0
 0098744,0.00204495,-0.00046007,-0.00194930,-0.00015890,0.00099936,0.06
 074462,-0.01376478,0.00872402,-0.01756837,0.00876804,-0.01355138,-0.00
 661685,0.08033284,-0.02568360,0.00098476,-0.08131756,0.01807140,0.0028
 3417,0.00485983,0.00049602,0.00068687,0.00387342,0.00101376,-0.0000326
 6,0.00048839,-0.00339720,0.00107800,-0.00562330,0.00065054,0.00077283,
 0.00214331,0.00094384,-0.00115073,0.00094440,0.00181612,0.00046226,-0.
 00021753,-0.01064440,0.00665041,0.01187297,-0.06089982,-0.01467879,-0.
 03067038,0.07766609,0.00223164,0.09349969,-0.00049088,-0.00020843,0.00
 031820,-0.00124369,0.00044010,0.00593810,0.00051400,-0.00060817,-0.003
 49738,0.00042120,-0.00066565,-0.00060850,-0.00273608,0.00319272,0.0100
 7035,0.00222954,-0.00043240,-0.00192444,-0.00244027,0.00209159,-0.0016
 2820,-0.04153257,0.08513397,0.09451275,0.00005809,0.00015900,-0.000193
 33,0.00011407,0.00005965,-0.00054410,-0.00001317,0.00002552,-0.0000327
 5,0.04511976,-0.00035781,0.00115980,-0.00071034,-0.00025284,-0.0008899
 9,0.00389736,-0.00053097,-0.00117904,-0.00159833,0.00036812,-0.0002107
 0,-0.00014868,-0.00729082,0.01536725,0.01281368,-0.00101775,0.00101271
 ,0.00634735,0.00104216,-0.00441861,-0.00058970,0.09755440,-0.27545275,
 -0.24434426,0.00014307,-0.00044959,-0.00000391,-0.00000821,-0.00015703
 ,-0.00008537,-0.00046145,-0.00028833,0.00016125,-0.08918791,0.26550630
 ,0.00077924,0.00028741,-0.00093080,0.00124441,0.00077691,0.00262140,-0
 .00015827,-0.00019625,-0.00073285,-0.00120030,0.00034312,-0.00027355,0
 .01235998,-0.02289715,-0.03243783,0.00139818,0.00327975,-0.00322459,-0
 .00216987,-0.00156901,0.00677640,0.09136221,-0.20394080,-0.23887474,-0
 .00025814,-0.00017687,0.00011618,-0.00010738,0.00002005,0.00015561,-0.
 00083937,-0.00018811,0.00014678,-0.10241069,0.22426096,0.26665798\\0.0
 0000355,0.00000254,-0.00000479,0.00004276,0.00000090,0.00000753,0.0000
 0424,0.00000356,-0.00000051,-0.00003932,0.00003204,0.00000755,0.000021
 50,-0.00003110,-0.00001265,-0.00001385,0.00000349,0.00000701,-0.000001
 29,-0.00000746,-0.00001043,-0.00001179,-0.00000305,0.00000595,-0.00001
 173,0.00000334,-0.00000005,0.00000164,-0.00000794,0.00000252,0.0000000
 6,0.00000043,0.00000824,0.00000424,0.00000324,-0.00001038\\\@
 The archive entry for this job was punched.


 The hours that make us happy make us wise.
                         -- John Masefield
 Job cpu time:       0 days  0 hours 11 minutes 15.0 seconds.
 Elapsed time:       0 days  0 hours  1 minutes 27.7 seconds.
 File lengths (MBytes):  RWF=     99 Int=      0 D2E=      0 Chk=      6 Scr=      1
 Normal termination of Gaussian 16 at Fri May 23 04:19:06 2025.
done
