1
energy = -0.49813851171100004
H 1.95992800 2.00087500 -0.79171300
