7
energy = -861.576911152
C 0.32897800 -0.83153500 0.00987700
F -0.17111000 -1.53740000 0.99072900
F 0.52510000 -1.58143700 -1.04351900
S 0.16579300 0.89259600 -0.08320100
O 1.43164300 -0.01646300 0.36967600
O 0.36034100 1.50475000 -1.34383800
O -0.44421800 1.55633600 1.00725800
