7
energy = -886.219195943
C -0.09481800 -0.05912200 0.05993400
F -0.58332900 0.58958800 -0.97420700
F -0.54869400 0.46102800 1.17915100
F -0.41475900 -1.33251500 -0.01083100
S 1.80501300 0.10822300 0.03922000
O 2.23779000 -0.52495300 1.25793400
O 2.19674800 -0.36143700 -1.26436100
