8
energy = -886.8497340499999
C -0.11599600 -0.05353200 -0.05447800
F -0.54917000 0.63326600 -1.09168200
F -0.70260600 0.39051500 1.04948800
F -0.42293300 -1.33296000 -0.21864900
S 1.73766300 0.06233000 0.11824000
O 2.24736300 -0.36812400 -1.16526000
O 1.62338000 1.68320800 0.15262100
H 2.37579300 2.04926500 0.63170900
8
energy = -886.8496854970001
C 0.03129500 0.03138300 -0.01127200
F -0.46021500 0.74305600 -1.00476800
F -0.35748900 0.55340000 1.14476600
F -0.42469500 -1.21077200 -0.09636500
S 1.89368200 -0.04731200 -0.08028000
O 2.18508300 -0.55162200 -1.40436600
O 1.95214600 1.57692000 -0.08136500
H 2.79637300 1.86919100 0.28127600
8
energy = -886.85343274
C 0.00000000 0.00000000 0.00000000
F -0.45524600 0.75634000 -0.99429400
F -0.45974500 0.47798100 1.14795200
F -0.43750600 -1.23641600 -0.16311100
S 1.87267200 0.00000000 0.00000000
O 2.19679600 -0.51283700 -1.31744100
O 1.98505800 1.60332300 0.00000000
H 1.62022000 1.96655200 -0.82340300
