8
energy = -961.4083925360001
C -0.08368100 -0.06017000 0.05801300
F -0.59377900 0.57995200 -0.97638800
F -0.55526200 0.45701200 1.17614300
F -0.39888700 -1.33959200 -0.00936100
S 1.74957500 0.09653100 0.03392500
O 2.23128400 -0.48173500 1.23978000
O 2.18524000 -0.33302100 -1.24965100
O 1.97609500 1.59298200 0.11612900
