9
energy = -962.0104007090001
C 1.58965800 0.08356500 -0.08159300
F -0.47598500 0.56044600 0.08677400
F 1.61832800 -0.67473900 0.92100000
F 1.51970400 -0.55100100 -1.16153600
S 2.08696000 1.96200600 0.02525800
O 3.31542400 1.79699300 0.72209700
O 2.09781000 2.29073600 -1.35479400
O 0.95978100 2.42914600 0.80173800
H -0.23133400 1.43054100 0.41863400
9
energy = -962.010400679
C 1.58862000 0.08322000 -0.08091400
F -0.47679300 0.56285200 0.08603400
F 1.61571100 -0.67449600 0.92216200
F 1.51841500 -0.55192400 -1.16049700
S 2.08817900 1.96113700 0.02508500
O 3.31606400 1.79496400 0.72266700
O 2.10017300 2.28901300 -1.35515900
O 0.96118200 2.43013500 0.80069000
H -0.23120500 1.43279200 0.41750900
9
energy = -962.0104013960001
C 1.58944900 0.08315100 -0.07882000
F -0.47608700 0.56093000 0.08944900
F 1.61861300 -0.67209400 0.92606400
F 1.51863800 -0.55469400 -1.15677200
S 2.08712300 1.96183600 0.02196600
O 3.31607000 1.79876600 0.71841500
O 2.09702600 2.28634000 -1.35908900
O 0.96057000 2.43149900 0.79783300
H -0.23105600 1.43196100 0.41853100
9
energy = -962.0103815489999
C 1.55364900 0.10276100 -0.21444400
F -0.28657100 0.45691100 0.79796700
F 1.97844600 -0.80388700 0.54137100
F 1.02690300 -0.35144600 -1.26179000
S 2.07064300 1.97132700 -0.04071100
O 2.78885900 1.91351700 1.18133800
O 2.77580600 2.09064700 -1.26978100
O 0.74538100 2.54846700 0.00409100
H -0.17277000 1.39939500 0.63953700
