 Entering Gaussian System, Link 0=g16
 Initial command:
 /apps/easybuild-2022/easybuild/software/Compiler/NVHPC/22.11-CUDA-11.7.0/Gaussian/g16c01-CUDA-11.7.0/g16/l1.exe "/tmp/Gau-137243.inp" -scrdir="/tmp/"
 Entering Link 1 = /apps/easybuild-2022/easybuild/software/Compiler/NVHPC/22.11-CUDA-11.7.0/Gaussian/g16c01-CUDA-11.7.0/g16/l1.exe PID=    137244.
  
 Copyright (c) 1988-2019, Gaussian, Inc.  All Rights Reserved.
  
 This is part of the Gaussian(R) 16 program.  It is based on
 the Gaussian(R) 09 system (copyright 2009, Gaussian, Inc.),
 the Gaussian(R) 03 system (copyright 2003, Gaussian, Inc.),
 the Gaussian(R) 98 system (copyright 1998, Gaussian, Inc.),
 the Gaussian(R) 94 system (copyright 1995, Gaussian, Inc.),
 the Gaussian 92(TM) system (copyright 1992, Gaussian, Inc.),
 the Gaussian 90(TM) system (copyright 1990, Gaussian, Inc.),
 the Gaussian 88(TM) system (copyright 1988, Gaussian, Inc.),
 the Gaussian 86(TM) system (copyright 1986, Carnegie Mellon
 University), and the Gaussian 82(TM) system (copyright 1983,
 Carnegie Mellon University). Gaussian is a federally registered
 trademark of Gaussian, Inc.
  
 This software contains proprietary and confidential information,
 including trade secrets, belonging to Gaussian, Inc.
  
 This software is provided under written license and may be
 used, copied, transmitted, or stored only in accord with that
 written license.
  
 The following legend is applicable only to US Government
 contracts under FAR:
  
                    RESTRICTED RIGHTS LEGEND
  
 Use, reproduction and disclosure by the US Government is
 subject to restrictions as set forth in subparagraphs (a)
 and (c) of the Commercial Computer Software - Restricted
 Rights clause in FAR 52.227-19.
  
 Gaussian, Inc.
 340 Quinnipiac St., Bldg. 40, Wallingford CT 06492
  
  
 ---------------------------------------------------------------
 Warning -- This program may not be used in any manner that
 competes with the business of Gaussian, Inc. or will provide
 assistance to any competitor of Gaussian, Inc.  The licensee
 of this program is prohibited from giving any competitor of
 Gaussian, Inc. access to this program.  By using this program,
 the user acknowledges that Gaussian, Inc. is engaged in the
 business of creating and licensing software in the field of
 computational chemistry and represents and warrants to the
 licensee that it is not a competitor of Gaussian, Inc. and that
 it will not use this program in any manner prohibited above.
 ---------------------------------------------------------------
  

 Cite this work as:
 Gaussian 16, Revision C.01,
 M. J. Frisch, G. W. Trucks, H. B. Schlegel, G. E. Scuseria, 
 M. A. Robb, J. R. Cheeseman, G. Scalmani, V. Barone, 
 G. A. Petersson, H. Nakatsuji, X. Li, M. Caricato, A. V. Marenich, 
 J. Bloino, B. G. Janesko, R. Gomperts, B. Mennucci, H. P. Hratchian, 
 J. V. Ortiz, A. F. Izmaylov, J. L. Sonnenberg, D. Williams-Young, 
 F. Ding, F. Lipparini, F. Egidi, J. Goings, B. Peng, A. Petrone, 
 T. Henderson, D. Ranasinghe, V. G. Zakrzewski, J. Gao, N. Rega, 
 G. Zheng, W. Liang, M. Hada, M. Ehara, K. Toyota, R. Fukuda, 
 J. Hasegawa, M. Ishida, T. Nakajima, Y. Honda, O. Kitao, H. Nakai, 
 T. Vreven, K. Throssell, J. A. Montgomery, Jr., J. E. Peralta, 
 F. Ogliaro, M. J. Bearpark, J. J. Heyd, E. N. Brothers, K. N. Kudin, 
 V. N. Staroverov, T. A. Keith, R. Kobayashi, J. Normand, 
 K. Raghavachari, A. P. Rendell, J. C. Burant, S. S. Iyengar, 
 J. Tomasi, M. Cossi, J. M. Millam, M. Klene, C. Adamo, R. Cammi, 
 J. W. Ochterski, R. L. Martin, K. Morokuma, O. Farkas, 
 J. B. Foresman, and D. J. Fox, Gaussian, Inc., Wallingford CT, 2019.
 
 ******************************************
 Gaussian 16:  ES64L-G16RevC.01  3-Jul-2019
                25-May-2025 
 ******************************************
 %mem=28GB
 %nprocshared=8
 Will use up to    8 processors via shared memory.
 ------------------------------------------
 #P am1 Symm(None) scf(xqc) pop(None) force
 ------------------------------------------
 1/10=7,30=1,38=1/1,3;
 2/12=2,15=3,17=6,18=5,40=1/2;
 3/5=2,25=1,41=700000,71=1/1,2,3;
 4/35=1/1;
 5/5=2,8=3,13=1,35=1,38=5/2,8;
 7/29=1,30=1/1,2,3,16;
 1/10=7,30=1/3;
 99//99;
 Leave Link    1 at Sun May 25 05:39:51 2025, MaxMem=  3758096384 cpu:               0.0 elap:               0.0
 (Enter /apps/easybuild-2022/easybuild/software/Compiler/NVHPC/22.11-CUDA-11.7.0/Gaussian/g16c01-CUDA-11.7.0/g16/l101.exe)
 ------------------------------
 Gaussian input prepared by ASE
 ------------------------------
 Symbolic Z-matrix:
 Charge =  0 Multiplicity = 1
 C                     1.6193    0.11847  -0.21777 
 F                    -0.28658   0.4627    0.66075 
 F                     1.87157  -0.78054   0.62437 
 F                     1.08091  -0.37316  -1.23869 
 S                     2.13011   1.98874  -0.04917 
 O                     2.94675   1.91245   1.11239 
 O                     2.73174   2.16626  -1.32167 
 O                     0.75814   2.4112    0.12663 
 H                    -0.3716    1.42156   0.68075 
 
 ITRead=  0  0  0  0  0  0  0  0  0
 MicOpt= -1 -1 -1 -1 -1 -1 -1 -1 -1
 NAtoms=      9 NQM=        9 NQMF=       0 NMMI=      0 NMMIF=      0
                NMic=       0 NMicF=      0.
                    Isotopes and Nuclear Properties:
 (Nuclear quadrupole moments (NQMom) in fm**2, nuclear magnetic moments (NMagM)
  in nuclear magnetons)

  Atom         1           2           3           4           5           6           7           8           9
 IAtWgt=          12          19          19          19          32          16          16          16           1
 AtmWgt=  12.0000000  18.9984032  18.9984032  18.9984032  31.9720718  15.9949146  15.9949146  15.9949146   1.0078250
 NucSpn=           0           1           1           1           0           0           0           0           1
 AtZEff=  -0.0000000  -0.0000000  -0.0000000  -0.0000000  -0.0000000  -0.0000000  -0.0000000  -0.0000000  -0.0000000
 NQMom=    0.0000000   0.0000000   0.0000000   0.0000000   0.0000000   0.0000000   0.0000000   0.0000000   0.0000000
 NMagM=    0.0000000   2.6288670   2.6288670   2.6288670   0.0000000   0.0000000   0.0000000   0.0000000   2.7928460
 AtZNuc=   6.0000000   9.0000000   9.0000000   9.0000000  16.0000000   8.0000000   8.0000000   8.0000000   1.0000000
 Leave Link  101 at Sun May 25 05:39:51 2025, MaxMem=  3758096384 cpu:               0.1 elap:               0.1
 (Enter /apps/easybuild-2022/easybuild/software/Compiler/NVHPC/22.11-CUDA-11.7.0/Gaussian/g16c01-CUDA-11.7.0/g16/l103.exe)

 GradGradGradGradGradGradGradGradGradGradGradGradGradGradGradGradGradGrad
 Berny optimization.
 Initialization pass.
 Trust Radius=3.00D-01 FncErr=1.00D-07 GrdErr=1.00D-07 EigMax=2.50D+02 EigMin=1.00D-04
 Number of steps in this run=      2 maximum allowed number of steps=      2.
 GradGradGradGradGradGradGradGradGradGradGradGradGradGradGradGradGradGrad

 Leave Link  103 at Sun May 25 05:39:51 2025, MaxMem=  3758096384 cpu:               0.0 elap:               0.0
 (Enter /apps/easybuild-2022/easybuild/software/Compiler/NVHPC/22.11-CUDA-11.7.0/Gaussian/g16c01-CUDA-11.7.0/g16/l202.exe)
                          Input orientation:                          
 ---------------------------------------------------------------------
 Center     Atomic      Atomic             Coordinates (Angstroms)
 Number     Number       Type             X           Y           Z
 ---------------------------------------------------------------------
      1          6           0        1.619300    0.118468   -0.217768
      2          9           0       -0.286575    0.462699    0.660746
      3          9           0        1.871570   -0.780536    0.624366
      4          9           0        1.080908   -0.373156   -1.238691
      5         16           0        2.130110    1.988740   -0.049171
      6          8           0        2.946749    1.912454    1.112388
      7          8           0        2.731743    2.166264   -1.321667
      8          8           0        0.758141    2.411196    0.126627
      9          1           0       -0.371599    1.421564    0.680748
 ---------------------------------------------------------------------
                    Distance matrix (angstroms):
                    1          2          3          4          5
     1  C    0.000000
     2  F    2.126651   0.000000
     3  F    1.257394   2.490894   0.000000
     4  F    1.254530   2.485262   2.064483   0.000000
     5  S    1.946090   2.945021   2.861710   2.845055   0.000000
     6  O    2.598042   3.572136   2.940471   3.772658   1.421949
     7  O    2.578679   3.992786   3.634635   3.029983   1.418705
     8  O    2.473218   2.274501   3.416815   3.117835   1.446262
     9  H    2.543437   0.962835   3.143920   3.002507   2.667024
                    6          7          8          9
     6  O    0.000000
     7  O    2.456679   0.000000
     8  O    2.451627   2.460214   0.000000
     9  H    3.382117   3.767623   1.600855   0.000000
 Symmetry turned off by external request.
 Stoichiometry    CHF3O3S
 Rotational constants (GHZ):           2.4807718           1.5063985           1.3960442
 Leave Link  202 at Sun May 25 05:39:51 2025, MaxMem=  3758096384 cpu:               0.0 elap:               0.0
 (Enter /apps/easybuild-2022/easybuild/software/Compiler/NVHPC/22.11-CUDA-11.7.0/Gaussian/g16c01-CUDA-11.7.0/g16/l301.exe)
 Standard basis: VSTO-6G (5D, 7F)
 Ernie: Thresh=  0.10000D-02 Tol=  0.10000D-05 Strict=F.
  NNHCO=     0 NNPyr=     0 NCTC=     0               EPep=         0.000000000
    EC=       220.653953590  ECS=         2.020782384   EG=         0.540334441
   EHC=         0.000000000  EAt=       -99.925627445  AtH=         0.836224825
 EPDDG=         0.000000000  ECC=       223.215070415 EAtT=       100.761852269
    33 basis functions,   198 primitive gaussians,    33 cartesian basis functions
    25 alpha electrons       25 beta electrons
       nuclear repulsion energy       325.9602778219 Hartrees.



 Warning!  S  atom    5 may be hypervalent but has no d functions.



 IExCor=    0 DFT=F Ex=HF Corr=None ExCW=0 ScaHFX=  1.000000
 ScaDFX=  1.000000  1.000000  1.000000  1.000000 ScalE2=  1.000000  1.000000
 IRadAn=      5 IRanWt=     -1 IRanGd=            0 ICorTp=0 IEmpDi=  4
 Integral buffers will be    131072 words long.
 Regular integral format.
 Two-electron integral symmetry is turned off.
 Leave Link  301 at Sun May 25 05:39:51 2025, MaxMem=  3758096384 cpu:               0.0 elap:               0.0
 (Enter /apps/easybuild-2022/easybuild/software/Compiler/NVHPC/22.11-CUDA-11.7.0/Gaussian/g16c01-CUDA-11.7.0/g16/l302.exe)
 Do NDO integrals.
 NPDir=0 NMtPBC=     1 NCelOv=     1 NCel=       1 NClECP=     1 NCelD=      1
         NCelK=      1 NCelE2=     1 NClLst=     1 CellRange=     0.0.
 One-electron integrals computed using PRISM.
 NBasis=    33 RedAO= F EigKep=  0.00D+00  NBF=    33
 NBsUse=    33 1.00D-04 EigRej=  0.00D+00 NBFU=    33
 Leave Link  302 at Sun May 25 05:39:51 2025, MaxMem=  3758096384 cpu:               0.1 elap:               0.0
 (Enter /apps/easybuild-2022/easybuild/software/Compiler/NVHPC/22.11-CUDA-11.7.0/Gaussian/g16c01-CUDA-11.7.0/g16/l303.exe)
 DipDrv:  MaxL=1.
 Leave Link  303 at Sun May 25 05:39:51 2025, MaxMem=  3758096384 cpu:               0.0 elap:               0.0
 (Enter /apps/easybuild-2022/easybuild/software/Compiler/NVHPC/22.11-CUDA-11.7.0/Gaussian/g16c01-CUDA-11.7.0/g16/l401.exe)
 Simple Huckel Guess.
 JPrj=0 DoOrth=F DoCkMO=F.
 Leave Link  401 at Sun May 25 05:39:51 2025, MaxMem=  3758096384 cpu:               0.0 elap:               0.0
 (Enter /apps/easybuild-2022/easybuild/software/Compiler/NVHPC/22.11-CUDA-11.7.0/Gaussian/g16c01-CUDA-11.7.0/g16/l502.exe)
 Keep J ints in memory in canonical form, NReq=862797.
 FoFCou: FMM=F IPFlag=           0 FMFlag=           0 FMFlg1=           0
         NFxFlg=           0 DoJE=F BraDBF=F KetDBF=F FulRan=T
         wScrn=  0.000000 ICntrl=       600 IOpCl=  2 I1Cent=           0 NGrid=           0
         NMat0=    1 NMatS0=     81 NMatT0=    0 NMatD0=    1 NMtDS0=    0 NMtDT0=    0
 Symmetry not used in FoFCou.
 Two-electron integral symmetry not used.
 Closed shell SCF:
 Using DIIS extrapolation, IDIIS=  1040.
 Overlap will be assumed to be unity.
 NGot=  3758096384 LenX=  3758030928 LenY=  3758029398
 Requested convergence on RMS density matrix=1.00D-08 within  32 cycles.
 Requested convergence on MAX density matrix=1.00D-06.
 Requested convergence on             energy=1.00D-06.
 No special actions if energy rises.

 Cycle   1  Pass 1  IDiag  1:
 E=  2.58946357419558    
 DIIS: error= 1.10D-01 at cycle   1 NSaved=   1.
 NSaved= 1 IEnMin= 1 EnMin=  2.58946357419558     IErMin= 1 ErrMin= 1.10D-01
 ErrMax= 1.10D-01  0.00D+00 EMaxC= 1.00D-01 BMatC= 3.46D-01 BMatP= 3.46D-01
 IDIUse=3 WtCom= 0.00D+00 WtEn= 1.00D+00
 Coeff-Com:  0.100D+01
 Coeff-En:   0.100D+01
 Coeff:      0.100D+01
 GapD=    2.000 DampG=2.000 DampE=0.250 DampFc=0.5000 IDamp=-1.
 Damping current iteration by 5.00D-01
 RMSDP=2.66D-02 MaxDP=1.77D-01              OVMax= 0.00D+00

 Cycle   2  Pass 1  IDiag  1:
 E=  2.20548189086088     Delta-E=       -0.383981683335 Rises=F Damp=T
 DIIS: error= 6.44D-02 at cycle   2 NSaved=   2.
 NSaved= 2 IEnMin= 2 EnMin=  2.20548189086088     IErMin= 2 ErrMin= 6.44D-02
 ErrMax= 6.44D-02  0.00D+00 EMaxC= 1.00D-01 BMatC= 1.41D-01 BMatP= 3.46D-01
 IDIUse=3 WtCom= 3.56D-01 WtEn= 6.44D-01
 Coeff-Com: -0.171D+01 0.271D+01
 Coeff-En:   0.000D+00 0.100D+01
 Coeff:     -0.607D+00 0.161D+01
 RMSDP=1.90D-02 MaxDP=1.30D-01 DE=-3.84D-01 OVMax= 0.00D+00

 Cycle   3  Pass 1  IDiag  1:
 E=  1.65943969800645     Delta-E=       -0.546042192854 Rises=F Damp=F
 DIIS: error= 7.22D-03 at cycle   3 NSaved=   3.
 NSaved= 3 IEnMin= 3 EnMin=  1.65943969800645     IErMin= 3 ErrMin= 7.22D-03
 ErrMax= 7.22D-03  0.00D+00 EMaxC= 1.00D-01 BMatC= 4.39D-03 BMatP= 1.41D-01
 IDIUse=3 WtCom= 9.28D-01 WtEn= 7.22D-02
 Coeff-Com:  0.842D+00-0.159D+01 0.174D+01
 Coeff-En:   0.000D+00 0.000D+00 0.100D+01
 Coeff:      0.781D+00-0.147D+01 0.169D+01
 RMSDP=4.58D-03 MaxDP=2.94D-02 DE=-5.46D-01 OVMax= 0.00D+00

 Cycle   4  Pass 1  IDiag  3:
 E=  1.64445825787783     Delta-E=       -0.014981440129 Rises=F Damp=F
 DIIS: error= 2.17D-03 at cycle   4 NSaved=   4.
 NSaved= 4 IEnMin= 4 EnMin=  1.64445825787783     IErMin= 4 ErrMin= 2.17D-03
 ErrMax= 2.17D-03  0.00D+00 EMaxC= 1.00D-01 BMatC= 1.29D-04 BMatP= 4.39D-03
 IDIUse=3 WtCom= 9.78D-01 WtEn= 2.17D-02
 Coeff-Com: -0.134D+00 0.289D+00-0.603D+00 0.145D+01
 Coeff-En:   0.000D+00 0.000D+00 0.000D+00 0.100D+01
 Coeff:     -0.131D+00 0.282D+00-0.590D+00 0.144D+01
 Gap=     0.398 Goal=   None    Shift=    0.000
 RMSDP=1.30D-03 MaxDP=8.26D-03 DE=-1.50D-02 OVMax= 1.95D-02

 Cycle   5  Pass 1  IDiag  3:
 E=  1.64366654753343     Delta-E=       -0.000791710344 Rises=F Damp=F
 DIIS: error= 3.44D-04 at cycle   5 NSaved=   5.
 NSaved= 5 IEnMin= 5 EnMin=  1.64366654753343     IErMin= 5 ErrMin= 3.44D-04
 ErrMax= 3.44D-04  0.00D+00 EMaxC= 1.00D-01 BMatC= 6.33D-06 BMatP= 1.29D-04
 IDIUse=3 WtCom= 9.97D-01 WtEn= 3.44D-03
 Coeff-Com:  0.321D-01-0.680D-01 0.148D+00-0.543D+00 0.143D+01
 Coeff-En:   0.000D+00 0.000D+00 0.000D+00 0.000D+00 0.100D+01
 Coeff:      0.320D-01-0.677D-01 0.147D+00-0.541D+00 0.143D+01
 Gap=     0.399 Goal=   None    Shift=    0.000
 RMSDP=3.51D-04 MaxDP=2.11D-03 DE=-7.92D-04 OVMax= 5.44D-03

 Cycle   6  Pass 1  IDiag  3:
 E=  1.64361939420257     Delta-E=       -0.000047153331 Rises=F Damp=F
 DIIS: error= 9.29D-05 at cycle   6 NSaved=   6.
 NSaved= 6 IEnMin= 6 EnMin=  1.64361939420257     IErMin= 6 ErrMin= 9.29D-05
 ErrMax= 9.29D-05  0.00D+00 EMaxC= 1.00D-01 BMatC= 4.29D-07 BMatP= 6.33D-06
 IDIUse=1 WtCom= 1.00D+00 WtEn= 0.00D+00
 Coeff-Com: -0.468D-02 0.107D-01-0.312D-01 0.171D+00-0.686D+00 0.154D+01
 Coeff:     -0.468D-02 0.107D-01-0.312D-01 0.171D+00-0.686D+00 0.154D+01
 Gap=     0.400 Goal=   None    Shift=    0.000
 RMSDP=9.19D-05 MaxDP=5.41D-04 DE=-4.72D-05 OVMax= 1.13D-03

 Cycle   7  Pass 1  IDiag  3:
 E=  1.64361625993945     Delta-E=       -0.000003134263 Rises=F Damp=F
 DIIS: error= 2.16D-05 at cycle   7 NSaved=   7.
 NSaved= 7 IEnMin= 7 EnMin=  1.64361625993945     IErMin= 7 ErrMin= 2.16D-05
 ErrMax= 2.16D-05  0.00D+00 EMaxC= 1.00D-01 BMatC= 2.79D-08 BMatP= 4.29D-07
 IDIUse=1 WtCom= 1.00D+00 WtEn= 0.00D+00
 Coeff-Com:  0.328D-03-0.102D-02 0.519D-02-0.452D-01 0.233D+00-0.725D+00
 Coeff-Com:  0.153D+01
 Coeff:      0.328D-03-0.102D-02 0.519D-02-0.452D-01 0.233D+00-0.725D+00
 Coeff:      0.153D+01
 Gap=     0.400 Goal=   None    Shift=    0.000
 RMSDP=2.26D-05 MaxDP=1.31D-04 DE=-3.13D-06 OVMax= 1.92D-04

 Cycle   8  Pass 1  IDiag  3:
 E=  1.64361606225060     Delta-E=       -0.000000197689 Rises=F Damp=F
 DIIS: error= 4.75D-06 at cycle   8 NSaved=   8.
 NSaved= 8 IEnMin= 8 EnMin=  1.64361606225060     IErMin= 8 ErrMin= 4.75D-06
 ErrMax= 4.75D-06  0.00D+00 EMaxC= 1.00D-01 BMatC= 1.51D-09 BMatP= 2.79D-08
 IDIUse=1 WtCom= 1.00D+00 WtEn= 0.00D+00
 Coeff-Com:  0.732D-04-0.108D-03-0.239D-03 0.927D-02-0.618D-01 0.225D+00
 Coeff-Com: -0.665D+00 0.149D+01
 Coeff:      0.732D-04-0.108D-03-0.239D-03 0.927D-02-0.618D-01 0.225D+00
 Coeff:     -0.665D+00 0.149D+01
 Gap=     0.400 Goal=   None    Shift=    0.000
 RMSDP=5.53D-06 MaxDP=3.08D-05 DE=-1.98D-07 OVMax= 5.56D-05

 Cycle   9  Pass 1  IDiag  3:
 E=  1.64361605084810     Delta-E=       -0.000000011403 Rises=F Damp=F
 DIIS: error= 1.76D-06 at cycle   9 NSaved=   9.
 NSaved= 9 IEnMin= 9 EnMin=  1.64361605084810     IErMin= 9 ErrMin= 1.76D-06
 ErrMax= 1.76D-06  0.00D+00 EMaxC= 1.00D-01 BMatC= 1.02D-10 BMatP= 1.51D-09
 IDIUse=1 WtCom= 1.00D+00 WtEn= 0.00D+00
 Coeff-Com: -0.137D-04 0.279D-04-0.219D-04-0.304D-02 0.224D-01-0.851D-01
 Coeff-Com:  0.271D+00-0.766D+00 0.156D+01
 Coeff:     -0.137D-04 0.279D-04-0.219D-04-0.304D-02 0.224D-01-0.851D-01
 Coeff:      0.271D+00-0.766D+00 0.156D+01
 Gap=     0.400 Goal=   None    Shift=    0.000
 RMSDP=1.52D-06 MaxDP=9.85D-06 DE=-1.14D-08 OVMax= 2.15D-05

 Cycle  10  Pass 1  IDiag  3:
 E=  1.64361604997657     Delta-E=       -0.000000000872 Rises=F Damp=F
 DIIS: error= 5.55D-07 at cycle  10 NSaved=  10.
 NSaved=10 IEnMin=10 EnMin=  1.64361604997657     IErMin=10 ErrMin= 5.55D-07
 ErrMax= 5.55D-07  0.00D+00 EMaxC= 1.00D-01 BMatC= 1.14D-11 BMatP= 1.02D-10
 IDIUse=1 WtCom= 1.00D+00 WtEn= 0.00D+00
 Coeff-Com: -0.264D-04 0.466D-04-0.351D-04 0.709D-03-0.496D-02 0.188D-01
 Coeff-Com: -0.632D-01 0.219D+00-0.752D+00 0.158D+01
 Coeff:     -0.264D-04 0.466D-04-0.351D-04 0.709D-03-0.496D-02 0.188D-01
 Coeff:     -0.632D-01 0.219D+00-0.752D+00 0.158D+01
 Gap=     0.400 Goal=   None    Shift=    0.000
 RMSDP=5.76D-07 MaxDP=4.19D-06 DE=-8.72D-10 OVMax= 9.46D-06

 Cycle  11  Pass 1  IDiag  3:
 E=  1.64361604986942     Delta-E=       -0.000000000107 Rises=F Damp=F
 DIIS: error= 1.53D-07 at cycle  11 NSaved=  11.
 NSaved=11 IEnMin=11 EnMin=  1.64361604986942     IErMin=11 ErrMin= 1.53D-07
 ErrMax= 1.53D-07  0.00D+00 EMaxC= 1.00D-01 BMatC= 1.07D-12 BMatP= 1.14D-11
 IDIUse=1 WtCom= 1.00D+00 WtEn= 0.00D+00
 Coeff-Com: -0.164D-05 0.554D-05-0.250D-04 0.142D-03-0.623D-03 0.183D-02
 Coeff-Com: -0.340D-02-0.922D-02 0.151D+00-0.670D+00 0.153D+01
 Coeff:     -0.164D-05 0.554D-05-0.250D-04 0.142D-03-0.623D-03 0.183D-02
 Coeff:     -0.340D-02-0.922D-02 0.151D+00-0.670D+00 0.153D+01
 Gap=     0.400 Goal=   None    Shift=    0.000
 RMSDP=1.85D-07 MaxDP=1.31D-06 DE=-1.07D-10 OVMax= 3.12D-06

 Cycle  12  Pass 1  IDiag  3:
 E=  1.64361604986038     Delta-E=       -0.000000000009 Rises=F Damp=F
 DIIS: error= 3.31D-08 at cycle  12 NSaved=  12.
 NSaved=12 IEnMin=12 EnMin=  1.64361604986038     IErMin=12 ErrMin= 3.31D-08
 ErrMax= 3.31D-08  0.00D+00 EMaxC= 1.00D-01 BMatC= 6.90D-14 BMatP= 1.07D-12
 IDIUse=1 WtCom= 1.00D+00 WtEn= 0.00D+00
 Coeff-Com:  0.326D-05-0.651D-05 0.105D-04-0.998D-04 0.592D-03-0.207D-02
 Coeff-Com:  0.600D-02-0.137D-01 0.677D-02 0.104D+00-0.522D+00 0.142D+01
 Coeff:      0.326D-05-0.651D-05 0.105D-04-0.998D-04 0.592D-03-0.207D-02
 Coeff:      0.600D-02-0.137D-01 0.677D-02 0.104D+00-0.522D+00 0.142D+01
 Gap=     0.400 Goal=   None    Shift=    0.000
 RMSDP=4.17D-08 MaxDP=2.61D-07 DE=-9.04D-12 OVMax= 6.69D-07

 Cycle  13  Pass 1  IDiag  3:
 E=  1.64361604985845     Delta-E=       -0.000000000002 Rises=F Damp=F
 DIIS: error= 7.95D-09 at cycle  13 NSaved=  13.
 NSaved=13 IEnMin=13 EnMin=  1.64361604985845     IErMin=13 ErrMin= 7.95D-09
 ErrMax= 7.95D-09  0.00D+00 EMaxC= 1.00D-01 BMatC= 4.23D-15 BMatP= 6.90D-14
 IDIUse=1 WtCom= 1.00D+00 WtEn= 0.00D+00
 Coeff-Com: -0.553D-07 0.765D-07 0.162D-06 0.142D-04-0.105D-03 0.383D-03
 Coeff-Com: -0.116D-02 0.335D-02-0.868D-02 0.790D-02 0.563D-01-0.407D+00
 Coeff-Com:  0.135D+01
 Coeff:     -0.553D-07 0.765D-07 0.162D-06 0.142D-04-0.105D-03 0.383D-03
 Coeff:     -0.116D-02 0.335D-02-0.868D-02 0.790D-02 0.563D-01-0.407D+00
 Coeff:      0.135D+01
 Gap=     0.400 Goal=   None    Shift=    0.000
 RMSDP=8.37D-09 MaxDP=5.64D-08 DE=-1.93D-12 OVMax= 1.20D-07

 Cycle  14  Pass 2  IDiag  1:
 SCF Done:  E(RAM1) =   1.64361604986     A.U. after   14 cycles
            NFock= 13  Conv=0.84D-08     -V/T= 1.0096
 KE=-1.704571301325D+02 PE=-4.337531811094D+02 EE= 2.798936494698D+02
 Leave Link  502 at Sun May 25 05:39:51 2025, MaxMem=  3758096384 cpu:               0.1 elap:               0.0
 (Enter /apps/easybuild-2022/easybuild/software/Compiler/NVHPC/22.11-CUDA-11.7.0/Gaussian/g16c01-CUDA-11.7.0/g16/l508.exe)
 QCSCF skips out because SCF is already converged.
 Leave Link  508 at Sun May 25 05:39:51 2025, MaxMem=  3758096384 cpu:               0.0 elap:               0.0
 (Enter /apps/easybuild-2022/easybuild/software/Compiler/NVHPC/22.11-CUDA-11.7.0/Gaussian/g16c01-CUDA-11.7.0/g16/l701.exe)
 ... and contract with generalized density number  0.
 Compute integral first derivatives.
 Leave Link  701 at Sun May 25 05:39:51 2025, MaxMem=  3758096384 cpu:               0.1 elap:               0.0
 (Enter /apps/easybuild-2022/easybuild/software/Compiler/NVHPC/22.11-CUDA-11.7.0/Gaussian/g16c01-CUDA-11.7.0/g16/l702.exe)
 L702 exits ... SP integral derivatives will be done elsewhere.
 Leave Link  702 at Sun May 25 05:39:51 2025, MaxMem=  3758096384 cpu:               0.0 elap:               0.0
 (Enter /apps/easybuild-2022/easybuild/software/Compiler/NVHPC/22.11-CUDA-11.7.0/Gaussian/g16c01-CUDA-11.7.0/g16/l703.exe)
 Integral derivatives from FoFJK, PRISM(SPDF).
 Compute integral first derivatives, UseDBF=F ICtDFT=           0.
 Calling FoFJK, ICntrl=      2127 FMM=F ISym2X=0 I1Cent= 0 IOpClX= 0 NMat=1 NMatS=1 NMatT=0.
 FoFJK:  IHMeth= 8 ICntrl=    2127 DoSepK=F KAlg= 0 I1Cent=           0 FoldK=F
 IRaf=         0 NMat=       1 IRICut=       1 DoRegI=T DoRafI=F ISym2E= 0 IDoP0=3 IntGTp=3.
 FoFCou: FMM=F IPFlag=           0 FMFlag=      100000 FMFlg1=         800
         NFxFlg=           0 DoJE=F BraDBF=F KetDBF=F FulRan=T
         wScrn=  0.000000 ICntrl=      2127 IOpCl=  0 I1Cent=           0 NGrid=           0
         NMat0=    1 NMatS0=      1 NMatT0=    0 NMatD0=    1 NMtDS0=    0 NMtDT0=    0
 Symmetry not used in FoFCou.
 Leave Link  703 at Sun May 25 05:39:51 2025, MaxMem=  3758096384 cpu:               0.0 elap:               0.0
 (Enter /apps/easybuild-2022/easybuild/software/Compiler/NVHPC/22.11-CUDA-11.7.0/Gaussian/g16c01-CUDA-11.7.0/g16/l716.exe)
 Dipole        =-4.71072792D-01-1.02877796D+00-1.03052416D-01
 -------------------------------------------------------------------
 Center     Atomic                   Forces (Hartrees/Bohr)
 Number     Number              X              Y              Z
 -------------------------------------------------------------------
      1        6           0.013116480    0.038136902    0.008633604
      2        9          -0.014051428    0.088044908    0.004736820
      3        9           0.014999348   -0.053448800    0.050069299
      4        9          -0.033942864   -0.030994970   -0.064362339
      5       16           0.021457714    0.055838776    0.004681703
      6        8          -0.022229396    0.002077235   -0.031619729
      7        8          -0.015183788   -0.004480982    0.032116710
      8        8           0.051826645    0.012686562   -0.012077919
      9        1          -0.015992710   -0.107859630    0.007821852
 -------------------------------------------------------------------
 Cartesian Forces:  Max     0.107859630 RMS     0.039833435
 Z-matrix is all fixed cartesians, so copy forces.
 Force constants in Cartesian coordinates: 
                1             2             3             4             5 
      1  0.299472D+00
      2  0.811859D-01  0.872679D+00
      3  0.423214D+00 -0.113322D+00  0.105031D+01
      4  0.000000D+00  0.000000D+00  0.000000D+00  0.427856D-02
      5  0.000000D+00  0.000000D+00  0.000000D+00 -0.482519D-01  0.544166D+00
      6  0.000000D+00  0.000000D+00  0.000000D+00 -0.100655D-02  0.113515D-01
      7 -0.713913D-01  0.809341D-01 -0.126606D+00  0.000000D+00  0.000000D+00
      8  0.869328D-01 -0.477317D+00  0.343720D+00  0.000000D+00  0.000000D+00
      9 -0.127148D+00  0.326246D+00 -0.400779D+00  0.000000D+00  0.000000D+00
     10 -0.167941D+00 -0.130843D+00 -0.274599D+00  0.000000D+00  0.000000D+00
     11 -0.139190D+00 -0.230798D+00 -0.228795D+00  0.000000D+00  0.000000D+00
     12 -0.274655D+00 -0.212732D+00 -0.560866D+00  0.000000D+00  0.000000D+00
     13 -0.633295D-01 -0.303773D-01 -0.223227D-01  0.000000D+00  0.000000D+00
     14 -0.287669D-01 -0.164681D+00 -0.806218D-03  0.000000D+00  0.000000D+00
     15 -0.218241D-01  0.485562D-03 -0.949256D-01  0.000000D+00  0.000000D+00
     16 -0.219569D-02  0.919561D-03 -0.354837D-02  0.000000D+00  0.000000D+00
     17 -0.134208D-01  0.549162D-02 -0.202573D-01  0.000000D+00  0.000000D+00
     18  0.662274D-03 -0.285838D-03  0.116430D-02  0.000000D+00  0.000000D+00
     19 -0.185147D-02  0.773429D-04  0.475152D-02  0.000000D+00  0.000000D+00
     20 -0.943496D-02  0.571445D-03  0.222465D-01  0.000000D+00  0.000000D+00
     21 -0.219162D-02  0.116289D-03  0.535008D-02  0.000000D+00  0.000000D+00
     22  0.723693D-02 -0.189634D-02 -0.889831D-03  0.000000D+00  0.000000D+00
     23  0.226944D-01 -0.594717D-02 -0.278585D-02  0.000000D+00  0.000000D+00
     24  0.194225D-02 -0.507947D-03 -0.249840D-03  0.000000D+00  0.000000D+00
     25  0.000000D+00  0.000000D+00  0.000000D+00 -0.427856D-02  0.482519D-01
     26  0.000000D+00  0.000000D+00  0.000000D+00  0.482519D-01 -0.544166D+00
     27  0.000000D+00  0.000000D+00  0.000000D+00  0.100655D-02 -0.113515D-01
                6             7             8             9            10 
      6  0.236796D-03
      7  0.000000D+00  0.558824D-01
      8  0.000000D+00 -0.915874D-01  0.452954D+00
      9  0.000000D+00  0.126824D+00 -0.349063D+00  0.395009D+00
     10  0.000000D+00  0.534785D-02 -0.278010D-02 -0.456985D-02  0.158285D+00
     11  0.000000D+00  0.142830D-01  0.279566D-01  0.255659D-01  0.134546D+00
     12  0.000000D+00 -0.969820D-02 -0.119964D-01 -0.990128D-02  0.281984D+00
     13  0.000000D+00  0.101638D-01  0.743405D-02  0.489139D-02  0.430476D-02
     14  0.000000D+00 -0.363069D-02 -0.359348D-02 -0.274854D-02 -0.921760D-03
     15  0.000000D+00  0.948167D-02  0.173395D-01  0.156701D-01 -0.281719D-02
     16  0.000000D+00 -0.309546D-03  0.694965D-04  0.166918D-03  0.319882D-03
     17  0.000000D+00  0.645431D-04 -0.144906D-04 -0.348038D-04 -0.666981D-04
     18  0.000000D+00  0.221867D-03 -0.498115D-04 -0.119638D-03 -0.229275D-03
     19  0.000000D+00  0.341086D-03 -0.765775D-04 -0.183925D-03 -0.352474D-03
     20  0.000000D+00 -0.106357D-03  0.238784D-04  0.573515D-04  0.109909D-03
     21  0.000000D+00  0.146427D-03 -0.328744D-04 -0.789582D-04 -0.151316D-03
     22  0.000000D+00 -0.343102D-04  0.770301D-05  0.185012D-04  0.354558D-04
     23  0.000000D+00  0.427751D-04 -0.960347D-05 -0.230657D-04 -0.442033D-04
     24  0.000000D+00 -0.370557D-03  0.831941D-04  0.199817D-03  0.382929D-03
     25  0.100655D-02  0.000000D+00  0.000000D+00  0.000000D+00  0.000000D+00
     26 -0.113515D-01  0.000000D+00  0.000000D+00  0.000000D+00  0.000000D+00
     27 -0.236796D-03  0.000000D+00  0.000000D+00  0.000000D+00  0.000000D+00
               11            12            13            14            15 
     11  0.198109D+00
     12  0.226521D+00  0.558067D+00
     13 -0.963805D-02  0.237105D-02  0.164307D+01
     14  0.473200D-02 -0.179259D-02 -0.206909D+00  0.420215D+00
     15 -0.232916D-01  0.127017D-01 -0.558164D-02 -0.133224D+00  0.185704D+01
     16 -0.754339D-04 -0.132367D-03 -0.426345D+00  0.328835D-01 -0.465661D+00
     17  0.157286D-04  0.275997D-04  0.391074D-01 -0.586815D-01  0.536082D-01
     18  0.540671D-04  0.948738D-04 -0.468513D+00  0.450331D-01 -0.765489D+00
     19  0.831199D-04  0.145854D-03 -0.280674D+00 -0.505712D-01  0.383472D+00
     20 -0.259184D-04 -0.454802D-04 -0.466314D-01 -0.709899D-01  0.112099D+00
     21  0.356830D-04  0.626145D-04  0.387433D+00  0.121582D+00 -0.916938D+00
     22 -0.836112D-05 -0.146716D-04 -0.887186D+00  0.257917D+00  0.102930D+00
     23  0.104239D-04  0.182913D-04  0.247015D+00 -0.127002D+00 -0.270176D-01
     24 -0.903017D-04 -0.158456D-03  0.101722D+00 -0.280443D-01 -0.108063D+00
     25  0.000000D+00  0.000000D+00  0.000000D+00  0.000000D+00  0.000000D+00
     26  0.000000D+00  0.000000D+00  0.000000D+00  0.000000D+00  0.000000D+00
     27  0.000000D+00  0.000000D+00  0.000000D+00  0.000000D+00  0.000000D+00
               16            17            18            19            20 
     16  0.406746D+00
     17 -0.325514D-01  0.443983D-01
     18  0.482723D+00 -0.462047D-01  0.753980D+00
     19  0.256891D-01  0.407356D-02 -0.177933D-01  0.255814D+00
     20  0.702515D-03  0.403479D-02 -0.228921D-03  0.545795D-01  0.585618D-01
     21  0.122437D-01  0.248885D-02 -0.844455D-02 -0.398077D+00 -0.121421D+00
     22 -0.390477D-02  0.279336D-02  0.292872D-02  0.103314D-02  0.780790D-03
     23 -0.194831D-02  0.475554D-02  0.168209D-02 -0.816574D-02  0.782396D-02
     24 -0.257918D-01  0.103721D-01  0.188142D-01  0.276858D-01 -0.127081D-01
     25  0.000000D+00  0.000000D+00  0.000000D+00  0.000000D+00  0.000000D+00
     26  0.000000D+00  0.000000D+00  0.000000D+00  0.000000D+00  0.000000D+00
     27  0.000000D+00  0.000000D+00  0.000000D+00  0.000000D+00  0.000000D+00
               21            22            23            24            25 
     21  0.908732D+00
     22  0.597392D-03  0.882820D+00
     23 -0.276923D-02 -0.259594D+00  0.120369D+00
     24  0.113169D-01 -0.105570D+00  0.308954D-01  0.781400D-01
     25  0.000000D+00  0.000000D+00  0.000000D+00  0.000000D+00  0.427856D-02
     26  0.000000D+00  0.000000D+00  0.000000D+00  0.000000D+00 -0.482519D-01
     27  0.000000D+00  0.000000D+00  0.000000D+00  0.000000D+00 -0.100655D-02
               26            27 
     26  0.544166D+00
     27  0.113515D-01  0.236796D-03
 Leave Link  716 at Sun May 25 05:39:51 2025, MaxMem=  3758096384 cpu:               0.0 elap:               0.0
 (Enter /apps/easybuild-2022/easybuild/software/Compiler/NVHPC/22.11-CUDA-11.7.0/Gaussian/g16c01-CUDA-11.7.0/g16/l103.exe)

 GradGradGradGradGradGradGradGradGradGradGradGradGradGradGradGradGradGrad
 Berny optimization.
 Search for a local minimum.
 Step number   1 out of a maximum of    2
 All quantities printed in internal units (Hartrees-Bohrs-Radians)
 Second derivative matrix not updated -- first step.
 ITU=  0
     Eigenvalues ---    0.00000   0.00000   0.00000   0.00000   0.00000
     Eigenvalues ---    0.00245   0.03175   0.03938   0.04895   0.10488
     Eigenvalues ---    0.11475   0.16292   0.17497   0.22039   0.39182
     Eigenvalues ---    1.02215   1.12297   1.51630   1.98490   2.63069
     Eigenvalues ---    2.90177
 Eigenvalue     1 is   2.22D-16 Eigenvector:
                          X2        Z2        Y2        X7        X4
   1                    0.84397  -0.31204   0.18850  -0.13007  -0.13007
                          X5        X1        X8        X3        X6
   1                   -0.13007  -0.13007  -0.13007  -0.13007  -0.13007
 Eigenvalue     2 is   6.66D-16 Eigenvector:
                          X9        Z9        Y2        X6        X3
   1                    0.92580  -0.34008  -0.07440  -0.04992  -0.04992
                          X8        X1        X5        X4        X7
   1                   -0.04992  -0.04992  -0.04992  -0.04992  -0.04992
 Eigenvalue     3 is   2.13D-10 Eigenvector:
                          Z9        X9        Z2        Z8        X6
   1                    0.90224   0.32776  -0.16828  -0.13237  -0.08463
                          X3        X7        X4        X2        Y2
   1                   -0.07214   0.06982   0.04751  -0.04718  -0.04220
 Eigenvalue     4 is   7.96D-08 Eigenvector:
                          Z2        Z8        X2        X3        X6
   1                    0.64888  -0.34128   0.28806  -0.28466  -0.25447
                          X7        Z4        Y9        Z1        Y2
   1                    0.24740  -0.24169  -0.14321  -0.13964  -0.13001
 Eigenvalue     5 is   9.51D-07 Eigenvector:
                          Y9        Y2        Y8        Z2        X4
   1                    0.53674   0.51834  -0.26097   0.24062   0.22697
                          X3        X8        Y4        Y3        X6
   1                    0.19308  -0.16241  -0.15143  -0.14961  -0.14626
 Quadratic step=3.598D+02 exceeds max=3.000D-01 adjusted using Lamda=-1.877D-01.
 Angle between NR and scaled steps=  50.20 degrees.
 Angle between quadratic step and forces=  43.51 degrees.
 Linear search not attempted -- first point.
 B after Tr=    -0.000374    0.020678   -0.001228
         Rot=    0.999997    0.000892    0.000244    0.002129 Ang=   0.27 deg.
 Variable       Old X    -DE/DX   Delta X   Delta X   Delta X     New X
                                 (Linear)    (Quad)   (Total)
    X1        3.06003   0.01312   0.00000   0.00701   0.00763   3.06766
    Y1        0.22387   0.03814   0.00000  -0.03277  -0.02590   0.19797
    Z1       -0.41152   0.00863   0.00000  -0.00592  -0.00598  -0.41750
    X2       -0.54155  -0.01405   0.00000  -0.03924  -0.03648  -0.57803
    Y2        0.87437   0.08804   0.00000   0.00403   0.02943   0.90381
    Z2        1.24863   0.00474   0.00000   0.02014   0.01705   1.26568
    X3        3.53676   0.01500   0.00000   0.02476   0.01714   3.55390
    Y3       -1.47500  -0.05345   0.00000  -0.07717  -0.06945  -1.54445
    Z3        1.17988   0.05007   0.00000   0.04961   0.05290   1.23278
    X4        2.04262  -0.03394   0.00000  -0.03364  -0.03609   2.00653
    Y4       -0.70516  -0.03099   0.00000  -0.05171  -0.04388  -0.74904
    Z4       -2.34079  -0.06436   0.00000  -0.06969  -0.06857  -2.40936
    X5        4.02532   0.02146   0.00000   0.03518   0.05118   4.07651
    Y5        3.75817   0.05584   0.00000   0.08562   0.08881   3.84698
    Z5       -0.09292   0.00468   0.00000   0.00320  -0.00288  -0.09580
    X6        5.56855  -0.02223   0.00000  -0.01080   0.00323   5.57178
    Y6        3.61401   0.00208   0.00000   0.01789   0.01859   3.63261
    Z6        2.10211  -0.03162   0.00000  -0.00988  -0.01484   2.08727
    X7        5.16225  -0.01518   0.00000  -0.00065   0.01766   5.17990
    Y7        4.09365  -0.00448   0.00000   0.01954   0.01376   4.10741
    Z7       -2.49759   0.03212   0.00000   0.01365   0.00764  -2.48995
    X8        1.43268   0.05183   0.00000   0.07488   0.09422   1.52690
    Y8        4.55650   0.01269   0.00000   0.10142   0.11601   4.67251
    Z8        0.23929  -0.01208   0.00000  -0.02416  -0.03295   0.20634
    X9       -0.70222  -0.01599   0.00000  -0.12827  -0.11850  -0.82072
    Y9        2.68637  -0.10786   0.00000  -0.15396  -0.12738   2.55898
    Z9        1.28643   0.00782   0.00000   0.05378   0.04762   1.33405
         Item               Value     Threshold  Converged?
 Maximum Force            0.107860     0.000450     NO 
 RMS     Force            0.039833     0.000300     NO 
 Maximum Displacement     0.127381     0.001800     NO 
 RMS     Displacement     0.056669     0.001200     NO 
 Predicted change in Energy=-3.097179D-02
 GradGradGradGradGradGradGradGradGradGradGradGradGradGradGradGradGradGrad

 Leave Link  103 at Sun May 25 05:39:51 2025, MaxMem=  3758096384 cpu:               0.0 elap:               0.0
 (Enter /apps/easybuild-2022/easybuild/software/Compiler/NVHPC/22.11-CUDA-11.7.0/Gaussian/g16c01-CUDA-11.7.0/g16/l9999.exe)
 Unable to Open any file for archive entry.
 1\1\GINC-SPARTAN-BM142\Force\RAM1\ZDO\C1H1F3O3S1\AKHALILOV\25-May-2025
 \0\\#P am1 Symm(None) scf(xqc) pop(None) force\\Gaussian input prepare
 d by ASE\\0,1\C,1.6193000151,0.1184683732,-0.2177684874\F,-0.286575377
 7,0.4626990369,0.6607462699\F,1.8715704787,-0.7805360568,0.6243658829\
 F,1.0809079356,-0.3731561129,-1.2386914954\S,2.1301097712,1.9887398002
 ,-0.049170776\O,2.9467485738,1.912454201,1.1123882004\O,2.7317429662,2
 .1662637063,-1.3216673064\O,0.7581407622,2.4111963941,0.1266272131\H,-
 0.3715991252,1.4215636582,0.680748499\\Version=ES64L-G16RevC.01\HF=1.6
 43616\RMSD=8.370e-09\RMSF=3.983e-02\Dipole=-0.4710728,-1.028778,-0.103
 0524\PG=Unknown\\@
 The archive entry for this job was punched.


 THE ONLY DIFFERENCE BETWEEN ECCENTRICS AND JOGGERS
 IS THAT JOGGERS WEAR SWEATBANDS WHEN THEY RUN IN THE RAIN.
 Job cpu time:       0 days  0 hours  0 minutes  0.7 seconds.
 Elapsed time:       0 days  0 hours  0 minutes  0.4 seconds.
 File lengths (MBytes):  RWF=      6 Int=      0 D2E=      0 Chk=      2 Scr=      1
 Normal termination of Gaussian 16 at Sun May 25 05:39:51 2025.
done
