 Entering Gaussian System, Link 0=g16
 Initial command:
 /apps/easybuild-2022/easybuild/software/Compiler/NVHPC/22.11-CUDA-11.7.0/Gaussian/g16c01-CUDA-11.7.0/g16/l1.exe "/tmp/Gau-12404.inp" -scrdir="/tmp/"
 Entering Link 1 = /apps/easybuild-2022/easybuild/software/Compiler/NVHPC/22.11-CUDA-11.7.0/Gaussian/g16c01-CUDA-11.7.0/g16/l1.exe PID=     12410.
  
 Copyright (c) 1988-2019, Gaussian, Inc.  All Rights Reserved.
  
 This is part of the Gaussian(R) 16 program.  It is based on
 the Gaussian(R) 09 system (copyright 2009, Gaussian, Inc.),
 the Gaussian(R) 03 system (copyright 2003, Gaussian, Inc.),
 the Gaussian(R) 98 system (copyright 1998, Gaussian, Inc.),
 the Gaussian(R) 94 system (copyright 1995, Gaussian, Inc.),
 the Gaussian 92(TM) system (copyright 1992, Gaussian, Inc.),
 the Gaussian 90(TM) system (copyright 1990, Gaussian, Inc.),
 the Gaussian 88(TM) system (copyright 1988, Gaussian, Inc.),
 the Gaussian 86(TM) system (copyright 1986, Carnegie Mellon
 University), and the Gaussian 82(TM) system (copyright 1983,
 Carnegie Mellon University). Gaussian is a federally registered
 trademark of Gaussian, Inc.
  
 This software contains proprietary and confidential information,
 including trade secrets, belonging to Gaussian, Inc.
  
 This software is provided under written license and may be
 used, copied, transmitted, or stored only in accord with that
 written license.
  
 The following legend is applicable only to US Government
 contracts under FAR:
  
                    RESTRICTED RIGHTS LEGEND
  
 Use, reproduction and disclosure by the US Government is
 subject to restrictions as set forth in subparagraphs (a)
 and (c) of the Commercial Computer Software - Restricted
 Rights clause in FAR 52.227-19.
  
 Gaussian, Inc.
 340 Quinnipiac St., Bldg. 40, Wallingford CT 06492
  
  
 ---------------------------------------------------------------
 Warning -- This program may not be used in any manner that
 competes with the business of Gaussian, Inc. or will provide
 assistance to any competitor of Gaussian, Inc.  The licensee
 of this program is prohibited from giving any competitor of
 Gaussian, Inc. access to this program.  By using this program,
 the user acknowledges that Gaussian, Inc. is engaged in the
 business of creating and licensing software in the field of
 computational chemistry and represents and warrants to the
 licensee that it is not a competitor of Gaussian, Inc. and that
 it will not use this program in any manner prohibited above.
 ---------------------------------------------------------------
  

 Cite this work as:
 Gaussian 16, Revision C.01,
 M. J. Frisch, G. W. Trucks, H. B. Schlegel, G. E. Scuseria, 
 M. A. Robb, J. R. Cheeseman, G. Scalmani, V. Barone, 
 G. A. Petersson, H. Nakatsuji, X. Li, M. Caricato, A. V. Marenich, 
 J. Bloino, B. G. Janesko, R. Gomperts, B. Mennucci, H. P. Hratchian, 
 J. V. Ortiz, A. F. Izmaylov, J. L. Sonnenberg, D. Williams-Young, 
 F. Ding, F. Lipparini, F. Egidi, J. Goings, B. Peng, A. Petrone, 
 T. Henderson, D. Ranasinghe, V. G. Zakrzewski, J. Gao, N. Rega, 
 G. Zheng, W. Liang, M. Hada, M. Ehara, K. Toyota, R. Fukuda, 
 J. Hasegawa, M. Ishida, T. Nakajima, Y. Honda, O. Kitao, H. Nakai, 
 T. Vreven, K. Throssell, J. A. Montgomery, Jr., J. E. Peralta, 
 F. Ogliaro, M. J. Bearpark, J. J. Heyd, E. N. Brothers, K. N. Kudin, 
 V. N. Staroverov, T. A. Keith, R. Kobayashi, J. Normand, 
 K. Raghavachari, A. P. Rendell, J. C. Burant, S. S. Iyengar, 
 J. Tomasi, M. Cossi, J. M. Millam, M. Klene, C. Adamo, R. Cammi, 
 J. W. Ochterski, R. L. Martin, K. Morokuma, O. Farkas, 
 J. B. Foresman, and D. J. Fox, Gaussian, Inc., Wallingford CT, 2019.
 
 ******************************************
 Gaussian 16:  ES64L-G16RevC.01  3-Jul-2019
                25-May-2025 
 ******************************************
 %mem=28GB
 %nprocshared=8
 Will use up to    8 processors via shared memory.
 ------------------------------------------
 #P am1 Symm(None) scf(xqc) pop(None) force
 ------------------------------------------
 1/10=7,30=1,38=1/1,3;
 2/12=2,15=3,17=6,18=5,40=1/2;
 3/5=2,25=1,41=700000,71=1/1,2,3;
 4/35=1/1;
 5/5=2,8=3,13=1,35=1,38=5/2,8;
 7/29=1,30=1/1,2,3,16;
 1/10=7,30=1/3;
 99//99;
 Leave Link    1 at Sun May 25 05:39:40 2025, MaxMem=  3758096384 cpu:               0.0 elap:               0.0
 (Enter /apps/easybuild-2022/easybuild/software/Compiler/NVHPC/22.11-CUDA-11.7.0/Gaussian/g16c01-CUDA-11.7.0/g16/l101.exe)
 ------------------------------
 Gaussian input prepared by ASE
 ------------------------------
 Symbolic Z-matrix:
 Charge =  0 Multiplicity = 1
 C                     1.64852   0.10249  -0.11057 
 F                    -0.41056   0.53073   0.20478 
 F                     1.65333  -0.68541   0.86935 
 F                     1.38356  -0.51446  -1.17029 
 S                     2.14468   1.98072   0.00488 
 O                     3.31267   1.84781   0.80493 
 O                     2.26841   2.2843   -1.37543 
 O                     0.90252   2.33218   0.65696 
 H                    -0.42278   1.44934   0.49297 
 
 ITRead=  0  0  0  0  0  0  0  0  0
 MicOpt= -1 -1 -1 -1 -1 -1 -1 -1 -1
 NAtoms=      9 NQM=        9 NQMF=       0 NMMI=      0 NMMIF=      0
                NMic=       0 NMicF=      0.
                    Isotopes and Nuclear Properties:
 (Nuclear quadrupole moments (NQMom) in fm**2, nuclear magnetic moments (NMagM)
  in nuclear magnetons)

  Atom         1           2           3           4           5           6           7           8           9
 IAtWgt=          12          19          19          19          32          16          16          16           1
 AtmWgt=  12.0000000  18.9984032  18.9984032  18.9984032  31.9720718  15.9949146  15.9949146  15.9949146   1.0078250
 NucSpn=           0           1           1           1           0           0           0           0           1
 AtZEff=  -0.0000000  -0.0000000  -0.0000000  -0.0000000  -0.0000000  -0.0000000  -0.0000000  -0.0000000  -0.0000000
 NQMom=    0.0000000   0.0000000   0.0000000   0.0000000   0.0000000   0.0000000   0.0000000   0.0000000   0.0000000
 NMagM=    0.0000000   2.6288670   2.6288670   2.6288670   0.0000000   0.0000000   0.0000000   0.0000000   2.7928460
 AtZNuc=   6.0000000   9.0000000   9.0000000   9.0000000  16.0000000   8.0000000   8.0000000   8.0000000   1.0000000
 Leave Link  101 at Sun May 25 05:39:40 2025, MaxMem=  3758096384 cpu:               0.1 elap:               0.1
 (Enter /apps/easybuild-2022/easybuild/software/Compiler/NVHPC/22.11-CUDA-11.7.0/Gaussian/g16c01-CUDA-11.7.0/g16/l103.exe)

 GradGradGradGradGradGradGradGradGradGradGradGradGradGradGradGradGradGrad
 Berny optimization.
 Initialization pass.
 Trust Radius=3.00D-01 FncErr=1.00D-07 GrdErr=1.00D-07 EigMax=2.50D+02 EigMin=1.00D-04
 Number of steps in this run=      2 maximum allowed number of steps=      2.
 GradGradGradGradGradGradGradGradGradGradGradGradGradGradGradGradGradGrad

 Leave Link  103 at Sun May 25 05:39:40 2025, MaxMem=  3758096384 cpu:               0.0 elap:               0.0
 (Enter /apps/easybuild-2022/easybuild/software/Compiler/NVHPC/22.11-CUDA-11.7.0/Gaussian/g16c01-CUDA-11.7.0/g16/l202.exe)
                          Input orientation:                          
 ---------------------------------------------------------------------
 Center     Atomic      Atomic             Coordinates (Angstroms)
 Number     Number       Type             X           Y           Z
 ---------------------------------------------------------------------
      1          6           0        1.648516    0.102490   -0.110565
      2          9           0       -0.410565    0.530727    0.204779
      3          9           0        1.653331   -0.685410    0.869348
      4          9           0        1.383562   -0.514465   -1.170287
      5         16           0        2.144681    1.980723    0.004883
      6          8           0        3.312673    1.847815    0.804926
      7          8           0        2.268409    2.284298   -1.375428
      8          8           0        0.902524    2.332176    0.656957
      9          1           0       -0.422785    1.449340    0.492965
 ---------------------------------------------------------------------
                    Distance matrix (angstroms):
                    1          2          3          4          5
     1  C    0.000000
     2  F    2.126651   0.000000
     3  F    1.257394   2.486022   0.000000
     4  F    1.254530   2.490406   2.064487   0.000000
     5  S    1.946090   2.944780   2.845521   2.861169   0.000000
     6  O    2.579476   3.994671   3.028992   3.633634   1.421949
     7  O    2.597004   3.570569   3.773129   2.942467   1.418705
     8  O    2.473276   2.274617   3.116833   3.416662   1.446262
     9  H    2.543333   0.962835   3.001513   3.144173   2.666922
                    6          7          8          9
     6  O    0.000000
     7  O    2.456613   0.000000
     8  O    2.462787   2.449188   0.000000
     9  H    3.769582   3.380913   1.600855   0.000000
 Symmetry turned off by external request.
 Stoichiometry    CHF3O3S
 Rotational constants (GHZ):           2.4807372           1.5067894           1.3957707
 Leave Link  202 at Sun May 25 05:39:40 2025, MaxMem=  3758096384 cpu:               0.1 elap:               0.0
 (Enter /apps/easybuild-2022/easybuild/software/Compiler/NVHPC/22.11-CUDA-11.7.0/Gaussian/g16c01-CUDA-11.7.0/g16/l301.exe)
 Standard basis: VSTO-6G (5D, 7F)
 Ernie: Thresh=  0.10000D-02 Tol=  0.10000D-05 Strict=F.
  NNHCO=     0 NNPyr=     0 NCTC=     0               EPep=         0.000000000
    EC=       220.654425342  ECS=         2.020789682   EG=         0.540330734
   EHC=         0.000000000  EAt=       -99.925627445  AtH=         0.836224825
 EPDDG=         0.000000000  ECC=       223.215545759 EAtT=       100.761852269
    33 basis functions,   198 primitive gaussians,    33 cartesian basis functions
    25 alpha electrons       25 beta electrons
       nuclear repulsion energy       325.9607531654 Hartrees.



 Warning!  S  atom    5 may be hypervalent but has no d functions.



 IExCor=    0 DFT=F Ex=HF Corr=None ExCW=0 ScaHFX=  1.000000
 ScaDFX=  1.000000  1.000000  1.000000  1.000000 ScalE2=  1.000000  1.000000
 IRadAn=      5 IRanWt=     -1 IRanGd=            0 ICorTp=0 IEmpDi=  4
 Integral buffers will be    131072 words long.
 Regular integral format.
 Two-electron integral symmetry is turned off.
 Leave Link  301 at Sun May 25 05:39:40 2025, MaxMem=  3758096384 cpu:               0.1 elap:               0.0
 (Enter /apps/easybuild-2022/easybuild/software/Compiler/NVHPC/22.11-CUDA-11.7.0/Gaussian/g16c01-CUDA-11.7.0/g16/l302.exe)
 Do NDO integrals.
 NPDir=0 NMtPBC=     1 NCelOv=     1 NCel=       1 NClECP=     1 NCelD=      1
         NCelK=      1 NCelE2=     1 NClLst=     1 CellRange=     0.0.
 One-electron integrals computed using PRISM.
 NBasis=    33 RedAO= F EigKep=  0.00D+00  NBF=    33
 NBsUse=    33 1.00D-04 EigRej=  0.00D+00 NBFU=    33
 Leave Link  302 at Sun May 25 05:39:40 2025, MaxMem=  3758096384 cpu:               0.1 elap:               0.0
 (Enter /apps/easybuild-2022/easybuild/software/Compiler/NVHPC/22.11-CUDA-11.7.0/Gaussian/g16c01-CUDA-11.7.0/g16/l303.exe)
 DipDrv:  MaxL=1.
 Leave Link  303 at Sun May 25 05:39:40 2025, MaxMem=  3758096384 cpu:               0.1 elap:               0.0
 (Enter /apps/easybuild-2022/easybuild/software/Compiler/NVHPC/22.11-CUDA-11.7.0/Gaussian/g16c01-CUDA-11.7.0/g16/l401.exe)
 Simple Huckel Guess.
 JPrj=0 DoOrth=F DoCkMO=F.
 Leave Link  401 at Sun May 25 05:39:40 2025, MaxMem=  3758096384 cpu:               0.1 elap:               0.0
 (Enter /apps/easybuild-2022/easybuild/software/Compiler/NVHPC/22.11-CUDA-11.7.0/Gaussian/g16c01-CUDA-11.7.0/g16/l502.exe)
 Keep J ints in memory in canonical form, NReq=862797.
 FoFCou: FMM=F IPFlag=           0 FMFlag=           0 FMFlg1=           0
         NFxFlg=           0 DoJE=F BraDBF=F KetDBF=F FulRan=T
         wScrn=  0.000000 ICntrl=       600 IOpCl=  2 I1Cent=           0 NGrid=           0
         NMat0=    1 NMatS0=     81 NMatT0=    0 NMatD0=    1 NMtDS0=    0 NMtDT0=    0
 Symmetry not used in FoFCou.
 Two-electron integral symmetry not used.
 Closed shell SCF:
 Using DIIS extrapolation, IDIIS=  1040.
 Overlap will be assumed to be unity.
 NGot=  3758096384 LenX=  3758030928 LenY=  3758029398
 Requested convergence on RMS density matrix=1.00D-08 within  32 cycles.
 Requested convergence on MAX density matrix=1.00D-06.
 Requested convergence on             energy=1.00D-06.
 No special actions if energy rises.

 Cycle   1  Pass 1  IDiag  1:
 E=  2.58943322885534    
 DIIS: error= 1.10D-01 at cycle   1 NSaved=   1.
 NSaved= 1 IEnMin= 1 EnMin=  2.58943322885534     IErMin= 1 ErrMin= 1.10D-01
 ErrMax= 1.10D-01  0.00D+00 EMaxC= 1.00D-01 BMatC= 3.46D-01 BMatP= 3.46D-01
 IDIUse=3 WtCom= 0.00D+00 WtEn= 1.00D+00
 Coeff-Com:  0.100D+01
 Coeff-En:   0.100D+01
 Coeff:      0.100D+01
 GapD=    2.000 DampG=2.000 DampE=0.250 DampFc=0.5000 IDamp=-1.
 Damping current iteration by 5.00D-01
 RMSDP=2.66D-02 MaxDP=1.77D-01              OVMax= 0.00D+00

 Cycle   2  Pass 1  IDiag  1:
 E=  2.20546571400826     Delta-E=       -0.383967514847 Rises=F Damp=T
 DIIS: error= 6.44D-02 at cycle   2 NSaved=   2.
 NSaved= 2 IEnMin= 2 EnMin=  2.20546571400826     IErMin= 2 ErrMin= 6.44D-02
 ErrMax= 6.44D-02  0.00D+00 EMaxC= 1.00D-01 BMatC= 1.41D-01 BMatP= 3.46D-01
 IDIUse=3 WtCom= 3.56D-01 WtEn= 6.44D-01
 Coeff-Com: -0.171D+01 0.271D+01
 Coeff-En:   0.000D+00 0.100D+01
 Coeff:     -0.607D+00 0.161D+01
 RMSDP=1.90D-02 MaxDP=1.30D-01 DE=-3.84D-01 OVMax= 0.00D+00

 Cycle   3  Pass 1  IDiag  1:
 E=  1.65943342105578     Delta-E=       -0.546032292952 Rises=F Damp=F
 DIIS: error= 7.04D-03 at cycle   3 NSaved=   3.
 NSaved= 3 IEnMin= 3 EnMin=  1.65943342105578     IErMin= 3 ErrMin= 7.04D-03
 ErrMax= 7.04D-03  0.00D+00 EMaxC= 1.00D-01 BMatC= 4.39D-03 BMatP= 1.41D-01
 IDIUse=3 WtCom= 9.30D-01 WtEn= 7.04D-02
 Coeff-Com:  0.843D+00-0.159D+01 0.174D+01
 Coeff-En:   0.000D+00 0.000D+00 0.100D+01
 Coeff:      0.783D+00-0.148D+01 0.169D+01
 RMSDP=4.58D-03 MaxDP=2.95D-02 DE=-5.46D-01 OVMax= 0.00D+00

 Cycle   4  Pass 1  IDiag  3:
 E=  1.64444738527743     Delta-E=       -0.014986035778 Rises=F Damp=F
 DIIS: error= 2.06D-03 at cycle   4 NSaved=   4.
 NSaved= 4 IEnMin= 4 EnMin=  1.64444738527743     IErMin= 4 ErrMin= 2.06D-03
 ErrMax= 2.06D-03  0.00D+00 EMaxC= 1.00D-01 BMatC= 1.28D-04 BMatP= 4.39D-03
 IDIUse=3 WtCom= 9.79D-01 WtEn= 2.06D-02
 Coeff-Com: -0.134D+00 0.289D+00-0.602D+00 0.145D+01
 Coeff-En:   0.000D+00 0.000D+00 0.000D+00 0.100D+01
 Coeff:     -0.131D+00 0.283D+00-0.590D+00 0.144D+01
 Gap=     0.398 Goal=   None    Shift=    0.000
 RMSDP=1.30D-03 MaxDP=7.73D-03 DE=-1.50D-02 OVMax= 1.95D-02

 Cycle   5  Pass 1  IDiag  3:
 E=  1.64365793616309     Delta-E=       -0.000789449114 Rises=F Damp=F
 DIIS: error= 4.01D-04 at cycle   5 NSaved=   5.
 NSaved= 5 IEnMin= 5 EnMin=  1.64365793616309     IErMin= 5 ErrMin= 4.01D-04
 ErrMax= 4.01D-04  0.00D+00 EMaxC= 1.00D-01 BMatC= 6.27D-06 BMatP= 1.28D-04
 IDIUse=3 WtCom= 9.96D-01 WtEn= 4.01D-03
 Coeff-Com:  0.328D-01-0.693D-01 0.150D+00-0.545D+00 0.143D+01
 Coeff-En:   0.000D+00 0.000D+00 0.000D+00 0.000D+00 0.100D+01
 Coeff:      0.327D-01-0.691D-01 0.149D+00-0.543D+00 0.143D+01
 Gap=     0.399 Goal=   None    Shift=    0.000
 RMSDP=3.50D-04 MaxDP=2.49D-03 DE=-7.89D-04 OVMax= 5.41D-03

 Cycle   6  Pass 1  IDiag  3:
 E=  1.64361104532543     Delta-E=       -0.000046890838 Rises=F Damp=F
 DIIS: error= 8.43D-05 at cycle   6 NSaved=   6.
 NSaved= 6 IEnMin= 6 EnMin=  1.64361104532543     IErMin= 6 ErrMin= 8.43D-05
 ErrMax= 8.43D-05  0.00D+00 EMaxC= 1.00D-01 BMatC= 4.35D-07 BMatP= 6.27D-06
 IDIUse=1 WtCom= 1.00D+00 WtEn= 0.00D+00
 Coeff-Com: -0.504D-02 0.115D-01-0.325D-01 0.175D+00-0.697D+00 0.155D+01
 Coeff:     -0.504D-02 0.115D-01-0.325D-01 0.175D+00-0.697D+00 0.155D+01
 Gap=     0.400 Goal=   None    Shift=    0.000
 RMSDP=9.26D-05 MaxDP=6.44D-04 DE=-4.69D-05 OVMax= 1.13D-03

 Cycle   7  Pass 1  IDiag  3:
 E=  1.64360786878888     Delta-E=       -0.000003176537 Rises=F Damp=F
 DIIS: error= 2.16D-05 at cycle   7 NSaved=   7.
 NSaved= 7 IEnMin= 7 EnMin=  1.64360786878888     IErMin= 7 ErrMin= 2.16D-05
 ErrMax= 2.16D-05  0.00D+00 EMaxC= 1.00D-01 BMatC= 2.86D-08 BMatP= 4.35D-07
 IDIUse=1 WtCom= 1.00D+00 WtEn= 0.00D+00
 Coeff-Com:  0.322D-03-0.973D-03 0.482D-02-0.428D-01 0.223D+00-0.696D+00
 Coeff-Com:  0.151D+01
 Coeff:      0.322D-03-0.973D-03 0.482D-02-0.428D-01 0.223D+00-0.696D+00
 Coeff:      0.151D+01
 Gap=     0.400 Goal=   None    Shift=    0.000
 RMSDP=2.27D-05 MaxDP=1.31D-04 DE=-3.18D-06 OVMax= 1.95D-04

 Cycle   8  Pass 1  IDiag  3:
 E=  1.64360766543109     Delta-E=       -0.000000203358 Rises=F Damp=F
 DIIS: error= 4.69D-06 at cycle   8 NSaved=   8.
 NSaved= 8 IEnMin= 8 EnMin=  1.64360766543109     IErMin= 8 ErrMin= 4.69D-06
 ErrMax= 4.69D-06  0.00D+00 EMaxC= 1.00D-01 BMatC= 1.70D-09 BMatP= 2.86D-08
 IDIUse=1 WtCom= 1.00D+00 WtEn= 0.00D+00
 Coeff-Com:  0.123D-03-0.228D-03 0.155D-03 0.657D-02-0.490D-01 0.187D+00
 Coeff-Com: -0.609D+00 0.146D+01
 Coeff:      0.123D-03-0.228D-03 0.155D-03 0.657D-02-0.490D-01 0.187D+00
 Coeff:     -0.609D+00 0.146D+01
 Gap=     0.400 Goal=   None    Shift=    0.000
 RMSDP=5.84D-06 MaxDP=3.33D-05 DE=-2.03D-07 OVMax= 5.38D-05

 Cycle   9  Pass 1  IDiag  3:
 E=  1.64360765252991     Delta-E=       -0.000000012901 Rises=F Damp=F
 DIIS: error= 1.82D-06 at cycle   9 NSaved=   9.
 NSaved= 9 IEnMin= 9 EnMin=  1.64360765252991     IErMin= 9 ErrMin= 1.82D-06
 ErrMax= 1.82D-06  0.00D+00 EMaxC= 1.00D-01 BMatC= 1.23D-10 BMatP= 1.70D-09
 IDIUse=1 WtCom= 1.00D+00 WtEn= 0.00D+00
 Coeff-Com: -0.276D-04 0.696D-04-0.225D-03-0.406D-03 0.688D-02-0.322D-01
 Coeff-Com:  0.137D+00-0.525D+00 0.141D+01
 Coeff:     -0.276D-04 0.696D-04-0.225D-03-0.406D-03 0.688D-02-0.322D-01
 Coeff:      0.137D+00-0.525D+00 0.141D+01
 Gap=     0.400 Goal=   None    Shift=    0.000
 RMSDP=1.57D-06 MaxDP=1.07D-05 DE=-1.29D-08 OVMax= 1.99D-05

 Cycle  10  Pass 1  IDiag  3:
 E=  1.64360765151480     Delta-E=       -0.000000001015 Rises=F Damp=F
 DIIS: error= 6.70D-07 at cycle  10 NSaved=  10.
 NSaved=10 IEnMin=10 EnMin=  1.64360765151480     IErMin=10 ErrMin= 6.70D-07
 ErrMax= 6.70D-07  0.00D+00 EMaxC= 1.00D-01 BMatC= 1.75D-11 BMatP= 1.23D-10
 IDIUse=1 WtCom= 1.00D+00 WtEn= 0.00D+00
 Coeff-Com: -0.184D-04 0.279D-04 0.271D-04-0.466D-03 0.251D-02-0.748D-02
 Coeff-Com:  0.113D-01 0.609D-01-0.633D+00 0.157D+01
 Coeff:     -0.184D-04 0.279D-04 0.271D-04-0.466D-03 0.251D-02-0.748D-02
 Coeff:      0.113D-01 0.609D-01-0.633D+00 0.157D+01
 Gap=     0.400 Goal=   None    Shift=    0.000
 RMSDP=7.03D-07 MaxDP=5.00D-06 DE=-1.02D-09 OVMax= 1.04D-05

 Cycle  11  Pass 1  IDiag  3:
 E=  1.64360765134882     Delta-E=       -0.000000000166 Rises=F Damp=F
 DIIS: error= 1.67D-07 at cycle  11 NSaved=  11.
 NSaved=11 IEnMin=11 EnMin=  1.64360765134882     IErMin=11 ErrMin= 1.67D-07
 ErrMax= 1.67D-07  0.00D+00 EMaxC= 1.00D-01 BMatC= 1.66D-12 BMatP= 1.75D-11
 IDIUse=1 WtCom= 1.00D+00 WtEn= 0.00D+00
 Coeff-Com: -0.664D-05 0.152D-04-0.418D-04 0.419D-03-0.235D-02 0.772D-02
 Coeff-Com: -0.203D-01 0.249D-01 0.158D+00-0.756D+00 0.159D+01
 Coeff:     -0.664D-05 0.152D-04-0.418D-04 0.419D-03-0.235D-02 0.772D-02
 Coeff:     -0.203D-01 0.249D-01 0.158D+00-0.756D+00 0.159D+01
 Gap=     0.400 Goal=   None    Shift=    0.000
 RMSDP=2.34D-07 MaxDP=1.55D-06 DE=-1.66D-10 OVMax= 3.60D-06

 Cycle  12  Pass 1  IDiag  3:
 E=  1.64360765133762     Delta-E=       -0.000000000011 Rises=F Damp=F
 DIIS: error= 3.48D-08 at cycle  12 NSaved=  12.
 NSaved=12 IEnMin=12 EnMin=  1.64360765133762     IErMin=12 ErrMin= 3.48D-08
 ErrMax= 3.48D-08  0.00D+00 EMaxC= 1.00D-01 BMatC= 1.01D-13 BMatP= 1.66D-12
 IDIUse=1 WtCom= 1.00D+00 WtEn= 0.00D+00
 Coeff-Com:  0.399D-05-0.784D-05 0.126D-04-0.141D-03 0.845D-03-0.285D-02
 Coeff-Com:  0.814D-02-0.162D-01-0.160D-01 0.199D+00-0.677D+00 0.150D+01
 Coeff:      0.399D-05-0.784D-05 0.126D-04-0.141D-03 0.845D-03-0.285D-02
 Coeff:      0.814D-02-0.162D-01-0.160D-01 0.199D+00-0.677D+00 0.150D+01
 Gap=     0.400 Goal=   None    Shift=    0.000
 RMSDP=5.21D-08 MaxDP=3.10D-07 DE=-1.12D-11 OVMax= 7.41D-07

 Cycle  13  Pass 1  IDiag  3:
 E=  1.64360765133483     Delta-E=       -0.000000000003 Rises=F Damp=F
 DIIS: error= 7.22D-09 at cycle  13 NSaved=  13.
 NSaved=13 IEnMin=13 EnMin=  1.64360765133483     IErMin=13 ErrMin= 7.22D-09
 ErrMax= 7.22D-09  0.00D+00 EMaxC= 1.00D-01 BMatC= 5.51D-15 BMatP= 1.01D-13
 IDIUse=1 WtCom= 1.00D+00 WtEn= 0.00D+00
 Coeff-Com: -0.807D-08-0.352D-07 0.210D-06 0.241D-04-0.173D-03 0.603D-03
 Coeff-Com: -0.177D-02 0.415D-02-0.190D-02-0.331D-01 0.164D+00-0.552D+00
 Coeff-Com:  0.142D+01
 Coeff:     -0.807D-08-0.352D-07 0.210D-06 0.241D-04-0.173D-03 0.603D-03
 Coeff:     -0.177D-02 0.415D-02-0.190D-02-0.331D-01 0.164D+00-0.552D+00
 Coeff:      0.142D+01
 Gap=     0.400 Goal=   None    Shift=    0.000
 RMSDP=9.59D-09 MaxDP=5.43D-08 DE=-2.79D-12 OVMax= 1.16D-07

 Cycle  14  Pass 2  IDiag  1:
 SCF Done:  E(RAM1) =   1.64360765133     A.U. after   14 cycles
            NFock= 13  Conv=0.96D-08     -V/T= 1.0096
 KE=-1.704572989767D+02 PE=-4.337536238757D+02 EE= 2.798937773383D+02
 Leave Link  502 at Sun May 25 05:39:40 2025, MaxMem=  3758096384 cpu:               0.1 elap:               0.0
 (Enter /apps/easybuild-2022/easybuild/software/Compiler/NVHPC/22.11-CUDA-11.7.0/Gaussian/g16c01-CUDA-11.7.0/g16/l508.exe)
 QCSCF skips out because SCF is already converged.
 Leave Link  508 at Sun May 25 05:39:40 2025, MaxMem=  3758096384 cpu:               0.0 elap:               0.0
 (Enter /apps/easybuild-2022/easybuild/software/Compiler/NVHPC/22.11-CUDA-11.7.0/Gaussian/g16c01-CUDA-11.7.0/g16/l701.exe)
 ... and contract with generalized density number  0.
 Compute integral first derivatives.
 Leave Link  701 at Sun May 25 05:39:40 2025, MaxMem=  3758096384 cpu:               0.1 elap:               0.0
 (Enter /apps/easybuild-2022/easybuild/software/Compiler/NVHPC/22.11-CUDA-11.7.0/Gaussian/g16c01-CUDA-11.7.0/g16/l702.exe)
 L702 exits ... SP integral derivatives will be done elsewhere.
 Leave Link  702 at Sun May 25 05:39:40 2025, MaxMem=  3758096384 cpu:               0.1 elap:               0.0
 (Enter /apps/easybuild-2022/easybuild/software/Compiler/NVHPC/22.11-CUDA-11.7.0/Gaussian/g16c01-CUDA-11.7.0/g16/l703.exe)
 Integral derivatives from FoFJK, PRISM(SPDF).
 Compute integral first derivatives, UseDBF=F ICtDFT=           0.
 Calling FoFJK, ICntrl=      2127 FMM=F ISym2X=0 I1Cent= 0 IOpClX= 0 NMat=1 NMatS=1 NMatT=0.
 FoFJK:  IHMeth= 8 ICntrl=    2127 DoSepK=F KAlg= 0 I1Cent=           0 FoldK=F
 IRaf=         0 NMat=       1 IRICut=       1 DoRegI=T DoRafI=F ISym2E= 0 IDoP0=3 IntGTp=3.
 FoFCou: FMM=F IPFlag=           0 FMFlag=      100000 FMFlg1=         800
         NFxFlg=           0 DoJE=F BraDBF=F KetDBF=F FulRan=T
         wScrn=  0.000000 ICntrl=      2127 IOpCl=  0 I1Cent=           0 NGrid=           0
         NMat0=    1 NMatS0=      1 NMatT0=    0 NMatD0=    1 NMtDS0=    0 NMtDT0=    0
 Symmetry not used in FoFCou.
 Leave Link  703 at Sun May 25 05:39:40 2025, MaxMem=  3758096384 cpu:               0.1 elap:               0.0
 (Enter /apps/easybuild-2022/easybuild/software/Compiler/NVHPC/22.11-CUDA-11.7.0/Gaussian/g16c01-CUDA-11.7.0/g16/l716.exe)
 Dipole        =-4.37816028D-01-1.04741477D+00 2.36594305D-02
 -------------------------------------------------------------------
 Center     Atomic                   Forces (Hartrees/Bohr)
 Number     Number              X              Y              Z
 -------------------------------------------------------------------
      1        6           0.010627514    0.039436550    0.002396680
      2        9          -0.007968279    0.084674856    0.027167014
      3        9           0.000289674   -0.047278545    0.058801871
      4        9          -0.016556111   -0.038551121   -0.066217159
      5       16           0.021933833    0.055762780    0.003973443
      6        8          -0.031171176    0.003545227   -0.021351149
      7        8          -0.003188196   -0.007821306    0.035566823
      8        8           0.051752637    0.012730138   -0.012362914
      9        1          -0.025719896   -0.102498580   -0.027974609
 -------------------------------------------------------------------
 Cartesian Forces:  Max     0.102498580 RMS     0.039818748
 Z-matrix is all fixed cartesians, so copy forces.
 Force constants in Cartesian coordinates: 
                1             2             3             4             5 
      1  0.143063D+00
      2  0.144024D+00  0.850399D+00
      3  0.160474D+00 -0.471984D-01  0.122899D+01
      4  0.000000D+00  0.000000D+00  0.000000D+00  0.100000D+01
      5  0.000000D+00  0.000000D+00  0.000000D+00 -0.664398D-02  0.499439D+00
      6  0.000000D+00  0.000000D+00  0.000000D+00 -0.208434D-02  0.156683D+00
      7 -0.302053D-01 -0.184584D-01 -0.167668D-01  0.000000D+00  0.000000D+00
      8 -0.173880D-01 -0.393856D+00  0.349235D+00  0.000000D+00  0.000000D+00
      9 -0.177907D-01  0.331183D+00 -0.524751D+00  0.000000D+00  0.000000D+00
     10 -0.600090D-01 -0.915629D-01 -0.134270D+00  0.000000D+00  0.000000D+00
     11 -0.954323D-01 -0.292537D+00 -0.299820D+00  0.000000D+00  0.000000D+00
     12 -0.133419D+00 -0.281775D+00 -0.607733D+00  0.000000D+00  0.000000D+00
     13 -0.564387D-01 -0.329919D-01 -0.104455D-01  0.000000D+00  0.000000D+00
     14 -0.309201D-01 -0.164134D+00 -0.136342D-02  0.000000D+00  0.000000D+00
     15 -0.103693D-01 -0.155734D-02 -0.102361D+00  0.000000D+00  0.000000D+00
     16 -0.259802D-02  0.805911D-03 -0.194581D-02  0.000000D+00  0.000000D+00
     17 -0.198724D-01  0.611186D-02 -0.140279D-01  0.000000D+00  0.000000D+00
     18  0.491544D-03 -0.161216D-03  0.510315D-03  0.000000D+00  0.000000D+00
     19 -0.124587D-03 -0.349090D-03  0.621479D-02  0.000000D+00  0.000000D+00
     20 -0.110849D-02 -0.117279D-02  0.238441D-01  0.000000D+00  0.000000D+00
     21 -0.254961D-03 -0.289226D-03  0.580117D-02  0.000000D+00  0.000000D+00
     22  0.631230D-02 -0.146707D-02 -0.326064D-02  0.000000D+00  0.000000D+00
     23  0.206978D-01 -0.481186D-02 -0.106690D-01  0.000000D+00  0.000000D+00
     24  0.868867D-03 -0.201193D-03 -0.460936D-03  0.000000D+00  0.000000D+00
     25  0.000000D+00  0.000000D+00  0.000000D+00 -0.883841D-04  0.664398D-02
     26  0.000000D+00  0.000000D+00  0.000000D+00  0.664398D-02 -0.499439D+00
     27  0.000000D+00  0.000000D+00  0.000000D+00  0.208434D-02 -0.156683D+00
                6             7             8             9            10 
      6  0.491544D-01
      7  0.000000D+00  0.153476D-01
      8  0.000000D+00  0.138267D-01  0.366702D+00
      9  0.000000D+00  0.150002D-01 -0.352993D+00  0.521738D+00
     10  0.000000D+00  0.807486D-02  0.966734D-03  0.737630D-03  0.469298D-01
     11  0.000000D+00  0.690327D-02  0.291279D-01  0.233864D-01  0.915865D-01
     12  0.000000D+00 -0.603788D-02 -0.171995D-01 -0.137996D-01  0.138928D+00
     13  0.000000D+00  0.678016D-02  0.259526D-02  0.205341D-02  0.500711D-02
     14  0.000000D+00 -0.227108D-02 -0.197374D-02 -0.157583D-02 -0.990735D-03
     15  0.000000D+00  0.780900D-02  0.209571D-01  0.168122D-01 -0.540084D-02
     16  0.000000D+00 -0.231732D-03  0.582659D-04  0.479873D-04  0.239620D-03
     17  0.000000D+00  0.400123D-04 -0.100606D-04 -0.828581D-05 -0.413743D-04
     18  0.000000D+00  0.344955D-03 -0.867345D-04 -0.714338D-04 -0.356697D-03
     19  0.000000D+00  0.405429D-03 -0.101940D-03 -0.839568D-04 -0.419230D-03
     20  0.000000D+00 -0.107876D-03  0.271240D-04  0.223391D-04  0.111548D-03
     21  0.000000D+00  0.126163D-04 -0.317221D-05 -0.261261D-05 -0.130458D-04
     22  0.000000D+00 -0.170980D-03  0.429908D-04  0.354068D-04  0.176800D-03
     23  0.000000D+00  0.674207D-04 -0.169521D-04 -0.139616D-04 -0.697157D-04
     24  0.000000D+00 -0.362044D-03  0.910313D-04  0.749726D-04  0.374368D-03
     25  0.208434D-02  0.000000D+00  0.000000D+00  0.000000D+00  0.000000D+00
     26 -0.156683D+00  0.000000D+00  0.000000D+00  0.000000D+00  0.000000D+00
     27 -0.491544D-01  0.000000D+00  0.000000D+00  0.000000D+00  0.000000D+00
               11            12            13            14            15 
     11  0.261150D+00
     12  0.300042D+00  0.606439D+00
     13 -0.305814D-02  0.528511D-03  0.166536D+01
     14  0.225892D-02 -0.106741D-02 -0.227972D+00  0.435249D+00
     15 -0.236075D-01  0.150943D-01  0.406005D-01 -0.180056D+00  0.181973D+01
     16 -0.618294D-04 -0.239142D-04 -0.770393D+00  0.783938D-01 -0.459445D+00
     17  0.106759D-04  0.412919D-05  0.874053D-01 -0.649218D-01  0.628434D-01
     18  0.920390D-04  0.355987D-04 -0.461413D+00  0.569072D-01 -0.415206D+00
     19  0.108174D-03  0.418395D-04 -0.106276D+00 -0.135970D-01  0.834986D-01
     20 -0.287829D-04 -0.111326D-04 -0.135132D-01 -0.102319D+00  0.210931D+00
     21  0.336622D-05  0.130198D-05  0.873474D-01  0.221257D+00 -0.106001D+01
     22 -0.456200D-04 -0.176448D-04 -0.744039D+00  0.197357D+00  0.343307D+00
     23  0.179888D-04  0.695768D-05  0.187535D+00 -0.104161D+00 -0.895106D-01
     24 -0.965987D-04 -0.373622D-04  0.341329D+00 -0.941008D-01 -0.274060D+00
     25  0.000000D+00  0.000000D+00  0.000000D+00  0.000000D+00  0.000000D+00
     26  0.000000D+00  0.000000D+00  0.000000D+00  0.000000D+00  0.000000D+00
     27  0.000000D+00  0.000000D+00  0.000000D+00  0.000000D+00  0.000000D+00
               16            17            18            19            20 
     16  0.761648D+00
     17 -0.797156D-01  0.507337D-01
     18  0.475458D+00 -0.573345D-01  0.392743D+00
     19  0.197620D-01  0.738316D-02 -0.276242D-01  0.754488D-01
     20  0.618699D-03  0.404302D-02 -0.231593D-03  0.174305D-01  0.909181D-01
     21  0.190749D-02  0.155100D-02 -0.252711D-02 -0.892492D-01 -0.223420D+00
     22 -0.842679D-02  0.480100D-02  0.131000D-01  0.112032D-01 -0.343117D-02
     23 -0.992379D-04  0.403260D-02  0.814801D-03 -0.108738D-01  0.853189D-02
     24 -0.159990D-01  0.697211D-02  0.245154D-01  0.272022D-01 -0.111347D-01
     25  0.000000D+00  0.000000D+00  0.000000D+00  0.000000D+00  0.000000D+00
     26  0.000000D+00  0.000000D+00  0.000000D+00  0.000000D+00  0.000000D+00
     27  0.000000D+00  0.000000D+00  0.000000D+00  0.000000D+00  0.000000D+00
               21            22            23            24            25 
     21  0.105674D+01
     22  0.249606D-03  0.734944D+00
     23  0.901736D-03 -0.197257D+00  0.964068D-01
     24 -0.105313D-04 -0.353413D+00  0.984701D-01  0.249978D+00
     25  0.000000D+00  0.000000D+00  0.000000D+00  0.000000D+00  0.100000D+01
     26  0.000000D+00  0.000000D+00  0.000000D+00  0.000000D+00 -0.664398D-02
     27  0.000000D+00  0.000000D+00  0.000000D+00  0.000000D+00 -0.208434D-02
               26            27 
     26  0.499439D+00
     27  0.156683D+00  0.491544D-01
 Leave Link  716 at Sun May 25 05:39:40 2025, MaxMem=  3758096384 cpu:               0.1 elap:               0.0
 (Enter /apps/easybuild-2022/easybuild/software/Compiler/NVHPC/22.11-CUDA-11.7.0/Gaussian/g16c01-CUDA-11.7.0/g16/l103.exe)

 GradGradGradGradGradGradGradGradGradGradGradGradGradGradGradGradGradGrad
 Berny optimization.
 Search for a local minimum.
 Step number   1 out of a maximum of    2
 All quantities printed in internal units (Hartrees-Bohrs-Radians)
 Second derivative matrix not updated -- first step.
 ITU=  0
     Eigenvalues ---    0.00000   0.00000   0.00000   0.00245   0.03171
     Eigenvalues ---    0.03941   0.04897   0.10482   0.11464   0.16307
     Eigenvalues ---    0.17483   0.22040   0.39183   0.82829   0.99273
     Eigenvalues ---    1.02303   1.12283   1.51624   1.98515   2.63052
     Eigenvalues ---    2.90195
 Eigenvalue     1 is   3.05D-10 Eigenvector:
                          Z9        Y9        Z2        Z8        Y2
   1                    0.93180  -0.22935  -0.15273  -0.12319   0.11089
                          X7        X4        X6        X3        X8
   1                    0.07958   0.07358  -0.05486  -0.05274  -0.04680
 Eigenvalue     2 is   8.00D-08 Eigenvector:
                          Z2        Z8        X7        X4        Z4
   1                    0.71929  -0.32064   0.28190   0.22200  -0.21681
                          X3        Z6        X6        Z1        Z3
   1                   -0.19956   0.17700  -0.17043  -0.16315  -0.16094
 Eigenvalue     3 is   9.18D-07 Eigenvector:
                          Y2        Y9        Y8        X3        X4
   1                    0.57636   0.54872  -0.27035   0.23299   0.19215
                          X7        Y3        Y4        X8        Y1
   1                   -0.17677  -0.17160  -0.16712  -0.16510  -0.15469
 Quadratic step=1.945D+02 exceeds max=3.000D-01 adjusted using Lamda=-1.386D-01.
 Angle between NR and scaled steps=  61.95 degrees.
 Angle between quadratic step and forces=  43.98 degrees.
 Linear search not attempted -- first point.
 B after Tr=    -0.006809    0.021332    0.005227
         Rot=    0.999998    0.000418   -0.000387    0.002087 Ang=   0.25 deg.
 Variable       Old X    -DE/DX   Delta X   Delta X   Delta X     New X
                                 (Linear)    (Quad)   (Total)
    X1        3.11524   0.01063   0.00000  -0.00926  -0.01562   3.09962
    Y1        0.19368   0.03944   0.00000  -0.04167  -0.03348   0.16020
    Z1       -0.20894   0.00240   0.00000  -0.00523  -0.00253  -0.21147
    X2       -0.77585  -0.00797   0.00000  -0.00972  -0.01208  -0.78793
    Y2        1.00293   0.08467   0.00000  -0.01035   0.01457   1.01750
    Z2        0.38698   0.02717   0.00000  -0.00725  -0.00225   0.38473
    X3        3.12434   0.00029   0.00000  -0.02244  -0.03369   3.09065
    Y3       -1.29524  -0.04728   0.00000  -0.07866  -0.06884  -1.36408
    Z3        1.64283   0.05880   0.00000   0.06450   0.06848   1.71131
    X4        2.61455  -0.01656   0.00000  -0.02518  -0.03814   2.57641
    Y4       -0.97220  -0.03855   0.00000  -0.06971  -0.06109  -1.03328
    Z4       -2.21152  -0.06622   0.00000  -0.07932  -0.07522  -2.28675
    X5        4.05286   0.02193   0.00000   0.02711   0.03630   4.08916
    Y5        3.74302   0.05576   0.00000   0.09511   0.09939   3.84241
    Z5        0.00923   0.00397   0.00000   0.00622   0.00508   0.01431
    X6        6.26004  -0.03117   0.00000  -0.01937  -0.01035   6.24969
    Y6        3.49186   0.00355   0.00000   0.02942   0.02594   3.51780
    Z6        1.52109  -0.02135   0.00000  -0.00126  -0.00380   1.51729
    X7        4.28667  -0.00319   0.00000  -0.01290  -0.00365   4.28302
    Y7        4.31670  -0.00782   0.00000   0.01983   0.02113   4.33783
    Z7       -2.59918   0.03557   0.00000   0.01898   0.01728  -2.58191
    X8        1.70552   0.05175   0.00000   0.08508   0.09817   1.80369
    Y8        4.40717   0.01273   0.00000   0.12944   0.14430   4.55147
    Z8        1.24147  -0.01236   0.00000   0.01450   0.01455   1.25602
    X9       -0.79895  -0.02572   0.00000  -0.02557  -0.02093  -0.81988
    Y9        2.73886  -0.10250   0.00000  -0.16743  -0.14192   2.59693
    Z9        0.93157  -0.02797   0.00000  -0.02529  -0.02158   0.90999
         Item               Value     Threshold  Converged?
 Maximum Force            0.102499     0.000450     NO 
 RMS     Force            0.039819     0.000300     NO 
 Maximum Displacement     0.144301     0.001800     NO 
 RMS     Displacement     0.056972     0.001200     NO 
 Predicted change in Energy=-2.872164D-02
 GradGradGradGradGradGradGradGradGradGradGradGradGradGradGradGradGradGrad

 Leave Link  103 at Sun May 25 05:39:40 2025, MaxMem=  3758096384 cpu:               0.1 elap:               0.0
 (Enter /apps/easybuild-2022/easybuild/software/Compiler/NVHPC/22.11-CUDA-11.7.0/Gaussian/g16c01-CUDA-11.7.0/g16/l9999.exe)
 Unable to Open any file for archive entry.
 1\1\GINC-SPARTAN-BM177\Force\RAM1\ZDO\C1H1F3O3S1\AKHALILOV\25-May-2025
 \0\\#P am1 Symm(None) scf(xqc) pop(None) force\\Gaussian input prepare
 d by ASE\\0,1\C,1.6485164108,0.1024899937,-0.1105652969\F,-0.410564708
 2,0.5307267246,0.2047792564\F,1.6533309286,-0.68541029,0.8693477669\F,
 1.3835617978,-0.5144648067,-1.1702870912\S,2.1446809538,1.9807230398,0
 .0048832924\O,3.3126729145,1.8478145883,0.8049256694\O,2.268408868,2.2
 842981909,-1.3754276107\O,0.9025237519,2.3321757227,0.6569568815\H,-0.
 4227849172,1.4493398367,0.4929651322\\Version=ES64L-G16RevC.01\HF=1.64
 36077\RMSD=9.594e-09\RMSF=3.982e-02\Dipole=-0.437816,-1.0474148,0.0236
 594\PG=Unknown\\@
 The archive entry for this job was punched.


 THE PROGRESS OF RIVERS TO THE SEA IS NOT AS RAPID
 AS THAT OF MAN TO ERROR.
                                              -- VOLTAIRE
 Job cpu time:       0 days  0 hours  0 minutes  1.4 seconds.
 Elapsed time:       0 days  0 hours  0 minutes  0.5 seconds.
 File lengths (MBytes):  RWF=      6 Int=      0 D2E=      0 Chk=      2 Scr=      1
 Normal termination of Gaussian 16 at Sun May 25 05:39:40 2025.
done
