 Entering Gaussian System, Link 0=g16
 Initial command:
 /apps/easybuild-2022/easybuild/software/Compiler/NVHPC/22.11-CUDA-11.7.0/Gaussian/g16c01-CUDA-11.7.0/g16/l1.exe "/tmp/Gau-14223.inp" -scrdir="/tmp/"
 Entering Link 1 = /apps/easybuild-2022/easybuild/software/Compiler/NVHPC/22.11-CUDA-11.7.0/Gaussian/g16c01-CUDA-11.7.0/g16/l1.exe PID=     14224.
  
 Copyright (c) 1988-2019, Gaussian, Inc.  All Rights Reserved.
  
 This is part of the Gaussian(R) 16 program.  It is based on
 the Gaussian(R) 09 system (copyright 2009, Gaussian, Inc.),
 the Gaussian(R) 03 system (copyright 2003, Gaussian, Inc.),
 the Gaussian(R) 98 system (copyright 1998, Gaussian, Inc.),
 the Gaussian(R) 94 system (copyright 1995, Gaussian, Inc.),
 the Gaussian 92(TM) system (copyright 1992, Gaussian, Inc.),
 the Gaussian 90(TM) system (copyright 1990, Gaussian, Inc.),
 the Gaussian 88(TM) system (copyright 1988, Gaussian, Inc.),
 the Gaussian 86(TM) system (copyright 1986, Carnegie Mellon
 University), and the Gaussian 82(TM) system (copyright 1983,
 Carnegie Mellon University). Gaussian is a federally registered
 trademark of Gaussian, Inc.
  
 This software contains proprietary and confidential information,
 including trade secrets, belonging to Gaussian, Inc.
  
 This software is provided under written license and may be
 used, copied, transmitted, or stored only in accord with that
 written license.
  
 The following legend is applicable only to US Government
 contracts under FAR:
  
                    RESTRICTED RIGHTS LEGEND
  
 Use, reproduction and disclosure by the US Government is
 subject to restrictions as set forth in subparagraphs (a)
 and (c) of the Commercial Computer Software - Restricted
 Rights clause in FAR 52.227-19.
  
 Gaussian, Inc.
 340 Quinnipiac St., Bldg. 40, Wallingford CT 06492
  
  
 ---------------------------------------------------------------
 Warning -- This program may not be used in any manner that
 competes with the business of Gaussian, Inc. or will provide
 assistance to any competitor of Gaussian, Inc.  The licensee
 of this program is prohibited from giving any competitor of
 Gaussian, Inc. access to this program.  By using this program,
 the user acknowledges that Gaussian, Inc. is engaged in the
 business of creating and licensing software in the field of
 computational chemistry and represents and warrants to the
 licensee that it is not a competitor of Gaussian, Inc. and that
 it will not use this program in any manner prohibited above.
 ---------------------------------------------------------------
  

 Cite this work as:
 Gaussian 16, Revision C.01,
 M. J. Frisch, G. W. Trucks, H. B. Schlegel, G. E. Scuseria, 
 M. A. Robb, J. R. Cheeseman, G. Scalmani, V. Barone, 
 G. A. Petersson, H. Nakatsuji, X. Li, M. Caricato, A. V. Marenich, 
 J. Bloino, B. G. Janesko, R. Gomperts, B. Mennucci, H. P. Hratchian, 
 J. V. Ortiz, A. F. Izmaylov, J. L. Sonnenberg, D. Williams-Young, 
 F. Ding, F. Lipparini, F. Egidi, J. Goings, B. Peng, A. Petrone, 
 T. Henderson, D. Ranasinghe, V. G. Zakrzewski, J. Gao, N. Rega, 
 G. Zheng, W. Liang, M. Hada, M. Ehara, K. Toyota, R. Fukuda, 
 J. Hasegawa, M. Ishida, T. Nakajima, Y. Honda, O. Kitao, H. Nakai, 
 T. Vreven, K. Throssell, J. A. Montgomery, Jr., J. E. Peralta, 
 F. Ogliaro, M. J. Bearpark, J. J. Heyd, E. N. Brothers, K. N. Kudin, 
 V. N. Staroverov, T. A. Keith, R. Kobayashi, J. Normand, 
 K. Raghavachari, A. P. Rendell, J. C. Burant, S. S. Iyengar, 
 J. Tomasi, M. Cossi, J. M. Millam, M. Klene, C. Adamo, R. Cammi, 
 J. W. Ochterski, R. L. Martin, K. Morokuma, O. Farkas, 
 J. B. Foresman, and D. J. Fox, Gaussian, Inc., Wallingford CT, 2019.
 
 ******************************************
 Gaussian 16:  ES64L-G16RevC.01  3-Jul-2019
                25-May-2025 
 ******************************************
 %mem=28GB
 %nprocshared=8
 Will use up to    8 processors via shared memory.
 ----------------------------------------------------------------------
 #P M062X/Def2TZVPP Symm(None) scf(xqc) pop(None) opt(NoFreeze,TS,CalcA
 ll,NoEigentest,MaxCycle=999)
 ----------------------------------------------------------------------
 1/5=1,6=999,10=4,11=1,18=20,26=3,29=2000,38=1/1,3;
 2/9=110,12=2,15=3,17=6,18=5,40=1/2;
 3/5=44,7=202,11=2,25=1,30=1,71=2,74=-55,140=1/1,2,3;
 4//1;
 5/5=2,8=3,13=1,38=5/2,8;
 8/6=4,10=90,11=11/1;
 11/6=1,8=1,9=11,15=111,16=1,31=1/1,2,10;
 10/6=1,31=1/2;
 7/10=1,25=1,30=1/1,2,3,16;
 1/5=1,6=999,10=4,11=1,18=20,26=3/3(3);
 2/9=110,15=3/2;
 7/8=1,9=1,25=1,30=1,44=-1/16;
 99//99;
 2/9=110,15=3/2;
 3/5=44,7=202,11=2,25=1,30=1,71=2,74=-55,140=1/1,2,3;
 4/5=5,16=3,69=1/1;
 5/5=2,8=3,13=1,38=5/2,8;
 8/6=4,10=90,11=11/1;
 11/6=1,8=1,9=11,15=111,16=1,31=1/1,2,10;
 10/6=1,31=1/2;
 7/10=1,25=1,30=1/1,2,3,16;
 1/5=1,6=999,10=4,11=1,18=20,26=3/3(-8);
 2/9=110,15=3/2;
 7/8=1,9=1,25=1,30=1,44=-1/16;
 99//99;
 Leave Link    1 at Sun May 25 05:40:14 2025, MaxMem=  3758096384 cpu:               0.0 elap:               0.0
 (Enter /apps/easybuild-2022/easybuild/software/Compiler/NVHPC/22.11-CUDA-11.7.0/Gaussian/g16c01-CUDA-11.7.0/g16/l101.exe)
 ------------------------------
 Gaussian input prepared by ASE
 ------------------------------
 Symbolic Z-matrix:
 Charge =  0 Multiplicity = 1
 C                     1.58966   0.08357  -0.08159 
 F                    -0.47599   0.56045   0.08677 
 F                     1.61833  -0.67474   0.921 
 F                     1.5197   -0.551    -1.16154 
 S                     2.08696   1.96201   0.02526 
 O                     3.31542   1.79699   0.7221 
 O                     2.09781   2.29074  -1.35479 
 O                     0.95978   2.42915   0.80174 
 H                    -0.23133   1.43054   0.41863 
 
 Add virtual bond connecting atoms H9         and O8         Dist= 3.03D+00.
 ITRead=  0  0  0  0  0  0  0  0  0
 MicOpt= -1 -1 -1 -1 -1 -1 -1 -1 -1
 NAtoms=      9 NQM=        9 NQMF=       0 NMMI=      0 NMMIF=      0
                NMic=       0 NMicF=      0.
                    Isotopes and Nuclear Properties:
 (Nuclear quadrupole moments (NQMom) in fm**2, nuclear magnetic moments (NMagM)
  in nuclear magnetons)

  Atom         1           2           3           4           5           6           7           8           9
 IAtWgt=          12          19          19          19          32          16          16          16           1
 AtmWgt=  12.0000000  18.9984032  18.9984032  18.9984032  31.9720718  15.9949146  15.9949146  15.9949146   1.0078250
 NucSpn=           0           1           1           1           0           0           0           0           1
 AtZEff=  -0.0000000  -0.0000000  -0.0000000  -0.0000000  -0.0000000  -0.0000000  -0.0000000  -0.0000000  -0.0000000
 NQMom=    0.0000000   0.0000000   0.0000000   0.0000000   0.0000000   0.0000000   0.0000000   0.0000000   0.0000000
 NMagM=    0.0000000   2.6288670   2.6288670   2.6288670   0.0000000   0.0000000   0.0000000   0.0000000   2.7928460
 AtZNuc=   6.0000000   9.0000000   9.0000000   9.0000000  16.0000000   8.0000000   8.0000000   8.0000000   1.0000000
 Leave Link  101 at Sun May 25 05:40:14 2025, MaxMem=  3758096384 cpu:               0.2 elap:               0.2
 (Enter /apps/easybuild-2022/easybuild/software/Compiler/NVHPC/22.11-CUDA-11.7.0/Gaussian/g16c01-CUDA-11.7.0/g16/l103.exe)

 GradGradGradGradGradGradGradGradGradGradGradGradGradGradGradGradGradGrad
 Berny optimization.
 Initialization pass.
                           ----------------------------
                           !    Initial Parameters    !
                           ! (Angstroms and Degrees)  !
 --------------------------                            --------------------------
 ! Name  Definition              Value          Derivative Info.                !
 --------------------------------------------------------------------------------
 ! R1    R(1,3)                  1.2574         calculate D2E/DX2 analytically  !
 ! R2    R(1,4)                  1.2545         calculate D2E/DX2 analytically  !
 ! R3    R(1,5)                  1.9461         calculate D2E/DX2 analytically  !
 ! R4    R(2,9)                  0.9628         calculate D2E/DX2 analytically  !
 ! R5    R(5,6)                  1.4219         calculate D2E/DX2 analytically  !
 ! R6    R(5,7)                  1.4187         calculate D2E/DX2 analytically  !
 ! R7    R(5,8)                  1.4463         calculate D2E/DX2 analytically  !
 ! R8    R(8,9)                  1.6009         calculate D2E/DX2 analytically  !
 ! A1    A(3,1,4)              112.4959         calculate D2E/DX2 analytically  !
 ! A2    A(3,1,5)              122.1749         calculate D2E/DX2 analytically  !
 ! A3    A(4,1,5)              123.3499         calculate D2E/DX2 analytically  !
 ! A4    A(1,5,6)               97.7969         calculate D2E/DX2 analytically  !
 ! A5    A(1,5,7)               99.9158         calculate D2E/DX2 analytically  !
 ! A6    A(1,5,8)               98.1687         calculate D2E/DX2 analytically  !
 ! A7    A(6,5,7)              119.801          calculate D2E/DX2 analytically  !
 ! A8    A(6,5,8)              116.5963         calculate D2E/DX2 analytically  !
 ! A9    A(7,5,8)              116.9606         calculate D2E/DX2 analytically  !
 ! A10   A(5,8,9)              104.473          calculate D2E/DX2 analytically  !
 ! A11   A(2,9,8)              146.6423         calculate D2E/DX2 analytically  !
 ! D1    D(3,1,5,6)             48.7728         calculate D2E/DX2 analytically  !
 ! D2    D(3,1,5,7)            170.9928         calculate D2E/DX2 analytically  !
 ! D3    D(3,1,5,8)            -69.6624         calculate D2E/DX2 analytically  !
 ! D4    D(4,1,5,6)           -114.0104         calculate D2E/DX2 analytically  !
 ! D5    D(4,1,5,7)              8.2096         calculate D2E/DX2 analytically  !
 ! D6    D(4,1,5,8)            127.5544         calculate D2E/DX2 analytically  !
 ! D7    D(1,5,8,9)            -28.6748         calculate D2E/DX2 analytically  !
 ! D8    D(6,5,8,9)           -131.686          calculate D2E/DX2 analytically  !
 ! D9    D(7,5,8,9)             76.882          calculate D2E/DX2 analytically  !
 ! D10   D(5,8,9,2)             23.6626         calculate D2E/DX2 analytically  !
 --------------------------------------------------------------------------------
 Trust Radius=3.00D-01 FncErr=1.00D-07 GrdErr=1.00D-06 EigMax=2.50D+02 EigMin=1.00D-04
 Number of steps in this run=    100 maximum allowed number of steps=    100.
 Search for a saddle point of order  1.
 GradGradGradGradGradGradGradGradGradGradGradGradGradGradGradGradGradGrad

 Leave Link  103 at Sun May 25 05:40:14 2025, MaxMem=  3758096384 cpu:               0.1 elap:               0.0
 (Enter /apps/easybuild-2022/easybuild/software/Compiler/NVHPC/22.11-CUDA-11.7.0/Gaussian/g16c01-CUDA-11.7.0/g16/l202.exe)
                          Input orientation:                          
 ---------------------------------------------------------------------
 Center     Atomic      Atomic             Coordinates (Angstroms)
 Number     Number       Type             X           Y           Z
 ---------------------------------------------------------------------
      1          6           0        1.589658    0.083565   -0.081593
      2          9           0       -0.475985    0.560446    0.086774
      3          9           0        1.618328   -0.674739    0.921000
      4          9           0        1.519704   -0.551001   -1.161536
      5         16           0        2.086960    1.962006    0.025258
      6          8           0        3.315424    1.796993    0.722097
      7          8           0        2.097810    2.290736   -1.354794
      8          8           0        0.959781    2.429146    0.801738
      9          1           0       -0.231334    1.430541    0.418634
 ---------------------------------------------------------------------
                    Distance matrix (angstroms):
                    1          2          3          4          5
     1  C    0.000000
     2  F    2.126651   0.000000
     3  F    1.257394   2.570557   0.000000
     4  F    1.254530   2.603146   2.088539   0.000000
     5  S    1.946090   2.921787   2.823897   2.836453   0.000000
     6  O    2.561254   4.038250   3.004855   3.505105   1.421949
     7  O    2.598242   3.420006   3.768711   2.906377   1.418705
     8  O    2.584331   2.462648   3.175218   3.612372   1.446262
     9  H    2.319608   0.962835   2.847073   3.080516   2.410744
                    6          7          8          9
     6  O    0.000000
     7  O    2.457609   0.000000
     8  O    2.440290   2.442314   0.000000
     9  H    3.578529   3.051212   1.600855   0.000000
 Symmetry turned off by external request.
 Stoichiometry    CHF3O3S
 Rotational constants (GHZ):           2.3877925           1.5299008           1.3932433
 Leave Link  202 at Sun May 25 05:40:14 2025, MaxMem=  3758096384 cpu:               0.1 elap:               0.0
 (Enter /apps/easybuild-2022/easybuild/software/Compiler/NVHPC/22.11-CUDA-11.7.0/Gaussian/g16c01-CUDA-11.7.0/g16/l301.exe)
 Standard basis: def2TZVPP (5D, 7F)
 Ernie: Thresh=  0.10000D-02 Tol=  0.10000D-05 Strict=F.
   273 basis functions,   443 primitive gaussians,   315 cartesian basis functions
    37 alpha electrons       37 beta electrons
       nuclear repulsion energy       555.5238876045 Hartrees.
 IExCor= 4336 DFT=T Ex+Corr=M062X ExCW=0 ScaHFX=  0.540000
 ScaDFX=  1.000000  1.000000  1.000000  1.000000 ScalE2=  1.000000  1.000000
 IRadAn=      5 IRanWt=     -1 IRanGd=            0 ICorTp=0 IEmpDi=  4
 NAtoms=    9 NActive=    9 NUniq=    9 SFac= 1.00D+00 NAtFMM=   60 NAOKFM=F Big=F
 Integral buffers will be    131072 words long.
 Raffenetti 2 integral format.
 Two-electron integral symmetry is turned off.
 Leave Link  301 at Sun May 25 05:40:14 2025, MaxMem=  3758096384 cpu:               0.1 elap:               0.0
 (Enter /apps/easybuild-2022/easybuild/software/Compiler/NVHPC/22.11-CUDA-11.7.0/Gaussian/g16c01-CUDA-11.7.0/g16/l302.exe)
 NPDir=0 NMtPBC=     1 NCelOv=     1 NCel=       1 NClECP=     1 NCelD=      1
         NCelK=      1 NCelE2=     1 NClLst=     1 CellRange=     0.0.
 One-electron integrals computed using PRISM.
   1 Symmetry operations used in ECPInt.
 ECPInt:  NShTT=    4753 NPrTT=   15592 LenC2=    4578 LenP2D=   11473.
 LDataN:  DoStor=T MaxTD1= 6 Len=  172
 NBasis=   273 RedAO= T EigKep=  8.04D-04  NBF=   273
 NBsUse=   273 1.00D-06 EigRej= -1.00D+00 NBFU=   273
 Precomputing XC quadrature grid using
 IXCGrd= 4 IRadAn=           5 IRanWt=          -1 IRanGd=           0 AccXCQ= 0.00D+00.
 Generated NRdTot=       0 NPtTot=           0 NUsed=           0 NTot=          32
 NSgBfM=   312   312   312   312   312 MxSgAt=     9 MxSgA2=     9.
 Leave Link  302 at Sun May 25 05:40:14 2025, MaxMem=  3758096384 cpu:               0.8 elap:               0.2
 (Enter /apps/easybuild-2022/easybuild/software/Compiler/NVHPC/22.11-CUDA-11.7.0/Gaussian/g16c01-CUDA-11.7.0/g16/l303.exe)
 DipDrv:  MaxL=1.
 Leave Link  303 at Sun May 25 05:40:14 2025, MaxMem=  3758096384 cpu:               0.1 elap:               0.0
 (Enter /apps/easybuild-2022/easybuild/software/Compiler/NVHPC/22.11-CUDA-11.7.0/Gaussian/g16c01-CUDA-11.7.0/g16/l401.exe)
 ExpMin= 9.52D-02 ExpMax= 6.07D+04 ExpMxC= 2.07D+03 IAcc=3 IRadAn=         5 AccDes= 0.00D+00
 Harris functional with IExCor= 1009 and IRadAn=       5 diagonalized for initial guess.
 HarFok:  IExCor= 1009 AccDes= 0.00D+00 IRadAn=         5 IDoV= 1 UseB2=F ITyADJ=14
 ICtDFT=  3500011 ScaDFX=  1.000000  1.000000  1.000000  1.000000
 FoFCou: FMM=F IPFlag=           0 FMFlag=      100000 FMFlg1=           0
         NFxFlg=           0 DoJE=T BraDBF=F KetDBF=T FulRan=T
         wScrn=  0.000000 ICntrl=       500 IOpCl=  0 I1Cent=   200000004 NGrid=           0
         NMat0=    1 NMatS0=      1 NMatT0=    0 NMatD0=    1 NMtDS0=    0 NMtDT0=    0
 Symmetry not used in FoFCou.
 Harris En= -961.651167644346    
 JPrj=0 DoOrth=F DoCkMO=F.
 Leave Link  401 at Sun May 25 05:40:15 2025, MaxMem=  3758096384 cpu:               2.6 elap:               0.4
 (Enter /apps/easybuild-2022/easybuild/software/Compiler/NVHPC/22.11-CUDA-11.7.0/Gaussian/g16c01-CUDA-11.7.0/g16/l502.exe)
 Keep R1 ints in memory in canonical form, NReq=715214082.
 FoFCou: FMM=F IPFlag=           0 FMFlag=           0 FMFlg1=           0
         NFxFlg=           0 DoJE=F BraDBF=F KetDBF=F FulRan=T
         wScrn=  0.000000 ICntrl=       600 IOpCl=  0 I1Cent=           0 NGrid=           0
         NMat0=    1 NMatS0=  37401 NMatT0=    0 NMatD0=    1 NMtDS0=    0 NMtDT0=    0
 Symmetry not used in FoFCou.
 Two-electron integral symmetry not used.
 Closed shell SCF:
 Using DIIS extrapolation, IDIIS=  1040.
 NGot=  3758096384 LenX=  3058457086 LenY=  3058357420
 Requested convergence on RMS density matrix=1.00D-08 within  32 cycles.
 Requested convergence on MAX density matrix=1.00D-06.
 Requested convergence on             energy=1.00D-06.
 No special actions if energy rises.
 Integral accuracy reduced to 1.0D-05 until final iterations.

 Cycle   1  Pass 0  IDiag  1:
 E= -961.718720548505    
 DIIS: error= 3.35D-02 at cycle   1 NSaved=   1.
 NSaved= 1 IEnMin= 1 EnMin= -961.718720548505     IErMin= 1 ErrMin= 3.35D-02
 ErrMax= 3.35D-02  0.00D+00 EMaxC= 1.00D-01 BMatC= 5.77D-01 BMatP= 5.77D-01
 IDIUse=3 WtCom= 6.65D-01 WtEn= 3.35D-01
 Coeff-Com:  0.100D+01
 Coeff-En:   0.100D+01
 Coeff:      0.100D+01
 Gap=     0.249 Goal=   None    Shift=    0.000
 GapD=    0.249 DampG=1.000 DampE=0.500 DampFc=0.5000 IDamp=-1.
 Damping current iteration by 5.00D-01
 RMSDP=3.45D-03 MaxDP=2.56D-01              OVMax= 3.22D-01

 Cycle   2  Pass 0  IDiag  1:
 E= -961.817500027812     Delta-E=       -0.098779479307 Rises=F Damp=T
 DIIS: error= 7.58D-03 at cycle   2 NSaved=   2.
 NSaved= 2 IEnMin= 2 EnMin= -961.817500027812     IErMin= 2 ErrMin= 7.58D-03
 ErrMax= 7.58D-03  0.00D+00 EMaxC= 1.00D-01 BMatC= 5.58D-02 BMatP= 5.77D-01
 IDIUse=3 WtCom= 9.24D-01 WtEn= 7.58D-02
 Coeff-Com:  0.139D+00 0.861D+00
 Coeff-En:   0.321D+00 0.679D+00
 Coeff:      0.153D+00 0.847D+00
 Gap=     0.289 Goal=   None    Shift=    0.000
 RMSDP=7.30D-04 MaxDP=5.24D-02 DE=-9.88D-02 OVMax= 1.95D-01

 Cycle   3  Pass 0  IDiag  1:
 E= -962.040848061595     Delta-E=       -0.223348033783 Rises=F Damp=F
 DIIS: error= 3.94D-03 at cycle   3 NSaved=   3.
 NSaved= 3 IEnMin= 3 EnMin= -962.040848061595     IErMin= 3 ErrMin= 3.94D-03
 ErrMax= 3.94D-03  0.00D+00 EMaxC= 1.00D-01 BMatC= 8.69D-03 BMatP= 5.58D-02
 IDIUse=3 WtCom= 9.61D-01 WtEn= 3.94D-02
 Coeff-Com: -0.415D-01 0.208D+00 0.834D+00
 Coeff-En:   0.000D+00 0.000D+00 0.100D+01
 Coeff:     -0.399D-01 0.200D+00 0.840D+00
 Gap=     0.287 Goal=   None    Shift=    0.000
 RMSDP=3.14D-04 MaxDP=2.12D-02 DE=-2.23D-01 OVMax= 2.98D-02

 Cycle   4  Pass 0  IDiag  1:
 E= -962.045927988487     Delta-E=       -0.005079926892 Rises=F Damp=F
 DIIS: error= 1.65D-03 at cycle   4 NSaved=   4.
 NSaved= 4 IEnMin= 4 EnMin= -962.045927988487     IErMin= 4 ErrMin= 1.65D-03
 ErrMax= 1.65D-03  0.00D+00 EMaxC= 1.00D-01 BMatC= 2.26D-03 BMatP= 8.69D-03
 IDIUse=3 WtCom= 9.84D-01 WtEn= 1.65D-02
 Coeff-Com: -0.268D-01 0.602D-01 0.415D+00 0.551D+00
 Coeff-En:   0.000D+00 0.000D+00 0.833D-01 0.917D+00
 Coeff:     -0.264D-01 0.592D-01 0.410D+00 0.557D+00
 Gap=     0.290 Goal=   None    Shift=    0.000
 RMSDP=1.00D-04 MaxDP=3.74D-03 DE=-5.08D-03 OVMax= 8.50D-03

 Cycle   5  Pass 0  IDiag  1:
 E= -962.047273318293     Delta-E=       -0.001345329806 Rises=F Damp=F
 DIIS: error= 4.60D-04 at cycle   5 NSaved=   5.
 NSaved= 5 IEnMin= 5 EnMin= -962.047273318293     IErMin= 5 ErrMin= 4.60D-04
 ErrMax= 4.60D-04  0.00D+00 EMaxC= 1.00D-01 BMatC= 1.71D-04 BMatP= 2.26D-03
 IDIUse=3 WtCom= 9.95D-01 WtEn= 4.60D-03
 Coeff-Com: -0.738D-02 0.826D-02 0.936D-01 0.251D+00 0.654D+00
 Coeff-En:   0.000D+00 0.000D+00 0.000D+00 0.000D+00 0.100D+01
 Coeff:     -0.734D-02 0.822D-02 0.932D-01 0.250D+00 0.656D+00
 Gap=     0.291 Goal=   None    Shift=    0.000
 RMSDP=3.21D-05 MaxDP=1.28D-03 DE=-1.35D-03 OVMax= 3.33D-03

 Cycle   6  Pass 0  IDiag  1:
 E= -962.047390307136     Delta-E=       -0.000116988843 Rises=F Damp=F
 DIIS: error= 1.26D-04 at cycle   6 NSaved=   6.
 NSaved= 6 IEnMin= 6 EnMin= -962.047390307136     IErMin= 6 ErrMin= 1.26D-04
 ErrMax= 1.26D-04  0.00D+00 EMaxC= 1.00D-01 BMatC= 1.76D-05 BMatP= 1.71D-04
 IDIUse=3 WtCom= 9.99D-01 WtEn= 1.26D-03
 Coeff-Com: -0.131D-02-0.121D-02 0.281D-02 0.636D-01 0.295D+00 0.641D+00
 Coeff-En:   0.000D+00 0.000D+00 0.000D+00 0.000D+00 0.000D+00 0.100D+01
 Coeff:     -0.131D-02-0.121D-02 0.281D-02 0.635D-01 0.295D+00 0.641D+00
 Gap=     0.291 Goal=   None    Shift=    0.000
 RMSDP=1.20D-05 MaxDP=4.43D-04 DE=-1.17D-04 OVMax= 1.08D-03

 Cycle   7  Pass 0  IDiag  1:
 E= -962.047404013807     Delta-E=       -0.000013706671 Rises=F Damp=F
 DIIS: error= 5.09D-05 at cycle   7 NSaved=   7.
 NSaved= 7 IEnMin= 7 EnMin= -962.047404013807     IErMin= 7 ErrMin= 5.09D-05
 ErrMax= 5.09D-05  0.00D+00 EMaxC= 1.00D-01 BMatC= 2.47D-06 BMatP= 1.76D-05
 IDIUse=1 WtCom= 1.00D+00 WtEn= 0.00D+00
 Coeff-Com:  0.793D-03-0.196D-02-0.198D-01-0.234D-01-0.118D-02 0.271D+00
 Coeff-Com:  0.774D+00
 Coeff:      0.793D-03-0.196D-02-0.198D-01-0.234D-01-0.118D-02 0.271D+00
 Coeff:      0.774D+00
 Gap=     0.291 Goal=   None    Shift=    0.000
 RMSDP=6.23D-06 MaxDP=2.60D-04 DE=-1.37D-05 OVMax= 6.93D-04

 Initial convergence to 1.0D-05 achieved.  Increase integral accuracy.
 Cycle   8  Pass 1  IDiag  1:
 E= -962.047377258481     Delta-E=        0.000026755326 Rises=F Damp=F
 DIIS: error= 2.20D-05 at cycle   1 NSaved=   1.
 NSaved= 1 IEnMin= 1 EnMin= -962.047377258481     IErMin= 1 ErrMin= 2.20D-05
 ErrMax= 2.20D-05  0.00D+00 EMaxC= 1.00D-01 BMatC= 4.53D-07 BMatP= 4.53D-07
 IDIUse=1 WtCom= 1.00D+00 WtEn= 0.00D+00
 Coeff-Com:  0.100D+01
 Coeff:      0.100D+01
 Gap=     0.291 Goal=   None    Shift=    0.000
 RMSDP=6.23D-06 MaxDP=2.60D-04 DE= 2.68D-05 OVMax= 2.20D-04

 Cycle   9  Pass 1  IDiag  1:
 E= -962.047377584020     Delta-E=       -0.000000325540 Rises=F Damp=F
 DIIS: error= 1.28D-05 at cycle   2 NSaved=   2.
 NSaved= 2 IEnMin= 2 EnMin= -962.047377584020     IErMin= 2 ErrMin= 1.28D-05
 ErrMax= 1.28D-05  0.00D+00 EMaxC= 1.00D-01 BMatC= 1.68D-07 BMatP= 4.53D-07
 IDIUse=1 WtCom= 1.00D+00 WtEn= 0.00D+00
 Coeff-Com:  0.327D+00 0.673D+00
 Coeff:      0.327D+00 0.673D+00
 Gap=     0.291 Goal=   None    Shift=    0.000
 RMSDP=1.26D-06 MaxDP=5.81D-05 DE=-3.26D-07 OVMax= 1.21D-04

 Cycle  10  Pass 1  IDiag  1:
 E= -962.047377661967     Delta-E=       -0.000000077947 Rises=F Damp=F
 DIIS: error= 8.76D-06 at cycle   3 NSaved=   3.
 NSaved= 3 IEnMin= 3 EnMin= -962.047377661967     IErMin= 3 ErrMin= 8.76D-06
 ErrMax= 8.76D-06  0.00D+00 EMaxC= 1.00D-01 BMatC= 6.24D-08 BMatP= 1.68D-07
 IDIUse=1 WtCom= 1.00D+00 WtEn= 0.00D+00
 Coeff-Com: -0.127D-01 0.370D+00 0.643D+00
 Coeff:     -0.127D-01 0.370D+00 0.643D+00
 Gap=     0.291 Goal=   None    Shift=    0.000
 RMSDP=6.15D-07 MaxDP=2.88D-05 DE=-7.79D-08 OVMax= 7.08D-05

 Cycle  11  Pass 1  IDiag  1:
 E= -962.047377705490     Delta-E=       -0.000000043523 Rises=F Damp=F
 DIIS: error= 2.09D-06 at cycle   4 NSaved=   4.
 NSaved= 4 IEnMin= 4 EnMin= -962.047377705490     IErMin= 4 ErrMin= 2.09D-06
 ErrMax= 2.09D-06  0.00D+00 EMaxC= 1.00D-01 BMatC= 3.38D-09 BMatP= 6.24D-08
 IDIUse=1 WtCom= 1.00D+00 WtEn= 0.00D+00
 Coeff-Com: -0.289D-01 0.110D+00 0.276D+00 0.643D+00
 Coeff:     -0.289D-01 0.110D+00 0.276D+00 0.643D+00
 Gap=     0.291 Goal=   None    Shift=    0.000
 RMSDP=1.81D-07 MaxDP=7.18D-06 DE=-4.35D-08 OVMax= 1.71D-05

 Cycle  12  Pass 1  IDiag  1:
 E= -962.047377708377     Delta-E=       -0.000000002887 Rises=F Damp=F
 DIIS: error= 7.66D-07 at cycle   5 NSaved=   5.
 NSaved= 5 IEnMin= 5 EnMin= -962.047377708377     IErMin= 5 ErrMin= 7.66D-07
 ErrMax= 7.66D-07  0.00D+00 EMaxC= 1.00D-01 BMatC= 3.95D-10 BMatP= 3.38D-09
 IDIUse=1 WtCom= 1.00D+00 WtEn= 0.00D+00
 Coeff-Com: -0.826D-02-0.132D-01 0.955D-02 0.237D+00 0.775D+00
 Coeff:     -0.826D-02-0.132D-01 0.955D-02 0.237D+00 0.775D+00
 Gap=     0.291 Goal=   None    Shift=    0.000
 RMSDP=7.40D-08 MaxDP=2.06D-06 DE=-2.89D-09 OVMax= 9.32D-06

 Cycle  13  Pass 1  IDiag  1:
 E= -962.047377708824     Delta-E=       -0.000000000448 Rises=F Damp=F
 DIIS: error= 2.77D-07 at cycle   6 NSaved=   6.
 NSaved= 6 IEnMin= 6 EnMin= -962.047377708824     IErMin= 6 ErrMin= 2.77D-07
 ErrMax= 2.77D-07  0.00D+00 EMaxC= 1.00D-01 BMatC= 7.29D-11 BMatP= 3.95D-10
 IDIUse=1 WtCom= 1.00D+00 WtEn= 0.00D+00
 Coeff-Com:  0.268D-02-0.290D-01-0.534D-01-0.361D-01 0.331D+00 0.785D+00
 Coeff:      0.268D-02-0.290D-01-0.534D-01-0.361D-01 0.331D+00 0.785D+00
 Gap=     0.291 Goal=   None    Shift=    0.000
 RMSDP=4.16D-08 MaxDP=2.21D-06 DE=-4.48D-10 OVMax= 4.08D-06

 Cycle  14  Pass 1  IDiag  1:
 E= -962.047377708919     Delta-E=       -0.000000000095 Rises=F Damp=F
 DIIS: error= 1.25D-07 at cycle   7 NSaved=   7.
 NSaved= 7 IEnMin= 7 EnMin= -962.047377708919     IErMin= 7 ErrMin= 1.25D-07
 ErrMax= 1.25D-07  0.00D+00 EMaxC= 1.00D-01 BMatC= 5.06D-12 BMatP= 7.29D-11
 IDIUse=1 WtCom= 1.00D+00 WtEn= 0.00D+00
 Coeff-Com:  0.133D-02-0.978D-02-0.188D-01-0.259D-01 0.755D-01 0.296D+00
 Coeff-Com:  0.681D+00
 Coeff:      0.133D-02-0.978D-02-0.188D-01-0.259D-01 0.755D-01 0.296D+00
 Coeff:      0.681D+00
 Gap=     0.291 Goal=   None    Shift=    0.000
 RMSDP=7.38D-09 MaxDP=6.70D-07 DE=-9.46D-11 OVMax= 6.72D-07

 SCF Done:  E(RM062X) =  -962.047377709     A.U. after   14 cycles
            NFock= 14  Conv=0.74D-08     -V/T= 2.0027
 KE= 9.594830365797D+02 PE=-3.392468813558D+03 EE= 9.154145116650D+02
 Leave Link  502 at Sun May 25 05:40:30 2025, MaxMem=  3758096384 cpu:              68.3 elap:              14.9
 (Enter /apps/easybuild-2022/easybuild/software/Compiler/NVHPC/22.11-CUDA-11.7.0/Gaussian/g16c01-CUDA-11.7.0/g16/l508.exe)
 QCSCF skips out because SCF is already converged.
 Leave Link  508 at Sun May 25 05:40:30 2025, MaxMem=  3758096384 cpu:               0.0 elap:               0.0
 (Enter /apps/easybuild-2022/easybuild/software/Compiler/NVHPC/22.11-CUDA-11.7.0/Gaussian/g16c01-CUDA-11.7.0/g16/l801.exe)
 DoSCS=F DFT=T ScalE2(SS,OS)=  1.000000  1.000000
 Range of M.O.s used for correlation:     1   273
 NBasis=   273 NAE=    37 NBE=    37 NFC=     0 NFV=     0
 NROrb=    273 NOA=    37 NOB=    37 NVA=   236 NVB=   236

 **** Warning!!: The largest alpha MO coefficient is  0.12908670D+02

 Leave Link  801 at Sun May 25 05:40:30 2025, MaxMem=  3758096384 cpu:               0.1 elap:               0.0
 (Enter /apps/easybuild-2022/easybuild/software/Compiler/NVHPC/22.11-CUDA-11.7.0/Gaussian/g16c01-CUDA-11.7.0/g16/l1101.exe)
 Using compressed storage, NAtomX=     9.
 Will process     10 centers per pass.
   1 Symmetry operations used in ECPInt.
 ECPInt:  NShTT=    4753 NPrTT=   15592 LenC2=    4578 LenP2D=   11473.
 LDataN:  DoStor=T MaxTD1= 7 Len=  274
 Leave Link 1101 at Sun May 25 05:40:30 2025, MaxMem=  3758096384 cpu:               1.0 elap:               0.2
 (Enter /apps/easybuild-2022/easybuild/software/Compiler/NVHPC/22.11-CUDA-11.7.0/Gaussian/g16c01-CUDA-11.7.0/g16/l1102.exe)
 Symmetrizing basis deriv contribution to polar:
 IMax=3 JMax=2 DiffMx= 0.00D+00
 Leave Link 1102 at Sun May 25 05:40:30 2025, MaxMem=  3758096384 cpu:               0.1 elap:               0.0
 (Enter /apps/easybuild-2022/easybuild/software/Compiler/NVHPC/22.11-CUDA-11.7.0/Gaussian/g16c01-CUDA-11.7.0/g16/l1110.exe)
 Forming Gx(P) for the SCF density, NAtomX=     9.
 Integral derivatives from FoFJK, PRISM(SPDF).
 Do as many integral derivatives as possible in FoFJK.
 G2DrvN: MDV=    3758095321.
 G2DrvN: will do    10 centers at a time, making    1 passes.
 Calling FoFCou, ICntrl=  3107 FMM=F I1Cent=   0 AccDes= 0.00D+00.
 FoFJK:  IHMeth= 1 ICntrl=    3107 DoSepK=F KAlg= 0 I1Cent=           0 FoldK=F
 IRaf=         0 NMat=       1 IRICut=       1 DoRegI=T DoRafI=F ISym2E= 0 IDoP0=0 IntGTp=1.
 FoFCou: FMM=F IPFlag=           0 FMFlag=      100000 FMFlg1=           0
         NFxFlg=           0 DoJE=F BraDBF=F KetDBF=F FulRan=T
         wScrn=  0.000000 ICntrl=      3107 IOpCl=  0 I1Cent=           0 NGrid=           0
         NMat0=    1 NMatS0=      1 NMatT0=    0 NMatD0=    1 NMtDS0=    0 NMtDT0=    0
 Symmetry not used in FoFCou.
 End of G2Drv F.D. properties file   721 does not exist.
 End of G2Drv F.D. properties file   722 does not exist.
 End of G2Drv F.D. properties file   788 does not exist.
 Leave Link 1110 at Sun May 25 05:40:52 2025, MaxMem=  3758096384 cpu:             173.3 elap:              21.9
 (Enter /apps/easybuild-2022/easybuild/software/Compiler/NVHPC/22.11-CUDA-11.7.0/Gaussian/g16c01-CUDA-11.7.0/g16/l1002.exe)
 Minotr:  Closed shell wavefunction.
          IDoAtm=111111111
          Direct CPHF calculation.
          Differentiating once with respect to electric field.
                with respect to dipole field.
          Differentiating once with respect to nuclear coordinates.
          Requested convergence is 1.0D-08 RMS, and 1.0D-07 maximum.
          Secondary convergence is 1.0D-12 RMS, and 1.0D-12 maximum.
          NewPWx=T KeepS1=F KeepF1=F KeepIn=T MapXYZ=F SortEE=F KeepMc=T.
         2683 words used for storage of precomputed grid.
 Keep R1 ints in memory in canonical form, NReq=715218544.
 FoFCou: FMM=F IPFlag=           0 FMFlag=           0 FMFlg1=           0
         NFxFlg=           0 DoJE=F BraDBF=F KetDBF=F FulRan=T
         wScrn=  0.000000 ICntrl=       600 IOpCl=  0 I1Cent=           0 NGrid=           0
         NMat0=    1 NMatS0=  37401 NMatT0=    0 NMatD0=    1 NMtDS0=    0 NMtDT0=    0
 Symmetry not used in FoFCou.
 Two-electron integral symmetry not used.
          MDV=    3758096384 using IRadAn=       1.
          Solving linear equations simultaneously, MaxMat=       0.
          There are    30 degrees of freedom in the 1st order CPHF.  IDoFFX=6 NUNeed=     3.
     27 vectors produced by pass  0 Test12= 2.91D-14 3.33D-09 XBig12= 2.21D+01 2.17D+00.
 AX will form    27 AO Fock derivatives at one time.
     27 vectors produced by pass  1 Test12= 2.91D-14 3.33D-09 XBig12= 4.34D+00 3.86D-01.
     27 vectors produced by pass  2 Test12= 2.91D-14 3.33D-09 XBig12= 1.34D-01 7.14D-02.
     27 vectors produced by pass  3 Test12= 2.91D-14 3.33D-09 XBig12= 4.58D-03 1.27D-02.
     27 vectors produced by pass  4 Test12= 2.91D-14 3.33D-09 XBig12= 7.16D-05 1.90D-03.
     27 vectors produced by pass  5 Test12= 2.91D-14 3.33D-09 XBig12= 6.84D-07 1.71D-04.
     27 vectors produced by pass  6 Test12= 2.91D-14 3.33D-09 XBig12= 3.92D-09 1.05D-05.
     15 vectors produced by pass  7 Test12= 2.91D-14 3.33D-09 XBig12= 2.22D-11 7.51D-07.
      4 vectors produced by pass  8 Test12= 2.91D-14 3.33D-09 XBig12= 1.33D-13 5.35D-08.
      1 vectors produced by pass  9 Test12= 2.91D-14 3.33D-09 XBig12= 6.77D-16 3.53D-09.
 InvSVY:  IOpt=1 It=  1 EMax= 1.78D-15
 Solved reduced A of dimension   209 with    30 vectors.
 FullF1:  Do perturbations      1 to       3.
 Isotropic polarizability for W=    0.000000       44.40 Bohr**3.
 End of Minotr F.D. properties file   721 does not exist.
 End of Minotr F.D. properties file   722 does not exist.
 End of Minotr F.D. properties file   788 does not exist.
 Leave Link 1002 at Sun May 25 05:41:26 2025, MaxMem=  3758096384 cpu:             266.0 elap:              34.3
 (Enter /apps/easybuild-2022/easybuild/software/Compiler/NVHPC/22.11-CUDA-11.7.0/Gaussian/g16c01-CUDA-11.7.0/g16/l701.exe)
 ... and contract with generalized density number  0.
 Compute integral second derivatives.
   1 Symmetry operations used in ECPInt.
 ECPInt:  NShTT=    4753 NPrTT=   15592 LenC2=    4578 LenP2D=   11473.
 LDataN:  DoStor=T MaxTD1= 8 Len=  415
 Leave Link  701 at Sun May 25 05:41:26 2025, MaxMem=  3758096384 cpu:               1.1 elap:               0.2
 (Enter /apps/easybuild-2022/easybuild/software/Compiler/NVHPC/22.11-CUDA-11.7.0/Gaussian/g16c01-CUDA-11.7.0/g16/l702.exe)
 L702 exits ... SP integral derivatives will be done elsewhere.
 Leave Link  702 at Sun May 25 05:41:26 2025, MaxMem=  3758096384 cpu:               0.1 elap:               0.0
 (Enter /apps/easybuild-2022/easybuild/software/Compiler/NVHPC/22.11-CUDA-11.7.0/Gaussian/g16c01-CUDA-11.7.0/g16/l703.exe)
 Integral derivatives from FoFJK, PRISM(SPDF).
 Compute integral second derivatives, UseDBF=F ICtDFT=           0.
 Calling FoFJK, ICntrl=    100127 FMM=F ISym2X=0 I1Cent= 0 IOpClX= 0 NMat=1 NMatS=1 NMatT=0.
 FoFJK:  IHMeth= 1 ICntrl=  100127 DoSepK=F KAlg= 0 I1Cent=           0 FoldK=F
 IRaf=         0 NMat=       1 IRICut=       1 DoRegI=T DoRafI=F ISym2E= 0 IDoP0=0 IntGTp=1.
 FoFCou: FMM=F IPFlag=           0 FMFlag=      100000 FMFlg1=         800
         NFxFlg=           0 DoJE=F BraDBF=F KetDBF=F FulRan=T
         wScrn=  0.000000 ICntrl=    100127 IOpCl=  0 I1Cent=           0 NGrid=           0
         NMat0=    1 NMatS0=      1 NMatT0=    0 NMatD0=    1 NMtDS0=    0 NMtDT0=    0
 Symmetry not used in FoFCou.
 Leave Link  703 at Sun May 25 05:42:13 2025, MaxMem=  3758096384 cpu:             371.7 elap:              46.8
 (Enter /apps/easybuild-2022/easybuild/software/Compiler/NVHPC/22.11-CUDA-11.7.0/Gaussian/g16c01-CUDA-11.7.0/g16/l716.exe)
 Dipole        =-3.25020131D-01-1.37905581D+00 4.34053318D-02
 Polarizability= 4.60348650D+01 2.53424800D+00 4.52398539D+01
                 4.96860563D-01 4.92080991D-01 4.19374782D+01
 -------------------------------------------------------------------
 Center     Atomic                   Forces (Hartrees/Bohr)
 Number     Number              X              Y              Z
 -------------------------------------------------------------------
      1        6          -0.000003955    0.000003109   -0.000003121
      2        9          -0.000000358   -0.000002085   -0.000000668
      3        9          -0.000000380   -0.000003813   -0.000005560
      4        9          -0.000003472    0.000003199   -0.000007958
      5       16           0.000006346   -0.000003757    0.000001905
      6        8           0.000001307   -0.000003895    0.000000127
      7        8          -0.000001476    0.000004953    0.000004016
      8        8          -0.000000493   -0.000001323    0.000005758
      9        1           0.000002481    0.000003613    0.000005502
 -------------------------------------------------------------------
 Cartesian Forces:  Max     0.000007958 RMS     0.000003720
 Force constants in Cartesian coordinates: 
                1             2             3             4             5 
      1  0.132629D+00
      2  0.669710D-01  0.637065D+00
      3  0.302309D-01 -0.372299D-02  0.712008D+00
      4  0.110354D-01 -0.292533D-01 -0.477847D-02  0.671706D-01
      5 -0.317913D-01 -0.293892D-02  0.264565D-02  0.118861D+00  0.367016D+00
      6 -0.922134D-02  0.448555D-02 -0.119665D-01  0.464155D-01  0.131609D+00
      7 -0.439178D-01 -0.678076D-02 -0.522545D-02 -0.820920D-02  0.120031D-01
      8 -0.164621D-01 -0.285883D+00  0.201588D+00  0.980582D-02 -0.772659D-03
      9  0.825996D-02  0.205656D+00 -0.303970D+00 -0.103871D-01  0.480030D-02
     10 -0.484146D-01 -0.277909D-01 -0.255409D-01 -0.347364D-02  0.987803D-02
     11 -0.311718D-01 -0.241561D+00 -0.193944D+00  0.792166D-02  0.513689D-03
     12 -0.376754D-01 -0.202442D+00 -0.354410D+00  0.121696D-01 -0.583281D-02
     13 -0.382412D-01 -0.108008D-01  0.534971D-02 -0.993895D-02  0.206938D-01
     14 -0.262407D-01 -0.978700D-01 -0.119651D-02  0.169833D-01 -0.293170D-01
     15 -0.540451D-03  0.414482D-02 -0.135657D-01 -0.472494D-02 -0.205834D-01
     16 -0.143282D-01  0.580190D-02 -0.140302D-01 -0.386212D-02 -0.482800D-02
     17 -0.159579D-01  0.765536D-02 -0.619398D-02 -0.641819D-02  0.718231D-02
     18 -0.777793D-02  0.407462D-02 -0.570572D-02 -0.160079D-02  0.224077D-02
     19  0.467000D-02 -0.259964D-02  0.495544D-02  0.146097D-02 -0.230512D-02
     20  0.212053D-02 -0.387414D-02  0.223415D-01 -0.417584D-02  0.420006D-02
     21 -0.499815D-02 -0.651746D-02 -0.195027D-01  0.444278D-02  0.348832D-02
     22 -0.202435D-01 -0.410462D-02  0.682468D-02 -0.921917D-02 -0.557009D-01
     23  0.218267D-01 -0.444836D-02 -0.161388D-01 -0.171913D-01 -0.213880D-01
     24  0.110137D-01 -0.924606D-03 -0.616627D-02 -0.470269D-02  0.297364D-03
     25  0.168110D-01  0.855713D-02  0.221429D-02 -0.449639D-01 -0.668109D-01
     26  0.307055D-01 -0.814424D-02 -0.537879D-02 -0.965334D-01 -0.324495D+00
     27  0.107087D-01 -0.475443D-02  0.327836D-02 -0.368338D-01 -0.118665D+00
                6             7             8             9            10 
      6  0.698755D-01
      7 -0.521551D-02  0.296974D-01
      8  0.601778D-03 -0.219706D-02  0.239031D+00
      9  0.330538D-02  0.136949D-01 -0.225246D+00  0.418066D+00
     10  0.822432D-02  0.126907D-01  0.371054D-02 -0.643958D-02  0.283445D-01
     11 -0.155784D-02  0.348230D-02  0.404262D-01  0.167093D-01  0.171641D-01
     12 -0.124134D-02 -0.545269D-02  0.128348D-02 -0.114401D+00  0.275207D-01
     13  0.828538D-02  0.129933D-01  0.111933D-01 -0.763640D-02  0.194005D-01
     14 -0.119941D-01 -0.370820D-03  0.286473D-01 -0.720644D-02  0.164489D-02
     15 -0.102062D-01  0.217001D-02  0.314802D-01 -0.103811D-01 -0.286562D-02
     16 -0.928033D-03  0.296734D-03 -0.563636D-02  0.313837D-02 -0.225969D-02
     17  0.300300D-02  0.236423D-02 -0.197061D-02 -0.315354D-03  0.362883D-02
     18  0.163156D-02  0.701820D-03 -0.686662D-02  0.373007D-02  0.186729D-03
     19 -0.612570D-03 -0.139086D-02 -0.375978D-02  0.161509D-02 -0.220658D-02
     20  0.159106D-02 -0.156604D-02 -0.131890D-01  0.316463D-02 -0.335824D-03
     21  0.310660D-02  0.181884D-02  0.359582D-02  0.197516D-02  0.112924D-02
     22 -0.214605D-01  0.165687D-02  0.496618D-02 -0.117816D-02  0.819366D-03
     23 -0.102129D-01 -0.371802D-02 -0.410012D-02  0.321600D-02 -0.505250D-02
     24  0.706157D-02 -0.148026D-02 -0.747898D-02  0.370535D-02 -0.131930D-02
     25 -0.254873D-01 -0.381718D-02 -0.162054D-02 -0.106706D-02 -0.490062D-02
     26 -0.117526D+00 -0.321692D-02 -0.218909D-02 -0.778593D-03 -0.284715D-02
     27 -0.615666D-01 -0.101167D-02  0.104185D-02 -0.202996D-02 -0.895584D-03
               11            12            13            14            15 
     11  0.191343D+00
     12  0.200397D+00  0.475201D+00
     13  0.997596D-02  0.644597D-02  0.103990D+01
     14  0.331531D-01  0.142658D-01 -0.178641D+00  0.375230D+00
     15 -0.242952D-01 -0.164357D-01  0.337510D-01 -0.101037D+00  0.116232D+01
     16 -0.911845D-02 -0.225096D-02 -0.520554D+00  0.635821D-01 -0.246464D+00
     17 -0.818094D-02 -0.405526D-02  0.396263D-01 -0.903578D-01  0.297360D-01
     18 -0.149894D-02  0.175793D-02 -0.247844D+00  0.375291D-01 -0.235072D+00
     19 -0.217913D-03 -0.367781D-03 -0.924597D-01  0.782046D-03  0.620289D-02
     20 -0.152774D-02 -0.103929D-04  0.886108D-03 -0.115217D+00  0.145072D+00
     21  0.778637D-02  0.873629D-02  0.270726D-02  0.135900D+00 -0.657130D+00
     22  0.499559D-02 -0.541819D-03 -0.377458D+00  0.107947D+00  0.192011D+00
     23 -0.115136D-01 -0.512065D-02  0.134038D+00 -0.139400D+00 -0.897319D-01
     24 -0.210497D-02  0.134387D-02  0.201795D+00 -0.791660D-01 -0.233299D+00
     25 -0.303144D-02  0.152407D-03 -0.336379D-01  0.143129D-01  0.204604D-01
     26 -0.265228D-02  0.151455D-02 -0.269718D-01  0.351317D-01  0.252151D-01
     27 -0.149123D-02 -0.551197D-03 -0.285378D-02  0.129057D-01  0.137675D-01
               16            17            18            19            20 
     16  0.566701D+00
     17 -0.595705D-01  0.563824D-01
     18  0.276243D+00 -0.345107D-01  0.235209D+00
     19  0.528081D-02  0.139365D-01 -0.424094D-01  0.778665D-01
     20 -0.792340D-03  0.193914D-01  0.623147D-02 -0.447133D-02  0.943525D-01
     21  0.100014D-02  0.109750D-01 -0.169397D-01 -0.905157D-02 -0.161017D+00
     22 -0.360960D-01  0.268545D-01  0.238494D-01  0.410727D-02  0.103307D-01
     23  0.441036D-02  0.191469D-01 -0.359452D-02 -0.476080D-02  0.209646D-01
     24 -0.177884D-01  0.437706D-02  0.172473D-01  0.396432D-01 -0.150983D-01
     25  0.482144D-02 -0.446374D-02 -0.134899D-02  0.267167D-02 -0.199602D-02
     26  0.615129D-02 -0.924893D-02 -0.360520D-02  0.339606D-02 -0.510048D-02
     27  0.108016D-02 -0.301580D-02 -0.185834D-02  0.246625D-04 -0.227493D-02
               21            22            23            24            25 
     21  0.707335D+00
     22  0.851159D-02  0.412859D+00
     23  0.107596D-01 -0.136199D+00  0.145518D+00
     24 -0.234352D-01 -0.221361D+00  0.110607D+00  0.248364D+00
     25 -0.556014D-02  0.235750D-01  0.664723D-02 -0.580010D-02  0.394405D-01
     26 -0.497072D-02  0.409111D-01 -0.477976D-02 -0.105084D-01  0.484054D-01
     27 -0.414534D-02  0.133449D-01  0.216402D-03 -0.148215D-01  0.164365D-01
               26            27 
     26  0.321478D+00
     27  0.116038D+00  0.679271D-01
 FormGI is forming the generalized inverse of G from B-inverse, IUseBI=4.
 Force constants in internal coordinates: 
                1             2             3             4             5 
      1  0.569944D+00
      2  0.852354D-01  0.579333D+00
      3 -0.758031D-02 -0.972695D-02  0.926713D-01
      4 -0.122460D-02 -0.682680D-03 -0.745486D-02  0.457036D+00
      5  0.853260D-02  0.449207D-02  0.138650D-01  0.459169D-02  0.729865D+00
      6  0.293729D-02  0.114362D-01  0.743547D-02  0.446623D-02  0.842595D-02
      7  0.214120D-01  0.177513D-01  0.113493D-01 -0.171797D-01  0.132982D-01
      8  0.745205D-02  0.594998D-02 -0.119813D-01  0.791633D-01 -0.830446D-03
      9  0.475946D-01  0.487552D-01  0.143957D-01 -0.804165D-02 -0.792692D-02
     10 -0.103343D-01 -0.369821D-01 -0.902322D-02  0.493953D-02  0.169605D-03
     11 -0.376247D-01 -0.121951D-01 -0.781704D-02  0.608309D-02  0.816000D-02
     12 -0.199972D-01 -0.780370D-02 -0.894031D-02 -0.972885D-02  0.242749D-01
     13  0.123884D-01 -0.154341D-01  0.136618D-01 -0.713492D-03 -0.896952D-02
     14  0.424533D-01  0.580749D-01  0.422501D-01 -0.165992D-02 -0.170220D-01
     15  0.886454D-03 -0.116513D-02 -0.375130D-02 -0.251115D-02  0.722522D-02
     16 -0.931906D-02 -0.814678D-02 -0.972511D-02  0.756929D-02  0.749739D-02
     17 -0.871767D-02 -0.746046D-02 -0.980963D-02  0.113109D-02 -0.139997D-01
     18  0.596784D-01  0.599983D-01 -0.799759D-02  0.484457D-01  0.408181D-02
     19  0.276504D-01  0.272222D-01 -0.179558D-01  0.457899D-01  0.411524D-02
     20  0.786906D-03  0.767482D-02 -0.280283D-02  0.793463D-02 -0.119728D-02
     21 -0.769275D-03 -0.340168D-04 -0.564791D-02  0.225155D-02  0.110671D-01
     22  0.528620D-02  0.441734D-02 -0.459820D-03  0.278322D-02 -0.107599D-01
     23 -0.549184D-02  0.156571D-02  0.524352D-02 -0.342405D-02 -0.159800D-02
     24 -0.704802D-02 -0.614313D-02  0.239844D-02 -0.910714D-02  0.106664D-01
     25 -0.992549D-03 -0.169177D-02  0.758653D-02 -0.857547D-02 -0.111606D-01
     26 -0.230396D-01 -0.490150D-02 -0.128711D-01 -0.760579D-02  0.148128D-01
     27 -0.208385D-01 -0.255629D-01 -0.231547D-01  0.248839D-02 -0.573563D-02
     28  0.128966D-01  0.802746D-02  0.241083D-01 -0.904677D-02 -0.931889D-02
     29  0.383456D-03 -0.130721D-03 -0.319879D-02  0.545184D-03  0.111865D-02
                6             7             8             9            10 
      6  0.747027D+00
      7  0.144191D-01  0.678722D+00
      8 -0.739048D-03  0.126383D-01  0.327307D-01
      9 -0.706674D-02 -0.501688D-02  0.216264D-02  0.196506D+00
     10  0.843494D-02 -0.717401D-03 -0.945682D-03 -0.101392D+00  0.103244D+00
     11 -0.839311D-03  0.330843D-02 -0.210088D-02 -0.102131D+00  0.306347D-02
     12 -0.113596D-01 -0.334303D-01  0.254060D-01 -0.116964D-01  0.376704D-02
     13  0.174626D-01 -0.254974D-01  0.123980D-01 -0.824267D-02  0.226325D-01
     14 -0.888335D-02  0.892958D-01 -0.398599D-01  0.117013D-01 -0.277469D-01
     15  0.705209D-02 -0.118448D-01  0.590540D-03  0.268848D-02 -0.133554D-02
     16 -0.143422D-01 -0.120335D-02  0.141302D-02  0.111268D-02 -0.384276D-03
     17  0.830920D-02 -0.852679D-03 -0.159826D-02  0.582237D-03  0.188577D-02
     18  0.101595D-01  0.117790D+00 -0.165783D-01  0.194727D-01 -0.167144D-01
     19  0.779541D-02  0.192263D-01  0.237278D-01  0.491634D-02 -0.585821D-02
     20 -0.883103D-02  0.100264D-01 -0.768391D-02  0.225722D-02 -0.126082D-02
     21  0.321774D-05 -0.191507D-01  0.375137D-02 -0.585619D-03  0.459555D-02
     22  0.108103D-01 -0.163544D-02 -0.587501D-02  0.114846D-02  0.472068D-02
     23 -0.994659D-02  0.211677D-01 -0.428138D-02  0.175995D-04 -0.583041D-02
     24 -0.111234D-02 -0.800941D-02  0.715390D-02 -0.282524D-02  0.259609D-04
     25  0.969470D-02  0.950588D-02 -0.247249D-02 -0.109116D-02  0.151091D-03
     26 -0.151444D-01 -0.130432D-01  0.824800D-02 -0.597532D-02 -0.211735D-02
     27  0.653799D-02 -0.231689D-01  0.493753D-03  0.768295D-03  0.883472D-02
     28  0.246330D-02  0.787542D-02 -0.486666D-03 -0.871311D-02  0.890153D-02
     29 -0.161817D-02  0.336709D-02 -0.211733D-03 -0.145688D-02  0.209364D-02
               11            12            13            14            15 
     11  0.103431D+00
     12  0.116494D-01  0.108429D+00
     13 -0.133104D-01  0.336229D-02  0.123124D+00
     14  0.565455D-02 -0.628923D-01 -0.583232D-01  0.330347D+00
     15 -0.208991D-02 -0.193648D-01 -0.151001D-01  0.203065D-01  0.690607D-01
     16  0.874093D-03 -0.197276D-01  0.980517D-02 -0.639732D-01 -0.311124D-01
     17 -0.645805D-03  0.132329D-01 -0.304481D-01 -0.576748D-01 -0.309209D-01
     18 -0.175183D-01 -0.751174D-02 -0.176735D-01  0.150153D+00  0.786353D-02
     19 -0.417994D-02  0.906480D-02  0.109020D-01  0.124214D-01  0.572279D-03
     20  0.323472D-02  0.457824D-02 -0.124312D-01 -0.134211D-01 -0.327094D-01
     21  0.829963D-03  0.169028D-01  0.617620D-02 -0.263675D-01  0.300919D-01
     22 -0.175698D-02  0.139756D-01 -0.978098D-02 -0.927652D-02 -0.593438D-03
     23  0.157286D-02 -0.931146D-02 -0.157538D-01  0.289204D-01 -0.300166D-01
     24 -0.831892D-03  0.301309D-02  0.285360D-02  0.159740D-01  0.327847D-01
     25 -0.341884D-02  0.858940D-04 -0.131036D-01  0.330650D-01  0.209938D-02
     26  0.125602D-01  0.556027D-01 -0.555709D-01 -0.247713D-01 -0.217682D-02
     27 -0.414646D-02 -0.293730D-01 -0.301072D-01 -0.116406D+00  0.171451D-01
     28  0.157816D-03  0.276244D-01  0.451506D-01  0.784994D-01 -0.171298D-01
     29  0.210184D-03  0.103742D-01 -0.109882D-01  0.319127D-02 -0.826850D-04
               16            17            18            19            20 
     16  0.915760D-01
     17 -0.229926D-01  0.908710D-01
     18 -0.389168D-01 -0.302822D-01  0.276387D+00
     19 -0.547117D-02 -0.114061D-01  0.588534D-01  0.895578D-01
     20  0.363431D-01  0.746090D-02 -0.250226D-01 -0.145022D-01  0.360958D-01
     21  0.533160D-03 -0.294426D-01 -0.237662D-01 -0.827986D-02 -0.321530D-03
     22 -0.389923D-01  0.416237D-01 -0.179396D-01 -0.138808D-01  0.458991D-03
     23  0.293512D-01 -0.386852D-03  0.345502D-01  0.647467D-02  0.177485D-01
     24 -0.645878D-02 -0.372903D-01  0.358067D-01  0.126970D-01 -0.186689D-01
     25 -0.459843D-01  0.337759D-01  0.416333D-01  0.709606D-02 -0.178884D-01
     26 -0.399146D-02  0.185171D-01 -0.143794D-01 -0.126366D-01  0.210394D-01
     27  0.295824D-01  0.409126D-01 -0.776535D-01 -0.284067D-01  0.135627D-01
     28 -0.356441D-01 -0.231202D-01  0.416189D-01  0.373864D-02  0.117764D-02
     29 -0.567364D-02  0.448578D-02  0.111850D-01 -0.211064D-02  0.537336D-02
               21            22            23            24            25 
     21  0.379357D-01
     22  0.126849D-02  0.397369D-01
     23 -0.208113D-01 -0.172257D-01  0.357882D-01
     24  0.174460D-01 -0.164162D-01 -0.277156D-02  0.333433D-01
     25 -0.192213D-01  0.220522D-01  0.813995D-03 -0.518904D-03  0.407546D-01
     26  0.199227D-01  0.177616D-01  0.305317D-02  0.193642D-02 -0.224702D-03
     27  0.147878D-01  0.170361D-01 -0.979003D-02 -0.856489D-02 -0.631658D-02
     28  0.354851D-02  0.132533D-01  0.110850D-02  0.347937D-02  0.131842D-01
     29  0.533631D-02  0.804854D-02  0.200619D-02  0.196914D-02  0.468137D-02
               26            27            28            29 
     26  0.747578D-01
     27  0.254793D-01  0.115123D+00
     28  0.166538D-02 -0.636385D-01  0.918590D-01
     29  0.218982D-01  0.972629D-02  0.122795D-01  0.199681D-01
 Leave Link  716 at Sun May 25 05:42:13 2025, MaxMem=  3758096384 cpu:               0.1 elap:               0.0
 (Enter /apps/easybuild-2022/easybuild/software/Compiler/NVHPC/22.11-CUDA-11.7.0/Gaussian/g16c01-CUDA-11.7.0/g16/l103.exe)

 GradGradGradGradGradGradGradGradGradGradGradGradGradGradGradGradGradGrad
 Berny optimization.
 Red2BG is reusing G-inverse.
 Internal  Forces:  Max     0.000005625 RMS     0.000002038
 Search for a saddle point.
 Step number   1 out of a maximum of  100
 All quantities printed in internal units (Hartrees-Bohrs-Radians)
 Swapping is turned off.
 Second derivative matrix not updated -- analytic derivatives used.
 ITU=  0
     Eigenvalues ---   -0.00953   0.00234   0.00867   0.02499   0.04631
     Eigenvalues ---    0.06449   0.07546   0.10070   0.15025   0.16644
     Eigenvalues ---    0.18381   0.21591   0.23619   0.29101   0.45976
     Eigenvalues ---    0.49108   0.49531   0.65671   0.73176   0.75150
     Eigenvalues ---    0.85207
 Eigenvectors required to have negative eigenvalues:
                          R8        D1        D3        A10       D2
   1                   -0.76745  -0.26128  -0.24727  -0.21779  -0.19227
                          D5        R4        D7        D9        A4
   1                    0.18801   0.17190   0.14920   0.14123   0.13650
 RFO step:  Lambda0=1.977873344D-09 Lambda= 0.00000000D+00.
 Linear search not attempted -- option 19 set.
 Iteration  1 RMS(Cart)=  0.00010629 RMS(Int)=  0.00000000
 Iteration  2 RMS(Cart)=  0.00000001 RMS(Int)=  0.00000000
 ITry= 1 IFail=0 DXMaxC= 3.29D-04 DCOld= 1.00D+10 DXMaxT= 3.00D-01 DXLimC= 3.00D+00 Rises=F
 Variable       Old X    -DE/DX   Delta X   Delta X   Delta X     New X
                                 (Linear)    (Quad)   (Total)
    R1        2.37613   0.00000   0.00000  -0.00001  -0.00001   2.37612
    R2        2.37072   0.00000   0.00000  -0.00001  -0.00001   2.37071
    R3        3.67758  -0.00000   0.00000   0.00003   0.00003   3.67761
    R4        1.81949   0.00000   0.00000  -0.00006  -0.00006   1.81943
    R5        2.68709  -0.00000   0.00000   0.00000   0.00000   2.68710
    R6        2.68096  -0.00000   0.00000  -0.00000  -0.00000   2.68096
    R7        2.73304   0.00000   0.00000  -0.00002  -0.00002   2.73302
    R8        3.02518  -0.00000   0.00000   0.00036   0.00036   3.02554
    A1        1.96342   0.00000   0.00000  -0.00000  -0.00000   1.96342
    A2        2.13235  -0.00000   0.00000   0.00001   0.00001   2.13237
    A3        2.15286   0.00000   0.00000   0.00003   0.00003   2.15289
    A4        1.70688   0.00000   0.00000  -0.00004  -0.00004   1.70684
    A5        1.74386   0.00000   0.00000  -0.00001  -0.00001   1.74385
    A6        1.71337  -0.00001   0.00000   0.00001   0.00001   1.71338
    A7        2.09092   0.00000   0.00000  -0.00000  -0.00000   2.09092
    A8        2.03499   0.00000   0.00000   0.00001   0.00001   2.03500
    A9        2.04135  -0.00000   0.00000   0.00001   0.00001   2.04136
   A10        1.82340  -0.00001   0.00000   0.00006   0.00006   1.82346
   A11        2.55939  -0.00000   0.00000  -0.00007  -0.00007   2.55932
    D1        0.85125  -0.00000   0.00000   0.00015   0.00015   0.85140
    D2        2.98439   0.00000   0.00000   0.00013   0.00013   2.98452
    D3       -1.21584  -0.00000   0.00000   0.00014   0.00014  -1.21570
    D4       -1.98986  -0.00000   0.00000   0.00001   0.00001  -1.98985
    D5        0.14328   0.00000   0.00000  -0.00001  -0.00001   0.14327
    D6        2.22624  -0.00000   0.00000  -0.00000  -0.00000   2.22624
    D7       -0.50047   0.00000   0.00000  -0.00009  -0.00009  -0.50056
    D8       -2.29835   0.00000   0.00000  -0.00006  -0.00006  -2.29841
    D9        1.34184   0.00000   0.00000  -0.00009  -0.00009   1.34175
   D10        0.41299   0.00000   0.00000   0.00004   0.00004   0.41303
         Item               Value     Threshold  Converged?
 Maximum Force            0.000006     0.000450     YES
 RMS     Force            0.000002     0.000300     YES
 Maximum Displacement     0.000329     0.001800     YES
 RMS     Displacement     0.000106     0.001200     YES
 Predicted change in Energy= 7.443845D-10
 Optimization completed.
    -- Stationary point found.
                           ----------------------------
                           !   Optimized Parameters   !
                           ! (Angstroms and Degrees)  !
 --------------------------                            --------------------------
 ! Name  Definition              Value          Derivative Info.                !
 --------------------------------------------------------------------------------
 ! R1    R(1,3)                  1.2574         -DE/DX =    0.0                 !
 ! R2    R(1,4)                  1.2545         -DE/DX =    0.0                 !
 ! R3    R(1,5)                  1.9461         -DE/DX =    0.0                 !
 ! R4    R(2,9)                  0.9628         -DE/DX =    0.0                 !
 ! R5    R(5,6)                  1.4219         -DE/DX =    0.0                 !
 ! R6    R(5,7)                  1.4187         -DE/DX =    0.0                 !
 ! R7    R(5,8)                  1.4463         -DE/DX =    0.0                 !
 ! R8    R(8,9)                  1.6009         -DE/DX =    0.0                 !
 ! A1    A(3,1,4)              112.4959         -DE/DX =    0.0                 !
 ! A2    A(3,1,5)              122.1749         -DE/DX =    0.0                 !
 ! A3    A(4,1,5)              123.3499         -DE/DX =    0.0                 !
 ! A4    A(1,5,6)               97.7969         -DE/DX =    0.0                 !
 ! A5    A(1,5,7)               99.9158         -DE/DX =    0.0                 !
 ! A6    A(1,5,8)               98.1687         -DE/DX =    0.0                 !
 ! A7    A(6,5,7)              119.801          -DE/DX =    0.0                 !
 ! A8    A(6,5,8)              116.5963         -DE/DX =    0.0                 !
 ! A9    A(7,5,8)              116.9606         -DE/DX =    0.0                 !
 ! A10   A(5,8,9)              104.473          -DE/DX =    0.0                 !
 ! A11   A(2,9,8)              146.6423         -DE/DX =    0.0                 !
 ! D1    D(3,1,5,6)             48.7728         -DE/DX =    0.0                 !
 ! D2    D(3,1,5,7)            170.9928         -DE/DX =    0.0                 !
 ! D3    D(3,1,5,8)            -69.6624         -DE/DX =    0.0                 !
 ! D4    D(4,1,5,6)           -114.0104         -DE/DX =    0.0                 !
 ! D5    D(4,1,5,7)              8.2096         -DE/DX =    0.0                 !
 ! D6    D(4,1,5,8)            127.5544         -DE/DX =    0.0                 !
 ! D7    D(1,5,8,9)            -28.6748         -DE/DX =    0.0                 !
 ! D8    D(6,5,8,9)           -131.686          -DE/DX =    0.0                 !
 ! D9    D(7,5,8,9)             76.882          -DE/DX =    0.0                 !
 ! D10   D(5,8,9,2)             23.6626         -DE/DX =    0.0                 !
 --------------------------------------------------------------------------------
 Lowest energy point so far.  Saving SCF results.
 Largest change from initial coordinates is atom    0       0.000 Angstoms.
 GradGradGradGradGradGradGradGradGradGradGradGradGradGradGradGradGradGrad

 Leave Link  103 at Sun May 25 05:42:13 2025, MaxMem=  3758096384 cpu:               0.1 elap:               0.0
 (Enter /apps/easybuild-2022/easybuild/software/Compiler/NVHPC/22.11-CUDA-11.7.0/Gaussian/g16c01-CUDA-11.7.0/g16/l202.exe)
                          Input orientation:                          
 ---------------------------------------------------------------------
 Center     Atomic      Atomic             Coordinates (Angstroms)
 Number     Number       Type             X           Y           Z
 ---------------------------------------------------------------------
      1          6           0        1.589658    0.083565   -0.081593
      2          9           0       -0.475985    0.560446    0.086774
      3          9           0        1.618328   -0.674739    0.921000
      4          9           0        1.519704   -0.551001   -1.161536
      5         16           0        2.086960    1.962006    0.025258
      6          8           0        3.315424    1.796993    0.722097
      7          8           0        2.097810    2.290736   -1.354794
      8          8           0        0.959781    2.429146    0.801738
      9          1           0       -0.231334    1.430541    0.418634
 ---------------------------------------------------------------------
                    Distance matrix (angstroms):
                    1          2          3          4          5
     1  C    0.000000
     2  F    2.126651   0.000000
     3  F    1.257394   2.570557   0.000000
     4  F    1.254530   2.603146   2.088539   0.000000
     5  S    1.946090   2.921787   2.823897   2.836453   0.000000
     6  O    2.561254   4.038250   3.004855   3.505105   1.421949
     7  O    2.598242   3.420006   3.768711   2.906377   1.418705
     8  O    2.584331   2.462648   3.175218   3.612372   1.446262
     9  H    2.319608   0.962835   2.847073   3.080516   2.410744
                    6          7          8          9
     6  O    0.000000
     7  O    2.457609   0.000000
     8  O    2.440290   2.442314   0.000000
     9  H    3.578529   3.051212   1.600855   0.000000
 Symmetry turned off by external request.
 Stoichiometry    CHF3O3S
 Rotational constants (GHZ):           2.3877925           1.5299008           1.3932433
 Leave Link  202 at Sun May 25 05:42:13 2025, MaxMem=  3758096384 cpu:               0.0 elap:               0.0
 (Enter /apps/easybuild-2022/easybuild/software/Compiler/NVHPC/22.11-CUDA-11.7.0/Gaussian/g16c01-CUDA-11.7.0/g16/l716.exe)
 Dipole        =-3.25020131D-01-1.37905581D+00 4.34053318D-02
 Polarizability= 4.60348650D+01 2.53424800D+00 4.52398539D+01
                 4.96860563D-01 4.92080991D-01 4.19374782D+01
 Full mass-weighted force constant matrix:
 Low frequencies --- -112.4221   -8.3080   -6.9539   -4.1172   -0.0026   -0.0024
 Low frequencies ---   -0.0016   53.3321  156.4552
 ******    1 imaginary frequencies (negative Signs) ****** 
 Diagonal vibrational polarizability:
       72.5484298      23.7086142      19.5690843
 Harmonic frequencies (cm**-1), IR intensities (KM/Mole), Raman scattering
 activities (A**4/AMU), depolarization ratios for plane and unpolarized
 incident light, reduced masses (AMU), force constants (mDyne/A),
 and normal coordinates:
                      1                      2                      3
                      A                      A                      A
 Frequencies --   -112.4185                53.2935               156.4545
 Red. masses --      9.7907                16.5349                16.6800
 Frc consts  --      0.0729                 0.0277                 0.2406
 IR Inten    --      9.4286                 1.0351                 1.5816
  Atom  AN      X      Y      Z        X      Y      Z        X      Y      Z
     1   6    -0.29   0.06   0.00     0.03  -0.01  -0.07    -0.04   0.07  -0.14
     2   9     0.60  -0.02   0.04    -0.19  -0.16   0.41    -0.05  -0.15  -0.13
     3   9    -0.04   0.04   0.00     0.25  -0.11  -0.16     0.26   0.44   0.12
     4   9    -0.16   0.07  -0.03    -0.24   0.10  -0.11    -0.25  -0.30   0.09
     5  16    -0.05  -0.07  -0.02     0.03   0.05  -0.02     0.00   0.00  -0.04
     6   8    -0.10   0.00   0.08    -0.17   0.02   0.33    -0.07  -0.38   0.00
     7   8     0.02  -0.01  -0.00     0.44  -0.09  -0.05     0.17   0.50   0.08
     8   8    -0.12   0.00  -0.07    -0.14   0.18  -0.37    -0.02  -0.15   0.02
     9   1     0.68   0.09   0.07    -0.18  -0.08   0.11    -0.11  -0.17  -0.06
                      4                      5                      6
                      A                      A                      A
 Frequencies --    171.5292               203.8564               242.6739
 Red. masses --     16.4523                16.6055                11.8408
 Frc consts  --      0.2852                 0.4066                 0.4108
 IR Inten    --      1.4587                 1.0214                23.3763
  Atom  AN      X      Y      Z        X      Y      Z        X      Y      Z
     1   6    -0.07   0.12  -0.07     0.04   0.11   0.08    -0.02   0.23   0.11
     2   9    -0.00  -0.13   0.41    -0.03   0.32  -0.14    -0.06  -0.43  -0.15
     3   9    -0.34   0.19  -0.02     0.50   0.05   0.01    -0.07   0.20   0.08
     4   9     0.54   0.08  -0.08     0.13   0.23   0.02    -0.15   0.44   0.03
     5  16    -0.07  -0.05  -0.08    -0.18  -0.16   0.02     0.06  -0.06   0.03
     6   8    -0.10  -0.41  -0.09    -0.20  -0.42   0.02     0.13  -0.05  -0.08
     7   8     0.05   0.14  -0.03    -0.16  -0.28  -0.01     0.03  -0.22  -0.02
     8   8     0.01   0.11  -0.06    -0.04   0.21   0.00     0.09  -0.02   0.03
     9   1     0.01  -0.09   0.31    -0.02   0.31  -0.09    -0.44  -0.38  -0.17
                      7                      8                      9
                      A                      A                      A
 Frequencies --    281.6740               366.6830               513.9669
 Red. masses --     13.8482                15.4466                14.3666
 Frc consts  --      0.6473                 1.2237                 2.2360
 IR Inten    --     31.5387                 7.7103                65.2116
  Atom  AN      X      Y      Z        X      Y      Z        X      Y      Z
     1   6    -0.10  -0.10   0.14     0.01  -0.04   0.37    -0.50   0.06   0.01
     2   9     0.11  -0.25  -0.15    -0.05   0.10  -0.01    -0.06   0.01  -0.03
     3   9     0.00  -0.34   0.00     0.02  -0.36   0.17     0.12  -0.03  -0.04
     4   9    -0.04  -0.09   0.09     0.01   0.34   0.20     0.12  -0.06   0.02
     5  16    -0.03   0.22   0.04     0.00  -0.06  -0.13    -0.18   0.04   0.04
     6   8     0.00  -0.26  -0.12     0.04  -0.08  -0.20     0.04   0.14  -0.37
     7   8    -0.06   0.15   0.02     0.14   0.42  -0.01     0.55  -0.14  -0.00
     8   8     0.12   0.57  -0.01    -0.19  -0.30  -0.23    -0.06  -0.03   0.33
     9   1    -0.40  -0.18  -0.20     0.25   0.12  -0.10    -0.02  -0.08   0.28
                     10                     11                     12
                      A                      A                      A
 Frequencies --    549.8820               593.2495               615.7574
 Red. masses --     14.2222                12.7982                16.8831
 Frc consts  --      2.5337                 2.6538                 3.7716
 IR Inten    --     15.8798                 7.8504               218.9842
  Atom  AN      X      Y      Z        X      Y      Z        X      Y      Z
     1   6     0.13   0.01   0.08     0.71  -0.05  -0.05    -0.23   0.17   0.02
     2   9     0.04  -0.02  -0.03     0.18   0.06   0.03    -0.00   0.04   0.02
     3   9    -0.04  -0.10   0.03    -0.16   0.03  -0.00     0.04  -0.02  -0.10
     4   9    -0.03   0.08   0.07    -0.16   0.01   0.00     0.05  -0.03   0.10
     5  16    -0.05   0.12  -0.26    -0.16   0.11   0.08     0.18   0.45   0.05
     6   8    -0.40  -0.03   0.28    -0.02  -0.14  -0.26     0.09  -0.34   0.05
     7   8     0.09  -0.00  -0.33     0.22  -0.14   0.03    -0.14  -0.29  -0.13
     8   8     0.33  -0.15   0.40    -0.22  -0.03   0.07    -0.27  -0.38  -0.05
     9   1    -0.08  -0.19   0.41    -0.33   0.03   0.18     0.41   0.02  -0.12
                     13                     14                     15
                      A                      A                      A
 Frequencies --    715.4225               782.4682               944.4677
 Red. masses --     13.6909                 1.0750                 1.1736
 Frc consts  --      4.1286                 0.3878                 0.6168
 IR Inten    --      8.1811               101.5827               500.7747
  Atom  AN      X      Y      Z        X      Y      Z        X      Y      Z
     1   6    -0.08  -0.42  -0.02     0.01   0.01  -0.00     0.04  -0.01  -0.00
     2   9    -0.03   0.01  -0.01    -0.01   0.01  -0.04    -0.05  -0.03  -0.00
     3   9     0.05   0.03   0.53    -0.00  -0.00  -0.01    -0.01   0.01  -0.02
     4   9    -0.00   0.10  -0.52    -0.00   0.00   0.02    -0.01   0.01   0.02
     5  16     0.02   0.12   0.01     0.01  -0.00   0.00     0.00  -0.01  -0.01
     6   8     0.00  -0.05  -0.01     0.01  -0.00   0.00    -0.01  -0.00  -0.01
     7   8     0.01  -0.03  -0.04    -0.01  -0.00   0.01     0.01  -0.00   0.00
     8   8    -0.04   0.01   0.04    -0.02   0.02  -0.03    -0.02   0.05   0.04
     9   1     0.45  -0.13   0.13     0.21  -0.39   0.89     0.95  -0.09  -0.28
                     16                     17                     18
                      A                      A                      A
 Frequencies --   1102.3149              1361.1933              1425.7323
 Red. masses --     13.2688                14.0277                13.1068
 Frc consts  --      9.4994                15.3136                15.6972
 IR Inten    --     48.9580               193.4535               200.1901
  Atom  AN      X      Y      Z        X      Y      Z        X      Y      Z
     1   6    -0.02   0.05  -0.00     0.02   0.10   0.05     0.10   0.80   0.02
     2   9     0.00   0.00  -0.00    -0.00  -0.01  -0.00    -0.03  -0.01   0.00
     3   9     0.00  -0.01   0.02     0.00  -0.03   0.02    -0.01  -0.24   0.23
     4   9     0.00   0.00  -0.01     0.00  -0.03  -0.05    -0.03  -0.20  -0.24
     5  16    -0.02   0.12   0.05     0.38  -0.07  -0.20    -0.10  -0.02  -0.09
     6   8    -0.41   0.05  -0.24    -0.35   0.04  -0.18     0.16  -0.01   0.09
     7   8    -0.00  -0.11   0.45    -0.02  -0.07   0.31     0.00  -0.02   0.09
     8   8     0.45  -0.19  -0.31    -0.36   0.16   0.25     0.02   0.00  -0.00
     9   1     0.42  -0.14  -0.04    -0.53   0.19   0.11     0.27  -0.02  -0.08
                     19                     20                     21
                      A                      A                      A
 Frequencies --   1439.0233              1483.7401              3227.8315
 Red. masses --     18.4614                13.7907                 1.0670
 Frc consts  --     22.5243                17.8876                 6.5496
 IR Inten    --     66.2136               490.2503               651.8114
  Atom  AN      X      Y      Z        X      Y      Z        X      Y      Z
     1   6     0.02   0.28  -0.40     0.05   0.06   0.83     0.01  -0.00  -0.00
     2   9    -0.01   0.00   0.00    -0.01   0.00  -0.01    -0.02  -0.05  -0.02
     3   9     0.00  -0.15   0.18    -0.01   0.14  -0.21    -0.00  -0.00  -0.00
     4   9     0.00   0.00   0.05    -0.02  -0.17  -0.29    -0.00  -0.00   0.00
     5  16     0.19  -0.11   0.40     0.05  -0.03   0.15    -0.00   0.00   0.00
     6   8    -0.38   0.05  -0.23    -0.13   0.01  -0.08     0.00  -0.00  -0.00
     7   8    -0.00   0.13  -0.53     0.00   0.06  -0.21     0.00  -0.00  -0.00
     8   8     0.00   0.00  -0.03     0.02  -0.02  -0.03     0.01  -0.00  -0.00
     9   1     0.06  -0.03   0.02     0.10  -0.07   0.09     0.16   0.92   0.36

 -------------------
 - Thermochemistry -
 -------------------
 Temperature   298.150 Kelvin.  Pressure   1.00000 Atm.
 Atom     1 has atomic number  6 and mass  12.00000
 Atom     2 has atomic number  9 and mass  18.99840
 Atom     3 has atomic number  9 and mass  18.99840
 Atom     4 has atomic number  9 and mass  18.99840
 Atom     5 has atomic number 16 and mass  31.97207
 Atom     6 has atomic number  8 and mass  15.99491
 Atom     7 has atomic number  8 and mass  15.99491
 Atom     8 has atomic number  8 and mass  15.99491
 Atom     9 has atomic number  1 and mass   1.00783
 Molecular mass:   149.95985 amu.
 Principal axes and moments of inertia in atomic units:
                           1         2         3
     Eigenvalues --   755.819951179.645881295.35254
           X            0.49193   0.86685   0.08105
           Y            0.87013  -0.48635  -0.07958
           Z            0.02956  -0.10967   0.99353
 This molecule is an asymmetric top.
 Rotational symmetry number  1.
 Warning -- assumption of classical behavior for rotation
           may cause significant error
 Rotational temperatures (Kelvin)      0.11460     0.07342     0.06687
 Rotational constants (GHZ):           2.38779     1.52990     1.39324
    1 imaginary frequencies ignored.
 Zero-point vibrational energy      97084.2 (Joules/Mol)
                                   23.20369 (Kcal/Mol)
 Warning -- explicit consideration of  11 degrees of freedom as
           vibrations may cause significant error
 Vibrational temperatures:     76.68   225.10   246.79   293.30   349.15
          (Kelvin)            405.27   527.58   739.48   791.16   853.55
                              885.94  1029.33  1125.80  1358.88  1585.99
                             1958.45  2051.31  2070.43  2134.77  4644.13
 
 Zero-point correction=                           0.036977 (Hartree/Particle)
 Thermal correction to Energy=                    0.044722
 Thermal correction to Enthalpy=                  0.045666
 Thermal correction to Gibbs Free Energy=         0.003631
 Sum of electronic and zero-point Energies=           -962.010400
 Sum of electronic and thermal Energies=              -962.002656
 Sum of electronic and thermal Enthalpies=            -962.001712
 Sum of electronic and thermal Free Energies=         -962.043747
 
                     E (Thermal)             CV                S
                      KCal/Mol        Cal/Mol-Kelvin    Cal/Mol-Kelvin
 Total                   28.063             25.562             88.470
 Electronic               0.000              0.000              0.000
 Translational            0.889              2.981             40.926
 Rotational               0.889              2.981             28.537
 Vibrational             26.286             19.600             19.008
 Vibration     1          0.596              1.976              4.691
 Vibration     2          0.620              1.895              2.592
 Vibration     3          0.626              1.878              2.419
 Vibration     4          0.640              1.834              2.098
 Vibration     5          0.659              1.775              1.783
 Vibration     6          0.681              1.708              1.523
 Vibration     7          0.740              1.541              1.094
 Vibration     8          0.869              1.219              0.624
 Vibration     9          0.905              1.140              0.544
 Vibration    10          0.951              1.046              0.461
 Vibration    11          0.975              0.999              0.423
                       Q            Log10(Q)             Ln(Q)
 Total Bot       0.213800D-01         -1.669993         -3.845301
 Total V=0       0.217985D+16         15.338427         35.318034
 Vib (Bot)       0.769956D-15        -15.113534        -34.800198
 Vib (Bot)    1  0.387767D+01          0.588571          1.355235
 Vib (Bot)    2  0.129356D+01          0.111787          0.257399
 Vib (Bot)    3  0.117429D+01          0.069775          0.160663
 Vib (Bot)    4  0.976661D+00         -0.010256         -0.023616
 Vib (Bot)    5  0.807011D+00         -0.093120         -0.214418
 Vib (Bot)    6  0.681964D+00         -0.166239         -0.382779
 Vib (Bot)    7  0.497623D+00         -0.303100         -0.697913
 Vib (Bot)    8  0.315788D+00         -0.500604         -1.152684
 Vib (Bot)    9  0.285425D+00         -0.544508         -1.253776
 Vib (Bot)   10  0.253444D+00         -0.596119         -1.372614
 Vib (Bot)   11  0.238559D+00         -0.622403         -1.433137
 Vib (V=0)       0.785030D+02          1.894886          4.363137
 Vib (V=0)    1  0.440978D+01          0.644417          1.483824
 Vib (V=0)    2  0.188683D+01          0.275733          0.634898
 Vib (V=0)    3  0.177630D+01          0.249517          0.574535
 Vib (V=0)    4  0.159721D+01          0.203362          0.468258
 Vib (V=0)    5  0.144935D+01          0.161174          0.371116
 Vib (V=0)    6  0.134562D+01          0.128923          0.296855
 Vib (V=0)    7  0.120543D+01          0.081141          0.186834
 Vib (V=0)    8  0.109137D+01          0.037973          0.087437
 Vib (V=0)    9  0.107573D+01          0.031704          0.073001
 Vib (V=0)   10  0.106057D+01          0.025537          0.058802
 Vib (V=0)   11  0.105400D+01          0.022839          0.052588
 Electronic      0.100000D+01          0.000000          0.000000
 Translational   0.721799D+08          7.858416         18.094672
 Rotational      0.384702D+06          5.585125         12.860225
 
                                                    Gaussian input prepared by AS
 E
                                                             IR Spectrum
 
     3                                                                    111  1         1                                           
     2                                                                    444  3         1     9      7 7   65 55     3  2 2211      
     2                                                                    832  6         0     4      8 1   19 51     6  8 4075   5  
     8                                                                    496  1         2     4      2 5   63 04     7  2 3426   3  
 
     X                                                                    XXX  X         X     X      X X   XX XX     X  X XXXX   X  
     X                                                                    XXX  X         X     X      X     X   X                    
     X                                                                    X X  X               X      X     X                        
     X                                                                    X X  X               X            X                        
     X                                                                    X X  X               X            X                        
     X                                                                    X X  X               X            X                        
     X                                                                    X                    X            X                        
     X                                                                    X                    X                                     
     X                                                                    X                    X                                     
     X                                                                    X                    X                                     
     X                                                                    X                    X                                     
     X                                                                    X                    X                                     
     X                                                                    X                    X                                     
     X                                                                    X                    X                                     
     X                                                                    X                    X                                     
     X                                                                                                                               
     X                                                                                                                               
     X                                                                                                                               
     X                                                                                                                               
     X                                                                                                                               
 
 -------------------------------------------------------------------
 Center     Atomic                   Forces (Hartrees/Bohr)
 Number     Number              X              Y              Z
 -------------------------------------------------------------------
      1        6          -0.000003955    0.000003109   -0.000003121
      2        9          -0.000000358   -0.000002085   -0.000000668
      3        9          -0.000000380   -0.000003813   -0.000005560
      4        9          -0.000003472    0.000003199   -0.000007958
      5       16           0.000006346   -0.000003757    0.000001905
      6        8           0.000001307   -0.000003895    0.000000127
      7        8          -0.000001476    0.000004953    0.000004016
      8        8          -0.000000493   -0.000001323    0.000005758
      9        1           0.000002481    0.000003613    0.000005502
 -------------------------------------------------------------------
 Cartesian Forces:  Max     0.000007958 RMS     0.000003720
 Force constants in Cartesian coordinates: 
                1             2             3             4             5 
      1  0.132629D+00
      2  0.669710D-01  0.637065D+00
      3  0.302309D-01 -0.372299D-02  0.712008D+00
      4  0.110354D-01 -0.292533D-01 -0.477847D-02  0.671706D-01
      5 -0.317913D-01 -0.293892D-02  0.264565D-02  0.118861D+00  0.367016D+00
      6 -0.922134D-02  0.448555D-02 -0.119665D-01  0.464155D-01  0.131609D+00
      7 -0.439178D-01 -0.678076D-02 -0.522545D-02 -0.820920D-02  0.120031D-01
      8 -0.164621D-01 -0.285883D+00  0.201588D+00  0.980582D-02 -0.772659D-03
      9  0.825996D-02  0.205656D+00 -0.303970D+00 -0.103871D-01  0.480030D-02
     10 -0.484146D-01 -0.277909D-01 -0.255409D-01 -0.347364D-02  0.987803D-02
     11 -0.311718D-01 -0.241561D+00 -0.193944D+00  0.792166D-02  0.513689D-03
     12 -0.376754D-01 -0.202442D+00 -0.354410D+00  0.121696D-01 -0.583281D-02
     13 -0.382412D-01 -0.108008D-01  0.534971D-02 -0.993895D-02  0.206938D-01
     14 -0.262407D-01 -0.978700D-01 -0.119651D-02  0.169833D-01 -0.293170D-01
     15 -0.540451D-03  0.414482D-02 -0.135657D-01 -0.472494D-02 -0.205834D-01
     16 -0.143282D-01  0.580190D-02 -0.140302D-01 -0.386212D-02 -0.482800D-02
     17 -0.159579D-01  0.765536D-02 -0.619398D-02 -0.641819D-02  0.718231D-02
     18 -0.777793D-02  0.407462D-02 -0.570572D-02 -0.160079D-02  0.224077D-02
     19  0.467000D-02 -0.259964D-02  0.495544D-02  0.146097D-02 -0.230512D-02
     20  0.212053D-02 -0.387414D-02  0.223415D-01 -0.417584D-02  0.420006D-02
     21 -0.499815D-02 -0.651746D-02 -0.195027D-01  0.444278D-02  0.348832D-02
     22 -0.202435D-01 -0.410462D-02  0.682468D-02 -0.921917D-02 -0.557009D-01
     23  0.218267D-01 -0.444836D-02 -0.161388D-01 -0.171913D-01 -0.213880D-01
     24  0.110137D-01 -0.924606D-03 -0.616627D-02 -0.470269D-02  0.297364D-03
     25  0.168110D-01  0.855713D-02  0.221429D-02 -0.449639D-01 -0.668109D-01
     26  0.307055D-01 -0.814424D-02 -0.537879D-02 -0.965334D-01 -0.324495D+00
     27  0.107087D-01 -0.475443D-02  0.327836D-02 -0.368338D-01 -0.118665D+00
                6             7             8             9            10 
      6  0.698755D-01
      7 -0.521551D-02  0.296974D-01
      8  0.601778D-03 -0.219706D-02  0.239031D+00
      9  0.330538D-02  0.136949D-01 -0.225246D+00  0.418066D+00
     10  0.822432D-02  0.126907D-01  0.371054D-02 -0.643958D-02  0.283445D-01
     11 -0.155784D-02  0.348230D-02  0.404262D-01  0.167093D-01  0.171641D-01
     12 -0.124134D-02 -0.545269D-02  0.128348D-02 -0.114401D+00  0.275207D-01
     13  0.828538D-02  0.129933D-01  0.111933D-01 -0.763640D-02  0.194005D-01
[...]
     17 -0.818094D-02 -0.405526D-02  0.396263D-01 -0.903578D-01  0.297360D-01
     18 -0.149894D-02  0.175793D-02 -0.247844D+00  0.375291D-01 -0.235072D+00
     19 -0.217913D-03 -0.367781D-03 -0.924597D-01  0.782046D-03  0.620289D-02
     20 -0.152774D-02 -0.103929D-04  0.886108D-03 -0.115217D+00  0.145072D+00
     21  0.778637D-02  0.873629D-02  0.270726D-02  0.135900D+00 -0.657130D+00
     22  0.499559D-02 -0.541819D-03 -0.377458D+00  0.107947D+00  0.192011D+00
     23 -0.115136D-01 -0.512065D-02  0.134038D+00 -0.139400D+00 -0.897319D-01
     24 -0.210497D-02  0.134387D-02  0.201795D+00 -0.791660D-01 -0.233299D+00
     25 -0.303144D-02  0.152407D-03 -0.336379D-01  0.143129D-01  0.204604D-01
     26 -0.265228D-02  0.151455D-02 -0.269718D-01  0.351317D-01  0.252151D-01
     27 -0.149123D-02 -0.551197D-03 -0.285378D-02  0.129057D-01  0.137675D-01
               16            17            18            19            20 
     16  0.566701D+00
     17 -0.595705D-01  0.563824D-01
     18  0.276243D+00 -0.345107D-01  0.235209D+00
     19  0.528081D-02  0.139365D-01 -0.424094D-01  0.778665D-01
     20 -0.792340D-03  0.193914D-01  0.623147D-02 -0.447133D-02  0.943525D-01
     21  0.100014D-02  0.109750D-01 -0.169397D-01 -0.905157D-02 -0.161017D+00
     22 -0.360960D-01  0.268545D-01  0.238494D-01  0.410727D-02  0.103307D-01
     23  0.441036D-02  0.191469D-01 -0.359452D-02 -0.476080D-02  0.209646D-01
     24 -0.177884D-01  0.437706D-02  0.172473D-01  0.396432D-01 -0.150983D-01
     25  0.482144D-02 -0.446374D-02 -0.134899D-02  0.267167D-02 -0.199602D-02
     26  0.615129D-02 -0.924893D-02 -0.360520D-02  0.339606D-02 -0.510048D-02
     27  0.108016D-02 -0.301580D-02 -0.185834D-02  0.246625D-04 -0.227493D-02
               21            22            23            24            25 
     21  0.707335D+00
     22  0.851159D-02  0.412859D+00
     23  0.107596D-01 -0.136199D+00  0.145518D+00
     24 -0.234352D-01 -0.221361D+00  0.110607D+00  0.248364D+00
     25 -0.556014D-02  0.235750D-01  0.664723D-02 -0.580010D-02  0.394405D-01
     26 -0.497072D-02  0.409111D-01 -0.477976D-02 -0.105084D-01  0.484054D-01
     27 -0.414534D-02  0.133449D-01  0.216402D-03 -0.148215D-01  0.164365D-01
               26            27 
     26  0.321478D+00
     27  0.116038D+00  0.679271D-01
 Red2BG is reusing G-inverse.
 Force constants in internal coordinates: 
                1             2             3             4             5 
      1  0.569944D+00
      2  0.852354D-01  0.579333D+00
      3 -0.758031D-02 -0.972695D-02  0.926713D-01
      4 -0.122460D-02 -0.682680D-03 -0.745486D-02  0.457036D+00
      5  0.853260D-02  0.449207D-02  0.138650D-01  0.459169D-02  0.729865D+00
      6  0.293729D-02  0.114362D-01  0.743547D-02  0.446623D-02  0.842595D-02
      7  0.214120D-01  0.177513D-01  0.113493D-01 -0.171797D-01  0.132982D-01
      8  0.745205D-02  0.594998D-02 -0.119813D-01  0.791633D-01 -0.830446D-03
      9  0.475946D-01  0.487552D-01  0.143957D-01 -0.804165D-02 -0.792692D-02
     10 -0.103343D-01 -0.369821D-01 -0.902322D-02  0.493953D-02  0.169605D-03
     11 -0.376247D-01 -0.121951D-01 -0.781704D-02  0.608309D-02  0.816000D-02
     12 -0.199972D-01 -0.780370D-02 -0.894031D-02 -0.972885D-02  0.242749D-01
     13  0.123884D-01 -0.154341D-01  0.136618D-01 -0.713492D-03 -0.896952D-02
     14  0.424533D-01  0.580749D-01  0.422501D-01 -0.165992D-02 -0.170220D-01
     15  0.886454D-03 -0.116513D-02 -0.375130D-02 -0.251115D-02  0.722522D-02
     16 -0.931906D-02 -0.814678D-02 -0.972511D-02  0.756929D-02  0.749739D-02
     17 -0.871767D-02 -0.746046D-02 -0.980963D-02  0.113109D-02 -0.139997D-01
     18  0.596784D-01  0.599983D-01 -0.799759D-02  0.484457D-01  0.408181D-02
     19  0.276504D-01  0.272222D-01 -0.179558D-01  0.457899D-01  0.411524D-02
     20  0.786906D-03  0.767482D-02 -0.280283D-02  0.793463D-02 -0.119728D-02
     21 -0.769275D-03 -0.340168D-04 -0.564791D-02  0.225155D-02  0.110671D-01
     22  0.528620D-02  0.441734D-02 -0.459820D-03  0.278322D-02 -0.107599D-01
     23 -0.549184D-02  0.156571D-02  0.524352D-02 -0.342405D-02 -0.159800D-02
     24 -0.704802D-02 -0.614313D-02  0.239844D-02 -0.910714D-02  0.106664D-01
     25 -0.992549D-03 -0.169177D-02  0.758653D-02 -0.857547D-02 -0.111606D-01
     26 -0.230396D-01 -0.490150D-02 -0.128711D-01 -0.760579D-02  0.148128D-01
     27 -0.208385D-01 -0.255629D-01 -0.231547D-01  0.248839D-02 -0.573563D-02
     28  0.128966D-01  0.802746D-02  0.241083D-01 -0.904677D-02 -0.931889D-02
     29  0.383456D-03 -0.130721D-03 -0.319879D-02  0.545184D-03  0.111865D-02
                6             7             8             9            10 
      6  0.747027D+00
      7  0.144191D-01  0.678722D+00
      8 -0.739048D-03  0.126383D-01  0.327307D-01
      9 -0.706674D-02 -0.501688D-02  0.216264D-02  0.196506D+00
     10  0.843494D-02 -0.717401D-03 -0.945682D-03 -0.101392D+00  0.103244D+00
     11 -0.839311D-03  0.330843D-02 -0.210088D-02 -0.102131D+00  0.306347D-02
     12 -0.113596D-01 -0.334303D-01  0.254060D-01 -0.116964D-01  0.376704D-02
     13  0.174626D-01 -0.254974D-01  0.123980D-01 -0.824267D-02  0.226325D-01
     14 -0.888335D-02  0.892958D-01 -0.398599D-01  0.117013D-01 -0.277469D-01
     15  0.705209D-02 -0.118448D-01  0.590540D-03  0.268848D-02 -0.133554D-02
     16 -0.143422D-01 -0.120335D-02  0.141302D-02  0.111268D-02 -0.384276D-03
     17  0.830920D-02 -0.852679D-03 -0.159826D-02  0.582237D-03  0.188577D-02
     18  0.101595D-01  0.117790D+00 -0.165783D-01  0.194727D-01 -0.167144D-01
     19  0.779541D-02  0.192263D-01  0.237278D-01  0.491634D-02 -0.585821D-02
     20 -0.883103D-02  0.100264D-01 -0.768391D-02  0.225722D-02 -0.126082D-02
     21  0.321774D-05 -0.191507D-01  0.375137D-02 -0.585619D-03  0.459555D-02
     22  0.108103D-01 -0.163544D-02 -0.587501D-02  0.114846D-02  0.472068D-02
     23 -0.994659D-02  0.211677D-01 -0.428138D-02  0.175995D-04 -0.583041D-02
     24 -0.111234D-02 -0.800941D-02  0.715390D-02 -0.282524D-02  0.259609D-04
     25  0.969470D-02  0.950588D-02 -0.247249D-02 -0.109116D-02  0.151091D-03
     26 -0.151444D-01 -0.130432D-01  0.824800D-02 -0.597532D-02 -0.211735D-02
     27  0.653799D-02 -0.231689D-01  0.493753D-03  0.768295D-03  0.883472D-02
     28  0.246330D-02  0.787542D-02 -0.486666D-03 -0.871311D-02  0.890153D-02
     29 -0.161817D-02  0.336709D-02 -0.211733D-03 -0.145688D-02  0.209364D-02
               11            12            13            14            15 
     11  0.103431D+00
     12  0.116494D-01  0.108429D+00
     13 -0.133104D-01  0.336229D-02  0.123124D+00
     14  0.565455D-02 -0.628923D-01 -0.583232D-01  0.330347D+00
     15 -0.208991D-02 -0.193648D-01 -0.151001D-01  0.203065D-01  0.690607D-01
     16  0.874093D-03 -0.197276D-01  0.980517D-02 -0.639732D-01 -0.311124D-01
     17 -0.645805D-03  0.132329D-01 -0.304481D-01 -0.576748D-01 -0.309209D-01
     18 -0.175183D-01 -0.751174D-02 -0.176735D-01  0.150153D+00  0.786353D-02
     19 -0.417994D-02  0.906480D-02  0.109020D-01  0.124214D-01  0.572279D-03
     20  0.323472D-02  0.457824D-02 -0.124312D-01 -0.134211D-01 -0.327094D-01
     21  0.829963D-03  0.169028D-01  0.617620D-02 -0.263675D-01  0.300919D-01
     22 -0.175698D-02  0.139756D-01 -0.978098D-02 -0.927652D-02 -0.593438D-03
     23  0.157286D-02 -0.931146D-02 -0.157538D-01  0.289204D-01 -0.300166D-01
     24 -0.831892D-03  0.301309D-02  0.285360D-02  0.159740D-01  0.327847D-01
     25 -0.341884D-02  0.858940D-04 -0.131036D-01  0.330650D-01  0.209938D-02
     26  0.125602D-01  0.556027D-01 -0.555709D-01 -0.247713D-01 -0.217682D-02
     27 -0.414646D-02 -0.293730D-01 -0.301072D-01 -0.116406D+00  0.171451D-01
     28  0.157816D-03  0.276244D-01  0.451506D-01  0.784994D-01 -0.171298D-01
     29  0.210184D-03  0.103742D-01 -0.109882D-01  0.319127D-02 -0.826850D-04
               16            17            18            19            20 
     16  0.915760D-01
     17 -0.229926D-01  0.908710D-01
     18 -0.389168D-01 -0.302822D-01  0.276387D+00
     19 -0.547117D-02 -0.114061D-01  0.588534D-01  0.895578D-01
     20  0.363431D-01  0.746090D-02 -0.250226D-01 -0.145022D-01  0.360958D-01
     21  0.533160D-03 -0.294426D-01 -0.237662D-01 -0.827986D-02 -0.321530D-03
     22 -0.389923D-01  0.416237D-01 -0.179396D-01 -0.138808D-01  0.458991D-03
     23  0.293512D-01 -0.386852D-03  0.345502D-01  0.647467D-02  0.177485D-01
     24 -0.645878D-02 -0.372903D-01  0.358067D-01  0.126970D-01 -0.186689D-01
     25 -0.459843D-01  0.337759D-01  0.416333D-01  0.709606D-02 -0.178884D-01
     26 -0.399146D-02  0.185171D-01 -0.143794D-01 -0.126366D-01  0.210394D-01
     27  0.295824D-01  0.409126D-01 -0.776535D-01 -0.284067D-01  0.135627D-01
     28 -0.356441D-01 -0.231202D-01  0.416189D-01  0.373864D-02  0.117764D-02
     29 -0.567364D-02  0.448578D-02  0.111850D-01 -0.211064D-02  0.537336D-02
               21            22            23            24            25 
     21  0.379357D-01
     22  0.126849D-02  0.397369D-01
     23 -0.208113D-01 -0.172257D-01  0.357882D-01
     24  0.174460D-01 -0.164162D-01 -0.277156D-02  0.333433D-01
     25 -0.192213D-01  0.220522D-01  0.813995D-03 -0.518904D-03  0.407546D-01
     26  0.199227D-01  0.177616D-01  0.305317D-02  0.193642D-02 -0.224702D-03
     27  0.147878D-01  0.170361D-01 -0.979003D-02 -0.856489D-02 -0.631658D-02
     28  0.354851D-02  0.132533D-01  0.110850D-02  0.347937D-02  0.131842D-01
     29  0.533631D-02  0.804854D-02  0.200619D-02  0.196914D-02  0.468137D-02
               26            27            28            29 
     26  0.747578D-01
     27  0.254793D-01  0.115123D+00
     28  0.166538D-02 -0.636385D-01  0.918590D-01
     29  0.218982D-01  0.972629D-02  0.122795D-01  0.199681D-01
 Leave Link  716 at Sun May 25 05:42:13 2025, MaxMem=  3758096384 cpu:               0.1 elap:               0.0
 (Enter /apps/easybuild-2022/easybuild/software/Compiler/NVHPC/22.11-CUDA-11.7.0/Gaussian/g16c01-CUDA-11.7.0/g16/l9999.exe)

 ----------------------------------------------------------------------

 Electric dipole moment (input orientation):
 (Debye = 10**-18 statcoulomb cm , SI units = C m)
                  (au)            (Debye)         (10**-30 SI)
   Tot        0.141750D+01      0.360294D+01      0.120181D+02
   x         -0.325020D+00     -0.826119D+00     -0.275564D+01
   y         -0.137906D+01     -0.350521D+01     -0.116921D+02
   z          0.434053D-01      0.110325D+00      0.368006D+00

 Dipole polarizability, Alpha (input orientation).
 (esu units = cm**3 , SI units = C**2 m**2 J**-1)
 Alpha(0;0):
               (au)            (10**-24 esu)      (10**-40 SI)
   iso        0.444041D+02      0.658000D+01      0.732124D+01
   aniso      0.590741D+01      0.875387D+00      0.974000D+00
   xx         0.460349D+02      0.682166D+01      0.759012D+01
   yx         0.253425D+01      0.375537D+00      0.417841D+00
   yy         0.452399D+02      0.670385D+01      0.745904D+01
   zx         0.496861D+00      0.736271D-01      0.819212D-01
   zy         0.492081D+00      0.729189D-01      0.811332D-01
   zz         0.419375D+02      0.621449D+01      0.691456D+01

 ----------------------------------------------------------------------

 Dipole orientation:
     6          2.78124340         -0.78731558         -0.84714591
     9         -1.04523112          0.44067500         -0.81909929
     9          3.57723862          0.92721561          0.59256569
     9          2.44740735         -2.84203630          0.28730410
    16          2.95104862         -0.50450322         -4.50989889
     8          5.52351775          0.24869341         -4.69849353
     8          2.23807808         -2.99541362         -5.19881733
     8          1.07502448          1.45613234         -4.83538803
     1         -0.81858356          1.08494706         -2.50554578

 Electric dipole moment (dipole orientation):
 (Debye = 10**-18 statcoulomb cm , SI units = C m)
                  (au)            (Debye)         (10**-30 SI)
   Tot        0.141750D+01      0.360294D+01      0.120181D+02
   x          0.000000D+00      0.000000D+00      0.000000D+00
   y          0.000000D+00      0.000000D+00      0.000000D+00
   z          0.141750D+01      0.360294D+01      0.120181D+02

 Dipole polarizability, Alpha (dipole orientation).
 (esu units = cm**3 , SI units = C**2 m**2 J**-1)
 Alpha(0;0):
               (au)            (10**-24 esu)      (10**-40 SI)
   iso        0.444041D+02      0.658000D+01      0.732124D+01
   aniso      0.590741D+01      0.875387D+00      0.974000D+00
   xx         0.449085D+02      0.665475D+01      0.740441D+01
   yx        -0.245254D+00     -0.363430D-01     -0.404370D-01
   yy         0.419308D+02      0.621350D+01      0.691345D+01
   zx        -0.253486D+01     -0.375627D+00     -0.417942D+00
   zy        -0.151363D+00     -0.224296D-01     -0.249563D-01
   zz         0.463729D+02      0.687175D+01      0.764586D+01

 ----------------------------------------------------------------------
 Unable to Open any file for archive entry.
 1\1\GINC-SPARTAN-BM177\Freq\RM062X\def2TZVPP\C1H1F3O3S1\AKHALILOV\25-M
 ay-2025\0\\#P M062X/Def2TZVPP Symm(None) scf(xqc) pop(None) opt(NoFree
 ze,TS,CalcAll,NoEigentest,MaxCycle=999)\\Gaussian input prepared by AS
 E\\0,1\C,1.589658,0.083565,-0.081593\F,-0.475985,0.560446,0.086774\F,1
 .618328,-0.674739,0.921\F,1.519704,-0.551001,-1.161536\S,2.08696,1.962
 006,0.025258\O,3.315424,1.796993,0.722097\O,2.09781,2.290736,-1.354794
 \O,0.959781,2.429146,0.801738\H,-0.231334,1.430541,0.418634\\Version=E
 S64L-G16RevC.01\HF=-962.0473777\RMSD=7.383e-09\RMSF=3.720e-06\ZeroPoin
 t=0.0369774\Thermal=0.0447216\ETot=-962.0026561\HTot=-962.0017119\GTot
 =-962.043747\Dipole=-0.3250201,-1.3790558,0.0434053\DipoleDeriv=0.9854
 6,-0.0716912,0.0246501,-0.161956,1.3250509,0.0376296,0.0288634,0.01225
 49,1.6956339,-1.0270568,-0.0799519,0.0210461,-0.1211055,-0.5867809,-0.
 0559333,-0.0213853,-0.0854427,-0.331948,-0.06723,-0.028717,-0.0006926,
 -0.0104279,-0.7654295,0.4722322,-0.091472,0.3839463,-0.6236568,-0.0336
 344,-0.0513209,-0.0553918,-0.049569,-0.6518683,-0.4914624,0.0426955,-0
 .3753282,-0.7470359,2.2075021,-0.0132091,-0.0449848,0.046421,2.0516897
 ,-0.0821675,-0.1352467,-0.1525784,2.186674,-1.0355375,-0.0714613,-0.22
 71574,-0.0112341,-0.5996429,0.0407466,-0.2639899,-0.0171143,-0.6910848
 ,-0.5722944,-0.0103027,0.0059248,-0.0374578,-0.6337131,0.1362611,0.093
 9121,0.2977505,-1.0759238,-1.1638548,0.1174577,0.2700147,0.0279047,-0.
 7726785,-0.1156757,0.2503614,-0.165807,-0.7409904,0.7066459,0.2091964,
 0.006591,0.3174245,0.6333726,0.0583696,0.0962615,0.1023189,0.3283318\P
 olar=46.034865,2.534248,45.2398539,0.4968606,0.492081,41.9374782\PG=Un
 known\NImag=1\\0.13262877,0.06697099,0.63706481,0.03023089,-0.00372299
 ,0.71200794,0.01103540,-0.02925330,-0.00477847,0.06717058,-0.03179132,
 -0.00293892,0.00264565,0.11886130,0.36701554,-0.00922134,0.00448555,-0
 .01196653,0.04641550,0.13160917,0.06987555,-0.04391777,-0.00678076,-0.
 00522545,-0.00820920,0.01200309,-0.00521551,0.02969740,-0.01646206,-0.
 28588322,0.20158845,0.00980582,-0.00077266,0.00060178,-0.00219706,0.23
 903116,0.00825996,0.20565619,-0.30396982,-0.01038713,0.00480030,0.0033
 0538,0.01369492,-0.22524601,0.41806624,-0.04841462,-0.02779088,-0.0255
 4093,-0.00347364,0.00987803,0.00822432,0.01269073,0.00371054,-0.006439
 58,0.02834453,-0.03117178,-0.24156127,-0.19394448,0.00792166,0.0005136
 9,-0.00155784,0.00348230,0.04042621,0.01670927,0.01716406,0.19134283,-
 0.03767542,-0.20244169,-0.35440964,0.01216956,-0.00583281,-0.00124134,
 -0.00545269,0.00128348,-0.11440132,0.02752073,0.20039699,0.47520115,-0
 .03824117,-0.01080082,0.00534971,-0.00993895,0.02069382,0.00828538,0.0
 1299326,0.01119326,-0.00763640,0.01940053,0.00997596,0.00644597,1.0398
 9683,-0.02624066,-0.09787001,-0.00119651,0.01698332,-0.02931703,-0.011
 99413,-0.00037082,0.02864734,-0.00720644,0.00164489,0.03315314,0.01426
 579,-0.17864055,0.37522986,-0.00054045,0.00414482,-0.01356567,-0.00472
 494,-0.02058344,-0.01020623,0.00217001,0.03148024,-0.01038111,-0.00286
 562,-0.02429516,-0.01643573,0.03375100,-0.10103738,1.16232249,-0.01432
 816,0.00580190,-0.01403016,-0.00386212,-0.00482800,-0.00092803,0.00029
 673,-0.00563636,0.00313837,-0.00225969,-0.00911845,-0.00225096,-0.5205
 5443,0.06358207,-0.24646432,0.56670144,-0.01595788,0.00765536,-0.00619
 398,-0.00641819,0.00718231,0.00300300,0.00236423,-0.00197061,-0.000315
 35,0.00362883,-0.00818094,-0.00405526,0.03962629,-0.09035782,0.0297360
 4,-0.05957047,0.05638241,-0.00777793,0.00407462,-0.00570572,-0.0016007
 9,0.00224077,0.00163156,0.00070182,-0.00686662,0.00373007,0.00018673,-
 0.00149894,0.00175793,-0.24784402,0.03752913,-0.23507238,0.27624323,-0
 .03451070,0.23520923,0.00467000,-0.00259964,0.00495544,0.00146097,-0.0
 0230512,-0.00061257,-0.00139086,-0.00375978,0.00161509,-0.00220658,-0.
 00021791,-0.00036778,-0.09245973,0.00078205,0.00620289,0.00528081,0.01
 393649,-0.04240940,0.07786645,0.00212053,-0.00387414,0.02234147,-0.004
 17584,0.00420006,0.00159106,-0.00156604,-0.01318899,0.00316463,-0.0003
 3582,-0.00152774,-0.00001039,0.00088611,-0.11521720,0.14507174,-0.0007
 9234,0.01939136,0.00623147,-0.00447133,0.09435255,-0.00499815,-0.00651
 746,-0.01950266,0.00444278,0.00348832,0.00310660,0.00181884,0.00359582
 ,0.00197516,0.00112924,0.00778637,0.00873629,0.00270726,0.13589986,-0.
 65712970,0.00100014,0.01097501,-0.01693966,-0.00905157,-0.16101677,0.7
 0733450,-0.02024347,-0.00410462,0.00682468,-0.00921917,-0.05570089,-0.
 02146046,0.00165687,0.00496618,-0.00117816,0.00081937,0.00499559,-0.00
 054182,-0.37745838,0.10794683,0.19201100,-0.03609602,0.02685445,0.0238
 4935,0.00410727,0.01033075,0.00851159,0.41285853,0.02182672,-0.0044483
 6,-0.01613884,-0.01719133,-0.02138799,-0.01021290,-0.00371802,-0.00410
 012,0.00321600,-0.00505250,-0.01151363,-0.00512065,0.13403771,-0.13940
 001,-0.08973193,0.00441036,0.01914687,-0.00359452,-0.00476080,0.020964
 59,0.01075959,-0.13619936,0.14551842,0.01101373,-0.00092461,-0.0061662
 7,-0.00470269,0.00029736,0.00706157,-0.00148026,-0.00747898,0.00370535
 ,-0.00131930,-0.00210497,0.00134387,0.20179489,-0.07916600,-0.23329913
 ,-0.01778844,0.00437706,0.01724729,0.03964324,-0.01509828,-0.02343520,
 -0.22136106,0.11060686,0.24836399,0.01681101,0.00855713,0.00221429,-0.
 04496386,-0.06681092,-0.02548729,-0.00381718,-0.00162054,-0.00106706,-
 0.00490062,-0.00303144,0.00015241,-0.03363794,0.01431287,0.02046042,0.
 00482144,-0.00446374,-0.00134899,0.00267167,-0.00199602,-0.00556014,0.
 02357500,0.00664723,-0.00580010,0.03944049,0.03070545,-0.00814424,-0.0
 0537879,-0.09653343,-0.32449500,-0.11752569,-0.00321692,-0.00218909,-0
 .00077859,-0.00284715,-0.00265228,0.00151455,-0.02697178,0.03513174,0.
 02521507,0.00615129,-0.00924893,-0.00360520,0.00339606,-0.00510048,-0.
 00497072,0.04091106,-0.00477976,-0.01050844,0.04840543,0.32147805,0.01
 070871,-0.00475443,0.00327836,-0.03683382,-0.11866534,-0.06156656,-0.0
 0101167,0.00104185,-0.00202996,-0.00089558,-0.00149123,-0.00055120,-0.
 00285378,0.01290567,0.01376745,0.00108016,-0.00301580,-0.00185834,0.00
 002466,-0.00227493,-0.00414534,0.01334488,0.00021640,-0.01482147,0.016
 43645,0.11603782,0.06792706\\0.00000395,-0.00000311,0.00000312,0.00000
 036,0.00000209,0.00000067,0.00000038,0.00000381,0.00000556,0.00000347,
 -0.00000320,0.00000796,-0.00000635,0.00000376,-0.00000190,-0.00000131,
 0.00000389,-0.00000013,0.00000148,-0.00000495,-0.00000402,0.00000049,0
 .00000132,-0.00000576,-0.00000248,-0.00000361,-0.00000550\\\@
 The archive entry for this job was punched.


 FORGIVE MY NONSENSE AS I ALSO FORGIVE THOSE WHO THINK THEY TALK SENSE

                                                       -- ROBERT FROST
 Job cpu time:       0 days  0 hours 14 minutes 46.3 seconds.
 Elapsed time:       0 days  0 hours  1 minutes 59.5 seconds.
 File lengths (MBytes):  RWF=     76 Int=      0 D2E=      0 Chk=      6 Scr=      1
 Normal termination of Gaussian 16 at Sun May 25 05:42:13 2025.
done
