9
energy = -961.8849492500001
C 0.04239800 0.01335100 -0.01191300
F -0.23397600 0.58108100 -1.20565800
F -0.56393200 0.74957700 0.90873000
F -0.46372900 -1.20647200 -0.01039700
S 2.08147300 -0.08596900 -0.00332300
O 1.87021100 -0.38493000 1.46736400
O 3.47572200 -0.34684500 0.62535000
O 2.21439700 1.50177700 -0.17045600
H 1.47477300 1.86104100 -0.67992700
9
energy = -961.8871286200001
C -0.10768400 -0.09350900 -0.05428900
F -0.42861900 0.44987200 -1.22614500
F -0.81001900 0.51087400 0.88849800
F -0.42665300 -1.38066900 -0.09204500
S 1.88787100 0.06783700 0.06711700
O 1.72283300 -0.49559600 1.46816800
O 3.31617600 -0.06441800 0.71372400
O 1.70318500 1.65644400 0.13071100
H 2.49949000 2.04961900 0.51189900
9
energy = -961.8871222400002
C 0.01331200 0.01316400 -0.00129500
F -0.31806500 0.53196000 -1.18133100
F -0.56236700 0.73505700 0.94464900
F -0.44271300 -1.23164100 0.04780400
S 2.01866400 -0.03738500 0.00261400
O 1.87808600 -0.51666300 1.43731800
O 3.46062200 -0.29359300 0.57722400
O 2.00609900 1.56312400 -0.00486800
H 2.86114900 1.88501800 0.31015600
