9
energy = -962.0853522890002
C 0.06356000 0.04397900 0.00077200
F -0.28756700 0.74894400 -1.06636000
F -0.40952300 0.62999000 1.08332400
F -0.42935500 -1.17530400 -0.09695700
S 1.89893300 -0.06009100 0.08117800
O 2.23107000 -0.60779800 1.33878600
O 2.33197300 -0.60300500 -1.15597900
O 2.23846200 1.47485700 0.12243800
H 2.38545200 1.80751600 -0.77477800
9
energy = -962.08539825
C -0.06931100 -0.06027800 0.06302100
F -0.57094200 0.61858800 -0.95996300
F -0.54418400 0.43634600 1.18859500
F -0.41099600 -1.32966700 -0.04255500
S 1.76608300 0.06696800 0.03232600
O 2.24169700 -0.46415800 1.25031300
O 2.18560400 -0.38698800 -1.24489700
O 1.91263500 1.63114800 0.10174900
H 1.95992800 2.00087500 -0.79171300
9
energy = -962.0853722810001
C 0.00007100 0.00003700 -0.00027200
F -0.45782100 0.57957400 -1.09273900
F -0.43654800 0.66331300 1.06195400
F -0.42664000 -1.24666200 0.05459100
S 1.84015600 0.00016200 -0.00054400
O 2.24912400 -0.54284700 1.24488300
O 2.25665600 -0.50240600 -1.25182200
O 2.09323200 1.55224100 0.00109800
H 2.18361500 1.87354600 0.90983700
