 Entering Gaussian System, Link 0=g16
 Initial command:
 /apps/easybuild-2022/easybuild/software/Compiler/NVHPC/22.11-CUDA-11.7.0/Gaussian/g16c01-CUDA-11.7.0/g16/l1.exe "/tmp/Gau-143008.inp" -scrdir="/tmp/"
 Entering Link 1 = /apps/easybuild-2022/easybuild/software/Compiler/NVHPC/22.11-CUDA-11.7.0/Gaussian/g16c01-CUDA-11.7.0/g16/l1.exe PID=    143009.
  
 Copyright (c) 1988-2019, Gaussian, Inc.  All Rights Reserved.
  
 This is part of the Gaussian(R) 16 program.  It is based on
 the Gaussian(R) 09 system (copyright 2009, Gaussian, Inc.),
 the Gaussian(R) 03 system (copyright 2003, Gaussian, Inc.),
 the Gaussian(R) 98 system (copyright 1998, Gaussian, Inc.),
 the Gaussian(R) 94 system (copyright 1995, Gaussian, Inc.),
 the Gaussian 92(TM) system (copyright 1992, Gaussian, Inc.),
 the Gaussian 90(TM) system (copyright 1990, Gaussian, Inc.),
 the Gaussian 88(TM) system (copyright 1988, Gaussian, Inc.),
 the Gaussian 86(TM) system (copyright 1986, Carnegie Mellon
 University), and the Gaussian 82(TM) system (copyright 1983,
 Carnegie Mellon University). Gaussian is a federally registered
 trademark of Gaussian, Inc.
  
 This software contains proprietary and confidential information,
 including trade secrets, belonging to Gaussian, Inc.
  
 This software is provided under written license and may be
 used, copied, transmitted, or stored only in accord with that
 written license.
  
 The following legend is applicable only to US Government
 contracts under FAR:
  
                    RESTRICTED RIGHTS LEGEND
  
 Use, reproduction and disclosure by the US Government is
 subject to restrictions as set forth in subparagraphs (a)
 and (c) of the Commercial Computer Software - Restricted
 Rights clause in FAR 52.227-19.
  
 Gaussian, Inc.
 340 Quinnipiac St., Bldg. 40, Wallingford CT 06492
  
  
 ---------------------------------------------------------------
 Warning -- This program may not be used in any manner that
 competes with the business of Gaussian, Inc. or will provide
 assistance to any competitor of Gaussian, Inc.  The licensee
 of this program is prohibited from giving any competitor of
 Gaussian, Inc. access to this program.  By using this program,
 the user acknowledges that Gaussian, Inc. is engaged in the
 business of creating and licensing software in the field of
 computational chemistry and represents and warrants to the
 licensee that it is not a competitor of Gaussian, Inc. and that
 it will not use this program in any manner prohibited above.
 ---------------------------------------------------------------
  

 Cite this work as:
 Gaussian 16, Revision C.01,
 M. J. Frisch, G. W. Trucks, H. B. Schlegel, G. E. Scuseria, 
 M. A. Robb, J. R. Cheeseman, G. Scalmani, V. Barone, 
 G. A. Petersson, H. Nakatsuji, X. Li, M. Caricato, A. V. Marenich, 
 J. Bloino, B. G. Janesko, R. Gomperts, B. Mennucci, H. P. Hratchian, 
 J. V. Ortiz, A. F. Izmaylov, J. L. Sonnenberg, D. Williams-Young, 
 F. Ding, F. Lipparini, F. Egidi, J. Goings, B. Peng, A. Petrone, 
 T. Henderson, D. Ranasinghe, V. G. Zakrzewski, J. Gao, N. Rega, 
 G. Zheng, W. Liang, M. Hada, M. Ehara, K. Toyota, R. Fukuda, 
 J. Hasegawa, M. Ishida, T. Nakajima, Y. Honda, O. Kitao, H. Nakai, 
 T. Vreven, K. Throssell, J. A. Montgomery, Jr., J. E. Peralta, 
 F. Ogliaro, M. J. Bearpark, J. J. Heyd, E. N. Brothers, K. N. Kudin, 
 V. N. Staroverov, T. A. Keith, R. Kobayashi, J. Normand, 
 K. Raghavachari, A. P. Rendell, J. C. Burant, S. S. Iyengar, 
 J. Tomasi, M. Cossi, J. M. Millam, M. Klene, C. Adamo, R. Cammi, 
 J. W. Ochterski, R. L. Martin, K. Morokuma, O. Farkas, 
 J. B. Foresman, and D. J. Fox, Gaussian, Inc., Wallingford CT, 2019.
 
 ******************************************
 Gaussian 16:  ES64L-G16RevC.01  3-Jul-2019
                25-May-2025 
 ******************************************
 %mem=28GB
 %nprocshared=8
 Will use up to    8 processors via shared memory.
 ----------------------------------------------------------------------
 #P M062X/Def2TZVPP Symm(None) scf(xqc) pop(None) opt(NoFreeze,TS,CalcA
 ll,NoEigentest,MaxCycle=999)
 ----------------------------------------------------------------------
 1/5=1,6=999,10=4,11=1,18=20,26=3,29=2000,38=1/1,3;
 2/9=110,12=2,15=3,17=6,18=5,40=1/2;
 3/5=44,7=202,11=2,25=1,30=1,71=2,74=-55,140=1/1,2,3;
 4//1;
 5/5=2,8=3,13=1,38=5/2,8;
 8/6=4,10=90,11=11/1;
 11/6=1,8=1,9=11,15=111,16=1,31=1/1,2,10;
 10/6=1,31=1/2;
 7/10=1,25=1,30=1/1,2,3,16;
 1/5=1,6=999,10=4,11=1,18=20,26=3/3(3);
 2/9=110,15=3/2;
 7/8=1,9=1,25=1,30=1,44=-1/16;
 99//99;
 2/9=110,15=3/2;
 3/5=44,7=202,11=2,25=1,30=1,71=2,74=-55,140=1/1,2,3;
 4/5=5,16=3,69=1/1;
 5/5=2,8=3,13=1,38=5/2,8;
 8/6=4,10=90,11=11/1;
 11/6=1,8=1,9=11,15=111,16=1,31=1/1,2,10;
 10/6=1,31=1/2;
 7/10=1,25=1,30=1/1,2,3,16;
 1/5=1,6=999,10=4,11=1,18=20,26=3/3(-8);
 2/9=110,15=3/2;
 7/8=1,9=1,25=1,30=1,44=-1/16;
 99//99;
 Leave Link    1 at Sun May 25 05:40:17 2025, MaxMem=  3758096384 cpu:               0.0 elap:               0.0
 (Enter /apps/easybuild-2022/easybuild/software/Compiler/NVHPC/22.11-CUDA-11.7.0/Gaussian/g16c01-CUDA-11.7.0/g16/l101.exe)
 ------------------------------
 Gaussian input prepared by ASE
 ------------------------------
 Symbolic Z-matrix:
 Charge =  0 Multiplicity = 1
 C                     1.64852   0.10249  -0.11057 
 F                    -0.41056   0.53073   0.20478 
 F                     1.65333  -0.68541   0.86935 
 F                     1.38356  -0.51446  -1.17029 
 S                     2.14468   1.98072   0.00488 
 O                     3.31267   1.84781   0.80493 
 O                     2.26841   2.2843   -1.37543 
 O                     0.90252   2.33218   0.65696 
 H                    -0.42278   1.44934   0.49297 
 
 Add virtual bond connecting atoms H9         and O8         Dist= 3.03D+00.
 ITRead=  0  0  0  0  0  0  0  0  0
 MicOpt= -1 -1 -1 -1 -1 -1 -1 -1 -1
 NAtoms=      9 NQM=        9 NQMF=       0 NMMI=      0 NMMIF=      0
                NMic=       0 NMicF=      0.
                    Isotopes and Nuclear Properties:
 (Nuclear quadrupole moments (NQMom) in fm**2, nuclear magnetic moments (NMagM)
  in nuclear magnetons)

  Atom         1           2           3           4           5           6           7           8           9
 IAtWgt=          12          19          19          19          32          16          16          16           1
 AtmWgt=  12.0000000  18.9984032  18.9984032  18.9984032  31.9720718  15.9949146  15.9949146  15.9949146   1.0078250
 NucSpn=           0           1           1           1           0           0           0           0           1
 AtZEff=  -0.0000000  -0.0000000  -0.0000000  -0.0000000  -0.0000000  -0.0000000  -0.0000000  -0.0000000  -0.0000000
 NQMom=    0.0000000   0.0000000   0.0000000   0.0000000   0.0000000   0.0000000   0.0000000   0.0000000   0.0000000
 NMagM=    0.0000000   2.6288670   2.6288670   2.6288670   0.0000000   0.0000000   0.0000000   0.0000000   2.7928460
 AtZNuc=   6.0000000   9.0000000   9.0000000   9.0000000  16.0000000   8.0000000   8.0000000   8.0000000   1.0000000
 Leave Link  101 at Sun May 25 05:40:17 2025, MaxMem=  3758096384 cpu:               0.2 elap:               0.2
 (Enter /apps/easybuild-2022/easybuild/software/Compiler/NVHPC/22.11-CUDA-11.7.0/Gaussian/g16c01-CUDA-11.7.0/g16/l103.exe)

 GradGradGradGradGradGradGradGradGradGradGradGradGradGradGradGradGradGrad
 Berny optimization.
 Initialization pass.
                           ----------------------------
                           !    Initial Parameters    !
                           ! (Angstroms and Degrees)  !
 --------------------------                            --------------------------
 ! Name  Definition              Value          Derivative Info.                !
 --------------------------------------------------------------------------------
 ! R1    R(1,3)                  1.2574         calculate D2E/DX2 analytically  !
 ! R2    R(1,4)                  1.2545         calculate D2E/DX2 analytically  !
 ! R3    R(1,5)                  1.9461         calculate D2E/DX2 analytically  !
 ! R4    R(2,9)                  0.9628         calculate D2E/DX2 analytically  !
 ! R5    R(5,6)                  1.4219         calculate D2E/DX2 analytically  !
 ! R6    R(5,7)                  1.4187         calculate D2E/DX2 analytically  !
 ! R7    R(5,8)                  1.4463         calculate D2E/DX2 analytically  !
 ! R8    R(8,9)                  1.6009         calculate D2E/DX2 analytically  !
 ! A1    A(3,1,4)              110.5458         calculate D2E/DX2 analytically  !
 ! A2    A(3,1,5)              123.887          calculate D2E/DX2 analytically  !
 ! A3    A(4,1,5)              125.3515         calculate D2E/DX2 analytically  !
 ! A4    A(1,5,6)               98.7769         calculate D2E/DX2 analytically  !
 ! A5    A(1,5,7)               99.8481         calculate D2E/DX2 analytically  !
 ! A6    A(1,5,8)               92.4248         calculate D2E/DX2 analytically  !
 ! A7    A(6,5,7)              119.7209         calculate D2E/DX2 analytically  !
 ! A8    A(6,5,8)              118.3281         calculate D2E/DX2 analytically  !
 ! A9    A(7,5,8)              117.4886         calculate D2E/DX2 analytically  !
 ! A10   A(5,8,9)              122.0623         calculate D2E/DX2 analytically  !
 ! A11   A(2,9,8)              123.1138         calculate D2E/DX2 analytically  !
 ! D1    D(3,1,5,6)             44.4898         calculate D2E/DX2 analytically  !
 ! D2    D(3,1,5,7)            166.8985         calculate D2E/DX2 analytically  !
 ! D3    D(3,1,5,8)            -74.661          calculate D2E/DX2 analytically  !
 ! D4    D(4,1,5,6)           -129.6637         calculate D2E/DX2 analytically  !
 ! D5    D(4,1,5,7)             -7.255          calculate D2E/DX2 analytically  !
 ! D6    D(4,1,5,8)            111.1855         calculate D2E/DX2 analytically  !
 ! D7    D(1,5,8,9)            -24.274          calculate D2E/DX2 analytically  !
 ! D8    D(6,5,8,9)           -125.5964         calculate D2E/DX2 analytically  !
 ! D9    D(7,5,8,9)             78.1421         calculate D2E/DX2 analytically  !
 ! D10   D(5,8,9,2)             19.8404         calculate D2E/DX2 analytically  !
 --------------------------------------------------------------------------------
 Trust Radius=3.00D-01 FncErr=1.00D-07 GrdErr=1.00D-06 EigMax=2.50D+02 EigMin=1.00D-04
 Number of steps in this run=    100 maximum allowed number of steps=    100.
 Search for a saddle point of order  1.
 GradGradGradGradGradGradGradGradGradGradGradGradGradGradGradGradGradGrad

 Leave Link  103 at Sun May 25 05:40:17 2025, MaxMem=  3758096384 cpu:               0.0 elap:               0.0
 (Enter /apps/easybuild-2022/easybuild/software/Compiler/NVHPC/22.11-CUDA-11.7.0/Gaussian/g16c01-CUDA-11.7.0/g16/l202.exe)
                          Input orientation:                          
 ---------------------------------------------------------------------
 Center     Atomic      Atomic             Coordinates (Angstroms)
 Number     Number       Type             X           Y           Z
 ---------------------------------------------------------------------
      1          6           0        1.648516    0.102490   -0.110565
      2          9           0       -0.410565    0.530727    0.204779
      3          9           0        1.653331   -0.685410    0.869348
      4          9           0        1.383562   -0.514465   -1.170287
      5         16           0        2.144681    1.980723    0.004883
      6          8           0        3.312673    1.847815    0.804926
      7          8           0        2.268409    2.284298   -1.375428
      8          8           0        0.902524    2.332176    0.656957
      9          1           0       -0.422785    1.449340    0.492965
 ---------------------------------------------------------------------
                    Distance matrix (angstroms):
                    1          2          3          4          5
     1  C    0.000000
     2  F    2.126651   0.000000
     3  F    1.257394   2.486022   0.000000
     4  F    1.254530   2.490406   2.064487   0.000000
     5  S    1.946090   2.944780   2.845521   2.861169   0.000000
     6  O    2.579476   3.994671   3.028992   3.633634   1.421949
     7  O    2.597004   3.570569   3.773129   2.942467   1.418705
     8  O    2.473276   2.274617   3.116833   3.416662   1.446262
     9  H    2.543333   0.962835   3.001513   3.144173   2.666922
                    6          7          8          9
     6  O    0.000000
     7  O    2.456613   0.000000
     8  O    2.462787   2.449188   0.000000
     9  H    3.769582   3.380913   1.600855   0.000000
 Symmetry turned off by external request.
 Stoichiometry    CHF3O3S
 Rotational constants (GHZ):           2.4807372           1.5067894           1.3957707
 Leave Link  202 at Sun May 25 05:40:17 2025, MaxMem=  3758096384 cpu:               0.0 elap:               0.0
 (Enter /apps/easybuild-2022/easybuild/software/Compiler/NVHPC/22.11-CUDA-11.7.0/Gaussian/g16c01-CUDA-11.7.0/g16/l301.exe)
 Standard basis: def2TZVPP (5D, 7F)
 Ernie: Thresh=  0.10000D-02 Tol=  0.10000D-05 Strict=F.
   273 basis functions,   443 primitive gaussians,   315 cartesian basis functions
    37 alpha electrons       37 beta electrons
       nuclear repulsion energy       556.9629100799 Hartrees.
 IExCor= 4336 DFT=T Ex+Corr=M062X ExCW=0 ScaHFX=  0.540000
 ScaDFX=  1.000000  1.000000  1.000000  1.000000 ScalE2=  1.000000  1.000000
 IRadAn=      5 IRanWt=     -1 IRanGd=            0 ICorTp=0 IEmpDi=  4
 NAtoms=    9 NActive=    9 NUniq=    9 SFac= 1.00D+00 NAtFMM=   60 NAOKFM=F Big=F
 Integral buffers will be    131072 words long.
 Raffenetti 2 integral format.
 Two-electron integral symmetry is turned off.
 Leave Link  301 at Sun May 25 05:40:17 2025, MaxMem=  3758096384 cpu:               0.0 elap:               0.0
 (Enter /apps/easybuild-2022/easybuild/software/Compiler/NVHPC/22.11-CUDA-11.7.0/Gaussian/g16c01-CUDA-11.7.0/g16/l302.exe)
 NPDir=0 NMtPBC=     1 NCelOv=     1 NCel=       1 NClECP=     1 NCelD=      1
         NCelK=      1 NCelE2=     1 NClLst=     1 CellRange=     0.0.
 One-electron integrals computed using PRISM.
   1 Symmetry operations used in ECPInt.
 ECPInt:  NShTT=    4753 NPrTT=   15592 LenC2=    4577 LenP2D=   11459.
 LDataN:  DoStor=T MaxTD1= 6 Len=  172
 NBasis=   273 RedAO= T EigKep=  7.62D-04  NBF=   273
 NBsUse=   273 1.00D-06 EigRej= -1.00D+00 NBFU=   273
 Precomputing XC quadrature grid using
 IXCGrd= 4 IRadAn=           5 IRanWt=          -1 IRanGd=           0 AccXCQ= 0.00D+00.
 Generated NRdTot=       0 NPtTot=           0 NUsed=           0 NTot=          32
 NSgBfM=   312   312   312   312   312 MxSgAt=     9 MxSgA2=     9.
 Leave Link  302 at Sun May 25 05:40:17 2025, MaxMem=  3758096384 cpu:               0.6 elap:               0.1
 (Enter /apps/easybuild-2022/easybuild/software/Compiler/NVHPC/22.11-CUDA-11.7.0/Gaussian/g16c01-CUDA-11.7.0/g16/l303.exe)
 DipDrv:  MaxL=1.
 Leave Link  303 at Sun May 25 05:40:17 2025, MaxMem=  3758096384 cpu:               0.1 elap:               0.0
 (Enter /apps/easybuild-2022/easybuild/software/Compiler/NVHPC/22.11-CUDA-11.7.0/Gaussian/g16c01-CUDA-11.7.0/g16/l401.exe)
 ExpMin= 9.52D-02 ExpMax= 6.07D+04 ExpMxC= 2.07D+03 IAcc=3 IRadAn=         5 AccDes= 0.00D+00
 Harris functional with IExCor= 1009 and IRadAn=       5 diagonalized for initial guess.
 HarFok:  IExCor= 1009 AccDes= 0.00D+00 IRadAn=         5 IDoV= 1 UseB2=F ITyADJ=14
 ICtDFT=  3500011 ScaDFX=  1.000000  1.000000  1.000000  1.000000
 FoFCou: FMM=F IPFlag=           0 FMFlag=      100000 FMFlg1=           0
         NFxFlg=           0 DoJE=T BraDBF=F KetDBF=T FulRan=T
         wScrn=  0.000000 ICntrl=       500 IOpCl=  0 I1Cent=   200000004 NGrid=           0
         NMat0=    1 NMatS0=      1 NMatT0=    0 NMatD0=    1 NMtDS0=    0 NMtDT0=    0
 Symmetry not used in FoFCou.
 Harris En= -961.636159456245    
 JPrj=0 DoOrth=F DoCkMO=F.
 Leave Link  401 at Sun May 25 05:40:17 2025, MaxMem=  3758096384 cpu:               2.7 elap:               0.4
 (Enter /apps/easybuild-2022/easybuild/software/Compiler/NVHPC/22.11-CUDA-11.7.0/Gaussian/g16c01-CUDA-11.7.0/g16/l502.exe)
 Keep R1 ints in memory in canonical form, NReq=715214082.
 FoFCou: FMM=F IPFlag=           0 FMFlag=           0 FMFlg1=           0
         NFxFlg=           0 DoJE=F BraDBF=F KetDBF=F FulRan=T
         wScrn=  0.000000 ICntrl=       600 IOpCl=  0 I1Cent=           0 NGrid=           0
         NMat0=    1 NMatS0=  37401 NMatT0=    0 NMatD0=    1 NMtDS0=    0 NMtDT0=    0
 Symmetry not used in FoFCou.
 Two-electron integral symmetry not used.
 Closed shell SCF:
 Using DIIS extrapolation, IDIIS=  1040.
 NGot=  3758096384 LenX=  3058457086 LenY=  3058357420
 Requested convergence on RMS density matrix=1.00D-08 within  32 cycles.
 Requested convergence on MAX density matrix=1.00D-06.
 Requested convergence on             energy=1.00D-06.
 No special actions if energy rises.
 Integral accuracy reduced to 1.0D-05 until final iterations.

 Cycle   1  Pass 0  IDiag  1:
 E= -961.714916931701    
 DIIS: error= 4.18D-02 at cycle   1 NSaved=   1.
 NSaved= 1 IEnMin= 1 EnMin= -961.714916931701     IErMin= 1 ErrMin= 4.18D-02
 ErrMax= 4.18D-02  0.00D+00 EMaxC= 1.00D-01 BMatC= 5.72D-01 BMatP= 5.72D-01
 IDIUse=3 WtCom= 5.82D-01 WtEn= 4.18D-01
 Coeff-Com:  0.100D+01
 Coeff-En:   0.100D+01
 Coeff:      0.100D+01
 Gap=     0.253 Goal=   None    Shift=    0.000
 GapD=    0.253 DampG=1.000 DampE=0.500 DampFc=0.5000 IDamp=-1.
 Damping current iteration by 5.00D-01
 RMSDP=3.32D-03 MaxDP=2.56D-01              OVMax= 3.23D-01

 Cycle   2  Pass 0  IDiag  1:
 E= -961.818899700991     Delta-E=       -0.103982769291 Rises=F Damp=T
 DIIS: error= 9.32D-03 at cycle   2 NSaved=   2.
 NSaved= 2 IEnMin= 2 EnMin= -961.818899700991     IErMin= 2 ErrMin= 9.32D-03
 ErrMax= 9.32D-03  0.00D+00 EMaxC= 1.00D-01 BMatC= 5.18D-02 BMatP= 5.72D-01
 IDIUse=3 WtCom= 9.07D-01 WtEn= 9.32D-02
 Coeff-Com:  0.128D+00 0.872D+00
 Coeff-En:   0.300D+00 0.700D+00
 Coeff:      0.144D+00 0.856D+00
 Gap=     0.292 Goal=   None    Shift=    0.000
 RMSDP=6.90D-04 MaxDP=5.19D-02 DE=-1.04D-01 OVMax= 1.78D-01

 Cycle   3  Pass 0  IDiag  1:
 E= -962.031438728151     Delta-E=       -0.212539027159 Rises=F Damp=F
 DIIS: error= 4.26D-03 at cycle   3 NSaved=   3.
 NSaved= 3 IEnMin= 3 EnMin= -962.031438728151     IErMin= 3 ErrMin= 4.26D-03
 ErrMax= 4.26D-03  0.00D+00 EMaxC= 1.00D-01 BMatC= 7.19D-03 BMatP= 5.18D-02
 IDIUse=3 WtCom= 9.57D-01 WtEn= 4.26D-02
 Coeff-Com: -0.404D-01 0.194D+00 0.846D+00
 Coeff-En:   0.000D+00 0.000D+00 0.100D+01
 Coeff:     -0.387D-01 0.186D+00 0.853D+00
 Gap=     0.292 Goal=   None    Shift=    0.000
 RMSDP=2.82D-04 MaxDP=2.40D-02 DE=-2.13D-01 OVMax= 2.27D-02

 Cycle   4  Pass 0  IDiag  1:
 E= -962.035785398477     Delta-E=       -0.004346670326 Rises=F Damp=F
 DIIS: error= 1.73D-03 at cycle   4 NSaved=   4.
 NSaved= 4 IEnMin= 4 EnMin= -962.035785398477     IErMin= 4 ErrMin= 1.73D-03
 ErrMax= 1.73D-03  0.00D+00 EMaxC= 1.00D-01 BMatC= 1.59D-03 BMatP= 7.19D-03
 IDIUse=3 WtCom= 9.83D-01 WtEn= 1.73D-02
 Coeff-Com: -0.222D-01 0.489D-01 0.392D+00 0.581D+00
 Coeff-En:   0.000D+00 0.000D+00 0.359D-01 0.964D+00
 Coeff:     -0.219D-01 0.481D-01 0.386D+00 0.588D+00
 Gap=     0.295 Goal=   None    Shift=    0.000
 RMSDP=7.82D-05 MaxDP=3.68D-03 DE=-4.35D-03 OVMax= 6.23D-03

 Cycle   5  Pass 0  IDiag  1:
 E= -962.036708741956     Delta-E=       -0.000923343478 Rises=F Damp=F
 DIIS: error= 4.06D-04 at cycle   5 NSaved=   5.
 NSaved= 5 IEnMin= 5 EnMin= -962.036708741956     IErMin= 5 ErrMin= 4.06D-04
 ErrMax= 4.06D-04  0.00D+00 EMaxC= 1.00D-01 BMatC= 1.01D-04 BMatP= 1.59D-03
 IDIUse=3 WtCom= 9.96D-01 WtEn= 4.06D-03
 Coeff-Com: -0.523D-02 0.469D-02 0.793D-01 0.238D+00 0.683D+00
 Coeff-En:   0.000D+00 0.000D+00 0.000D+00 0.000D+00 0.100D+01
 Coeff:     -0.521D-02 0.467D-02 0.790D-01 0.237D+00 0.685D+00
 Gap=     0.296 Goal=   None    Shift=    0.000
 RMSDP=2.31D-05 MaxDP=9.51D-04 DE=-9.23D-04 OVMax= 2.25D-03

 Cycle   6  Pass 0  IDiag  1:
 E= -962.036771670124     Delta-E=       -0.000062928168 Rises=F Damp=F
 DIIS: error= 1.35D-04 at cycle   6 NSaved=   6.
 NSaved= 6 IEnMin= 6 EnMin= -962.036771670124     IErMin= 6 ErrMin= 1.35D-04
 ErrMax= 1.35D-04  0.00D+00 EMaxC= 1.00D-01 BMatC= 1.06D-05 BMatP= 1.01D-04
 IDIUse=3 WtCom= 9.99D-01 WtEn= 1.35D-03
 Coeff-Com: -0.692D-03-0.172D-02-0.973D-03 0.527D-01 0.284D+00 0.667D+00
 Coeff-En:   0.000D+00 0.000D+00 0.000D+00 0.000D+00 0.000D+00 0.100D+01
 Coeff:     -0.691D-03-0.172D-02-0.972D-03 0.527D-01 0.283D+00 0.667D+00
 Gap=     0.296 Goal=   None    Shift=    0.000
 RMSDP=1.05D-05 MaxDP=4.94D-04 DE=-6.29D-05 OVMax= 1.19D-03

 Cycle   7  Pass 0  IDiag  1:
 E= -962.036779841312     Delta-E=       -0.000008171188 Rises=F Damp=F
 DIIS: error= 5.89D-05 at cycle   7 NSaved=   7.
 NSaved= 7 IEnMin= 7 EnMin= -962.036779841312     IErMin= 7 ErrMin= 5.89D-05
 ErrMax= 5.89D-05  0.00D+00 EMaxC= 1.00D-01 BMatC= 2.40D-06 BMatP= 1.06D-05
 IDIUse=1 WtCom= 1.00D+00 WtEn= 0.00D+00
 Coeff-Com:  0.600D-03-0.160D-02-0.182D-01-0.209D-01 0.962D-02 0.337D+00
 Coeff-Com:  0.694D+00
 Coeff:      0.600D-03-0.160D-02-0.182D-01-0.209D-01 0.962D-02 0.337D+00
 Coeff:      0.694D+00
 Gap=     0.296 Goal=   None    Shift=    0.000
 RMSDP=5.23D-06 MaxDP=1.87D-04 DE=-8.17D-06 OVMax= 6.45D-04

 Initial convergence to 1.0D-05 achieved.  Increase integral accuracy.
 Cycle   8  Pass 1  IDiag  1:
 E= -962.036784044033     Delta-E=       -0.000004202721 Rises=F Damp=F
 DIIS: error= 2.23D-05 at cycle   1 NSaved=   1.
 NSaved= 1 IEnMin= 1 EnMin= -962.036784044033     IErMin= 1 ErrMin= 2.23D-05
 ErrMax= 2.23D-05  0.00D+00 EMaxC= 1.00D-01 BMatC= 5.48D-07 BMatP= 5.48D-07
 IDIUse=1 WtCom= 1.00D+00 WtEn= 0.00D+00
 Coeff-Com:  0.100D+01
 Coeff:      0.100D+01
 Gap=     0.296 Goal=   None    Shift=    0.000
 RMSDP=5.23D-06 MaxDP=1.87D-04 DE=-4.20D-06 OVMax= 2.35D-04

 Cycle   9  Pass 1  IDiag  1:
 E= -962.036784331599     Delta-E=       -0.000000287565 Rises=F Damp=F
 DIIS: error= 1.85D-05 at cycle   2 NSaved=   2.
 NSaved= 2 IEnMin= 2 EnMin= -962.036784331599     IErMin= 2 ErrMin= 1.85D-05
 ErrMax= 1.85D-05  0.00D+00 EMaxC= 1.00D-01 BMatC= 2.57D-07 BMatP= 5.48D-07
 IDIUse=1 WtCom= 1.00D+00 WtEn= 0.00D+00
 Coeff-Com:  0.374D+00 0.626D+00
 Coeff:      0.374D+00 0.626D+00
 Gap=     0.296 Goal=   None    Shift=    0.000
 RMSDP=1.46D-06 MaxDP=5.27D-05 DE=-2.88D-07 OVMax= 1.31D-04

 Cycle  10  Pass 1  IDiag  1:
 E= -962.036784460756     Delta-E=       -0.000000129158 Rises=F Damp=F
 DIIS: error= 1.13D-05 at cycle   3 NSaved=   3.
 NSaved= 3 IEnMin= 3 EnMin= -962.036784460756     IErMin= 3 ErrMin= 1.13D-05
 ErrMax= 1.13D-05  0.00D+00 EMaxC= 1.00D-01 BMatC= 7.50D-08 BMatP= 2.57D-07
 IDIUse=1 WtCom= 1.00D+00 WtEn= 0.00D+00
 Coeff-Com: -0.532D-02 0.343D+00 0.662D+00
 Coeff:     -0.532D-02 0.343D+00 0.662D+00
 Gap=     0.296 Goal=   None    Shift=    0.000
 RMSDP=6.49D-07 MaxDP=2.55D-05 DE=-1.29D-07 OVMax= 6.14D-05

 Cycle  11  Pass 1  IDiag  1:
 E= -962.036784512222     Delta-E=       -0.000000051466 Rises=F Damp=F
 DIIS: error= 2.36D-06 at cycle   4 NSaved=   4.
 NSaved= 4 IEnMin= 4 EnMin= -962.036784512222     IErMin= 4 ErrMin= 2.36D-06
 ErrMax= 2.36D-06  0.00D+00 EMaxC= 1.00D-01 BMatC= 3.62D-09 BMatP= 7.50D-08
 IDIUse=1 WtCom= 1.00D+00 WtEn= 0.00D+00
 Coeff-Com: -0.266D-01 0.111D+00 0.288D+00 0.628D+00
 Coeff:     -0.266D-01 0.111D+00 0.288D+00 0.628D+00
 Gap=     0.296 Goal=   None    Shift=    0.000
 RMSDP=1.83D-07 MaxDP=8.01D-06 DE=-5.15D-08 OVMax= 1.79D-05

 Cycle  12  Pass 1  IDiag  1:
 E= -962.036784515100     Delta-E=       -0.000000002878 Rises=F Damp=F
 DIIS: error= 8.50D-07 at cycle   5 NSaved=   5.
 NSaved= 5 IEnMin= 5 EnMin= -962.036784515100     IErMin= 5 ErrMin= 8.50D-07
 ErrMax= 8.50D-07  0.00D+00 EMaxC= 1.00D-01 BMatC= 3.13D-10 BMatP= 3.62D-09
 IDIUse=1 WtCom= 1.00D+00 WtEn= 0.00D+00
 Coeff-Com: -0.782D-02-0.335D-02 0.175D-01 0.211D+00 0.782D+00
 Coeff:     -0.782D-02-0.335D-02 0.175D-01 0.211D+00 0.782D+00
 Gap=     0.296 Goal=   None    Shift=    0.000
 RMSDP=6.34D-08 MaxDP=1.70D-06 DE=-2.88D-09 OVMax= 1.05D-05

 Cycle  13  Pass 1  IDiag  1:
 E= -962.036784515446     Delta-E=       -0.000000000346 Rises=F Damp=F
 DIIS: error= 3.13D-07 at cycle   6 NSaved=   6.
 NSaved= 6 IEnMin= 6 EnMin= -962.036784515446     IErMin= 6 ErrMin= 3.13D-07
 ErrMax= 3.13D-07  0.00D+00 EMaxC= 1.00D-01 BMatC= 7.14D-11 BMatP= 3.13D-10
 IDIUse=1 WtCom= 1.00D+00 WtEn= 0.00D+00
 Coeff-Com:  0.189D-02-0.231D-01-0.491D-01-0.316D-01 0.348D+00 0.753D+00
 Coeff:      0.189D-02-0.231D-01-0.491D-01-0.316D-01 0.348D+00 0.753D+00
 Gap=     0.296 Goal=   None    Shift=    0.000
 RMSDP=3.58D-08 MaxDP=2.28D-06 DE=-3.46D-10 OVMax= 4.05D-06

 Cycle  14  Pass 1  IDiag  1:
 E= -962.036784515571     Delta-E=       -0.000000000125 Rises=F Damp=F
 DIIS: error= 1.10D-07 at cycle   7 NSaved=   7.
 NSaved= 7 IEnMin= 7 EnMin= -962.036784515571     IErMin= 7 ErrMin= 1.10D-07
 ErrMax= 1.10D-07  0.00D+00 EMaxC= 1.00D-01 BMatC= 4.60D-12 BMatP= 7.14D-11
 IDIUse=1 WtCom= 1.00D+00 WtEn= 0.00D+00
 Coeff-Com:  0.120D-02-0.783D-02-0.184D-01-0.260D-01 0.700D-01 0.284D+00
 Coeff-Com:  0.697D+00
 Coeff:      0.120D-02-0.783D-02-0.184D-01-0.260D-01 0.700D-01 0.284D+00
 Coeff:      0.697D+00
 Gap=     0.296 Goal=   None    Shift=    0.000
 RMSDP=7.17D-09 MaxDP=5.42D-07 DE=-1.25D-10 OVMax= 9.46D-07

 SCF Done:  E(RM062X) =  -962.036784516     A.U. after   14 cycles
            NFock= 14  Conv=0.72D-08     -V/T= 2.0026
 KE= 9.595514005238D+02 PE=-3.395788986343D+03 EE= 9.172378912234D+02
 Leave Link  502 at Sun May 25 05:40:32 2025, MaxMem=  3758096384 cpu:              69.4 elap:              14.8
 (Enter /apps/easybuild-2022/easybuild/software/Compiler/NVHPC/22.11-CUDA-11.7.0/Gaussian/g16c01-CUDA-11.7.0/g16/l508.exe)
 QCSCF skips out because SCF is already converged.
 Leave Link  508 at Sun May 25 05:40:32 2025, MaxMem=  3758096384 cpu:               0.0 elap:               0.0
 (Enter /apps/easybuild-2022/easybuild/software/Compiler/NVHPC/22.11-CUDA-11.7.0/Gaussian/g16c01-CUDA-11.7.0/g16/l801.exe)
 DoSCS=F DFT=T ScalE2(SS,OS)=  1.000000  1.000000
 Range of M.O.s used for correlation:     1   273
 NBasis=   273 NAE=    37 NBE=    37 NFC=     0 NFV=     0
 NROrb=    273 NOA=    37 NOB=    37 NVA=   236 NVB=   236

 **** Warning!!: The largest alpha MO coefficient is  0.12248043D+02

 Leave Link  801 at Sun May 25 05:40:32 2025, MaxMem=  3758096384 cpu:               0.0 elap:               0.0
 (Enter /apps/easybuild-2022/easybuild/software/Compiler/NVHPC/22.11-CUDA-11.7.0/Gaussian/g16c01-CUDA-11.7.0/g16/l1101.exe)
 Using compressed storage, NAtomX=     9.
 Will process     10 centers per pass.
   1 Symmetry operations used in ECPInt.
 ECPInt:  NShTT=    4753 NPrTT=   15592 LenC2=    4577 LenP2D=   11459.
 LDataN:  DoStor=T MaxTD1= 7 Len=  274
 Leave Link 1101 at Sun May 25 05:40:32 2025, MaxMem=  3758096384 cpu:               0.7 elap:               0.1
 (Enter /apps/easybuild-2022/easybuild/software/Compiler/NVHPC/22.11-CUDA-11.7.0/Gaussian/g16c01-CUDA-11.7.0/g16/l1102.exe)
 Symmetrizing basis deriv contribution to polar:
 IMax=3 JMax=2 DiffMx= 0.00D+00
 Leave Link 1102 at Sun May 25 05:40:32 2025, MaxMem=  3758096384 cpu:               0.0 elap:               0.0
 (Enter /apps/easybuild-2022/easybuild/software/Compiler/NVHPC/22.11-CUDA-11.7.0/Gaussian/g16c01-CUDA-11.7.0/g16/l1110.exe)
 Forming Gx(P) for the SCF density, NAtomX=     9.
 Integral derivatives from FoFJK, PRISM(SPDF).
 Do as many integral derivatives as possible in FoFJK.
 G2DrvN: MDV=    3758095321.
 G2DrvN: will do    10 centers at a time, making    1 passes.
 Calling FoFCou, ICntrl=  3107 FMM=F I1Cent=   0 AccDes= 0.00D+00.
 FoFJK:  IHMeth= 1 ICntrl=    3107 DoSepK=F KAlg= 0 I1Cent=           0 FoldK=F
 IRaf=         0 NMat=       1 IRICut=       1 DoRegI=T DoRafI=F ISym2E= 0 IDoP0=0 IntGTp=1.
 FoFCou: FMM=F IPFlag=           0 FMFlag=      100000 FMFlg1=           0
         NFxFlg=           0 DoJE=F BraDBF=F KetDBF=F FulRan=T
         wScrn=  0.000000 ICntrl=      3107 IOpCl=  0 I1Cent=           0 NGrid=           0
         NMat0=    1 NMatS0=      1 NMatT0=    0 NMatD0=    1 NMtDS0=    0 NMtDT0=    0
 Symmetry not used in FoFCou.
 End of G2Drv F.D. properties file   721 does not exist.
 End of G2Drv F.D. properties file   722 does not exist.
 End of G2Drv F.D. properties file   788 does not exist.
 Leave Link 1110 at Sun May 25 05:40:56 2025, MaxMem=  3758096384 cpu:             184.8 elap:              23.3
 (Enter /apps/easybuild-2022/easybuild/software/Compiler/NVHPC/22.11-CUDA-11.7.0/Gaussian/g16c01-CUDA-11.7.0/g16/l1002.exe)
 Minotr:  Closed shell wavefunction.
          IDoAtm=111111111
          Direct CPHF calculation.
          Differentiating once with respect to electric field.
                with respect to dipole field.
          Differentiating once with respect to nuclear coordinates.
          Requested convergence is 1.0D-08 RMS, and 1.0D-07 maximum.
          Secondary convergence is 1.0D-12 RMS, and 1.0D-12 maximum.
          NewPWx=T KeepS1=F KeepF1=F KeepIn=T MapXYZ=F SortEE=F KeepMc=T.
         2690 words used for storage of precomputed grid.
 Keep R1 ints in memory in canonical form, NReq=715218551.
 FoFCou: FMM=F IPFlag=           0 FMFlag=           0 FMFlg1=           0
         NFxFlg=           0 DoJE=F BraDBF=F KetDBF=F FulRan=T
         wScrn=  0.000000 ICntrl=       600 IOpCl=  0 I1Cent=           0 NGrid=           0
         NMat0=    1 NMatS0=  37401 NMatT0=    0 NMatD0=    1 NMtDS0=    0 NMtDT0=    0
 Symmetry not used in FoFCou.
 Two-electron integral symmetry not used.
          MDV=    3758096384 using IRadAn=       1.
          Solving linear equations simultaneously, MaxMat=       0.
          There are    30 degrees of freedom in the 1st order CPHF.  IDoFFX=6 NUNeed=     3.
     27 vectors produced by pass  0 Test12= 2.91D-14 3.33D-09 XBig12= 2.08D+01 2.01D+00.
 AX will form    27 AO Fock derivatives at one time.
     27 vectors produced by pass  1 Test12= 2.91D-14 3.33D-09 XBig12= 4.35D+00 4.47D-01.
     27 vectors produced by pass  2 Test12= 2.91D-14 3.33D-09 XBig12= 1.44D-01 7.36D-02.
     27 vectors produced by pass  3 Test12= 2.91D-14 3.33D-09 XBig12= 5.24D-03 1.55D-02.
     27 vectors produced by pass  4 Test12= 2.91D-14 3.33D-09 XBig12= 8.77D-05 2.42D-03.
     27 vectors produced by pass  5 Test12= 2.91D-14 3.33D-09 XBig12= 9.08D-07 2.32D-04.
     27 vectors produced by pass  6 Test12= 2.91D-14 3.33D-09 XBig12= 5.46D-09 1.32D-05.
     16 vectors produced by pass  7 Test12= 2.91D-14 3.33D-09 XBig12= 3.35D-11 1.03D-06.
      4 vectors produced by pass  8 Test12= 2.91D-14 3.33D-09 XBig12= 1.76D-13 4.79D-08.
      1 vectors produced by pass  9 Test12= 2.91D-14 3.33D-09 XBig12= 7.64D-16 4.42D-09.
 InvSVY:  IOpt=1 It=  1 EMax= 3.55D-15
 Solved reduced A of dimension   210 with    30 vectors.
 FullF1:  Do perturbations      1 to       3.
 Isotropic polarizability for W=    0.000000       43.86 Bohr**3.
 End of Minotr F.D. properties file   721 does not exist.
 End of Minotr F.D. properties file   722 does not exist.
 End of Minotr F.D. properties file   788 does not exist.
 Leave Link 1002 at Sun May 25 05:41:32 2025, MaxMem=  3758096384 cpu:             280.9 elap:              36.2
 (Enter /apps/easybuild-2022/easybuild/software/Compiler/NVHPC/22.11-CUDA-11.7.0/Gaussian/g16c01-CUDA-11.7.0/g16/l701.exe)
 ... and contract with generalized density number  0.
 Compute integral second derivatives.
   1 Symmetry operations used in ECPInt.
 ECPInt:  NShTT=    4753 NPrTT=   15592 LenC2=    4577 LenP2D=   11459.
 LDataN:  DoStor=T MaxTD1= 8 Len=  415
 Leave Link  701 at Sun May 25 05:41:32 2025, MaxMem=  3758096384 cpu:               0.7 elap:               0.1
 (Enter /apps/easybuild-2022/easybuild/software/Compiler/NVHPC/22.11-CUDA-11.7.0/Gaussian/g16c01-CUDA-11.7.0/g16/l702.exe)
 L702 exits ... SP integral derivatives will be done elsewhere.
 Leave Link  702 at Sun May 25 05:41:32 2025, MaxMem=  3758096384 cpu:               0.0 elap:               0.0
 (Enter /apps/easybuild-2022/easybuild/software/Compiler/NVHPC/22.11-CUDA-11.7.0/Gaussian/g16c01-CUDA-11.7.0/g16/l703.exe)
 Integral derivatives from FoFJK, PRISM(SPDF).
 Compute integral second derivatives, UseDBF=F ICtDFT=           0.
 Calling FoFJK, ICntrl=    100127 FMM=F ISym2X=0 I1Cent= 0 IOpClX= 0 NMat=1 NMatS=1 NMatT=0.
 FoFJK:  IHMeth= 1 ICntrl=  100127 DoSepK=F KAlg= 0 I1Cent=           0 FoldK=F
 IRaf=         0 NMat=       1 IRICut=       1 DoRegI=T DoRafI=F ISym2E= 0 IDoP0=0 IntGTp=1.
 FoFCou: FMM=F IPFlag=           0 FMFlag=      100000 FMFlg1=         800
         NFxFlg=           0 DoJE=F BraDBF=F KetDBF=F FulRan=T
         wScrn=  0.000000 ICntrl=    100127 IOpCl=  0 I1Cent=           0 NGrid=           0
         NMat0=    1 NMatS0=      1 NMatT0=    0 NMatD0=    1 NMtDS0=    0 NMtDT0=    0
 Symmetry not used in FoFCou.
 Leave Link  703 at Sun May 25 05:42:25 2025, MaxMem=  3758096384 cpu:             423.5 elap:              53.4
 (Enter /apps/easybuild-2022/easybuild/software/Compiler/NVHPC/22.11-CUDA-11.7.0/Gaussian/g16c01-CUDA-11.7.0/g16/l716.exe)
 Dipole        =-4.84460122D-01-1.20359298D+00 4.65230437D-02
 Polarizability= 4.48635933D+01 2.16383748D+00 4.48713847D+01
                 1.06410579D-01 1.43877563D-01 4.18486041D+01
 -------------------------------------------------------------------
 Center     Atomic                   Forces (Hartrees/Bohr)
 Number     Number              X              Y              Z
 -------------------------------------------------------------------
      1        6          -0.008358814   -0.011655384   -0.000709040
      2        9          -0.022514031   -0.000688553    0.001154870
      3        9           0.007020609    0.002321258    0.005630956
      4        9           0.004822835    0.001691064   -0.007845352
      5       16          -0.010184440   -0.012510356    0.001787571
      6        8          -0.003749139    0.005435967    0.000798922
      7        8           0.000178808    0.004010690    0.000862324
      8        8           0.022876415    0.028873634    0.005699608
      9        1           0.009907757   -0.017478321   -0.007379858
 -------------------------------------------------------------------
 Cartesian Forces:  Max     0.028873634 RMS     0.010647755
 Force constants in Cartesian coordinates: 
                1             2             3             4             5 
      1  0.159818D+00
      2  0.124319D+00  0.629363D+00
      3  0.806066D-01 -0.177647D-01  0.686576D+00
      4  0.137425D-01 -0.210907D-01 -0.602980D-02  0.540006D-01
      5 -0.293201D-01 -0.381874D-02  0.431267D-02  0.272265D-01  0.424479D+00
      6 -0.103417D-01  0.466643D-02 -0.989798D-02  0.742006D-02  0.123949D+00
      7 -0.444375D-01 -0.243258D-01  0.209674D-02 -0.141868D-01  0.156377D-01
      8 -0.287093D-01 -0.293132D+00  0.203642D+00  0.123050D-01 -0.254707D-02
      9  0.139238D-01  0.206946D+00 -0.293463D+00 -0.922593D-02  0.431633D-02
     10 -0.688568D-01 -0.722547D-01 -0.812598D-01 -0.733346D-02  0.127992D-01
     11 -0.721716D-01 -0.230766D+00 -0.183782D+00  0.950371D-02 -0.962064D-03
     12 -0.935008D-01 -0.190193D+00 -0.340058D+00  0.139937D-01 -0.843888D-02
     13 -0.507223D-01 -0.175704D-01  0.357932D-02 -0.422608D-02  0.189869D-01
     14 -0.406376D-01 -0.887102D-01  0.289660D-02  0.903060D-02 -0.279073D-01
     15  0.367621D-03  0.455884D-02 -0.126523D-01 -0.341531D-02 -0.184150D-01
     16 -0.875690D-02  0.579759D-02 -0.153201D-01 -0.345638D-02 -0.529501D-02
     17 -0.166240D-01  0.485904D-02 -0.987732D-02 -0.395295D-02  0.657570D-02
     18 -0.782328D-02  0.422398D-02 -0.803234D-02 -0.188671D-02  0.178071D-02
     19  0.564353D-02 -0.169635D-02  0.563634D-02  0.472166D-03 -0.225909D-02
     20  0.105830D-02 -0.484626D-02  0.224207D-01 -0.329247D-02  0.429079D-02
     21 -0.519680D-02 -0.553084D-02 -0.186847D-01  0.391307D-02  0.376049D-02
     22 -0.229351D-01  0.188372D-03  0.103237D-01 -0.158295D-01 -0.705932D-01
     23  0.351619D-01 -0.101469D-01 -0.173329D-01 -0.303672D-01 -0.325957D-01
     24  0.153175D-01 -0.452773D-02 -0.550431D-02 -0.564662D-02  0.188939D-02
     25  0.165045D-01  0.663255D-02  0.367080D-03 -0.231832D-01  0.328173D-01
     26  0.269230D-01 -0.280259D-02 -0.451462D-02  0.637491D-03 -0.367514D+00
     27  0.664706D-02 -0.237886D-02  0.171626D-02  0.877551D-03 -0.113155D+00
                6             7             8             9            10 
      6  0.554810D-01
      7 -0.470706D-02  0.347814D-01
      8  0.765673D-03  0.376520D-02  0.245954D+00
      9  0.428665D-02  0.191865D-01 -0.229116D+00  0.413109D+00
     10  0.114871D-01  0.123889D-01  0.733414D-02 -0.172286D-01  0.513554D-01
     11 -0.425732D-02  0.922755D-02  0.402269D-01  0.208385D-01  0.539274D-01
     12 -0.409319D-02 -0.179468D-01  0.460071D-02 -0.122464D+00  0.945520D-01
     13  0.613605D-02  0.159813D-01  0.945835D-02 -0.101978D-01  0.214171D-01
     14 -0.102111D-01  0.666899D-02  0.301683D-01 -0.869561D-02  0.112391D-01
     15 -0.633910D-02  0.315614D-02  0.308170D-01 -0.947206D-02 -0.805598D-02
     16 -0.389653D-03 -0.925135D-03 -0.537451D-02  0.387664D-02 -0.396255D-02
     17  0.242677D-02  0.218163D-02 -0.153788D-02 -0.743765D-03  0.105862D-02
     18  0.127076D-02  0.130896D-04 -0.740151D-02  0.408395D-02 -0.169741D-03
     19 -0.926296D-03 -0.189841D-02 -0.365480D-02  0.178625D-02 -0.214193D-02
     20  0.180001D-02 -0.235575D-02 -0.132010D-01  0.294088D-02 -0.513961D-04
     21  0.228747D-02  0.225147D-02  0.313204D-02  0.184694D-02  0.322029D-02
     22 -0.194742D-01  0.288401D-02  0.581140D-02 -0.128287D-02  0.255112D-02
     23 -0.986333D-02 -0.653377D-02 -0.459634D-02  0.421963D-02 -0.945705D-02
     24  0.107271D-01 -0.268586D-02 -0.745684D-02  0.344313D-02 -0.215333D-02
     25  0.107956D-01 -0.458784D-02 -0.935476D-03 -0.838014D-03 -0.541773D-02
     26 -0.109276D+00 -0.426575D-02 -0.133588D-02 -0.706547D-03 -0.459529D-02
     27 -0.537226D-01 -0.136421D-02  0.101688D-02 -0.137117D-02 -0.391966D-03
               11            12            13            14            15 
     11  0.179535D+00
     12  0.186437D+00  0.470753D+00
     13  0.151420D-02  0.330213D-02  0.105960D+01
     14  0.357105D-01  0.152698D-01 -0.125614D+00  0.334158D+00
     15 -0.217873D-01 -0.146574D-01  0.349618D-01 -0.120849D+00  0.116815D+01
     16 -0.796534D-02 -0.181741D-02 -0.479089D+00  0.446930D-01 -0.271563D+00
     17 -0.103749D-01 -0.465837D-02  0.292839D-01 -0.857008D-01  0.287489D-01
     18 -0.267905D-02  0.148009D-02 -0.270291D+00  0.332314D-01 -0.282668D+00
     19  0.284490D-03 -0.147639D-03 -0.967343D-01 -0.101338D-01  0.513091D-01
     20 -0.176049D-02 -0.530068D-03 -0.118571D-01 -0.109078D+00  0.134957D+00
     21  0.758176D-02  0.826436D-02  0.479779D-01  0.128864D+00 -0.656740D+00
     22  0.736820D-02  0.384507D-03 -0.443894D+00  0.907925D-01  0.178608D+00
     23 -0.101022D-01 -0.449115D-02  0.111933D+00 -0.112401D+00 -0.545579D-01
     24 -0.144014D-02  0.134075D-02  0.183395D+00 -0.464476D-01 -0.189778D+00
     25 -0.168862D-02  0.118039D-02 -0.223303D-01  0.139616D-01  0.146321D-01
     26 -0.150750D-02  0.200459D-02 -0.161349D-01  0.237608D-01  0.165271D-01
     27 -0.910952D-03 -0.565968D-03  0.113581D-02  0.594092D-02  0.415293D-02
               16            17            18            19            20 
     16  0.516594D+00
     17 -0.390630D-01  0.544691D-01
     18  0.302505D+00 -0.301420D-01  0.288881D+00
     19  0.815192D-02  0.114347D-01 -0.405028D-01  0.848562D-01
     20 -0.926806D-03  0.193316D-01  0.500058D-02  0.100948D-01  0.882010D-01
     21  0.352375D-02  0.106457D-01 -0.211386D-01 -0.598006D-01 -0.153887D+00
     22 -0.336006D-01  0.197066D-01  0.190623D-01 -0.112120D-02  0.952674D-02
     23  0.256553D-02  0.184482D-01 -0.165709D-02 -0.690435D-02  0.209391D-01
     24 -0.206419D-01  0.458150D-02  0.170251D-01  0.422824D-01 -0.112252D-01
     25  0.504534D-02 -0.402544D-02 -0.907649D-03  0.277204D-02 -0.219634D-02
     26  0.556855D-02 -0.607004D-02 -0.235702D-02  0.283443D-02 -0.387665D-02
     27 -0.173577D-03 -0.981415D-03 -0.901533D-03  0.363316D-03 -0.147730D-02
               21            22            23            24            25 
     21  0.704647D+00
     22  0.889734D-02  0.495943D+00
     23  0.904167D-02 -0.912283D-01  0.141606D+00
     24 -0.179874D-01 -0.200516D+00  0.772690D-01  0.188048D+00
     25 -0.478647D-02  0.160016D-01 -0.517032D-02 -0.935181D-02  0.151955D-01
     26 -0.360842D-02  0.284277D-01 -0.111507D-01 -0.126424D-01 -0.393952D-01
     27 -0.249558D-02  0.399724D-02 -0.262801D-02 -0.731478D-02 -0.110912D-01
               26            27 
     26  0.370497D+00
     27  0.114573D+00  0.605025D-01
 FormGI is forming the generalized inverse of G from B-inverse, IUseBI=4.
 Force constants in internal coordinates: 
                1             2             3             4             5 
      1  0.571379D+00
      2  0.912507D-01  0.581521D+00
      3 -0.978114D-02 -0.107512D-01  0.853188D-01
      4 -0.582614D-02 -0.583076D-02 -0.701629D-02  0.461411D+00
      5  0.956036D-02  0.445019D-02  0.128684D-01  0.364621D-02  0.729220D+00
      6  0.309931D-02  0.113980D-01  0.862792D-02  0.331610D-02  0.827539D-02
      7  0.234936D-01  0.215864D-01  0.235721D-01 -0.223624D-01  0.118660D-01
      8  0.941164D-02  0.838934D-02 -0.123184D-02  0.848999D-01 -0.338756D-03
      9  0.575014D-01  0.580381D-01  0.162158D-01 -0.855090D-02 -0.757261D-02
     10 -0.167330D-01 -0.404016D-01 -0.945207D-02  0.517816D-02  0.256691D-03
     11 -0.408369D-01 -0.177120D-01 -0.764064D-02  0.484055D-02  0.744872D-02
     12 -0.222846D-01 -0.651539D-02 -0.481063D-02  0.457668D-02  0.260413D-01
     13  0.831234D-02 -0.185888D-01  0.113948D-01  0.250052D-02 -0.930999D-02
     14  0.523776D-01  0.647503D-01  0.509583D-01 -0.393996D-01 -0.146268D-01
     15  0.986547D-03 -0.165628D-03 -0.251200D-02 -0.385776D-02  0.851115D-02
     16 -0.904033D-02 -0.758693D-02 -0.107692D-01  0.115526D-01  0.486906D-02
     17 -0.751783D-02 -0.817542D-02 -0.103880D-01  0.562683D-02 -0.147992D-01
     18  0.602376D-01  0.637181D-01  0.212119D-01 -0.100114D-02  0.539329D-02
     19  0.271640D-01  0.272178D-01 -0.286835D-02  0.384576D-01  0.670152D-02
     20  0.530821D-03  0.611326D-02 -0.527828D-02  0.105887D-01 -0.273644D-02
     21 -0.275716D-02 -0.148810D-02 -0.605308D-02  0.863573D-02  0.114334D-01
     22  0.226161D-02  0.175835D-02 -0.385036D-02  0.607608D-02 -0.828050D-02
     23 -0.170083D-02  0.399150D-02  0.569730D-02 -0.879366D-02 -0.411251D-02
     24 -0.498880D-02 -0.360986D-02  0.492249D-02 -0.107466D-01  0.100574D-01
     25  0.299594D-04 -0.363412D-03  0.712522D-02 -0.133062D-01 -0.965657D-02
     26 -0.191289D-01 -0.189366D-04 -0.104716D-01  0.362486D-02  0.144898D-01
     27 -0.214634D-01 -0.275526D-01 -0.317787D-01  0.186289D-01 -0.792527D-02
     28  0.175394D-01  0.126319D-01  0.284827D-01 -0.139987D-01 -0.637357D-02
     29  0.236587D-04  0.536692D-03 -0.264849D-02  0.185838D-02  0.177107D-02
                6             7             8             9            10 
      6  0.746390D+00
      7  0.132511D-01  0.680781D+00
      8 -0.979271D-05  0.702757D-02  0.565842D-01
      9 -0.691966D-02 -0.608034D-02  0.178347D-02  0.213471D+00
     10  0.751774D-02 -0.426284D-03 -0.906663D-03 -0.106702D+00  0.987684D-01
     11 -0.471376D-03  0.509111D-02 -0.169545D-02 -0.107520D+00  0.844034D-02
     12 -0.101049D-01 -0.462389D-01  0.746905D-02 -0.131387D-01 -0.343416D-02
     13  0.209350D-01 -0.328741D-01  0.659628D-02 -0.910025D-02  0.254328D-01
     14 -0.102600D-01  0.136815D+00 -0.468135D-02  0.139603D-01 -0.230447D-01
     15  0.697396D-02 -0.986824D-02  0.174998D-02  0.233670D-02 -0.110556D-02
     16 -0.157429D-01 -0.754684D-02 -0.152000D-02  0.100703D-02 -0.382822D-04
     17  0.813323D-02 -0.474747D-02 -0.436326D-02  0.339967D-03  0.130590D-02
     18  0.778109D-02  0.130178D+00 -0.647676D-03  0.169500D-01 -0.153546D-01
     19  0.804383D-02  0.220072D-01  0.779188D-01  0.884427D-03 -0.197483D-02
     20 -0.915240D-02  0.806453D-02 -0.913165D-02  0.276866D-02 -0.310887D-02
     21  0.128255D-02 -0.260352D-01 -0.308180D-02 -0.141931D-02  0.213439D-02
     22  0.103337D-01 -0.542668D-02 -0.764727D-02  0.711488D-03  0.201074D-02
     23 -0.104962D-01  0.275423D-01  0.184035D-02  0.128837D-02 -0.423142D-02
     24 -0.612268D-04 -0.655741D-02  0.789020D-02 -0.289960D-02  0.101184D-02
     25  0.898989D-02  0.140511D-01  0.332473D-02 -0.768805D-03  0.888190D-03
     26 -0.142420D-01 -0.150343D-01 -0.193555D-02 -0.451858D-02 -0.107899D-01
     27  0.544560D-02 -0.372793D-01 -0.765240D-02  0.259353D-02  0.601645D-02
     28  0.531013D-02  0.209635D-01  0.234605D-02 -0.725561D-02  0.587337D-02
     29 -0.188301D-02  0.632886D-03 -0.169386D-02 -0.161649D-02 -0.112311D-02
               11            12            13            14            15 
     11  0.995232D-01
     12  0.182516D-01  0.139393D+00
     13 -0.156580D-01  0.105580D-01  0.122267D+00
     14  0.408463D-02 -0.137847D+00 -0.866329D-01  0.513574D+00
     15 -0.154050D-02 -0.240090D-01 -0.192879D-01  0.267428D-01  0.709437D-01
     16 -0.342224D-03 -0.336952D-02  0.139180D-01 -0.737065D-01 -0.326557D-01
     17 -0.902664D-03  0.206087D-01 -0.148545D-01 -0.692667D-01 -0.331247D-01
     18 -0.851028D-02 -0.862397D-01 -0.480237D-01  0.331729D+00  0.147968D-01
     19 -0.108747D-02 -0.258787D-01 -0.462971D-02  0.831313D-01  0.238435D-02
     20  0.154036D-02  0.579999D-02 -0.984864D-02 -0.132427D-01 -0.328434D-01
     21  0.865677D-03  0.258554D-01  0.881532D-02 -0.522370D-01  0.291603D-01
     22 -0.138558D-02  0.181023D-01 -0.811496D-02 -0.223746D-01 -0.163743D-02
     23  0.149525D-02 -0.161626D-01 -0.185139D-01  0.536301D-01 -0.287879D-01
     24  0.820565D-03  0.389282D-02  0.150023D-03  0.146358D-01  0.332157D-01
     25 -0.143070D-02 -0.386030D-02 -0.167803D-01  0.444982D-01  0.241801D-02
     26  0.166357D-01  0.715429D-01 -0.484315D-01 -0.565050D-01 -0.294083D-02
     27 -0.651014D-02 -0.107462D-01 -0.142716D-01 -0.174091D+00  0.145805D-01
     28  0.884397D-03  0.120885D-01  0.414322D-01  0.112352D+00 -0.156292D-01
     29  0.303585D-02  0.162027D-01 -0.126829D-01 -0.475144D-02 -0.297363D-03
               16            17            18            19            20 
     16  0.876400D-01
     17 -0.278375D-01  0.878048D-01
     18 -0.552151D-01 -0.391784D-01  0.387658D+00
     19 -0.809421D-02 -0.154936D-01  0.127743D+00  0.181231D+00
     20  0.340923D-01  0.703837D-02 -0.297940D-01 -0.124485D-01  0.344082D-01
     21  0.265003D-02 -0.260514D-01 -0.544227D-01 -0.191442D-01 -0.141370D-02
     22 -0.401425D-01  0.465614D-01 -0.283050D-01 -0.173629D-01  0.148133D-02
     23  0.255650D-01 -0.303211D-02  0.627948D-01  0.169541D-01  0.180329D-01
     24 -0.587726D-02 -0.361219D-01  0.381661D-01  0.102584D-01 -0.177891D-01
     25 -0.486698D-01  0.364909D-01  0.642838D-01  0.120397D-01 -0.148940D-01
     26 -0.567518D-02  0.218589D-01 -0.488096D-01 -0.255205D-01  0.173882D-01
     27  0.260891D-01  0.411157D-01 -0.126819D+00 -0.410474D-01  0.129817D-01
     28 -0.341846D-01 -0.187335D-01  0.701690D-01  0.118282D-01  0.110347D-03
     29 -0.954281D-02  0.102200D-01  0.502311D-02 -0.564665D-02  0.767619D-02
               21            22            23            24            25 
     21  0.398262D-01
     22  0.286967D-02  0.445047D-01
     23 -0.227131D-01 -0.166352D-01  0.375457D-01
     24  0.185268D-01 -0.152469D-01 -0.320027D-02  0.331156D-01
     25 -0.184297D-01  0.263882D-01  0.287762D-02 -0.658072D-03  0.441598D-01
     26  0.218099D-01  0.248753D-01 -0.286976D-03  0.413476D-02  0.720017D-02
     27  0.209392D-01  0.226863D-01 -0.155665D-01 -0.760896D-02 -0.586192D-02
     28 -0.587153D-03  0.108616D-01  0.723302D-02  0.653552D-02  0.179843D-01
     29  0.856460D-02  0.161884D-01  0.376231D-02  0.465071D-02  0.122746D-01
               26            27            28            29 
     26  0.756681D-01
     27  0.260779D-01  0.131638D+00
     28 -0.663954D-02 -0.780486D-01  0.984690D-01
     29  0.295479D-01  0.150734D-01  0.141494D-01  0.225776D-01
 Leave Link  716 at Sun May 25 05:42:25 2025, MaxMem=  3758096384 cpu:               0.0 elap:               0.0
 (Enter /apps/easybuild-2022/easybuild/software/Compiler/NVHPC/22.11-CUDA-11.7.0/Gaussian/g16c01-CUDA-11.7.0/g16/l103.exe)

 GradGradGradGradGradGradGradGradGradGradGradGradGradGradGradGradGradGrad
 Berny optimization.
 Red2BG is reusing G-inverse.
 Internal  Forces:  Max     0.041027767 RMS     0.011973756
 Search for a saddle point.
 Step number   1 out of a maximum of  100
 All quantities printed in internal units (Hartrees-Bohrs-Radians)
 Swapping is turned off.
 Second derivative matrix not updated -- analytic derivatives used.
 ITU=  0
     Eigenvalues ---   -0.01154  -0.00201   0.00191   0.02333   0.05945
     Eigenvalues ---    0.06688   0.07850   0.11181   0.16126   0.16756
     Eigenvalues ---    0.20109   0.21719   0.24117   0.30096   0.48921
     Eigenvalues ---    0.49145   0.57498   0.66910   0.73121   0.75450
     Eigenvalues ---    1.14878
 Eigenvectors required to have negative eigenvalues:
                          R8        A10       A11       D5        D6
   1                   -0.65444  -0.35188   0.33055   0.30285   0.29956
                          D4        D1        R4        D3        D2
   1                    0.27890  -0.13223   0.12745  -0.11156  -0.10827
 Eigenvalue     2 is  -2.01D-03 should be greater than     0.000000 Eigenvector:
                          D10       D9        D7        D8        D3
   1                    0.39830  -0.39684  -0.39579  -0.37663   0.29146
                          D2        D1        D6        D5        D4
   1                    0.28564   0.28470   0.18803   0.18221   0.18126
 RFO step:  Lambda0=9.024424433D-04 Lambda=-1.41540724D-02.
 Linear search not attempted -- option 19 set.
 Maximum step size (   0.300) exceeded in Quadratic search.
    -- Step size scaled by   0.598
 Iteration  1 RMS(Cart)=  0.08185396 RMS(Int)=  0.01428129
 Iteration  2 RMS(Cart)=  0.02071421 RMS(Int)=  0.00033759
 Iteration  3 RMS(Cart)=  0.00021966 RMS(Int)=  0.00032214
 Iteration  4 RMS(Cart)=  0.00000003 RMS(Int)=  0.00032214
 ITry= 1 IFail=0 DXMaxC= 2.82D-01 DCOld= 1.00D+10 DXMaxT= 3.00D-01 DXLimC= 3.00D+00 Rises=F
 Variable       Old X    -DE/DX   Delta X   Delta X   Delta X     New X
                                 (Linear)    (Quad)   (Total)
    R1        2.37613   0.00296   0.00000  -0.00796  -0.00796   2.36817
    R2        2.37072   0.00478   0.00000  -0.00599  -0.00599   2.36473
    R3        3.67758   0.00667   0.00000   0.02461   0.02461   3.70219
    R4        1.81949   0.00002   0.00000  -0.05222  -0.05222   1.76728
    R5        2.68709  -0.00314   0.00000  -0.00055  -0.00055   2.68654
    R6        2.68096   0.00004   0.00000   0.00005   0.00005   2.68101
    R7        2.73304  -0.00645   0.00000  -0.01685  -0.01685   2.71619
    R8        3.02518   0.02108   0.00000   0.28562   0.28562   3.31080
    A1        1.92939   0.01058   0.00000   0.01505   0.01406   1.94345
    A2        2.16224  -0.00667   0.00000  -0.01454  -0.01553   2.14671
    A3        2.18780  -0.00447   0.00000   0.00618   0.00519   2.19299
    A4        1.72398  -0.00476   0.00000  -0.01169  -0.01165   1.71234
    A5        1.74268  -0.00157   0.00000  -0.00375  -0.00387   1.73881
    A6        1.61312   0.03216   0.00000   0.02763   0.02761   1.64072
    A7        2.08952   0.00166   0.00000  -0.00183  -0.00188   2.08764
    A8        2.06521  -0.00795   0.00000  -0.01045  -0.01041   2.05481
    A9        2.05056  -0.00429   0.00000   0.00754   0.00748   2.05804
   A10        2.13039   0.01139   0.00000  -0.03541  -0.03541   2.09498
   A11        2.14874   0.04103   0.00000   0.01315   0.01315   2.16190
    D1        0.77649  -0.00428   0.00000   0.13705   0.13701   0.91351
    D2        2.91293  -0.00443   0.00000   0.13047   0.13048   3.04341
    D3       -1.30308  -0.00197   0.00000   0.14376   0.14381  -1.15927
    D4       -2.26306   0.00274   0.00000   0.04570   0.04565  -2.21740
    D5       -0.12662   0.00259   0.00000   0.03912   0.03912  -0.08750
    D6        1.94055   0.00505   0.00000   0.05241   0.05245   1.99300
    D7       -0.42366  -0.00403   0.00000  -0.16410  -0.16423  -0.58790
    D8       -2.19207  -0.01533   0.00000  -0.16455  -0.16450  -2.35657
    D9        1.36384   0.01094   0.00000  -0.15221  -0.15213   1.21171
   D10        0.34628  -0.00075   0.00000   0.17786   0.17786   0.52414
         Item               Value     Threshold  Converged?
 Maximum Force            0.041028     0.000450     NO 
 RMS     Force            0.011974     0.000300     NO 
 Maximum Displacement     0.281545     0.001800     NO 
 RMS     Displacement     0.096863     0.001200     NO 
 Predicted change in Energy=-6.085524D-03
 Lowest energy point so far.  Saving SCF results.
 GradGradGradGradGradGradGradGradGradGradGradGradGradGradGradGradGradGrad

 Leave Link  103 at Sun May 25 05:42:25 2025, MaxMem=  3758096384 cpu:               0.0 elap:               0.0
 (Enter /apps/easybuild-2022/easybuild/software/Compiler/NVHPC/22.11-CUDA-11.7.0/Gaussian/g16c01-CUDA-11.7.0/g16/l202.exe)
                          Input orientation:                          
 ---------------------------------------------------------------------
 Center     Atomic      Atomic             Coordinates (Angstroms)
 Number     Number       Type             X           Y           Z
 ---------------------------------------------------------------------
      1          6           0        1.713967    0.076255   -0.104532
      2          9           0       -0.559552    0.568319    0.158186
      3          9           0        1.666538   -0.678428    0.894804
      4          9           0        1.450390   -0.545581   -1.157977
      5         16           0        2.165090    1.978923    0.015792
      6          8           0        3.379043    1.851503    0.744621
      7          8           0        2.207060    2.300594   -1.365351
      8          8           0        0.976658    2.317683    0.749843
      9          1           0       -0.518847    1.458425    0.442193
 ---------------------------------------------------------------------
                    Distance matrix (angstroms):
                    1          2          3          4          5
     1  C    0.000000
     2  F    2.340948   0.000000
     3  F    1.253184   2.655647   0.000000
     4  F    1.251359   2.648193   2.068400   0.000000
     5  S    1.959116   3.071441   2.843014   2.874309   0.000000
     6  O    2.577798   4.183658   3.058723   3.617402   1.421657
     7  O    2.603938   3.602233   3.778233   2.952333   1.418729
     8  O    2.509499   2.402139   3.077927   3.473109   1.437345
     9  H    2.682305   0.935204   3.089807   3.233338   2.766993
                    6          7          8          9
     6  O    0.000000
     7  O    2.455038   0.000000
     8  O    2.447204   2.447086   0.000000
     9  H    3.929315   3.377429   1.752001   0.000000
 Symmetry turned off by external request.
 Stoichiometry    CHF3O3S
 Rotational constants (GHZ):           2.3558304           1.4876689           1.3412549
 Leave Link  202 at Sun May 25 05:42:26 2025, MaxMem=  3758096384 cpu:               0.0 elap:               0.0
 (Enter /apps/easybuild-2022/easybuild/software/Compiler/NVHPC/22.11-CUDA-11.7.0/Gaussian/g16c01-CUDA-11.7.0/g16/l301.exe)
 Standard basis: def2TZVPP (5D, 7F)
 Ernie: Thresh=  0.10000D-02 Tol=  0.10000D-05 Strict=F.
   273 basis functions,   443 primitive gaussians,   315 cartesian basis functions
    37 alpha electrons       37 beta electrons
       nuclear repulsion energy       550.6363027849 Hartrees.
 IExCor= 4336 DFT=T Ex+Corr=M062X ExCW=0 ScaHFX=  0.540000
 ScaDFX=  1.000000  1.000000  1.000000  1.000000 ScalE2=  1.000000  1.000000
 IRadAn=      5 IRanWt=     -1 IRanGd=            0 ICorTp=0 IEmpDi=  4
 NAtoms=    9 NActive=    9 NUniq=    9 SFac= 1.00D+00 NAtFMM=   60 NAOKFM=F Big=F
 Integral buffers will be    131072 words long.
 Raffenetti 2 integral format.
 Two-electron integral symmetry is turned off.
 Leave Link  301 at Sun May 25 05:42:26 2025, MaxMem=  3758096384 cpu:               0.0 elap:               0.0
 (Enter /apps/easybuild-2022/easybuild/software/Compiler/NVHPC/22.11-CUDA-11.7.0/Gaussian/g16c01-CUDA-11.7.0/g16/l302.exe)
 NPDir=0 NMtPBC=     1 NCelOv=     1 NCel=       1 NClECP=     1 NCelD=      1
         NCelK=      1 NCelE2=     1 NClLst=     1 CellRange=     0.0.
 One-electron integrals computed using PRISM.
   1 Symmetry operations used in ECPInt.
 ECPInt:  NShTT=    4753 NPrTT=   15592 LenC2=    4569 LenP2D=   11398.
 LDataN:  DoStor=T MaxTD1= 6 Len=  172
 NBasis=   273 RedAO= T EigKep=  7.83D-04  NBF=   273
 NBsUse=   273 1.00D-06 EigRej= -1.00D+00 NBFU=   273
 Precomputing XC quadrature grid using
 IXCGrd= 4 IRadAn=           5 IRanWt=          -1 IRanGd=           0 AccXCQ= 0.00D+00.
 Generated NRdTot=       0 NPtTot=           0 NUsed=           0 NTot=          32
 NSgBfM=   312   311   311   312   312 MxSgAt=     9 MxSgA2=     9.
 Leave Link  302 at Sun May 25 05:42:26 2025, MaxMem=  3758096384 cpu:               0.6 elap:               0.1
 (Enter /apps/easybuild-2022/easybuild/software/Compiler/NVHPC/22.11-CUDA-11.7.0/Gaussian/g16c01-CUDA-11.7.0/g16/l303.exe)
 DipDrv:  MaxL=1.
 Leave Link  303 at Sun May 25 05:42:26 2025, MaxMem=  3758096384 cpu:               0.1 elap:               0.0
 (Enter /apps/easybuild-2022/easybuild/software/Compiler/NVHPC/22.11-CUDA-11.7.0/Gaussian/g16c01-CUDA-11.7.0/g16/l401.exe)
 Initial guess from the checkpoint file:  "/tmp/Gau-143009.chk"
 B after Tr=     0.011435    0.007040    0.026931
         Rot=    0.999992   -0.001299   -0.003513    0.001211 Ang=  -0.45 deg.
 Guess basis will be translated and rotated to current coordinates.
 JPrj=2 DoOrth=T DoCkMO=T.
 Generating alternative initial guess.
 ExpMin= 9.52D-02 ExpMax= 6.07D+04 ExpMxC= 2.07D+03 IAcc=3 IRadAn=         5 AccDes= 0.00D+00
 Harris functional with IExCor= 1009 and IRadAn=       5 diagonalized for initial guess.
 HarFok:  IExCor= 1009 AccDes= 0.00D+00 IRadAn=         5 IDoV= 1 UseB2=F ITyADJ=14
 ICtDFT=  3500011 ScaDFX=  1.000000  1.000000  1.000000  1.000000
 FoFCou: FMM=F IPFlag=           0 FMFlag=      100000 FMFlg1=           0
         NFxFlg=           0 DoJE=T BraDBF=F KetDBF=T FulRan=T
         wScrn=  0.000000 ICntrl=       500 IOpCl=  0 I1Cent=   200000004 NGrid=           0
         NMat0=    1 NMatS0=      1 NMatT0=    0 NMatD0=    1 NMtDS0=    0 NMtDT0=    0
 Symmetry not used in FoFCou.
 Harris En= -961.645099903707    
 Leave Link  401 at Sun May 25 05:42:26 2025, MaxMem=  3758096384 cpu:               2.8 elap:               0.4
 (Enter /apps/easybuild-2022/easybuild/software/Compiler/NVHPC/22.11-CUDA-11.7.0/Gaussian/g16c01-CUDA-11.7.0/g16/l502.exe)
 Keep R1 ints in memory in canonical form, NReq=715214082.
 FoFCou: FMM=F IPFlag=           0 FMFlag=           0 FMFlg1=           0
         NFxFlg=           0 DoJE=F BraDBF=F KetDBF=F FulRan=T
         wScrn=  0.000000 ICntrl=       600 IOpCl=  0 I1Cent=           0 NGrid=           0
         NMat0=    1 NMatS0=  37401 NMatT0=    0 NMatD0=    1 NMtDS0=    0 NMtDT0=    0
 Symmetry not used in FoFCou.
 Two-electron integral symmetry not used.
 Closed shell SCF:
 Using DIIS extrapolation, IDIIS=  1040.
 NGot=  3758096384 LenX=  3058457086 LenY=  3058357420
 Requested convergence on RMS density matrix=1.00D-08 within  32 cycles.
 Requested convergence on MAX density matrix=1.00D-06.
 Requested convergence on             energy=1.00D-06.
 No special actions if energy rises.
 Integral accuracy reduced to 1.0D-05 until final iterations.

 Cycle   1  Pass 0  IDiag  1:
 E= -962.029535335857    
 DIIS: error= 6.78D-03 at cycle   1 NSaved=   1.
 NSaved= 1 IEnMin= 1 EnMin= -962.029535335857     IErMin= 1 ErrMin= 6.78D-03
 ErrMax= 6.78D-03  0.00D+00 EMaxC= 1.00D-01 BMatC= 1.09D-02 BMatP= 1.09D-02
 IDIUse=3 WtCom= 9.32D-01 WtEn= 6.78D-02
 Coeff-Com:  0.100D+01
 Coeff-En:   0.100D+01
 Coeff:      0.100D+01
 Gap=     0.962 Goal=   None    Shift=    0.000
 GapD=    0.962 DampG=2.000 DampE=1.000 DampFc=2.0000 IDamp=-1.
 RMSDP=3.48D-04 MaxDP=9.90D-03              OVMax= 3.14D-02

 Cycle   2  Pass 0  IDiag  1:
 E= -962.041788241301     Delta-E=       -0.012252905444 Rises=F Damp=F
 DIIS: error= 7.34D-04 at cycle   2 NSaved=   2.
 NSaved= 2 IEnMin= 2 EnMin= -962.041788241301     IErMin= 2 ErrMin= 7.34D-04
 ErrMax= 7.34D-04  0.00D+00 EMaxC= 1.00D-01 BMatC= 4.04D-04 BMatP= 1.09D-02
 IDIUse=3 WtCom= 9.93D-01 WtEn= 7.34D-03
 Coeff-Com: -0.816D-01 0.108D+01
 Coeff-En:   0.000D+00 0.100D+01
 Coeff:     -0.810D-01 0.108D+01
 Gap=     0.286 Goal=   None    Shift=    0.000
 RMSDP=9.23D-05 MaxDP=3.45D-03 DE=-1.23D-02 OVMax= 9.22D-03

 Cycle   3  Pass 0  IDiag  1:
 E= -962.042260970746     Delta-E=       -0.000472729445 Rises=F Damp=F
 DIIS: error= 6.09D-04 at cycle   3 NSaved=   3.
 NSaved= 3 IEnMin= 3 EnMin= -962.042260970746     IErMin= 3 ErrMin= 6.09D-04
 ErrMax= 6.09D-04  0.00D+00 EMaxC= 1.00D-01 BMatC= 2.49D-04 BMatP= 4.04D-04
 IDIUse=3 WtCom= 9.94D-01 WtEn= 6.09D-03
 Coeff-Com: -0.609D-01 0.499D+00 0.562D+00
 Coeff-En:   0.000D+00 0.000D+00 0.100D+01
 Coeff:     -0.605D-01 0.496D+00 0.565D+00
 Gap=     0.283 Goal=   None    Shift=    0.000
 RMSDP=3.86D-05 MaxDP=2.55D-03 DE=-4.73D-04 OVMax= 4.31D-03

 Cycle   4  Pass 0  IDiag  1:
 E= -962.042415097734     Delta-E=       -0.000154126988 Rises=F Damp=F
 DIIS: error= 2.10D-04 at cycle   4 NSaved=   4.
 NSaved= 4 IEnMin= 4 EnMin= -962.042415097734     IErMin= 4 ErrMin= 2.10D-04
 ErrMax= 2.10D-04  0.00D+00 EMaxC= 1.00D-01 BMatC= 3.11D-05 BMatP= 2.49D-04
 IDIUse=3 WtCom= 9.98D-01 WtEn= 2.10D-03
 Coeff-Com: -0.105D-01 0.111D-01 0.255D+00 0.745D+00
 Coeff-En:   0.000D+00 0.000D+00 0.134D-01 0.987D+00
 Coeff:     -0.104D-01 0.111D-01 0.254D+00 0.745D+00
 Gap=     0.284 Goal=   None    Shift=    0.000
 RMSDP=1.40D-05 MaxDP=5.39D-04 DE=-1.54D-04 OVMax= 1.25D-03

 Cycle   5  Pass 0  IDiag  1:
 E= -962.042438488363     Delta-E=       -0.000023390629 Rises=F Damp=F
 DIIS: error= 6.40D-05 at cycle   5 NSaved=   5.
 NSaved= 5 IEnMin= 5 EnMin= -962.042438488363     IErMin= 5 ErrMin= 6.40D-05
 ErrMax= 6.40D-05  0.00D+00 EMaxC= 1.00D-01 BMatC= 2.22D-06 BMatP= 3.11D-05
 IDIUse=1 WtCom= 1.00D+00 WtEn= 0.00D+00
 Coeff-Com:  0.562D-03-0.355D-01 0.620D-01 0.293D+00 0.680D+00
 Coeff:      0.562D-03-0.355D-01 0.620D-01 0.293D+00 0.680D+00
 Gap=     0.284 Goal=   None    Shift=    0.000
 RMSDP=4.39D-06 MaxDP=1.56D-04 DE=-2.34D-05 OVMax= 4.56D-04

 Initial convergence to 1.0D-05 achieved.  Increase integral accuracy.
 Cycle   6  Pass 1  IDiag  1:
 E= -962.042436732931     Delta-E=        0.000001755431 Rises=F Damp=F
 DIIS: error= 3.50D-05 at cycle   1 NSaved=   1.
 NSaved= 1 IEnMin= 1 EnMin= -962.042436732931     IErMin= 1 ErrMin= 3.50D-05
 ErrMax= 3.50D-05  0.00D+00 EMaxC= 1.00D-01 BMatC= 8.52D-07 BMatP= 8.52D-07
 IDIUse=1 WtCom= 1.00D+00 WtEn= 0.00D+00
 Coeff-Com:  0.100D+01
 Coeff:      0.100D+01
 Gap=     0.284 Goal=   None    Shift=    0.000
 RMSDP=4.39D-06 MaxDP=1.56D-04 DE= 1.76D-06 OVMax= 2.97D-04

 Cycle   7  Pass 1  IDiag  1:
 E= -962.042436867433     Delta-E=       -0.000000134502 Rises=F Damp=F
 DIIS: error= 4.25D-05 at cycle   2 NSaved=   2.
 NSaved= 2 IEnMin= 2 EnMin= -962.042436867433     IErMin= 1 ErrMin= 3.50D-05
 ErrMax= 4.25D-05  0.00D+00 EMaxC= 1.00D-01 BMatC= 9.47D-07 BMatP= 8.52D-07
 IDIUse=1 WtCom= 1.00D+00 WtEn= 0.00D+00
 Coeff-Com:  0.516D+00 0.484D+00
 Coeff:      0.516D+00 0.484D+00
 Gap=     0.284 Goal=   None    Shift=    0.000
 RMSDP=2.15D-06 MaxDP=1.09D-04 DE=-1.35D-07 OVMax= 2.26D-04

 Cycle   8  Pass 1  IDiag  1:
 E= -962.042437462904     Delta-E=       -0.000000595471 Rises=F Damp=F
 DIIS: error= 1.14D-05 at cycle   3 NSaved=   3.
 NSaved= 3 IEnMin= 3 EnMin= -962.042437462904     IErMin= 3 ErrMin= 1.14D-05
 ErrMax= 1.14D-05  0.00D+00 EMaxC= 1.00D-01 BMatC= 4.81D-08 BMatP= 8.52D-07
 IDIUse=1 WtCom= 1.00D+00 WtEn= 0.00D+00
 Coeff-Com: -0.239D-01 0.157D+00 0.866D+00
 Coeff:     -0.239D-01 0.157D+00 0.866D+00
 Gap=     0.284 Goal=   None    Shift=    0.000
 RMSDP=6.73D-07 MaxDP=2.39D-05 DE=-5.95D-07 OVMax= 5.45D-05

 Cycle   9  Pass 1  IDiag  1:
 E= -962.042437498272     Delta-E=       -0.000000035367 Rises=F Damp=F
 DIIS: error= 5.46D-06 at cycle   4 NSaved=   4.
 NSaved= 4 IEnMin= 4 EnMin= -962.042437498272     IErMin= 4 ErrMin= 5.46D-06
 ErrMax= 5.46D-06  0.00D+00 EMaxC= 1.00D-01 BMatC= 9.97D-09 BMatP= 4.81D-08
 IDIUse=1 WtCom= 1.00D+00 WtEn= 0.00D+00
 Coeff-Com: -0.410D-01 0.559D-01 0.453D+00 0.532D+00
 Coeff:     -0.410D-01 0.559D-01 0.453D+00 0.532D+00
 Gap=     0.284 Goal=   None    Shift=    0.000
 RMSDP=2.02D-07 MaxDP=9.03D-06 DE=-3.54D-08 OVMax= 2.11D-05

 Cycle  10  Pass 1  IDiag  1:
 E= -962.042437504825     Delta-E=       -0.000000006553 Rises=F Damp=F
 DIIS: error= 7.82D-07 at cycle   5 NSaved=   5.
 NSaved= 5 IEnMin= 5 EnMin= -962.042437504825     IErMin= 5 ErrMin= 7.82D-07
 ErrMax= 7.82D-07  0.00D+00 EMaxC= 1.00D-01 BMatC= 2.99D-10 BMatP= 9.97D-09
 IDIUse=1 WtCom= 1.00D+00 WtEn= 0.00D+00
 Coeff-Com: -0.285D-03-0.199D-01-0.104D+00 0.370D-01 0.109D+01
 Coeff:     -0.285D-03-0.199D-01-0.104D+00 0.370D-01 0.109D+01
 Gap=     0.284 Goal=   None    Shift=    0.000
 RMSDP=1.00D-07 MaxDP=3.32D-06 DE=-6.55D-09 OVMax= 1.01D-05

 Cycle  11  Pass 1  IDiag  1:
 E= -962.042437505350     Delta-E=       -0.000000000526 Rises=F Damp=F
 DIIS: error= 3.50D-07 at cycle   6 NSaved=   6.
 NSaved= 6 IEnMin= 6 EnMin= -962.042437505350     IErMin= 6 ErrMin= 3.50D-07
 ErrMax= 3.50D-07  0.00D+00 EMaxC= 1.00D-01 BMatC= 6.42D-11 BMatP= 2.99D-10
 IDIUse=1 WtCom= 1.00D+00 WtEn= 0.00D+00
 Coeff-Com:  0.222D-02-0.119D-01-0.705D-01-0.101D-01 0.488D+00 0.602D+00
 Coeff:      0.222D-02-0.119D-01-0.705D-01-0.101D-01 0.488D+00 0.602D+00
 Gap=     0.284 Goal=   None    Shift=    0.000
 RMSDP=2.19D-08 MaxDP=1.47D-06 DE=-5.26D-10 OVMax= 2.68D-06

 Cycle  12  Pass 1  IDiag  1:
 E= -962.042437505377     Delta-E=       -0.000000000027 Rises=F Damp=F
 DIIS: error= 1.44D-07 at cycle   7 NSaved=   7.
 NSaved= 7 IEnMin= 7 EnMin= -962.042437505377     IErMin= 7 ErrMin= 1.44D-07
 ErrMax= 1.44D-07  0.00D+00 EMaxC= 1.00D-01 BMatC= 8.39D-12 BMatP= 6.42D-11
 IDIUse=1 WtCom= 1.00D+00 WtEn= 0.00D+00
 Coeff-Com:  0.114D-02-0.219D-02-0.150D-01-0.120D-01 0.203D-01 0.262D+00
 Coeff-Com:  0.746D+00
 Coeff:      0.114D-02-0.219D-02-0.150D-01-0.120D-01 0.203D-01 0.262D+00
 Coeff:      0.746D+00
 Gap=     0.284 Goal=   None    Shift=    0.000
 RMSDP=9.93D-09 MaxDP=5.22D-07 DE=-2.66D-11 OVMax= 1.09D-06

 SCF Done:  E(RM062X) =  -962.042437505     A.U. after   12 cycles
            NFock= 12  Conv=0.99D-08     -V/T= 2.0026
 KE= 9.595504610941D+02 PE=-3.383124564936D+03 EE= 9.108953635521D+02
 Leave Link  502 at Sun May 25 05:42:39 2025, MaxMem=  3758096384 cpu:              63.2 elap:              13.1
 (Enter /apps/easybuild-2022/easybuild/software/Compiler/NVHPC/22.11-CUDA-11.7.0/Gaussian/g16c01-CUDA-11.7.0/g16/l508.exe)
 QCSCF skips out because SCF is already converged.
 Leave Link  508 at Sun May 25 05:42:39 2025, MaxMem=  3758096384 cpu:               0.0 elap:               0.0
 (Enter /apps/easybuild-2022/easybuild/software/Compiler/NVHPC/22.11-CUDA-11.7.0/Gaussian/g16c01-CUDA-11.7.0/g16/l801.exe)
 DoSCS=F DFT=T ScalE2(SS,OS)=  1.000000  1.000000
 Range of M.O.s used for correlation:     1   273
 NBasis=   273 NAE=    37 NBE=    37 NFC=     0 NFV=     0
 NROrb=    273 NOA=    37 NOB=    37 NVA=   236 NVB=   236

 **** Warning!!: The largest alpha MO coefficient is  0.11217199D+02

 Leave Link  801 at Sun May 25 05:42:39 2025, MaxMem=  3758096384 cpu:               0.0 elap:               0.0
 (Enter /apps/easybuild-2022/easybuild/software/Compiler/NVHPC/22.11-CUDA-11.7.0/Gaussian/g16c01-CUDA-11.7.0/g16/l1101.exe)
 Using compressed storage, NAtomX=     9.
 Will process     10 centers per pass.
   1 Symmetry operations used in ECPInt.
 ECPInt:  NShTT=    4753 NPrTT=   15592 LenC2=    4569 LenP2D=   11398.
 LDataN:  DoStor=T MaxTD1= 7 Len=  274
 Leave Link 1101 at Sun May 25 05:42:39 2025, MaxMem=  3758096384 cpu:               0.7 elap:               0.1
 (Enter /apps/easybuild-2022/easybuild/software/Compiler/NVHPC/22.11-CUDA-11.7.0/Gaussian/g16c01-CUDA-11.7.0/g16/l1102.exe)
 Symmetrizing basis deriv contribution to polar:
 IMax=3 JMax=2 DiffMx= 0.00D+00
 Leave Link 1102 at Sun May 25 05:42:39 2025, MaxMem=  3758096384 cpu:               0.1 elap:               0.0
 (Enter /apps/easybuild-2022/easybuild/software/Compiler/NVHPC/22.11-CUDA-11.7.0/Gaussian/g16c01-CUDA-11.7.0/g16/l1110.exe)
 Forming Gx(P) for the SCF density, NAtomX=     9.
 Integral derivatives from FoFJK, PRISM(SPDF).
 Do as many integral derivatives as possible in FoFJK.
 G2DrvN: MDV=    3758095321.
 G2DrvN: will do    10 centers at a time, making    1 passes.
 Calling FoFCou, ICntrl=  3107 FMM=F I1Cent=   0 AccDes= 0.00D+00.
 FoFJK:  IHMeth= 1 ICntrl=    3107 DoSepK=F KAlg= 0 I1Cent=           0 FoldK=F
 IRaf=         0 NMat=       1 IRICut=       1 DoRegI=T DoRafI=F ISym2E= 0 IDoP0=0 IntGTp=1.
 FoFCou: FMM=F IPFlag=           0 FMFlag=      100000 FMFlg1=           0
         NFxFlg=           0 DoJE=F BraDBF=F KetDBF=F FulRan=T
         wScrn=  0.000000 ICntrl=      3107 IOpCl=  0 I1Cent=           0 NGrid=           0
         NMat0=    1 NMatS0=      1 NMatT0=    0 NMatD0=    1 NMtDS0=    0 NMtDT0=    0
 Symmetry not used in FoFCou.
 End of G2Drv F.D. properties file   721 does not exist.
 End of G2Drv F.D. properties file   722 does not exist.
 End of G2Drv F.D. properties file   788 does not exist.
 Leave Link 1110 at Sun May 25 05:43:02 2025, MaxMem=  3758096384 cpu:             178.3 elap:              22.5
 (Enter /apps/easybuild-2022/easybuild/software/Compiler/NVHPC/22.11-CUDA-11.7.0/Gaussian/g16c01-CUDA-11.7.0/g16/l1002.exe)
 Minotr:  Closed shell wavefunction.
          IDoAtm=111111111
          Direct CPHF calculation.
          Differentiating once with respect to electric field.
                with respect to dipole field.
          Differentiating once with respect to nuclear coordinates.
          Requested convergence is 1.0D-08 RMS, and 1.0D-07 maximum.
          Secondary convergence is 1.0D-12 RMS, and 1.0D-12 maximum.
          NewPWx=T KeepS1=F KeepF1=F KeepIn=T MapXYZ=F SortEE=F KeepMc=T.
         2690 words used for storage of precomputed grid.
 Keep R1 ints in memory in canonical form, NReq=715218551.
 FoFCou: FMM=F IPFlag=           0 FMFlag=           0 FMFlg1=           0
         NFxFlg=           0 DoJE=F BraDBF=F KetDBF=F FulRan=T
         wScrn=  0.000000 ICntrl=       600 IOpCl=  0 I1Cent=           0 NGrid=           0
         NMat0=    1 NMatS0=  37401 NMatT0=    0 NMatD0=    1 NMtDS0=    0 NMtDT0=    0
 Symmetry not used in FoFCou.
 Two-electron integral symmetry not used.
          MDV=    3758096384 using IRadAn=       1.
          Solving linear equations simultaneously, MaxMat=       0.
          There are    30 degrees of freedom in the 1st order CPHF.  IDoFFX=6 NUNeed=     3.
     27 vectors produced by pass  0 Test12= 2.91D-14 3.33D-09 XBig12= 2.01D+01 1.84D+00.
 AX will form    27 AO Fock derivatives at one time.
     27 vectors produced by pass  1 Test12= 2.91D-14 3.33D-09 XBig12= 4.45D+00 4.61D-01.
     27 vectors produced by pass  2 Test12= 2.91D-14 3.33D-09 XBig12= 1.44D-01 7.33D-02.
     27 vectors produced by pass  3 Test12= 2.91D-14 3.33D-09 XBig12= 5.28D-03 1.62D-02.
     27 vectors produced by pass  4 Test12= 2.91D-14 3.33D-09 XBig12= 8.63D-05 2.33D-03.
     27 vectors produced by pass  5 Test12= 2.91D-14 3.33D-09 XBig12= 8.88D-07 2.15D-04.
     27 vectors produced by pass  6 Test12= 2.91D-14 3.33D-09 XBig12= 5.16D-09 1.40D-05.
     16 vectors produced by pass  7 Test12= 2.91D-14 3.33D-09 XBig12= 3.22D-11 7.36D-07.
      4 vectors produced by pass  8 Test12= 2.91D-14 3.33D-09 XBig12= 1.76D-13 6.33D-08.
      1 vectors produced by pass  9 Test12= 2.91D-14 3.33D-09 XBig12= 9.04D-16 4.17D-09.
 InvSVY:  IOpt=1 It=  1 EMax= 4.44D-15
 Solved reduced A of dimension   210 with    30 vectors.
 FullF1:  Do perturbations      1 to       3.
 Isotropic polarizability for W=    0.000000       43.73 Bohr**3.
 End of Minotr F.D. properties file   721 does not exist.
 End of Minotr F.D. properties file   722 does not exist.
 End of Minotr F.D. properties file   788 does not exist.
 Leave Link 1002 at Sun May 25 05:43:36 2025, MaxMem=  3758096384 cpu:             265.9 elap:              34.2
 (Enter /apps/easybuild-2022/easybuild/software/Compiler/NVHPC/22.11-CUDA-11.7.0/Gaussian/g16c01-CUDA-11.7.0/g16/l701.exe)
 ... and contract with generalized density number  0.
 Compute integral second derivatives.
   1 Symmetry operations used in ECPInt.
 ECPInt:  NShTT=    4753 NPrTT=   15592 LenC2=    4569 LenP2D=   11398.
 LDataN:  DoStor=T MaxTD1= 8 Len=  415
 Leave Link  701 at Sun May 25 05:43:36 2025, MaxMem=  3758096384 cpu:               0.7 elap:               0.1
 (Enter /apps/easybuild-2022/easybuild/software/Compiler/NVHPC/22.11-CUDA-11.7.0/Gaussian/g16c01-CUDA-11.7.0/g16/l702.exe)
 L702 exits ... SP integral derivatives will be done elsewhere.
 Leave Link  702 at Sun May 25 05:43:36 2025, MaxMem=  3758096384 cpu:               0.0 elap:               0.0
 (Enter /apps/easybuild-2022/easybuild/software/Compiler/NVHPC/22.11-CUDA-11.7.0/Gaussian/g16c01-CUDA-11.7.0/g16/l703.exe)
 Integral derivatives from FoFJK, PRISM(SPDF).
 Compute integral second derivatives, UseDBF=F ICtDFT=           0.
 Calling FoFJK, ICntrl=    100127 FMM=F ISym2X=0 I1Cent= 0 IOpClX= 0 NMat=1 NMatS=1 NMatT=0.
 FoFJK:  IHMeth= 1 ICntrl=  100127 DoSepK=F KAlg= 0 I1Cent=           0 FoldK=F
 IRaf=         0 NMat=       1 IRICut=       1 DoRegI=T DoRafI=F ISym2E= 0 IDoP0=0 IntGTp=1.
 FoFCou: FMM=F IPFlag=           0 FMFlag=      100000 FMFlg1=         800
         NFxFlg=           0 DoJE=F BraDBF=F KetDBF=F FulRan=T
         wScrn=  0.000000 ICntrl=    100127 IOpCl=  0 I1Cent=           0 NGrid=           0
         NMat0=    1 NMatS0=      1 NMatT0=    0 NMatD0=    1 NMtDS0=    0 NMtDT0=    0
 Symmetry not used in FoFCou.
 Leave Link  703 at Sun May 25 05:44:26 2025, MaxMem=  3758096384 cpu:             397.1 elap:              50.0
 (Enter /apps/easybuild-2022/easybuild/software/Compiler/NVHPC/22.11-CUDA-11.7.0/Gaussian/g16c01-CUDA-11.7.0/g16/l716.exe)
 Dipole        =-3.66882105D-01-1.29225248D+00 2.37276728D-02
 Polarizability= 4.35952800D+01 2.15449201D+00 4.55567124D+01
                 3.98940219D-01 4.56228469D-01 4.20517731D+01
 -------------------------------------------------------------------
 Center     Atomic                   Forces (Hartrees/Bohr)
 Number     Number              X              Y              Z
 -------------------------------------------------------------------
      1        6          -0.007543717   -0.002932506   -0.000391726
      2        9          -0.011315700   -0.007874057   -0.003116393
      3        9           0.003714846   -0.000061014    0.004235690
      4        9           0.002960501   -0.000028820   -0.005212663
      5       16          -0.002968635   -0.007519828    0.000761239
      6        8          -0.001352959    0.002889730    0.000444386
      7        8          -0.000199179    0.002151648    0.000464603
      8        8           0.010784351    0.015453569    0.003692312
      9        1           0.005920491   -0.002078724   -0.000877449
 -------------------------------------------------------------------
 Cartesian Forces:  Max     0.015453569 RMS     0.005521660
 Force constants in Cartesian coordinates: 
                1             2             3             4             5 
      1  0.169041D+00
      2  0.122977D+00  0.623376D+00
      3  0.638541D-01 -0.175746D-01  0.705932D+00
      4  0.340166D-02 -0.909947D-02 -0.234211D-02  0.347783D-01
      5 -0.147509D-01 -0.477515D-02  0.169662D-02  0.401656D-01  0.509358D+00
      6 -0.469028D-02  0.161742D-02 -0.818265D-02  0.135502D-01  0.160127D+00
      7 -0.441105D-01 -0.362875D-01  0.169933D-01 -0.625617D-02  0.761376D-02
      8 -0.361736D-01 -0.289444D+00  0.208282D+00  0.478155D-02  0.652513D-03
      9  0.220831D-01  0.215539D+00 -0.311494D+00 -0.359738D-02  0.971005D-03
     10 -0.655382D-01 -0.750676D-01 -0.828164D-01 -0.395779D-02  0.720391D-02
     11 -0.716801D-01 -0.240190D+00 -0.190192D+00  0.467182D-02  0.936700D-03
     12 -0.877934D-01 -0.199310D+00 -0.345493D+00  0.590284D-02 -0.264207D-02
     13 -0.588150D-01 -0.858395D-02  0.466495D-02  0.208222D-02  0.128014D-01
     14 -0.269937D-01 -0.835189D-01  0.330350D-02  0.320278D-02 -0.166591D-01
     15  0.309100D-02  0.717562D-02 -0.104843D-01 -0.598311D-02 -0.127954D-01
     16 -0.921502D-02  0.459089D-02 -0.140733D-01 -0.328552D-02 -0.382621D-02
     17 -0.217339D-01  0.650319D-02 -0.866403D-02 -0.158640D-02  0.417892D-02
     18 -0.858252D-02  0.314328D-02 -0.680990D-02 -0.706726D-03  0.134740D-02
     19  0.672549D-02 -0.264590D-02  0.375371D-02  0.123768D-03 -0.154435D-02
     20  0.499665D-03 -0.534647D-02  0.221998D-01 -0.156534D-02  0.247921D-02
     21 -0.504447D-02 -0.634562D-02 -0.184398D-01  0.323060D-02  0.243853D-02
     22 -0.100621D-01 -0.255294D-02  0.873461D-02 -0.177505D-01 -0.386387D-01
     23  0.341441D-01 -0.704045D-02 -0.169623D-01 -0.199248D-01 -0.131070D-01
     24  0.128939D-01 -0.327305D-02 -0.738730D-02 -0.366962D-02  0.763796D-03
     25  0.857262D-02  0.666934D-02  0.123115D-02 -0.913600D-02 -0.902453D-02
     26  0.137113D-01  0.435350D-03 -0.208926D-02 -0.206457D-01 -0.483064D+00
     27  0.418857D-02 -0.971556D-03  0.235878D-02 -0.638467D-02 -0.151907D+00
                6             7             8             9            10 
      6  0.582387D-01
      7 -0.258839D-02  0.253882D-01
      8 -0.153570D-03  0.215202D-01  0.238171D+00
      9  0.269849D-02 -0.148086D-02 -0.231322D+00  0.434125D+00
     10  0.599901D-02  0.120469D-01  0.783489D-02 -0.126956D-01  0.438809D-01
     11 -0.786241D-03  0.921124D-02  0.422494D-01  0.166786D-01  0.601676D-01
     12  0.657786D-04 -0.152946D-01  0.309758D-02 -0.123835D+00  0.966021D-01
     13  0.352922D-02  0.183759D-01  0.596681D-02 -0.748236D-02  0.242631D-01
     14 -0.599605D-02  0.589131D-02  0.305890D-01 -0.983978D-02  0.100947D-01
     15 -0.627791D-02  0.424327D-02  0.309835D-01 -0.102584D-01 -0.824777D-02
     16 -0.528048D-03 -0.126719D-02 -0.547110D-02  0.364112D-02 -0.414865D-02
     17  0.148937D-02  0.339356D-02 -0.274017D-02  0.187455D-03  0.236265D-02
     18  0.105008D-02 -0.141786D-03 -0.729007D-02  0.389974D-02  0.144364D-03
     19 -0.326498D-03 -0.204875D-02 -0.277180D-02  0.147001D-02 -0.248717D-02
     20  0.963529D-03 -0.260137D-02 -0.135860D-01  0.348975D-02 -0.593843D-04
     21  0.228321D-02  0.169110D-02  0.305622D-02  0.192153D-02  0.327705D-02
     22 -0.123775D-01  0.621383D-03  0.579873D-02 -0.207904D-02 -0.216490D-03
     23 -0.594248D-02 -0.656503D-02 -0.391651D-02  0.373564D-02 -0.988039D-02
     24  0.676756D-02 -0.275182D-02 -0.724002D-02  0.393164D-02 -0.167282D-02
     25 -0.256770D-02 -0.274973D-02 -0.148576D-02  0.141018D-03 -0.384256D-02
     26 -0.151319D+00 -0.217620D-02 -0.197528D-02  0.560565D-03 -0.265638D-02
     27 -0.566432D-01 -0.670215D-03  0.586078D-03 -0.989207D-03 -0.589903D-03
               11            12            13            14            15 
     11  0.184316D+00
     12  0.193225D+00  0.473721D+00
     13 -0.497587D-03  0.104252D-02  0.107307D+01
     14  0.377148D-01  0.160678D-01 -0.140194D+00  0.323820D+00
     15 -0.215667D-01 -0.145753D-01  0.204770D-01 -0.116284D+00  0.116891D+01
     16 -0.776739D-02 -0.151594D-02 -0.508516D+00  0.470568D-01 -0.254897D+00
     17 -0.111125D-01 -0.520675D-02  0.281344D-01 -0.845537D-01  0.246707D-01
[...]
     18 -0.149833D-02  0.176005D-02 -0.247984D+00  0.378130D-01 -0.235391D+00
     19 -0.220998D-03 -0.372745D-03 -0.924506D-01  0.681978D-03  0.667803D-02
     20 -0.152260D-02 -0.421566D-05  0.780243D-03 -0.115045D+00  0.144712D+00
     21  0.779228D-02  0.873212D-02  0.317190D-02  0.135546D+00 -0.657286D+00
     22  0.498159D-02 -0.549059D-03 -0.377432D+00  0.108433D+00  0.191788D+00
     23 -0.115177D-01 -0.511432D-02  0.134529D+00 -0.139808D+00 -0.899596D-01
     24 -0.209261D-02  0.134735D-02  0.201569D+00 -0.794230D-01 -0.233007D+00
     25 -0.302836D-02  0.151241D-03 -0.336493D-01  0.144009D-01  0.204525D-01
     26 -0.264530D-02  0.151066D-02 -0.268850D-01  0.351514D-01  0.251487D-01
     27 -0.149055D-02 -0.552927D-03 -0.284470D-02  0.128965D-01  0.137493D-01
               16            17            18            19            20 
     16  0.566277D+00
     17 -0.600603D-01  0.565107D-01
     18  0.276424D+00 -0.348065D-01  0.235562D+00
     19  0.531913D-02  0.139226D-01 -0.423979D-01  0.778537D-01
     20 -0.777856D-03  0.193841D-01  0.626378D-02 -0.436648D-02  0.941663D-01
     21  0.102553D-02  0.109596D-01 -0.169731D-01 -0.957947D-02 -0.160613D+00
     22 -0.360609D-01  0.269340D-01  0.238007D-01  0.409039D-02  0.103631D-01
     23  0.447308D-02  0.191074D-01 -0.362458D-02 -0.472163D-02  0.209551D-01
     24 -0.178145D-01  0.441307D-02  0.172503D-01  0.396430D-01 -0.151702D-01
     25  0.482366D-02 -0.447950D-02 -0.134684D-02  0.267580D-02 -0.200665D-02
     26  0.613383D-02 -0.925046D-02 -0.359385D-02  0.338761D-02 -0.510367D-02
     27  0.107594D-02 -0.301369D-02 -0.185401D-02  0.231536D-04 -0.227433D-02
               21            22            23            24            25 
     21  0.707510D+00
     22  0.853325D-02  0.412814D+00
     23  0.107182D-01 -0.136756D+00  0.145977D+00
     24 -0.234066D-01 -0.221087D+00  0.110872D+00  0.248008D+00
     25 -0.556077D-02  0.236302D-01  0.660507D-02 -0.579448D-02  0.395408D-01
     26 -0.495897D-02  0.408664D-01 -0.484377D-02 -0.104807D-01  0.487738D-01
     27 -0.414310D-02  0.133353D-01  0.195889D-03 -0.148031D-01  0.165672D-01
               26            27 
     26  0.321594D+00
     27  0.115940D+00  0.678144D-01
 Red2BG is reusing G-inverse.
 Force constants in internal coordinates: 
                1             2             3             4             5 
      1  0.569952D+00
      2  0.852448D-01  0.579339D+00
      3 -0.758512D-02 -0.973149D-02  0.926341D-01
      4 -0.121946D-02 -0.675867D-03 -0.744548D-02  0.457131D+00
      5  0.853199D-02  0.449110D-02  0.138671D-01  0.459163D-02  0.729900D+00
      6  0.293667D-02  0.114379D-01  0.743525D-02  0.446490D-02  0.842937D-02
      7  0.214001D-01  0.177364D-01  0.113482D-01 -0.171764D-01  0.132987D-01
      8  0.744305D-02  0.594368D-02 -0.119689D-01  0.791119D-01 -0.829248D-03
      9  0.475971D-01  0.487551D-01  0.143957D-01 -0.803541D-02 -0.792710D-02
     10 -0.103310D-01 -0.369803D-01 -0.901791D-02  0.493411D-02  0.166844D-03
     11 -0.376273D-01 -0.121955D-01 -0.781859D-02  0.607732D-02  0.816203D-02
     12 -0.199635D-01 -0.778087D-02 -0.892688D-02 -0.972496D-02  0.242542D-01
     13  0.123867D-01 -0.154248D-01  0.136685D-01 -0.714602D-03 -0.896930D-02
     14  0.424003D-01  0.580182D-01  0.422240D-01 -0.165529D-02 -0.170239D-01
     15  0.884520D-03 -0.116693D-02 -0.375259D-02 -0.251023D-02  0.723320D-02
     16 -0.931730D-02 -0.813593D-02 -0.972158D-02  0.756397D-02  0.749951D-02
     17 -0.870623D-02 -0.745647D-02 -0.980714D-02  0.113109D-02 -0.139982D-01
     18  0.596189D-01  0.599227D-01 -0.799007D-02  0.484089D-01  0.407725D-02
     19  0.276177D-01  0.271924D-01 -0.179405D-01  0.457651D-01  0.411257D-02
     20  0.794606D-03  0.766967D-02 -0.280016D-02  0.792777D-02 -0.120045D-02
     21 -0.754049D-03 -0.303655D-04 -0.564127D-02  0.224706D-02  0.110656D-01
     22  0.529812D-02  0.441135D-02 -0.456085D-03  0.277974D-02 -0.107604D-01
     23 -0.549396D-02  0.156001D-02  0.523671D-02 -0.341829D-02 -0.159874D-02
     24 -0.704262D-02 -0.614003D-02  0.239559D-02 -0.909900D-02  0.106673D-01
     25 -0.990444D-03 -0.169832D-02  0.758078D-02 -0.856632D-02 -0.111587D-01
     26 -0.230062D-01 -0.489079D-02 -0.128653D-01 -0.760090D-02  0.148112D-01
     27 -0.208154D-01 -0.255505D-01 -0.231512D-01  0.248778D-02 -0.571297D-02
     28  0.129022D-01  0.801884D-02  0.241087D-01 -0.904056D-02 -0.932157D-02
     29  0.389867D-03 -0.133824D-03 -0.319577D-02  0.544383D-03  0.112095D-02
                6             7             8             9            10 
      6  0.747005D+00
      7  0.144190D-01  0.678784D+00
      8 -0.739540D-03  0.126380D-01  0.327076D-01
      9 -0.706670D-02 -0.501976D-02  0.216251D-02  0.196517D+00
     10  0.843900D-02 -0.711263D-03 -0.944389D-03 -0.101393D+00  0.103234D+00
     11 -0.844136D-03  0.330852D-02 -0.210162D-02 -0.102134D+00  0.306928D-02
     12 -0.113574D-01 -0.334232D-01  0.253772D-01 -0.116903D-01  0.375938D-02
     13  0.174403D-01 -0.254970D-01  0.123841D-01 -0.824107D-02  0.226294D-01
     14 -0.888064D-02  0.892655D-01 -0.397984D-01  0.116845D-01 -0.277278D-01
     15  0.705678D-02 -0.118471D-01  0.592432D-03  0.268752D-02 -0.133311D-02
     16 -0.143431D-01 -0.118773D-02  0.140562D-02  0.111533D-02 -0.385791D-03
     17  0.831416D-02 -0.854040D-03 -0.160111D-02  0.584453D-03  0.188099D-02
     18  0.101515D-01  0.117736D+00 -0.165354D-01  0.194560D-01 -0.166964D-01
     19  0.779196D-02  0.192116D-01  0.237322D-01  0.491056D-02 -0.585026D-02
     20 -0.883140D-02  0.100291D-01 -0.767819D-02  0.225654D-02 -0.126253D-02
     21  0.158344D-05 -0.191446D-01  0.374475D-02 -0.584002D-03  0.459158D-02
     22  0.108090D-01 -0.163972D-02 -0.587074D-02  0.114796D-02  0.471661D-02
     23 -0.994570D-02  0.211617D-01 -0.427525D-02  0.161571D-04 -0.582789D-02
     24 -0.111271D-02 -0.801200D-02  0.714769D-02 -0.282438D-02  0.262147D-04
     25  0.969469D-02  0.949291D-02 -0.246780D-02 -0.109242D-02  0.151252D-03
     26 -0.151344D-01 -0.130329D-01  0.823603D-02 -0.596995D-02 -0.212731D-02
     27  0.654404D-02 -0.231543D-01  0.483115D-03  0.775245D-03  0.882353D-02
     28  0.245062D-02  0.787011D-02 -0.481390D-03 -0.871465D-02  0.889720D-02
     29 -0.161873D-02  0.336582D-02 -0.211682D-03 -0.145612D-02  0.209024D-02
               11            12            13            14            15 
     11  0.103423D+00
     12  0.116427D-01  0.108438D+00
     13 -0.133113D-01  0.336973D-02  0.123123D+00
     14  0.567155D-02 -0.628803D-01 -0.583100D-01  0.330241D+00
     15 -0.209049D-02 -0.193641D-01 -0.151000D-01  0.203022D-01  0.690598D-01
     16  0.870329D-03 -0.197308D-01  0.979503D-02 -0.639351D-01 -0.311152D-01
     17 -0.645846D-03  0.132241D-01 -0.304439D-01 -0.576601D-01 -0.309154D-01
     18 -0.174988D-01 -0.753895D-02 -0.176633D-01  0.150108D+00  0.786331D-02
     19 -0.417448D-02  0.905009D-02  0.108898D-01  0.124319D-01  0.571197D-03
     20  0.323380D-02  0.456432D-02 -0.124277D-01 -0.134014D-01 -0.327109D-01
     21  0.826644D-03  0.168890D-01  0.617326D-02 -0.263384D-01  0.300903D-01
     22 -0.175597D-02  0.139582D-01 -0.977445D-02 -0.925995D-02 -0.590674D-03
     23  0.157675D-02 -0.930061D-02 -0.157437D-01  0.288854D-01 -0.300198D-01
     24 -0.830409D-03  0.302410D-02  0.285723D-02  0.159484D-01  0.327814D-01
     25 -0.341303D-02  0.932448D-04 -0.130905D-01  0.330269D-01  0.210040D-02
     26  0.125578D-01  0.555888D-01 -0.555497D-01 -0.247697D-01 -0.217276D-02
     27 -0.414955D-02 -0.294034D-01 -0.300990D-01 -0.116371D+00  0.171512D-01
     28  0.164002D-03  0.276223D-01  0.451792D-01  0.784657D-01 -0.171267D-01
     29  0.211760D-03  0.103634D-01 -0.109759D-01  0.318633D-02 -0.812332D-04
               16            17            18            19            20 
     16  0.915671D-01
     17 -0.229962D-01  0.908597D-01
     18 -0.388886D-01 -0.302738D-01  0.276268D+00
     19 -0.546690D-02 -0.113990D-01  0.588234D-01  0.895024D-01
     20  0.363455D-01  0.745420D-02 -0.250009D-01 -0.144871D-01  0.360938D-01
     21  0.529800D-03 -0.294429D-01 -0.237485D-01 -0.827470D-02 -0.326967D-03
     22 -0.389913D-01  0.416166D-01 -0.179236D-01 -0.138684D-01  0.452884D-03
     23  0.293608D-01 -0.386922D-03  0.345214D-01  0.647027D-02  0.177512D-01
     24 -0.645494D-02 -0.372840D-01  0.357738D-01  0.126827D-01 -0.186695D-01
     25 -0.459760D-01  0.337755D-01  0.415987D-01  0.708892D-02 -0.178897D-01
     26 -0.398394D-02  0.185000D-01 -0.144014D-01 -0.126325D-01  0.210211D-01
     27  0.295762D-01  0.408984D-01 -0.776279D-01 -0.283927D-01  0.135493D-01
     28 -0.356294D-01 -0.231275D-01  0.415881D-01  0.373675D-02  0.117229D-02
     29 -0.566803D-02  0.448049D-02  0.111696D-01 -0.211186D-02  0.536803D-02
               21            22            23            24            25 
     21  0.379219D-01
     22  0.126196D-02  0.397294D-01
     23 -0.208039D-01 -0.172258D-01  0.357797D-01
     24  0.174450D-01 -0.164168D-01 -0.277535D-02  0.333392D-01
     25 -0.192149D-01  0.220506D-01  0.802666D-03 -0.522577D-03  0.407430D-01
     26  0.199114D-01  0.177378D-01  0.305307D-02  0.194342D-02 -0.230223D-03
     27  0.147774D-01  0.170226D-01 -0.978570D-02 -0.855761D-02 -0.631236D-02
     28  0.354934D-02  0.132448D-01  0.110059D-02  0.347764D-02  0.131731D-01
     29  0.533295D-02  0.804133D-02  0.200324D-02  0.196816D-02  0.467654D-02
               26            27            28            29 
     26  0.747150D-01
     27  0.254496D-01  0.115111D+00
     28  0.164216D-02 -0.636452D-01  0.918496D-01
     29  0.218775D-01  0.971912D-02  0.122687D-01  0.199543D-01
 Leave Link  716 at Sun May 25 06:12:50 2025, MaxMem=  3758096384 cpu:               0.0 elap:               0.0
 (Enter /apps/easybuild-2022/easybuild/software/Compiler/NVHPC/22.11-CUDA-11.7.0/Gaussian/g16c01-CUDA-11.7.0/g16/l9999.exe)

 ----------------------------------------------------------------------

 Electric dipole moment (input orientation):
 (Debye = 10**-18 statcoulomb cm , SI units = C m)
                  (au)            (Debye)         (10**-30 SI)
   Tot        0.141747D+01      0.360284D+01      0.120178D+02
   x         -0.326529D+00     -0.829953D+00     -0.276843D+01
   y         -0.137864D+01     -0.350416D+01     -0.116886D+02
   z          0.440477D-01      0.111958D+00      0.373452D+00

 Dipole polarizability, Alpha (input orientation).
 (esu units = cm**3 , SI units = C**2 m**2 J**-1)
 Alpha(0;0):
               (au)            (10**-24 esu)      (10**-40 SI)
   iso        0.444037D+02      0.657994D+01      0.732117D+01
   aniso      0.590688D+01      0.875309D+00      0.973913D+00
   xx         0.460386D+02      0.682222D+01      0.759075D+01
   yx         0.253354D+01      0.375432D+00      0.417724D+00
   yy         0.452345D+02      0.670306D+01      0.745816D+01
   zx         0.498343D+00      0.738468D-01      0.821656D-01
   zy         0.491344D+00      0.728096D-01      0.810116D-01
   zz         0.419378D+02      0.621455D+01      0.691462D+01

 ----------------------------------------------------------------------

 Dipole orientation:
     6          2.77815434         -0.78807791         -0.84926255
     9         -1.04831050          0.44170968         -0.82189230
     9          3.57451495          0.92622673          0.59050409
     9          2.44316429         -2.84255462          0.28527452
    16          2.94860507         -0.50547107         -4.51205060
     8          5.52145716          0.24652803         -4.70018628
     8          2.23462147         -2.99609441         -5.20094775
     8          1.07354718          1.45600120         -4.83790305
     1         -0.82103125          1.08579501         -2.50825678

 Electric dipole moment (dipole orientation):
 (Debye = 10**-18 statcoulomb cm , SI units = C m)
                  (au)            (Debye)         (10**-30 SI)
   Tot        0.141747D+01      0.360284D+01      0.120178D+02
   x          0.000000D+00      0.000000D+00      0.000000D+00
   y          0.000000D+00      0.000000D+00      0.000000D+00
   z          0.141747D+01      0.360284D+01      0.120178D+02

 Dipole polarizability, Alpha (dipole orientation).
 (esu units = cm**3 , SI units = C**2 m**2 J**-1)
 Alpha(0;0):
               (au)            (10**-24 esu)      (10**-40 SI)
   iso        0.444037D+02      0.657994D+01      0.732117D+01
   aniso      0.590688D+01      0.875309D+00      0.973913D+00
   xx         0.449073D+02      0.665457D+01      0.740421D+01
   yx        -0.246073D+00     -0.364642D-01     -0.405719D-01
   yy         0.419313D+02      0.621358D+01      0.691354D+01
   zx        -0.253498D+01     -0.375645D+00     -0.417961D+00
   zy        -0.150656D+00     -0.223249D-01     -0.248397D-01
   zz         0.463724D+02      0.687168D+01      0.764578D+01

 ----------------------------------------------------------------------
 Unable to Open any file for archive entry.
 1\1\GINC-SPARTAN-BM178\Freq\RM062X\def2TZVPP\C1H1F3O3S1\AKHALILOV\25-M
 ay-2025\0\\#P M062X/Def2TZVPP Symm(None) scf(xqc) pop(None) opt(NoFree
 ze,TS,CalcAll,NoEigentest,MaxCycle=999)\\Gaussian input prepared by AS
 E\\0,1\C,1.5886198958,0.0832202083,-0.0809141079\F,-0.4767932622,0.562
 8515442,0.0860343031\F,1.6157105876,-0.6744961548,0.922161888\F,1.5184
 151656,-0.5519237018,-1.1604967257\S,2.0881790081,1.9611373243,0.02508
 54865\O,3.3160643725,1.79496382,0.7226671581\O,2.1001729812,2.28901287
 44,-1.3551589091\O,0.9611819457,2.4301347578,0.8006902625\H,-0.2312046
 941,1.4327923277,0.4175086445\\Version=ES64L-G16RevC.01\HF=-962.047377
 7\RMSD=6.081e-09\RMSF=3.219e-06\ZeroPoint=0.0369771\Thermal=0.0447219\
 ETot=-962.0026558\HTot=-962.0017116\GTot=-962.0437484\Dipole=-0.326528
 7,-1.3786424,0.0440477\DipoleDeriv=0.9846347,-0.0711316,0.0243884,-0.1
 612758,1.3252643,0.0377369,0.0286234,0.0123863,1.6956691,-1.0270101,-0
 .0793457,0.0206219,-0.1205773,-0.5864818,-0.0558225,-0.0218314,-0.0852
 518,-0.3318897,-0.0671507,-0.0298369,0.0002487,-0.0117028,-0.7648176,0
 .4723245,-0.0905683,0.3841181,-0.6242428,-0.0336881,-0.0519491,-0.0556
 057,-0.0501213,-0.6522645,-0.4915099,0.0425385,-0.3754435,-0.7465188,2
 .2076656,-0.0134051,-0.0450876,0.0460742,2.0515822,-0.0820025,-0.13548
 7,-0.1523687,2.1867172,-1.0353784,-0.0710337,-0.2272422,-0.0108144,-0.
 5995508,0.0409734,-0.264173,-0.0168658,-0.6913489,-0.5724145,-0.010517
 4,0.0063756,-0.0375111,-0.6333741,0.1359518,0.0945798,0.2973758,-1.076
 123,-1.1639681,0.1182573,0.2695835,0.0286053,-0.7729901,-0.1159527,0.2
 49918,-0.1660188,-0.7405578,0.7073095,0.2089622,0.0067173,0.3173231,0.
 6326323,0.0583011,0.0964,0.1020685,0.3282947\Polar=46.0386479,2.533538
 ,45.2344669,0.4983428,0.4913435,41.9378497\PG=Unknown\NImag=1\\0.13278
 129,0.06762823,0.63689721,0.02984664,-0.00367945,0.71204151,0.01095084
 ,-0.02924833,-0.00474051,0.06741600,-0.03178402,-0.00285928,0.00262632
 ,0.11921964,0.36693888,-0.00917475,0.00447140,-0.01197222,0.04652132,0
 .13147569,0.06977247,-0.04394363,-0.00722589,-0.00479239,-0.00816556,0
 .01199550,-0.00522377,0.02966239,-0.01689312,-0.28561234,0.20157717,0.
 00979886,-0.00079243,0.00061388,-0.00176919,0.23875594,0.00869186,0.20
 564088,-0.30422605,-0.01038203,0.00481481,0.00329290,0.01316198,-0.225
 15627,0.41837236,-0.04844939,-0.02794829,-0.02561482,-0.00345866,0.009
 88215,0.00820767,0.01270492,0.00374269,-0.00634861,0.02834677,-0.03133
 891,-0.24174888,-0.19400449,0.00792798,0.00048962,-0.00156096,0.003506
 35,0.04043437,0.01662304,0.01729173,0.19155022,-0.03774615,-0.20248956
 ,-0.35420017,0.01214424,-0.00583548,-0.00122092,-0.00538338,0.00120051
 ,-0.11442635,0.02753598,0.20054652,0.47498734,-0.03830726,-0.01085873,
 0.00534458,-0.00987650,0.02067618,0.00825282,0.01301458,0.01118625,-0.
 00763445,0.01941851,0.01000729,0.00647213,1.03946034,-0.02628242,-0.09
 781237,-0.00116360,0.01694647,-0.02936789,-0.01197667,-0.00034855,0.02
 865330,-0.00722496,0.00164990,0.03313968,0.01423207,-0.17947088,0.3755
 5525,-0.00052439,0.00419442,-0.01355994,-0.00476442,-0.02054397,-0.010
 18222,0.00222257,0.03145950,-0.01039891,-0.00287817,-0.02431489,-0.016
 42649,0.03365293,-0.10069934,1.16250235,-0.01433042,0.00581633,-0.0140
 4612,-0.00387454,-0.00481392,-0.00092408,0.00028998,-0.00563441,0.0031
 3905,-0.00226588,-0.00912667,-0.00225227,-0.52017824,0.06398989,-0.246
 62726,0.56627720,-0.01594094,0.00766990,-0.00619238,-0.00640100,0.0071
 9634,0.00299563,0.00236379,-0.00197239,-0.00031255,0.00362564,-0.00817
 942,-0.00404619,0.04003566,-0.09046617,0.03000300,-0.06006027,0.056510
 69,-0.00777069,0.00407847,-0.00571673,-0.00159551,0.00223564,0.0016265
 3,0.00068970,-0.00686763,0.00373634,0.00018068,-0.00149833,0.00176005,
 -0.24798390,0.03781304,-0.23539104,0.27642369,-0.03480654,0.23556167,0
 .00467085,-0.00260546,0.00499660,0.00144882,-0.00230298,-0.00060950,-0
 .00139984,-0.00377463,0.00161883,-0.00220824,-0.00022100,-0.00037274,-
 0.09245058,0.00068198,0.00667803,0.00531913,0.01392259,-0.04239787,0.0
 7785366,0.00208946,-0.00386479,0.02232655,-0.00416702,0.00420897,0.001
 58782,-0.00158104,-0.01317844,0.00317138,-0.00033372,-0.00152260,-0.00
 000422,0.00078024,-0.11504506,0.14471216,-0.00077786,0.01938411,0.0062
 6378,-0.00436648,0.09416634,-0.00499323,-0.00652384,-0.01951167,0.0044
 4759,0.00347901,0.00310508,0.00182190,0.00360070,0.00197290,0.00113331
 ,0.00779228,0.00873212,0.00317190,0.13554593,-0.65728605,0.00102553,0.
 01095965,-0.01697314,-0.00957947,-0.16061298,0.70751045,-0.02021003,-0
 .00408701,0.00679676,-0.00930634,-0.05569850,-0.02143746,0.00165692,0.
 00496389,-0.00118072,0.00081695,0.00498159,-0.00054906,-0.37743150,0.1
 0843275,0.19178817,-0.03606088,0.02693404,0.02380074,0.00409039,0.0103
 6306,0.00853325,0.41281431,0.02186675,-0.00448215,-0.01613584,-0.01720
 005,-0.02128379,-0.01017063,-0.00372893,-0.00410386,0.00321911,-0.0050
 6705,-0.01151770,-0.00511432,0.13452902,-0.13980815,-0.08995956,0.0044
 7308,0.01910740,-0.00362458,-0.00472163,0.02095513,0.01071822,-0.13675
 625,0.14597690,0.01098895,-0.00094078,-0.00614695,-0.00469753,0.000292
 07,0.00705129,-0.00148845,-0.00746961,0.00370674,-0.00131864,-0.002092
 61,0.00134735,0.20156868,-0.07942298,-0.23300696,-0.01781448,0.0044130
 7,0.01725032,0.03964298,-0.01517017,-0.02340660,-0.22108702,0.11087172
 ,0.24800787,0.01683775,0.00852916,0.00220925,-0.04513405,-0.06717405,-
 0.02561225,-0.00381977,-0.00162034,-0.00106590,-0.00490498,-0.00302836
 ,0.00015124,-0.03364935,0.01440087,0.02045254,0.00482366,-0.00447950,-
 0.00134684,0.00267580,-0.00200665,-0.00556077,0.02363017,0.00660507,-0
 .00579448,0.03954076,0.03065497,-0.00818729,-0.00535428,-0.09687654,-0
 .32453042,-0.11743616,-0.00321204,-0.00218414,-0.00077544,-0.00284304,
 -0.00264530,0.00151066,-0.02688503,0.03515142,0.02514869,0.00613383,-0
 .00925046,-0.00359385,0.00338761,-0.00510367,-0.00495897,0.04086644,-0
 .00484377,-0.01048071,0.04877380,0.32159364,0.01068177,-0.00475154,0.0
 0329222,-0.03693315,-0.11854409,-0.06147289,-0.00100817,0.00104176,-0.
 00202994,-0.00089739,-0.00149055,-0.00055293,-0.00284470,0.01289651,0.
 01374927,0.00107594,-0.00301369,-0.00185401,0.00002315,-0.00227433,-0.
 00414310,0.01333533,0.00019589,-0.01480307,0.01656721,0.11594005,0.067
 81444\\0.00000159,-0.00000079,0.00000357,0.00000047,-0.00000096,-0.000
 00047,0.00000078,0.00000360,0.00000666,0.00000351,-0.00000420,0.000006
 39,-0.00000192,0.00000114,-0.00000246,-0.00000157,0.00000467,-0.000000
 04,0.00000064,-0.00000440,-0.00000376,-0.00000245,0.00000224,-0.000005
 86,-0.00000105,-0.00000131,-0.00000405\\\@
 The archive entry for this job was punched.


 Other things may change us, but we start and end with family.
 -- Anthony Brandt
 Job cpu time:       0 days  4 hours  5 minutes 38.3 seconds.
 Elapsed time:       0 days  0 hours 32 minutes 31.8 seconds.
 File lengths (MBytes):  RWF=     79 Int=      0 D2E=      0 Chk=      6 Scr=      1
 Normal termination of Gaussian 16 at Sun May 25 06:12:50 2025.
done
