9
energy = -961.952193756
C 0.73016900 -1.68085000 0.07089700
F 0.00200200 -0.00234000 0.02373000
F 0.25003200 -2.17645500 1.14169000
F 0.22082900 -2.24760400 -0.94906600
S 1.82147200 -0.02526400 -0.00863500
O 2.34635400 -0.21011400 1.30537300
O 2.38325200 -0.34908600 -1.27113700
O 1.71236000 1.55692500 -0.14110000
H 1.50847400 1.93171300 0.72559500
9
energy = -961.9522562129999
C 0.72311000 -1.61421400 0.08997300
F 0.23100000 0.14852300 0.08512600
F 0.27444600 -2.03847100 1.20423500
F 0.05411000 -2.10596100 -0.87518700
S 2.02038200 -0.12496600 -0.10358700
O 2.62814600 -0.38126900 1.16180600
O 2.41949400 -0.52245500 -1.40635300
O 2.11845700 1.45723900 -0.24415600
H 2.04298000 1.85618700 0.63239100
9
energy = -961.952210646
C 0.72753000 -1.65583800 0.07634000
F 0.07061600 0.05014200 -0.00502100
F 0.21253600 -2.11538300 1.14616800
F 0.20910200 -2.21608200 -0.94360300
S 1.88791200 -0.04752400 0.00470200
O 2.45605500 -0.28966300 1.28259000
O 2.38343800 -0.36247300 -1.29585900
O 1.84656100 1.54336900 0.00622000
H 1.64495800 1.85347600 -0.88618500
