1
energy = -75.0661577121
O 2.24169700 -0.46415800 1.25031300
