2
energy = -75.72487799940001
O 1.91256000 1.63056500 0.10315700
H 1.96000300 2.00145800 -0.79312100
