1
energy = -99.7337277474
F -0.57094200 0.61858800 -0.95996300
