2
energy = -100.443670913
F -2.12170500 -0.44599700 0.06574200
H -1.88864500 0.37634300 0.40197800
