3
energy = -237.71606054400004
C -1.71957600 -1.36598100 0.12234800
F -1.14493100 -2.23664900 0.88734800
F -2.69609200 -0.90400400 0.83404800
