4
energy = -337.587347345
C -0.10220400 -0.06032000 0.06073600
F -0.55937000 0.62015800 -0.96313900
F -0.53360300 0.43848300 1.19441400
F -0.40025600 -1.33333200 -0.04291300
