5
energy = -624.3905570459999
S 1.73505600 0.05603500 0.03025900
O 2.24408300 -0.46556700 1.26254300
O 2.20296700 -0.38862400 -1.25652600
O 1.94580600 1.64391600 0.10531900
H 1.93803600 2.00208500 -0.79381800
