1
energy = -0.49813851171100004
H 2.34588600 1.57752500 -1.04479600
