6
energy = -475.544537482
C 0.92215000 -1.86134500 -0.59064500
C 1.65331300 -0.77062800 -0.68262400
F 1.66033400 0.17220300 0.22862800
F 2.44793500 -0.51790000 -1.69455500
F 0.91512500 -2.80416000 -1.50189700
F 0.12753200 -2.11409500 0.42128300
