6
energy = -475.48163759100004
C -1.67289700 -1.22439400 0.21195500
C -0.75021500 -0.66815400 1.33936000
F -1.32987900 0.40356100 1.74508300
F -0.93110200 -1.77692200 -0.73509900
F -2.42020300 -2.16663200 0.78997800
F -2.47718800 -0.32834800 -0.34908400
