 Entering Gaussian System, Link 0=g16
 Initial command:
 /apps/easybuild-2022/easybuild/software/Compiler/NVHPC/22.11-CUDA-11.7.0/Gaussian/g16c01-CUDA-11.7.0/g16/l1.exe "/tmp/Gau-158652.inp" -scrdir="/tmp/"
 Entering Link 1 = /apps/easybuild-2022/easybuild/software/Compiler/NVHPC/22.11-CUDA-11.7.0/Gaussian/g16c01-CUDA-11.7.0/g16/l1.exe PID=    158653.
  
 Copyright (c) 1988-2019, Gaussian, Inc.  All Rights Reserved.
  
 This is part of the Gaussian(R) 16 program.  It is based on
 the Gaussian(R) 09 system (copyright 2009, Gaussian, Inc.),
 the Gaussian(R) 03 system (copyright 2003, Gaussian, Inc.),
 the Gaussian(R) 98 system (copyright 1998, Gaussian, Inc.),
 the Gaussian(R) 94 system (copyright 1995, Gaussian, Inc.),
 the Gaussian 92(TM) system (copyright 1992, Gaussian, Inc.),
 the Gaussian 90(TM) system (copyright 1990, Gaussian, Inc.),
 the Gaussian 88(TM) system (copyright 1988, Gaussian, Inc.),
 the Gaussian 86(TM) system (copyright 1986, Carnegie Mellon
 University), and the Gaussian 82(TM) system (copyright 1983,
 Carnegie Mellon University). Gaussian is a federally registered
 trademark of Gaussian, Inc.
  
 This software contains proprietary and confidential information,
 including trade secrets, belonging to Gaussian, Inc.
  
 This software is provided under written license and may be
 used, copied, transmitted, or stored only in accord with that
 written license.
  
 The following legend is applicable only to US Government
 contracts under FAR:
  
                    RESTRICTED RIGHTS LEGEND
  
 Use, reproduction and disclosure by the US Government is
 subject to restrictions as set forth in subparagraphs (a)
 and (c) of the Commercial Computer Software - Restricted
 Rights clause in FAR 52.227-19.
  
 Gaussian, Inc.
 340 Quinnipiac St., Bldg. 40, Wallingford CT 06492
  
  
 ---------------------------------------------------------------
 Warning -- This program may not be used in any manner that
 competes with the business of Gaussian, Inc. or will provide
 assistance to any competitor of Gaussian, Inc.  The licensee
 of this program is prohibited from giving any competitor of
 Gaussian, Inc. access to this program.  By using this program,
 the user acknowledges that Gaussian, Inc. is engaged in the
 business of creating and licensing software in the field of
 computational chemistry and represents and warrants to the
 licensee that it is not a competitor of Gaussian, Inc. and that
 it will not use this program in any manner prohibited above.
 ---------------------------------------------------------------
  

 Cite this work as:
 Gaussian 16, Revision C.01,
 M. J. Frisch, G. W. Trucks, H. B. Schlegel, G. E. Scuseria, 
 M. A. Robb, J. R. Cheeseman, G. Scalmani, V. Barone, 
 G. A. Petersson, H. Nakatsuji, X. Li, M. Caricato, A. V. Marenich, 
 J. Bloino, B. G. Janesko, R. Gomperts, B. Mennucci, H. P. Hratchian, 
 J. V. Ortiz, A. F. Izmaylov, J. L. Sonnenberg, D. Williams-Young, 
 F. Ding, F. Lipparini, F. Egidi, J. Goings, B. Peng, A. Petrone, 
 T. Henderson, D. Ranasinghe, V. G. Zakrzewski, J. Gao, N. Rega, 
 G. Zheng, W. Liang, M. Hada, M. Ehara, K. Toyota, R. Fukuda, 
 J. Hasegawa, M. Ishida, T. Nakajima, Y. Honda, O. Kitao, H. Nakai, 
 T. Vreven, K. Throssell, J. A. Montgomery, Jr., J. E. Peralta, 
 F. Ogliaro, M. J. Bearpark, J. J. Heyd, E. N. Brothers, K. N. Kudin, 
 V. N. Staroverov, T. A. Keith, R. Kobayashi, J. Normand, 
 K. Raghavachari, A. P. Rendell, J. C. Burant, S. S. Iyengar, 
 J. Tomasi, M. Cossi, J. M. Millam, M. Klene, C. Adamo, R. Cammi, 
 J. W. Ochterski, R. L. Martin, K. Morokuma, O. Farkas, 
 J. B. Foresman, and D. J. Fox, Gaussian, Inc., Wallingford CT, 2019.
 
 ******************************************
 Gaussian 16:  ES64L-G16RevC.01  3-Jul-2019
                24-May-2025 
 ******************************************
 %mem=28GB
 %nprocshared=8
 Will use up to    8 processors via shared memory.
 ----------------------------------------------------------------------
 #P M062X/Def2TZVPP Symm(None) scf(xqc) pop(None) freq opt(CalcFC, Tigh
 t)
 ----------------------------------------------------------------------
 1/7=10,10=4,18=20,19=15,26=3,38=1/1,3;
 2/9=110,12=2,15=3,17=6,18=5,40=1/2;
 3/5=44,7=202,11=2,25=1,30=1,71=2,74=-55,140=1/1,2,3;
 4//1;
 5/5=2,8=3,13=1,38=5/2,8;
 8/6=4,10=90,11=11/1;
 11/6=1,8=1,9=11,15=111,16=1,31=1/1,2,10;
 10/6=1,13=1,31=1/2;
 7/10=1,25=1,30=1/1,2,3,16;
 1/7=10,10=4,18=20,19=15,26=3/3(2);
 2/9=110,15=3/2;
 99//99;
 2/9=110,15=3/2;
 3/5=44,7=202,11=2,25=1,30=1,71=1,74=-55/1,2,3;
 4/5=5,16=3,69=1/1;
 5/5=2,8=3,13=1,38=5/2,8;
 7/30=1/1,2,3,16;
 1/7=10,18=20,19=15,26=3/3(-5);
 2/9=110,15=3/2;
 99/9=1/99;
 Leave Link    1 at Sat May 24 05:33:08 2025, MaxMem=  3758096384 cpu:               0.0 elap:               0.0
 (Enter /apps/easybuild-2022/easybuild/software/Compiler/NVHPC/22.11-CUDA-11.7.0/Gaussian/g16c01-CUDA-11.7.0/g16/l101.exe)
 ------------------------------
 Gaussian input prepared by ASE
 ------------------------------
 Symbolic Z-matrix:
 Charge =  0 Multiplicity = 1
 F                     0.        0.        0. 
 S                     1.5485    0.        0. 
 O                     1.94434  -0.54671   1.23917 
 O                     1.95566  -0.49907  -1.24683 
 O                     1.78741   1.54202   0. 
 H                     1.8066    1.87692   0.90753 
 
 ITRead=  0  0  0  0  0  0
 MicOpt= -1 -1 -1 -1 -1 -1
 NAtoms=      6 NQM=        6 NQMF=       0 NMMI=      0 NMMIF=      0
                NMic=       0 NMicF=      0.
                    Isotopes and Nuclear Properties:
 (Nuclear quadrupole moments (NQMom) in fm**2, nuclear magnetic moments (NMagM)
  in nuclear magnetons)

  Atom         1           2           3           4           5           6
 IAtWgt=          19          32          16          16          16           1
 AtmWgt=  18.9984032  31.9720718  15.9949146  15.9949146  15.9949146   1.0078250
 NucSpn=           1           0           0           0           0           1
 AtZEff=  -0.0000000  -0.0000000  -0.0000000  -0.0000000  -0.0000000  -0.0000000
 NQMom=    0.0000000   0.0000000   0.0000000   0.0000000   0.0000000   0.0000000
 NMagM=    2.6288670   0.0000000   0.0000000   0.0000000   0.0000000   2.7928460
 AtZNuc=   9.0000000  16.0000000   8.0000000   8.0000000   8.0000000   1.0000000
 Leave Link  101 at Sat May 24 05:33:08 2025, MaxMem=  3758096384 cpu:               0.2 elap:               0.2
 (Enter /apps/easybuild-2022/easybuild/software/Compiler/NVHPC/22.11-CUDA-11.7.0/Gaussian/g16c01-CUDA-11.7.0/g16/l103.exe)

 GradGradGradGradGradGradGradGradGradGradGradGradGradGradGradGradGradGrad
 Berny optimization.
 Initialization pass.
                           ----------------------------
                           !    Initial Parameters    !
                           ! (Angstroms and Degrees)  !
 --------------------------                            --------------------------
 ! Name  Definition              Value          Derivative Info.                !
 --------------------------------------------------------------------------------
 ! R1    R(1,2)                  1.5485         calculate D2E/DX2 analytically  !
 ! R2    R(2,3)                  1.4111         calculate D2E/DX2 analytically  !
 ! R3    R(2,4)                  1.4034         calculate D2E/DX2 analytically  !
 ! R4    R(2,5)                  1.5604         calculate D2E/DX2 analytically  !
 ! R5    R(5,6)                  0.9675         calculate D2E/DX2 analytically  !
 ! A1    A(1,2,3)              106.2915         calculate D2E/DX2 analytically  !
 ! A2    A(1,2,4)              106.8659         calculate D2E/DX2 analytically  !
 ! A3    A(1,2,5)               98.8071         calculate D2E/DX2 analytically  !
 ! A4    A(3,2,4)              124.1282         calculate D2E/DX2 analytically  !
 ! A5    A(3,2,5)              109.8723         calculate D2E/DX2 analytically  !
 ! A6    A(4,2,5)              107.8792         calculate D2E/DX2 analytically  !
 ! A7    A(2,5,6)              110.1876         calculate D2E/DX2 analytically  !
 ! D1    D(1,2,5,6)             87.9612         calculate D2E/DX2 analytically  !
 ! D2    D(3,2,5,6)            -23.0068         calculate D2E/DX2 analytically  !
 ! D3    D(4,2,5,6)           -161.0323         calculate D2E/DX2 analytically  !
 --------------------------------------------------------------------------------
 Trust Radius=3.00D-01 FncErr=1.00D-07 GrdErr=1.00D-06 EigMax=2.50D+02 EigMin=1.00D-04
 Number of steps in this run=     25 maximum allowed number of steps=    100.
 GradGradGradGradGradGradGradGradGradGradGradGradGradGradGradGradGradGrad

 Leave Link  103 at Sat May 24 05:33:08 2025, MaxMem=  3758096384 cpu:               0.0 elap:               0.0
 (Enter /apps/easybuild-2022/easybuild/software/Compiler/NVHPC/22.11-CUDA-11.7.0/Gaussian/g16c01-CUDA-11.7.0/g16/l202.exe)
                          Input orientation:                          
 ---------------------------------------------------------------------
 Center     Atomic      Atomic             Coordinates (Angstroms)
 Number     Number       Type             X           Y           Z
 ---------------------------------------------------------------------
      1          9           0        0.000000    0.000000    0.000000
      2         16           0        1.548496    0.000000    0.000000
      3          8           0        1.944335   -0.546709    1.239165
      4          8           0        1.955658   -0.499073   -1.246829
      5          8           0        1.787408    1.542016    0.000000
      6          1           0        1.806604    1.876918    0.907526
 ---------------------------------------------------------------------
                    Distance matrix (angstroms):
                    1          2          3          4          5
     1  F    0.000000
     2  S    1.548496   0.000000
     3  O    2.369570   1.411067   0.000000
     4  O    2.372395   1.403367   2.486477   0.000000
     5  O    2.360644   1.560414   2.433707   2.397694   0.000000
     6  H    2.758667   2.100725   2.450086   3.210732   0.967539
                    6
     6  H    0.000000
 Symmetry turned off by external request.
 Stoichiometry    FHO3S
 Rotational constants (GHZ):           5.1204041           5.0728361           4.9937350
 Leave Link  202 at Sat May 24 05:33:08 2025, MaxMem=  3758096384 cpu:               0.0 elap:               0.0
 (Enter /apps/easybuild-2022/easybuild/software/Compiler/NVHPC/22.11-CUDA-11.7.0/Gaussian/g16c01-CUDA-11.7.0/g16/l301.exe)
 Standard basis: def2TZVPP (5D, 7F)
 Ernie: Thresh=  0.10000D-02 Tol=  0.10000D-05 Strict=F.
   180 basis functions,   290 primitive gaussians,   207 cartesian basis functions
    25 alpha electrons       25 beta electrons
       nuclear repulsion energy       292.0058797657 Hartrees.
 IExCor= 4336 DFT=T Ex+Corr=M062X ExCW=0 ScaHFX=  0.540000
 ScaDFX=  1.000000  1.000000  1.000000  1.000000 ScalE2=  1.000000  1.000000
 IRadAn=      5 IRanWt=     -1 IRanGd=            0 ICorTp=0 IEmpDi=  4
 NAtoms=    6 NActive=    6 NUniq=    6 SFac= 1.00D+00 NAtFMM=   60 NAOKFM=F Big=F
 Integral buffers will be    131072 words long.
 Raffenetti 2 integral format.
 Two-electron integral symmetry is turned off.
 Leave Link  301 at Sat May 24 05:33:08 2025, MaxMem=  3758096384 cpu:               0.0 elap:               0.0
 (Enter /apps/easybuild-2022/easybuild/software/Compiler/NVHPC/22.11-CUDA-11.7.0/Gaussian/g16c01-CUDA-11.7.0/g16/l302.exe)
 NPDir=0 NMtPBC=     1 NCelOv=     1 NCel=       1 NClECP=     1 NCelD=      1
         NCelK=      1 NCelE2=     1 NClLst=     1 CellRange=     0.0.
 One-electron integrals computed using PRISM.
   1 Symmetry operations used in ECPInt.
 ECPInt:  NShTT=    2080 NPrTT=    6796 LenC2=    2059 LenP2D=    5513.
 LDataN:  DoStor=T MaxTD1= 6 Len=  172
 NBasis=   180 RedAO= T EigKep=  9.05D-04  NBF=   180
 NBsUse=   180 1.00D-06 EigRej= -1.00D+00 NBFU=   180
 Precomputing XC quadrature grid using
 IXCGrd= 4 IRadAn=           5 IRanWt=          -1 IRanGd=           0 AccXCQ= 0.00D+00.
 Generated NRdTot=       0 NPtTot=           0 NUsed=           0 NTot=          32
 NSgBfM=   206   206   206   206   206 MxSgAt=     6 MxSgA2=     6.
 Leave Link  302 at Sat May 24 05:33:09 2025, MaxMem=  3758096384 cpu:               0.5 elap:               0.1
 (Enter /apps/easybuild-2022/easybuild/software/Compiler/NVHPC/22.11-CUDA-11.7.0/Gaussian/g16c01-CUDA-11.7.0/g16/l303.exe)
 DipDrv:  MaxL=1.
 Leave Link  303 at Sat May 24 05:33:09 2025, MaxMem=  3758096384 cpu:               0.1 elap:               0.0
 (Enter /apps/easybuild-2022/easybuild/software/Compiler/NVHPC/22.11-CUDA-11.7.0/Gaussian/g16c01-CUDA-11.7.0/g16/l401.exe)
 ExpMin= 1.03D-01 ExpMax= 6.07D+04 ExpMxC= 2.07D+03 IAcc=3 IRadAn=         5 AccDes= 0.00D+00
 Harris functional with IExCor= 1009 and IRadAn=       5 diagonalized for initial guess.
 HarFok:  IExCor= 1009 AccDes= 0.00D+00 IRadAn=         5 IDoV= 1 UseB2=F ITyADJ=14
 ICtDFT=  3500011 ScaDFX=  1.000000  1.000000  1.000000  1.000000
 FoFCou: FMM=F IPFlag=           0 FMFlag=      100000 FMFlg1=           0
         NFxFlg=           0 DoJE=T BraDBF=F KetDBF=T FulRan=T
         wScrn=  0.000000 ICntrl=       500 IOpCl=  0 I1Cent=   200000004 NGrid=           0
         NMat0=    1 NMatS0=      1 NMatT0=    0 NMatD0=    1 NMtDS0=    0 NMtDT0=    0
 Symmetry not used in FoFCou.
 Harris En= -724.051103459017    
 JPrj=0 DoOrth=F DoCkMO=F.
 Leave Link  401 at Sat May 24 05:33:09 2025, MaxMem=  3758096384 cpu:               1.6 elap:               0.2
 (Enter /apps/easybuild-2022/easybuild/software/Compiler/NVHPC/22.11-CUDA-11.7.0/Gaussian/g16c01-CUDA-11.7.0/g16/l502.exe)
 Keep R1 ints in memory in canonical form, NReq=140972698.
 FoFCou: FMM=F IPFlag=           0 FMFlag=           0 FMFlg1=           0
         NFxFlg=           0 DoJE=F BraDBF=F KetDBF=F FulRan=T
         wScrn=  0.000000 ICntrl=       600 IOpCl=  0 I1Cent=           0 NGrid=           0
         NMat0=    1 NMatS0=  16290 NMatT0=    0 NMatD0=    1 NMtDS0=    0 NMtDT0=    0
 Symmetry not used in FoFCou.
 Two-electron integral symmetry not used.
 Closed shell SCF:
 Using DIIS extrapolation, IDIIS=  1040.
 NGot=  3758096384 LenX=  3625317310 LenY=  3625274020
 Requested convergence on RMS density matrix=1.00D-08 within  32 cycles.
 Requested convergence on MAX density matrix=1.00D-06.
 Requested convergence on             energy=1.00D-06.
 No special actions if energy rises.
 Integral accuracy reduced to 1.0D-05 until final iterations.

 Cycle   1  Pass 0  IDiag  1:
 E= -724.075120357234    
 DIIS: error= 3.55D-02 at cycle   1 NSaved=   1.
 NSaved= 1 IEnMin= 1 EnMin= -724.075120357234     IErMin= 1 ErrMin= 3.55D-02
 ErrMax= 3.55D-02  0.00D+00 EMaxC= 1.00D-01 BMatC= 4.65D-01 BMatP= 4.65D-01
 IDIUse=3 WtCom= 6.45D-01 WtEn= 3.55D-01
 Coeff-Com:  0.100D+01
 Coeff-En:   0.100D+01
 Coeff:      0.100D+01
 Gap=     0.366 Goal=   None    Shift=    0.000
 GapD=    0.366 DampG=1.000 DampE=0.500 DampFc=0.5000 IDamp=-1.
 Damping current iteration by 5.00D-01
 RMSDP=4.11D-03 MaxDP=3.01D-01              OVMax= 1.83D-01

 Cycle   2  Pass 0  IDiag  1:
 E= -724.166302096384     Delta-E=       -0.091181739150 Rises=F Damp=T
 DIIS: error= 9.63D-03 at cycle   2 NSaved=   2.
 NSaved= 2 IEnMin= 2 EnMin= -724.166302096384     IErMin= 2 ErrMin= 9.63D-03
 ErrMax= 9.63D-03  0.00D+00 EMaxC= 1.00D-01 BMatC= 3.28D-02 BMatP= 4.65D-01
 IDIUse=3 WtCom= 9.04D-01 WtEn= 9.63D-02
 Coeff-Com:  0.976D-01 0.902D+00
 Coeff-En:   0.254D+00 0.746D+00
 Coeff:      0.113D+00 0.887D+00
 Gap=     0.457 Goal=   None    Shift=    0.000
 RMSDP=7.67D-04 MaxDP=5.11D-02 DE=-9.12D-02 OVMax= 1.12D-01

 Cycle   3  Pass 0  IDiag  1:
 E= -724.318776055801     Delta-E=       -0.152473959417 Rises=F Damp=F
 DIIS: error= 4.43D-03 at cycle   3 NSaved=   3.
 NSaved= 3 IEnMin= 3 EnMin= -724.318776055801     IErMin= 3 ErrMin= 4.43D-03
 ErrMax= 4.43D-03  0.00D+00 EMaxC= 1.00D-01 BMatC= 6.99D-03 BMatP= 3.28D-02
 IDIUse=3 WtCom= 9.56D-01 WtEn= 4.43D-02
 Coeff-Com: -0.244D-01 0.258D+00 0.767D+00
 Coeff-En:   0.000D+00 0.000D+00 0.100D+01
 Coeff:     -0.234D-01 0.246D+00 0.777D+00
 Gap=     0.453 Goal=   None    Shift=    0.000
 RMSDP=3.50D-04 MaxDP=1.65D-02 DE=-1.52D-01 OVMax= 2.23D-02

 Cycle   4  Pass 0  IDiag  1:
 E= -724.321950784820     Delta-E=       -0.003174729018 Rises=F Damp=F
 DIIS: error= 2.90D-03 at cycle   4 NSaved=   4.
 NSaved= 4 IEnMin= 4 EnMin= -724.321950784820     IErMin= 4 ErrMin= 2.90D-03
 ErrMax= 2.90D-03  0.00D+00 EMaxC= 1.00D-01 BMatC= 2.47D-03 BMatP= 6.99D-03
 IDIUse=3 WtCom= 9.71D-01 WtEn= 2.90D-02
 Coeff-Com: -0.213D-01 0.540D-01 0.413D+00 0.554D+00
 Coeff-En:   0.000D+00 0.000D+00 0.226D+00 0.774D+00
 Coeff:     -0.207D-01 0.525D-01 0.408D+00 0.560D+00
 Gap=     0.459 Goal=   None    Shift=    0.000
 RMSDP=1.27D-04 MaxDP=4.22D-03 DE=-3.17D-03 OVMax= 8.15D-03

 Cycle   5  Pass 0  IDiag  1:
 E= -724.323409823687     Delta-E=       -0.001459038867 Rises=F Damp=F
 DIIS: error= 2.68D-04 at cycle   5 NSaved=   5.
 NSaved= 5 IEnMin= 5 EnMin= -724.323409823687     IErMin= 5 ErrMin= 2.68D-04
 ErrMax= 2.68D-04  0.00D+00 EMaxC= 1.00D-01 BMatC= 3.21D-05 BMatP= 2.47D-03
 IDIUse=3 WtCom= 9.97D-01 WtEn= 2.68D-03
 Coeff-Com: -0.372D-02 0.488D-02 0.784D-01 0.163D+00 0.757D+00
 Coeff-En:   0.000D+00 0.000D+00 0.000D+00 0.000D+00 0.100D+01
 Coeff:     -0.371D-02 0.487D-02 0.781D-01 0.163D+00 0.758D+00
 Gap=     0.457 Goal=   None    Shift=    0.000
 RMSDP=2.21D-05 MaxDP=1.19D-03 DE=-1.46D-03 OVMax= 1.12D-03

 Cycle   6  Pass 0  IDiag  1:
 E= -724.323432876527     Delta-E=       -0.000023052840 Rises=F Damp=F
 DIIS: error= 6.31D-05 at cycle   6 NSaved=   6.
 NSaved= 6 IEnMin= 6 EnMin= -724.323432876527     IErMin= 6 ErrMin= 6.31D-05
 ErrMax= 6.31D-05  0.00D+00 EMaxC= 1.00D-01 BMatC= 2.30D-06 BMatP= 3.21D-05
 IDIUse=1 WtCom= 1.00D+00 WtEn= 0.00D+00
 Coeff-Com: -0.392D-03-0.964D-03 0.391D-02 0.231D-01 0.259D+00 0.716D+00
 Coeff:     -0.392D-03-0.964D-03 0.391D-02 0.231D-01 0.259D+00 0.716D+00
 Gap=     0.457 Goal=   None    Shift=    0.000
 RMSDP=6.11D-06 MaxDP=3.02D-04 DE=-2.31D-05 OVMax= 2.72D-04

 Initial convergence to 1.0D-05 achieved.  Increase integral accuracy.
 Cycle   7  Pass 1  IDiag  1:
 E= -724.323406707013     Delta-E=        0.000026169514 Rises=F Damp=F
 DIIS: error= 3.37D-05 at cycle   1 NSaved=   1.
 NSaved= 1 IEnMin= 1 EnMin= -724.323406707013     IErMin= 1 ErrMin= 3.37D-05
 ErrMax= 3.37D-05  0.00D+00 EMaxC= 1.00D-01 BMatC= 5.51D-07 BMatP= 5.51D-07
 IDIUse=1 WtCom= 1.00D+00 WtEn= 0.00D+00
 Coeff-Com:  0.100D+01
 Coeff:      0.100D+01
 Gap=     0.457 Goal=   None    Shift=    0.000
 RMSDP=6.11D-06 MaxDP=3.02D-04 DE= 2.62D-05 OVMax= 1.81D-04

 Cycle   8  Pass 1  IDiag  1:
 E= -724.323407038172     Delta-E=       -0.000000331159 Rises=F Damp=F
 DIIS: error= 2.63D-05 at cycle   2 NSaved=   2.
 NSaved= 2 IEnMin= 2 EnMin= -724.323407038172     IErMin= 2 ErrMin= 2.63D-05
 ErrMax= 2.63D-05  0.00D+00 EMaxC= 1.00D-01 BMatC= 2.68D-07 BMatP= 5.51D-07
 IDIUse=1 WtCom= 1.00D+00 WtEn= 0.00D+00
 Coeff-Com:  0.378D+00 0.622D+00
 Coeff:      0.378D+00 0.622D+00
 Gap=     0.457 Goal=   None    Shift=    0.000
 RMSDP=1.87D-06 MaxDP=9.25D-05 DE=-3.31D-07 OVMax= 8.28D-05

 Cycle   9  Pass 1  IDiag  1:
 E= -724.323407172162     Delta-E=       -0.000000133989 Rises=F Damp=F
 DIIS: error= 1.12D-05 at cycle   3 NSaved=   3.
 NSaved= 3 IEnMin= 3 EnMin= -724.323407172162     IErMin= 3 ErrMin= 1.12D-05
 ErrMax= 1.12D-05  0.00D+00 EMaxC= 1.00D-01 BMatC= 5.02D-08 BMatP= 2.68D-07
 IDIUse=1 WtCom= 1.00D+00 WtEn= 0.00D+00
 Coeff-Com: -0.450D-01 0.287D+00 0.758D+00
 Coeff:     -0.450D-01 0.287D+00 0.758D+00
 Gap=     0.457 Goal=   None    Shift=    0.000
 RMSDP=7.93D-07 MaxDP=2.73D-05 DE=-1.34D-07 OVMax= 3.63D-05

 Cycle  10  Pass 1  IDiag  1:
 E= -724.323407203220     Delta-E=       -0.000000031059 Rises=F Damp=F
 DIIS: error= 2.33D-06 at cycle   4 NSaved=   4.
 NSaved= 4 IEnMin= 4 EnMin= -724.323407203220     IErMin= 4 ErrMin= 2.33D-06
 ErrMax= 2.33D-06  0.00D+00 EMaxC= 1.00D-01 BMatC= 1.69D-09 BMatP= 5.02D-08
 IDIUse=1 WtCom= 1.00D+00 WtEn= 0.00D+00
 Coeff-Com: -0.253D-01 0.117D+00 0.332D+00 0.576D+00
 Coeff:     -0.253D-01 0.117D+00 0.332D+00 0.576D+00
 Gap=     0.457 Goal=   None    Shift=    0.000
 RMSDP=1.58D-07 MaxDP=4.68D-06 DE=-3.11D-08 OVMax= 1.07D-05

 Cycle  11  Pass 1  IDiag  1:
 E= -724.323407204315     Delta-E=       -0.000000001094 Rises=F Damp=F
 DIIS: error= 6.69D-07 at cycle   5 NSaved=   5.
 NSaved= 5 IEnMin= 5 EnMin= -724.323407204315     IErMin= 5 ErrMin= 6.69D-07
 ErrMax= 6.69D-07  0.00D+00 EMaxC= 1.00D-01 BMatC= 2.43D-10 BMatP= 1.69D-09
 IDIUse=1 WtCom= 1.00D+00 WtEn= 0.00D+00
 Coeff-Com: -0.210D-04-0.220D-01-0.524D-01 0.238D+00 0.836D+00
 Coeff:     -0.210D-04-0.220D-01-0.524D-01 0.238D+00 0.836D+00
 Gap=     0.457 Goal=   None    Shift=    0.000
 RMSDP=7.97D-08 MaxDP=1.61D-06 DE=-1.09D-09 OVMax= 4.69D-06

 Cycle  12  Pass 1  IDiag  1:
 E= -724.323407204553     Delta-E=       -0.000000000239 Rises=F Damp=F
 DIIS: error= 1.81D-07 at cycle   6 NSaved=   6.
 NSaved= 6 IEnMin= 6 EnMin= -724.323407204553     IErMin= 6 ErrMin= 1.81D-07
 ErrMax= 1.81D-07  0.00D+00 EMaxC= 1.00D-01 BMatC= 1.46D-11 BMatP= 2.43D-10
 IDIUse=1 WtCom= 1.00D+00 WtEn= 0.00D+00
 Coeff-Com:  0.162D-02-0.158D-01-0.409D-01 0.360D-01 0.265D+00 0.754D+00
 Coeff:      0.162D-02-0.158D-01-0.409D-01 0.360D-01 0.265D+00 0.754D+00
 Gap=     0.457 Goal=   None    Shift=    0.000
 RMSDP=1.88D-08 MaxDP=3.63D-07 DE=-2.39D-10 OVMax= 1.07D-06

 Cycle  13  Pass 1  IDiag  1:
 E= -724.323407204535     Delta-E=        0.000000000018 Rises=F Damp=F
 DIIS: error= 1.02D-07 at cycle   7 NSaved=   7.
 NSaved= 7 IEnMin= 6 EnMin= -724.323407204553     IErMin= 7 ErrMin= 1.02D-07
 ErrMax= 1.02D-07  0.00D+00 EMaxC= 1.00D-01 BMatC= 2.90D-12 BMatP= 1.46D-11
 IDIUse=1 WtCom= 1.00D+00 WtEn= 0.00D+00
 Coeff-Com:  0.856D-03-0.630D-02-0.165D-01 0.135D-03 0.595D-01 0.343D+00
 Coeff-Com:  0.619D+00
 Coeff:      0.856D-03-0.630D-02-0.165D-01 0.135D-03 0.595D-01 0.343D+00
 Coeff:      0.619D+00
 Gap=     0.457 Goal=   None    Shift=    0.000
 RMSDP=6.46D-09 MaxDP=1.98D-07 DE= 1.82D-11 OVMax= 4.26D-07

 SCF Done:  E(RM062X) =  -724.323407205     A.U. after   13 cycles
            NFock= 13  Conv=0.65D-08     -V/T= 2.0024
 KE= 7.225969513903D+02 PE=-2.301537778285D+03 EE= 5.626115399240D+02
 Leave Link  502 at Sat May 24 05:33:13 2025, MaxMem=  3758096384 cpu:              24.7 elap:               4.4
 (Enter /apps/easybuild-2022/easybuild/software/Compiler/NVHPC/22.11-CUDA-11.7.0/Gaussian/g16c01-CUDA-11.7.0/g16/l508.exe)
 QCSCF skips out because SCF is already converged.
 Leave Link  508 at Sat May 24 05:33:13 2025, MaxMem=  3758096384 cpu:               0.0 elap:               0.0
 (Enter /apps/easybuild-2022/easybuild/software/Compiler/NVHPC/22.11-CUDA-11.7.0/Gaussian/g16c01-CUDA-11.7.0/g16/l801.exe)
 DoSCS=F DFT=T ScalE2(SS,OS)=  1.000000  1.000000
 Range of M.O.s used for correlation:     1   180
 NBasis=   180 NAE=    25 NBE=    25 NFC=     0 NFV=     0
 NROrb=    180 NOA=    25 NOB=    25 NVA=   155 NVB=   155

 **** Warning!!: The largest alpha MO coefficient is  0.14169632D+02

 Leave Link  801 at Sat May 24 05:33:13 2025, MaxMem=  3758096384 cpu:               0.0 elap:               0.0
 (Enter /apps/easybuild-2022/easybuild/software/Compiler/NVHPC/22.11-CUDA-11.7.0/Gaussian/g16c01-CUDA-11.7.0/g16/l1101.exe)
 Using compressed storage, NAtomX=     6.
 Will process      7 centers per pass.
   1 Symmetry operations used in ECPInt.
 ECPInt:  NShTT=    2080 NPrTT=    6796 LenC2=    2059 LenP2D=    5513.
 LDataN:  DoStor=T MaxTD1= 7 Len=  274
 Leave Link 1101 at Sat May 24 05:33:13 2025, MaxMem=  3758096384 cpu:               0.6 elap:               0.1
 (Enter /apps/easybuild-2022/easybuild/software/Compiler/NVHPC/22.11-CUDA-11.7.0/Gaussian/g16c01-CUDA-11.7.0/g16/l1102.exe)
 Symmetrizing basis deriv contribution to polar:
 IMax=3 JMax=2 DiffMx= 0.00D+00
 Leave Link 1102 at Sat May 24 05:33:13 2025, MaxMem=  3758096384 cpu:               0.1 elap:               0.0
 (Enter /apps/easybuild-2022/easybuild/software/Compiler/NVHPC/22.11-CUDA-11.7.0/Gaussian/g16c01-CUDA-11.7.0/g16/l1110.exe)
 Forming Gx(P) for the SCF density, NAtomX=     6.
 Integral derivatives from FoFJK, PRISM(SPDF).
 Do as many integral derivatives as possible in FoFJK.
 G2DrvN: MDV=    3758095630.
 G2DrvN: will do     7 centers at a time, making    1 passes.
 Calling FoFCou, ICntrl=  3107 FMM=F I1Cent=   0 AccDes= 0.00D+00.
 FoFJK:  IHMeth= 1 ICntrl=    3107 DoSepK=F KAlg= 0 I1Cent=           0 FoldK=F
 IRaf=         0 NMat=       1 IRICut=       1 DoRegI=T DoRafI=F ISym2E= 0 IDoP0=0 IntGTp=1.
 FoFCou: FMM=F IPFlag=           0 FMFlag=      100000 FMFlg1=           0
         NFxFlg=           0 DoJE=F BraDBF=F KetDBF=F FulRan=T
         wScrn=  0.000000 ICntrl=      3107 IOpCl=  0 I1Cent=           0 NGrid=           0
         NMat0=    1 NMatS0=      1 NMatT0=    0 NMatD0=    1 NMtDS0=    0 NMtDT0=    0
 Symmetry not used in FoFCou.
 End of G2Drv F.D. properties file   721 does not exist.
 End of G2Drv F.D. properties file   722 does not exist.
 End of G2Drv F.D. properties file   788 does not exist.
 Leave Link 1110 at Sat May 24 05:33:20 2025, MaxMem=  3758096384 cpu:              55.0 elap:               7.0
 (Enter /apps/easybuild-2022/easybuild/software/Compiler/NVHPC/22.11-CUDA-11.7.0/Gaussian/g16c01-CUDA-11.7.0/g16/l1002.exe)
 Minotr:  Closed shell wavefunction.
          IDoAtm=111111
          Direct CPHF calculation.
          Differentiating once with respect to nuclear coordinates.
          Requested convergence is 1.0D-08 RMS, and 1.0D-07 maximum.
          Secondary convergence is 1.0D-12 RMS, and 1.0D-12 maximum.
          NewPWx=T KeepS1=F KeepF1=F KeepIn=T MapXYZ=F SortEE=F KeepMc=T.
         1782 words used for storage of precomputed grid.
 Keep R1 ints in memory in canonical form, NReq=140950614.
 FoFCou: FMM=F IPFlag=           0 FMFlag=           0 FMFlg1=           0
         NFxFlg=           0 DoJE=F BraDBF=F KetDBF=F FulRan=T
         wScrn=  0.000000 ICntrl=       600 IOpCl=  0 I1Cent=           0 NGrid=           0
         NMat0=    1 NMatS0=  16290 NMatT0=    0 NMatD0=    1 NMtDS0=    0 NMtDT0=    0
 Symmetry not used in FoFCou.
 Two-electron integral symmetry not used.
          MDV=    3758096384 using IRadAn=       1.
          Solving linear equations simultaneously, MaxMat=       0.
          There are    21 degrees of freedom in the 1st order CPHF.  IDoFFX=6 NUNeed=     0.
     15 vectors produced by pass  0 Test12= 1.85D-14 4.76D-09 XBig12= 2.14D-01 1.39D-01.
 AX will form    15 AO Fock derivatives at one time.
     15 vectors produced by pass  1 Test12= 1.85D-14 4.76D-09 XBig12= 3.33D-02 4.65D-02.
     15 vectors produced by pass  2 Test12= 1.85D-14 4.76D-09 XBig12= 6.84D-04 7.45D-03.
     15 vectors produced by pass  3 Test12= 1.85D-14 4.76D-09 XBig12= 1.75D-05 8.00D-04.
     15 vectors produced by pass  4 Test12= 1.85D-14 4.76D-09 XBig12= 2.97D-07 1.69D-04.
     15 vectors produced by pass  5 Test12= 1.85D-14 4.76D-09 XBig12= 3.84D-09 1.34D-05.
     15 vectors produced by pass  6 Test12= 1.85D-14 4.76D-09 XBig12= 4.23D-11 1.03D-06.
     10 vectors produced by pass  7 Test12= 1.85D-14 4.76D-09 XBig12= 2.63D-13 9.39D-08.
      2 vectors produced by pass  8 Test12= 1.85D-14 4.76D-09 XBig12= 2.09D-15 6.53D-09.
 InvSVY:  IOpt=1 It=  1 EMax= 1.55D-15
 Solved reduced A of dimension   117 with    15 vectors.
 End of Minotr F.D. properties file   721 does not exist.
 End of Minotr F.D. properties file   722 does not exist.
 End of Minotr F.D. properties file   788 does not exist.
 Leave Link 1002 at Sat May 24 05:33:30 2025, MaxMem=  3758096384 cpu:              76.2 elap:               9.7
 (Enter /apps/easybuild-2022/easybuild/software/Compiler/NVHPC/22.11-CUDA-11.7.0/Gaussian/g16c01-CUDA-11.7.0/g16/l701.exe)
 ... and contract with generalized density number  0.
 Compute integral second derivatives.
   1 Symmetry operations used in ECPInt.
 ECPInt:  NShTT=    2080 NPrTT=    6796 LenC2=    2059 LenP2D=    5513.
 LDataN:  DoStor=T MaxTD1= 8 Len=  415
 Leave Link  701 at Sat May 24 05:33:30 2025, MaxMem=  3758096384 cpu:               0.6 elap:               0.1
 (Enter /apps/easybuild-2022/easybuild/software/Compiler/NVHPC/22.11-CUDA-11.7.0/Gaussian/g16c01-CUDA-11.7.0/g16/l702.exe)
 L702 exits ... SP integral derivatives will be done elsewhere.
 Leave Link  702 at Sat May 24 05:33:30 2025, MaxMem=  3758096384 cpu:               0.0 elap:               0.0
 (Enter /apps/easybuild-2022/easybuild/software/Compiler/NVHPC/22.11-CUDA-11.7.0/Gaussian/g16c01-CUDA-11.7.0/g16/l703.exe)
 Integral derivatives from FoFJK, PRISM(SPDF).
 Compute integral second derivatives, UseDBF=F ICtDFT=           0.
 Calling FoFJK, ICntrl=    100127 FMM=F ISym2X=0 I1Cent= 0 IOpClX= 0 NMat=1 NMatS=1 NMatT=0.
 FoFJK:  IHMeth= 1 ICntrl=  100127 DoSepK=F KAlg= 0 I1Cent=           0 FoldK=F
 IRaf=         0 NMat=       1 IRICut=       1 DoRegI=T DoRafI=F ISym2E= 0 IDoP0=0 IntGTp=1.
 FoFCou: FMM=F IPFlag=           0 FMFlag=      100000 FMFlg1=         800
         NFxFlg=           0 DoJE=F BraDBF=F KetDBF=F FulRan=T
         wScrn=  0.000000 ICntrl=    100127 IOpCl=  0 I1Cent=           0 NGrid=           0
         NMat0=    1 NMatS0=      1 NMatT0=    0 NMatD0=    1 NMtDS0=    0 NMtDT0=    0
 Symmetry not used in FoFCou.
 Leave Link  703 at Sat May 24 05:33:50 2025, MaxMem=  3758096384 cpu:             153.0 elap:              19.3
 (Enter /apps/easybuild-2022/easybuild/software/Compiler/NVHPC/22.11-CUDA-11.7.0/Gaussian/g16c01-CUDA-11.7.0/g16/l716.exe)
 Dipole        =-1.77161527D-01 1.01015721D+00 6.05706299D-01
 Polarizability= 0.00000000D+00 0.00000000D+00 0.00000000D+00
                 0.00000000D+00 0.00000000D+00 0.00000000D+00
 -------------------------------------------------------------------
 Center     Atomic                   Forces (Hartrees/Bohr)
 Number     Number              X              Y              Z
 -------------------------------------------------------------------
      1        9          -0.000044041    0.000007624    0.000003121
      2       16           0.000087378   -0.000001275    0.000022348
      3        8          -0.000026966    0.000041413   -0.000015928
      4        8          -0.000004402   -0.000024701   -0.000033088
      5        8          -0.000016595   -0.000020146    0.000008527
      6        1           0.000004626   -0.000002916    0.000015020
 -------------------------------------------------------------------
 Cartesian Forces:  Max     0.000087378 RMS     0.000029414
 Force constants in Cartesian coordinates: 
                1             2             3             4             5 
      1  0.359643D+00
      2  0.484795D-02  0.569277D-01
      3  0.174013D-02 -0.344081D-03  0.650197D-01
      4 -0.288997D+00  0.426765D-02 -0.181138D-02  0.641861D+00
      5  0.850205D-02 -0.694147D-01 -0.158263D-02 -0.112296D+00  0.763836D+00
      6  0.115752D-02 -0.827230D-03 -0.811580D-01 -0.157936D-01  0.233718D-01
      7 -0.242708D-01  0.169664D-01 -0.389770D-01 -0.138561D+00  0.670720D-01
      8  0.267158D-02  0.128616D-01  0.678158D-02  0.685299D-01 -0.197061D+00
      9 -0.861350D-02  0.606044D-02  0.140465D-02 -0.149432D+00  0.206611D+00
     10 -0.245043D-01  0.152798D-01  0.397360D-01 -0.144709D+00  0.672647D-01
     11  0.289775D-02  0.124801D-01 -0.673881D-02  0.683492D-01 -0.175471D+00
     12  0.727842D-02 -0.504955D-02  0.142422D-02  0.167579D+00 -0.204481D+00
     13 -0.175450D-01 -0.402501D-01 -0.228835D-02 -0.729742D-01 -0.255884D-01
     14 -0.191090D-01 -0.129004D-01 -0.290350D-03 -0.255320D-01 -0.293640D+00
     15 -0.501436D-02 -0.269689D-02  0.138193D-01 -0.144431D-03 -0.143175D-01
     16 -0.432607D-02 -0.111174D-02  0.160056D-02  0.337902D-02 -0.495479D-02
     17  0.189641D-03  0.457419D-04  0.217429D-02 -0.331926D-02 -0.282487D-01
     18  0.345179D-02  0.285731D-02 -0.509814D-03 -0.398102D-03 -0.960173D-02
                6             7             8             9            10 
      6  0.140509D+01
      7 -0.146389D+00  0.129326D+00
      8  0.207176D+00 -0.811590D-01  0.185921D+00
      9 -0.586918D+00  0.173898D+00 -0.242376D+00  0.608116D+00
     10  0.162927D+00  0.191891D-01  0.146780D-02 -0.118433D-01  0.136355D+00
     11 -0.199566D+00  0.875473D-03  0.202108D-01  0.170878D-01 -0.796661D-01
     12 -0.626363D+00  0.119253D-01 -0.160305D-01 -0.244092D-01 -0.190657D+00
     13  0.352627D-02  0.169945D-01  0.829165D-02 -0.305449D-02  0.111153D-01
     14  0.168567D-01 -0.388971D-02 -0.285537D-01  0.908227D-02 -0.418355D-02
     15 -0.112172D+00  0.197940D-03  0.384146D-01  0.623236D-02  0.882785D-03
     16 -0.542834D-02 -0.267843D-02  0.198097D-03 -0.954694D-03  0.255337D-02
     17 -0.470114D-01  0.134848D-03  0.662143D-02  0.353495D-02 -0.162559D-03
     18  0.152006D-02 -0.655540D-03  0.603444D-02 -0.442575D-02 -0.104490D-02
               11            12            13            14            15 
     11  0.170223D+00
     12  0.233488D+00  0.649990D+00
     13  0.562737D-02  0.262167D-02  0.669468D-01
     14 -0.215541D-01 -0.847818D-02  0.607839D-01  0.439605D+00
     15 -0.488594D-01 -0.526752D-02  0.104173D-01  0.151774D+00  0.556507D+00
     16  0.191633D-02  0.125256D-02 -0.453729D-02 -0.806975D-02 -0.633922D-02
     17 -0.588870D-02  0.550703D-03 -0.886452D-02 -0.829566D-01 -0.124314D+00
     18  0.458812D-02  0.462528D-02 -0.112224D-01 -0.168944D+00 -0.459120D+00
               16            17            18 
     16  0.560939D-02
     17  0.120219D-01  0.110427D+00
     18  0.986913D-02  0.165066D+00  0.457910D+00
 FormGI is forming the generalized inverse of G from B-inverse, IUseBI=4.
 Force constants in internal coordinates: 
                1             2             3             4             5 
      1  0.359652D+00
      2  0.154206D-01  0.775275D+00
      3  0.146366D-01  0.628963D-02  0.808348D+00
      4  0.220768D-01  0.178334D-01  0.150196D-01  0.393503D+00
      5 -0.322552D-02 -0.577036D-02 -0.518854D-02  0.583403D-02  0.523803D+00
      6  0.187840D-01  0.136691D-01 -0.107199D-01 -0.255283D-01  0.362918D-02
      7  0.166608D-01 -0.116451D-01  0.145132D-01 -0.225517D-01  0.349854D-02
      8  0.279140D-01 -0.139805D-01 -0.121901D-01  0.366669D-01 -0.506328D-02
      9 -0.120385D-01  0.468560D-02  0.827752D-02 -0.282450D-01  0.536422D-02
     10 -0.204324D-01  0.261734D-01 -0.223823D-01  0.155806D-01 -0.121057D-01
     11 -0.183130D-01 -0.236438D-01  0.181462D-01  0.354410D-01  0.290569D-02
     12  0.309016D-02  0.441213D-02  0.618758D-02  0.505129D-01  0.239934D-01
     13  0.335347D-02  0.129154D-01 -0.141846D-01 -0.269569D-02 -0.878499D-03
     14 -0.236643D-01 -0.392963D-02  0.992847D-02  0.442619D-02  0.105345D-02
     15  0.275123D-01 -0.122932D-01  0.195650D-02 -0.215270D-02  0.172615D-02
                6             7             8             9            10 
      6  0.173909D+00
      7  0.669992D-02  0.173560D+00
      8 -0.838072D-01 -0.799823D-01  0.306049D+00
      9  0.192855D-01  0.178813D-01 -0.567042D-01  0.173338D+00
     10 -0.682075D-01 -0.641362D-01  0.172517D-02 -0.987524D-01  0.273982D+00
     11 -0.621518D-01 -0.647507D-01 -0.367101D-02 -0.966183D-01 -0.380244D-01
     12 -0.566429D-02  0.113568D-02  0.418468D-02 -0.294271D-03 -0.268179D-01
     13  0.580880D-01 -0.603520D-01  0.458073D-02 -0.617424D-03  0.321073D-01
     14 -0.760810D-01 -0.125283D-01 -0.398875D-01  0.334319D-01  0.233667D-01
     15  0.134308D-01  0.776623D-01  0.403022D-01 -0.320987D-01 -0.481224D-01
               11            12            13            14            15 
     11  0.270214D+00
     12  0.283845D-01  0.154669D+00
     13 -0.333705D-01 -0.674393D-02  0.506900D-01
     14  0.485869D-01  0.581710D-02 -0.253775D-01  0.694654D-01
     15 -0.271166D-01  0.441583D-02 -0.229094D-01 -0.411073D-01  0.702064D-01
 Leave Link  716 at Sat May 24 05:33:50 2025, MaxMem=  3758096384 cpu:               0.0 elap:               0.0
 (Enter /apps/easybuild-2022/easybuild/software/Compiler/NVHPC/22.11-CUDA-11.7.0/Gaussian/g16c01-CUDA-11.7.0/g16/l103.exe)

 GradGradGradGradGradGradGradGradGradGradGradGradGradGradGradGradGradGrad
 Berny optimization.
 Red2BG is reusing G-inverse.
 Internal  Forces:  Max     0.000050764 RMS     0.000029279
 Search for a local minimum.
 Step number   1 out of a maximum of   25
 All quantities printed in internal units (Hartrees-Bohrs-Radians)
 RMS Force = .29279D-04 SwitMx=.10000D-02 MixMth= 2
 Mixed Optimization -- En-DIIS/RFO-DIIS
 Second derivative matrix not updated -- analytic derivatives used.
 The second derivative matrix:
                          R1        R2        R3        R4        R5
           R1           0.35965
           R2           0.01542   0.77528
           R3           0.01464   0.00629   0.80835
           R4           0.02208   0.01783   0.01502   0.39350
           R5          -0.00323  -0.00577  -0.00519   0.00583   0.52380
           A1           0.01878   0.01367  -0.01072  -0.02553   0.00363
           A2           0.01666  -0.01165   0.01451  -0.02255   0.00350
           A3           0.02791  -0.01398  -0.01219   0.03667  -0.00506
           A4          -0.01204   0.00469   0.00828  -0.02825   0.00536
           A5          -0.02043   0.02617  -0.02238   0.01558  -0.01211
           A6          -0.01831  -0.02364   0.01815   0.03544   0.00291
           A7           0.00309   0.00441   0.00619   0.05051   0.02399
           D1           0.00335   0.01292  -0.01418  -0.00270  -0.00088
           D2          -0.02366  -0.00393   0.00993   0.00443   0.00105
           D3           0.02751  -0.01229   0.00196  -0.00215   0.00173
                          A1        A2        A3        A4        A5
           A1           0.17391
           A2           0.00670   0.17356
           A3          -0.08381  -0.07998   0.30605
           A4           0.01929   0.01788  -0.05670   0.17334
           A5          -0.06821  -0.06414   0.00173  -0.09875   0.27398
           A6          -0.06215  -0.06475  -0.00367  -0.09662  -0.03802
           A7          -0.00566   0.00114   0.00418  -0.00029  -0.02682
           D1           0.05809  -0.06035   0.00458  -0.00062   0.03211
           D2          -0.07608  -0.01253  -0.03989   0.03343   0.02337
           D3           0.01343   0.07766   0.04030  -0.03210  -0.04812
                          A6        A7        D1        D2        D3
           A6           0.27021
           A7           0.02838   0.15467
           D1          -0.03337  -0.00674   0.05069
           D2           0.04859   0.00582  -0.02538   0.06947
           D3          -0.02712   0.00442  -0.02291  -0.04111   0.07021
 ITU=  0
     Eigenvalues ---    0.00342   0.13578   0.20957   0.22837   0.28938
     Eigenvalues ---    0.31199   0.35726   0.41088   0.50790   0.52798
     Eigenvalues ---    0.78049   0.81365
 RFO step:  Lambda=-4.90577033D-08 EMin= 3.42049775D-03
 Linear search not attempted -- first point.
 Iteration  1 RMS(Cart)=  0.00036368 RMS(Int)=  0.00000020
 Iteration  2 RMS(Cart)=  0.00000017 RMS(Int)=  0.00000000
 ITry= 1 IFail=0 DXMaxC= 7.80D-04 DCOld= 1.00D+10 DXMaxT= 3.00D-01 DXLimC= 3.00D+00 Rises=F
 Variable       Old X    -DE/DX   Delta X   Delta X   Delta X     New X
                                 (Linear)    (Quad)   (Total)
    R1        2.92623   0.00004   0.00000   0.00013   0.00013   2.92637
    R2        2.66653  -0.00004   0.00000  -0.00004  -0.00004   2.66649
    R3        2.65198   0.00004   0.00000   0.00004   0.00004   2.65202
    R4        2.94876  -0.00003   0.00000  -0.00005  -0.00005   2.94870
    R5        1.82838   0.00001   0.00000   0.00003   0.00003   1.82841
    A1        1.85514  -0.00001   0.00000  -0.00003  -0.00003   1.85510
    A2        1.86516  -0.00001   0.00000  -0.00008  -0.00008   1.86508
    A3        1.72451  -0.00002   0.00000  -0.00007  -0.00007   1.72444
    A4        2.16645   0.00003   0.00000   0.00012   0.00012   2.16656
    A5        1.91763  -0.00005   0.00000  -0.00019  -0.00019   1.91745
    A6        1.88285   0.00005   0.00000   0.00021   0.00021   1.88305
    A7        1.92314  -0.00002   0.00000  -0.00019  -0.00019   1.92295
    D1        1.53521  -0.00001   0.00000   0.00098   0.00098   1.53619
    D2       -0.40154   0.00003   0.00000   0.00110   0.00110  -0.40044
    D3       -2.81054  -0.00001   0.00000   0.00092   0.00092  -2.80962
         Item               Value     Threshold  Converged?
 Maximum Force            0.000051     0.000015     NO 
 RMS     Force            0.000029     0.000010     NO 
 Maximum Displacement     0.000780     0.000060     NO 
 RMS     Displacement     0.000364     0.000040     NO 
 Predicted change in Energy=-2.452885D-08
 Lowest energy point so far.  Saving SCF results.
 GradGradGradGradGradGradGradGradGradGradGradGradGradGradGradGradGradGrad

 Leave Link  103 at Sat May 24 05:33:50 2025, MaxMem=  3758096384 cpu:               0.0 elap:               0.0
 (Enter /apps/easybuild-2022/easybuild/software/Compiler/NVHPC/22.11-CUDA-11.7.0/Gaussian/g16c01-CUDA-11.7.0/g16/l202.exe)
                          Input orientation:                          
 ---------------------------------------------------------------------
 Center     Atomic      Atomic             Coordinates (Angstroms)
 Number     Number       Type             X           Y           Z
 ---------------------------------------------------------------------
      1          9           0       -0.000073   -0.000151   -0.000144
      2         16           0        1.548494    0.000054   -0.000061
      3          8           0        1.944288   -0.546360    1.239227
      4          8           0        1.955686   -0.499143   -1.246853
      5          8           0        1.787089    1.542092    0.000022
      6          1           0        1.807017    1.876659    0.907671
 ---------------------------------------------------------------------
                    Distance matrix (angstroms):
                    1          2          3          4          5
     1  F    0.000000
     2  S    1.548567   0.000000
     3  O    2.369583   1.411048   0.000000
     4  O    2.372397   1.403387   2.486555   0.000000
     5  O    2.360605   1.560387   2.433511   2.397866   0.000000
     6  H    2.759006   2.100585   2.449448   3.210688   0.967554
                    6
     6  H    0.000000
 Symmetry turned off by external request.
 Stoichiometry    FHO3S
 Rotational constants (GHZ):           5.1208077           5.0727096           4.9933878
 Leave Link  202 at Sat May 24 05:33:50 2025, MaxMem=  3758096384 cpu:               0.0 elap:               0.0
 (Enter /apps/easybuild-2022/easybuild/software/Compiler/NVHPC/22.11-CUDA-11.7.0/Gaussian/g16c01-CUDA-11.7.0/g16/l301.exe)
 Standard basis: def2TZVPP (5D, 7F)
 Ernie: Thresh=  0.10000D-02 Tol=  0.10000D-05 Strict=F.
   180 basis functions,   290 primitive gaussians,   207 cartesian basis functions
    25 alpha electrons       25 beta electrons
       nuclear repulsion energy       292.0046424693 Hartrees.
 IExCor= 4336 DFT=T Ex+Corr=M062X ExCW=0 ScaHFX=  0.540000
 ScaDFX=  1.000000  1.000000  1.000000  1.000000 ScalE2=  1.000000  1.000000
 IRadAn=      5 IRanWt=     -1 IRanGd=            0 ICorTp=0 IEmpDi=  4
 NAtoms=    6 NActive=    6 NUniq=    6 SFac= 1.00D+00 NAtFMM=   60 NAOKFM=F Big=F
 Integral buffers will be    131072 words long.
 Raffenetti 2 integral format.
 Two-electron integral symmetry is turned off.
 Leave Link  301 at Sat May 24 05:33:50 2025, MaxMem=  3758096384 cpu:               0.1 elap:               0.1
 (Enter /apps/easybuild-2022/easybuild/software/Compiler/NVHPC/22.11-CUDA-11.7.0/Gaussian/g16c01-CUDA-11.7.0/g16/l302.exe)
 NPDir=0 NMtPBC=     1 NCelOv=     1 NCel=       1 NClECP=     1 NCelD=      1
         NCelK=      1 NCelE2=     1 NClLst=     1 CellRange=     0.0.
 One-electron integrals computed using PRISM.
   1 Symmetry operations used in ECPInt.
 ECPInt:  NShTT=    2080 NPrTT=    6796 LenC2=    2059 LenP2D=    5513.
 LDataN:  DoStor=T MaxTD1= 6 Len=  172
 NBasis=   180 RedAO= T EigKep=  9.05D-04  NBF=   180
 NBsUse=   180 1.00D-06 EigRej= -1.00D+00 NBFU=   180
 Precomputing XC quadrature grid using
 IXCGrd= 4 IRadAn=           5 IRanWt=          -1 IRanGd=           0 AccXCQ= 0.00D+00.
 Generated NRdTot=       0 NPtTot=           0 NUsed=           0 NTot=          32
 NSgBfM=   206   206   206   206   206 MxSgAt=     6 MxSgA2=     6.
 Leave Link  302 at Sat May 24 05:33:50 2025, MaxMem=  3758096384 cpu:               0.4 elap:               0.1
 (Enter /apps/easybuild-2022/easybuild/software/Compiler/NVHPC/22.11-CUDA-11.7.0/Gaussian/g16c01-CUDA-11.7.0/g16/l303.exe)
 DipDrv:  MaxL=1.
 Leave Link  303 at Sat May 24 05:33:50 2025, MaxMem=  3758096384 cpu:               0.1 elap:               0.0
 (Enter /apps/easybuild-2022/easybuild/software/Compiler/NVHPC/22.11-CUDA-11.7.0/Gaussian/g16c01-CUDA-11.7.0/g16/l401.exe)
 Initial guess from the checkpoint file:  "/tmp/Gau-158653.chk"
 B after Tr=    -0.000085   -0.000244   -0.000172
         Rot=    1.000000    0.000032    0.000023   -0.000059 Ang=   0.01 deg.
 Guess basis will be translated and rotated to current coordinates.
 JPrj=2 DoOrth=T DoCkMO=T.
 Leave Link  401 at Sat May 24 05:33:50 2025, MaxMem=  3758096384 cpu:               0.1 elap:               0.1
 (Enter /apps/easybuild-2022/easybuild/software/Compiler/NVHPC/22.11-CUDA-11.7.0/Gaussian/g16c01-CUDA-11.7.0/g16/l502.exe)
 Keep R1 ints in memory in canonical form, NReq=140972698.
 FoFCou: FMM=F IPFlag=           0 FMFlag=           0 FMFlg1=           0
         NFxFlg=           0 DoJE=F BraDBF=F KetDBF=F FulRan=T
         wScrn=  0.000000 ICntrl=       600 IOpCl=  0 I1Cent=           0 NGrid=           0
         NMat0=    1 NMatS0=  16290 NMatT0=    0 NMatD0=    1 NMtDS0=    0 NMtDT0=    0
 Symmetry not used in FoFCou.
 Two-electron integral symmetry not used.
 Closed shell SCF:
 Using DIIS extrapolation, IDIIS=  1040.
 NGot=  3758096384 LenX=  3625317310 LenY=  3625274020
 Requested convergence on RMS density matrix=1.00D-08 within  32 cycles.
 Requested convergence on MAX density matrix=1.00D-06.
 Requested convergence on             energy=1.00D-06.
 No special actions if energy rises.

 Cycle   1  Pass 1  IDiag  1:
 E= -724.323407086396    
 DIIS: error= 2.27D-05 at cycle   1 NSaved=   1.
 NSaved= 1 IEnMin= 1 EnMin= -724.323407086396     IErMin= 1 ErrMin= 2.27D-05
 ErrMax= 2.27D-05  0.00D+00 EMaxC= 1.00D-01 BMatC= 1.41D-07 BMatP= 1.41D-07
 IDIUse=1 WtCom= 1.00D+00 WtEn= 0.00D+00
 Coeff-Com:  0.100D+01
 Coeff:      0.100D+01
 Gap=     1.106 Goal=   None    Shift=    0.000
 RMSDP=2.04D-06 MaxDP=8.88D-05              OVMax= 1.03D-04

 Cycle   2  Pass 1  IDiag  1:
 E= -724.323407222660     Delta-E=       -0.000000136263 Rises=F Damp=F
 DIIS: error= 5.45D-06 at cycle   2 NSaved=   2.
 NSaved= 2 IEnMin= 2 EnMin= -724.323407222660     IErMin= 2 ErrMin= 5.45D-06
 ErrMax= 5.45D-06  0.00D+00 EMaxC= 1.00D-01 BMatC= 4.34D-09 BMatP= 1.41D-07
 IDIUse=1 WtCom= 1.00D+00 WtEn= 0.00D+00
 Coeff-Com: -0.886D-01 0.109D+01
 Coeff:     -0.886D-01 0.109D+01
 Gap=     0.457 Goal=   None    Shift=    0.000
 RMSDP=4.29D-07 MaxDP=1.82D-05 DE=-1.36D-07 OVMax= 3.01D-05

 Cycle   3  Pass 1  IDiag  1:
 E= -724.323407227591     Delta-E=       -0.000000004931 Rises=F Damp=F
 DIIS: error= 3.62D-06 at cycle   3 NSaved=   3.
 NSaved= 3 IEnMin= 3 EnMin= -724.323407227591     IErMin= 3 ErrMin= 3.62D-06
 ErrMax= 3.62D-06  0.00D+00 EMaxC= 1.00D-01 BMatC= 2.27D-09 BMatP= 4.34D-09
 IDIUse=1 WtCom= 1.00D+00 WtEn= 0.00D+00
 Coeff-Com: -0.586D-01 0.483D+00 0.575D+00
 Coeff:     -0.586D-01 0.483D+00 0.575D+00
 Gap=     0.457 Goal=   None    Shift=    0.000
 RMSDP=1.54D-07 MaxDP=5.15D-06 DE=-4.93D-09 OVMax= 9.83D-06

 Cycle   4  Pass 1  IDiag  1:
 E= -724.323407228852     Delta-E=       -0.000000001262 Rises=F Damp=F
 DIIS: error= 1.06D-06 at cycle   4 NSaved=   4.
 NSaved= 4 IEnMin= 4 EnMin= -724.323407228852     IErMin= 4 ErrMin= 1.06D-06
 ErrMax= 1.06D-06  0.00D+00 EMaxC= 1.00D-01 BMatC= 2.15D-10 BMatP= 2.27D-09
 IDIUse=1 WtCom= 1.00D+00 WtEn= 0.00D+00
 Coeff-Com: -0.285D-02-0.394D-01 0.213D+00 0.829D+00
 Coeff:     -0.285D-02-0.394D-01 0.213D+00 0.829D+00
 Gap=     0.457 Goal=   None    Shift=    0.000
 RMSDP=6.25D-08 MaxDP=2.41D-06 DE=-1.26D-09 OVMax= 4.14D-06

 Cycle   5  Pass 1  IDiag  1:
 E= -724.323407229030     Delta-E=       -0.000000000178 Rises=F Damp=F
 DIIS: error= 1.96D-07 at cycle   5 NSaved=   5.
 NSaved= 5 IEnMin= 5 EnMin= -724.323407229030     IErMin= 5 ErrMin= 1.96D-07
 ErrMax= 1.96D-07  0.00D+00 EMaxC= 1.00D-01 BMatC= 1.23D-11 BMatP= 2.15D-10
 IDIUse=1 WtCom= 1.00D+00 WtEn= 0.00D+00
 Coeff-Com:  0.172D-02-0.416D-01 0.462D-01 0.308D+00 0.686D+00
 Coeff:      0.172D-02-0.416D-01 0.462D-01 0.308D+00 0.686D+00
 Gap=     0.457 Goal=   None    Shift=    0.000
 RMSDP=1.58D-08 MaxDP=5.01D-07 DE=-1.78D-10 OVMax= 9.22D-07

 Cycle   6  Pass 1  IDiag  1:
 E= -724.323407229023     Delta-E=        0.000000000007 Rises=F Damp=F
 DIIS: error= 8.20D-08 at cycle   6 NSaved=   6.
 NSaved= 6 IEnMin= 5 EnMin= -724.323407229030     IErMin= 6 ErrMin= 8.20D-08
 ErrMax= 8.20D-08  0.00D+00 EMaxC= 1.00D-01 BMatC= 3.19D-12 BMatP= 1.23D-11
 IDIUse=1 WtCom= 1.00D+00 WtEn= 0.00D+00
 Coeff-Com:  0.138D-02-0.180D-01-0.790D-02 0.456D-01 0.369D+00 0.610D+00
 Coeff:      0.138D-02-0.180D-01-0.790D-02 0.456D-01 0.369D+00 0.610D+00
 Gap=     0.457 Goal=   None    Shift=    0.000
 RMSDP=6.13D-09 MaxDP=1.81D-07 DE= 6.82D-12 OVMax= 3.93D-07

 SCF Done:  E(RM062X) =  -724.323407229     A.U. after    6 cycles
            NFock=  6  Conv=0.61D-08     -V/T= 2.0024
 KE= 7.225968767846D+02 PE=-2.301535262701D+03 EE= 5.626103362184D+02
 Leave Link  502 at Sat May 24 05:33:53 2025, MaxMem=  3758096384 cpu:              18.0 elap:               2.9
 (Enter /apps/easybuild-2022/easybuild/software/Compiler/NVHPC/22.11-CUDA-11.7.0/Gaussian/g16c01-CUDA-11.7.0/g16/l508.exe)
 QCSCF skips out because SCF is already converged.
 Leave Link  508 at Sat May 24 05:33:53 2025, MaxMem=  3758096384 cpu:               0.0 elap:               0.0
 (Enter /apps/easybuild-2022/easybuild/software/Compiler/NVHPC/22.11-CUDA-11.7.0/Gaussian/g16c01-CUDA-11.7.0/g16/l701.exe)
 ... and contract with generalized density number  0.
 Compute integral first derivatives.
   1 Symmetry operations used in ECPInt.
 ECPInt:  NShTT=    2080 NPrTT=    6796 LenC2=    2059 LenP2D=    5513.
 LDataN:  DoStor=T MaxTD1= 7 Len=  274
 Leave Link  701 at Sat May 24 05:33:53 2025, MaxMem=  3758096384 cpu:               0.5 elap:               0.1
 (Enter /apps/easybuild-2022/easybuild/software/Compiler/NVHPC/22.11-CUDA-11.7.0/Gaussian/g16c01-CUDA-11.7.0/g16/l702.exe)
 L702 exits ... SP integral derivatives will be done elsewhere.
 Leave Link  702 at Sat May 24 05:33:53 2025, MaxMem=  3758096384 cpu:               0.0 elap:               0.0
 (Enter /apps/easybuild-2022/easybuild/software/Compiler/NVHPC/22.11-CUDA-11.7.0/Gaussian/g16c01-CUDA-11.7.0/g16/l703.exe)
 Integral derivatives from FoFJK, PRISM(SPDF).
 Compute integral first derivatives, UseDBF=F ICtDFT=           0.
 Calling FoFJK, ICntrl=      2127 FMM=F ISym2X=0 I1Cent= 0 IOpClX= 0 NMat=1 NMatS=1 NMatT=0.
 FoFJK:  IHMeth= 1 ICntrl=    2127 DoSepK=F KAlg= 0 I1Cent=           0 FoldK=F
 IRaf=         0 NMat=       1 IRICut=       1 DoRegI=T DoRafI=F ISym2E= 0 IDoP0=0 IntGTp=1.
 FoFCou: FMM=F IPFlag=           0 FMFlag=      100000 FMFlg1=         800
         NFxFlg=           0 DoJE=F BraDBF=F KetDBF=F FulRan=T
         wScrn=  0.000000 ICntrl=      2127 IOpCl=  0 I1Cent=           0 NGrid=           0
         NMat0=    1 NMatS0=      1 NMatT0=    0 NMatD0=    1 NMtDS0=    0 NMtDT0=    0
 Symmetry not used in FoFCou.
 Leave Link  703 at Sat May 24 05:33:55 2025, MaxMem=  3758096384 cpu:              14.2 elap:               1.8
 (Enter /apps/easybuild-2022/easybuild/software/Compiler/NVHPC/22.11-CUDA-11.7.0/Gaussian/g16c01-CUDA-11.7.0/g16/l716.exe)
 Dipole        =-1.76429534D-01 1.00985461D+00 6.05614520D-01
 -------------------------------------------------------------------
 Center     Atomic                   Forces (Hartrees/Bohr)
 Number     Number              X              Y              Z
 -------------------------------------------------------------------
      1        9          -0.000000446    0.000002138   -0.000001220
      2       16          -0.000000505   -0.000000318    0.000000786
      3        8          -0.000002699    0.000000890    0.000001865
      4        8           0.000000287   -0.000002777    0.000001745
      5        8           0.000002021   -0.000000602   -0.000001393
      6        1           0.000001344    0.000000670   -0.000001782
 -------------------------------------------------------------------
 Cartesian Forces:  Max     0.000002777 RMS     0.000001517
 Leave Link  716 at Sat May 24 05:33:55 2025, MaxMem=  3758096384 cpu:               0.1 elap:               0.0
 (Enter /apps/easybuild-2022/easybuild/software/Compiler/NVHPC/22.11-CUDA-11.7.0/Gaussian/g16c01-CUDA-11.7.0/g16/l103.exe)

 GradGradGradGradGradGradGradGradGradGradGradGradGradGradGradGradGradGrad
 Berny optimization.
 Using GEDIIS/GDIIS optimizer.
 FormGI is forming the generalized inverse of G from B-inverse, IUseBI=4.
 Internal  Forces:  Max     0.000000103 RMS     0.000000046
 Search for a local minimum.
 Step number   2 out of a maximum of   25
 All quantities printed in internal units (Hartrees-Bohrs-Radians)
 RMS Force = .46496D-07 SwitMx=.10000D-02 MixMth= 2
 Mixed Optimization -- En-DIIS/RFO-DIIS
 Swapping is turned off.
 Update second derivatives using D2CorX and points    1    2
 DE= -2.45D-08 DEPred=-2.45D-08 R= 9.98D-01
 Trust test= 9.98D-01 RLast= 1.78D-03 DXMaxT set to 3.00D-01
 The second derivative matrix:
                          R1        R2        R3        R4        R5
           R1           0.35954
           R2           0.01551   0.77520
           R3           0.01446   0.00644   0.80812
           R4           0.02207   0.01785   0.01506   0.39355
           R5          -0.00329  -0.00571  -0.00527   0.00585   0.52377
           A1           0.01875   0.01370  -0.01073  -0.02550   0.00363
           A2           0.01668  -0.01166   0.01454  -0.02255   0.00351
           A3           0.02800  -0.01406  -0.01207   0.03665  -0.00502
           A4          -0.01207   0.00471   0.00820  -0.02827   0.00534
           A5          -0.02035   0.02611  -0.02221   0.01562  -0.01205
           A6          -0.01841  -0.02356   0.01797   0.03542   0.00284
           A7           0.00312   0.00439   0.00624   0.05052   0.02401
           D1           0.00338   0.01289  -0.01415  -0.00269  -0.00086
           D2          -0.02367  -0.00393   0.00987   0.00438   0.00103
           D3           0.02757  -0.01234   0.00202  -0.00217   0.00175
                          A1        A2        A3        A4        A5
           A1           0.17393
           A2           0.00670   0.17356
           A3          -0.08380  -0.08000   0.30599
           A4           0.01926   0.01789  -0.05667   0.17334
           A5          -0.06816  -0.06415   0.00165  -0.09875   0.27395
           A6          -0.06219  -0.06473  -0.00359  -0.09664  -0.03796
           A7          -0.00565   0.00113   0.00416  -0.00029  -0.02683
           D1           0.05809  -0.06036   0.00456  -0.00061   0.03209
           D2          -0.07611  -0.01252  -0.03986   0.03345   0.02334
           D3           0.01343   0.07765   0.04027  -0.03207  -0.04817
                          A6        A7        D1        D2        D3
           A6           0.27013
           A7           0.02841   0.15466
           D1          -0.03335  -0.00675   0.05068
           D2           0.04859   0.00581  -0.02537   0.06950
           D3          -0.02706   0.00440  -0.02292  -0.04109   0.07019
 ITU=  0  0
     Eigenvalues ---    0.00343   0.13575   0.20958   0.22834   0.28924
     Eigenvalues ---    0.31204   0.35723   0.41085   0.50791   0.52793
     Eigenvalues ---    0.78036   0.81343
 En-DIIS/RFO-DIIS/Sim-DIIS IScMMF=       -3 using points:     2    1
 RFO step:  Lambda=-1.35845888D-13.
 NNeg= 0 NGDIIS= 2 SimSw=  2.50D-03 Rises=F DC= -2.45D-08 SmlDif=  1.00D-05
 NRisDI= 0 DoIntr=F SqrtH=F CThrHd= 10.0 CDAdj=  3.0
 RMS Error=  0.4398111836D-05 NUsed= 2 OKEnD=F EnDIS=F
 InvSVX:  RCond= 3.58D-06 Info=           0 Equed=N FErr=  8.97D-16 BErr=  3.63D-17
 DidBck=F Rises=F RFO-DIIS coefs:    0.99065    0.00935
 Iteration  1 RMS(Cart)=  0.00000316 RMS(Int)=  0.00000000
 Iteration  2 RMS(Cart)=  0.00000000 RMS(Int)=  0.00000000
 ITry= 1 IFail=0 DXMaxC= 8.52D-06 DCOld= 1.00D+10 DXMaxT= 3.00D-01 DXLimC= 3.00D+00 Rises=F
 Variable       Old X    -DE/DX   Delta X   Delta X   Delta X     New X
                                 (Linear)    (Quad)   (Total)
    R1        2.92637   0.00000  -0.00000   0.00000   0.00000   2.92637
    R2        2.66649  -0.00000   0.00000  -0.00000  -0.00000   2.66649
    R3        2.65202   0.00000  -0.00000   0.00000   0.00000   2.65202
    R4        2.94870   0.00000   0.00000  -0.00000   0.00000   2.94870
    R5        1.82841   0.00000  -0.00000   0.00000   0.00000   1.82841
    A1        1.85510   0.00000   0.00000  -0.00000   0.00000   1.85510
    A2        1.86508  -0.00000   0.00000  -0.00000   0.00000   1.86508
    A3        1.72444  -0.00000   0.00000  -0.00000  -0.00000   1.72444
    A4        2.16656  -0.00000  -0.00000   0.00000  -0.00000   2.16656
    A5        1.91745   0.00000   0.00000  -0.00000   0.00000   1.91745
    A6        1.88305  -0.00000  -0.00000   0.00000  -0.00000   1.88305
    A7        1.92295   0.00000   0.00000  -0.00000   0.00000   1.92295
    D1        1.53619  -0.00000  -0.00001  -0.00000  -0.00001   1.53618
    D2       -0.40044  -0.00000  -0.00001   0.00000  -0.00001  -0.40045
    D3       -2.80962  -0.00000  -0.00001  -0.00000  -0.00001  -2.80963
         Item               Value     Threshold  Converged?
 Maximum Force            0.000000     0.000015     YES
 RMS     Force            0.000000     0.000010     YES
 Maximum Displacement     0.000009     0.000060     YES
 RMS     Displacement     0.000003     0.000040     YES
 Predicted change in Energy=-5.364495D-13
 Optimization completed.
    -- Stationary point found.
                           ----------------------------
                           !   Optimized Parameters   !
                           ! (Angstroms and Degrees)  !
 --------------------------                            --------------------------
 ! Name  Definition              Value          Derivative Info.                !
 --------------------------------------------------------------------------------
 ! R1    R(1,2)                  1.5486         -DE/DX =    0.0                 !
 ! R2    R(2,3)                  1.411          -DE/DX =    0.0                 !
 ! R3    R(2,4)                  1.4034         -DE/DX =    0.0                 !
 ! R4    R(2,5)                  1.5604         -DE/DX =    0.0                 !
 ! R5    R(5,6)                  0.9676         -DE/DX =    0.0                 !
 ! A1    A(1,2,3)              106.2896         -DE/DX =    0.0                 !
 ! A2    A(1,2,4)              106.8612         -DE/DX =    0.0                 !
 ! A3    A(1,2,5)               98.803          -DE/DX =    0.0                 !
 ! A4    A(3,2,4)              124.1349         -DE/DX =    0.0                 !
 ! A5    A(3,2,5)              109.8617         -DE/DX =    0.0                 !
 ! A6    A(4,2,5)              107.891          -DE/DX =    0.0                 !
 ! A7    A(2,5,6)              110.1769         -DE/DX =    0.0                 !
 ! D1    D(1,2,5,6)             88.0172         -DE/DX =    0.0                 !
 ! D2    D(3,2,5,6)            -22.9436         -DE/DX =    0.0                 !
 ! D3    D(4,2,5,6)           -160.9797         -DE/DX =    0.0                 !
 --------------------------------------------------------------------------------
 Lowest energy point so far.  Saving SCF results.
 Largest change from initial coordinates is atom    6       0.001 Angstoms.
 GradGradGradGradGradGradGradGradGradGradGradGradGradGradGradGradGradGrad

 Leave Link  103 at Sat May 24 05:33:55 2025, MaxMem=  3758096384 cpu:               0.0 elap:               0.0
 (Enter /apps/easybuild-2022/easybuild/software/Compiler/NVHPC/22.11-CUDA-11.7.0/Gaussian/g16c01-CUDA-11.7.0/g16/l202.exe)
                          Input orientation:                          
 ---------------------------------------------------------------------
 Center     Atomic      Atomic             Coordinates (Angstroms)
 Number     Number       Type             X           Y           Z
 ---------------------------------------------------------------------
      1          9           0       -0.000073   -0.000151   -0.000144
      2         16           0        1.548494    0.000054   -0.000061
      3          8           0        1.944288   -0.546360    1.239227
      4          8           0        1.955686   -0.499143   -1.246853
      5          8           0        1.787089    1.542092    0.000022
      6          1           0        1.807017    1.876659    0.907671
 ---------------------------------------------------------------------
                    Distance matrix (angstroms):
                    1          2          3          4          5
     1  F    0.000000
     2  S    1.548567   0.000000
     3  O    2.369583   1.411048   0.000000
     4  O    2.372397   1.403387   2.486555   0.000000
     5  O    2.360605   1.560387   2.433511   2.397866   0.000000
     6  H    2.759006   2.100585   2.449448   3.210688   0.967554
                    6
     6  H    0.000000
 Symmetry turned off by external request.
 Stoichiometry    FHO3S
 Rotational constants (GHZ):           5.1208077           5.0727096           4.9933878
 Leave Link  202 at Sat May 24 05:33:55 2025, MaxMem=  3758096384 cpu:               0.0 elap:               0.0
 (Enter /apps/easybuild-2022/easybuild/software/Compiler/NVHPC/22.11-CUDA-11.7.0/Gaussian/g16c01-CUDA-11.7.0/g16/l9999.exe)
 Unable to Open any file for archive entry.
 1\1\GINC-SPARTAN-BM210\FOpt\RM062X\def2TZVPP\F1H1O3S1\AKHALILOV\24-May
 -2025\0\\#P M062X/Def2TZVPP Symm(None) scf(xqc) pop(None) freq opt(Cal
 cFC, Tight)\\Gaussian input prepared by ASE\\0,1\F,-0.0000725192,-0.00
 01505305,-0.0001441798\S,1.548494483,0.0000541006,-0.0000608425\O,1.94
 42876604,-0.5463603314,1.239227212\O,1.9556863086,-0.4991427588,-1.246
 8533866\O,1.7870889666,1.5420920066,0.0000217395\H,1.8070169951,1.8766
 593387,0.907671286\\Version=ES64L-G16RevC.01\HF=-724.3234072\RMSD=6.13
 4e-09\RMSF=1.517e-06\Dipole=-0.1764295,1.0098546,0.6056145\PG=Unknown\
 \@
 The archive entry for this job was punched.


 HO!  SUCH BUGS AND GOBLINS IN MY LIFE!

                            -- HAMLET, ACT 5, SCENE 2
 Leave Link 9999 at Sat May 24 05:33:55 2025, MaxMem=  3758096384 cpu:               0.0 elap:               0.0
 Job cpu time:       0 days  0 hours  5 minutes 46.6 seconds.
 Elapsed time:       0 days  0 hours  0 minutes 46.7 seconds.
 File lengths (MBytes):  RWF=     26 Int=      0 D2E=      0 Chk=      3 Scr=      1
 Normal termination of Gaussian 16 at Sat May 24 05:33:55 2025.
 (Enter /apps/easybuild-2022/easybuild/software/Compiler/NVHPC/22.11-CUDA-11.7.0/Gaussian/g16c01-CUDA-11.7.0/g16/l1.exe)
 Link1:  Proceeding to internal job step number  2.
 ---------------------------------------------------------------------
 #P Geom=AllCheck Guess=TCheck SCRF=Check GenChk RM062X/def2TZVPP Freq
 ---------------------------------------------------------------------
 1/7=10,10=4,29=7,30=1,38=1,40=1/1,3;
 2/12=2,15=3,40=1/2;
 3/5=44,7=202,11=2,14=-4,25=1,30=1,70=2,71=2,74=-55,116=1,140=1/1,2,3;
 4/5=101/1;
 5/5=2,8=3,13=1,38=6,98=1/2,8;
 8/6=4,10=90,11=11/1;
 11/6=1,8=1,9=11,15=111,16=1,31=1/1,2,10;
 10/6=1,31=1/2;
 7/8=1,10=1,25=1,30=1/1,2,3,16;
 1/7=10,10=4,30=1/3;
 99//99;
 Leave Link    1 at Sat May 24 05:33:55 2025, MaxMem=  3758096384 cpu:               0.0 elap:               0.0
 (Enter /apps/easybuild-2022/easybuild/software/Compiler/NVHPC/22.11-CUDA-11.7.0/Gaussian/g16c01-CUDA-11.7.0/g16/l101.exe)
 Structure from the checkpoint file:  "/tmp/Gau-158653.chk"
 ------------------------------
 Gaussian input prepared by ASE
 ------------------------------
 Charge =  0 Multiplicity = 1
 Redundant internal coordinates found in file.  (old form).
 F,0,-0.0000725192,-0.0001505305,-0.0001441798
 S,0,1.548494483,0.0000541006,-0.0000608425
 O,0,1.9442876604,-0.5463603314,1.239227212
 O,0,1.9556863086,-0.4991427588,-1.2468533866
 O,0,1.7870889666,1.5420920066,0.0000217395
 H,0,1.8070169951,1.8766593387,0.907671286
 Recover connectivity data from disk.
 ITRead=  0  0  0  0  0  0
 MicOpt= -1 -1 -1 -1 -1 -1
 NAtoms=      6 NQM=        6 NQMF=       0 NMMI=      0 NMMIF=      0
                NMic=       0 NMicF=      0.
                    Isotopes and Nuclear Properties:
 (Nuclear quadrupole moments (NQMom) in fm**2, nuclear magnetic moments (NMagM)
  in nuclear magnetons)

  Atom         1           2           3           4           5           6
 IAtWgt=          19          32          16          16          16           1
 AtmWgt=  18.9984032  31.9720718  15.9949146  15.9949146  15.9949146   1.0078250
 NucSpn=           1           0           0           0           0           1
 AtZEff=   6.7500000  13.6000000   5.6000000   5.6000000   5.6000000   1.0000000
 NQMom=    0.0000000   0.0000000   0.0000000   0.0000000   0.0000000   0.0000000
 NMagM=    2.6288670   0.0000000   0.0000000   0.0000000   0.0000000   2.7928460
 AtZNuc=   9.0000000  16.0000000   8.0000000   8.0000000   8.0000000   1.0000000
 Leave Link  101 at Sat May 24 05:33:55 2025, MaxMem=  3758096384 cpu:               0.3 elap:               0.2
 (Enter /apps/easybuild-2022/easybuild/software/Compiler/NVHPC/22.11-CUDA-11.7.0/Gaussian/g16c01-CUDA-11.7.0/g16/l103.exe)

 GradGradGradGradGradGradGradGradGradGradGradGradGradGradGradGradGradGrad
 Berny optimization.
 Initialization pass.
                           ----------------------------
                           !    Initial Parameters    !
                           ! (Angstroms and Degrees)  !
 --------------------------                            --------------------------
 ! Name  Definition              Value          Derivative Info.                !
 --------------------------------------------------------------------------------
 ! R1    R(1,2)                  1.5486         calculate D2E/DX2 analytically  !
 ! R2    R(2,3)                  1.411          calculate D2E/DX2 analytically  !
 ! R3    R(2,4)                  1.4034         calculate D2E/DX2 analytically  !
 ! R4    R(2,5)                  1.5604         calculate D2E/DX2 analytically  !
 ! R5    R(5,6)                  0.9676         calculate D2E/DX2 analytically  !
 ! A1    A(1,2,3)              106.2896         calculate D2E/DX2 analytically  !
 ! A2    A(1,2,4)              106.8612         calculate D2E/DX2 analytically  !
 ! A3    A(1,2,5)               98.803          calculate D2E/DX2 analytically  !
 ! A4    A(3,2,4)              124.1349         calculate D2E/DX2 analytically  !
 ! A5    A(3,2,5)              109.8617         calculate D2E/DX2 analytically  !
 ! A6    A(4,2,5)              107.891          calculate D2E/DX2 analytically  !
 ! A7    A(2,5,6)              110.1769         calculate D2E/DX2 analytically  !
 ! D1    D(1,2,5,6)             88.0172         calculate D2E/DX2 analytically  !
 ! D2    D(3,2,5,6)            -22.9436         calculate D2E/DX2 analytically  !
 ! D3    D(4,2,5,6)           -160.9797         calculate D2E/DX2 analytically  !
 --------------------------------------------------------------------------------
 Trust Radius=3.00D-01 FncErr=1.00D-07 GrdErr=1.00D-07 EigMax=2.50D+02 EigMin=1.00D-04
 Number of steps in this run=      2 maximum allowed number of steps=      2.
 GradGradGradGradGradGradGradGradGradGradGradGradGradGradGradGradGradGrad

 Leave Link  103 at Sat May 24 05:33:55 2025, MaxMem=  3758096384 cpu:               0.0 elap:               0.0
 (Enter /apps/easybuild-2022/easybuild/software/Compiler/NVHPC/22.11-CUDA-11.7.0/Gaussian/g16c01-CUDA-11.7.0/g16/l202.exe)
                          Input orientation:                          
 ---------------------------------------------------------------------
 Center     Atomic      Atomic             Coordinates (Angstroms)
 Number     Number       Type             X           Y           Z
 ---------------------------------------------------------------------
      1          9           0       -0.000073   -0.000151   -0.000144
      2         16           0        1.548494    0.000054   -0.000061
      3          8           0        1.944288   -0.546360    1.239227
      4          8           0        1.955686   -0.499143   -1.246853
      5          8           0        1.787089    1.542092    0.000022
      6          1           0        1.807017    1.876659    0.907671
 ---------------------------------------------------------------------
                    Distance matrix (angstroms):
                    1          2          3          4          5
     1  F    0.000000
     2  S    1.548567   0.000000
     3  O    2.369583   1.411048   0.000000
     4  O    2.372397   1.403387   2.486555   0.000000
     5  O    2.360605   1.560387   2.433511   2.397866   0.000000
     6  H    2.759006   2.100585   2.449448   3.210688   0.967554
                    6
     6  H    0.000000
 Symmetry turned off by external request.
 Stoichiometry    FHO3S
 Rotational constants (GHZ):           5.1208077           5.0727096           4.9933878
 Leave Link  202 at Sat May 24 05:33:55 2025, MaxMem=  3758096384 cpu:               0.0 elap:               0.0
 (Enter /apps/easybuild-2022/easybuild/software/Compiler/NVHPC/22.11-CUDA-11.7.0/Gaussian/g16c01-CUDA-11.7.0/g16/l301.exe)
 Standard basis: def2TZVPP (5D, 7F)
 Ernie: Thresh=  0.10000D-02 Tol=  0.10000D-05 Strict=F.
   180 basis functions,   290 primitive gaussians,   207 cartesian basis functions
    25 alpha electrons       25 beta electrons
       nuclear repulsion energy       292.0046424693 Hartrees.
 IExCor= 4336 DFT=T Ex+Corr=M062X ExCW=0 ScaHFX=  0.540000
 ScaDFX=  1.000000  1.000000  1.000000  1.000000 ScalE2=  1.000000  1.000000
 IRadAn=      5 IRanWt=     -1 IRanGd=            0 ICorTp=0 IEmpDi=  4
 NAtoms=    6 NActive=    6 NUniq=    6 SFac= 1.00D+00 NAtFMM=   60 NAOKFM=F Big=F
 Integral buffers will be    131072 words long.
 Raffenetti 2 integral format.
 Two-electron integral symmetry is turned off.
 Leave Link  301 at Sat May 24 05:33:55 2025, MaxMem=  3758096384 cpu:               0.1 elap:               0.1
 (Enter /apps/easybuild-2022/easybuild/software/Compiler/NVHPC/22.11-CUDA-11.7.0/Gaussian/g16c01-CUDA-11.7.0/g16/l302.exe)
 NPDir=0 NMtPBC=     1 NCelOv=     1 NCel=       1 NClECP=     1 NCelD=      1
         NCelK=      1 NCelE2=     1 NClLst=     1 CellRange=     0.0.
 One-electron integrals computed using PRISM.
   1 Symmetry operations used in ECPInt.
 ECPInt:  NShTT=    2080 NPrTT=    6796 LenC2=    2059 LenP2D=    5513.
 LDataN:  DoStor=T MaxTD1= 6 Len=  172
 NBasis=   180 RedAO= T EigKep=  9.05D-04  NBF=   180
 NBsUse=   180 1.00D-06 EigRej= -1.00D+00 NBFU=   180
 Precomputing XC quadrature grid using
 IXCGrd= 4 IRadAn=           5 IRanWt=          -1 IRanGd=           0 AccXCQ= 0.00D+00.
 Generated NRdTot=       0 NPtTot=           0 NUsed=           0 NTot=          32
 NSgBfM=   206   206   206   206   206 MxSgAt=     6 MxSgA2=     6.
 Leave Link  302 at Sat May 24 05:33:55 2025, MaxMem=  3758096384 cpu:               0.4 elap:               0.1
 (Enter /apps/easybuild-2022/easybuild/software/Compiler/NVHPC/22.11-CUDA-11.7.0/Gaussian/g16c01-CUDA-11.7.0/g16/l303.exe)
 DipDrv:  MaxL=1.
 Leave Link  303 at Sat May 24 05:33:55 2025, MaxMem=  3758096384 cpu:               0.1 elap:               0.0
 (Enter /apps/easybuild-2022/easybuild/software/Compiler/NVHPC/22.11-CUDA-11.7.0/Gaussian/g16c01-CUDA-11.7.0/g16/l401.exe)
 Initial guess from the checkpoint file:  "/tmp/Gau-158653.chk"
 B after Tr=     0.000000    0.000000    0.000000
         Rot=    1.000000    0.000000    0.000000    0.000000 Ang=   0.00 deg.
 Guess basis will be translated and rotated to current coordinates.
 JPrj=2 DoOrth=T DoCkMO=T.
 Leave Link  401 at Sat May 24 05:33:56 2025, MaxMem=  3758096384 cpu:               0.1 elap:               0.1
 (Enter /apps/easybuild-2022/easybuild/software/Compiler/NVHPC/22.11-CUDA-11.7.0/Gaussian/g16c01-CUDA-11.7.0/g16/l502.exe)
 Keep R1 ints in memory in canonical form, NReq=140972698.
 FoFCou: FMM=F IPFlag=           0 FMFlag=           0 FMFlg1=           0
         NFxFlg=           0 DoJE=F BraDBF=F KetDBF=F FulRan=T
         wScrn=  0.000000 ICntrl=       600 IOpCl=  0 I1Cent=           0 NGrid=           0
         NMat0=    1 NMatS0=  16290 NMatT0=    0 NMatD0=    1 NMtDS0=    0 NMtDT0=    0
 Symmetry not used in FoFCou.
 Two-electron integral symmetry not used.
 Closed shell SCF:
 Using DIIS extrapolation, IDIIS=  1040.
 NGot=  3758096384 LenX=  3625317310 LenY=  3625274020
 Requested convergence on RMS density matrix=1.00D-08 within  32 cycles.
 Requested convergence on MAX density matrix=1.00D-06.
 Requested convergence on             energy=1.00D-06.
 No special actions if energy rises.

 Cycle   1  Pass 1  IDiag  1:
 E= -724.323407229033    
 DIIS: error= 1.87D-08 at cycle   1 NSaved=   1.
 NSaved= 1 IEnMin= 1 EnMin= -724.323407229033     IErMin= 1 ErrMin= 1.87D-08
 ErrMax= 1.87D-08  0.00D+00 EMaxC= 1.00D-01 BMatC= 6.10D-14 BMatP= 6.10D-14
 IDIUse=1 WtCom= 1.00D+00 WtEn= 0.00D+00
 Coeff-Com:  0.100D+01
 Coeff:      0.100D+01
 Gap=     0.457 Goal=   None    Shift=    0.000
 RMSDP=1.94D-09 MaxDP=7.63D-08              OVMax= 1.22D-07

 SCF Done:  E(RM062X) =  -724.323407229     A.U. after    1 cycles
            NFock=  1  Conv=0.19D-08     -V/T= 2.0024
 KE= 7.225968757564D+02 PE=-2.301535264200D+03 EE= 5.626103387451D+02
 Leave Link  502 at Sat May 24 05:33:57 2025, MaxMem=  3758096384 cpu:               7.0 elap:               1.0
 (Enter /apps/easybuild-2022/easybuild/software/Compiler/NVHPC/22.11-CUDA-11.7.0/Gaussian/g16c01-CUDA-11.7.0/g16/l508.exe)
 QCSCF skips out because SCF is already converged.
 Leave Link  508 at Sat May 24 05:33:57 2025, MaxMem=  3758096384 cpu:               0.0 elap:               0.0
 (Enter /apps/easybuild-2022/easybuild/software/Compiler/NVHPC/22.11-CUDA-11.7.0/Gaussian/g16c01-CUDA-11.7.0/g16/l801.exe)
 DoSCS=F DFT=T ScalE2(SS,OS)=  1.000000  1.000000
 Range of M.O.s used for correlation:     1   180
 NBasis=   180 NAE=    25 NBE=    25 NFC=     0 NFV=     0
 NROrb=    180 NOA=    25 NOB=    25 NVA=   155 NVB=   155

 **** Warning!!: The largest alpha MO coefficient is  0.14167157D+02

 Leave Link  801 at Sat May 24 05:33:57 2025, MaxMem=  3758096384 cpu:               0.0 elap:               0.0
 (Enter /apps/easybuild-2022/easybuild/software/Compiler/NVHPC/22.11-CUDA-11.7.0/Gaussian/g16c01-CUDA-11.7.0/g16/l1101.exe)
 Using compressed storage, NAtomX=     6.
 Will process      7 centers per pass.
   1 Symmetry operations used in ECPInt.
 ECPInt:  NShTT=    2080 NPrTT=    6796 LenC2=    2059 LenP2D=    5513.
 LDataN:  DoStor=T MaxTD1= 7 Len=  274
 Leave Link 1101 at Sat May 24 05:33:57 2025, MaxMem=  3758096384 cpu:               0.6 elap:               0.1
 (Enter /apps/easybuild-2022/easybuild/software/Compiler/NVHPC/22.11-CUDA-11.7.0/Gaussian/g16c01-CUDA-11.7.0/g16/l1102.exe)
 Symmetrizing basis deriv contribution to polar:
 IMax=3 JMax=2 DiffMx= 0.00D+00
 Leave Link 1102 at Sat May 24 05:33:57 2025, MaxMem=  3758096384 cpu:               0.1 elap:               0.0
 (Enter /apps/easybuild-2022/easybuild/software/Compiler/NVHPC/22.11-CUDA-11.7.0/Gaussian/g16c01-CUDA-11.7.0/g16/l1110.exe)
 Forming Gx(P) for the SCF density, NAtomX=     6.
 Integral derivatives from FoFJK, PRISM(SPDF).
 Do as many integral derivatives as possible in FoFJK.
 G2DrvN: MDV=    3758095630.
 G2DrvN: will do     7 centers at a time, making    1 passes.
 Calling FoFCou, ICntrl=  3107 FMM=F I1Cent=   0 AccDes= 0.00D+00.
 FoFJK:  IHMeth= 1 ICntrl=    3107 DoSepK=F KAlg= 0 I1Cent=           0 FoldK=F
 IRaf=         0 NMat=       1 IRICut=       1 DoRegI=T DoRafI=F ISym2E= 0 IDoP0=0 IntGTp=1.
 FoFCou: FMM=F IPFlag=           0 FMFlag=      100000 FMFlg1=           0
         NFxFlg=           0 DoJE=F BraDBF=F KetDBF=F FulRan=T
         wScrn=  0.000000 ICntrl=      3107 IOpCl=  0 I1Cent=           0 NGrid=           0
         NMat0=    1 NMatS0=      1 NMatT0=    0 NMatD0=    1 NMtDS0=    0 NMtDT0=    0
 Symmetry not used in FoFCou.
 End of G2Drv F.D. properties file   721 does not exist.
 End of G2Drv F.D. properties file   722 does not exist.
 End of G2Drv F.D. properties file   788 does not exist.
 Leave Link 1110 at Sat May 24 05:34:04 2025, MaxMem=  3758096384 cpu:              58.2 elap:               7.4
 (Enter /apps/easybuild-2022/easybuild/software/Compiler/NVHPC/22.11-CUDA-11.7.0/Gaussian/g16c01-CUDA-11.7.0/g16/l1002.exe)
 Minotr:  Closed shell wavefunction.
          IDoAtm=111111
          Direct CPHF calculation.
          Differentiating once with respect to electric field.
                with respect to dipole field.
          Differentiating once with respect to nuclear coordinates.
          Requested convergence is 1.0D-08 RMS, and 1.0D-07 maximum.
          Secondary convergence is 1.0D-12 RMS, and 1.0D-12 maximum.
          NewPWx=T KeepS1=F KeepF1=F KeepIn=T MapXYZ=F SortEE=F KeepMc=T.
         1782 words used for storage of precomputed grid.
 Keep R1 ints in memory in canonical form, NReq=140950614.
 FoFCou: FMM=F IPFlag=           0 FMFlag=           0 FMFlg1=           0
         NFxFlg=           0 DoJE=F BraDBF=F KetDBF=F FulRan=T
         wScrn=  0.000000 ICntrl=       600 IOpCl=  0 I1Cent=           0 NGrid=           0
         NMat0=    1 NMatS0=  16290 NMatT0=    0 NMatD0=    1 NMtDS0=    0 NMtDT0=    0
 Symmetry not used in FoFCou.
 Two-electron integral symmetry not used.
          MDV=    3758096384 using IRadAn=       1.
          Solving linear equations simultaneously, MaxMat=       0.
          There are    21 degrees of freedom in the 1st order CPHF.  IDoFFX=6 NUNeed=     3.
     18 vectors produced by pass  0 Test12= 1.85D-14 4.76D-09 XBig12= 1.30D+01 1.56D+00.
 AX will form    18 AO Fock derivatives at one time.
     18 vectors produced by pass  1 Test12= 1.85D-14 4.76D-09 XBig12= 2.94D+00 3.78D-01.
     18 vectors produced by pass  2 Test12= 1.85D-14 4.76D-09 XBig12= 8.92D-02 7.11D-02.
     18 vectors produced by pass  3 Test12= 1.85D-14 4.76D-09 XBig12= 2.54D-03 9.89D-03.
     18 vectors produced by pass  4 Test12= 1.85D-14 4.76D-09 XBig12= 4.89D-05 1.20D-03.
     18 vectors produced by pass  5 Test12= 1.85D-14 4.76D-09 XBig12= 4.12D-07 1.24D-04.
     18 vectors produced by pass  6 Test12= 1.85D-14 4.76D-09 XBig12= 1.96D-09 8.63D-06.
      9 vectors produced by pass  7 Test12= 1.85D-14 4.76D-09 XBig12= 9.38D-12 5.67D-07.
      3 vectors produced by pass  8 Test12= 1.85D-14 4.76D-09 XBig12= 3.92D-14 3.18D-08.
 InvSVY:  IOpt=1 It=  1 EMax= 2.22D-15
 Solved reduced A of dimension   138 with    21 vectors.
 FullF1:  Do perturbations      1 to       3.
 Isotropic polarizability for W=    0.000000       27.38 Bohr**3.
 End of Minotr F.D. properties file   721 does not exist.
 End of Minotr F.D. properties file   722 does not exist.
 End of Minotr F.D. properties file   788 does not exist.
 Leave Link 1002 at Sat May 24 05:34:17 2025, MaxMem=  3758096384 cpu:             100.5 elap:              12.8
 (Enter /apps/easybuild-2022/easybuild/software/Compiler/NVHPC/22.11-CUDA-11.7.0/Gaussian/g16c01-CUDA-11.7.0/g16/l701.exe)
 ... and contract with generalized density number  0.
 Compute integral second derivatives.
[...]
 
 -------------------------------------------------------------------
 Center     Atomic                   Forces (Hartrees/Bohr)
 Number     Number              X              Y              Z
 -------------------------------------------------------------------
      1        9          -0.000000490    0.000002131   -0.000001192
      2       16          -0.000000427   -0.000000289    0.000000588
      3        8          -0.000002703    0.000000872    0.000001915
      4        8           0.000000258   -0.000002747    0.000001841
      5        8           0.000002000   -0.000000624   -0.000001345
      6        1           0.000001361    0.000000657   -0.000001808
 -------------------------------------------------------------------
 Cartesian Forces:  Max     0.000002747 RMS     0.000001515
 Force constants in Cartesian coordinates: 
                1             2             3             4             5 
      1  0.359507D+00
      2  0.489414D-02  0.569414D-01
      3  0.175990D-02 -0.332360D-03  0.650319D-01
      4 -0.288856D+00  0.423802D-02 -0.182336D-02  0.641709D+00
      5  0.846861D-02 -0.694179D-01 -0.158368D-02 -0.112260D+00  0.763858D+00
      6  0.114396D-02 -0.825275D-03 -0.811643D-01 -0.157073D-01  0.234369D-01
      7 -0.242722D-01  0.169542D-01 -0.389804D-01 -0.138552D+00  0.670448D-01
      8  0.266421D-02  0.128658D-01  0.677331D-02  0.685035D-01 -0.196981D+00
      9 -0.861735D-02  0.605652D-02  0.139790D-02 -0.149464D+00  0.206573D+00
     10 -0.245134D-01  0.152792D-01  0.397355D-01 -0.144714D+00  0.672723D-01
     11  0.289667D-02  0.124819D-01 -0.673714D-02  0.683607D-01 -0.175506D+00
     12  0.728119D-02 -0.505106D-02  0.142406D-02  0.167561D+00 -0.204487D+00
     13 -0.175411D-01 -0.402485D-01 -0.229222D-02 -0.729650D-01 -0.255731D-01
     14 -0.191113D-01 -0.129118D-01 -0.294554D-03 -0.254885D-01 -0.293707D+00
     15 -0.502333D-02 -0.270689D-02  0.138217D-01 -0.166004D-03 -0.143229D-01
     16 -0.432474D-02 -0.111711D-02  0.160056D-02  0.337784D-02 -0.495227D-02
     17  0.187692D-03  0.405423D-04  0.217442D-02 -0.335348D-02 -0.282464D-01
     18  0.345563D-02  0.285907D-02 -0.511292D-03 -0.399464D-03 -0.961643D-02
                6             7             8             9            10 
      6  0.140515D+01
      7 -0.146412D+00  0.129315D+00
      8  0.207122D+00 -0.811319D-01  0.185858D+00
      9 -0.587085D+00  0.173933D+00 -0.242338D+00  0.608288D+00
     10  0.162901D+00  0.191877D-01  0.146422D-02 -0.118401D-01  0.136372D+00
     11 -0.199575D+00  0.875000D-03  0.202112D-01  0.170770D-01 -0.796750D-01
     12 -0.626247D+00  0.119251D-01 -0.160352D-01 -0.243925D-01 -0.190639D+00
     13  0.349580D-02  0.170026D-01  0.829637D-02 -0.305525D-02  0.111194D-01
     14  0.168696D-01 -0.388022D-02 -0.285765D-01  0.909475D-02 -0.418222D-02
     15 -0.112176D+00  0.189809D-03  0.384350D-01  0.622128D-02  0.890091D-03
     16 -0.542166D-02 -0.268095D-02  0.203611D-03 -0.955662D-03  0.254839D-02
     17 -0.470283D-01  0.138156D-03  0.662212D-02  0.353675D-02 -0.158410D-03
     18  0.151772D-02 -0.655623D-03  0.604266D-02 -0.443013D-02 -0.104735D-02
               11            12            13            14            15 
     11  0.170232D+00
     12  0.233488D+00  0.649847D+00
     13  0.561370D-02  0.261482D-02  0.669339D-01
     14 -0.215289D-01 -0.846736D-02  0.608705D-01  0.439567D+00
     15 -0.488414D-01 -0.525407D-02  0.108254D-01  0.151582D+00  0.556564D+00
     16  0.192897D-02  0.125737D-02 -0.454978D-02 -0.820821D-02 -0.671597D-02
     17 -0.589074D-02  0.551925D-03 -0.895896D-02 -0.828423D-01 -0.124146D+00
     18  0.458813D-02  0.462198D-02 -0.115886D-01 -0.168784D+00 -0.459177D+00
               16            17            18 
     16  0.562924D-02
     17  0.121450D-01  0.110317D+00
     18  0.102354D-01  0.164911D+00  0.457978D+00
 FormGI is forming the generalized inverse of G from B-inverse, IUseBI=4.
 Force constants in internal coordinates: 
                1             2             3             4             5 
      1  0.359519D+00
      2  0.154210D-01  0.775379D+00
      3  0.146404D-01  0.628154D-02  0.808231D+00
      4  0.220789D-01  0.178545D-01  0.150064D-01  0.393574D+00
      5 -0.322596D-02 -0.577683D-02 -0.518879D-02  0.583513D-02  0.523760D+00
      6  0.187872D-01  0.136632D-01 -0.107173D-01 -0.255250D-01  0.363156D-02
      7  0.166596D-01 -0.116470D-01  0.145227D-01 -0.225553D-01  0.349975D-02
      8  0.279246D-01 -0.139767D-01 -0.121878D-01  0.366888D-01 -0.505862D-02
      9 -0.120395D-01  0.465502D-02  0.827704D-02 -0.282494D-01  0.536976D-02
     10 -0.204306D-01  0.262246D-01 -0.223741D-01  0.156144D-01 -0.121149D-01
     11 -0.183132D-01 -0.236544D-01  0.181216D-01  0.353956D-01  0.290178D-02
     12  0.309000D-02  0.442082D-02  0.618531D-02  0.505281D-01  0.239936D-01
     13  0.335286D-02  0.129208D-01 -0.141825D-01 -0.269390D-02 -0.876304D-03
     14 -0.236677D-01 -0.393164D-02  0.991420D-02  0.441512D-02  0.105006D-02
     15  0.275215D-01 -0.122945D-01  0.196092D-02 -0.215383D-02  0.172961D-02
                6             7             8             9            10 
      6  0.173908D+00
      7  0.669807D-02  0.173572D+00
      8 -0.837788D-01 -0.800156D-01  0.306086D+00
      9  0.192897D-01  0.178857D-01 -0.567035D-01  0.173327D+00
     10 -0.682111D-01 -0.641425D-01  0.172198D-02 -0.988016D-01  0.274060D+00
     11 -0.621459D-01 -0.647361D-01 -0.366222D-02 -0.965687D-01 -0.380484D-01
     12 -0.566393D-02  0.113512D-02  0.421210D-02 -0.298783D-03 -0.268365D-01
     13  0.580952D-01 -0.603483D-01  0.456708D-02 -0.607615D-03  0.321022D-01
     14 -0.761019D-01 -0.125425D-01 -0.398683D-01  0.334159D-01  0.233953D-01
     15  0.134341D-01  0.776657D-01  0.403250D-01 -0.320779D-01 -0.481456D-01
               11            12            13            14            15 
     11  0.270132D+00
     12  0.283877D-01  0.154697D+00
     13 -0.333661D-01 -0.674269D-02  0.506847D-01
     14  0.485708D-01  0.580602D-02 -0.253672D-01  0.694653D-01
     15 -0.271256D-01  0.442896D-02 -0.229173D-01 -0.411189D-01  0.702222D-01
 Leave Link  716 at Sat May 24 05:34:41 2025, MaxMem=  3758096384 cpu:               0.0 elap:               0.0
 (Enter /apps/easybuild-2022/easybuild/software/Compiler/NVHPC/22.11-CUDA-11.7.0/Gaussian/g16c01-CUDA-11.7.0/g16/l103.exe)

 GradGradGradGradGradGradGradGradGradGradGradGradGradGradGradGradGradGrad
 Berny optimization.
 Red2BG is reusing G-inverse.
 Internal  Forces:  Max     0.000000053 RMS     0.000000030
 Search for a local minimum.
 Step number   1 out of a maximum of    2
 All quantities printed in internal units (Hartrees-Bohrs-Radians)
 Second derivative matrix not updated -- analytic derivatives used.
 The second derivative matrix:
                          R1        R2        R3        R4        R5
           R1           0.35952
           R2           0.01542   0.77538
           R3           0.01464   0.00628   0.80823
           R4           0.02208   0.01785   0.01501   0.39357
           R5          -0.00323  -0.00578  -0.00519   0.00584   0.52376
           A1           0.01879   0.01366  -0.01072  -0.02552   0.00363
           A2           0.01666  -0.01165   0.01452  -0.02256   0.00350
           A3           0.02792  -0.01398  -0.01219   0.03669  -0.00506
           A4          -0.01204   0.00466   0.00828  -0.02825   0.00537
           A5          -0.02043   0.02622  -0.02237   0.01561  -0.01211
           A6          -0.01831  -0.02365   0.01812   0.03540   0.00290
           A7           0.00309   0.00442   0.00619   0.05053   0.02399
           D1           0.00335   0.01292  -0.01418  -0.00269  -0.00088
           D2          -0.02367  -0.00393   0.00991   0.00442   0.00105
           D3           0.02752  -0.01229   0.00196  -0.00215   0.00173
                          A1        A2        A3        A4        A5
           A1           0.17391
           A2           0.00670   0.17357
           A3          -0.08378  -0.08002   0.30609
           A4           0.01929   0.01789  -0.05670   0.17333
           A5          -0.06821  -0.06414   0.00172  -0.09880   0.27406
           A6          -0.06215  -0.06474  -0.00366  -0.09657  -0.03805
           A7          -0.00566   0.00114   0.00421  -0.00030  -0.02684
           D1           0.05810  -0.06035   0.00457  -0.00061   0.03210
           D2          -0.07610  -0.01254  -0.03987   0.03342   0.02340
           D3           0.01343   0.07767   0.04033  -0.03208  -0.04815
                          A6        A7        D1        D2        D3
           A6           0.27013
           A7           0.02839   0.15470
           D1          -0.03337  -0.00674   0.05068
           D2           0.04857   0.00581  -0.02537   0.06947
           D3          -0.02713   0.00443  -0.02292  -0.04112   0.07022
 ITU=  0
     Eigenvalues ---    0.00342   0.13579   0.20954   0.22838   0.28935
     Eigenvalues ---    0.31203   0.35725   0.41084   0.50793   0.52795
     Eigenvalues ---    0.78060   0.81353
 Angle between quadratic step and forces=  65.79 degrees.
 Linear search not attempted -- first point.
 Iteration  1 RMS(Cart)=  0.00000246 RMS(Int)=  0.00000000
 Iteration  2 RMS(Cart)=  0.00000000 RMS(Int)=  0.00000000
 ITry= 1 IFail=0 DXMaxC= 6.63D-06 DCOld= 1.00D+10 DXMaxT= 3.00D-01 DXLimC= 3.00D+00 Rises=F
 Variable       Old X    -DE/DX   Delta X   Delta X   Delta X     New X
                                 (Linear)    (Quad)   (Total)
    R1        2.92637   0.00000   0.00000   0.00000   0.00000   2.92637
    R2        2.66649   0.00000   0.00000   0.00000   0.00000   2.66649
    R3        2.65202  -0.00000   0.00000  -0.00000  -0.00000   2.65202
    R4        2.94870   0.00000   0.00000   0.00000   0.00000   2.94870
    R5        1.82841   0.00000   0.00000   0.00000   0.00000   1.82841
    A1        1.85510   0.00000   0.00000  -0.00000  -0.00000   1.85510
    A2        1.86508   0.00000   0.00000   0.00000   0.00000   1.86508
    A3        1.72444  -0.00000   0.00000  -0.00000  -0.00000   1.72444
    A4        2.16656  -0.00000   0.00000  -0.00000  -0.00000   2.16656
    A5        1.91745   0.00000   0.00000   0.00000   0.00000   1.91745
    A6        1.88305   0.00000   0.00000  -0.00000  -0.00000   1.88305
    A7        1.92295   0.00000   0.00000   0.00000   0.00000   1.92295
    D1        1.53619  -0.00000   0.00000  -0.00001  -0.00001   1.53618
    D2       -0.40044  -0.00000   0.00000  -0.00001  -0.00001  -0.40045
    D3       -2.80962  -0.00000   0.00000  -0.00001  -0.00001  -2.80963
         Item               Value     Threshold  Converged?
 Maximum Force            0.000000     0.000015     YES
 RMS     Force            0.000000     0.000010     YES
 Maximum Displacement     0.000007     0.000060     YES
 RMS     Displacement     0.000002     0.000040     YES
 Predicted change in Energy=-3.147794D-13
 Optimization completed.
    -- Stationary point found.
                           ----------------------------
                           !   Optimized Parameters   !
                           ! (Angstroms and Degrees)  !
 --------------------------                            --------------------------
 ! Name  Definition              Value          Derivative Info.                !
 --------------------------------------------------------------------------------
 ! R1    R(1,2)                  1.5486         -DE/DX =    0.0                 !
 ! R2    R(2,3)                  1.411          -DE/DX =    0.0                 !
 ! R3    R(2,4)                  1.4034         -DE/DX =    0.0                 !
 ! R4    R(2,5)                  1.5604         -DE/DX =    0.0                 !
 ! R5    R(5,6)                  0.9676         -DE/DX =    0.0                 !
 ! A1    A(1,2,3)              106.2896         -DE/DX =    0.0                 !
 ! A2    A(1,2,4)              106.8612         -DE/DX =    0.0                 !
 ! A3    A(1,2,5)               98.803          -DE/DX =    0.0                 !
 ! A4    A(3,2,4)              124.1349         -DE/DX =    0.0                 !
 ! A5    A(3,2,5)              109.8617         -DE/DX =    0.0                 !
 ! A6    A(4,2,5)              107.891          -DE/DX =    0.0                 !
 ! A7    A(2,5,6)              110.1769         -DE/DX =    0.0                 !
 ! D1    D(1,2,5,6)             88.0172         -DE/DX =    0.0                 !
 ! D2    D(3,2,5,6)            -22.9436         -DE/DX =    0.0                 !
 ! D3    D(4,2,5,6)           -160.9797         -DE/DX =    0.0                 !
 --------------------------------------------------------------------------------
 GradGradGradGradGradGradGradGradGradGradGradGradGradGradGradGradGradGrad

 Leave Link  103 at Sat May 24 05:34:41 2025, MaxMem=  3758096384 cpu:               0.0 elap:               0.0
 (Enter /apps/easybuild-2022/easybuild/software/Compiler/NVHPC/22.11-CUDA-11.7.0/Gaussian/g16c01-CUDA-11.7.0/g16/l9999.exe)

 ----------------------------------------------------------------------

 Electric dipole moment (input orientation):
 (Debye = 10**-18 statcoulomb cm , SI units = C m)
                  (au)            (Debye)         (10**-30 SI)
   Tot        0.119067D+01      0.302639D+01      0.100949D+02
   x         -0.176429D+00     -0.448438D+00     -0.149583D+01
   y          0.100985D+01      0.256680D+01      0.856191D+01
   z          0.605614D+00      0.153932D+01      0.513461D+01

 Dipole polarizability, Alpha (input orientation).
 (esu units = cm**3 , SI units = C**2 m**2 J**-1)
 Alpha(0;0):
               (au)            (10**-24 esu)      (10**-40 SI)
   iso        0.273758D+02      0.405668D+01      0.451366D+01
   aniso      0.550669D+01      0.816008D+00      0.907931D+00
   xx         0.242666D+02      0.359594D+01      0.400102D+01
   yx        -0.309172D+00     -0.458145D-01     -0.509756D-01
   yy         0.276282D+02      0.409407D+01      0.455527D+01
   zx         0.479879D-01      0.711108D-02      0.791214D-02
   zy         0.103139D+01      0.152837D+00      0.170054D+00
   zz         0.302326D+02      0.448002D+01      0.498469D+01

 ----------------------------------------------------------------------

 Dipole orientation:
     9         -0.00019912          0.00007084         -0.00035954
    16          2.88363458          0.24391507         -0.43356881
     8          3.88168895         -2.22027327         -0.22898914
     8          3.21421637          1.81276593         -2.54605895
     8          3.57072167          1.80591876          1.97120017
     1          3.91465248          0.68510073          3.37425648

 Electric dipole moment (dipole orientation):
 (Debye = 10**-18 statcoulomb cm , SI units = C m)
                  (au)            (Debye)         (10**-30 SI)
   Tot        0.119067D+01      0.302639D+01      0.100949D+02
   x          0.000000D+00      0.000000D+00      0.000000D+00
   y          0.000000D+00      0.000000D+00      0.000000D+00
   z          0.119067D+01      0.302639D+01      0.100949D+02

 Dipole polarizability, Alpha (dipole orientation).
 (esu units = cm**3 , SI units = C**2 m**2 J**-1)
 Alpha(0;0):
               (au)            (10**-24 esu)      (10**-40 SI)
   iso        0.273758D+02      0.405668D+01      0.451366D+01
   aniso      0.550669D+01      0.816008D+00      0.907931D+00
   xx         0.244096D+02      0.361713D+01      0.402460D+01
   yx        -0.797243D+00     -0.118139D+00     -0.131448D+00
   yy         0.285293D+02      0.422760D+01      0.470384D+01
   zx         0.628880D+00      0.931904D-01      0.103688D+00
   zy        -0.153931D+01     -0.228103D+00     -0.253799D+00
   zz         0.291885D+02      0.432529D+01      0.481253D+01

 ----------------------------------------------------------------------
 Unable to Open any file for archive entry.
 1\1\GINC-SPARTAN-BM210\Freq\RM062X\def2TZVPP\F1H1O3S1\AKHALILOV\24-May
 -2025\0\\#P Geom=AllCheck Guess=TCheck SCRF=Check GenChk RM062X/def2TZ
 VPP Freq\\Gaussian input prepared by ASE\\0,1\F,-0.0000725192,-0.00015
 05305,-0.0001441798\S,1.548494483,0.0000541006,-0.0000608425\O,1.94428
 76604,-0.5463603314,1.239227212\O,1.9556863086,-0.4991427588,-1.246853
 3866\O,1.7870889666,1.5420920066,0.0000217395\H,1.8070169951,1.8766593
 387,0.907671286\\Version=ES64L-G16RevC.01\HF=-724.3234072\RMSD=1.936e-
 09\RMSF=1.515e-06\ZeroPoint=0.0281729\Thermal=0.0327582\ETot=-724.2906
 49\HTot=-724.2897048\GTot=-724.3231527\Dipole=-0.1764291,1.0098549,0.6
 056136\DipoleDeriv=-1.2085432,-0.0439462,-0.014834,0.0289107,-0.335832
 ,-0.011378,-0.0005883,-0.0080042,-0.3670678,2.4767011,-0.0067348,0.037
 2761,-0.0281293,2.6343815,0.0959471,0.015471,0.0163568,2.5722291,-0.57
 13495,0.0601342,-0.0865547,0.0631581,-0.7233279,0.1211462,-0.1522665,0
 .2377378,-1.0293407,-0.5650233,0.0498996,0.0768638,0.0632897,-0.632992
 7,-0.1332641,0.1468232,-0.1948599,-1.0005276,-0.4873123,-0.0648798,-0.
 02934,-0.1321446,-1.3331162,-0.1224953,-0.0344618,-0.1699548,-0.489287
 5,0.3555272,0.0055269,0.0165887,0.0049155,0.3908871,0.0500443,0.025022
 4,0.1187243,0.3139945\Polar=24.2665886,-0.3091719,27.6281823,0.0479879
 ,1.0313939,30.2326449\PG=Unknown\NImag=0\\0.35950737,0.00489414,0.0569
 4144,0.00175990,-0.00033236,0.06503194,-0.28885582,0.00423802,-0.00182
 336,0.64170885,0.00846861,-0.06941787,-0.00158368,-0.11226026,0.763858
 03,0.00114396,-0.00082528,-0.08116430,-0.01570733,0.02343686,1.4051541
 1,-0.02427222,0.01695424,-0.03898038,-0.13855225,0.06704477,-0.1464117
 8,0.12931505,0.00266421,0.01286577,0.00677331,0.06850353,-0.19698054,0
 .20712218,-0.08113194,0.18585790,-0.00861735,0.00605652,0.00139790,-0.
 14946447,0.20657288,-0.58708466,0.17393285,-0.24233789,0.60828815,-0.0
 2451345,0.01527916,0.03973550,-0.14471364,0.06727228,0.16290100,0.0191
 8773,0.00146422,-0.01184011,0.13637162,0.00289667,0.01248188,-0.006737
 14,0.06836069,-0.17550587,-0.19957506,0.00087500,0.02021125,0.01707699
 ,-0.07967503,0.17023235,0.00728119,-0.00505106,0.00142406,0.16756063,-
 0.20448671,-0.62624688,0.01192513,-0.01603524,-0.02439253,-0.19063914,
 0.23348845,0.64984744,-0.01754115,-0.04024847,-0.00229222,-0.07296498,
 -0.02557313,0.00349580,0.01700264,0.00829637,-0.00305525,0.01111936,0.
 00561370,0.00261482,0.06693392,-0.01911133,-0.01291176,-0.00029455,-0.
 02548850,-0.29370739,0.01686958,-0.00388022,-0.02857651,0.00909475,-0.
 00418222,-0.02152887,-0.00846736,0.06087048,0.43956678,-0.00502333,-0.
 00270689,0.01382170,-0.00016600,-0.01432291,-0.11217600,0.00018981,0.0
 3843499,0.00622128,0.00089009,-0.04884138,-0.00525407,0.01082540,0.151
 58178,0.55656381,-0.00432474,-0.00111711,0.00160056,0.00337784,-0.0049
 5227,-0.00542166,-0.00268095,0.00020361,-0.00095566,0.00254839,0.00192
 897,0.00125737,-0.00454978,-0.00820821,-0.00671597,0.00562924,0.000187
 69,0.00004054,0.00217442,-0.00335348,-0.02824637,-0.04702828,0.0001381
 6,0.00662212,0.00353675,-0.00015841,-0.00589074,0.00055192,-0.00895896
 ,-0.08284226,-0.12414559,0.01214501,0.11031669,0.00345563,0.00285907,-
 0.00051129,-0.00039946,-0.00961643,0.00151772,-0.00065562,0.00604266,-
 0.00443013,-0.00104735,0.00458813,0.00462198,-0.01158855,-0.16878420,-
 0.45917671,0.01023536,0.16491077,0.45797843\\0.00000049,-0.00000213,0.
 00000119,0.00000043,0.00000029,-0.00000059,0.00000270,-0.00000087,-0.0
 0000192,-0.00000026,0.00000275,-0.00000184,-0.00000200,0.00000062,0.00
 000134,-0.00000136,-0.00000066,0.00000181\\\@
 The archive entry for this job was punched.


 I FIND THAT THE THREE TRULY GREAT TIMES FOR THINKING THOUGHTS
 ARE WHEN I AM STANDING IN THE SHOWER, SITTING ON THE JOHN, OR WALKING.

                                    -- COLIN FLETCHER
 Job cpu time:       0 days  0 hours  5 minutes 54.1 seconds.
 Elapsed time:       0 days  0 hours  0 minutes 45.5 seconds.
 File lengths (MBytes):  RWF=     26 Int=      0 D2E=      0 Chk=      3 Scr=      1
 Normal termination of Gaussian 16 at Sat May 24 05:34:41 2025.
done
