7
energy = -575.394753814
C -0.64285200 -1.32525100 0.18887100
C -0.00364200 0.04363800 0.07395600
F -0.22759100 0.63727800 -1.07436200
F -0.25174000 0.83082000 1.09369600
F -0.25654100 -2.08795600 -0.82399900
F -0.28304500 -1.89485700 1.33035100
F -1.97461200 -1.24188800 0.16492600
