 Entering Gaussian System, Link 0=g16
 Initial command:
 /apps/easybuild-2022/easybuild/software/Compiler/NVHPC/22.11-CUDA-11.7.0/Gaussian/g16c01-CUDA-11.7.0/g16/l1.exe "/tmp/Gau-42542.inp" -scrdir="/tmp/"
 Entering Link 1 = /apps/easybuild-2022/easybuild/software/Compiler/NVHPC/22.11-CUDA-11.7.0/Gaussian/g16c01-CUDA-11.7.0/g16/l1.exe PID=     42543.
  
 Copyright (c) 1988-2019, Gaussian, Inc.  All Rights Reserved.
  
 This is part of the Gaussian(R) 16 program.  It is based on
 the Gaussian(R) 09 system (copyright 2009, Gaussian, Inc.),
 the Gaussian(R) 03 system (copyright 2003, Gaussian, Inc.),
 the Gaussian(R) 98 system (copyright 1998, Gaussian, Inc.),
 the Gaussian(R) 94 system (copyright 1995, Gaussian, Inc.),
 the Gaussian 92(TM) system (copyright 1992, Gaussian, Inc.),
 the Gaussian 90(TM) system (copyright 1990, Gaussian, Inc.),
 the Gaussian 88(TM) system (copyright 1988, Gaussian, Inc.),
 the Gaussian 86(TM) system (copyright 1986, Carnegie Mellon
 University), and the Gaussian 82(TM) system (copyright 1983,
 Carnegie Mellon University). Gaussian is a federally registered
 trademark of Gaussian, Inc.
  
 This software contains proprietary and confidential information,
 including trade secrets, belonging to Gaussian, Inc.
  
 This software is provided under written license and may be
 used, copied, transmitted, or stored only in accord with that
 written license.
  
 The following legend is applicable only to US Government
 contracts under FAR:
  
                    RESTRICTED RIGHTS LEGEND
  
 Use, reproduction and disclosure by the US Government is
 subject to restrictions as set forth in subparagraphs (a)
 and (c) of the Commercial Computer Software - Restricted
 Rights clause in FAR 52.227-19.
  
 Gaussian, Inc.
 340 Quinnipiac St., Bldg. 40, Wallingford CT 06492
  
  
 ---------------------------------------------------------------
 Warning -- This program may not be used in any manner that
 competes with the business of Gaussian, Inc. or will provide
 assistance to any competitor of Gaussian, Inc.  The licensee
 of this program is prohibited from giving any competitor of
 Gaussian, Inc. access to this program.  By using this program,
 the user acknowledges that Gaussian, Inc. is engaged in the
 business of creating and licensing software in the field of
 computational chemistry and represents and warrants to the
 licensee that it is not a competitor of Gaussian, Inc. and that
 it will not use this program in any manner prohibited above.
 ---------------------------------------------------------------
  

 Cite this work as:
 Gaussian 16, Revision C.01,
 M. J. Frisch, G. W. Trucks, H. B. Schlegel, G. E. Scuseria, 
 M. A. Robb, J. R. Cheeseman, G. Scalmani, V. Barone, 
 G. A. Petersson, H. Nakatsuji, X. Li, M. Caricato, A. V. Marenich, 
 J. Bloino, B. G. Janesko, R. Gomperts, B. Mennucci, H. P. Hratchian, 
 J. V. Ortiz, A. F. Izmaylov, J. L. Sonnenberg, D. Williams-Young, 
 F. Ding, F. Lipparini, F. Egidi, J. Goings, B. Peng, A. Petrone, 
 T. Henderson, D. Ranasinghe, V. G. Zakrzewski, J. Gao, N. Rega, 
 G. Zheng, W. Liang, M. Hada, M. Ehara, K. Toyota, R. Fukuda, 
 J. Hasegawa, M. Ishida, T. Nakajima, Y. Honda, O. Kitao, H. Nakai, 
 T. Vreven, K. Throssell, J. A. Montgomery, Jr., J. E. Peralta, 
 F. Ogliaro, M. J. Bearpark, J. J. Heyd, E. N. Brothers, K. N. Kudin, 
 V. N. Staroverov, T. A. Keith, R. Kobayashi, J. Normand, 
 K. Raghavachari, A. P. Rendell, J. C. Burant, S. S. Iyengar, 
 J. Tomasi, M. Cossi, J. M. Millam, M. Klene, C. Adamo, R. Cammi, 
 J. W. Ochterski, R. L. Martin, K. Morokuma, O. Farkas, 
 J. B. Foresman, and D. J. Fox, Gaussian, Inc., Wallingford CT, 2019.
 
 ******************************************
 Gaussian 16:  ES64L-G16RevC.01  3-Jul-2019
                24-May-2025 
 ******************************************
 %mem=28GB
 %nprocshared=8
 Will use up to    8 processors via shared memory.
 ----------------------------------------------------------------------
 #P M062X/Def2TZVPP Symm(None) scf(xqc) pop(None) freq opt(CalcFC, Tigh
 t)
 ----------------------------------------------------------------------
 1/7=10,10=4,18=20,19=15,26=3,38=1/1,3;
 2/9=110,12=2,15=3,17=6,18=5,40=1/2;
 3/5=44,7=202,11=2,25=1,30=1,71=2,74=-55,140=1/1,2,3;
 4//1;
 5/5=2,8=3,13=1,38=5/2,8;
 8/6=4,10=90,11=11/1;
 11/6=1,8=1,9=11,15=111,16=1,31=1/1,2,10;
 10/6=1,13=1,31=1/2;
 7/10=1,25=1,30=1/1,2,3,16;
 1/7=10,10=4,18=20,19=15,26=3/3(2);
 2/9=110,15=3/2;
 99//99;
 2/9=110,15=3/2;
 3/5=44,7=202,11=2,25=1,30=1,71=1,74=-55/1,2,3;
 4/5=5,16=3,69=1/1;
 5/5=2,8=3,13=1,38=5/2,8;
 7/30=1/1,2,3,16;
 1/7=10,18=20,19=15,26=3/3(-5);
 2/9=110,15=3/2;
 99/9=1/99;
 Leave Link    1 at Sat May 24 00:36:31 2025, MaxMem=  3758096384 cpu:               0.0 elap:               0.0
 (Enter /apps/easybuild-2022/easybuild/software/Compiler/NVHPC/22.11-CUDA-11.7.0/Gaussian/g16c01-CUDA-11.7.0/g16/l101.exe)
 ------------------------------
 Gaussian input prepared by ASE
 ------------------------------
 Symbolic Z-matrix:
 Charge =  0 Multiplicity = 2
 C                     1.92383  -0.56474   1.61784 
 F                     1.34512   0.05867   2.6163 
 F                     3.21177  -0.68635   1.79659 
 S                     1.41921   0.        0. 
 O                     2.20855  -0.7028   -0.93551 
 O                     0.        0.        0. 
 O                     1.91741   1.50172   0. 
 H                     2.65003   1.60207   0.62421 
 
 ITRead=  0  0  0  0  0  0  0  0
 MicOpt= -1 -1 -1 -1 -1 -1 -1 -1
 NAtoms=      8 NQM=        8 NQMF=       0 NMMI=      0 NMMIF=      0
                NMic=       0 NMicF=      0.
                    Isotopes and Nuclear Properties:
 (Nuclear quadrupole moments (NQMom) in fm**2, nuclear magnetic moments (NMagM)
  in nuclear magnetons)

  Atom         1           2           3           4           5           6           7           8
 IAtWgt=          12          19          19          32          16          16          16           1
 AtmWgt=  12.0000000  18.9984032  18.9984032  31.9720718  15.9949146  15.9949146  15.9949146   1.0078250
 NucSpn=           0           1           1           0           0           0           0           1
 AtZEff=  -0.0000000  -0.0000000  -0.0000000  -0.0000000  -0.0000000  -0.0000000  -0.0000000  -0.0000000
 NQMom=    0.0000000   0.0000000   0.0000000   0.0000000   0.0000000   0.0000000   0.0000000   0.0000000
 NMagM=    0.0000000   2.6288670   2.6288670   0.0000000   0.0000000   0.0000000   0.0000000   2.7928460
 AtZNuc=   6.0000000   9.0000000   9.0000000  16.0000000   8.0000000   8.0000000   8.0000000   1.0000000
 Leave Link  101 at Sat May 24 00:36:32 2025, MaxMem=  3758096384 cpu:               0.2 elap:               0.2
 (Enter /apps/easybuild-2022/easybuild/software/Compiler/NVHPC/22.11-CUDA-11.7.0/Gaussian/g16c01-CUDA-11.7.0/g16/l103.exe)

 GradGradGradGradGradGradGradGradGradGradGradGradGradGradGradGradGradGrad
 Berny optimization.
 Initialization pass.
                           ----------------------------
                           !    Initial Parameters    !
                           ! (Angstroms and Degrees)  !
 --------------------------                            --------------------------
 ! Name  Definition              Value          Derivative Info.                !
 --------------------------------------------------------------------------------
 ! R1    R(1,2)                  1.3117         calculate D2E/DX2 analytically  !
 ! R2    R(1,3)                  1.306          calculate D2E/DX2 analytically  !
 ! R3    R(1,4)                  1.7863         calculate D2E/DX2 analytically  !
 ! R4    R(4,5)                  1.4114         calculate D2E/DX2 analytically  !
 ! R5    R(4,6)                  1.4192         calculate D2E/DX2 analytically  !
 ! R6    R(4,7)                  1.5822         calculate D2E/DX2 analytically  !
 ! R7    R(7,8)                  0.9677         calculate D2E/DX2 analytically  !
 ! A1    A(2,1,3)              112.0358         calculate D2E/DX2 analytically  !
 ! A2    A(2,1,4)              114.4892         calculate D2E/DX2 analytically  !
 ! A3    A(3,1,4)              115.5947         calculate D2E/DX2 analytically  !
 ! A4    A(1,4,5)              106.5519         calculate D2E/DX2 analytically  !
 ! A5    A(1,4,6)              106.4092         calculate D2E/DX2 analytically  !
 ! A6    A(1,4,7)              102.1874         calculate D2E/DX2 analytically  !
 ! A7    A(5,4,6)              124.0039         calculate D2E/DX2 analytically  !
 ! A8    A(5,4,7)              107.2477         calculate D2E/DX2 analytically  !
 ! A9    A(6,4,7)              108.3535         calculate D2E/DX2 analytically  !
 ! A10   A(4,7,8)              109.6827         calculate D2E/DX2 analytically  !
 ! D1    D(2,1,4,5)            175.6733         calculate D2E/DX2 analytically  !
 ! D2    D(2,1,4,6)            -50.2421         calculate D2E/DX2 analytically  !
 ! D3    D(2,1,4,7)             63.2999         calculate D2E/DX2 analytically  !
 ! D4    D(3,1,4,5)             43.1945         calculate D2E/DX2 analytically  !
 ! D5    D(3,1,4,6)            177.2791         calculate D2E/DX2 analytically  !
 ! D6    D(3,1,4,7)            -69.179          calculate D2E/DX2 analytically  !
 ! D7    D(1,4,7,8)             24.6636         calculate D2E/DX2 analytically  !
 ! D8    D(5,4,7,8)            -87.1896         calculate D2E/DX2 analytically  !
 ! D9    D(6,4,7,8)            136.759          calculate D2E/DX2 analytically  !
 --------------------------------------------------------------------------------
 Trust Radius=3.00D-01 FncErr=1.00D-07 GrdErr=1.00D-06 EigMax=2.50D+02 EigMin=1.00D-04
 Number of steps in this run=     36 maximum allowed number of steps=    100.
 GradGradGradGradGradGradGradGradGradGradGradGradGradGradGradGradGradGrad

 Leave Link  103 at Sat May 24 00:36:32 2025, MaxMem=  3758096384 cpu:               0.0 elap:               0.0
 (Enter /apps/easybuild-2022/easybuild/software/Compiler/NVHPC/22.11-CUDA-11.7.0/Gaussian/g16c01-CUDA-11.7.0/g16/l202.exe)
                          Input orientation:                          
 ---------------------------------------------------------------------
 Center     Atomic      Atomic             Coordinates (Angstroms)
 Number     Number       Type             X           Y           Z
 ---------------------------------------------------------------------
      1          6           0        1.923835   -0.564736    1.617835
      2          9           0        1.345122    0.058666    2.616295
      3          9           0        3.211765   -0.686353    1.796586
      4         16           0        1.419205    0.000000    0.000000
      5          8           0        2.208555   -0.702798   -0.935511
      6          8           0        0.000000    0.000000    0.000000
      7          8           0        1.917407    1.501722    0.000000
      8          1           0        2.650031    1.602070    0.624206
 ---------------------------------------------------------------------
                    Distance matrix (angstroms):
                    1          2          3          4          5
     1  C    0.000000
     2  F    1.311664   0.000000
     3  F    1.305951   2.170560   0.000000
     4  S    1.786328   2.618001   2.629082   0.000000
     5  O    2.572878   3.733721   2.910508   1.411445   0.000000
     6  O    2.576326   2.942414   3.743559   1.419205   2.499364
     7  O    2.624440   3.042191   3.112998   1.582206   2.412438
     8  H    2.491929   2.837834   2.631901   2.114520   2.817807
                    6          7          8
     6  O    0.000000
     7  O    2.435492   0.000000
     8  H    3.158944   0.967698   0.000000
 Symmetry turned off by external request.
 Stoichiometry    CHF2O3S
 Rotational constants (GHZ):           3.4756126           2.0860329           1.7649768
 Leave Link  202 at Sat May 24 00:36:32 2025, MaxMem=  3758096384 cpu:               0.1 elap:               0.0
 (Enter /apps/easybuild-2022/easybuild/software/Compiler/NVHPC/22.11-CUDA-11.7.0/Gaussian/g16c01-CUDA-11.7.0/g16/l301.exe)
 Standard basis: def2TZVPP (5D, 7F)
 Ernie: Thresh=  0.10000D-02 Tol=  0.10000D-05 Strict=F.
   242 basis functions,   392 primitive gaussians,   279 cartesian basis functions
    33 alpha electrons       32 beta electrons
       nuclear repulsion energy       446.5443730567 Hartrees.
 IExCor= 4336 DFT=T Ex+Corr=M062X ExCW=0 ScaHFX=  0.540000
 ScaDFX=  1.000000  1.000000  1.000000  1.000000 ScalE2=  1.000000  1.000000
 IRadAn=      5 IRanWt=     -1 IRanGd=            0 ICorTp=0 IEmpDi=  4
 NAtoms=    8 NActive=    8 NUniq=    8 SFac= 1.00D+00 NAtFMM=   60 NAOKFM=F Big=F
 Integral buffers will be    131072 words long.
 Raffenetti 2 integral format.
 Two-electron integral symmetry is turned off.
 Leave Link  301 at Sat May 24 00:36:32 2025, MaxMem=  3758096384 cpu:               0.1 elap:               0.0
 (Enter /apps/easybuild-2022/easybuild/software/Compiler/NVHPC/22.11-CUDA-11.7.0/Gaussian/g16c01-CUDA-11.7.0/g16/l302.exe)
 NPDir=0 NMtPBC=     1 NCelOv=     1 NCel=       1 NClECP=     1 NCelD=      1
         NCelK=      1 NCelE2=     1 NClLst=     1 CellRange=     0.0.
 One-electron integrals computed using PRISM.
   1 Symmetry operations used in ECPInt.
 ECPInt:  NShTT=    3741 NPrTT=   12260 LenC2=    3639 LenP2D=    9327.
 LDataN:  DoStor=T MaxTD1= 6 Len=  172
 NBasis=   242 RedAO= T EigKep=  9.44D-04  NBF=   242
 NBsUse=   242 1.00D-06 EigRej= -1.00D+00 NBFU=   242
 Precomputing XC quadrature grid using
 IXCGrd= 4 IRadAn=           5 IRanWt=          -1 IRanGd=           0 AccXCQ= 0.00D+00.
 Generated NRdTot=       0 NPtTot=           0 NUsed=           0 NTot=          32
 NSgBfM=   277   277   277   277   277 MxSgAt=     8 MxSgA2=     8.
 Leave Link  302 at Sat May 24 00:36:32 2025, MaxMem=  3758096384 cpu:               0.7 elap:               0.2
 (Enter /apps/easybuild-2022/easybuild/software/Compiler/NVHPC/22.11-CUDA-11.7.0/Gaussian/g16c01-CUDA-11.7.0/g16/l303.exe)
 DipDrv:  MaxL=1.
 Leave Link  303 at Sat May 24 00:36:32 2025, MaxMem=  3758096384 cpu:               0.1 elap:               0.1
 (Enter /apps/easybuild-2022/easybuild/software/Compiler/NVHPC/22.11-CUDA-11.7.0/Gaussian/g16c01-CUDA-11.7.0/g16/l401.exe)
 ExpMin= 9.52D-02 ExpMax= 6.07D+04 ExpMxC= 2.07D+03 IAcc=3 IRadAn=         5 AccDes= 0.00D+00
 Harris functional with IExCor= 1009 and IRadAn=       5 diagonalized for initial guess.
 HarFok:  IExCor= 1009 AccDes= 0.00D+00 IRadAn=         5 IDoV= 1 UseB2=F ITyADJ=14
 ICtDFT=  3500011 ScaDFX=  1.000000  1.000000  1.000000  1.000000
 FoFCou: FMM=F IPFlag=           0 FMFlag=      100000 FMFlg1=           0
         NFxFlg=           0 DoJE=T BraDBF=F KetDBF=T FulRan=T
         wScrn=  0.000000 ICntrl=       500 IOpCl=  0 I1Cent=   200000004 NGrid=           0
         NMat0=    1 NMatS0=      1 NMatT0=    0 NMatD0=    1 NMtDS0=    0 NMtDT0=    0
 Symmetry not used in FoFCou.
 Harris En= -861.793357389386    
 JPrj=0 DoOrth=F DoCkMO=F.
 Initial guess <Sx>= 0.0000 <Sy>= 0.0000 <Sz>= 0.5000 <S**2>= 0.7500 S= 0.5000
 Leave Link  401 at Sat May 24 00:36:32 2025, MaxMem=  3758096384 cpu:               2.1 elap:               0.3
 (Enter /apps/easybuild-2022/easybuild/software/Compiler/NVHPC/22.11-CUDA-11.7.0/Gaussian/g16c01-CUDA-11.7.0/g16/l502.exe)
 Keep R1 and R2 ints in memory in canonical form, NReq=875542475.
 FoFCou: FMM=F IPFlag=           0 FMFlag=           0 FMFlg1=           0
         NFxFlg=           0 DoJE=F BraDBF=F KetDBF=F FulRan=T
         wScrn=  0.000000 ICntrl=       600 IOpCl=  0 I1Cent=           0 NGrid=           0
         NMat0=    1 NMatS0=  29403 NMatT0=    0 NMatD0=    1 NMtDS0=    0 NMtDT0=    0
 Symmetry not used in FoFCou.
 Two-electron integral symmetry not used.
 UHF open shell SCF:
 Using DIIS extrapolation, IDIIS=  1040.
 NGot=  3758096384 LenX=  2893370665 LenY=  2893292383
 Requested convergence on RMS density matrix=1.00D-08 within  32 cycles.
 Requested convergence on MAX density matrix=1.00D-06.
 Requested convergence on             energy=1.00D-06.
 No special actions if energy rises.
 Integral accuracy reduced to 1.0D-05 until final iterations.

 Cycle   1  Pass 0  IDiag  1:
 E= -861.915754341606    
 DIIS: error= 2.86D-02 at cycle   1 NSaved=   1.
 NSaved= 1 IEnMin= 1 EnMin= -861.915754341606     IErMin= 1 ErrMin= 2.86D-02
 ErrMax= 2.86D-02  0.00D+00 EMaxC= 1.00D-01 BMatC= 1.95D+00 BMatP= 1.95D+00
 IDIUse=3 WtCom= 7.14D-01 WtEn= 2.86D-01
 Coeff-Com:  0.100D+01
 Coeff-En:   0.100D+01
 Coeff:      0.100D+01
 Gap=     0.429 Goal=   None    Shift=    0.000
 Gap=     0.249 Goal=   None    Shift=    0.000
 GapD=    0.249 DampG=1.000 DampE=0.500 DampFc=0.5000 IDamp=-1.
 Damping current iteration by 5.00D-01
 RMSDP=3.38D-03 MaxDP=2.55D-01              OVMax= 2.49D-01

 Cycle   2  Pass 0  IDiag  1:
 E= -862.002613831670     Delta-E=       -0.086859490064 Rises=F Damp=T
 DIIS: error= 9.72D-03 at cycle   2 NSaved=   2.
 NSaved= 2 IEnMin= 2 EnMin= -862.002613831670     IErMin= 2 ErrMin= 9.72D-03
 ErrMax= 9.72D-03  0.00D+00 EMaxC= 1.00D-01 BMatC= 1.80D-01 BMatP= 1.95D+00
 IDIUse=3 WtCom= 9.03D-01 WtEn= 9.72D-02
 Coeff-Com:  0.122D+00 0.878D+00
 Coeff-En:   0.297D+00 0.703D+00
 Coeff:      0.139D+00 0.861D+00
 Gap=     0.433 Goal=   None    Shift=    0.000
 Gap=     0.324 Goal=   None    Shift=    0.000
 RMSDP=7.31D-04 MaxDP=4.99D-02 DE=-8.69D-02 OVMax= 1.57D-01

 Cycle   3  Pass 0  IDiag  1:
 E= -862.177962307662     Delta-E=       -0.175348475992 Rises=F Damp=F
 DIIS: error= 4.88D-03 at cycle   3 NSaved=   3.
 NSaved= 3 IEnMin= 3 EnMin= -862.177962307662     IErMin= 3 ErrMin= 4.88D-03
 ErrMax= 4.88D-03  0.00D+00 EMaxC= 1.00D-01 BMatC= 3.09D-02 BMatP= 1.80D-01
 IDIUse=3 WtCom= 9.51D-01 WtEn= 4.88D-02
 Coeff-Com: -0.413D-01 0.223D+00 0.819D+00
 Coeff-En:   0.000D+00 0.000D+00 0.100D+01
 Coeff:     -0.393D-01 0.212D+00 0.828D+00
 Gap=     0.366 Goal=   None    Shift=    0.000
 Gap=     0.320 Goal=   None    Shift=    0.000
 RMSDP=3.21D-04 MaxDP=1.93D-02 DE=-1.75D-01 OVMax= 2.17D-02

 Cycle   4  Pass 0  IDiag  1:
 E= -862.182497063844     Delta-E=       -0.004534756183 Rises=F Damp=F
 DIIS: error= 2.38D-03 at cycle   4 NSaved=   4.
 NSaved= 4 IEnMin= 4 EnMin= -862.182497063844     IErMin= 4 ErrMin= 2.38D-03
 ErrMax= 2.38D-03  0.00D+00 EMaxC= 1.00D-01 BMatC= 8.73D-03 BMatP= 3.09D-02
 IDIUse=3 WtCom= 9.76D-01 WtEn= 2.38D-02
 Coeff-Com: -0.262D-01 0.593D-01 0.415D+00 0.552D+00
 Coeff-En:   0.000D+00 0.000D+00 0.941D-01 0.906D+00
 Coeff:     -0.256D-01 0.579D-01 0.407D+00 0.560D+00
 Gap=     0.368 Goal=   None    Shift=    0.000
 Gap=     0.322 Goal=   None    Shift=    0.000
 RMSDP=1.12D-04 MaxDP=5.52D-03 DE=-4.53D-03 OVMax= 9.47D-03

 Cycle   5  Pass 0  IDiag  1:
 E= -862.183975115162     Delta-E=       -0.001478051318 Rises=F Damp=F
 DIIS: error= 5.48D-04 at cycle   5 NSaved=   5.
 NSaved= 5 IEnMin= 5 EnMin= -862.183975115162     IErMin= 5 ErrMin= 5.48D-04
 ErrMax= 5.48D-04  0.00D+00 EMaxC= 1.00D-01 BMatC= 5.31D-04 BMatP= 8.73D-03
 IDIUse=3 WtCom= 9.95D-01 WtEn= 5.48D-03
 Coeff-Com: -0.333D-02-0.264D-02 0.377D-01 0.197D+00 0.771D+00
 Coeff-En:   0.000D+00 0.000D+00 0.000D+00 0.000D+00 0.100D+01
 Coeff:     -0.331D-02-0.262D-02 0.374D-01 0.196D+00 0.773D+00
 Gap=     0.366 Goal=   None    Shift=    0.000
 Gap=     0.325 Goal=   None    Shift=    0.000
 RMSDP=4.35D-05 MaxDP=1.92D-03 DE=-1.48D-03 OVMax= 6.60D-03

 Cycle   6  Pass 0  IDiag  1:
 E= -862.184142074540     Delta-E=       -0.000166959378 Rises=F Damp=F
 DIIS: error= 2.37D-04 at cycle   6 NSaved=   6.
 NSaved= 6 IEnMin= 6 EnMin= -862.184142074540     IErMin= 6 ErrMin= 2.37D-04
 ErrMax= 2.37D-04  0.00D+00 EMaxC= 1.00D-01 BMatC= 6.69D-05 BMatP= 5.31D-04
 IDIUse=3 WtCom= 9.98D-01 WtEn= 2.37D-03
 Coeff-Com:  0.278D-02-0.784D-02-0.622D-01-0.701D-01 0.624D-01 0.107D+01
 Coeff-En:   0.000D+00 0.000D+00 0.000D+00 0.000D+00 0.000D+00 0.100D+01
 Coeff:      0.277D-02-0.782D-02-0.620D-01-0.700D-01 0.623D-01 0.107D+01
 Gap=     0.369 Goal=   None    Shift=    0.000
 Gap=     0.326 Goal=   None    Shift=    0.000
 RMSDP=3.35D-05 MaxDP=1.66D-03 DE=-1.67D-04 OVMax= 5.12D-03

 Cycle   7  Pass 0  IDiag  1:
 E= -862.184188597109     Delta-E=       -0.000046522569 Rises=F Damp=F
 DIIS: error= 1.45D-04 at cycle   7 NSaved=   7.
 NSaved= 7 IEnMin= 7 EnMin= -862.184188597109     IErMin= 7 ErrMin= 1.45D-04
 ErrMax= 1.45D-04  0.00D+00 EMaxC= 1.00D-01 BMatC= 1.89D-05 BMatP= 6.69D-05
 IDIUse=3 WtCom= 9.99D-01 WtEn= 1.45D-03
 Coeff-Com:  0.181D-02-0.236D-02-0.342D-01-0.677D-01-0.122D+00 0.445D+00
 Coeff-Com:  0.780D+00
 Coeff-En:   0.000D+00 0.000D+00 0.000D+00 0.000D+00 0.000D+00 0.000D+00
 Coeff-En:   0.100D+01
 Coeff:      0.180D-02-0.236D-02-0.342D-01-0.676D-01-0.122D+00 0.445D+00
 Coeff:      0.780D+00
 Gap=     0.369 Goal=   None    Shift=    0.000
 Gap=     0.327 Goal=   None    Shift=    0.000
 RMSDP=1.32D-05 MaxDP=7.72D-04 DE=-4.65D-05 OVMax= 2.48D-03

 Cycle   8  Pass 0  IDiag  1:
 E= -862.184197366923     Delta-E=       -0.000008769814 Rises=F Damp=F
 DIIS: error= 6.42D-05 at cycle   8 NSaved=   8.
 NSaved= 8 IEnMin= 8 EnMin= -862.184197366923     IErMin= 8 ErrMin= 6.42D-05
 ErrMax= 6.42D-05  0.00D+00 EMaxC= 1.00D-01 BMatC= 4.04D-06 BMatP= 1.89D-05
 IDIUse=1 WtCom= 1.00D+00 WtEn= 0.00D+00
 Coeff-Com:  0.304D-03 0.435D-03-0.287D-02-0.171D-01-0.697D-01-0.555D-02
 Coeff-Com:  0.336D+00 0.759D+00
 Coeff:      0.304D-03 0.435D-03-0.287D-02-0.171D-01-0.697D-01-0.555D-02
 Coeff:      0.336D+00 0.759D+00
 Gap=     0.369 Goal=   None    Shift=    0.000
 Gap=     0.327 Goal=   None    Shift=    0.000
 RMSDP=5.26D-06 MaxDP=3.11D-04 DE=-8.77D-06 OVMax= 1.03D-03

 Initial convergence to 1.0D-05 achieved.  Increase integral accuracy.
 Cycle   9  Pass 1  IDiag  1:
 E= -862.184219293400     Delta-E=       -0.000021926478 Rises=F Damp=F
 DIIS: error= 3.91D-05 at cycle   1 NSaved=   1.
 NSaved= 1 IEnMin= 1 EnMin= -862.184219293400     IErMin= 1 ErrMin= 3.91D-05
 ErrMax= 3.91D-05  0.00D+00 EMaxC= 1.00D-01 BMatC= 2.38D-06 BMatP= 2.38D-06
 IDIUse=1 WtCom= 1.00D+00 WtEn= 0.00D+00
 Coeff-Com:  0.100D+01
 Coeff:      0.100D+01
 Gap=     0.369 Goal=   None    Shift=    0.000
 Gap=     0.327 Goal=   None    Shift=    0.000
 RMSDP=5.26D-06 MaxDP=3.11D-04 DE=-2.19D-05 OVMax= 3.63D-04

 Cycle  10  Pass 1  IDiag  1:
 E= -862.184219743795     Delta-E=       -0.000000450395 Rises=F Damp=F
 DIIS: error= 1.94D-05 at cycle   2 NSaved=   2.
 NSaved= 2 IEnMin= 2 EnMin= -862.184219743795     IErMin= 2 ErrMin= 1.94D-05
 ErrMax= 1.94D-05  0.00D+00 EMaxC= 1.00D-01 BMatC= 9.05D-07 BMatP= 2.38D-06
 IDIUse=1 WtCom= 1.00D+00 WtEn= 0.00D+00
 Coeff-Com:  0.314D+00 0.686D+00
 Coeff:      0.314D+00 0.686D+00
 Gap=     0.369 Goal=   None    Shift=    0.000
 Gap=     0.327 Goal=   None    Shift=    0.000
 RMSDP=1.84D-06 MaxDP=7.16D-05 DE=-4.50D-07 OVMax= 1.64D-04

 Cycle  11  Pass 1  IDiag  1:
 E= -862.184219838444     Delta-E=       -0.000000094649 Rises=F Damp=F
 DIIS: error= 1.48D-05 at cycle   3 NSaved=   3.
 NSaved= 3 IEnMin= 3 EnMin= -862.184219838444     IErMin= 3 ErrMin= 1.48D-05
 ErrMax= 1.48D-05  0.00D+00 EMaxC= 1.00D-01 BMatC= 5.06D-07 BMatP= 9.05D-07
 IDIUse=1 WtCom= 1.00D+00 WtEn= 0.00D+00
 Coeff-Com: -0.620D-01 0.430D+00 0.632D+00
 Coeff:     -0.620D-01 0.430D+00 0.632D+00
 Gap=     0.369 Goal=   None    Shift=    0.000
 Gap=     0.327 Goal=   None    Shift=    0.000
 RMSDP=1.02D-06 MaxDP=3.23D-05 DE=-9.46D-08 OVMax= 1.10D-04

 Cycle  12  Pass 1  IDiag  1:
 E= -862.184219934747     Delta-E=       -0.000000096302 Rises=F Damp=F
 DIIS: error= 3.00D-06 at cycle   4 NSaved=   4.
 NSaved= 4 IEnMin= 4 EnMin= -862.184219934747     IErMin= 4 ErrMin= 3.00D-06
 ErrMax= 3.00D-06  0.00D+00 EMaxC= 1.00D-01 BMatC= 6.13D-09 BMatP= 5.06D-07
 IDIUse=1 WtCom= 1.00D+00 WtEn= 0.00D+00
 Coeff-Com: -0.114D-01-0.272D-01-0.999D-02 0.105D+01
 Coeff:     -0.114D-01-0.272D-01-0.999D-02 0.105D+01
 Gap=     0.369 Goal=   None    Shift=    0.000
 Gap=     0.327 Goal=   None    Shift=    0.000
 RMSDP=3.20D-07 MaxDP=1.64D-05 DE=-9.63D-08 OVMax= 6.80D-05

 Cycle  13  Pass 1  IDiag  1:
 E= -862.184219939538     Delta-E=       -0.000000004792 Rises=F Damp=F
 DIIS: error= 1.35D-06 at cycle   5 NSaved=   5.
 NSaved= 5 IEnMin= 5 EnMin= -862.184219939538     IErMin= 5 ErrMin= 1.35D-06
 ErrMax= 1.35D-06  0.00D+00 EMaxC= 1.00D-01 BMatC= 3.32D-09 BMatP= 6.13D-09
 IDIUse=1 WtCom= 1.00D+00 WtEn= 0.00D+00
 Coeff-Com:  0.762D-02-0.107D+00-0.142D+00 0.489D+00 0.752D+00
 Coeff:      0.762D-02-0.107D+00-0.142D+00 0.489D+00 0.752D+00
 Gap=     0.369 Goal=   None    Shift=    0.000
 Gap=     0.327 Goal=   None    Shift=    0.000
 RMSDP=1.59D-07 MaxDP=7.60D-06 DE=-4.79D-09 OVMax= 3.71D-05

 Cycle  14  Pass 1  IDiag  1:
 E= -862.184219941005     Delta-E=       -0.000000001467 Rises=F Damp=F
 DIIS: error= 4.93D-07 at cycle   6 NSaved=   6.
 NSaved= 6 IEnMin= 6 EnMin= -862.184219941005     IErMin= 6 ErrMin= 4.93D-07
 ErrMax= 4.93D-07  0.00D+00 EMaxC= 1.00D-01 BMatC= 5.18D-10 BMatP= 3.32D-09
 IDIUse=1 WtCom= 1.00D+00 WtEn= 0.00D+00
 Coeff-Com:  0.565D-02-0.417D-01-0.587D-01-0.105D-01 0.285D+00 0.820D+00
 Coeff:      0.565D-02-0.417D-01-0.587D-01-0.105D-01 0.285D+00 0.820D+00
 Gap=     0.369 Goal=   None    Shift=    0.000
 Gap=     0.327 Goal=   None    Shift=    0.000
 RMSDP=7.92D-08 MaxDP=4.37D-06 DE=-1.47D-09 OVMax= 1.79D-05

 Cycle  15  Pass 1  IDiag  1:
 E= -862.184219941303     Delta-E=       -0.000000000297 Rises=F Damp=F
 DIIS: error= 2.34D-07 at cycle   7 NSaved=   7.
 NSaved= 7 IEnMin= 7 EnMin= -862.184219941303     IErMin= 7 ErrMin= 2.34D-07
 ErrMax= 2.34D-07  0.00D+00 EMaxC= 1.00D-01 BMatC= 8.09D-11 BMatP= 5.18D-10
 IDIUse=1 WtCom= 1.00D+00 WtEn= 0.00D+00
 Coeff-Com:  0.877D-04 0.994D-02 0.129D-01-0.944D-01-0.795D-01 0.248D+00
 Coeff-Com:  0.903D+00
 Coeff:      0.877D-04 0.994D-02 0.129D-01-0.944D-01-0.795D-01 0.248D+00
 Coeff:      0.903D+00
 Gap=     0.369 Goal=   None    Shift=    0.000
 Gap=     0.327 Goal=   None    Shift=    0.000
 RMSDP=3.48D-08 MaxDP=1.61D-06 DE=-2.97D-10 OVMax= 6.86D-06

 Cycle  16  Pass 1  IDiag  1:
 E= -862.184219941334     Delta-E=       -0.000000000031 Rises=F Damp=F
 DIIS: error= 9.21D-08 at cycle   8 NSaved=   8.
 NSaved= 8 IEnMin= 8 EnMin= -862.184219941334     IErMin= 8 ErrMin= 9.21D-08
 ErrMax= 9.21D-08  0.00D+00 EMaxC= 1.00D-01 BMatC= 1.87D-11 BMatP= 8.09D-11
 IDIUse=1 WtCom= 1.00D+00 WtEn= 0.00D+00
 Coeff-Com: -0.762D-03 0.104D-01 0.140D-01-0.436D-01-0.772D-01 0.176D-02
 Coeff-Com:  0.435D+00 0.660D+00
 Coeff:     -0.762D-03 0.104D-01 0.140D-01-0.436D-01-0.772D-01 0.176D-02
 Coeff:      0.435D+00 0.660D+00
 Gap=     0.369 Goal=   None    Shift=    0.000
 Gap=     0.327 Goal=   None    Shift=    0.000
 RMSDP=1.04D-08 MaxDP=6.08D-07 DE=-3.09D-11 OVMax= 1.46D-06

 Cycle  17  Pass 1  IDiag  1:
 E= -862.184219941332     Delta-E=        0.000000000002 Rises=F Damp=F
 DIIS: error= 2.66D-08 at cycle   9 NSaved=   9.
 NSaved= 9 IEnMin= 8 EnMin= -862.184219941334     IErMin= 9 ErrMin= 2.66D-08
 ErrMax= 2.66D-08  0.00D+00 EMaxC= 1.00D-01 BMatC= 1.76D-12 BMatP= 1.87D-11
 IDIUse=1 WtCom= 1.00D+00 WtEn= 0.00D+00
 Coeff-Com: -0.265D-03 0.248D-02 0.330D-02-0.274D-02-0.169D-01-0.369D-01
 Coeff-Com:  0.435D-01 0.255D+00 0.753D+00
 Coeff:     -0.265D-03 0.248D-02 0.330D-02-0.274D-02-0.169D-01-0.369D-01
 Coeff:      0.435D-01 0.255D+00 0.753D+00
 Gap=     0.369 Goal=   None    Shift=    0.000
 Gap=     0.327 Goal=   None    Shift=    0.000
 RMSDP=3.64D-09 MaxDP=2.76D-07 DE= 1.82D-12 OVMax= 3.48D-07

 SCF Done:  E(UM062X) =  -862.184219941     A.U. after   17 cycles
            NFock= 17  Conv=0.36D-08     -V/T= 2.0025
 <Sx>= 0.0000 <Sy>= 0.0000 <Sz>= 0.5000 <S**2>= 0.7538 S= 0.5019
 <L.S>=  0.00000000000    
 KE= 8.600042111129D+02 PE=-2.936897634899D+03 EE= 7.681648307884D+02
 Annihilation of the first spin contaminant:
 S**2 before annihilation     0.7538,   after     0.7500
 Leave Link  502 at Sat May 24 00:36:59 2025, MaxMem=  3758096384 cpu:             103.7 elap:              26.8
 (Enter /apps/easybuild-2022/easybuild/software/Compiler/NVHPC/22.11-CUDA-11.7.0/Gaussian/g16c01-CUDA-11.7.0/g16/l508.exe)
 QCSCF skips out because SCF is already converged.
 Leave Link  508 at Sat May 24 00:36:59 2025, MaxMem=  3758096384 cpu:               0.0 elap:               0.0
 (Enter /apps/easybuild-2022/easybuild/software/Compiler/NVHPC/22.11-CUDA-11.7.0/Gaussian/g16c01-CUDA-11.7.0/g16/l801.exe)
 DoSCS=F DFT=T ScalE2(SS,OS)=  1.000000  1.000000
 Range of M.O.s used for correlation:     1   242
 NBasis=   242 NAE=    33 NBE=    32 NFC=     0 NFV=     0
 NROrb=    242 NOA=    33 NOB=    32 NVA=   209 NVB=   210
 Leave Link  801 at Sat May 24 00:36:59 2025, MaxMem=  3758096384 cpu:               0.1 elap:               0.0
 (Enter /apps/easybuild-2022/easybuild/software/Compiler/NVHPC/22.11-CUDA-11.7.0/Gaussian/g16c01-CUDA-11.7.0/g16/l1101.exe)
 Using compressed storage, NAtomX=     8.
 Will process      9 centers per pass.
   1 Symmetry operations used in ECPInt.
 ECPInt:  NShTT=    3741 NPrTT=   12260 LenC2=    3639 LenP2D=    9327.
 LDataN:  DoStor=T MaxTD1= 7 Len=  274
 Leave Link 1101 at Sat May 24 00:36:59 2025, MaxMem=  3758096384 cpu:               0.8 elap:               0.1
 (Enter /apps/easybuild-2022/easybuild/software/Compiler/NVHPC/22.11-CUDA-11.7.0/Gaussian/g16c01-CUDA-11.7.0/g16/l1102.exe)
 Symmetrizing basis deriv contribution to polar:
 IMax=3 JMax=2 DiffMx= 0.00D+00
 Leave Link 1102 at Sat May 24 00:36:59 2025, MaxMem=  3758096384 cpu:               0.1 elap:               0.0
 (Enter /apps/easybuild-2022/easybuild/software/Compiler/NVHPC/22.11-CUDA-11.7.0/Gaussian/g16c01-CUDA-11.7.0/g16/l1110.exe)
 Forming Gx(P) for the SCF density, NAtomX=     8.
 Integral derivatives from FoFJK, PRISM(SPDF).
 Do as many integral derivatives as possible in FoFJK.
 G2DrvN: MDV=    3758095424.
 G2DrvN: will do     9 centers at a time, making    1 passes.
 Calling FoFCou, ICntrl=  3107 FMM=F I1Cent=   0 AccDes= 0.00D+00.
 FoFJK:  IHMeth= 1 ICntrl=    3107 DoSepK=F KAlg= 0 I1Cent=           0 FoldK=F
 IRaf=         0 NMat=       1 IRICut=       1 DoRegI=T DoRafI=F ISym2E= 0 IDoP0=0 IntGTp=1.
 FoFCou: FMM=F IPFlag=           0 FMFlag=      100000 FMFlg1=           0
         NFxFlg=           0 DoJE=F BraDBF=F KetDBF=F FulRan=T
         wScrn=  0.000000 ICntrl=      3107 IOpCl=  1 I1Cent=           0 NGrid=           0
         NMat0=    1 NMatS0=      1 NMatT0=    0 NMatD0=    1 NMtDS0=    0 NMtDT0=    0
 Symmetry not used in FoFCou.
 End of G2Drv F.D. properties file   721 does not exist.
 End of G2Drv F.D. properties file   722 does not exist.
 End of G2Drv F.D. properties file   788 does not exist.
 Leave Link 1110 at Sat May 24 00:37:27 2025, MaxMem=  3758096384 cpu:             203.1 elap:              27.9
 (Enter /apps/easybuild-2022/easybuild/software/Compiler/NVHPC/22.11-CUDA-11.7.0/Gaussian/g16c01-CUDA-11.7.0/g16/l1002.exe)
 Minotr:  UHF open shell wavefunction.
          IDoAtm=11111111
          Direct CPHF calculation.
          Differentiating once with respect to nuclear coordinates.
          Requested convergence is 1.0D-08 RMS, and 1.0D-07 maximum.
          Secondary convergence is 1.0D-12 RMS, and 1.0D-12 maximum.
          NewPWx=T KeepS1=F KeepF1=F KeepIn=T MapXYZ=F SortEE=F KeepMc=T.
         2378 words used for storage of precomputed grid.
 Keep R1 and R2 ints in memory in canonical form, NReq=875546697.
 FoFCou: FMM=F IPFlag=           0 FMFlag=           0 FMFlg1=           0
         NFxFlg=           0 DoJE=F BraDBF=F KetDBF=F FulRan=T
         wScrn=  0.000000 ICntrl=       600 IOpCl=  0 I1Cent=           0 NGrid=           0
         NMat0=    1 NMatS0=  29403 NMatT0=    0 NMatD0=    1 NMtDS0=    0 NMtDT0=    0
 Symmetry not used in FoFCou.
 Two-electron integral symmetry not used.
          MDV=    3758096384 using IRadAn=       1.
          Solving linear equations simultaneously, MaxMat=       0.
          There are    27 degrees of freedom in the 1st order CPHF.  IDoFFX=6 NUNeed=     0.
     21 vectors produced by pass  0 Test12= 5.04D-14 3.70D-09 XBig12= 3.92D-01 1.55D-01.
 AX will form    21 AO Fock derivatives at one time.
     21 vectors produced by pass  1 Test12= 5.04D-14 3.70D-09 XBig12= 3.45D-02 4.59D-02.
     21 vectors produced by pass  2 Test12= 5.04D-14 3.70D-09 XBig12= 3.05D-03 1.48D-02.
     21 vectors produced by pass  3 Test12= 5.04D-14 3.70D-09 XBig12= 1.11D-04 3.16D-03.
     21 vectors produced by pass  4 Test12= 5.04D-14 3.70D-09 XBig12= 1.72D-06 1.86D-04.
     21 vectors produced by pass  5 Test12= 5.04D-14 3.70D-09 XBig12= 3.10D-08 2.60D-05.
     21 vectors produced by pass  6 Test12= 5.04D-14 3.70D-09 XBig12= 6.91D-10 3.76D-06.
     21 vectors produced by pass  7 Test12= 5.04D-14 3.70D-09 XBig12= 8.03D-12 3.86D-07.
     12 vectors produced by pass  8 Test12= 5.04D-14 3.70D-09 XBig12= 7.33D-14 3.55D-08.
      2 vectors produced by pass  9 Test12= 5.04D-14 3.70D-09 XBig12= 9.49D-16 4.69D-09.
 InvSVY:  IOpt=1 It=  1 EMax= 2.00D-15
 Solved reduced A of dimension   182 with    21 vectors.
 End of Minotr F.D. properties file   721 does not exist.
 End of Minotr F.D. properties file   722 does not exist.
 End of Minotr F.D. properties file   788 does not exist.
 Leave Link 1002 at Sat May 24 00:38:14 2025, MaxMem=  3758096384 cpu:             358.6 elap:              46.7
 (Enter /apps/easybuild-2022/easybuild/software/Compiler/NVHPC/22.11-CUDA-11.7.0/Gaussian/g16c01-CUDA-11.7.0/g16/l701.exe)
 ... and contract with generalized density number  0.
 Compute integral second derivatives.
   1 Symmetry operations used in ECPInt.
 ECPInt:  NShTT=    3741 NPrTT=   12260 LenC2=    3639 LenP2D=    9327.
 LDataN:  DoStor=T MaxTD1= 8 Len=  415
 Leave Link  701 at Sat May 24 00:38:14 2025, MaxMem=  3758096384 cpu:               1.0 elap:               0.2
 (Enter /apps/easybuild-2022/easybuild/software/Compiler/NVHPC/22.11-CUDA-11.7.0/Gaussian/g16c01-CUDA-11.7.0/g16/l702.exe)
 L702 exits ... SP integral derivatives will be done elsewhere.
 Leave Link  702 at Sat May 24 00:38:14 2025, MaxMem=  3758096384 cpu:               0.1 elap:               0.0
 (Enter /apps/easybuild-2022/easybuild/software/Compiler/NVHPC/22.11-CUDA-11.7.0/Gaussian/g16c01-CUDA-11.7.0/g16/l703.exe)
 Integral derivatives from FoFJK, PRISM(SPDF).
 Compute integral second derivatives, UseDBF=F ICtDFT=           0.
 Calling FoFJK, ICntrl=    100127 FMM=F ISym2X=0 I1Cent= 0 IOpClX= 1 NMat=1 NMatS=1 NMatT=0.
 FoFJK:  IHMeth= 1 ICntrl=  100127 DoSepK=F KAlg= 0 I1Cent=           0 FoldK=F
 IRaf=         0 NMat=       1 IRICut=       1 DoRegI=T DoRafI=F ISym2E= 0 IDoP0=0 IntGTp=1.
 FoFCou: FMM=F IPFlag=           0 FMFlag=      100000 FMFlg1=         800
         NFxFlg=           0 DoJE=F BraDBF=F KetDBF=F FulRan=T
         wScrn=  0.000000 ICntrl=    100127 IOpCl=  1 I1Cent=           0 NGrid=           0
         NMat0=    1 NMatS0=      1 NMatT0=    0 NMatD0=    1 NMtDS0=    0 NMtDT0=    0
 Symmetry not used in FoFCou.
 Leave Link  703 at Sat May 24 00:39:01 2025, MaxMem=  3758096384 cpu:             366.5 elap:              46.4
 (Enter /apps/easybuild-2022/easybuild/software/Compiler/NVHPC/22.11-CUDA-11.7.0/Gaussian/g16c01-CUDA-11.7.0/g16/l716.exe)
 Dipole        = 8.40088536D-01 4.82959572D-01 9.49358437D-01
 Polarizability= 0.00000000D+00 0.00000000D+00 0.00000000D+00
                 0.00000000D+00 0.00000000D+00 0.00000000D+00
 -------------------------------------------------------------------
 Center     Atomic                   Forces (Hartrees/Bohr)
 Number     Number              X              Y              Z
 -------------------------------------------------------------------
      1        6          -0.008413623   -0.001073660    0.001168191
      2        9           0.001644119   -0.001160814    0.000488516
      3        9           0.005394237    0.000931570    0.001197107
      4       16          -0.007130169    0.000114636    0.000057826
      5        8           0.000114867   -0.008512960   -0.004124463
      6        8           0.009780656    0.001545134   -0.003061009
      7        8          -0.004414498    0.004135740    0.009309201
      8        1           0.003024412    0.004020354   -0.005035370
 -------------------------------------------------------------------
 Cartesian Forces:  Max     0.009780656 RMS     0.004702314
 Force constants in Cartesian coordinates: 
                1             2             3             4             5 
      1  0.564298D+00
      2 -0.885333D-01  0.213497D+00
      3  0.271309D-01  0.122348D+00  0.511194D+00
      4 -0.103105D+00  0.691012D-01  0.900934D-01  0.152023D+00
      5  0.609726D-01 -0.114918D+00 -0.158009D+00 -0.986824D-01  0.106497D+00
      6  0.841979D-01 -0.131863D+00 -0.280106D+00 -0.137034D+00  0.150551D+00
      7 -0.399678D+00  0.234581D-01 -0.908671D-01 -0.514084D-01  0.310337D-01
      8  0.160931D-01 -0.303591D-01 -0.159309D-01  0.319335D-01  0.910169D-03
      9 -0.696889D-01 -0.193752D-02 -0.800119D-01  0.441587D-01 -0.360167D-02
     10 -0.475965D-01 -0.147943D-01 -0.367496D-01 -0.355352D-02  0.125374D-01
     11  0.171640D-01 -0.505858D-01  0.623026D-01  0.628656D-03 -0.354981D-02
     12 -0.642514D-01 -0.296312D-02 -0.160887D+00  0.406412D-02  0.178181D-01
     13 -0.378374D-02  0.567709D-02 -0.236960D-02  0.224819D-02 -0.122477D-02
     14  0.532441D-02  0.410474D-02  0.162387D-02 -0.130924D-05  0.194417D-02
     15  0.257895D-01 -0.179792D-01 -0.252105D-02 -0.319984D-03 -0.850645D-03
     16 -0.177498D-01  0.184414D-03  0.168668D-01  0.400344D-02 -0.450619D-02
     17  0.674440D-02  0.486109D-02 -0.307388D-02 -0.865093D-03  0.105312D-02
     18 -0.161053D-01 -0.112449D-02  0.923426D-02 -0.116399D-02  0.159776D-03
     19  0.635027D-03  0.178080D-02 -0.476081D-02  0.657480D-03  0.697872D-04
     20 -0.158571D-01 -0.279474D-01 -0.122841D-01 -0.265024D-02  0.981348D-02
     21  0.107541D-01  0.277402D-01  0.540174D-03  0.210706D-03 -0.410895D-02
     22  0.698119D-02  0.312600D-02  0.656012D-03 -0.864870D-03 -0.200215D-03
     23 -0.190806D-02  0.134744D-02  0.302380D-02  0.535668D-03 -0.175013D-02
     24  0.217325D-02  0.577892D-02  0.255663D-02 -0.879864D-05 -0.195796D-02
                6             7             8             9            10 
      6  0.302576D+00
      7  0.333881D-01  0.471816D+00
      8  0.338245D-04 -0.637781D-01  0.256076D-01
      9  0.915737D-02  0.567775D-01  0.522713D-02  0.742759D-01
     10  0.284379D-01 -0.274748D-01  0.179642D-01 -0.287961D-01  0.117608D+01
     11 -0.343840D-01 -0.365607D-02 -0.133410D-03 -0.659993D-02 -0.137912D+00
     12 -0.162923D-01  0.240293D-01  0.125603D-01  0.564150D-02 -0.177881D+00
     13 -0.857855D-03  0.853706D-02 -0.162738D-02  0.187345D-02 -0.294734D+00
     14  0.206836D-02 -0.315239D-02 -0.153764D-03  0.863267D-03  0.182193D+00
     15 -0.152180D-01 -0.694714D-02 -0.186365D-03 -0.177805D-02  0.243256D+00
     16 -0.837724D-02 -0.416578D-02  0.214169D-02 -0.756877D-02 -0.694235D+00
     17  0.401530D-02  0.300349D-02  0.846311D-03  0.327362D-02  0.131872D-01
     18  0.649587D-03 -0.936459D-02  0.225895D-02 -0.726017D-02 -0.139429D-01
     19 -0.954626D-04  0.599668D-02 -0.111577D-02  0.326686D-02 -0.953453D-01
     20  0.103985D-01  0.115086D-01  0.376098D-02  0.231021D-02 -0.392998D-01
     21  0.144591D-02 -0.568832D-02 -0.311564D-02  0.113157D-02 -0.131211D-01
     22  0.340687D-03 -0.362285D-02 -0.161122D-02 -0.226895D-04 -0.131374D-01
     23 -0.819931D-03  0.158262D-02 -0.478843D-03  0.464898D-03 -0.338760D-01
     24 -0.221349D-02 -0.132786D-02 -0.847253D-03 -0.115621D-02 -0.120317D-02
               11            12            13            14            15 
     11  0.637628D+00
     12  0.189162D+00  0.742194D+00
     13  0.176435D+00  0.233960D+00  0.282216D+00
     14 -0.236537D+00 -0.209280D+00 -0.194203D+00  0.250025D+00
     15 -0.214063D+00 -0.390993D+00 -0.265014D+00  0.245528D+00  0.383441D+00
     16  0.136543D-01 -0.174931D-02 -0.972391D-02 -0.542832D-02 -0.557894D-02
     17 -0.864946D-01  0.240630D-02  0.207322D-01  0.147686D-01 -0.524146D-02
     18  0.615947D-04 -0.102010D+00  0.322244D-01 -0.569335D-02  0.188704D-01
     19 -0.584747D-01 -0.944410D-02  0.167473D-01  0.110127D-01  0.740745D-02
     20 -0.248677D+00  0.162259D-01 -0.886179D-02 -0.314601D-01 -0.949259D-02
     21  0.622646D-02 -0.790464D-01 -0.115587D-02 -0.361647D-01  0.745527D-02
     22 -0.783867D-02 -0.872818D-02 -0.150634D-02  0.425465D-02  0.140737D-02
     23 -0.116497D-01 -0.259299D-01  0.307315D-02 -0.269101D-02  0.228551D-02
     24 -0.270609D-02  0.139252D-02  0.133909D-02  0.105462D-02  0.743240D-03
               16            17            18            19            20 
     16  0.738768D+00
     17  0.170244D-03  0.703894D-01
     18  0.849652D-02  0.513456D-02  0.659890D-01
     19 -0.170711D-01 -0.400503D-01 -0.804312D-03  0.376570D+00
     20 -0.474782D-02 -0.145274D-02 -0.259377D-02  0.110805D+00  0.327302D+00
     21 -0.724374D-02 -0.111322D-01  0.146715D-01  0.263642D+00  0.315731D-01
     22  0.174451D-03 -0.292205D-02  0.660200D-03 -0.288191D+00 -0.508969D-01
     23 -0.146826D-02 -0.397121D-02  0.179673D-02 -0.240275D-01 -0.313393D-01
     24  0.515469D-02  0.461778D-02 -0.144564D-03 -0.259212D+00 -0.361372D-01
               21            22            23            24 
     21  0.268676D+00
     22 -0.247398D+00  0.300166D+00
     23 -0.110182D-01  0.560884D-01  0.505328D-01
     24 -0.214874D+00  0.253085D+00  0.301971D-01  0.213696D+00
 FormGI is forming the generalized inverse of G from B-inverse, IUseBI=4.
 Force constants in internal coordinates: 
                1             2             3             4             5 
      1  0.471374D+00
      2  0.612952D-01  0.487428D+00
      3  0.103273D-01  0.108919D-01  0.206524D+00
      4  0.537108D-02  0.111323D-01  0.274761D-02  0.785374D+00
      5  0.102792D-01  0.533858D-02  0.354238D-02 -0.949367D-03  0.738763D+00
      6  0.115005D-01  0.133116D-01  0.592529D-02  0.160583D-01  0.112132D-01
      7 -0.145829D-02 -0.334009D-02  0.259204D-03 -0.297111D-02 -0.331563D-02
      8  0.178756D-01  0.181323D-01 -0.179668D-01 -0.562670D-02 -0.617804D-02
      9  0.245375D-01 -0.348020D-01  0.235164D-01  0.132848D-01 -0.221745D-02
     10 -0.349809D-01  0.252778D-01  0.219837D-01 -0.351067D-02  0.132443D-01
     11  0.170539D-01 -0.765217D-02  0.622328D-02  0.142796D-01 -0.834572D-02
     12 -0.600480D-02  0.150530D-01  0.591061D-02 -0.748681D-02  0.162690D-01
     13  0.513241D-02  0.125897D-01  0.657514D-02 -0.165523D-01 -0.149885D-01
     14 -0.279049D-02 -0.237777D-02 -0.334798D-02  0.152414D-03  0.208059D-02
     15 -0.613986D-02 -0.585696D-02 -0.650574D-02  0.136618D-01 -0.729285D-02
     16 -0.503106D-02 -0.805156D-02 -0.624484D-02 -0.785541D-02  0.842681D-02
     17 -0.183368D-02  0.318527D-02  0.562430D-02  0.239336D-02  0.478474D-02
     18  0.876012D-02  0.502296D-02  0.870796D-02  0.372237D-02 -0.720174D-02
     19  0.129612D-01  0.722038D-02  0.129800D-01  0.864526D-02  0.957319D-03
     20  0.735268D-02  0.903675D-02  0.109664D-01 -0.962725D-02  0.995681D-02
     21 -0.783708D-02 -0.123243D-01 -0.120794D-01  0.187783D-02 -0.936474D-02
     22 -0.363601D-02 -0.101268D-01 -0.780738D-02  0.680072D-02 -0.120568D-02
     23 -0.924452D-02 -0.831048D-02 -0.982097D-02 -0.114718D-01  0.779380D-02
     24  0.987410D-02 -0.915788D-02  0.728089D-03  0.925457D-02 -0.900611D-02
     25 -0.896141D-02 -0.390159D-02 -0.660198D-02 -0.445316D-02  0.914411D-02
     26  0.361046D-02  0.102908D-01  0.795799D-02 -0.936715D-02  0.556746D-02
                6             7             8             9            10 
      6  0.348816D+00
      7  0.459362D-02  0.521549D+00
      8 -0.258849D-02  0.638731D-03  0.135804D+00
      9 -0.323908D-03 -0.102166D-03 -0.905056D-01  0.154904D+00
     10 -0.252126D-03  0.147017D-02 -0.893682D-01 -0.214892D-01  0.152269D+00
     11 -0.161281D-01  0.121447D-02 -0.912060D-02  0.223586D-01 -0.502635D-02
     12 -0.125394D-01  0.158271D-02 -0.836542D-02 -0.558826D-02  0.223545D-01
     13  0.102193D-01 -0.556686D-02  0.107255D-01 -0.146249D-01 -0.185690D-01
     14 -0.873175D-02  0.104650D-02  0.398615D-02 -0.369033D-02 -0.400325D-02
     15  0.176022D-01 -0.141415D-02  0.259308D-02 -0.690577D-03 -0.120593D-03
     16  0.121739D-01  0.170221D-02  0.161699D-02 -0.138168D-03  0.183395D-02
     17  0.545252D-01  0.197865D-01 -0.161139D-02  0.242361D-02  0.129172D-02
     18  0.140880D-01 -0.122551D-02  0.120873D-01 -0.110763D-02 -0.348758D-02
     19 -0.168905D-01  0.204171D-02  0.487861D-02  0.595695D-02  0.360556D-02
     20 -0.376735D-02  0.218508D-02  0.807446D-02 -0.230321D-02  0.605295D-02
     21  0.186636D-01 -0.364747D-02 -0.495493D-02 -0.502944D-02 -0.454222D-02
     22 -0.123149D-01 -0.380243D-03 -0.121637D-01  0.203515D-02  0.255092D-02
     23  0.808292D-03 -0.236872D-03 -0.896782D-02 -0.622502D-02  0.499832D-02
     24  0.212077D-02 -0.144163D-02 -0.757595D-03  0.100448D-01 -0.913447D-02
     25  0.937265D-02  0.642158D-04  0.388990D-02 -0.828583D-02  0.428922D-02
     26 -0.284008D-02 -0.153069D-02 -0.471755D-02 -0.276090D-02  0.820952D-02
               11            12            13            14            15 
     11  0.107056D+00
     12 -0.563517D-03  0.107432D+00
     13 -0.165317D-01 -0.266579D-01  0.189403D+00
     14 -0.355744D-01 -0.355491D-01  0.112031D-01  0.707348D-01
     15 -0.418143D-01 -0.575943D-02 -0.574735D-01 -0.110206D-01  0.102913D+00
     16 -0.708163D-02 -0.367851D-01 -0.555463D-01 -0.961104D-02 -0.178602D-02
     17 -0.666529D-02 -0.861227D-02 -0.254556D-02  0.226394D-02  0.129466D-02
     18 -0.126627D-01 -0.132544D-01 -0.638233D-03 -0.209224D-01  0.427845D-01
     19  0.170001D-01  0.168265D-01 -0.167466D-01  0.181845D-01 -0.425222D-02
     20  0.210985D-02  0.423218D-02 -0.911467D-02 -0.710608D-03 -0.321902D-01
     21 -0.172337D-01 -0.180948D-01  0.181483D-01 -0.188624D-01  0.396775D-01
     22  0.124291D-01  0.119861D-01  0.203997D-02  0.202445D-01 -0.735922D-02
     23 -0.246114D-02 -0.608217D-03  0.967188D-02  0.134941D-02 -0.352972D-01
     24  0.365153D-01 -0.370704D-01  0.266587D-02 -0.121988D-02 -0.190693D-02
     25 -0.600266D-01 -0.231635D-01 -0.382756D-01  0.373564D-01  0.317954D-01
     26  0.259133D-01  0.574062D-01  0.369110D-01 -0.394317D-01 -0.346086D-01
               16            17            18            19            20 
     16  0.964103D-01
     17  0.126887D-01  0.153488D+00
     18  0.639179D-02  0.300128D-02  0.363954D-01
     19 -0.363246D-01 -0.482818D-02 -0.796522D-02  0.384826D-01
     20  0.336711D-01  0.499080D-02 -0.599596D-02 -0.245736D-02  0.324750D-01
     21  0.212595D-02  0.151964D-02  0.227505D-01 -0.255977D-01 -0.222974D-01
     22 -0.405904D-01 -0.630982D-02 -0.216102D-01  0.208501D-01 -0.187588D-01
     23  0.294053D-01  0.350916D-02 -0.196409D-01 -0.200898D-01  0.161736D-01
     24  0.213371D-02  0.333785D-02  0.446817D-02  0.250716D-02 -0.751930D-02
     25  0.339980D-01  0.113214D-01  0.346312D-02 -0.772946D-02  0.548357D-02
     26 -0.282173D-01 -0.274095D-02 -0.825664D-02  0.460731D-03  0.552437D-02
               21            22            23            24            25 
     21  0.404999D-01
     22 -0.784829D-02  0.346120D-01
     23 -0.454801D-02 -0.499693D-02  0.312665D-01
     24  0.456283D-02  0.260183D-02 -0.742463D-02  0.253354D-01
     25  0.181332D-02 -0.937926D-02  0.383378D-02 -0.155044D-01  0.556664D-01
     26 -0.675874D-02  0.195863D-02  0.702227D-02 -0.140600D-01 -0.459102D-01
               26 
     26  0.560765D-01
 Leave Link  716 at Sat May 24 00:39:01 2025, MaxMem=  3758096384 cpu:               0.1 elap:               0.0
 (Enter /apps/easybuild-2022/easybuild/software/Compiler/NVHPC/22.11-CUDA-11.7.0/Gaussian/g16c01-CUDA-11.7.0/g16/l103.exe)

 GradGradGradGradGradGradGradGradGradGradGradGradGradGradGradGradGradGrad
 Berny optimization.
 Red2BG is reusing G-inverse.
 Internal  Forces:  Max     0.009777186 RMS     0.004414251
 Search for a local minimum.
 Step number   1 out of a maximum of   36
 All quantities printed in internal units (Hartrees-Bohrs-Radians)
 RMS Force = .44143D-02 SwitMx=.10000D-02 MixMth= 1
 Mixed Optimization -- RFO/linear search
 Second derivative matrix not updated -- analytic derivatives used.
 ITU=  0
     Eigenvalues ---   -0.00544   0.00137   0.04071   0.12030   0.13373
     Eigenvalues ---    0.14517   0.17385   0.18370   0.18954   0.20213
     Eigenvalues ---    0.28134   0.29751   0.37801   0.43582   0.52286
     Eigenvalues ---    0.54886   0.74237   0.78921
 Eigenvalue     1 is  -5.44D-03 should be greater than     0.000000 Eigenvector:
                          D8        D7        D9        D5        D2
   1                    0.57749   0.56954   0.56823   0.06497   0.06247
                          D4        D1        D6        D3        A10
   1                    0.05004   0.04754   0.04183   0.03933  -0.03933
 RFO step:  Lambda=-8.67374671D-03 EMin=-5.43922317D-03
 Linear search not attempted -- first point.
 Iteration  1 RMS(Cart)=  0.06458686 RMS(Int)=  0.10073183
 Iteration  2 RMS(Cart)=  0.05595319 RMS(Int)=  0.03319972
 Iteration  3 RMS(Cart)=  0.02760756 RMS(Int)=  0.00144952
 Iteration  4 RMS(Cart)=  0.00128354 RMS(Int)=  0.00008602
 Iteration  5 RMS(Cart)=  0.00000227 RMS(Int)=  0.00008600
 Iteration  6 RMS(Cart)=  0.00000000 RMS(Int)=  0.00008600
 ITry= 1 IFail=0 DXMaxC= 4.94D-01 DCOld= 1.00D+10 DXMaxT= 3.00D-01 DXLimC= 3.00D+00 Rises=F
 Variable       Old X    -DE/DX   Delta X   Delta X   Delta X     New X
                                 (Linear)    (Quad)   (Total)
    R1        2.47868  -0.00091   0.00000  -0.01156  -0.01156   2.46713
    R2        2.46789   0.00540   0.00000   0.01882   0.01882   2.48671
    R3        3.37567   0.00261   0.00000   0.00705   0.00705   3.38273
    R4        2.66725   0.00703   0.00000   0.00914   0.00914   2.67639
    R5        2.68191  -0.00978   0.00000  -0.01508  -0.01508   2.66683
    R6        2.98994   0.00730   0.00000   0.00180   0.00180   2.99173
    R7        1.82868  -0.00054   0.00000   0.00153   0.00153   1.83021
    A1        1.95539  -0.00180   0.00000  -0.00688  -0.00682   1.94857
    A2        1.99821   0.00325   0.00000   0.02297   0.02301   2.02122
    A3        2.01751  -0.00130   0.00000  -0.02762  -0.02758   1.98993
    A4        1.85968  -0.00129   0.00000  -0.01372  -0.01384   1.84584
    A5        1.85719   0.00172   0.00000   0.01981   0.01981   1.87700
    A6        1.78351   0.00215   0.00000   0.00316   0.00313   1.78663
    A7        2.16428  -0.00317   0.00000  -0.00821  -0.00801   2.15626
    A8        1.87183   0.00628   0.00000   0.04455   0.04465   1.91648
    A9        1.89112  -0.00471   0.00000  -0.04349  -0.04336   1.84777
   A10        1.91432   0.00961   0.00000   0.02735   0.02735   1.94168
    D1        3.06608   0.00374   0.00000   0.06435   0.06432   3.13040
    D2       -0.87689   0.00007   0.00000   0.05832   0.05831  -0.81858
    D3        1.10479  -0.00361   0.00000   0.01883   0.01882   1.12361
    D4        0.75389   0.00440   0.00000   0.07957   0.07956   0.83345
    D5        3.09410   0.00073   0.00000   0.07354   0.07356  -3.11552
    D6       -1.20740  -0.00295   0.00000   0.03404   0.03407  -1.17334
    D7        0.43046   0.00293   0.00000   0.49372   0.49383   0.92429
    D8       -1.52174   0.00120   0.00000   0.49166   0.49140  -1.03035
    D9        2.38689   0.00408   0.00000   0.50125   0.50140   2.88830
         Item               Value     Threshold  Converged?
 Maximum Force            0.009777     0.000015     NO 
 RMS     Force            0.004414     0.000010     NO 
 Maximum Displacement     0.494072     0.000060     NO 
 RMS     Displacement     0.137803     0.000040     NO 
 Predicted change in Energy=-7.087098D-03
 Lowest energy point so far.  Saving SCF results.
 GradGradGradGradGradGradGradGradGradGradGradGradGradGradGradGradGradGrad

 Leave Link  103 at Sat May 24 00:39:01 2025, MaxMem=  3758096384 cpu:               0.1 elap:               0.0
 (Enter /apps/easybuild-2022/easybuild/software/Compiler/NVHPC/22.11-CUDA-11.7.0/Gaussian/g16c01-CUDA-11.7.0/g16/l202.exe)
                          Input orientation:                          
 ---------------------------------------------------------------------
 Center     Atomic      Atomic             Coordinates (Angstroms)
 Number     Number       Type             X           Y           Z
 ---------------------------------------------------------------------
      1          6           0        1.902304   -0.599613    1.642092
      2          9           0        1.277114   -0.076416    2.661825
      3          9           0        3.203775   -0.629875    1.834119
      4         16           0        1.417551    0.014526    0.032071
      5          8           0        2.227522   -0.675467   -0.902655
      6          8           0        0.007083    0.021371   -0.013621
      7          8           0        1.855769    1.534179    0.102828
      8          1           0        2.784801    1.619865    0.362754
 ---------------------------------------------------------------------
                    Distance matrix (angstroms):
                    1          2          3          4          5
     1  C    0.000000
     2  F    1.305547   0.000000
     3  F    1.315909   2.168740   0.000000
     4  S    1.790061   2.635071   2.617866   0.000000
     5  O    2.566565   3.737332   2.906042   1.416283   0.000000
     6  O    2.592077   2.963199   3.749280   1.411224   2.491247
     7  O    2.631457   3.078526   3.081820   1.583156   2.455958
     8  H    2.709536   3.230513   2.720621   2.134440   2.679621
                    6          7          8
     6  O    0.000000
     7  O    2.391607   0.000000
     8  H    3.226849   0.968507   0.000000
 Symmetry turned off by external request.
 Stoichiometry    CHF2O3S
 Rotational constants (GHZ):           3.4727848           2.0762230           1.7584943
 Leave Link  202 at Sat May 24 00:39:01 2025, MaxMem=  3758096384 cpu:               0.0 elap:               0.0
 (Enter /apps/easybuild-2022/easybuild/software/Compiler/NVHPC/22.11-CUDA-11.7.0/Gaussian/g16c01-CUDA-11.7.0/g16/l301.exe)
 Standard basis: def2TZVPP (5D, 7F)
 Ernie: Thresh=  0.10000D-02 Tol=  0.10000D-05 Strict=F.
   242 basis functions,   392 primitive gaussians,   279 cartesian basis functions
    33 alpha electrons       32 beta electrons
       nuclear repulsion energy       445.9659870478 Hartrees.
 IExCor= 4336 DFT=T Ex+Corr=M062X ExCW=0 ScaHFX=  0.540000
 ScaDFX=  1.000000  1.000000  1.000000  1.000000 ScalE2=  1.000000  1.000000
 IRadAn=      5 IRanWt=     -1 IRanGd=            0 ICorTp=0 IEmpDi=  4
 NAtoms=    8 NActive=    8 NUniq=    8 SFac= 1.00D+00 NAtFMM=   60 NAOKFM=F Big=F
 Integral buffers will be    131072 words long.
 Raffenetti 2 integral format.
 Two-electron integral symmetry is turned off.
 Leave Link  301 at Sat May 24 00:39:01 2025, MaxMem=  3758096384 cpu:               0.1 elap:               0.0
 (Enter /apps/easybuild-2022/easybuild/software/Compiler/NVHPC/22.11-CUDA-11.7.0/Gaussian/g16c01-CUDA-11.7.0/g16/l302.exe)
 NPDir=0 NMtPBC=     1 NCelOv=     1 NCel=       1 NClECP=     1 NCelD=      1
         NCelK=      1 NCelE2=     1 NClLst=     1 CellRange=     0.0.
 One-electron integrals computed using PRISM.
   1 Symmetry operations used in ECPInt.
 ECPInt:  NShTT=    3741 NPrTT=   12260 LenC2=    3640 LenP2D=    9319.
 LDataN:  DoStor=T MaxTD1= 6 Len=  172
 NBasis=   242 RedAO= T EigKep=  9.73D-04  NBF=   242
 NBsUse=   242 1.00D-06 EigRej= -1.00D+00 NBFU=   242
 Precomputing XC quadrature grid using
 IXCGrd= 4 IRadAn=           5 IRanWt=          -1 IRanGd=           0 AccXCQ= 0.00D+00.
 Generated NRdTot=       0 NPtTot=           0 NUsed=           0 NTot=          32
 NSgBfM=   277   276   277   277   277 MxSgAt=     8 MxSgA2=     8.
 Leave Link  302 at Sat May 24 00:39:01 2025, MaxMem=  3758096384 cpu:               0.7 elap:               0.1
 (Enter /apps/easybuild-2022/easybuild/software/Compiler/NVHPC/22.11-CUDA-11.7.0/Gaussian/g16c01-CUDA-11.7.0/g16/l303.exe)
 DipDrv:  MaxL=1.
 Leave Link  303 at Sat May 24 00:39:01 2025, MaxMem=  3758096384 cpu:               0.1 elap:               0.0
 (Enter /apps/easybuild-2022/easybuild/software/Compiler/NVHPC/22.11-CUDA-11.7.0/Gaussian/g16c01-CUDA-11.7.0/g16/l401.exe)
 Initial guess from the checkpoint file:  "/tmp/Gau-42543.chk"
 B after Tr=    -0.006877   -0.046638    0.005802
         Rot=    0.999746   -0.015856    0.008726   -0.013419 Ang=  -2.58 deg.
 Guess basis will be translated and rotated to current coordinates.
 JPrj=2 DoOrth=T DoCkMO=T.
 Initial guess <Sx>= 0.0000 <Sy>= 0.0000 <Sz>= 0.5000 <S**2>= 0.7539 S= 0.5019
 Generating alternative initial guess.
 ExpMin= 9.52D-02 ExpMax= 6.07D+04 ExpMxC= 2.07D+03 IAcc=3 IRadAn=         5 AccDes= 0.00D+00
 Harris functional with IExCor= 1009 and IRadAn=       5 diagonalized for initial guess.
 HarFok:  IExCor= 1009 AccDes= 0.00D+00 IRadAn=         5 IDoV= 1 UseB2=F ITyADJ=14
 ICtDFT=  3500011 ScaDFX=  1.000000  1.000000  1.000000  1.000000
 FoFCou: FMM=F IPFlag=           0 FMFlag=      100000 FMFlg1=           0
         NFxFlg=           0 DoJE=T BraDBF=F KetDBF=T FulRan=T
         wScrn=  0.000000 ICntrl=       500 IOpCl=  0 I1Cent=   200000004 NGrid=           0
         NMat0=    1 NMatS0=      1 NMatT0=    0 NMatD0=    1 NMtDS0=    0 NMtDT0=    0
 Symmetry not used in FoFCou.
 Harris En= -861.796318280268    
 Leave Link  401 at Sat May 24 00:39:02 2025, MaxMem=  3758096384 cpu:               2.9 elap:               0.6
 (Enter /apps/easybuild-2022/easybuild/software/Compiler/NVHPC/22.11-CUDA-11.7.0/Gaussian/g16c01-CUDA-11.7.0/g16/l502.exe)
 Keep R1 and R2 ints in memory in canonical form, NReq=875542475.
 FoFCou: FMM=F IPFlag=           0 FMFlag=           0 FMFlg1=           0
         NFxFlg=           0 DoJE=F BraDBF=F KetDBF=F FulRan=T
         wScrn=  0.000000 ICntrl=       600 IOpCl=  0 I1Cent=           0 NGrid=           0
         NMat0=    1 NMatS0=  29403 NMatT0=    0 NMatD0=    1 NMtDS0=    0 NMtDT0=    0
 Symmetry not used in FoFCou.
 Two-electron integral symmetry not used.
 UHF open shell SCF:
 Using DIIS extrapolation, IDIIS=  1040.
 NGot=  3758096384 LenX=  2893370665 LenY=  2893292383
 Requested convergence on RMS density matrix=1.00D-08 within  32 cycles.
 Requested convergence on MAX density matrix=1.00D-06.
 Requested convergence on             energy=1.00D-06.
 No special actions if energy rises.
 Integral accuracy reduced to 1.0D-05 until final iterations.

 Cycle   1  Pass 0  IDiag  1:
 E= -862.158095226762    
 DIIS: error= 7.33D-03 at cycle   1 NSaved=   1.
 NSaved= 1 IEnMin= 1 EnMin= -862.158095226762     IErMin= 1 ErrMin= 7.33D-03
 ErrMax= 7.33D-03  0.00D+00 EMaxC= 1.00D-01 BMatC= 1.16D-01 BMatP= 1.16D-01
 IDIUse=3 WtCom= 9.27D-01 WtEn= 7.33D-02
 Coeff-Com:  0.100D+01
 Coeff-En:   0.100D+01
 Coeff:      0.100D+01
 Gap=     0.873 Goal=   None    Shift=    0.000
 Gap=     0.938 Goal=   None    Shift=    0.000
 GapD=    0.873 DampG=2.000 DampE=1.000 DampFc=2.0000 IDamp=-1.
 RMSDP=7.38D-04 MaxDP=4.52D-02              OVMax= 6.78D-02

 Cycle   2  Pass 0  IDiag  1:
 E= -862.188431604907     Delta-E=       -0.030336378145 Rises=F Damp=F
 DIIS: error= 2.60D-03 at cycle   2 NSaved=   2.
 NSaved= 2 IEnMin= 2 EnMin= -862.188431604907     IErMin= 2 ErrMin= 2.60D-03
 ErrMax= 2.60D-03  0.00D+00 EMaxC= 1.00D-01 BMatC= 4.27D-03 BMatP= 1.16D-01
 IDIUse=3 WtCom= 9.74D-01 WtEn= 2.60D-02
 Coeff-Com: -0.689D-01 0.107D+01
 Coeff-En:   0.000D+00 0.100D+01
 Coeff:     -0.671D-01 0.107D+01
 Gap=     0.371 Goal=   None    Shift=    0.000
 Gap=     0.338 Goal=   None    Shift=    0.000
 RMSDP=1.59D-04 MaxDP=9.66D-03 DE=-3.03D-02 OVMax= 1.82D-02

 Cycle   3  Pass 0  IDiag  1:
 E= -862.189589639363     Delta-E=       -0.001158034456 Rises=F Damp=F
 DIIS: error= 1.31D-03 at cycle   3 NSaved=   3.
 NSaved= 3 IEnMin= 3 EnMin= -862.189589639363     IErMin= 3 ErrMin= 1.31D-03
 ErrMax= 1.31D-03  0.00D+00 EMaxC= 1.00D-01 BMatC= 2.21D-03 BMatP= 4.27D-03
 IDIUse=3 WtCom= 9.87D-01 WtEn= 1.31D-02
 Coeff-Com: -0.576D-01 0.455D+00 0.602D+00
 Coeff-En:   0.000D+00 0.000D+00 0.100D+01
 Coeff:     -0.569D-01 0.449D+00 0.608D+00
 Gap=     0.372 Goal=   None    Shift=    0.000
 Gap=     0.337 Goal=   None    Shift=    0.000
 RMSDP=6.58D-05 MaxDP=3.28D-03 DE=-1.16D-03 OVMax= 7.26D-03

 Cycle   4  Pass 0  IDiag  1:
 E= -862.189941776315     Delta-E=       -0.000352136952 Rises=F Damp=F
 DIIS: error= 4.80D-04 at cycle   4 NSaved=   4.
 NSaved= 4 IEnMin= 4 EnMin= -862.189941776315     IErMin= 4 ErrMin= 4.80D-04
 ErrMax= 4.80D-04  0.00D+00 EMaxC= 1.00D-01 BMatC= 3.15D-04 BMatP= 2.21D-03
 IDIUse=3 WtCom= 9.95D-01 WtEn= 4.80D-03
 Coeff-Com: -0.102D-01 0.532D-02 0.270D+00 0.735D+00
 Coeff-En:   0.000D+00 0.000D+00 0.000D+00 0.100D+01
 Coeff:     -0.102D-01 0.529D-02 0.268D+00 0.737D+00
 Gap=     0.371 Goal=   None    Shift=    0.000
 Gap=     0.336 Goal=   None    Shift=    0.000
 RMSDP=2.61D-05 MaxDP=1.05D-03 DE=-3.52D-04 OVMax= 2.56D-03

 Cycle   5  Pass 0  IDiag  1:
 E= -862.190004222333     Delta-E=       -0.000062446018 Rises=F Damp=F
 DIIS: error= 1.04D-04 at cycle   5 NSaved=   5.
 NSaved= 5 IEnMin= 5 EnMin= -862.190004222333     IErMin= 5 ErrMin= 1.04D-04
 ErrMax= 1.04D-04  0.00D+00 EMaxC= 1.00D-01 BMatC= 1.81D-05 BMatP= 3.15D-04
 IDIUse=3 WtCom= 9.99D-01 WtEn= 1.04D-03
 Coeff-Com:  0.164D-02-0.422D-01 0.370D-01 0.253D+00 0.751D+00
 Coeff-En:   0.000D+00 0.000D+00 0.000D+00 0.000D+00 0.100D+01
 Coeff:      0.164D-02-0.421D-01 0.369D-01 0.252D+00 0.751D+00
 Gap=     0.371 Goal=   None    Shift=    0.000
 Gap=     0.337 Goal=   None    Shift=    0.000
 RMSDP=8.01D-06 MaxDP=2.93D-04 DE=-6.24D-05 OVMax= 8.37D-04

 Initial convergence to 1.0D-05 achieved.  Increase integral accuracy.
 Cycle   6  Pass 1  IDiag  1:
 E= -862.190011513164     Delta-E=       -0.000007290831 Rises=F Damp=F
 DIIS: error= 4.63D-05 at cycle   1 NSaved=   1.
 NSaved= 1 IEnMin= 1 EnMin= -862.190011513164     IErMin= 1 ErrMin= 4.63D-05
 ErrMax= 4.63D-05  0.00D+00 EMaxC= 1.00D-01 BMatC= 5.80D-06 BMatP= 5.80D-06
 IDIUse=1 WtCom= 1.00D+00 WtEn= 0.00D+00
 Coeff-Com:  0.100D+01
 Coeff:      0.100D+01
 Gap=     0.372 Goal=   None    Shift=    0.000
 Gap=     0.336 Goal=   None    Shift=    0.000
 RMSDP=8.01D-06 MaxDP=2.93D-04 DE=-7.29D-06 OVMax= 4.15D-04

 Cycle   7  Pass 1  IDiag  1:
 E= -862.190011654849     Delta-E=       -0.000000141685 Rises=F Damp=F
 DIIS: error= 5.42D-05 at cycle   2 NSaved=   2.
 NSaved= 2 IEnMin= 2 EnMin= -862.190011654849     IErMin= 1 ErrMin= 4.63D-05
 ErrMax= 5.42D-05  0.00D+00 EMaxC= 1.00D-01 BMatC= 6.54D-06 BMatP= 5.80D-06
 IDIUse=1 WtCom= 1.00D+00 WtEn= 0.00D+00
 Coeff-Com:  0.518D+00 0.482D+00
 Coeff:      0.518D+00 0.482D+00
 Gap=     0.371 Goal=   None    Shift=    0.000
 Gap=     0.336 Goal=   None    Shift=    0.000
 RMSDP=3.14D-06 MaxDP=1.98D-04 DE=-1.42D-07 OVMax= 2.89D-04

 Cycle   8  Pass 1  IDiag  1:
 E= -862.190012690869     Delta-E=       -0.000001036020 Rises=F Damp=F
 DIIS: error= 1.13D-05 at cycle   3 NSaved=   3.
 NSaved= 3 IEnMin= 3 EnMin= -862.190012690869     IErMin= 3 ErrMin= 1.13D-05
 ErrMax= 1.13D-05  0.00D+00 EMaxC= 1.00D-01 BMatC= 2.25D-07 BMatP= 5.80D-06
 IDIUse=1 WtCom= 1.00D+00 WtEn= 0.00D+00
 Coeff-Com: -0.258D-01 0.128D+00 0.898D+00
 Coeff:     -0.258D-01 0.128D+00 0.898D+00
 Gap=     0.371 Goal=   None    Shift=    0.000
 Gap=     0.336 Goal=   None    Shift=    0.000
 RMSDP=9.15D-07 MaxDP=3.36D-05 DE=-1.04D-06 OVMax= 9.04D-05

 Cycle   9  Pass 1  IDiag  1:
 E= -862.190012739939     Delta-E=       -0.000000049070 Rises=F Damp=F
 DIIS: error= 4.71D-06 at cycle   4 NSaved=   4.
 NSaved= 4 IEnMin= 4 EnMin= -862.190012739939     IErMin= 4 ErrMin= 4.71D-06
 ErrMax= 4.71D-06  0.00D+00 EMaxC= 1.00D-01 BMatC= 4.49D-08 BMatP= 2.25D-07
 IDIUse=1 WtCom= 1.00D+00 WtEn= 0.00D+00
 Coeff-Com: -0.390D-01 0.366D-01 0.445D+00 0.558D+00
 Coeff:     -0.390D-01 0.366D-01 0.445D+00 0.558D+00
 Gap=     0.371 Goal=   None    Shift=    0.000
 Gap=     0.336 Goal=   None    Shift=    0.000
 RMSDP=2.91D-07 MaxDP=1.14D-05 DE=-4.91D-08 OVMax= 2.80D-05

 Cycle  10  Pass 1  IDiag  1:
 E= -862.190012748875     Delta-E=       -0.000000008935 Rises=F Damp=F
 DIIS: error= 1.60D-06 at cycle   5 NSaved=   5.
 NSaved= 5 IEnMin= 5 EnMin= -862.190012748875     IErMin= 5 ErrMin= 1.60D-06
 ErrMax= 1.60D-06  0.00D+00 EMaxC= 1.00D-01 BMatC= 3.68D-09 BMatP= 4.49D-08
 IDIUse=1 WtCom= 1.00D+00 WtEn= 0.00D+00
 Coeff-Com: -0.355D-02-0.233D-01-0.106D+00 0.119D+00 0.101D+01
 Coeff:     -0.355D-02-0.233D-01-0.106D+00 0.119D+00 0.101D+01
 Gap=     0.371 Goal=   None    Shift=    0.000
 Gap=     0.336 Goal=   None    Shift=    0.000
 RMSDP=1.88D-07 MaxDP=7.39D-06 DE=-8.94D-09 OVMax= 2.86D-05

 Cycle  11  Pass 1  IDiag  1:
 E= -862.190012750477     Delta-E=       -0.000000001603 Rises=F Damp=F
 DIIS: error= 6.60D-07 at cycle   6 NSaved=   6.
 NSaved= 6 IEnMin= 6 EnMin= -862.190012750477     IErMin= 6 ErrMin= 6.60D-07
 ErrMax= 6.60D-07  0.00D+00 EMaxC= 1.00D-01 BMatC= 9.60D-10 BMatP= 3.68D-09
 IDIUse=1 WtCom= 1.00D+00 WtEn= 0.00D+00
 Coeff-Com:  0.406D-02-0.156D-01-0.111D+00-0.207D-01 0.478D+00 0.666D+00
 Coeff:      0.406D-02-0.156D-01-0.111D+00-0.207D-01 0.478D+00 0.666D+00
 Gap=     0.371 Goal=   None    Shift=    0.000
 Gap=     0.336 Goal=   None    Shift=    0.000
 RMSDP=6.18D-08 MaxDP=3.48D-06 DE=-1.60D-09 OVMax= 7.53D-06

 Cycle  12  Pass 1  IDiag  1:
 E= -862.190012750719     Delta-E=       -0.000000000242 Rises=F Damp=F
 DIIS: error= 2.03D-07 at cycle   7 NSaved=   7.
 NSaved= 7 IEnMin= 7 EnMin= -862.190012750719     IErMin= 7 ErrMin= 2.03D-07
 ErrMax= 2.03D-07  0.00D+00 EMaxC= 1.00D-01 BMatC= 1.00D-10 BMatP= 9.60D-10
 IDIUse=1 WtCom= 1.00D+00 WtEn= 0.00D+00
 Coeff-Com:  0.215D-02-0.336D-02-0.327D-01-0.224D-01 0.720D-01 0.267D+00
 Coeff-Com:  0.717D+00
 Coeff:      0.215D-02-0.336D-02-0.327D-01-0.224D-01 0.720D-01 0.267D+00
 Coeff:      0.717D+00
 Gap=     0.371 Goal=   None    Shift=    0.000
 Gap=     0.336 Goal=   None    Shift=    0.000
 RMSDP=1.85D-08 MaxDP=6.11D-07 DE=-2.42D-10 OVMax= 2.22D-06

 Cycle  13  Pass 1  IDiag  1:
 E= -862.190012750737     Delta-E=       -0.000000000018 Rises=F Damp=F
 DIIS: error= 1.01D-07 at cycle   8 NSaved=   8.
 NSaved= 8 IEnMin= 8 EnMin= -862.190012750737     IErMin= 8 ErrMin= 1.01D-07
 ErrMax= 1.01D-07  0.00D+00 EMaxC= 1.00D-01 BMatC= 1.75D-11 BMatP= 1.00D-10
 IDIUse=1 WtCom= 1.00D+00 WtEn= 0.00D+00
 Coeff-Com:  0.120D-03 0.132D-02 0.605D-02-0.502D-02-0.528D-01-0.113D-01
 Coeff-Com:  0.283D+00 0.779D+00
 Coeff:      0.120D-03 0.132D-02 0.605D-02-0.502D-02-0.528D-01-0.113D-01
 Coeff:      0.283D+00 0.779D+00
 Gap=     0.371 Goal=   None    Shift=    0.000
 Gap=     0.336 Goal=   None    Shift=    0.000
 RMSDP=9.27D-09 MaxDP=2.70D-07 DE=-1.77D-11 OVMax= 8.84D-07

 SCF Done:  E(UM062X) =  -862.190012751     A.U. after   13 cycles
            NFock= 13  Conv=0.93D-08     -V/T= 2.0026
 <Sx>= 0.0000 <Sy>= 0.0000 <Sz>= 0.5000 <S**2>= 0.7538 S= 0.5019
 <L.S>=  0.00000000000    
 KE= 8.599805587197D+02 PE=-2.935826304382D+03 EE= 7.676897458636D+02
 Annihilation of the first spin contaminant:
 S**2 before annihilation     0.7538,   after     0.7500
 Leave Link  502 at Sat May 24 00:39:21 2025, MaxMem=  3758096384 cpu:              85.2 elap:              19.6
 (Enter /apps/easybuild-2022/easybuild/software/Compiler/NVHPC/22.11-CUDA-11.7.0/Gaussian/g16c01-CUDA-11.7.0/g16/l508.exe)
 QCSCF skips out because SCF is already converged.
 Leave Link  508 at Sat May 24 00:39:21 2025, MaxMem=  3758096384 cpu:               0.0 elap:               0.0
 (Enter /apps/easybuild-2022/easybuild/software/Compiler/NVHPC/22.11-CUDA-11.7.0/Gaussian/g16c01-CUDA-11.7.0/g16/l701.exe)
 ... and contract with generalized density number  0.
 Compute integral first derivatives.
   1 Symmetry operations used in ECPInt.
 ECPInt:  NShTT=    3741 NPrTT=   12260 LenC2=    3640 LenP2D=    9319.
 LDataN:  DoStor=T MaxTD1= 7 Len=  274
 Leave Link  701 at Sat May 24 00:39:21 2025, MaxMem=  3758096384 cpu:               0.6 elap:               0.1
 (Enter /apps/easybuild-2022/easybuild/software/Compiler/NVHPC/22.11-CUDA-11.7.0/Gaussian/g16c01-CUDA-11.7.0/g16/l702.exe)
 L702 exits ... SP integral derivatives will be done elsewhere.
 Leave Link  702 at Sat May 24 00:39:21 2025, MaxMem=  3758096384 cpu:               0.0 elap:               0.0
 (Enter /apps/easybuild-2022/easybuild/software/Compiler/NVHPC/22.11-CUDA-11.7.0/Gaussian/g16c01-CUDA-11.7.0/g16/l703.exe)
 Integral derivatives from FoFJK, PRISM(SPDF).
 Compute integral first derivatives, UseDBF=F ICtDFT=           0.
 Calling FoFJK, ICntrl=      2127 FMM=F ISym2X=0 I1Cent= 0 IOpClX= 1 NMat=1 NMatS=1 NMatT=0.
 FoFJK:  IHMeth= 1 ICntrl=    2127 DoSepK=F KAlg= 0 I1Cent=           0 FoldK=F
 IRaf=         0 NMat=       1 IRICut=       1 DoRegI=T DoRafI=F ISym2E= 0 IDoP0=0 IntGTp=1.
 FoFCou: FMM=F IPFlag=           0 FMFlag=      100000 FMFlg1=         800
         NFxFlg=           0 DoJE=F BraDBF=F KetDBF=F FulRan=T
         wScrn=  0.000000 ICntrl=      2127 IOpCl=  1 I1Cent=           0 NGrid=           0
         NMat0=    1 NMatS0=      1 NMatT0=    0 NMatD0=    1 NMtDS0=    0 NMtDT0=    0
 Symmetry not used in FoFCou.
 Leave Link  703 at Sat May 24 00:39:26 2025, MaxMem=  3758096384 cpu:              32.7 elap:               4.3
 (Enter /apps/easybuild-2022/easybuild/software/Compiler/NVHPC/22.11-CUDA-11.7.0/Gaussian/g16c01-CUDA-11.7.0/g16/l716.exe)
 Dipole        = 9.28929958D-01 4.88337989D-01 7.40918067D-01
 -------------------------------------------------------------------
 Center     Atomic                   Forces (Hartrees/Bohr)
 Number     Number              X              Y              Z
 -------------------------------------------------------------------
      1        6           0.000549760   -0.000443587   -0.000283870
      2        9          -0.000758516    0.000093032    0.000537254
      3        9          -0.000728526    0.000406715    0.000150346
      4       16          -0.000319289    0.000260376   -0.001025494
      5        8           0.000951133   -0.000086726    0.000606741
      6        8          -0.000726515   -0.000376755   -0.000836645
      7        8          -0.000064995   -0.000041069    0.006185420
      8        1           0.001096948    0.000188013   -0.005333753
 -------------------------------------------------------------------
 Cartesian Forces:  Max     0.006185420 RMS     0.001755887
 Leave Link  716 at Sat May 24 00:39:26 2025, MaxMem=  3758096384 cpu:               0.0 elap:               0.0
 (Enter /apps/easybuild-2022/easybuild/software/Compiler/NVHPC/22.11-CUDA-11.7.0/Gaussian/g16c01-CUDA-11.7.0/g16/l103.exe)

 GradGradGradGradGradGradGradGradGradGradGradGradGradGradGradGradGradGrad
 Berny optimization.
 Using GEDIIS/GDIIS optimizer.
 FormGI is forming the generalized inverse of G from B-inverse, IUseBI=4.
 Internal  Forces:  Max     0.003325630 RMS     0.001166461
 Search for a local minimum.
 Step number   2 out of a maximum of   36
 All quantities printed in internal units (Hartrees-Bohrs-Radians)
 RMS Force = .11665D-02 SwitMx=.10000D-02 MixMth= 1
 Mixed Optimization -- RFO/linear search
 Update second derivatives using D2CorX and points    1    2
 DE= -5.79D-03 DEPred=-7.09D-03 R= 8.17D-01
 TightC=F SS=  1.41D+00  RLast= 8.75D-01 DXNew= 5.0454D-01 2.6239D+00
 Trust test= 8.17D-01 RLast= 8.75D-01 DXMaxT set to 5.05D-01
 ITU=  1  0
 Use linear search instead of GDIIS.
     Eigenvalues ---    0.00093   0.00137   0.04090   0.12038   0.14516
     Eigenvalues ---    0.15278   0.18017   0.18902   0.20218   0.24433
     Eigenvalues ---    0.28123   0.31565   0.41999   0.48926   0.52359
     Eigenvalues ---    0.57599   0.77062   1.11384
 RFO step:  Lambda=-5.39494450D-04 EMin= 9.31931728D-04
 Quartic linear search produced a step of  0.63406.
 Iteration  1 RMS(Cart)=  0.06367563 RMS(Int)=  0.10870348
 Iteration  2 RMS(Cart)=  0.05655379 RMS(Int)=  0.04104055
 Iteration  3 RMS(Cart)=  0.03392066 RMS(Int)=  0.00212539
 Iteration  4 RMS(Cart)=  0.00185532 RMS(Int)=  0.00009751
 Iteration  5 RMS(Cart)=  0.00000469 RMS(Int)=  0.00009746
 Iteration  6 RMS(Cart)=  0.00000000 RMS(Int)=  0.00009746
 ITry= 1 IFail=0 DXMaxC= 6.00D-01 DCOld= 1.00D+10 DXMaxT= 5.05D-01 DXLimC= 3.00D+00 Rises=F
 Variable       Old X    -DE/DX   Delta X   Delta X   Delta X     New X
                                 (Linear)    (Quad)   (Total)
    R1        2.46713   0.00082  -0.00733   0.00010  -0.00723   2.45989
    R2        2.48671  -0.00070   0.01193   0.00059   0.01252   2.49923
    R3        3.38273   0.00009   0.00447   0.00005   0.00453   3.38725
    R4        2.67639   0.00018   0.00580   0.00259   0.00838   2.68477
    R5        2.66683   0.00075  -0.00956  -0.00159  -0.01116   2.65567
    R6        2.99173   0.00046   0.00114   0.00015   0.00128   2.99302
    R7        1.83021  -0.00036   0.00097  -0.00002   0.00095   1.83116
    A1        1.94857   0.00001  -0.00433   0.00045  -0.00380   1.94477
    A2        2.02122  -0.00029   0.01459   0.00031   0.01495   2.03617
    A3        1.98993   0.00023  -0.01748  -0.00071  -0.01814   1.97179
    A4        1.84584   0.00039  -0.00878   0.00078  -0.00814   1.83770
    A5        1.87700  -0.00082   0.01256  -0.00346   0.00908   1.88608
    A6        1.78663   0.00029   0.00198   0.00165   0.00357   1.79021
    A7        2.15626   0.00011  -0.00508   0.00270  -0.00217   2.15409
    A8        1.91648  -0.00086   0.02831   0.00038   0.02879   1.94527
    A9        1.84777   0.00090  -0.02749  -0.00217  -0.02953   1.81824
   A10        1.94168   0.00074   0.01734  -0.00082   0.01652   1.95820
    D1        3.13040   0.00013   0.04078   0.01303   0.05378  -3.09901
    D2       -0.81858  -0.00002   0.03697   0.01458   0.05155  -0.76703
    D3        1.12361   0.00081   0.01193   0.01163   0.02356   1.14717
    D4        0.83345   0.00017   0.05045   0.01276   0.06321   0.89666
    D5       -3.11552   0.00002   0.04664   0.01432   0.06098  -3.05454
    D6       -1.17334   0.00085   0.02160   0.01137   0.03299  -1.14034
    D7        0.92429   0.00333   0.31312   0.20626   0.51950   1.44378
    D8       -1.03035   0.00307   0.31157   0.20444   0.51571  -0.51464
    D9        2.88830   0.00286   0.31792   0.20234   0.52043  -2.87446
         Item               Value     Threshold  Converged?
 Maximum Force            0.003326     0.000015     NO 
 RMS     Force            0.001166     0.000010     NO 
 Maximum Displacement     0.599807     0.000060     NO 
 RMS     Displacement     0.146601     0.000040     NO 
 Predicted change in Energy=-4.386613D-03
 Lowest energy point so far.  Saving SCF results.
 GradGradGradGradGradGradGradGradGradGradGradGradGradGradGradGradGradGrad

 Leave Link  103 at Sat May 24 00:39:26 2025, MaxMem=  3758096384 cpu:               0.1 elap:               0.0
 (Enter /apps/easybuild-2022/easybuild/software/Compiler/NVHPC/22.11-CUDA-11.7.0/Gaussian/g16c01-CUDA-11.7.0/g16/l202.exe)
                          Input orientation:                          
 ---------------------------------------------------------------------
 Center     Atomic      Atomic             Coordinates (Angstroms)
 Number     Number       Type             X           Y           Z
 ---------------------------------------------------------------------
      1          6           0        1.881006   -0.647592    1.670443
      2          9           0        1.215722   -0.205457    2.698249
      3          9           0        3.184246   -0.630852    1.894910
      4         16           0        1.437526    0.032107    0.072246
      5          8           0        2.258645   -0.649408   -0.865699
      6          8           0        0.035201    0.070631   -0.010988
      7          8           0        1.859566    1.551998    0.214901
      8          1           0        2.804007    1.687143    0.045350
 ---------------------------------------------------------------------
                    Distance matrix (angstroms):
                    1          2          3          4          5
     1  C    0.000000
     2  F    1.301719   0.000000
     3  F    1.322536   2.168272   0.000000
     4  S    1.792456   2.646040   2.610105   0.000000
     5  O    2.564105   3.739855   2.911708   1.420718   0.000000
     6  O    2.598085   2.968134   3.747133   1.405321   2.488512
     7  O    2.637662   3.109695   3.056476   1.583836   2.484583
     8  H    2.990627   3.625253   2.989742   2.146424   2.566496
                    6          7          8
     6  O    0.000000
     7  O    2.360885   0.000000
     8  H    3.206645   0.969010   0.000000
 Symmetry turned off by external request.
 Stoichiometry    CHF2O3S
 Rotational constants (GHZ):           3.4689194           2.0666523           1.7532483
 Leave Link  202 at Sat May 24 00:39:26 2025, MaxMem=  3758096384 cpu:               0.1 elap:               0.0
 (Enter /apps/easybuild-2022/easybuild/software/Compiler/NVHPC/22.11-CUDA-11.7.0/Gaussian/g16c01-CUDA-11.7.0/g16/l301.exe)
 Standard basis: def2TZVPP (5D, 7F)
 Ernie: Thresh=  0.10000D-02 Tol=  0.10000D-05 Strict=F.
   242 basis functions,   392 primitive gaussians,   279 cartesian basis functions
    33 alpha electrons       32 beta electrons
       nuclear repulsion energy       445.4487304563 Hartrees.
 IExCor= 4336 DFT=T Ex+Corr=M062X ExCW=0 ScaHFX=  0.540000
 ScaDFX=  1.000000  1.000000  1.000000  1.000000 ScalE2=  1.000000  1.000000
 IRadAn=      5 IRanWt=     -1 IRanGd=            0 ICorTp=0 IEmpDi=  4
 NAtoms=    8 NActive=    8 NUniq=    8 SFac= 1.00D+00 NAtFMM=   60 NAOKFM=F Big=F
 Integral buffers will be    131072 words long.
 Raffenetti 2 integral format.
 Two-electron integral symmetry is turned off.
 Leave Link  301 at Sat May 24 00:39:26 2025, MaxMem=  3758096384 cpu:               0.1 elap:               0.0
 (Enter /apps/easybuild-2022/easybuild/software/Compiler/NVHPC/22.11-CUDA-11.7.0/Gaussian/g16c01-CUDA-11.7.0/g16/l302.exe)
 NPDir=0 NMtPBC=     1 NCelOv=     1 NCel=       1 NClECP=     1 NCelD=      1
         NCelK=      1 NCelE2=     1 NClLst=     1 CellRange=     0.0.
 One-electron integrals computed using PRISM.
   1 Symmetry operations used in ECPInt.
 ECPInt:  NShTT=    3741 NPrTT=   12260 LenC2=    3637 LenP2D=    9304.
 LDataN:  DoStor=T MaxTD1= 6 Len=  172
 NBasis=   242 RedAO= T EigKep=  9.57D-04  NBF=   242
 NBsUse=   242 1.00D-06 EigRej= -1.00D+00 NBFU=   242
 Precomputing XC quadrature grid using
 IXCGrd= 4 IRadAn=           5 IRanWt=          -1 IRanGd=           0 AccXCQ= 0.00D+00.
 Generated NRdTot=       0 NPtTot=           0 NUsed=           0 NTot=          32
 NSgBfM=   276   276   276   276   276 MxSgAt=     8 MxSgA2=     8.
 Leave Link  302 at Sat May 24 00:39:26 2025, MaxMem=  3758096384 cpu:               0.6 elap:               0.1
 (Enter /apps/easybuild-2022/easybuild/software/Compiler/NVHPC/22.11-CUDA-11.7.0/Gaussian/g16c01-CUDA-11.7.0/g16/l303.exe)
 DipDrv:  MaxL=1.
 Leave Link  303 at Sat May 24 00:39:26 2025, MaxMem=  3758096384 cpu:               0.1 elap:               0.0
 (Enter /apps/easybuild-2022/easybuild/software/Compiler/NVHPC/22.11-CUDA-11.7.0/Gaussian/g16c01-CUDA-11.7.0/g16/l401.exe)
 Initial guess from the checkpoint file:  "/tmp/Gau-42543.chk"
 B after Tr=     0.029088    0.017239    0.005772
         Rot=    0.999792   -0.016883    0.011134   -0.002705 Ang=  -2.34 deg.
 Guess basis will be translated and rotated to current coordinates.
 JPrj=2 DoOrth=T DoCkMO=T.
 Initial guess <Sx>= 0.0000 <Sy>= 0.0000 <Sz>= 0.5000 <S**2>= 0.7539 S= 0.5019
 Generating alternative initial guess.
 ExpMin= 9.52D-02 ExpMax= 6.07D+04 ExpMxC= 2.07D+03 IAcc=3 IRadAn=         5 AccDes= 0.00D+00
 Harris functional with IExCor= 1009 and IRadAn=       5 diagonalized for initial guess.
 HarFok:  IExCor= 1009 AccDes= 0.00D+00 IRadAn=         5 IDoV= 1 UseB2=F ITyADJ=14
 ICtDFT=  3500011 ScaDFX=  1.000000  1.000000  1.000000  1.000000
 FoFCou: FMM=F IPFlag=           0 FMFlag=      100000 FMFlg1=           0
[...]
     21 -0.773763D-02 -0.123082D-01 -0.139897D-01  0.299000D-02 -0.944147D-02
     22 -0.415077D-02 -0.841637D-02 -0.880654D-02  0.674890D-02 -0.179468D-02
     23 -0.984949D-02 -0.582564D-02 -0.111967D-01 -0.130619D-01  0.821570D-02
     24  0.794271D-02 -0.564930D-02  0.580058D-03  0.948484D-02 -0.117382D-01
     25 -0.100462D-01 -0.157556D-02 -0.634558D-02 -0.351568D-02  0.655549D-02
     26  0.223445D-02  0.121385D-01  0.688258D-02 -0.995397D-02  0.156311D-02
                6             7             8             9            10 
      6  0.345786D+00
      7  0.628848D-02  0.523324D+00
      8 -0.867631D-03  0.406926D-03  0.134793D+00
      9 -0.946065D-03 -0.492593D-03 -0.880548D-01  0.152332D+00
     10 -0.305607D-02  0.268310D-03 -0.902740D-01 -0.213933D-01  0.154447D+00
     11 -0.133352D-01  0.214566D-02 -0.953907D-02  0.228530D-01 -0.499156D-02
     12 -0.144367D-01  0.726520D-03 -0.944171D-02 -0.605840D-02  0.240153D-01
     13  0.197120D-01  0.983381D-03  0.136019D-01 -0.150412D-01 -0.204262D-01
     14 -0.527473D-02  0.160514D-02  0.425689D-02 -0.363720D-02 -0.443975D-02
     15  0.377282D-02 -0.667479D-02  0.180965D-02 -0.665976D-03  0.128202D-02
     16  0.141223D-01  0.135867D-02  0.137547D-02 -0.171080D-03  0.931467D-03
     17  0.453213D-01  0.219525D-01  0.865486D-03 -0.269765D-02  0.846833D-03
     18  0.862662D-02 -0.321236D-02  0.125523D-01 -0.115770D-02 -0.282541D-02
     19 -0.173927D-01  0.809271D-03  0.463718D-02  0.602072D-02  0.487751D-02
     20  0.111855D-02  0.296856D-02  0.837094D-02 -0.249138D-02  0.607408D-02
     21  0.142096D-01 -0.360115D-02 -0.464165D-02 -0.437686D-02 -0.662066D-02
     22 -0.118097D-01  0.420477D-03 -0.125567D-01  0.280156D-02  0.108226D-02
     23  0.670151D-02  0.257977D-02 -0.882298D-02 -0.571055D-02  0.227883D-02
     24 -0.839817D-03 -0.158540D-03  0.866850D-04  0.106051D-01 -0.114369D-01
     25  0.386081D-02 -0.534471D-03  0.399899D-02 -0.794610D-02  0.277471D-02
     26 -0.346905D-02  0.154445D-02 -0.414150D-02 -0.249013D-02  0.686520D-02
               11            12            13            14            15 
     11  0.108366D+00
     12 -0.270509D-02  0.110929D+00
     13 -0.169520D-01 -0.177231D-01  0.167001D+00
     14 -0.347990D-01 -0.362843D-01  0.978638D-02  0.697419D-01
     15 -0.435298D-01 -0.584608D-02 -0.518981D-01 -0.101539D-01  0.100822D+00
     16 -0.600072D-02 -0.429994D-01 -0.510001D-01 -0.831778D-02 -0.298351D-02
     17 -0.458871D-03 -0.227072D-02  0.703053D-02  0.981888D-03 -0.174122D-01
     18 -0.131473D-01 -0.128287D-01 -0.208650D-02 -0.201751D-01  0.425058D-01
     19  0.170264D-01  0.171734D-01 -0.140233D-01  0.177128D-01 -0.474527D-02
     20  0.249865D-02  0.198575D-02 -0.806236D-02 -0.353678D-03 -0.313950D-01
     21 -0.173506D-01 -0.175690D-01  0.147340D-01 -0.181213D-01  0.390728D-01
     22  0.128231D-01  0.124330D-01  0.279722D-02  0.197666D-01 -0.817831D-02
     23 -0.170471D-02 -0.275457D-02  0.875814D-02  0.170013D-02 -0.348280D-01
     24  0.350458D-01 -0.364041D-01  0.392239D-02  0.895105D-03 -0.697627D-03
     25 -0.623127D-01 -0.233258D-01 -0.325518D-01  0.391074D-01  0.339182D-01
     26  0.227737D-01  0.634971D-01  0.364007D-01 -0.380973D-01 -0.300778D-01
               16            17            18            19            20 
     16  0.975886D-01
     17  0.136740D-01  0.147627D+00
     18  0.689790D-02 -0.581938D-02  0.364603D-01
     19 -0.377535D-01 -0.649278D-02 -0.700801D-02  0.391138D-01
     20  0.335940D-01  0.106535D-01 -0.482580D-02 -0.213711D-02  0.322906D-01
     21  0.398057D-02 -0.519888D-02  0.214788D-01 -0.256585D-01 -0.214813D-01
     22 -0.406708D-01 -0.587227D-02 -0.219894D-01  0.204633D-01 -0.187926D-01
     23  0.306767D-01  0.112740D-01 -0.198072D-01 -0.207876D-01  0.156351D-01
     24 -0.225843D-02 -0.264005D-02  0.431871D-02  0.452451D-02 -0.931058D-02
     25  0.282897D-01  0.114661D-02  0.427324D-02 -0.647569D-02  0.305669D-02
     26 -0.364418D-01  0.269141D-02 -0.828822D-02  0.413563D-02  0.149111D-02
               21            22            23            24            25 
     21  0.402583D-01
     22 -0.687910D-02  0.355736D-01
     23 -0.270186D-02 -0.368227D-02  0.327405D-01
     24  0.517733D-02  0.538313D-02 -0.845196D-02  0.276676D-01
     25  0.358331D-02 -0.716562D-02  0.236675D-02 -0.129405D-01  0.586414D-01
     26 -0.663501D-02  0.578884D-02  0.314432D-02 -0.117617D-01 -0.423445D-01
               26 
     26  0.607923D-01
 Leave Link  716 at Sat May 24 00:44:30 2025, MaxMem=  3758096384 cpu:               0.1 elap:               0.0
 (Enter /apps/easybuild-2022/easybuild/software/Compiler/NVHPC/22.11-CUDA-11.7.0/Gaussian/g16c01-CUDA-11.7.0/g16/l103.exe)

 GradGradGradGradGradGradGradGradGradGradGradGradGradGradGradGradGradGrad
 Berny optimization.
 Red2BG is reusing G-inverse.
 Internal  Forces:  Max     0.000000319 RMS     0.000000163
 Search for a local minimum.
 Step number   1 out of a maximum of    2
 All quantities printed in internal units (Hartrees-Bohrs-Radians)
 Second derivative matrix not updated -- analytic derivatives used.
 ITU=  0
     Eigenvalues ---    0.00319   0.00381   0.04466   0.11359   0.12975
     Eigenvalues ---    0.14043   0.17606   0.18040   0.19440   0.19753
     Eigenvalues ---    0.27529   0.29919   0.36640   0.43191   0.52529
     Eigenvalues ---    0.54658   0.75195   0.78336
 Angle between quadratic step and forces=  65.14 degrees.
 Linear search not attempted -- first point.
 Iteration  1 RMS(Cart)=  0.00000367 RMS(Int)=  0.00000000
 Iteration  2 RMS(Cart)=  0.00000000 RMS(Int)=  0.00000000
 ITry= 1 IFail=0 DXMaxC= 1.04D-05 DCOld= 1.00D+10 DXMaxT= 3.00D-01 DXLimC= 3.00D+00 Rises=F
 Variable       Old X    -DE/DX   Delta X   Delta X   Delta X     New X
                                 (Linear)    (Quad)   (Total)
    R1        2.46791   0.00000   0.00000   0.00000   0.00000   2.46791
    R2        2.47864  -0.00000   0.00000  -0.00000  -0.00000   2.47864
    R3        3.37571   0.00000   0.00000   0.00000   0.00000   3.37571
    R4        2.68197   0.00000   0.00000   0.00000   0.00000   2.68197
    R5        2.66720   0.00000   0.00000   0.00000   0.00000   2.66720
    R6        2.98984  -0.00000   0.00000  -0.00000  -0.00000   2.98984
    R7        1.82869  -0.00000   0.00000  -0.00000  -0.00000   1.82869
    A1        1.95531  -0.00000   0.00000  -0.00000  -0.00000   1.95531
    A2        2.01697  -0.00000   0.00000   0.00000   0.00000   2.01697
    A3        1.99852   0.00000   0.00000   0.00000   0.00000   1.99852
    A4        1.85760  -0.00000   0.00000  -0.00000  -0.00000   1.85760
    A5        1.85949  -0.00000   0.00000  -0.00000  -0.00000   1.85949
    A6        1.78359   0.00000   0.00000   0.00000   0.00000   1.78360
    A7        2.16401  -0.00000   0.00000  -0.00000  -0.00000   2.16401
    A8        1.89124  -0.00000   0.00000  -0.00000  -0.00000   1.89124
    A9        1.87173   0.00000   0.00000   0.00000   0.00000   1.87173
   A10        1.91451  -0.00000   0.00000  -0.00000  -0.00000   1.91451
    D1       -3.09728   0.00000   0.00000   0.00001   0.00001  -3.09727
    D2       -0.75724  -0.00000   0.00000   0.00000   0.00000  -0.75723
    D3        1.20391   0.00000   0.00000   0.00001   0.00001   1.20392
    D4        0.87408   0.00000   0.00000   0.00000   0.00000   0.87408
    D5       -3.06907  -0.00000   0.00000   0.00000   0.00000  -3.06907
    D6       -1.10792   0.00000   0.00000   0.00000   0.00000  -1.10792
    D7        1.66168   0.00000   0.00000   0.00000   0.00000   1.66168
    D8       -0.29530  -0.00000   0.00000   0.00000   0.00000  -0.29530
    D9       -2.66951   0.00000   0.00000   0.00000   0.00000  -2.66951
         Item               Value     Threshold  Converged?
 Maximum Force            0.000000     0.000015     YES
 RMS     Force            0.000000     0.000010     YES
 Maximum Displacement     0.000010     0.000060     YES
 RMS     Displacement     0.000004     0.000040     YES
 Predicted change in Energy=-2.254996D-12
 Optimization completed.
    -- Stationary point found.
                           ----------------------------
                           !   Optimized Parameters   !
                           ! (Angstroms and Degrees)  !
 --------------------------                            --------------------------
 ! Name  Definition              Value          Derivative Info.                !
 --------------------------------------------------------------------------------
 ! R1    R(1,2)                  1.306          -DE/DX =    0.0                 !
 ! R2    R(1,3)                  1.3116         -DE/DX =    0.0                 !
 ! R3    R(1,4)                  1.7863         -DE/DX =    0.0                 !
 ! R4    R(4,5)                  1.4192         -DE/DX =    0.0                 !
 ! R5    R(4,6)                  1.4114         -DE/DX =    0.0                 !
 ! R6    R(4,7)                  1.5822         -DE/DX =    0.0                 !
 ! R7    R(7,8)                  0.9677         -DE/DX =    0.0                 !
 ! A1    A(2,1,3)              112.0312         -DE/DX =    0.0                 !
 ! A2    A(2,1,4)              115.5641         -DE/DX =    0.0                 !
 ! A3    A(3,1,4)              114.5068         -DE/DX =    0.0                 !
 ! A4    A(1,4,5)              106.4328         -DE/DX =    0.0                 !
 ! A5    A(1,4,6)              106.5409         -DE/DX =    0.0                 !
 ! A6    A(1,4,7)              102.1924         -DE/DX =    0.0                 !
 ! A7    A(5,4,6)              123.9888         -DE/DX =    0.0                 !
 ! A8    A(5,4,7)              108.3602         -DE/DX =    0.0                 !
 ! A9    A(6,4,7)              107.2422         -DE/DX =    0.0                 !
 ! A10   A(4,7,8)              109.6936         -DE/DX =    0.0                 !
 ! D1    D(2,1,4,5)           -177.4609         -DE/DX =    0.0                 !
 ! D2    D(2,1,4,6)            -43.3864         -DE/DX =    0.0                 !
 ! D3    D(2,1,4,7)             68.9791         -DE/DX =    0.0                 !
 ! D4    D(3,1,4,5)             50.0809         -DE/DX =    0.0                 !
 ! D5    D(3,1,4,6)           -175.8446         -DE/DX =    0.0                 !
 ! D6    D(3,1,4,7)            -63.4791         -DE/DX =    0.0                 !
 ! D7    D(1,4,7,8)             95.207          -DE/DX =    0.0                 !
 ! D8    D(5,4,7,8)            -16.9194         -DE/DX =    0.0                 !
 ! D9    D(6,4,7,8)           -152.9518         -DE/DX =    0.0                 !
 --------------------------------------------------------------------------------
 GradGradGradGradGradGradGradGradGradGradGradGradGradGradGradGradGradGrad

 Leave Link  103 at Sat May 24 00:44:30 2025, MaxMem=  3758096384 cpu:               0.1 elap:               0.0
 (Enter /apps/easybuild-2022/easybuild/software/Compiler/NVHPC/22.11-CUDA-11.7.0/Gaussian/g16c01-CUDA-11.7.0/g16/l9999.exe)

 ----------------------------------------------------------------------

 Electric dipole moment (input orientation):
 (Debye = 10**-18 statcoulomb cm , SI units = C m)
                  (au)            (Debye)         (10**-30 SI)
   Tot        0.108426D+01      0.275591D+01      0.919272D+01
   x          0.895828D+00      0.227697D+01      0.759515D+01
   y          0.486371D+00      0.123623D+01      0.412363D+01
   z          0.369525D+00      0.939238D+00      0.313296D+01

 Dipole polarizability, Alpha (input orientation).
 (esu units = cm**3 , SI units = C**2 m**2 J**-1)
 Alpha(0;0):
               (au)            (10**-24 esu)      (10**-40 SI)
   iso        0.398366D+02      0.590318D+01      0.656817D+01
   aniso      0.601362D+01      0.891126D+00      0.991512D+00
   xx         0.418868D+02      0.620698D+01      0.690620D+01
   yx        -0.600072D+00     -0.889214D-01     -0.989384D-01
   yy         0.364240D+02      0.539748D+01      0.600551D+01
   zx        -0.827391D+00     -0.122607D+00     -0.136418D+00
   zy        -0.146874D+01     -0.217645D+00     -0.242163D+00
   zz         0.411991D+02      0.610507D+01      0.679281D+01

 ----------------------------------------------------------------------

 Dipole orientation:
     6         -0.53078339         -3.45435489          3.46253190
     9         -2.99052551         -3.28214559          3.35952991
     9          0.24893734         -4.33720858          5.64341911
    16          1.16610458         -0.75330684          2.35785204
     8          3.77022699         -1.37249661          2.52557440
     8         -0.03779317          0.03335866          0.11158140
     8          0.54544301          1.28398400          4.45626919
     1          1.88115933          1.30908950          5.70500601

 Electric dipole moment (dipole orientation):
 (Debye = 10**-18 statcoulomb cm , SI units = C m)
                  (au)            (Debye)         (10**-30 SI)
   Tot        0.108426D+01      0.275591D+01      0.919272D+01
   x          0.000000D+00      0.000000D+00      0.000000D+00
   y          0.000000D+00      0.000000D+00      0.000000D+00
   z          0.108426D+01      0.275591D+01      0.919272D+01

 Dipole polarizability, Alpha (dipole orientation).
 (esu units = cm**3 , SI units = C**2 m**2 J**-1)
 Alpha(0;0):
               (au)            (10**-24 esu)      (10**-40 SI)
   iso        0.398366D+02      0.590318D+01      0.656817D+01
   aniso      0.601362D+01      0.891126D+00      0.991512D+00
   xx         0.411631D+02      0.609974D+01      0.678687D+01
   yx         0.157479D+01      0.233360D+00      0.259648D+00
   yy         0.389989D+02      0.577905D+01      0.643006D+01
   zx         0.198499D+01      0.294145D+00      0.327280D+00
   zy        -0.206987D+01     -0.306722D+00     -0.341275D+00
   zz         0.393479D+02      0.583075D+01      0.648759D+01

 ----------------------------------------------------------------------
 Unable to Open any file for archive entry.
 1\1\GINC-SPARTAN-BM158\Freq\UM062X\def2TZVPP\C1H1F2O3S1\AKHALILOV\24-M
 ay-2025\0\\#P Geom=AllCheck Guess=TCheck SCRF=Check GenChk UM062X/def2
 TZVPP Freq\\Gaussian input prepared by ASE\\0,2\C,1.8812637719,-0.6540
 753142,1.676508768\F,1.1720880812,-0.2412800739,2.6924864922\F,3.16645
 74297,-0.6475102899,1.9384922076\S,1.4439845389,0.0503201562,0.0942152
 278\O,2.284342533,-0.5692655413,-0.8671128327\O,0.034088133,0.04701829
 03,0.0287286605\O,1.902215862,1.5555149984,0.2604189752\H,2.7914791154
 ,1.6678482894,-0.1043259137\\Version=ES64L-G16RevC.01\HF=-862.1936222\
 S2=0.753785\S2-1=0.\S2A=0.750011\RMSD=1.858e-09\RMSF=1.511e-06\ZeroPoi
 nt=0.0356083\Thermal=0.0425072\ETot=-862.1511149\HTot=-862.1501708\GTo
 t=-862.1904422\Dipole=0.8958283,0.4863715,0.3695248\DipoleDeriv=1.2721
 013,-0.2216696,-0.0585853,-0.1659805,0.1560121,0.2232214,-0.0956441,0.
 0744714,1.0973807,-0.4015591,0.0621705,0.2693033,0.1691694,-0.1162795,
 -0.2728467,0.3358779,-0.0365966,-0.903763,-0.9565551,0.2007123,-0.2885
 106,-0.0415785,-0.0866372,-0.0368992,-0.2649645,0.079729,-0.3945281,2.
 1980577,0.0663862,-0.0651909,0.1557981,2.2187463,0.1002568,-0.0658096,
 0.0470506,1.9914469,-0.7365959,0.1577903,0.2980383,0.0654143,-0.676711
 ,-0.169432,0.1897843,-0.1813078,-0.948794,-1.1259902,0.0087598,-0.1587
 95,0.0429971,-0.5249085,0.0154621,-0.0574927,0.0282372,-0.600802,-0.59
 13992,-0.4052007,0.0165614,-0.2862554,-1.3074862,0.1688077,-0.0370789,
 0.0412479,-0.5666566,0.3419406,0.1310513,-0.0128211,0.0604354,0.337264
 ,-0.0285702,-0.0046724,-0.0528316,0.3257162\Polar=41.8867865,-0.600071
 6,36.4240119,-0.8273914,-1.4687406,41.1990715\PG=Unknown\NImag=0\\0.56
 873402,-0.05310668,0.17430537,-0.00465391,0.08319180,0.54922207,-0.136
 76483,0.06227482,0.13261914,0.19952719,0.05828187,-0.07202736,-0.11980
 633,-0.07874343,0.05669101,0.12381772,-0.09366303,-0.30370283,-0.17820
 663,0.10090426,0.31800608,-0.37160086,-0.00821162,-0.10490659,-0.06362
 093,0.01874683,0.03200088,0.45555503,-0.02108390,-0.03074761,-0.021703
 38,0.01963328,0.00712979,0.00433123,-0.01611743,0.01918371,-0.08736313
 ,-0.00323904,-0.09615456,0.04242636,0.00214666,0.01458539,0.07583898,0
 .00316048,0.08594544,-0.03953187,-0.00323123,-0.03350307,-0.00759163,0
 .00523800,0.03216005,-0.03071340,0.01655586,-0.02960334,1.23484463,0.0
 2222843,-0.05287366,0.07261559,0.00207556,-0.00033422,-0.02846426,-0.0
 0905557,-0.00087602,-0.01016693,-0.10799748,0.60582395,-0.04873572,0.0
 0434286,-0.16075330,0.00284409,0.02060766,-0.01448890,0.01789755,0.015
 58564,0.00569224,-0.18585840,0.13836754,0.72543167,-0.00527956,0.00510
 676,-0.00220672,0.00237179,-0.00074098,0.00004961,0.00887722,-0.000747
 60,0.00253661,-0.30680420,0.14982527,0.23817009,0.29663959,0.00171133,
 0.00494045,0.00332384,-0.00026925,0.00163157,0.00338211,-0.00143165,-0
 .00032756,0.00092752,0.15400856,-0.20139494,-0.17326370,-0.17186102,0.
 20180110,0.02618257,-0.01736515,-0.00185129,0.00069884,0.00137056,-0.0
 1499784,-0.00672625,-0.00033203,-0.00251156,0.24898108,-0.17681709,-0.
 38471446,-0.27063185,0.20831880,0.38305660,-0.01820540,-0.00204429,0.0
 1731443,0.00570928,-0.00370240,-0.00881140,-0.00410960,0.00264643,-0.0
 0721671,-0.73279645,0.01159175,-0.03164980,-0.01020041,-0.00566324,-0.
 00684077,0.77783445,0.00831849,0.00663230,-0.00300755,-0.00078324,-0.0
 0006990,0.00347133,0.00336181,0.00036991,0.00434584,0.01186574,-0.0848
 5263,0.00289372,0.01871847,0.01537966,-0.00422077,0.00314815,0.0684459
 8,-0.01686556,-0.00064574,0.00983283,-0.00123957,-0.00057995,0.0004942
 4,-0.00947534,0.00257546,-0.00776703,-0.04093317,0.00439228,-0.1016055
 0,0.03249902,-0.00560173,0.01814085,0.03857956,0.00177511,0.06719002,-
 0.00045260,-0.00352005,-0.00607814,0.00039480,0.00145796,0.00000105,0.
 00805623,-0.00018703,0.00403553,-0.10204992,-0.05905590,0.00501454,0.0
 1440728,0.01677545,0.00639347,-0.02137281,-0.04342076,-0.00300460,0.53
 124228,-0.01564285,-0.02726321,-0.01495730,-0.00445217,0.00656106,0.01
 103347,0.01096873,0.00519647,0.00249108,-0.03406977,-0.25217384,-0.025
 28128,-0.00534199,-0.02603797,-0.01042414,-0.00375900,-0.00184825,-0.0
 0023690,0.11482149,0.33130919,0.00514715,0.02571133,0.00311941,0.00119
 240,-0.00447804,0.00010098,-0.00300637,-0.00289168,0.00048389,0.015449
 24,-0.00397527,-0.07494328,-0.00259020,-0.03575509,0.00726768,0.002987
 34,-0.00001500,0.01318937,-0.19223885,0.01797601,0.13076496,0.00310111
 ,0.00273229,0.00141487,-0.00002567,-0.00053787,-0.00101126,-0.00244370
 ,-0.00069962,-0.00065431,-0.01535716,-0.00961206,0.00231765,-0.0000117
 0,0.00672983,0.00194290,0.00314094,-0.00120867,0.00043966,-0.43022526,
 -0.06252444,0.17305930,0.44182143,-0.00070669,-0.00296629,0.00034333,0
 .00026443,0.00041806,-0.00099511,0.00173889,0.00007131,0.00033440,-0.0
 4236968,-0.01331864,0.01674756,0.00504108,0.00400769,-0.00053018,-0.00
 221740,-0.00405706,-0.00167853,-0.02687116,-0.03574345,0.00342774,0.06
 512053,0.05158838,0.00247088,0.00166698,0.00028768,-0.00033463,-0.0001
 6482,0.00000289,-0.00162287,-0.00072572,-0.00027379,-0.00669240,0.0040
 4814,0.00538154,0.00217345,-0.00133175,-0.00438998,-0.00436265,-0.0052
 4267,0.00052522,0.18587701,0.01939906,-0.07998300,-0.17750879,-0.01764
 922,0.07844946\\-0.00000004,0.00000029,0.00000019,-0.00000193,-0.00000
 103,-0.00000092,-0.00000019,0.00000233,0.00000173,0.00000097,-0.000001
 39,-0.00000095,0.00000321,0.00000079,0.00000087,0.00000130,-0.00000280
 ,-0.00000231,-0.00000203,0.00000008,0.00000023,-0.00000129,0.00000173,
 0.00000116\\\@
 The archive entry for this job was punched.


 HE WHO LOVES TO READ, AND KNOWS HOW TO REFLECT,
 HAS LAID BY A PERPETUAL FEAST FOR HIS OLD AGE.
 -- UNCLE ESEK, "SCRIBNER'S MONTHLY", SEPT. 1880
 Job cpu time:       0 days  0 hours 15 minutes 12.8 seconds.
 Elapsed time:       0 days  0 hours  1 minutes 58.8 seconds.
 File lengths (MBytes):  RWF=    101 Int=      0 D2E=      0 Chk=      7 Scr=      1
 Normal termination of Gaussian 16 at Sat May 24 00:44:30 2025.
done
