 Entering Gaussian System, Link 0=g16
 Initial command:
 /apps/easybuild-2022/easybuild/software/Compiler/NVHPC/22.11-CUDA-11.7.0/Gaussian/g16c01-CUDA-11.7.0/g16/l1.exe "/tmp/Gau-48714.inp" -scrdir="/tmp/"
 Entering Link 1 = /apps/easybuild-2022/easybuild/software/Compiler/NVHPC/22.11-CUDA-11.7.0/Gaussian/g16c01-CUDA-11.7.0/g16/l1.exe PID=     48715.
  
 Copyright (c) 1988-2019, Gaussian, Inc.  All Rights Reserved.
  
 This is part of the Gaussian(R) 16 program.  It is based on
 the Gaussian(R) 09 system (copyright 2009, Gaussian, Inc.),
 the Gaussian(R) 03 system (copyright 2003, Gaussian, Inc.),
 the Gaussian(R) 98 system (copyright 1998, Gaussian, Inc.),
 the Gaussian(R) 94 system (copyright 1995, Gaussian, Inc.),
 the Gaussian 92(TM) system (copyright 1992, Gaussian, Inc.),
 the Gaussian 90(TM) system (copyright 1990, Gaussian, Inc.),
 the Gaussian 88(TM) system (copyright 1988, Gaussian, Inc.),
 the Gaussian 86(TM) system (copyright 1986, Carnegie Mellon
 University), and the Gaussian 82(TM) system (copyright 1983,
 Carnegie Mellon University). Gaussian is a federally registered
 trademark of Gaussian, Inc.
  
 This software contains proprietary and confidential information,
 including trade secrets, belonging to Gaussian, Inc.
  
 This software is provided under written license and may be
 used, copied, transmitted, or stored only in accord with that
 written license.
  
 The following legend is applicable only to US Government
 contracts under FAR:
  
                    RESTRICTED RIGHTS LEGEND
  
 Use, reproduction and disclosure by the US Government is
 subject to restrictions as set forth in subparagraphs (a)
 and (c) of the Commercial Computer Software - Restricted
 Rights clause in FAR 52.227-19.
  
 Gaussian, Inc.
 340 Quinnipiac St., Bldg. 40, Wallingford CT 06492
  
  
 ---------------------------------------------------------------
 Warning -- This program may not be used in any manner that
 competes with the business of Gaussian, Inc. or will provide
 assistance to any competitor of Gaussian, Inc.  The licensee
 of this program is prohibited from giving any competitor of
 Gaussian, Inc. access to this program.  By using this program,
 the user acknowledges that Gaussian, Inc. is engaged in the
 business of creating and licensing software in the field of
 computational chemistry and represents and warrants to the
 licensee that it is not a competitor of Gaussian, Inc. and that
 it will not use this program in any manner prohibited above.
 ---------------------------------------------------------------
  

 Cite this work as:
 Gaussian 16, Revision C.01,
 M. J. Frisch, G. W. Trucks, H. B. Schlegel, G. E. Scuseria, 
 M. A. Robb, J. R. Cheeseman, G. Scalmani, V. Barone, 
 G. A. Petersson, H. Nakatsuji, X. Li, M. Caricato, A. V. Marenich, 
 J. Bloino, B. G. Janesko, R. Gomperts, B. Mennucci, H. P. Hratchian, 
 J. V. Ortiz, A. F. Izmaylov, J. L. Sonnenberg, D. Williams-Young, 
 F. Ding, F. Lipparini, F. Egidi, J. Goings, B. Peng, A. Petrone, 
 T. Henderson, D. Ranasinghe, V. G. Zakrzewski, J. Gao, N. Rega, 
 G. Zheng, W. Liang, M. Hada, M. Ehara, K. Toyota, R. Fukuda, 
 J. Hasegawa, M. Ishida, T. Nakajima, Y. Honda, O. Kitao, H. Nakai, 
 T. Vreven, K. Throssell, J. A. Montgomery, Jr., J. E. Peralta, 
 F. Ogliaro, M. J. Bearpark, J. J. Heyd, E. N. Brothers, K. N. Kudin, 
 V. N. Staroverov, T. A. Keith, R. Kobayashi, J. Normand, 
 K. Raghavachari, A. P. Rendell, J. C. Burant, S. S. Iyengar, 
 J. Tomasi, M. Cossi, J. M. Millam, M. Klene, C. Adamo, R. Cammi, 
 J. W. Ochterski, R. L. Martin, K. Morokuma, O. Farkas, 
 J. B. Foresman, and D. J. Fox, Gaussian, Inc., Wallingford CT, 2019.
 
 ******************************************
 Gaussian 16:  ES64L-G16RevC.01  3-Jul-2019
                24-May-2025 
 ******************************************
 %mem=28GB
 %nprocshared=8
 Will use up to    8 processors via shared memory.
 ----------------------------------------------------------------------
 #P M062X/Def2TZVPP Symm(None) scf(xqc) pop(None) freq opt(CalcFC, Tigh
 t)
 ----------------------------------------------------------------------
 1/7=10,10=4,18=20,19=15,26=3,38=1/1,3;
 2/9=110,12=2,15=3,17=6,18=5,40=1/2;
 3/5=44,7=202,11=2,25=1,30=1,71=2,74=-55,140=1/1,2,3;
 4//1;
 5/5=2,8=3,13=1,38=5/2,8;
 8/6=4,10=90,11=11/1;
 11/6=1,8=1,9=11,15=111,16=1,31=1/1,2,10;
 10/6=1,13=1,31=1/2;
 7/10=1,25=1,30=1/1,2,3,16;
 1/7=10,10=4,18=20,19=15,26=3/3(2);
 2/9=110,15=3/2;
 99//99;
 2/9=110,15=3/2;
 3/5=44,7=202,11=2,25=1,30=1,71=1,74=-55/1,2,3;
 4/5=5,16=3,69=1/1;
 5/5=2,8=3,13=1,38=5/2,8;
 7/30=1/1,2,3,16;
 1/7=10,18=20,19=15,26=3/3(-5);
 2/9=110,15=3/2;
 99/9=1/99;
 Leave Link    1 at Sat May 24 00:36:30 2025, MaxMem=  3758096384 cpu:               0.0 elap:               0.0
 (Enter /apps/easybuild-2022/easybuild/software/Compiler/NVHPC/22.11-CUDA-11.7.0/Gaussian/g16c01-CUDA-11.7.0/g16/l101.exe)
 ------------------------------
 Gaussian input prepared by ASE
 ------------------------------
 Symbolic Z-matrix:
 Charge =  0 Multiplicity = 2
 C                     1.92383  -0.56474   1.61784 
 F                     1.34512   0.05867   2.6163 
 F                     3.21177  -0.68635   1.79659 
 S                     1.41921   0.        0. 
 O                     2.20855  -0.7028   -0.93551 
 O                     0.        0.        0. 
 O                     1.91741   1.50172   0. 
 H                     2.21812   1.74536  -0.88694 
 
 ITRead=  0  0  0  0  0  0  0  0
 MicOpt= -1 -1 -1 -1 -1 -1 -1 -1
 NAtoms=      8 NQM=        8 NQMF=       0 NMMI=      0 NMMIF=      0
                NMic=       0 NMicF=      0.
                    Isotopes and Nuclear Properties:
 (Nuclear quadrupole moments (NQMom) in fm**2, nuclear magnetic moments (NMagM)
  in nuclear magnetons)

  Atom         1           2           3           4           5           6           7           8
 IAtWgt=          12          19          19          32          16          16          16           1
 AtmWgt=  12.0000000  18.9984032  18.9984032  31.9720718  15.9949146  15.9949146  15.9949146   1.0078250
 NucSpn=           0           1           1           0           0           0           0           1
 AtZEff=  -0.0000000  -0.0000000  -0.0000000  -0.0000000  -0.0000000  -0.0000000  -0.0000000  -0.0000000
 NQMom=    0.0000000   0.0000000   0.0000000   0.0000000   0.0000000   0.0000000   0.0000000   0.0000000
 NMagM=    0.0000000   2.6288670   2.6288670   0.0000000   0.0000000   0.0000000   0.0000000   2.7928460
 AtZNuc=   6.0000000   9.0000000   9.0000000  16.0000000   8.0000000   8.0000000   8.0000000   1.0000000
 Leave Link  101 at Sat May 24 00:36:30 2025, MaxMem=  3758096384 cpu:               0.2 elap:               0.2
 (Enter /apps/easybuild-2022/easybuild/software/Compiler/NVHPC/22.11-CUDA-11.7.0/Gaussian/g16c01-CUDA-11.7.0/g16/l103.exe)

 GradGradGradGradGradGradGradGradGradGradGradGradGradGradGradGradGradGrad
 Berny optimization.
 Initialization pass.
                           ----------------------------
                           !    Initial Parameters    !
                           ! (Angstroms and Degrees)  !
 --------------------------                            --------------------------
 ! Name  Definition              Value          Derivative Info.                !
 --------------------------------------------------------------------------------
 ! R1    R(1,2)                  1.3117         calculate D2E/DX2 analytically  !
 ! R2    R(1,3)                  1.306          calculate D2E/DX2 analytically  !
 ! R3    R(1,4)                  1.7863         calculate D2E/DX2 analytically  !
 ! R4    R(4,5)                  1.4114         calculate D2E/DX2 analytically  !
 ! R5    R(4,6)                  1.4192         calculate D2E/DX2 analytically  !
 ! R6    R(4,7)                  1.5822         calculate D2E/DX2 analytically  !
 ! R7    R(7,8)                  0.9677         calculate D2E/DX2 analytically  !
 ! A1    A(2,1,3)              112.0358         calculate D2E/DX2 analytically  !
 ! A2    A(2,1,4)              114.4892         calculate D2E/DX2 analytically  !
 ! A3    A(3,1,4)              115.5947         calculate D2E/DX2 analytically  !
 ! A4    A(1,4,5)              106.5519         calculate D2E/DX2 analytically  !
 ! A5    A(1,4,6)              106.4092         calculate D2E/DX2 analytically  !
 ! A6    A(1,4,7)              102.1874         calculate D2E/DX2 analytically  !
 ! A7    A(5,4,6)              124.0039         calculate D2E/DX2 analytically  !
 ! A8    A(5,4,7)              107.2477         calculate D2E/DX2 analytically  !
 ! A9    A(6,4,7)              108.3535         calculate D2E/DX2 analytically  !
 ! A10   A(4,7,8)              109.6827         calculate D2E/DX2 analytically  !
 ! D1    D(2,1,4,5)            175.6733         calculate D2E/DX2 analytically  !
 ! D2    D(2,1,4,6)            -50.2421         calculate D2E/DX2 analytically  !
 ! D3    D(2,1,4,7)             63.2999         calculate D2E/DX2 analytically  !
 ! D4    D(3,1,4,5)             43.1945         calculate D2E/DX2 analytically  !
 ! D5    D(3,1,4,6)            177.2791         calculate D2E/DX2 analytically  !
 ! D6    D(3,1,4,7)            -69.179          calculate D2E/DX2 analytically  !
 ! D7    D(1,4,7,8)            144.6636         calculate D2E/DX2 analytically  !
 ! D8    D(5,4,7,8)             32.8104         calculate D2E/DX2 analytically  !
 ! D9    D(6,4,7,8)           -103.241          calculate D2E/DX2 analytically  !
 --------------------------------------------------------------------------------
 Trust Radius=3.00D-01 FncErr=1.00D-07 GrdErr=1.00D-06 EigMax=2.50D+02 EigMin=1.00D-04
 Number of steps in this run=     36 maximum allowed number of steps=    100.
 GradGradGradGradGradGradGradGradGradGradGradGradGradGradGradGradGradGrad

 Leave Link  103 at Sat May 24 00:36:30 2025, MaxMem=  3758096384 cpu:               0.1 elap:               0.0
 (Enter /apps/easybuild-2022/easybuild/software/Compiler/NVHPC/22.11-CUDA-11.7.0/Gaussian/g16c01-CUDA-11.7.0/g16/l202.exe)
                          Input orientation:                          
 ---------------------------------------------------------------------
 Center     Atomic      Atomic             Coordinates (Angstroms)
 Number     Number       Type             X           Y           Z
 ---------------------------------------------------------------------
      1          6           0        1.923835   -0.564736    1.617835
      2          9           0        1.345122    0.058666    2.616295
      3          9           0        3.211765   -0.686353    1.796586
      4         16           0        1.419205    0.000000    0.000000
      5          8           0        2.208555   -0.702798   -0.935511
      6          8           0        0.000000    0.000000    0.000000
      7          8           0        1.917407    1.501722    0.000000
      8          1           0        2.218118    1.745359   -0.886935
 ---------------------------------------------------------------------
                    Distance matrix (angstroms):
                    1          2          3          4          5
     1  C    0.000000
     2  F    1.311664   0.000000
     3  F    1.305951   2.170560   0.000000
     4  S    1.786328   2.618001   2.629082   0.000000
     5  O    2.572878   3.733721   2.910508   1.411445   0.000000
     6  O    2.576326   2.942414   3.743559   1.419205   2.499364
     7  O    2.624440   3.042191   3.112998   1.582206   2.412438
     8  H    3.420090   3.984932   3.755242   2.114520   2.448658
                    6          7          8
     6  O    0.000000
     7  O    2.435492   0.000000
     8  H    2.958544   0.967698   0.000000
 Symmetry turned off by external request.
 Stoichiometry    CHF2O3S
 Rotational constants (GHZ):           3.4808487           2.0674456           1.7487304
 Leave Link  202 at Sat May 24 00:36:30 2025, MaxMem=  3758096384 cpu:               0.1 elap:               0.0
 (Enter /apps/easybuild-2022/easybuild/software/Compiler/NVHPC/22.11-CUDA-11.7.0/Gaussian/g16c01-CUDA-11.7.0/g16/l301.exe)
 Standard basis: def2TZVPP (5D, 7F)
 Ernie: Thresh=  0.10000D-02 Tol=  0.10000D-05 Strict=F.
   242 basis functions,   392 primitive gaussians,   279 cartesian basis functions
    33 alpha electrons       32 beta electrons
       nuclear repulsion energy       445.4914480814 Hartrees.
 IExCor= 4336 DFT=T Ex+Corr=M062X ExCW=0 ScaHFX=  0.540000
 ScaDFX=  1.000000  1.000000  1.000000  1.000000 ScalE2=  1.000000  1.000000
 IRadAn=      5 IRanWt=     -1 IRanGd=            0 ICorTp=0 IEmpDi=  4
 NAtoms=    8 NActive=    8 NUniq=    8 SFac= 1.00D+00 NAtFMM=   60 NAOKFM=F Big=F
 Integral buffers will be    131072 words long.
 Raffenetti 2 integral format.
 Two-electron integral symmetry is turned off.
 Leave Link  301 at Sat May 24 00:36:30 2025, MaxMem=  3758096384 cpu:               0.1 elap:               0.0
 (Enter /apps/easybuild-2022/easybuild/software/Compiler/NVHPC/22.11-CUDA-11.7.0/Gaussian/g16c01-CUDA-11.7.0/g16/l302.exe)
 NPDir=0 NMtPBC=     1 NCelOv=     1 NCel=       1 NClECP=     1 NCelD=      1
         NCelK=      1 NCelE2=     1 NClLst=     1 CellRange=     0.0.
 One-electron integrals computed using PRISM.
   1 Symmetry operations used in ECPInt.
 ECPInt:  NShTT=    3741 NPrTT=   12260 LenC2=    3635 LenP2D=    9269.
 LDataN:  DoStor=T MaxTD1= 6 Len=  172
 NBasis=   242 RedAO= T EigKep=  9.46D-04  NBF=   242
 NBsUse=   242 1.00D-06 EigRej= -1.00D+00 NBFU=   242
 Precomputing XC quadrature grid using
 IXCGrd= 4 IRadAn=           5 IRanWt=          -1 IRanGd=           0 AccXCQ= 0.00D+00.
 Generated NRdTot=       0 NPtTot=           0 NUsed=           0 NTot=          32
 NSgBfM=   276   276   276   276   276 MxSgAt=     8 MxSgA2=     8.
 Leave Link  302 at Sat May 24 00:36:30 2025, MaxMem=  3758096384 cpu:               0.7 elap:               0.1
 (Enter /apps/easybuild-2022/easybuild/software/Compiler/NVHPC/22.11-CUDA-11.7.0/Gaussian/g16c01-CUDA-11.7.0/g16/l303.exe)
 DipDrv:  MaxL=1.
 Leave Link  303 at Sat May 24 00:36:30 2025, MaxMem=  3758096384 cpu:               0.1 elap:               0.0
 (Enter /apps/easybuild-2022/easybuild/software/Compiler/NVHPC/22.11-CUDA-11.7.0/Gaussian/g16c01-CUDA-11.7.0/g16/l401.exe)
 ExpMin= 9.52D-02 ExpMax= 6.07D+04 ExpMxC= 2.07D+03 IAcc=3 IRadAn=         5 AccDes= 0.00D+00
 Harris functional with IExCor= 1009 and IRadAn=       5 diagonalized for initial guess.
 HarFok:  IExCor= 1009 AccDes= 0.00D+00 IRadAn=         5 IDoV= 1 UseB2=F ITyADJ=14
 ICtDFT=  3500011 ScaDFX=  1.000000  1.000000  1.000000  1.000000
 FoFCou: FMM=F IPFlag=           0 FMFlag=      100000 FMFlg1=           0
         NFxFlg=           0 DoJE=T BraDBF=F KetDBF=T FulRan=T
         wScrn=  0.000000 ICntrl=       500 IOpCl=  0 I1Cent=   200000004 NGrid=           0
         NMat0=    1 NMatS0=      1 NMatT0=    0 NMatD0=    1 NMtDS0=    0 NMtDT0=    0
 Symmetry not used in FoFCou.
 Harris En= -861.795824992795    
 JPrj=0 DoOrth=F DoCkMO=F.
 Initial guess <Sx>= 0.0000 <Sy>= 0.0000 <Sz>= 0.5000 <S**2>= 0.7500 S= 0.5000
 Leave Link  401 at Sat May 24 00:36:31 2025, MaxMem=  3758096384 cpu:               2.3 elap:               0.3
 (Enter /apps/easybuild-2022/easybuild/software/Compiler/NVHPC/22.11-CUDA-11.7.0/Gaussian/g16c01-CUDA-11.7.0/g16/l502.exe)
 Keep R1 and R2 ints in memory in canonical form, NReq=875542475.
 FoFCou: FMM=F IPFlag=           0 FMFlag=           0 FMFlg1=           0
         NFxFlg=           0 DoJE=F BraDBF=F KetDBF=F FulRan=T
         wScrn=  0.000000 ICntrl=       600 IOpCl=  0 I1Cent=           0 NGrid=           0
         NMat0=    1 NMatS0=  29403 NMatT0=    0 NMatD0=    1 NMtDS0=    0 NMtDT0=    0
 Symmetry not used in FoFCou.
 Two-electron integral symmetry not used.
 UHF open shell SCF:
 Using DIIS extrapolation, IDIIS=  1040.
 NGot=  3758096384 LenX=  2893370665 LenY=  2893292383
 Requested convergence on RMS density matrix=1.00D-08 within  32 cycles.
 Requested convergence on MAX density matrix=1.00D-06.
 Requested convergence on             energy=1.00D-06.
 No special actions if energy rises.
 Integral accuracy reduced to 1.0D-05 until final iterations.

 Cycle   1  Pass 0  IDiag  1:
 E= -861.929799649734    
 DIIS: error= 3.03D-02 at cycle   1 NSaved=   1.
 NSaved= 1 IEnMin= 1 EnMin= -861.929799649734     IErMin= 1 ErrMin= 3.03D-02
 ErrMax= 3.03D-02  0.00D+00 EMaxC= 1.00D-01 BMatC= 1.91D+00 BMatP= 1.91D+00
 IDIUse=3 WtCom= 6.97D-01 WtEn= 3.03D-01
 Coeff-Com:  0.100D+01
 Coeff-En:   0.100D+01
 Coeff:      0.100D+01
 Gap=     0.445 Goal=   None    Shift=    0.000
 Gap=     0.243 Goal=   None    Shift=    0.000
 GapD=    0.243 DampG=1.000 DampE=0.500 DampFc=0.5000 IDamp=-1.
 Damping current iteration by 5.00D-01
 RMSDP=3.23D-03 MaxDP=2.51D-01              OVMax= 2.21D-01

 Cycle   2  Pass 0  IDiag  1:
 E= -862.017981672195     Delta-E=       -0.088182022461 Rises=F Damp=T
 DIIS: error= 1.06D-02 at cycle   2 NSaved=   2.
 NSaved= 2 IEnMin= 2 EnMin= -862.017981672195     IErMin= 2 ErrMin= 1.06D-02
 ErrMax= 1.06D-02  0.00D+00 EMaxC= 1.00D-01 BMatC= 1.69D-01 BMatP= 1.91D+00
 IDIUse=3 WtCom= 8.94D-01 WtEn= 1.06D-01
 Coeff-Com:  0.110D+00 0.890D+00
 Coeff-En:   0.280D+00 0.720D+00
 Coeff:      0.128D+00 0.872D+00
 Gap=     0.471 Goal=   None    Shift=    0.000
 Gap=     0.327 Goal=   None    Shift=    0.000
 RMSDP=7.09D-04 MaxDP=4.74D-02 DE=-8.82D-02 OVMax= 1.45D-01

 Cycle   3  Pass 0  IDiag  1:
 E= -862.183144095609     Delta-E=       -0.165162423414 Rises=F Damp=F
 DIIS: error= 4.03D-03 at cycle   3 NSaved=   3.
 NSaved= 3 IEnMin= 3 EnMin= -862.183144095609     IErMin= 3 ErrMin= 4.03D-03
 ErrMax= 4.03D-03  0.00D+00 EMaxC= 1.00D-01 BMatC= 3.53D-02 BMatP= 1.69D-01
 IDIUse=3 WtCom= 9.60D-01 WtEn= 4.03D-02
 Coeff-Com: -0.369D-01 0.250D+00 0.787D+00
 Coeff-En:   0.000D+00 0.000D+00 0.100D+01
 Coeff:     -0.354D-01 0.240D+00 0.796D+00
 Gap=     0.376 Goal=   None    Shift=    0.000
 Gap=     0.327 Goal=   None    Shift=    0.000
 RMSDP=3.42D-04 MaxDP=1.83D-02 DE=-1.65D-01 OVMax= 2.41D-02

 Cycle   4  Pass 0  IDiag  1:
 E= -862.187829205981     Delta-E=       -0.004685110372 Rises=F Damp=F
 DIIS: error= 2.69D-03 at cycle   4 NSaved=   4.
 NSaved= 4 IEnMin= 4 EnMin= -862.187829205981     IErMin= 4 ErrMin= 2.69D-03
 ErrMax= 2.69D-03  0.00D+00 EMaxC= 1.00D-01 BMatC= 1.23D-02 BMatP= 3.53D-02
 IDIUse=3 WtCom= 9.73D-01 WtEn= 2.69D-02
 Coeff-Com: -0.278D-01 0.628D-01 0.424D+00 0.541D+00
 Coeff-En:   0.000D+00 0.000D+00 0.177D+00 0.823D+00
 Coeff:     -0.270D-01 0.611D-01 0.417D+00 0.549D+00
 Gap=     0.379 Goal=   None    Shift=    0.000
 Gap=     0.327 Goal=   None    Shift=    0.000
 RMSDP=1.26D-04 MaxDP=6.08D-03 DE=-4.69D-03 OVMax= 1.01D-02

 Cycle   5  Pass 0  IDiag  1:
 E= -862.189895367788     Delta-E=       -0.002066161806 Rises=F Damp=F
 DIIS: error= 6.85D-04 at cycle   5 NSaved=   5.
 NSaved= 5 IEnMin= 5 EnMin= -862.189895367788     IErMin= 5 ErrMin= 6.85D-04
 ErrMax= 6.85D-04  0.00D+00 EMaxC= 1.00D-01 BMatC= 4.26D-04 BMatP= 1.23D-02
 IDIUse=3 WtCom= 9.93D-01 WtEn= 6.85D-03
 Coeff-Com: -0.350D-02-0.150D-02 0.421D-01 0.159D+00 0.803D+00
 Coeff-En:   0.000D+00 0.000D+00 0.000D+00 0.000D+00 0.100D+01
 Coeff:     -0.348D-02-0.149D-02 0.418D-01 0.158D+00 0.805D+00
 Gap=     0.377 Goal=   None    Shift=    0.000
 Gap=     0.329 Goal=   None    Shift=    0.000
 RMSDP=4.39D-05 MaxDP=1.75D-03 DE=-2.07D-03 OVMax= 5.51D-03

 Cycle   6  Pass 0  IDiag  1:
 E= -862.190046252556     Delta-E=       -0.000150884768 Rises=F Damp=F
 DIIS: error= 2.21D-04 at cycle   6 NSaved=   6.
 NSaved= 6 IEnMin= 6 EnMin= -862.190046252556     IErMin= 6 ErrMin= 2.21D-04
 ErrMax= 2.21D-04  0.00D+00 EMaxC= 1.00D-01 BMatC= 8.42D-05 BMatP= 4.26D-04
 IDIUse=3 WtCom= 9.98D-01 WtEn= 2.21D-03
 Coeff-Com:  0.234D-02-0.819D-02-0.529D-01-0.429D-01 0.192D+00 0.910D+00
 Coeff-En:   0.000D+00 0.000D+00 0.000D+00 0.000D+00 0.000D+00 0.100D+01
 Coeff:      0.234D-02-0.817D-02-0.528D-01-0.428D-01 0.191D+00 0.910D+00
 Gap=     0.379 Goal=   None    Shift=    0.000
 Gap=     0.331 Goal=   None    Shift=    0.000
 RMSDP=3.07D-05 MaxDP=1.58D-03 DE=-1.51D-04 OVMax= 4.02D-03

 Cycle   7  Pass 0  IDiag  1:
 E= -862.190090655345     Delta-E=       -0.000044402790 Rises=F Damp=F
 DIIS: error= 1.35D-04 at cycle   7 NSaved=   7.
 NSaved= 7 IEnMin= 7 EnMin= -862.190090655345     IErMin= 7 ErrMin= 1.35D-04
 ErrMax= 1.35D-04  0.00D+00 EMaxC= 1.00D-01 BMatC= 3.24D-05 BMatP= 8.42D-05
 IDIUse=3 WtCom= 9.99D-01 WtEn= 1.35D-03
 Coeff-Com:  0.215D-02-0.348D-02-0.418D-01-0.700D-01-0.127D+00 0.471D+00
 Coeff-Com:  0.769D+00
 Coeff-En:   0.000D+00 0.000D+00 0.000D+00 0.000D+00 0.000D+00 0.000D+00
 Coeff-En:   0.100D+01
 Coeff:      0.215D-02-0.347D-02-0.418D-01-0.699D-01-0.126D+00 0.470D+00
 Coeff:      0.769D+00
 Gap=     0.380 Goal=   None    Shift=    0.000
 Gap=     0.331 Goal=   None    Shift=    0.000
 RMSDP=1.74D-05 MaxDP=8.82D-04 DE=-4.44D-05 OVMax= 2.63D-03

 Cycle   8  Pass 0  IDiag  1:
 E= -862.190104374689     Delta-E=       -0.000013719344 Rises=F Damp=F
 DIIS: error= 4.44D-05 at cycle   8 NSaved=   8.
 NSaved= 8 IEnMin= 8 EnMin= -862.190104374689     IErMin= 8 ErrMin= 4.44D-05
 ErrMax= 4.44D-05  0.00D+00 EMaxC= 1.00D-01 BMatC= 5.14D-06 BMatP= 3.24D-05
 IDIUse=1 WtCom= 1.00D+00 WtEn= 0.00D+00
 Coeff-Com:  0.495D-03 0.196D-03-0.720D-02-0.207D-01-0.891D-01 0.299D-01
 Coeff-Com:  0.331D+00 0.756D+00
 Coeff:      0.495D-03 0.196D-03-0.720D-02-0.207D-01-0.891D-01 0.299D-01
 Coeff:      0.331D+00 0.756D+00
 Gap=     0.380 Goal=   None    Shift=    0.000
 Gap=     0.331 Goal=   None    Shift=    0.000
 RMSDP=5.98D-06 MaxDP=3.18D-04 DE=-1.37D-05 OVMax= 1.02D-03

 Initial convergence to 1.0D-05 achieved.  Increase integral accuracy.
 Cycle   9  Pass 1  IDiag  1:
 E= -862.190101433940     Delta-E=        0.000002940749 Rises=F Damp=F
 DIIS: error= 3.44D-05 at cycle   1 NSaved=   1.
 NSaved= 1 IEnMin= 1 EnMin= -862.190101433940     IErMin= 1 ErrMin= 3.44D-05
 ErrMax= 3.44D-05  0.00D+00 EMaxC= 1.00D-01 BMatC= 2.71D-06 BMatP= 2.71D-06
 IDIUse=1 WtCom= 1.00D+00 WtEn= 0.00D+00
 Coeff-Com:  0.100D+01
 Coeff:      0.100D+01
 Gap=     0.380 Goal=   None    Shift=    0.000
 Gap=     0.331 Goal=   None    Shift=    0.000
 RMSDP=5.98D-06 MaxDP=3.18D-04 DE= 2.94D-06 OVMax= 3.41D-04

 Cycle  10  Pass 1  IDiag  1:
 E= -862.190101922778     Delta-E=       -0.000000488838 Rises=F Damp=F
 DIIS: error= 2.13D-05 at cycle   2 NSaved=   2.
 NSaved= 2 IEnMin= 2 EnMin= -862.190101922778     IErMin= 2 ErrMin= 2.13D-05
 ErrMax= 2.13D-05  0.00D+00 EMaxC= 1.00D-01 BMatC= 1.05D-06 BMatP= 2.71D-06
 IDIUse=1 WtCom= 1.00D+00 WtEn= 0.00D+00
 Coeff-Com:  0.325D+00 0.675D+00
 Coeff:      0.325D+00 0.675D+00
 Gap=     0.380 Goal=   None    Shift=    0.000
 Gap=     0.331 Goal=   None    Shift=    0.000
 RMSDP=1.81D-06 MaxDP=7.40D-05 DE=-4.89D-07 OVMax= 1.64D-04

 Cycle  11  Pass 1  IDiag  1:
 E= -862.190102049473     Delta-E=       -0.000000126695 Rises=F Damp=F
 DIIS: error= 1.43D-05 at cycle   3 NSaved=   3.
 NSaved= 3 IEnMin= 3 EnMin= -862.190102049473     IErMin= 3 ErrMin= 1.43D-05
 ErrMax= 1.43D-05  0.00D+00 EMaxC= 1.00D-01 BMatC= 4.60D-07 BMatP= 1.05D-06
 IDIUse=1 WtCom= 1.00D+00 WtEn= 0.00D+00
 Coeff-Com: -0.558D-01 0.392D+00 0.664D+00
 Coeff:     -0.558D-01 0.392D+00 0.664D+00
 Gap=     0.380 Goal=   None    Shift=    0.000
 Gap=     0.331 Goal=   None    Shift=    0.000
 RMSDP=9.98D-07 MaxDP=3.45D-05 DE=-1.27D-07 OVMax= 1.02D-04

 Cycle  12  Pass 1  IDiag  1:
 E= -862.190102136036     Delta-E=       -0.000000086562 Rises=F Damp=F
 DIIS: error= 3.59D-06 at cycle   4 NSaved=   4.
 NSaved= 4 IEnMin= 4 EnMin= -862.190102136036     IErMin= 4 ErrMin= 3.59D-06
 ErrMax= 3.59D-06  0.00D+00 EMaxC= 1.00D-01 BMatC= 1.68D-08 BMatP= 4.60D-07
 IDIUse=1 WtCom= 1.00D+00 WtEn= 0.00D+00
 Coeff-Com: -0.342D-01 0.104D+00 0.214D+00 0.716D+00
 Coeff:     -0.342D-01 0.104D+00 0.214D+00 0.716D+00
 Gap=     0.380 Goal=   None    Shift=    0.000
 Gap=     0.331 Goal=   None    Shift=    0.000
 RMSDP=2.82D-07 MaxDP=1.22D-05 DE=-8.66D-08 OVMax= 4.70D-05

 Cycle  13  Pass 1  IDiag  1:
 E= -862.190102141690     Delta-E=       -0.000000005655 Rises=F Damp=F
 DIIS: error= 2.16D-06 at cycle   5 NSaved=   5.
 NSaved= 5 IEnMin= 5 EnMin= -862.190102141690     IErMin= 5 ErrMin= 2.16D-06
 ErrMax= 2.16D-06  0.00D+00 EMaxC= 1.00D-01 BMatC= 5.28D-09 BMatP= 1.68D-08
 IDIUse=1 WtCom= 1.00D+00 WtEn= 0.00D+00
 Coeff-Com:  0.885D-02-0.111D+00-0.185D+00 0.294D+00 0.994D+00
 Coeff:      0.885D-02-0.111D+00-0.185D+00 0.294D+00 0.994D+00
 Gap=     0.380 Goal=   None    Shift=    0.000
 Gap=     0.331 Goal=   None    Shift=    0.000
 RMSDP=2.65D-07 MaxDP=1.43D-05 DE=-5.65D-09 OVMax= 5.75D-05

 Cycle  14  Pass 1  IDiag  1:
 E= -862.190102144802     Delta-E=       -0.000000003112 Rises=F Damp=F
 DIIS: error= 4.60D-07 at cycle   6 NSaved=   6.
 NSaved= 6 IEnMin= 6 EnMin= -862.190102144802     IErMin= 6 ErrMin= 4.60D-07
 ErrMax= 4.60D-07  0.00D+00 EMaxC= 1.00D-01 BMatC= 5.99D-10 BMatP= 5.28D-09
 IDIUse=1 WtCom= 1.00D+00 WtEn= 0.00D+00
 Coeff-Com:  0.645D-02-0.477D-01-0.837D-01-0.421D-02 0.322D+00 0.807D+00
 Coeff:      0.645D-02-0.477D-01-0.837D-01-0.421D-02 0.322D+00 0.807D+00
 Gap=     0.380 Goal=   None    Shift=    0.000
 Gap=     0.331 Goal=   None    Shift=    0.000
 RMSDP=8.13D-08 MaxDP=4.05D-06 DE=-3.11D-09 OVMax= 1.52D-05

 Cycle  15  Pass 1  IDiag  1:
 E= -862.190102145090     Delta-E=       -0.000000000288 Rises=F Damp=F
 DIIS: error= 3.30D-07 at cycle   7 NSaved=   7.
 NSaved= 7 IEnMin= 7 EnMin= -862.190102145090     IErMin= 7 ErrMin= 3.30D-07
 ErrMax= 3.30D-07  0.00D+00 EMaxC= 1.00D-01 BMatC= 1.50D-10 BMatP= 5.99D-10
 IDIUse=1 WtCom= 1.00D+00 WtEn= 0.00D+00
 Coeff-Com:  0.742D-03 0.474D-02 0.576D-02-0.700D-01-0.750D-01 0.357D+00
 Coeff-Com:  0.777D+00
 Coeff:      0.742D-03 0.474D-02 0.576D-02-0.700D-01-0.750D-01 0.357D+00
 Coeff:      0.777D+00
 Gap=     0.380 Goal=   None    Shift=    0.000
 Gap=     0.331 Goal=   None    Shift=    0.000
 RMSDP=3.71D-08 MaxDP=1.72D-06 DE=-2.88D-10 OVMax= 6.39D-06

 Cycle  16  Pass 1  IDiag  1:
 E= -862.190102145160     Delta-E=       -0.000000000070 Rises=F Damp=F
 DIIS: error= 1.08D-07 at cycle   8 NSaved=   8.
 NSaved= 8 IEnMin= 8 EnMin= -862.190102145160     IErMin= 8 ErrMin= 1.08D-07
 ErrMax= 1.08D-07  0.00D+00 EMaxC= 1.00D-01 BMatC= 2.53D-11 BMatP= 1.50D-10
 IDIUse=1 WtCom= 1.00D+00 WtEn= 0.00D+00
 Coeff-Com: -0.699D-03 0.102D-01 0.164D-01-0.296D-01-0.864D-01 0.177D-01
 Coeff-Com:  0.355D+00 0.718D+00
 Coeff:     -0.699D-03 0.102D-01 0.164D-01-0.296D-01-0.864D-01 0.177D-01
 Coeff:      0.355D+00 0.718D+00
 Gap=     0.380 Goal=   None    Shift=    0.000
 Gap=     0.331 Goal=   None    Shift=    0.000
 RMSDP=1.32D-08 MaxDP=8.99D-07 DE=-6.98D-11 OVMax= 1.73D-06

 Cycle  17  Pass 1  IDiag  1:
 E= -862.190102145129     Delta-E=        0.000000000031 Rises=F Damp=F
 DIIS: error= 4.09D-08 at cycle   9 NSaved=   9.
 NSaved= 9 IEnMin= 8 EnMin= -862.190102145160     IErMin= 9 ErrMin= 4.09D-08
 ErrMax= 4.09D-08  0.00D+00 EMaxC= 1.00D-01 BMatC= 2.25D-12 BMatP= 2.53D-11
 IDIUse=1 WtCom= 1.00D+00 WtEn= 0.00D+00
 Coeff-Com: -0.334D-03 0.332D-02 0.536D-02-0.300D-02-0.240D-01-0.374D-01
 Coeff-Com:  0.438D-01 0.263D+00 0.749D+00
 Coeff:     -0.334D-03 0.332D-02 0.536D-02-0.300D-02-0.240D-01-0.374D-01
 Coeff:      0.438D-01 0.263D+00 0.749D+00
 Gap=     0.380 Goal=   None    Shift=    0.000
 Gap=     0.331 Goal=   None    Shift=    0.000
 RMSDP=4.74D-09 MaxDP=4.35D-07 DE= 3.07D-11 OVMax= 5.25D-07

 SCF Done:  E(UM062X) =  -862.190102145     A.U. after   17 cycles
            NFock= 17  Conv=0.47D-08     -V/T= 2.0026
 <Sx>= 0.0000 <Sy>= 0.0000 <Sz>= 0.5000 <S**2>= 0.7537 S= 0.5018
 <L.S>=  0.00000000000    
 KE= 8.599883074384D+02 PE=-2.935086186851D+03 EE= 7.674163291861D+02
 Annihilation of the first spin contaminant:
 S**2 before annihilation     0.7537,   after     0.7500
 Leave Link  502 at Sat May 24 00:36:53 2025, MaxMem=  3758096384 cpu:              93.1 elap:              22.1
 (Enter /apps/easybuild-2022/easybuild/software/Compiler/NVHPC/22.11-CUDA-11.7.0/Gaussian/g16c01-CUDA-11.7.0/g16/l508.exe)
 QCSCF skips out because SCF is already converged.
 Leave Link  508 at Sat May 24 00:36:53 2025, MaxMem=  3758096384 cpu:               0.1 elap:               0.0
 (Enter /apps/easybuild-2022/easybuild/software/Compiler/NVHPC/22.11-CUDA-11.7.0/Gaussian/g16c01-CUDA-11.7.0/g16/l801.exe)
 DoSCS=F DFT=T ScalE2(SS,OS)=  1.000000  1.000000
 Range of M.O.s used for correlation:     1   242
 NBasis=   242 NAE=    33 NBE=    32 NFC=     0 NFV=     0
 NROrb=    242 NOA=    33 NOB=    32 NVA=   209 NVB=   210

 **** Warning!!: The largest alpha MO coefficient is  0.11177931D+02


 **** Warning!!: The largest beta MO coefficient is  0.10508707D+02

 Leave Link  801 at Sat May 24 00:36:53 2025, MaxMem=  3758096384 cpu:               0.1 elap:               0.0
 (Enter /apps/easybuild-2022/easybuild/software/Compiler/NVHPC/22.11-CUDA-11.7.0/Gaussian/g16c01-CUDA-11.7.0/g16/l1101.exe)
 Using compressed storage, NAtomX=     8.
 Will process      9 centers per pass.
   1 Symmetry operations used in ECPInt.
 ECPInt:  NShTT=    3741 NPrTT=   12260 LenC2=    3635 LenP2D=    9269.
 LDataN:  DoStor=T MaxTD1= 7 Len=  274
 Leave Link 1101 at Sat May 24 00:36:53 2025, MaxMem=  3758096384 cpu:               1.0 elap:               0.2
 (Enter /apps/easybuild-2022/easybuild/software/Compiler/NVHPC/22.11-CUDA-11.7.0/Gaussian/g16c01-CUDA-11.7.0/g16/l1102.exe)
 Symmetrizing basis deriv contribution to polar:
 IMax=3 JMax=2 DiffMx= 0.00D+00
 Leave Link 1102 at Sat May 24 00:36:53 2025, MaxMem=  3758096384 cpu:               0.1 elap:               0.0
 (Enter /apps/easybuild-2022/easybuild/software/Compiler/NVHPC/22.11-CUDA-11.7.0/Gaussian/g16c01-CUDA-11.7.0/g16/l1110.exe)
 Forming Gx(P) for the SCF density, NAtomX=     8.
 Integral derivatives from FoFJK, PRISM(SPDF).
 Do as many integral derivatives as possible in FoFJK.
 G2DrvN: MDV=    3758095424.
 G2DrvN: will do     9 centers at a time, making    1 passes.
 Calling FoFCou, ICntrl=  3107 FMM=F I1Cent=   0 AccDes= 0.00D+00.
 FoFJK:  IHMeth= 1 ICntrl=    3107 DoSepK=F KAlg= 0 I1Cent=           0 FoldK=F
 IRaf=         0 NMat=       1 IRICut=       1 DoRegI=T DoRafI=F ISym2E= 0 IDoP0=0 IntGTp=1.
 FoFCou: FMM=F IPFlag=           0 FMFlag=      100000 FMFlg1=           0
         NFxFlg=           0 DoJE=F BraDBF=F KetDBF=F FulRan=T
         wScrn=  0.000000 ICntrl=      3107 IOpCl=  1 I1Cent=           0 NGrid=           0
         NMat0=    1 NMatS0=      1 NMatT0=    0 NMatD0=    1 NMtDS0=    0 NMtDT0=    0
 Symmetry not used in FoFCou.
 End of G2Drv F.D. properties file   721 does not exist.
 End of G2Drv F.D. properties file   722 does not exist.
 End of G2Drv F.D. properties file   788 does not exist.
 Leave Link 1110 at Sat May 24 00:37:17 2025, MaxMem=  3758096384 cpu:             184.3 elap:              23.4
 (Enter /apps/easybuild-2022/easybuild/software/Compiler/NVHPC/22.11-CUDA-11.7.0/Gaussian/g16c01-CUDA-11.7.0/g16/l1002.exe)
 Minotr:  UHF open shell wavefunction.
          IDoAtm=11111111
          Direct CPHF calculation.
          Differentiating once with respect to nuclear coordinates.
          Requested convergence is 1.0D-08 RMS, and 1.0D-07 maximum.
          Secondary convergence is 1.0D-12 RMS, and 1.0D-12 maximum.
          NewPWx=T KeepS1=F KeepF1=F KeepIn=T MapXYZ=F SortEE=F KeepMc=T.
         2378 words used for storage of precomputed grid.
 Keep R1 and R2 ints in memory in canonical form, NReq=875546697.
 FoFCou: FMM=F IPFlag=           0 FMFlag=           0 FMFlg1=           0
         NFxFlg=           0 DoJE=F BraDBF=F KetDBF=F FulRan=T
         wScrn=  0.000000 ICntrl=       600 IOpCl=  0 I1Cent=           0 NGrid=           0
         NMat0=    1 NMatS0=  29403 NMatT0=    0 NMatD0=    1 NMtDS0=    0 NMtDT0=    0
 Symmetry not used in FoFCou.
 Two-electron integral symmetry not used.
          MDV=    3758096384 using IRadAn=       1.
          Solving linear equations simultaneously, MaxMat=       0.
          There are    27 degrees of freedom in the 1st order CPHF.  IDoFFX=6 NUNeed=     0.
     21 vectors produced by pass  0 Test12= 5.04D-14 3.70D-09 XBig12= 3.90D-01 1.57D-01.
 AX will form    21 AO Fock derivatives at one time.
     21 vectors produced by pass  1 Test12= 5.04D-14 3.70D-09 XBig12= 4.02D-02 5.51D-02.
     21 vectors produced by pass  2 Test12= 5.04D-14 3.70D-09 XBig12= 3.07D-03 1.47D-02.
     21 vectors produced by pass  3 Test12= 5.04D-14 3.70D-09 XBig12= 1.18D-04 3.73D-03.
     21 vectors produced by pass  4 Test12= 5.04D-14 3.70D-09 XBig12= 2.30D-06 2.66D-04.
     21 vectors produced by pass  5 Test12= 5.04D-14 3.70D-09 XBig12= 5.05D-08 2.95D-05.
     21 vectors produced by pass  6 Test12= 5.04D-14 3.70D-09 XBig12= 1.07D-09 4.64D-06.
     21 vectors produced by pass  7 Test12= 5.04D-14 3.70D-09 XBig12= 1.48D-11 4.43D-07.
     10 vectors produced by pass  8 Test12= 5.04D-14 3.70D-09 XBig12= 1.64D-13 5.93D-08.
      2 vectors produced by pass  9 Test12= 5.04D-14 3.70D-09 XBig12= 2.06D-15 5.52D-09.
 InvSVY:  IOpt=1 It=  1 EMax= 1.11D-15
 Solved reduced A of dimension   180 with    21 vectors.
 End of Minotr F.D. properties file   721 does not exist.
 End of Minotr F.D. properties file   722 does not exist.
 End of Minotr F.D. properties file   788 does not exist.
 Leave Link 1002 at Sat May 24 00:37:56 2025, MaxMem=  3758096384 cpu:             301.3 elap:              38.9
 (Enter /apps/easybuild-2022/easybuild/software/Compiler/NVHPC/22.11-CUDA-11.7.0/Gaussian/g16c01-CUDA-11.7.0/g16/l701.exe)
 ... and contract with generalized density number  0.
 Compute integral second derivatives.
   1 Symmetry operations used in ECPInt.
 ECPInt:  NShTT=    3741 NPrTT=   12260 LenC2=    3635 LenP2D=    9269.
 LDataN:  DoStor=T MaxTD1= 8 Len=  415
 Leave Link  701 at Sat May 24 00:37:56 2025, MaxMem=  3758096384 cpu:               1.0 elap:               0.2
 (Enter /apps/easybuild-2022/easybuild/software/Compiler/NVHPC/22.11-CUDA-11.7.0/Gaussian/g16c01-CUDA-11.7.0/g16/l702.exe)
 L702 exits ... SP integral derivatives will be done elsewhere.
 Leave Link  702 at Sat May 24 00:37:56 2025, MaxMem=  3758096384 cpu:               0.1 elap:               0.0
 (Enter /apps/easybuild-2022/easybuild/software/Compiler/NVHPC/22.11-CUDA-11.7.0/Gaussian/g16c01-CUDA-11.7.0/g16/l703.exe)
 Integral derivatives from FoFJK, PRISM(SPDF).
 Compute integral second derivatives, UseDBF=F ICtDFT=           0.
 Calling FoFJK, ICntrl=    100127 FMM=F ISym2X=0 I1Cent= 0 IOpClX= 1 NMat=1 NMatS=1 NMatT=0.
 FoFJK:  IHMeth= 1 ICntrl=  100127 DoSepK=F KAlg= 0 I1Cent=           0 FoldK=F
 IRaf=         0 NMat=       1 IRICut=       1 DoRegI=T DoRafI=F ISym2E= 0 IDoP0=0 IntGTp=1.
 FoFCou: FMM=F IPFlag=           0 FMFlag=      100000 FMFlg1=         800
         NFxFlg=           0 DoJE=F BraDBF=F KetDBF=F FulRan=T
         wScrn=  0.000000 ICntrl=    100127 IOpCl=  1 I1Cent=           0 NGrid=           0
         NMat0=    1 NMatS0=      1 NMatT0=    0 NMatD0=    1 NMtDS0=    0 NMtDT0=    0
 Symmetry not used in FoFCou.
 Leave Link  703 at Sat May 24 00:38:37 2025, MaxMem=  3758096384 cpu:             325.5 elap:              41.2
 (Enter /apps/easybuild-2022/easybuild/software/Compiler/NVHPC/22.11-CUDA-11.7.0/Gaussian/g16c01-CUDA-11.7.0/g16/l716.exe)
 Dipole        = 5.94005498D-01 5.84232333D-01 1.25004875D-02
 Polarizability= 0.00000000D+00 0.00000000D+00 0.00000000D+00
                 0.00000000D+00 0.00000000D+00 0.00000000D+00
 -------------------------------------------------------------------
 Center     Atomic                   Forces (Hartrees/Bohr)
 Number     Number              X              Y              Z
 -------------------------------------------------------------------
      1        6          -0.000775274    0.009636313    0.003374044
      2        9           0.001183791   -0.003706526   -0.001804898
      3        9          -0.000399356   -0.000791443   -0.000454898
      4       16          -0.011237409    0.007870603    0.003381801
      5        8           0.003100298   -0.009949966   -0.010470210
      6        8           0.006499154   -0.004037553    0.000056653
      7        8          -0.001234215    0.001941556    0.005585442
      8        1           0.002863011   -0.000962984    0.000332065
 -------------------------------------------------------------------
 Cartesian Forces:  Max     0.011237409 RMS     0.005189749
 Force constants in Cartesian coordinates: 
                1             2             3             4             5 
      1  0.564496D+00
      2 -0.863166D-01  0.213283D+00
      3  0.257408D-01  0.124227D+00  0.510344D+00
      4 -0.103569D+00  0.674990D-01  0.879548D-01  0.152377D+00
      5  0.608626D-01 -0.116694D+00 -0.156545D+00 -0.973753D-01  0.107608D+00
      6  0.839283D-01 -0.130127D+00 -0.278495D+00 -0.135810D+00  0.149527D+00
      7 -0.395877D+00  0.224762D-01 -0.877926D-01 -0.520637D-01  0.305294D-01
      8  0.105639D-01 -0.343747D-01 -0.156132D-01  0.329431D-01  0.110908D-02
      9 -0.670481D-01 -0.119152D-02 -0.811632D-01  0.439017D-01 -0.383777D-02
     10 -0.439725D-01 -0.916922D-02 -0.367789D-01 -0.338852D-02  0.113251D-01
     11  0.181990D-01 -0.484425D-01  0.596528D-01  0.400515D-03 -0.240546D-02
     12 -0.646492D-01 -0.476742D-02 -0.162147D+00  0.437109D-02  0.180172D-01
     13 -0.447659D-02  0.479135D-02 -0.290866D-02  0.216849D-02 -0.971364D-03
     14  0.489697D-02  0.343144D-02  0.186138D-02 -0.739928D-05  0.199517D-02
     15  0.258014D-01 -0.194570D-01 -0.192904D-02 -0.352804D-03 -0.384433D-03
     16 -0.171462D-01  0.931187D-03  0.186145D-01  0.430979D-02 -0.508653D-02
     17  0.684408D-02  0.623038D-02 -0.266624D-02 -0.820911D-03  0.621356D-03
     18 -0.152348D-01  0.364418D-03  0.107509D-01 -0.105322D-02 -0.381223D-03
     19 -0.253592D-02 -0.399241D-02 -0.497429D-02  0.343589D-03  0.139936D-02
     20 -0.130332D-01 -0.164411D-01 -0.103568D-01 -0.227871D-02  0.603858D-02
     21  0.108701D-01  0.316490D-01  0.256737D-02  0.110132D-02 -0.650735D-02
     22  0.308147D-02  0.378050D-02  0.144224D-03 -0.178034D-03 -0.683292D-03
     23 -0.201678D-02 -0.699200D-02 -0.559568D-03 -0.360290D-03  0.172705D-02
     24  0.591469D-03 -0.696950D-03  0.718507D-04 -0.113110D-03  0.111640D-03
                6             7             8             9            10 
      6  0.301594D+00
      7  0.338466D-01  0.467710D+00
      8 -0.116356D-02 -0.609124D-01  0.302338D-01
      9  0.937809D-02  0.546309D-01  0.485272D-02  0.754890D-01
     10  0.272896D-01 -0.289042D-01  0.176546D-01 -0.284931D-01  0.115937D+01
     11 -0.333934D-01 -0.225126D-02 -0.473734D-03 -0.564227D-02 -0.135809D+00
     12 -0.168609D-01  0.232173D-01  0.126058D-01  0.535040D-02 -0.211829D+00
     13 -0.599440D-03  0.867785D-02 -0.153191D-02  0.188910D-02 -0.292629D+00
     14  0.223050D-02 -0.291187D-02 -0.884723D-04  0.905991D-03  0.179822D+00
     15 -0.154228D-01 -0.679845D-02  0.394786D-04 -0.197455D-02  0.244218D+00
     16 -0.852387D-02 -0.461361D-02  0.222735D-02 -0.747487D-02 -0.698931D+00
     17  0.406062D-02  0.250188D-02  0.729603D-03  0.317146D-02  0.782763D-02
     18  0.225012D-03 -0.987893D-02  0.237248D-02 -0.736400D-02 -0.112264D-01
     19  0.270139D-03  0.638848D-02 -0.332224D-04  0.250689D-02 -0.886298D-01
     20  0.911182D-02  0.886247D-02  0.221405D-02  0.190015D-02 -0.519003D-01
     21 -0.104902D-02 -0.753880D-02 -0.287529D-02 -0.195513D-03  0.156034D-01
     22 -0.401481D-03 -0.131714D-02 -0.911329D-03  0.875410D-04 -0.291293D-02
     23 -0.245880D-03  0.170559D-02  0.650290D-03 -0.158751D-03 -0.197498D-01
     24  0.630404D-03  0.313914D-03 -0.218425D-03  0.479736D-03  0.121632D-02
               11            12            13            14            15 
     11  0.642641D+00
     12  0.153593D+00  0.761766D+00
     13  0.176144D+00  0.237327D+00  0.281787D+00
     14 -0.244655D+00 -0.207355D+00 -0.196264D+00  0.253540D+00
     15 -0.209909D+00 -0.387732D+00 -0.264919D+00  0.248444D+00  0.381275D+00
     16  0.125541D-01 -0.340669D-02 -0.889984D-02 -0.609181D-02 -0.411910D-02
     17 -0.861440D-01  0.159055D-02  0.215275D-01  0.153601D-01 -0.519897D-02
     18  0.419729D-02 -0.104101D+00  0.314379D-01 -0.580748D-02  0.182418D-01
     19 -0.607588D-01  0.561908D-02  0.157357D-01  0.190322D-01  0.586551D-02
     20 -0.237935D+00 -0.153746D-01 -0.673279D-02 -0.358782D-01 -0.935255D-02
     21  0.230088D-01 -0.986821D-01 -0.317032D-02 -0.349655D-01  0.103488D-01
     22 -0.847807D-02  0.935045D-02 -0.236396D-02  0.152467D-02  0.304370D-03
     23 -0.225846D-01  0.416903D-01  0.303748D-02  0.629528D-02 -0.418195D-02
     24  0.849271D-02  0.240695D-02  0.943542D-03 -0.531451D-02 -0.280755D-02
               16            17            18            19            20 
     16  0.742932D+00
     17  0.422404D-02  0.706642D-01
     18  0.380618D-02  0.155965D-02  0.636923D-01
     19 -0.137318D-01 -0.395737D-01  0.466426D-02  0.129765D+00
     20 -0.922729D-02 -0.742349D-02  0.220622D-03  0.121815D+00  0.341674D+00
     21  0.607902D-02  0.103910D-02  0.197737D-01 -0.165154D+00 -0.944393D-01
     22 -0.391980D-02 -0.253058D-02 -0.251507D-02 -0.473354D-01 -0.475048D-01
     23  0.468949D-03 -0.380277D-04 -0.252575D-02 -0.378880D-01 -0.522482D-01
     24 -0.497520D-02 -0.355617D-02 -0.121859D-02  0.151203D+00  0.118291D+00
               21            22            23            24 
     21  0.501139D+00
     22  0.142209D+00  0.549458D-01
     23  0.830906D-01  0.548029D-01  0.731902D-01
     24 -0.433902D+00 -0.149179D+00 -0.117109D+00  0.434339D+00
 FormGI is forming the generalized inverse of G from B-inverse, IUseBI=4.
 Force constants in internal coordinates: 
                1             2             3             4             5 
      1  0.469014D+00
      2  0.618337D-01  0.482398D+00
      3  0.122410D-01  0.116407D-01  0.205666D+00
      4  0.543773D-02  0.110223D-01  0.204540D-02  0.788165D+00
      5  0.108038D-01  0.577015D-02  0.195460D-02 -0.779378D-03  0.742933D+00
      6  0.110543D-01  0.116028D-01  0.159106D-02  0.183842D-01  0.138573D-01
      7 -0.493156D-03 -0.344632D-03 -0.145915D-02 -0.497781D-02 -0.346216D-02
      8  0.173534D-01  0.189178D-01 -0.178512D-01 -0.588096D-02 -0.579437D-02
      9  0.245456D-01 -0.335397D-01  0.230853D-01  0.136676D-01 -0.291345D-02
     10 -0.341525D-01  0.215253D-01  0.239021D-01 -0.325105D-02  0.131790D-01
     11  0.157770D-01 -0.587769D-02  0.725660D-02  0.110596D-01 -0.767609D-02
     12 -0.444851D-02  0.155520D-01  0.648317D-02 -0.783625D-02  0.129945D-01
     13  0.545950D-02  0.716156D-02  0.727622D-03 -0.192900D-01 -0.147535D-01
     14 -0.294852D-02 -0.293168D-02 -0.322376D-02  0.238346D-03  0.264232D-02
     15 -0.572679D-02 -0.658912D-02 -0.497233D-02  0.196690D-01 -0.807914D-02
     16 -0.578788D-02 -0.480585D-02 -0.508167D-02 -0.849368D-02  0.109105D-01
     17  0.142210D-02  0.245835D-02  0.149174D-02  0.429693D-02  0.380193D-02
     18  0.794714D-02  0.446331D-02  0.870826D-02  0.613520D-02 -0.722208D-02
     19  0.121466D-01  0.755254D-02  0.142575D-01  0.867473D-02 -0.179464D-03
     20  0.640463D-02  0.108798D-01  0.113080D-01 -0.115667D-01  0.104684D-01
     21 -0.873401D-02 -0.114696D-01 -0.138225D-01  0.399749D-02 -0.916131D-02
     22 -0.453453D-02 -0.838037D-02 -0.827329D-02  0.653701D-02 -0.211869D-02
     23 -0.102765D-01 -0.505314D-02 -0.112228D-01 -0.137044D-01  0.852920D-02
     24  0.780172D-02 -0.731838D-02  0.360914D-03  0.113161D-01 -0.126524D-01
     25 -0.990639D-02 -0.147782D-02 -0.619760D-02  0.177836D-03  0.493891D-02
     26  0.314225D-02  0.114613D-01  0.605114D-02 -0.915056D-02 -0.714722D-03
                6             7             8             9            10 
      6  0.342966D+00
      7  0.762721D-02  0.522410D+00
      8 -0.122211D-02  0.761670D-03  0.134966D+00
      9 -0.114102D-02 -0.919353D-03 -0.902795D-01  0.153665D+00
     10 -0.158450D-02 -0.466137D-03 -0.891211D-01 -0.201908D-01  0.153936D+00
     11 -0.896344D-02  0.265392D-02 -0.944969D-02  0.236714D-01 -0.627460D-02
     12 -0.122346D-01  0.125813D-02 -0.934612D-02 -0.519561D-02  0.232118D-01
     13  0.134435D-01  0.367915D-02  0.129212D-01 -0.170148D-01 -0.165530D-01
     14 -0.103108D-01  0.144789D-02  0.420309D-02 -0.376577D-02 -0.416034D-02
     15  0.706592D-02 -0.597360D-02  0.194262D-02 -0.847507D-03  0.878909D-03
     16  0.149455D-01 -0.217728D-02  0.163600D-02  0.260443D-03 -0.126728D-03
     17  0.471043D-01  0.241310D-01  0.153911D-02 -0.392853D-02 -0.330759D-03
     18  0.103486D-01 -0.310053D-02  0.122413D-01 -0.986264D-03 -0.241596D-02
     19 -0.173991D-01  0.144809D-02  0.438974D-02  0.717421D-02  0.420820D-02
     20  0.234277D-03  0.102991D-02  0.816165D-02 -0.149553D-02  0.563997D-02
     21  0.151105D-01 -0.279403D-02 -0.402011D-02 -0.530322D-02 -0.699411D-02
     22 -0.126371D-01  0.175459D-02 -0.118717D-01  0.285725D-02 -0.369954D-03
     23  0.499626D-02  0.133641D-02 -0.809980D-02 -0.581249D-02  0.106181D-02
     24 -0.549639D-03 -0.470608D-03  0.265778D-03  0.102102D-01 -0.116165D-01
     25  0.118161D-02 -0.282227D-02  0.458505D-02 -0.851038D-02  0.198213D-02
     26 -0.271394D-02  0.177253D-02 -0.380289D-02 -0.307598D-02  0.686164D-02
               11            12            13            14            15 
     11  0.107663D+00
     12 -0.261546D-02  0.106544D+00
     13 -0.123609D-01 -0.144221D-01  0.159814D+00
     14 -0.344601D-01 -0.342237D-01  0.958882D-02  0.694971D-01
     15 -0.430236D-01 -0.689632D-02 -0.552263D-01 -0.124933D-01  0.105157D+00
     16 -0.886405D-02 -0.434930D-01 -0.495887D-01 -0.786619D-02 -0.178433D-02
     17  0.434240D-02  0.205357D-02  0.212760D-01 -0.264292D-02 -0.200784D-01
     18 -0.124108D-01 -0.123801D-01 -0.572642D-02 -0.215497D-01  0.448107D-01
     19  0.176401D-01  0.173117D-01 -0.123978D-01  0.177078D-01 -0.571304D-02
     20  0.176739D-02  0.206957D-02 -0.602422D-02  0.551188D-03 -0.331295D-01
     21 -0.165596D-01 -0.170430D-01  0.101174D-01 -0.195755D-01  0.418115D-01
     22  0.134913D-01  0.126488D-01  0.344597D-02  0.196820D-01 -0.871225D-02
     23 -0.238142D-02 -0.259333D-02  0.981955D-02  0.252538D-02 -0.361288D-01
     24  0.362813D-01 -0.371015D-01  0.466227D-02  0.139229D-02 -0.260744D-02
     25 -0.622569D-01 -0.256711D-01 -0.292359D-01  0.399416D-01  0.306848D-01
     26  0.245930D-01  0.593710D-01  0.415644D-01 -0.354182D-01 -0.355755D-01
               16            17            18            19            20 
     16  0.981286D-01
     17  0.101854D-02  0.138439D+00
     18  0.780479D-02 -0.563648D-02  0.371116D-01
     19 -0.386541D-01 -0.448801D-02 -0.724944D-02  0.393859D-01
     20  0.332722D-01  0.622034D-02 -0.551514D-02 -0.214344D-02  0.328451D-01
     21  0.515559D-02 -0.345405D-02  0.219696D-01 -0.260681D-01 -0.223754D-01
     22 -0.413033D-01 -0.230558D-02 -0.223915D-01  0.205672D-01 -0.190037D-01
     23  0.306230D-01  0.840276D-02 -0.206572D-01 -0.209621D-01  0.159849D-01
     24 -0.137585D-02 -0.288411D-02  0.338626D-02  0.451880D-02 -0.856490D-02
     25  0.299509D-01 -0.947581D-02  0.352148D-02 -0.773546D-02  0.385092D-02
     26 -0.359250D-01  0.926546D-02 -0.101112D-01  0.409548D-02  0.329622D-02
               21            22            23            24            25 
     21  0.411692D-01
     22 -0.686849D-02  0.360903D-01
     23 -0.317578D-02 -0.348064D-02  0.334663D-01
     24  0.435900D-02  0.549153D-02 -0.759217D-02  0.268979D-01
     25  0.348343D-02 -0.777351D-02  0.381288D-02 -0.142735D-01  0.559546D-01
     26 -0.825428D-02  0.595240D-02  0.515315D-02 -0.129331D-01 -0.449369D-01
               26 
     26  0.586354D-01
 Leave Link  716 at Sat May 24 00:38:37 2025, MaxMem=  3758096384 cpu:               0.1 elap:               0.0
 (Enter /apps/easybuild-2022/easybuild/software/Compiler/NVHPC/22.11-CUDA-11.7.0/Gaussian/g16c01-CUDA-11.7.0/g16/l103.exe)

 GradGradGradGradGradGradGradGradGradGradGradGradGradGradGradGradGradGrad
 Berny optimization.
 Red2BG is reusing G-inverse.
 Internal  Forces:  Max     0.013624986 RMS     0.004675791
 Search for a local minimum.
 Step number   1 out of a maximum of   36
 All quantities printed in internal units (Hartrees-Bohrs-Radians)
 RMS Force = .46758D-02 SwitMx=.10000D-02 MixMth= 1
 Mixed Optimization -- RFO/linear search
 Second derivative matrix not updated -- analytic derivatives used.
 ITU=  0
     Eigenvalues ---   -0.00180   0.00281   0.04602   0.11413   0.12247
     Eigenvalues ---    0.13836   0.16886   0.17857   0.19243   0.19357
     Eigenvalues ---    0.28070   0.30606   0.36107   0.43025   0.52481
     Eigenvalues ---    0.54520   0.74657   0.79283
 Eigenvalue     1 is  -1.80D-03 should be greater than     0.000000 Eigenvector:
                          D8        D9        D7        A6        D5
   1                   -0.57722  -0.57546  -0.57381   0.04603   0.03010
                          D6        A10       D4        A7        A8
   1                    0.02501  -0.02112   0.02058   0.02021  -0.01841
 RFO step:  Lambda=-3.88179051D-03 EMin=-1.79628359D-03
 Linear search not attempted -- first point.
 Iteration  1 RMS(Cart)=  0.06905590 RMS(Int)=  0.12875837
 Iteration  2 RMS(Cart)=  0.05510695 RMS(Int)=  0.06102926
 Iteration  3 RMS(Cart)=  0.05021914 RMS(Int)=  0.00468755
 Iteration  4 RMS(Cart)=  0.00411985 RMS(Int)=  0.00002661
 Iteration  5 RMS(Cart)=  0.00002115 RMS(Int)=  0.00002290
 Iteration  6 RMS(Cart)=  0.00000000 RMS(Int)=  0.00002290
 ITry= 1 IFail=0 DXMaxC= 5.22D-01 DCOld= 1.00D+10 DXMaxT= 3.00D-01 DXLimC= 3.00D+00 Rises=F
 Variable       Old X    -DE/DX   Delta X   Delta X   Delta X     New X
                                 (Linear)    (Quad)   (Total)
    R1        2.47868  -0.00366   0.00000  -0.00985  -0.00985   2.46884
    R2        2.46789  -0.00038   0.00000   0.00566   0.00566   2.47355
    R3        3.37567  -0.00061   0.00000  -0.00355  -0.00355   3.37212
    R4        2.66725   0.01362   0.00000   0.01787   0.01787   2.68511
    R5        2.68191  -0.00650   0.00000  -0.01462  -0.01462   2.66729
    R6        2.98994   0.00144   0.00000   0.00168   0.00168   2.99161
    R7        1.82868   0.00034   0.00000  -0.00021  -0.00021   1.82847
    A1        1.95539  -0.00053   0.00000   0.00273   0.00274   1.95814
    A2        1.99821   0.00342   0.00000   0.01461   0.01462   2.01283
    A3        2.01751  -0.00067   0.00000  -0.01111  -0.01110   2.00641
    A4        1.85968   0.00326   0.00000   0.01336   0.01338   1.87306
    A5        1.85719  -0.00014   0.00000  -0.00840  -0.00839   1.84881
    A6        1.78351  -0.01309   0.00000  -0.01194  -0.01193   1.77158
    A7        2.16428  -0.00450   0.00000  -0.00646  -0.00645   2.15782
    A8        1.87183   0.00617   0.00000   0.00335   0.00339   1.87522
    A9        1.89112   0.00576   0.00000   0.00826   0.00821   1.89933
   A10        1.91432  -0.00025   0.00000  -0.01175  -0.01175   1.90257
    D1        3.06608   0.00336   0.00000   0.06156   0.06155   3.12763
    D2       -0.87689  -0.00010   0.00000   0.05690   0.05687  -0.82002
    D3        1.10479   0.00077   0.00000   0.05801   0.05805   1.16284
    D4        0.75389   0.00122   0.00000   0.05354   0.05353   0.80741
    D5        3.09410  -0.00224   0.00000   0.04888   0.04885  -3.14024
    D6       -1.20740  -0.00137   0.00000   0.04998   0.05003  -1.15737
    D7        2.52486  -0.00034   0.00000  -0.56855  -0.56853   1.95633
    D8        0.57265  -0.00064   0.00000  -0.57950  -0.57948  -0.00683
    D9       -1.80190  -0.00421   0.00000  -0.58021  -0.58024  -2.38214
         Item               Value     Threshold  Converged?
 Maximum Force            0.013625     0.000015     NO 
 RMS     Force            0.004676     0.000010     NO 
 Maximum Displacement     0.521883     0.000060     NO 
 RMS     Displacement     0.165111     0.000040     NO 
 Predicted change in Energy=-3.911919D-03
 Lowest energy point so far.  Saving SCF results.
 GradGradGradGradGradGradGradGradGradGradGradGradGradGradGradGradGradGrad

 Leave Link  103 at Sat May 24 00:38:37 2025, MaxMem=  3758096384 cpu:               0.1 elap:               0.0
 (Enter /apps/easybuild-2022/easybuild/software/Compiler/NVHPC/22.11-CUDA-11.7.0/Gaussian/g16c01-CUDA-11.7.0/g16/l202.exe)
                          Input orientation:                          
 ---------------------------------------------------------------------
 Center     Atomic      Atomic             Coordinates (Angstroms)
 Number     Number       Type             X           Y           Z
 ---------------------------------------------------------------------
      1          6           0        1.940204   -0.524031    1.586237
      2          9           0        1.338656    0.028548    2.605852
      3          9           0        3.241895   -0.529680    1.723751
      4         16           0        1.354746   -0.006171   -0.017920
      5          8           0        2.130227   -0.690355   -0.992332
      6          8           0       -0.053923   -0.068876    0.045048
      7          8           0        1.797915    1.513462   -0.040294
      8          1           0        2.494287    1.628963   -0.702071
 ---------------------------------------------------------------------
                    Distance matrix (angstroms):
                    1          2          3          4          5
     1  C    0.000000
     2  F    1.306452   0.000000
     3  F    1.308946   2.170723   0.000000
     4  S    1.784450   2.624051   2.620842   0.000000
     5  O    2.590906   3.753709   2.939172   1.420900   0.000000
     6  O    2.561050   2.916588   3.727305   1.411469   2.496579
     7  O    2.610981   3.068871   3.061267   1.583093   2.423555
     8  H    3.190415   3.852164   3.332157   2.107198   2.365593
                    6          7          8
     6  O    0.000000
     7  O    2.437289   0.000000
     8  H    3.151860   0.967587   0.000000
 Symmetry turned off by external request.
 Stoichiometry    CHF2O3S
 Rotational constants (GHZ):           3.4679045           2.0797814           1.7546293
 Leave Link  202 at Sat May 24 00:38:37 2025, MaxMem=  3758096384 cpu:               0.1 elap:               0.0
 (Enter /apps/easybuild-2022/easybuild/software/Compiler/NVHPC/22.11-CUDA-11.7.0/Gaussian/g16c01-CUDA-11.7.0/g16/l301.exe)
 Standard basis: def2TZVPP (5D, 7F)
 Ernie: Thresh=  0.10000D-02 Tol=  0.10000D-05 Strict=F.
   242 basis functions,   392 primitive gaussians,   279 cartesian basis functions
    33 alpha electrons       32 beta electrons
       nuclear repulsion energy       445.8108851225 Hartrees.
 IExCor= 4336 DFT=T Ex+Corr=M062X ExCW=0 ScaHFX=  0.540000
 ScaDFX=  1.000000  1.000000  1.000000  1.000000 ScalE2=  1.000000  1.000000
 IRadAn=      5 IRanWt=     -1 IRanGd=            0 ICorTp=0 IEmpDi=  4
 NAtoms=    8 NActive=    8 NUniq=    8 SFac= 1.00D+00 NAtFMM=   60 NAOKFM=F Big=F
 Integral buffers will be    131072 words long.
 Raffenetti 2 integral format.
 Two-electron integral symmetry is turned off.
 Leave Link  301 at Sat May 24 00:38:37 2025, MaxMem=  3758096384 cpu:               0.1 elap:               0.0
 (Enter /apps/easybuild-2022/easybuild/software/Compiler/NVHPC/22.11-CUDA-11.7.0/Gaussian/g16c01-CUDA-11.7.0/g16/l302.exe)
 NPDir=0 NMtPBC=     1 NCelOv=     1 NCel=       1 NClECP=     1 NCelD=      1
         NCelK=      1 NCelE2=     1 NClLst=     1 CellRange=     0.0.
 One-electron integrals computed using PRISM.
   1 Symmetry operations used in ECPInt.
 ECPInt:  NShTT=    3741 NPrTT=   12260 LenC2=    3637 LenP2D=    9300.
 LDataN:  DoStor=T MaxTD1= 6 Len=  172
 NBasis=   242 RedAO= T EigKep=  9.15D-04  NBF=   242
 NBsUse=   242 1.00D-06 EigRej= -1.00D+00 NBFU=   242
 Precomputing XC quadrature grid using
 IXCGrd= 4 IRadAn=           5 IRanWt=          -1 IRanGd=           0 AccXCQ= 0.00D+00.
 Generated NRdTot=       0 NPtTot=           0 NUsed=           0 NTot=          32
 NSgBfM=   276   276   276   276   276 MxSgAt=     8 MxSgA2=     8.
 Leave Link  302 at Sat May 24 00:38:37 2025, MaxMem=  3758096384 cpu:               0.6 elap:               0.1
 (Enter /apps/easybuild-2022/easybuild/software/Compiler/NVHPC/22.11-CUDA-11.7.0/Gaussian/g16c01-CUDA-11.7.0/g16/l303.exe)
 DipDrv:  MaxL=1.
 Leave Link  303 at Sat May 24 00:38:37 2025, MaxMem=  3758096384 cpu:               0.1 elap:               0.0
 (Enter /apps/easybuild-2022/easybuild/software/Compiler/NVHPC/22.11-CUDA-11.7.0/Gaussian/g16c01-CUDA-11.7.0/g16/l401.exe)
 Initial guess from the checkpoint file:  "/tmp/Gau-48715.chk"
 B after Tr=    -0.100068   -0.131651    0.044842
         Rot=    0.999638    0.002508   -0.013471   -0.023151 Ang=   3.08 deg.
 Guess basis will be translated and rotated to current coordinates.
 JPrj=2 DoOrth=T DoCkMO=T.
 Initial guess <Sx>= 0.0000 <Sy>= 0.0000 <Sz>= 0.5000 <S**2>= 0.7537 S= 0.5019
 Generating alternative initial guess.
 ExpMin= 9.52D-02 ExpMax= 6.07D+04 ExpMxC= 2.07D+03 IAcc=3 IRadAn=         5 AccDes= 0.00D+00
 Harris functional with IExCor= 1009 and IRadAn=       5 diagonalized for initial guess.
 HarFok:  IExCor= 1009 AccDes= 0.00D+00 IRadAn=         5 IDoV= 1 UseB2=F ITyADJ=14
 ICtDFT=  3500011 ScaDFX=  1.000000  1.000000  1.000000  1.000000
 FoFCou: FMM=F IPFlag=           0 FMFlag=      100000 FMFlg1=           0
         NFxFlg=           0 DoJE=T BraDBF=F KetDBF=T FulRan=T
         wScrn=  0.000000 ICntrl=       500 IOpCl=  0 I1Cent=   200000004 NGrid=           0
         NMat0=    1 NMatS0=      1 NMatT0=    0 NMatD0=    1 NMtDS0=    0 NMtDT0=    0
 Symmetry not used in FoFCou.
 Harris En= -861.795847328089    
 Leave Link  401 at Sat May 24 00:38:38 2025, MaxMem=  3758096384 cpu:               2.4 elap:               0.4
 (Enter /apps/easybuild-2022/easybuild/software/Compiler/NVHPC/22.11-CUDA-11.7.0/Gaussian/g16c01-CUDA-11.7.0/g16/l502.exe)
 Keep R1 and R2 ints in memory in canonical form, NReq=875542475.
 FoFCou: FMM=F IPFlag=           0 FMFlag=           0 FMFlg1=           0
         NFxFlg=           0 DoJE=F BraDBF=F KetDBF=F FulRan=T
         wScrn=  0.000000 ICntrl=       600 IOpCl=  0 I1Cent=           0 NGrid=           0
         NMat0=    1 NMatS0=  29403 NMatT0=    0 NMatD0=    1 NMtDS0=    0 NMtDT0=    0
 Symmetry not used in FoFCou.
 Two-electron integral symmetry not used.
 UHF open shell SCF:
 Using DIIS extrapolation, IDIIS=  1040.
 NGot=  3758096384 LenX=  2893370665 LenY=  2893292383
 Requested convergence on RMS density matrix=1.00D-08 within  32 cycles.
 Requested convergence on MAX density matrix=1.00D-06.
 Requested convergence on             energy=1.00D-06.
 No special actions if energy rises.
 Integral accuracy reduced to 1.0D-05 until final iterations.

 Cycle   1  Pass 0  IDiag  1:
 E= -862.151575751823    
 DIIS: error= 1.20D-02 at cycle   1 NSaved=   1.
 NSaved= 1 IEnMin= 1 EnMin= -862.151575751823     IErMin= 1 ErrMin= 1.20D-02
 ErrMax= 1.20D-02  0.00D+00 EMaxC= 1.00D-01 BMatC= 1.51D-01 BMatP= 1.51D-01
 IDIUse=3 WtCom= 8.80D-01 WtEn= 1.20D-01
 Coeff-Com:  0.100D+01
 Coeff-En:   0.100D+01
 Coeff:      0.100D+01
 Recover alternate guess density for next cycle.
 RMSDP=1.95D-03 MaxDP=9.54D-02              OVMax= 0.00D+00

 Cycle   2  Pass 0  IDiag  1:
 E= -861.935072110963     Delta-E=        0.216503640860 Rises=F Damp=F
 Switch densities from cycles 1 and 2 for lowest energy.
 DIIS: error= 2.65D-02 at cycle   2 NSaved=   2.
 NSaved= 2 IEnMin= 1 EnMin= -862.151575751823     IErMin= 1 ErrMin= 1.20D-02
 ErrMax= 2.65D-02  0.00D+00 EMaxC= 1.00D+00 BMatC= 1.90D+00 BMatP= 1.51D-01
 IDIUse=1 WtCom= 1.00D+00 WtEn= 0.00D+00
 Coeff-Com:  0.938D+00 0.618D-01
 Coeff:      0.938D+00 0.618D-01
 Gap=     0.384 Goal=   None    Shift=    0.000
 Gap=     0.356 Goal=   None    Shift=    0.000
 RMSDP=8.50D-04 MaxDP=4.88D-02 DE= 2.17D-01 OVMax= 1.06D-01

 Cycle   3  Pass 0  IDiag  1:
 E= -862.188899208360     Delta-E=       -0.253827097397 Rises=F Damp=F
 DIIS: error= 3.41D-03 at cycle   3 NSaved=   3.
 NSaved= 3 IEnMin= 3 EnMin= -862.188899208360     IErMin= 3 ErrMin= 3.41D-03
 ErrMax= 3.41D-03  0.00D+00 EMaxC= 1.00D+00 BMatC= 2.01D-02 BMatP= 1.51D-01
 IDIUse=1 WtCom= 1.00D+00 WtEn= 0.00D+00
 Coeff-Com: -0.891D-02 0.741D-01 0.935D+00
 Coeff:     -0.891D-02 0.741D-01 0.935D+00
 Gap=     0.373 Goal=   None    Shift=    0.000
 Gap=     0.345 Goal=   None    Shift=    0.000
 RMSDP=2.27D-04 MaxDP=1.07D-02 DE=-2.54D-01 OVMax= 2.20D-02

 Cycle   4  Pass 0  IDiag  1:
 E= -862.192255660035     Delta-E=       -0.003356451675 Rises=F Damp=F
 DIIS: error= 1.89D-03 at cycle   4 NSaved=   4.
 NSaved= 4 IEnMin= 4 EnMin= -862.192255660035     IErMin= 4 ErrMin= 1.89D-03
 ErrMax= 1.89D-03  0.00D+00 EMaxC= 1.00D+00 BMatC= 4.36D-03 BMatP= 2.01D-02
 IDIUse=1 WtCom= 1.00D+00 WtEn= 0.00D+00
 Coeff-Com: -0.490D-01 0.226D-01 0.388D+00 0.638D+00
 Coeff:     -0.490D-01 0.226D-01 0.388D+00 0.638D+00
 Gap=     0.375 Goal=   None    Shift=    0.000
 Gap=     0.346 Goal=   None    Shift=    0.000
 RMSDP=9.07D-05 MaxDP=4.99D-03 DE=-3.36D-03 OVMax= 1.01D-02

 Cycle   5  Pass 0  IDiag  1:
 E= -862.192910160698     Delta-E=       -0.000654500664 Rises=F Damp=F
 DIIS: error= 6.65D-04 at cycle   5 NSaved=   5.
 NSaved= 5 IEnMin= 5 EnMin= -862.192910160698     IErMin= 5 ErrMin= 6.65D-04
 ErrMax= 6.65D-04  0.00D+00 EMaxC= 1.00D+00 BMatC= 7.51D-04 BMatP= 4.36D-03
 IDIUse=1 WtCom= 1.00D+00 WtEn= 0.00D+00
 Coeff-Com: -0.162D-01-0.269D-02 0.625D-01 0.314D+00 0.642D+00
 Coeff:     -0.162D-01-0.269D-02 0.625D-01 0.314D+00 0.642D+00
 Gap=     0.375 Goal=   None    Shift=    0.000
 Gap=     0.345 Goal=   None    Shift=    0.000
 RMSDP=3.38D-05 MaxDP=1.29D-03 DE=-6.55D-04 OVMax= 2.78D-03

 Cycle   6  Pass 0  IDiag  1:
 E= -862.193046791220     Delta-E=       -0.000136630522 Rises=F Damp=F
 DIIS: error= 1.25D-04 at cycle   6 NSaved=   6.
 NSaved= 6 IEnMin= 6 EnMin= -862.193046791220     IErMin= 6 ErrMin= 1.25D-04
 ErrMax= 1.25D-04  0.00D+00 EMaxC= 1.00D+00 BMatC= 2.13D-05 BMatP= 7.51D-04
 IDIUse=1 WtCom= 1.00D+00 WtEn= 0.00D+00
 Coeff-Com:  0.218D-03-0.187D-02-0.261D-01 0.761D-02 0.123D+00 0.897D+00
 Coeff:      0.218D-03-0.187D-02-0.261D-01 0.761D-02 0.123D+00 0.897D+00
 Gap=     0.375 Goal=   None    Shift=    0.000
 Gap=     0.346 Goal=   None    Shift=    0.000
 RMSDP=1.15D-05 MaxDP=3.92D-04 DE=-1.37D-04 OVMax= 1.21D-03

 Cycle   7  Pass 0  IDiag  1:
 E= -862.193053697562     Delta-E=       -0.000006906342 Rises=F Damp=F
 DIIS: error= 4.31D-05 at cycle   7 NSaved=   7.
 NSaved= 7 IEnMin= 7 EnMin= -862.193053697562     IErMin= 7 ErrMin= 4.31D-05
 ErrMax= 4.31D-05  0.00D+00 EMaxC= 1.00D+00 BMatC= 3.76D-06 BMatP= 2.13D-05
 IDIUse=1 WtCom= 1.00D+00 WtEn= 0.00D+00
 Coeff-Com:  0.125D-02-0.221D-03-0.144D-01-0.259D-01-0.155D-01 0.316D+00
 Coeff-Com:  0.739D+00
 Coeff:      0.125D-02-0.221D-03-0.144D-01-0.259D-01-0.155D-01 0.316D+00
 Coeff:      0.739D+00
 Gap=     0.375 Goal=   None    Shift=    0.000
 Gap=     0.345 Goal=   None    Shift=    0.000
 RMSDP=4.19D-06 MaxDP=1.73D-04 DE=-6.91D-06 OVMax= 4.69D-04

 Initial convergence to 1.0D-05 achieved.  Increase integral accuracy.
 Cycle   8  Pass 1  IDiag  1:
 E= -862.193120578437     Delta-E=       -0.000066880875 Rises=F Damp=F
 DIIS: error= 3.78D-05 at cycle   1 NSaved=   1.
 NSaved= 1 IEnMin= 1 EnMin= -862.193120578437     IErMin= 1 ErrMin= 3.78D-05
 ErrMax= 3.78D-05  0.00D+00 EMaxC= 1.00D+00 BMatC= 3.22D-06 BMatP= 3.22D-06
 IDIUse=1 WtCom= 1.00D+00 WtEn= 0.00D+00
 Coeff-Com:  0.100D+01
 Coeff:      0.100D+01
 Gap=     0.375 Goal=   None    Shift=    0.000
 Gap=     0.346 Goal=   None    Shift=    0.000
 RMSDP=4.19D-06 MaxDP=1.73D-04 DE=-6.69D-05 OVMax= 2.52D-04

 Cycle   9  Pass 1  IDiag  1:
 E= -862.193120951767     Delta-E=       -0.000000373330 Rises=F Damp=F
 DIIS: error= 2.69D-05 at cycle   2 NSaved=   2.
 NSaved= 2 IEnMin= 2 EnMin= -862.193120951767     IErMin= 2 ErrMin= 2.69D-05
 ErrMax= 2.69D-05  0.00D+00 EMaxC= 1.00D+00 BMatC= 1.82D-06 BMatP= 3.22D-06
 IDIUse=1 WtCom= 1.00D+00 WtEn= 0.00D+00
 Coeff-Com:  0.400D+00 0.600D+00
 Coeff:      0.400D+00 0.600D+00
 Gap=     0.375 Goal=   None    Shift=    0.000
 Gap=     0.346 Goal=   None    Shift=    0.000
 RMSDP=2.21D-06 MaxDP=8.10D-05 DE=-3.73D-07 OVMax= 2.04D-04

 Cycle  10  Pass 1  IDiag  1:
 E= -862.193121194776     Delta-E=       -0.000000243009 Rises=F Damp=F
 DIIS: error= 1.46D-05 at cycle   3 NSaved=   3.
 NSaved= 3 IEnMin= 3 EnMin= -862.193121194776     IErMin= 3 ErrMin= 1.46D-05
 ErrMax= 1.46D-05  0.00D+00 EMaxC= 1.00D+00 BMatC= 5.06D-07 BMatP= 1.82D-06
 IDIUse=1 WtCom= 1.00D+00 WtEn= 0.00D+00
 Coeff-Com: -0.548D-01 0.334D+00 0.721D+00
 Coeff:     -0.548D-01 0.334D+00 0.721D+00
 Gap=     0.375 Goal=   None    Shift=    0.000
 Gap=     0.346 Goal=   None    Shift=    0.000
 RMSDP=1.04D-06 MaxDP=3.88D-05 DE=-2.43D-07 OVMax= 7.68D-05

 Cycle  11  Pass 1  IDiag  1:
 E= -862.193121291584     Delta-E=       -0.000000096809 Rises=F Damp=F
 DIIS: error= 3.59D-06 at cycle   4 NSaved=   4.
 NSaved= 4 IEnMin= 4 EnMin= -862.193121291584     IErMin= 4 ErrMin= 3.59D-06
 ErrMax= 3.59D-06  0.00D+00 EMaxC= 1.00D+00 BMatC= 1.40D-08 BMatP= 5.06D-07
 IDIUse=1 WtCom= 1.00D+00 WtEn= 0.00D+00
 Coeff-Com: -0.297D-01 0.712D-01 0.190D+00 0.768D+00
 Coeff:     -0.297D-01 0.712D-01 0.190D+00 0.768D+00
 Gap=     0.375 Goal=   None    Shift=    0.000
 Gap=     0.346 Goal=   None    Shift=    0.000
 RMSDP=2.60D-07 MaxDP=1.11D-05 DE=-9.68D-08 OVMax= 2.18D-05

 Cycle  12  Pass 1  IDiag  1:
 E= -862.193121296128     Delta-E=       -0.000000004544 Rises=F Damp=F
 DIIS: error= 2.13D-06 at cycle   5 NSaved=   5.
 NSaved= 5 IEnMin= 5 EnMin= -862.193121296128     IErMin= 5 ErrMin= 2.13D-06
 ErrMax= 2.13D-06  0.00D+00 EMaxC= 1.00D+00 BMatC= 4.55D-09 BMatP= 1.40D-08
 IDIUse=1 WtCom= 1.00D+00 WtEn= 0.00D+00
 Coeff-Com:  0.111D-01-0.112D+00-0.231D+00 0.322D+00 0.101D+01
 Coeff:      0.111D-01-0.112D+00-0.231D+00 0.322D+00 0.101D+01
 Gap=     0.375 Goal=   None    Shift=    0.000
 Gap=     0.346 Goal=   None    Shift=    0.000
 RMSDP=2.48D-07 MaxDP=1.28D-05 DE=-4.54D-09 OVMax= 3.40D-05

 Cycle  13  Pass 1  IDiag  1:
 E= -862.193121298490     Delta-E=       -0.000000002362 Rises=F Damp=F
 DIIS: error= 6.26D-07 at cycle   6 NSaved=   6.
 NSaved= 6 IEnMin= 6 EnMin= -862.193121298490     IErMin= 6 ErrMin= 6.26D-07
 ErrMax= 6.26D-07  0.00D+00 EMaxC= 1.00D+00 BMatC= 3.46D-10 BMatP= 4.55D-09
 IDIUse=1 WtCom= 1.00D+00 WtEn= 0.00D+00
 Coeff-Com:  0.502D-02-0.334D-01-0.732D-01 0.572D-02 0.273D+00 0.823D+00
 Coeff:      0.502D-02-0.334D-01-0.732D-01 0.572D-02 0.273D+00 0.823D+00
 Gap=     0.375 Goal=   None    Shift=    0.000
 Gap=     0.346 Goal=   None    Shift=    0.000
 RMSDP=5.28D-08 MaxDP=2.77D-06 DE=-2.36D-09 OVMax= 6.33D-06

 Cycle  14  Pass 1  IDiag  1:
 E= -862.193121298629     Delta-E=       -0.000000000139 Rises=F Damp=F
 DIIS: error= 2.05D-07 at cycle   7 NSaved=   7.
 NSaved= 7 IEnMin= 7 EnMin= -862.193121298629     IErMin= 7 ErrMin= 2.05D-07
 ErrMax= 2.05D-07  0.00D+00 EMaxC= 1.00D+00 BMatC= 7.64D-11 BMatP= 3.46D-10
 IDIUse=1 WtCom= 1.00D+00 WtEn= 0.00D+00
 Coeff-Com: -0.139D-03 0.821D-02 0.147D-01-0.618D-01-0.795D-01 0.327D+00
 Coeff-Com:  0.792D+00
 Coeff:     -0.139D-03 0.821D-02 0.147D-01-0.618D-01-0.795D-01 0.327D+00
 Coeff:      0.792D+00
 Gap=     0.375 Goal=   None    Shift=    0.000
 Gap=     0.346 Goal=   None    Shift=    0.000
 RMSDP=2.36D-08 MaxDP=1.25D-06 DE=-1.39D-10 OVMax= 3.42D-06

 Cycle  15  Pass 1  IDiag  1:
 E= -862.193121298674     Delta-E=       -0.000000000045 Rises=F Damp=F
 DIIS: error= 7.44D-08 at cycle   8 NSaved=   8.
 NSaved= 8 IEnMin= 8 EnMin= -862.193121298674     IErMin= 8 ErrMin= 7.44D-08
 ErrMax= 7.44D-08  0.00D+00 EMaxC= 1.00D+00 BMatC= 1.29D-11 BMatP= 7.64D-11
 IDIUse=1 WtCom= 1.00D+00 WtEn= 0.00D+00
 Coeff-Com: -0.635D-03 0.747D-02 0.148D-01-0.284D-01-0.656D-01 0.494D-01
 Coeff-Com:  0.356D+00 0.667D+00
 Coeff:     -0.635D-03 0.747D-02 0.148D-01-0.284D-01-0.656D-01 0.494D-01
 Coeff:      0.356D+00 0.667D+00
 Gap=     0.375 Goal=   None    Shift=    0.000
 Gap=     0.346 Goal=   None    Shift=    0.000
 RMSDP=6.99D-09 MaxDP=4.53D-07 DE=-4.55D-11 OVMax= 1.05D-06

 SCF Done:  E(UM062X) =  -862.193121299     A.U. after   15 cycles
            NFock= 15  Conv=0.70D-08     -V/T= 2.0026
 <Sx>= 0.0000 <Sy>= 0.0000 <Sz>= 0.5000 <S**2>= 0.7538 S= 0.5019
 <L.S>=  0.00000000000    
 KE= 8.599818599481D+02 PE=-2.935649095940D+03 EE= 7.676632295703D+02
 Annihilation of the first spin contaminant:
 S**2 before annihilation     0.7538,   after     0.7500
 Leave Link  502 at Sat May 24 00:38:56 2025, MaxMem=  3758096384 cpu:              81.1 elap:              18.3
 (Enter /apps/easybuild-2022/easybuild/software/Compiler/NVHPC/22.11-CUDA-11.7.0/Gaussian/g16c01-CUDA-11.7.0/g16/l508.exe)
 QCSCF skips out because SCF is already converged.
 Leave Link  508 at Sat May 24 00:38:56 2025, MaxMem=  3758096384 cpu:               0.1 elap:               0.0
 (Enter /apps/easybuild-2022/easybuild/software/Compiler/NVHPC/22.11-CUDA-11.7.0/Gaussian/g16c01-CUDA-11.7.0/g16/l701.exe)
 ... and contract with generalized density number  0.
 Compute integral first derivatives.
   1 Symmetry operations used in ECPInt.
 ECPInt:  NShTT=    3741 NPrTT=   12260 LenC2=    3637 LenP2D=    9300.
 LDataN:  DoStor=T MaxTD1= 7 Len=  274
 Leave Link  701 at Sat May 24 00:38:56 2025, MaxMem=  3758096384 cpu:               0.8 elap:               0.2
 (Enter /apps/easybuild-2022/easybuild/software/Compiler/NVHPC/22.11-CUDA-11.7.0/Gaussian/g16c01-CUDA-11.7.0/g16/l702.exe)
 L702 exits ... SP integral derivatives will be done elsewhere.
 Leave Link  702 at Sat May 24 00:38:56 2025, MaxMem=  3758096384 cpu:               0.1 elap:               0.0
 (Enter /apps/easybuild-2022/easybuild/software/Compiler/NVHPC/22.11-CUDA-11.7.0/Gaussian/g16c01-CUDA-11.7.0/g16/l703.exe)
 Integral derivatives from FoFJK, PRISM(SPDF).
 Compute integral first derivatives, UseDBF=F ICtDFT=           0.
 Calling FoFJK, ICntrl=      2127 FMM=F ISym2X=0 I1Cent= 0 IOpClX= 1 NMat=1 NMatS=1 NMatT=0.
 FoFJK:  IHMeth= 1 ICntrl=    2127 DoSepK=F KAlg= 0 I1Cent=           0 FoldK=F
 IRaf=         0 NMat=       1 IRICut=       1 DoRegI=T DoRafI=F ISym2E= 0 IDoP0=0 IntGTp=1.
 FoFCou: FMM=F IPFlag=           0 FMFlag=      100000 FMFlg1=         800
         NFxFlg=           0 DoJE=F BraDBF=F KetDBF=F FulRan=T
         wScrn=  0.000000 ICntrl=      2127 IOpCl=  1 I1Cent=           0 NGrid=           0
         NMat0=    1 NMatS0=      1 NMatT0=    0 NMatD0=    1 NMtDS0=    0 NMtDT0=    0
 Symmetry not used in FoFCou.
 Leave Link  703 at Sat May 24 00:39:00 2025, MaxMem=  3758096384 cpu:              29.5 elap:               3.9
 (Enter /apps/easybuild-2022/easybuild/software/Compiler/NVHPC/22.11-CUDA-11.7.0/Gaussian/g16c01-CUDA-11.7.0/g16/l716.exe)
 Dipole        = 8.08488321D-01 5.60995948D-01 1.20695110D-01
 -------------------------------------------------------------------
 Center     Atomic                   Forces (Hartrees/Bohr)
 Number     Number              X              Y              Z
 -------------------------------------------------------------------
      1        6           0.000395473   -0.000276918   -0.000309279
      2        9          -0.000065942   -0.000231441   -0.000009721
      3        9           0.000557547    0.000255381    0.000162803
      4       16           0.002645461   -0.000923282   -0.001061194
      5        8          -0.001089832   -0.000817879    0.000865200
      6        8          -0.000842768    0.001353111   -0.000076592
      7        8          -0.002668644    0.000620040   -0.000565433
      8        1           0.001068705    0.000020987    0.000994217
 -------------------------------------------------------------------
 Cartesian Forces:  Max     0.002668644 RMS     0.001018076
 Leave Link  716 at Sat May 24 00:39:00 2025, MaxMem=  3758096384 cpu:               0.1 elap:               0.0
 (Enter /apps/easybuild-2022/easybuild/software/Compiler/NVHPC/22.11-CUDA-11.7.0/Gaussian/g16c01-CUDA-11.7.0/g16/l103.exe)

 GradGradGradGradGradGradGradGradGradGradGradGradGradGradGradGradGradGrad
 Berny optimization.
 Using GEDIIS/GDIIS optimizer.
 FormGI is forming the generalized inverse of G from B-inverse, IUseBI=4.
 Internal  Forces:  Max     0.001916437 RMS     0.000852379
 Search for a local minimum.
 Step number   2 out of a maximum of   36
 All quantities printed in internal units (Hartrees-Bohrs-Radians)
 RMS Force = .85238D-03 SwitMx=.10000D-02 MixMth= 2
 Mixed Optimization -- En-DIIS/RFO-DIIS
 Update second derivatives using D2CorX and points    1    2
 DE= -3.02D-03 DEPred=-3.91D-03 R= 7.72D-01
 TightC=F SS=  1.41D+00  RLast= 1.01D+00 DXNew= 5.0454D-01 3.0232D+00
 Trust test= 7.72D-01 RLast= 1.01D+00 DXMaxT set to 5.05D-01
 ITU=  1  0
 Use linear search instead of GDIIS.
     Eigenvalues ---    0.00222   0.00294   0.04627   0.11514   0.12377
     Eigenvalues ---    0.13839   0.17269   0.19133   0.19728   0.22889
     Eigenvalues ---    0.30071   0.35910   0.42749   0.49336   0.52500
     Eigenvalues ---    0.58161   0.75462   9.21988
 RFO step:  Lambda=-1.67319891D-04 EMin= 2.22042676D-03
 Quartic linear search produced a step of  0.24189.
 Iteration  1 RMS(Cart)=  0.05560143 RMS(Int)=  0.00386255
 Iteration  2 RMS(Cart)=  0.00337277 RMS(Int)=  0.00001211
 Iteration  3 RMS(Cart)=  0.00001248 RMS(Int)=  0.00000796
 Iteration  4 RMS(Cart)=  0.00000000 RMS(Int)=  0.00000796
 ITry= 1 IFail=0 DXMaxC= 1.51D-01 DCOld= 1.00D+10 DXMaxT= 5.05D-01 DXLimC= 3.00D+00 Rises=F
 Variable       Old X    -DE/DX   Delta X   Delta X   Delta X     New X
                                 (Linear)    (Quad)   (Total)
    R1        2.46884  -0.00007  -0.00238  -0.00114  -0.00353   2.46531
    R2        2.47355   0.00057   0.00137   0.00199   0.00336   2.47691
    R3        3.37212   0.00022  -0.00086   0.00082  -0.00004   3.37208
    R4        2.68511  -0.00080   0.00432  -0.00108   0.00324   2.68835
    R5        2.66729   0.00078  -0.00354   0.00087  -0.00266   2.66463
    R6        2.99161   0.00016   0.00041   0.00002   0.00042   2.99203
    R7        1.82847   0.00010  -0.00005   0.00003  -0.00002   1.82846
    A1        1.95814  -0.00008   0.00066  -0.00045   0.00022   1.95836
    A2        2.01283   0.00013   0.00354   0.00426   0.00780   2.02063
    A3        2.00641  -0.00002  -0.00268  -0.00325  -0.00593   2.00048
    A4        1.87306  -0.00122   0.00324  -0.00860  -0.00535   1.86771
    A5        1.84881   0.00135  -0.00203   0.00887   0.00684   1.85564
    A6        1.77158  -0.00008  -0.00289  -0.00144  -0.00433   1.76725
    A7        2.15782  -0.00008  -0.00156  -0.00010  -0.00164   2.15618
    A8        1.87522   0.00192   0.00082   0.01317   0.01401   1.88922
    A9        1.89933  -0.00191   0.00199  -0.01240  -0.01041   1.88892
   A10        1.90257   0.00052  -0.00284   0.00812   0.00528   1.90786
    D1        3.12763   0.00072   0.01489   0.04274   0.05763  -3.09793
    D2       -0.82002   0.00073   0.01376   0.04291   0.05666  -0.76336
    D3        1.16284  -0.00093   0.01404   0.03182   0.04586   1.20871
    D4        0.80741   0.00073   0.01295   0.04236   0.05531   0.86272
    D5       -3.14024   0.00074   0.01182   0.04253   0.05434  -3.08589
    D6       -1.15737  -0.00093   0.01210   0.03144   0.04354  -1.11383
    D7        1.95633  -0.00133  -0.13752  -0.02905  -0.16658   1.78974
    D8       -0.00683  -0.00061  -0.14017  -0.02354  -0.16370  -0.17053
    D9       -2.38214  -0.00054  -0.14035  -0.02418  -0.16451  -2.54665
         Item               Value     Threshold  Converged?
 Maximum Force            0.001916     0.000015     NO 
 RMS     Force            0.000852     0.000010     NO 
 Maximum Displacement     0.150591     0.000060     NO 
 RMS     Displacement     0.055465     0.000040     NO 
 Predicted change in Energy=-4.024480D-04
 Lowest energy point so far.  Saving SCF results.
 GradGradGradGradGradGradGradGradGradGradGradGradGradGradGradGradGradGrad

 Leave Link  103 at Sat May 24 00:39:00 2025, MaxMem=  3758096384 cpu:               0.1 elap:               0.0
 (Enter /apps/easybuild-2022/easybuild/software/Compiler/NVHPC/22.11-CUDA-11.7.0/Gaussian/g16c01-CUDA-11.7.0/g16/l202.exe)
                          Input orientation:                          
 ---------------------------------------------------------------------
 Center     Atomic      Atomic             Coordinates (Angstroms)
 Number     Number       Type             X           Y           Z
 ---------------------------------------------------------------------
      1          6           0        1.950809   -0.511219    1.572415
      2          9           0        1.333230    0.000935    2.601121
      3          9           0        3.254211   -0.457024    1.699709
      4         16           0        1.338772   -0.011793   -0.027640
      5          8           0        2.097772   -0.717271   -1.002346
      6          8           0       -0.068042   -0.064502    0.052127
      7          8           0        1.776058    1.509487   -0.064733
      8          1           0        2.561197    1.603245   -0.622382
 ---------------------------------------------------------------------
                    Distance matrix (angstroms):
                    1          2          3          4          5
     1  C    0.000000
     2  F    1.304586   0.000000
     3  F    1.310723   2.170815   0.000000
     4  S    1.784430   2.628798   2.617417   0.000000
     5  O    2.587170   3.753042   2.950624   1.422615   0.000000
     6  O    2.566436   2.909505   3.729070   1.410059   2.495751
     7  O    2.606539   3.094932   3.027434   1.583316   2.437431
     8  H    3.108161   3.803455   3.180736   2.111016   2.396649
                    6          7          8
     6  O    0.000000
     7  O    2.427304   0.000000
     8  H    3.185787   0.967577   0.000000
 Symmetry turned off by external request.
 Stoichiometry    CHF2O3S
 Rotational constants (GHZ):           3.4647895           2.0824719           1.7556762
 Leave Link  202 at Sat May 24 00:39:00 2025, MaxMem=  3758096384 cpu:               0.1 elap:               0.0
 (Enter /apps/easybuild-2022/easybuild/software/Compiler/NVHPC/22.11-CUDA-11.7.0/Gaussian/g16c01-CUDA-11.7.0/g16/l301.exe)
 Standard basis: def2TZVPP (5D, 7F)
 Ernie: Thresh=  0.10000D-02 Tol=  0.10000D-05 Strict=F.
   242 basis functions,   392 primitive gaussians,   279 cartesian basis functions
    33 alpha electrons       32 beta electrons
       nuclear repulsion energy       445.8526900771 Hartrees.
 IExCor= 4336 DFT=T Ex+Corr=M062X ExCW=0 ScaHFX=  0.540000
 ScaDFX=  1.000000  1.000000  1.000000  1.000000 ScalE2=  1.000000  1.000000
 IRadAn=      5 IRanWt=     -1 IRanGd=            0 ICorTp=0 IEmpDi=  4
 NAtoms=    8 NActive=    8 NUniq=    8 SFac= 1.00D+00 NAtFMM=   60 NAOKFM=F Big=F
 Integral buffers will be    131072 words long.
 Raffenetti 2 integral format.
 Two-electron integral symmetry is turned off.
 Leave Link  301 at Sat May 24 00:39:00 2025, MaxMem=  3758096384 cpu:               0.1 elap:               0.0
 (Enter /apps/easybuild-2022/easybuild/software/Compiler/NVHPC/22.11-CUDA-11.7.0/Gaussian/g16c01-CUDA-11.7.0/g16/l302.exe)
 NPDir=0 NMtPBC=     1 NCelOv=     1 NCel=       1 NClECP=     1 NCelD=      1
         NCelK=      1 NCelE2=     1 NClLst=     1 CellRange=     0.0.
 One-electron integrals computed using PRISM.
   1 Symmetry operations used in ECPInt.
 ECPInt:  NShTT=    3741 NPrTT=   12260 LenC2=    3639 LenP2D=    9304.
 LDataN:  DoStor=T MaxTD1= 6 Len=  172
 NBasis=   242 RedAO= T EigKep=  9.24D-04  NBF=   242
 NBsUse=   242 1.00D-06 EigRej= -1.00D+00 NBFU=   242
 Precomputing XC quadrature grid using
 IXCGrd= 4 IRadAn=           5 IRanWt=          -1 IRanGd=           0 AccXCQ= 0.00D+00.
 Generated NRdTot=       0 NPtTot=           0 NUsed=           0 NTot=          32
 NSgBfM=   276   276   276   276   276 MxSgAt=     8 MxSgA2=     8.
 Leave Link  302 at Sat May 24 00:39:00 2025, MaxMem=  3758096384 cpu:               0.5 elap:               0.1
[...]
     20  0.528693D-02  0.110077D-01  0.108990D-01 -0.108353D-01  0.101585D-01
     21 -0.771332D-02 -0.122674D-01 -0.140246D-01  0.244697D-02 -0.940738D-02
     22 -0.417562D-02 -0.832895D-02 -0.875822D-02  0.665204D-02 -0.192783D-02
     23 -0.981865D-02 -0.575338D-02 -0.111980D-01 -0.130365D-01  0.818064D-02
     24  0.790269D-02 -0.565893D-02  0.589572D-03  0.904599D-02 -0.116618D-01
     25 -0.100021D-01 -0.158179D-02 -0.640271D-02 -0.280090D-02  0.655814D-02
     26  0.226125D-02  0.121312D-01  0.687059D-02 -0.101066D-01  0.142754D-02
                6             7             8             9            10 
      6  0.345272D+00
      7  0.631897D-02  0.522144D+00
      8 -0.850313D-03  0.424081D-03  0.134788D+00
      9 -0.105278D-02 -0.559592D-03 -0.878797D-01  0.152020D+00
     10 -0.293839D-02  0.295203D-03 -0.904300D-01 -0.214612D-01  0.154742D+00
     11 -0.131988D-01  0.217442D-02 -0.957304D-02  0.228928D-01 -0.489878D-02
     12 -0.145791D-01  0.657524D-03 -0.942615D-02 -0.588279D-02  0.238656D-01
     13  0.199259D-01  0.103697D-02  0.135920D-01 -0.153305D-01 -0.202392D-01
     14 -0.525406D-02  0.159944D-02  0.426459D-02 -0.367310D-02 -0.444044D-02
     15  0.365834D-02 -0.666271D-02  0.180460D-02 -0.593492D-03  0.122196D-02
     16  0.140491D-01  0.135205D-02  0.139535D-02 -0.187777D-03  0.901419D-03
     17  0.452169D-01  0.221081D-01  0.844299D-03 -0.265916D-02  0.872233D-03
     18  0.860228D-02 -0.318804D-02  0.125133D-01 -0.130227D-02 -0.277432D-02
     19 -0.173743D-01  0.796048D-03  0.460570D-02  0.597633D-02  0.487300D-02
     20  0.109543D-02  0.294636D-02  0.836306D-02 -0.261831D-02  0.606482D-02
     21  0.141512D-01 -0.356121D-02 -0.460864D-02 -0.443056D-02 -0.666917D-02
     22 -0.118254D-01  0.422881D-03 -0.125163D-01  0.284803D-02  0.978146D-03
     23  0.664436D-02  0.257319D-02 -0.875892D-02 -0.574661D-02  0.216997D-02
     24 -0.777283D-03 -0.795788D-04  0.544242D-04  0.105508D-01 -0.113105D-01
     25  0.372457D-02 -0.515984D-03  0.401546D-02 -0.794616D-02  0.272798D-02
     26 -0.348791D-02  0.156852D-02 -0.414922D-02 -0.248576D-02  0.689107D-02
               11            12            13            14            15 
     11  0.107988D+00
     12 -0.288440D-02  0.111282D+00
     13 -0.165358D-01 -0.177528D-01  0.166533D+00
     14 -0.345897D-01 -0.362746D-01  0.968255D-02  0.695824D-01
     15 -0.434628D-01 -0.577198D-02 -0.517971D-01 -0.100906D-01  0.100565D+00
     16 -0.604836D-02 -0.432099D-01 -0.509587D-01 -0.833387D-02 -0.303872D-02
     17 -0.361548D-03 -0.222238D-02  0.696760D-02  0.101530D-02 -0.173983D-01
     18 -0.129888D-01 -0.127935D-01 -0.231880D-02 -0.201128D-01  0.423693D-01
     19  0.170219D-01  0.172682D-01 -0.140971D-01  0.177449D-01 -0.467268D-02
     20  0.254046D-02  0.200222D-02 -0.825551D-02 -0.394228D-03 -0.313360D-01
     21 -0.172884D-01 -0.175995D-01  0.146508D-01 -0.180268D-01  0.389291D-01
     22  0.127223D-01  0.124622D-01  0.287251D-02  0.198309D-01 -0.811289D-02
     23 -0.175914D-02 -0.280380D-02  0.871412D-02  0.169177D-02 -0.347763D-01
     24  0.350061D-01 -0.365845D-01  0.409639D-02  0.984098D-03 -0.711685D-03
     25 -0.621415D-01 -0.233279D-01 -0.326118D-01  0.389850D-01  0.338637D-01
     26  0.226832D-01  0.636145D-01  0.364005D-01 -0.380548D-01 -0.300117D-01
               16            17            18            19            20 
     16  0.978240D-01
     17  0.135255D-01  0.148429D+00
     18  0.693837D-02 -0.587067D-02  0.361668D-01
     19 -0.378716D-01 -0.639881D-02 -0.706217D-02  0.391326D-01
     20  0.336571D-01  0.105788D-01 -0.492379D-02 -0.224802D-02  0.321801D-01
     21  0.403821D-02 -0.528472D-02  0.213376D-01 -0.256279D-01 -0.214350D-01
     22 -0.407718D-01 -0.581286D-02 -0.218913D-01  0.205669D-01 -0.187593D-01
     23  0.307569D-01  0.111647D-01 -0.197529D-01 -0.208138D-01  0.156688D-01
     24 -0.225398D-02 -0.256714D-02  0.435397D-02  0.452960D-02 -0.931013D-02
     25  0.283283D-01  0.113484D-02  0.428743D-02 -0.646355D-02  0.306887D-02
     26 -0.365509D-01  0.274740D-02 -0.829762D-02  0.415139D-02  0.146468D-02
               21            22            23            24            25 
     21  0.401908D-01
     22 -0.677480D-02  0.356834D-01
     23 -0.258190D-02 -0.364277D-02  0.328399D-01
     24  0.518859D-02  0.536422D-02 -0.847551D-02  0.278098D-01
     25  0.362292D-02 -0.712806D-02  0.240436D-02 -0.128213D-01  0.586004D-01
     26 -0.666753D-02  0.578148D-02  0.309477D-02 -0.117514D-01 -0.422439D-01
               26 
     26  0.609042D-01
 Leave Link  716 at Sat May 24 00:43:46 2025, MaxMem=  3758096384 cpu:               0.1 elap:               0.0
 (Enter /apps/easybuild-2022/easybuild/software/Compiler/NVHPC/22.11-CUDA-11.7.0/Gaussian/g16c01-CUDA-11.7.0/g16/l103.exe)

 GradGradGradGradGradGradGradGradGradGradGradGradGradGradGradGradGradGrad
 Berny optimization.
 Red2BG is reusing G-inverse.
 Internal  Forces:  Max     0.000000861 RMS     0.000000236
 Search for a local minimum.
 Step number   1 out of a maximum of    2
 All quantities printed in internal units (Hartrees-Bohrs-Radians)
 Second derivative matrix not updated -- analytic derivatives used.
 ITU=  0
     Eigenvalues ---    0.00323   0.00403   0.04446   0.11409   0.13020
     Eigenvalues ---    0.14037   0.17591   0.18006   0.19405   0.19759
     Eigenvalues ---    0.27520   0.29924   0.36591   0.43205   0.52415
     Eigenvalues ---    0.54647   0.74873   0.78454
 Angle between quadratic step and forces=  79.72 degrees.
 Linear search not attempted -- first point.
 Iteration  1 RMS(Cart)=  0.00000539 RMS(Int)=  0.00000000
 Iteration  2 RMS(Cart)=  0.00000000 RMS(Int)=  0.00000000
 ITry= 1 IFail=0 DXMaxC= 1.87D-05 DCOld= 1.00D+10 DXMaxT= 3.00D-01 DXLimC= 3.00D+00 Rises=F
 Variable       Old X    -DE/DX   Delta X   Delta X   Delta X     New X
                                 (Linear)    (Quad)   (Total)
    R1        2.46796   0.00000   0.00000   0.00000   0.00000   2.46796
    R2        2.47860   0.00000   0.00000  -0.00000  -0.00000   2.47860
    R3        3.37560  -0.00000   0.00000  -0.00000  -0.00000   3.37560
    R4        2.68203  -0.00000   0.00000  -0.00000  -0.00000   2.68203
    R5        2.66717   0.00000   0.00000   0.00000   0.00000   2.66717
    R6        2.98994   0.00000   0.00000   0.00000   0.00000   2.98994
    R7        1.82872   0.00000   0.00000   0.00000   0.00000   1.82872
    A1        1.95538  -0.00000   0.00000  -0.00000  -0.00000   1.95538
    A2        2.01741  -0.00000   0.00000  -0.00000  -0.00000   2.01741
    A3        1.99840   0.00000   0.00000   0.00000   0.00000   1.99840
    A4        1.85700  -0.00000   0.00000  -0.00000  -0.00000   1.85700
    A5        1.85957   0.00000   0.00000  -0.00000  -0.00000   1.85957
    A6        1.78386   0.00000   0.00000   0.00000   0.00000   1.78386
    A7        2.16431   0.00000   0.00000   0.00000   0.00000   2.16431
    A8        1.89103  -0.00000   0.00000  -0.00000  -0.00000   1.89103
    A9        1.87191  -0.00000   0.00000   0.00000   0.00000   1.87191
   A10        1.91418   0.00000   0.00000   0.00000   0.00000   1.91418
    D1       -3.09894  -0.00000   0.00000   0.00001   0.00001  -3.09893
    D2       -0.75888  -0.00000   0.00000   0.00001   0.00001  -0.75888
    D3        1.20260   0.00000   0.00000   0.00001   0.00001   1.20260
    D4        0.87198   0.00000   0.00000   0.00001   0.00001   0.87199
    D5       -3.07115   0.00000   0.00000   0.00001   0.00001  -3.07114
    D6       -1.10967   0.00000   0.00000   0.00001   0.00001  -1.10966
    D7        1.66342   0.00000   0.00000   0.00001   0.00001   1.66344
    D8       -0.29292   0.00000   0.00000   0.00001   0.00001  -0.29291
    D9       -2.66750   0.00000   0.00000   0.00001   0.00001  -2.66749
         Item               Value     Threshold  Converged?
 Maximum Force            0.000001     0.000015     YES
 RMS     Force            0.000000     0.000010     YES
 Maximum Displacement     0.000019     0.000060     YES
 RMS     Displacement     0.000005     0.000040     YES
 Predicted change in Energy=-2.937024D-12
 Optimization completed.
    -- Stationary point found.
                           ----------------------------
                           !   Optimized Parameters   !
                           ! (Angstroms and Degrees)  !
 --------------------------                            --------------------------
 ! Name  Definition              Value          Derivative Info.                !
 --------------------------------------------------------------------------------
 ! R1    R(1,2)                  1.306          -DE/DX =    0.0                 !
 ! R2    R(1,3)                  1.3116         -DE/DX =    0.0                 !
 ! R3    R(1,4)                  1.7863         -DE/DX =    0.0                 !
 ! R4    R(4,5)                  1.4193         -DE/DX =    0.0                 !
 ! R5    R(4,6)                  1.4114         -DE/DX =    0.0                 !
 ! R6    R(4,7)                  1.5822         -DE/DX =    0.0                 !
 ! R7    R(7,8)                  0.9677         -DE/DX =    0.0                 !
 ! A1    A(2,1,3)              112.035          -DE/DX =    0.0                 !
 ! A2    A(2,1,4)              115.5891         -DE/DX =    0.0                 !
 ! A3    A(3,1,4)              114.4998         -DE/DX =    0.0                 !
 ! A4    A(1,4,5)              106.3984         -DE/DX =    0.0                 !
 ! A5    A(1,4,6)              106.5453         -DE/DX =    0.0                 !
 ! A6    A(1,4,7)              102.2077         -DE/DX =    0.0                 !
 ! A7    A(5,4,6)              124.0061         -DE/DX =    0.0                 !
 ! A8    A(5,4,7)              108.3479         -DE/DX =    0.0                 !
 ! A9    A(6,4,7)              107.2523         -DE/DX =    0.0                 !
 ! A10   A(4,7,8)              109.6745         -DE/DX =    0.0                 !
 ! D1    D(2,1,4,5)           -177.5561         -DE/DX =    0.0                 !
 ! D2    D(2,1,4,6)            -43.4808         -DE/DX =    0.0                 !
 ! D3    D(2,1,4,7)             68.9037         -DE/DX =    0.0                 !
 ! D4    D(3,1,4,5)             49.9608         -DE/DX =    0.0                 !
 ! D5    D(3,1,4,6)           -175.9639         -DE/DX =    0.0                 !
 ! D6    D(3,1,4,7)            -63.5794         -DE/DX =    0.0                 !
 ! D7    D(1,4,7,8)             95.3072         -DE/DX =    0.0                 !
 ! D8    D(5,4,7,8)            -16.7831         -DE/DX =    0.0                 !
 ! D9    D(6,4,7,8)           -152.8367         -DE/DX =    0.0                 !
 --------------------------------------------------------------------------------
 GradGradGradGradGradGradGradGradGradGradGradGradGradGradGradGradGradGrad

 Leave Link  103 at Sat May 24 00:43:46 2025, MaxMem=  3758096384 cpu:               0.1 elap:               0.0
 (Enter /apps/easybuild-2022/easybuild/software/Compiler/NVHPC/22.11-CUDA-11.7.0/Gaussian/g16c01-CUDA-11.7.0/g16/l9999.exe)

 ----------------------------------------------------------------------

 Electric dipole moment (input orientation):
 (Debye = 10**-18 statcoulomb cm , SI units = C m)
                  (au)            (Debye)         (10**-30 SI)
   Tot        0.108302D+01      0.275275D+01      0.918219D+01
   x          0.909185D+00      0.231092D+01      0.770839D+01
   y          0.549539D+00      0.139679D+01      0.465919D+01
   z          0.210507D+00      0.535056D+00      0.178475D+01

 Dipole polarizability, Alpha (input orientation).
 (esu units = cm**3 , SI units = C**2 m**2 J**-1)
 Alpha(0;0):
               (au)            (10**-24 esu)      (10**-40 SI)
   iso        0.398518D+02      0.590543D+01      0.657067D+01
   aniso      0.597673D+01      0.885660D+00      0.985429D+00
   xx         0.417508D+02      0.618683D+01      0.688377D+01
   yx        -0.628943D+00     -0.931997D-01     -0.103699D+00
   yy         0.361503D+02      0.535693D+01      0.596038D+01
   zx        -0.754845D+00     -0.111856D+00     -0.124457D+00
   zy        -0.814755D+00     -0.120734D+00     -0.134335D+00
   zz         0.416543D+02      0.617252D+01      0.686786D+01

 ----------------------------------------------------------------------

 Dipole orientation:
     6         -0.62477134         -3.57784535          3.18702622
     9         -3.08314851         -3.38500737          3.08682024
     9          0.14985427         -4.47179385          5.36515958
    16          1.09462569         -0.88976603          2.08585598
     8          3.69317661         -1.53184731          2.25482038
     8         -0.10156297         -0.09093232         -0.16020464
     8          0.49083366          1.15077931          4.18617056
     1          1.82832369          1.16510340          5.43322397

 Electric dipole moment (dipole orientation):
 (Debye = 10**-18 statcoulomb cm , SI units = C m)
                  (au)            (Debye)         (10**-30 SI)
   Tot        0.108302D+01      0.275275D+01      0.918219D+01
   x          0.000000D+00      0.000000D+00      0.000000D+00
   y          0.000000D+00      0.000000D+00      0.000000D+00
   z          0.108302D+01      0.275275D+01      0.918219D+01

 Dipole polarizability, Alpha (dipole orientation).
 (esu units = cm**3 , SI units = C**2 m**2 J**-1)
 Alpha(0;0):
               (au)            (10**-24 esu)      (10**-40 SI)
   iso        0.398518D+02      0.590543D+01      0.657067D+01
   aniso      0.597673D+01      0.885660D+00      0.985429D+00
   xx         0.411860D+02      0.610313D+01      0.679065D+01
   yx         0.156355D+01      0.231695D+00      0.257795D+00
   yy         0.390071D+02      0.578026D+01      0.643140D+01
   zx         0.196212D+01      0.290756D+00      0.323509D+00
   zy        -0.206057D+01     -0.305345D+00     -0.339742D+00
   zz         0.393623D+02      0.583289D+01      0.648997D+01

 ----------------------------------------------------------------------
 Unable to Open any file for archive entry.
 1\1\GINC-SPARTAN-BM179\Freq\UM062X\def2TZVPP\C1H1F2O3S1\AKHALILOV\24-M
 ay-2025\0\\#P Geom=AllCheck Guess=TCheck SCRF=Check GenChk UM062X/def2
 TZVPP Freq\\Gaussian input prepared by ASE\\0,2\C,1.9555244175,-0.5115
 015383,1.566053354\F,1.3413148694,0.0056110941,2.5960784758\F,3.259896
 5286,-0.4439209086,1.6860054136\S,1.3320074768,-0.0158547708,-0.032819
 4338\O,2.091956505,-0.7274420082,-0.9974156251\O,-0.0760399095,-0.0615
 951539,0.0530567739\O,1.7489574697,1.5090961517,-0.0964712926\H,2.5903
 898192,1.5974662165,-0.5662172505\\Version=ES64L-G16RevC.01\HF=-862.19
 3623\S2=0.753786\S2-1=0.\S2A=0.750011\RMSD=2.574e-09\RMSF=5.093e-06\Ze
 roPoint=0.0356227\Thermal=0.0425101\ETot=-862.1511129\HTot=-862.150168
 7\GTot=-862.1904162\Dipole=0.9091849,0.5495393,0.2105071\DipoleDeriv=1
 .265838,-0.1812553,-0.0633716,-0.1173283,0.1977962,0.3452801,-0.102518
 8,0.2030738,1.0646786,-0.35166,0.0762722,0.2141029,0.164724,-0.1574525
 ,-0.3785579,0.2607869,-0.1290999,-0.9123714,-1.0117889,0.1458784,-0.24
 18545,-0.1005916,-0.0847438,-0.0698374,-0.1918706,0.0200128,-0.3416894
 ,2.1745731,0.0578114,-0.0968976,0.1510846,2.2370957,0.0512181,-0.10496
 02,0.0091456,1.9951822,-0.6960247,0.1703737,0.2598641,0.0668928,-0.716
 7147,-0.1979283,0.161724,-0.2240373,-0.9491337,-1.1446754,-0.0239365,-
 0.1006086,0.0213685,-0.5200217,0.0000037,-0.0043025,0.0190856,-0.58815
 5,-0.5699873,-0.3676879,0.0567302,-0.2423152,-1.2875588,0.2857444,-0.0
 080374,0.1691058,-0.60857,0.3337253,0.1225439,-0.0279648,0.0561652,0.3
 315995,-0.0359227,-0.0108213,-0.0672864,0.3400587\Polar=41.750774,-0.6
 289429,36.1503285,-0.7548448,-0.8147553,41.6542501\PG=Unknown\NImag=0\
 \0.56988744,-0.03104713,0.19767985,-0.00602396,0.13032812,0.52462486,-
 0.11521235,0.06422577,0.11016432,0.16839779,0.05638637,-0.09762929,-0.
 14871404,-0.08304552,0.08019299,0.10131993,-0.12351185,-0.29931287,-0.
 15709403,0.13540638,0.32524232,-0.38683610,-0.02979190,-0.07063628,-0.
 05640893,0.02111183,0.03686886,0.46775074,-0.04233000,-0.03629938,-0.0
 2715904,0.02340746,0.00902937,0.00329593,0.00458442,0.02107829,-0.0520
 9625,-0.00951971,-0.07556174,0.04717741,0.00156988,0.00544353,0.035656
 06,0.01247385,0.07211249,-0.05019456,-0.00834746,-0.04718099,-0.004356
 09,0.01105426,0.03106808,-0.03179045,0.01381554,-0.02713978,1.19898887
 ,0.02227974,-0.04499670,0.05532572,-0.00088940,-0.00114316,-0.02932015
 ,-0.00855801,0.00004429,-0.00932262,-0.09919600,0.63365789,-0.06352033
 ,-0.01026767,-0.15788168,0.00111937,0.01804734,-0.01696621,0.02237276,
 0.01522519,0.00591526,-0.22888985,0.15437740,0.73066362,-0.00301378,0.
 00277916,-0.00252450,0.00229452,-0.00080642,-0.00178032,0.00841007,-0.
 00032122,0.00137788,-0.26791092,0.15495734,0.21456826,0.25353224,0.004
 93998,0.00336923,0.00208306,-0.00004292,0.00192385,0.00132862,-0.00191
 156,-0.00033151,0.00093801,0.16064793,-0.23645028,-0.20153655,-0.17785
 420,0.24370495,0.02646215,-0.01773042,-0.00270654,-0.00113255,-0.00063
 773,-0.01515422,-0.00764501,-0.00067477,-0.00205301,0.22481186,-0.2043
 5144,-0.38481628,-0.24435187,0.23670842,0.38059819,-0.01811699,-0.0006
 2128,0.02067037,0.00482903,-0.00470323,-0.00895239,-0.00611373,0.00179
 791,-0.00787716,-0.73474442,-0.00822078,0.03499595,-0.00765931,-0.0074
 5768,-0.00314099,0.77815205,0.00533974,0.00641833,-0.00271482,-0.00044
 184,0.00012945,0.00336170,0.00237661,0.00114771,0.00283874,-0.00924447
 ,-0.08451208,0.00087317,0.02137733,0.01459041,-0.00614943,0.02549489,0
 .06998848,-0.01470941,-0.00067684,0.00993793,-0.00161655,-0.00006601,0
 .00119211,-0.01010904,0.00112463,-0.00657228,0.02578304,0.00208117,-0.
 10154730,0.03292988,-0.00358530,0.01632306,-0.03843599,-0.00026919,0.0
 6696191,0.00009581,-0.00044145,-0.00517820,0.00060650,0.00069464,-0.00
 053873,0.00767931,-0.00003825,0.00321246,-0.09624598,-0.05167519,0.014
 58050,0.01441598,0.01511682,0.00426630,-0.01920131,-0.04344788,0.00571
 494,0.47702133,-0.01538975,-0.02593832,-0.00990746,-0.00331680,0.00723
 746,0.01050453,0.01070422,0.00529253,0.00089375,-0.02803079,-0.2548045
 3,-0.00005101,-0.00510895,-0.03077385,-0.00512576,-0.00367246,-0.00285
 783,0.00212862,0.09290944,0.33711828,0.00646165,0.02962596,0.00123673,
 0.00170377,-0.00546735,-0.00071944,-0.00498670,-0.00357919,0.00071222,
 0.02141737,0.02427836,-0.07761985,-0.00138221,-0.03292692,0.01209589,0
 .00684925,0.00662361,0.01204553,-0.24195430,-0.02203063,0.17792236,0.0
 0339053,0.00324429,0.00070925,-0.00015047,-0.00069193,-0.00089141,-0.0
 0269090,-0.00091586,-0.00031063,-0.01374645,-0.00869771,0.00477334,-0.
 00006879,0.00656163,0.00073012,0.00285467,-0.00145439,0.00044313,-0.38
 437164,-0.04809492,0.21189119,0.39478305,-0.00017895,-0.00260372,0.000
 75846,0.00010326,0.00025932,-0.00106516,0.00148439,0.00003870,0.000128
 08,-0.04069903,-0.01179543,0.02333213,0.00497696,0.00396719,-0.0020388
 7,-0.00261738,-0.00490448,-0.00073707,-0.01311814,-0.03527374,0.003476
 15,0.05004889,0.05031216,0.00210623,0.00175241,-0.00033668,-0.00032174
 ,-0.00013848,0.00027479,-0.00152064,-0.00070661,0.00000354,0.00013028,
 0.00693156,0.00225245,0.00116289,-0.00300934,-0.00428709,-0.00410905,-
 0.00456377,0.00165904,0.21989703,0.02358795,-0.12567345,-0.21734499,-0
 .02385373,0.12610740\\-0.00000048,-0.00000187,-0.00000109,0.00000668,0
 .00000063,0.00000145,0.00000051,-0.00001028,-0.00000615,-0.00000400,0.
 00000385,0.00000181,-0.00001073,-0.00000088,-0.00000264,-0.00000260,0.
 00001184,0.00000662,0.00000600,0.00000082,0.00000140,0.00000462,-0.000
 00411,-0.00000140\\\@
 The archive entry for this job was punched.


 ON A CLEAR DISK YOU CAN SEEK FOREVER.
 Job cpu time:       0 days  0 hours 15 minutes 12.5 seconds.
 Elapsed time:       0 days  0 hours  1 minutes 58.8 seconds.
 File lengths (MBytes):  RWF=    101 Int=      0 D2E=      0 Chk=      7 Scr=      1
 Normal termination of Gaussian 16 at Sat May 24 00:43:46 2025.
done
