9
energy = -962.0853980790001
C -0.06925700 -0.06015700 -0.06326400
F -0.54422000 0.43772900 -1.18822900
F -0.57079700 0.61758300 0.96052000
S 1.76614300 0.06700100 -0.03253300
O 2.18566500 -0.38855100 1.24411300
O 2.24162200 -0.46265200 -1.25121000
O 1.91283100 1.63122900 -0.10011700
F -0.41094100 -1.32965700 0.04091900
H 1.96013000 1.99982700 0.79381400
9
energy = -962.0853543180001
C 0.06371000 0.04422200 -0.00104000
F -0.40966200 0.63092600 -1.08301100
F -0.28711600 0.74834300 1.06670700
S 1.89900200 -0.06007700 -0.08191700
O 2.33210400 -0.60427500 1.15479700
O 2.23074800 -0.60659700 -1.34010700
O 2.23862200 1.47485900 -0.12181600
F -0.42910100 -1.17521800 0.09594400
H 2.38583600 1.80660400 0.77566400
9
energy = -962.0853732930001
C -0.00009800 -0.00013300 0.00010100
F -0.43697100 0.66408900 -1.06142900
F -0.45783500 0.57835400 1.09319100
S 1.83998600 0.00014100 0.00002400
O 2.25676800 -0.50355300 1.25075500
O 2.24875600 -0.54168300 -1.24598500
O 2.09294000 1.55224200 -0.00023200
F -0.42671800 -1.24681500 -0.05583800
H 2.18314800 1.87438600 -0.90869200
