9
energy = -962.1059590709999
C -0.59575400 0.80784500 0.93466100
S 1.66191100 -0.08161200 -0.20915800
O 0.00312000 -0.04213500 0.06492800
O 2.26561400 -0.63243600 0.96854900
O 1.95093700 1.48898700 -0.19369300
F -1.70387900 0.25143500 1.38404200
F 0.18568500 1.09862300 1.97961200
F -0.91141800 1.95532400 0.34607900
H 2.12265600 1.78497100 0.71558200
9
energy = -962.1020868430002
C -0.71762500 0.72357600 0.99374400
S 1.63721500 -0.02416400 -0.06102600
O -0.03481300 -0.04125900 0.09778000
O 2.21458000 -0.53797300 1.13628800
O 1.85358000 1.56732900 0.06313500
F -1.90548400 0.17775800 1.18249300
F -0.10159200 0.82651000 2.15832300
F -0.90291800 1.95601200 0.51490500
H 1.48521400 2.03104500 -0.70212600
9
energy = -962.1058754960002
C -0.75709500 0.74241600 0.92843500
S 1.64100900 0.04792800 -0.05230800
O -0.03646700 -0.00536100 0.05731200
O 2.15532600 -0.57951600 1.12938600
O 1.84918000 1.62156000 0.12359900
F -1.87562900 0.10602400 1.21703400
F -0.09556800 0.97314600 2.06708800
F -1.06873400 1.92275100 0.40640800
H 1.91602800 1.84329400 1.06714100
9
energy = -962.1031889049999
C -0.55663500 0.50590600 -1.10753600
S 1.70436600 -0.03593400 0.06701800
O 0.01847100 0.21538200 0.07365700
O 1.92231200 -0.69565200 1.30885500
O 2.12072800 1.48497500 0.34075100
F -1.81222800 0.84702100 -0.91233500
F 0.06893600 1.53410200 -1.71853000
F -0.51778700 -0.51785400 -1.95648900
H 2.03070800 2.01213400 -0.46631800
9
energy = -962.1032305750002
C -0.75096800 0.42441800 -1.09073300
S 1.62656300 0.06095100 -0.08969700
O -0.06842100 0.18326900 0.04337500
O 1.98581300 -0.57563900 1.13126300
O 1.94556100 1.61001300 0.15552500
F -2.01268900 0.66016800 -0.80184100
F -0.25930200 1.50059800 -1.74014800
F -0.69014100 -0.59300800 -1.94607100
H 1.75174300 2.12714100 -0.63968600
9
energy = -962.1070296550001
C -0.71854400 0.54228700 -1.00812900
S 1.56524200 -0.18110500 0.11761900
O -0.09411200 0.15849800 0.13065600
O 1.81299000 -0.33012100 1.51794600
O 2.07068800 1.25872400 -0.33752400
F -1.99240400 0.20567800 -0.93076200
F -0.64601800 1.85909100 -1.18233100
F -0.19076900 -0.03572300 -2.08905200
H 1.92097500 1.91399400 0.36414400
9
energy = -962.1020489750001
C -0.58001700 -1.10854900 0.10646600
S 1.85520700 -0.13490700 0.23394300
O 0.16607100 0.02206500 0.10215200
O 2.13568800 -0.54928200 1.56809800
O 2.04632800 1.45198300 0.24615800
F -1.76191600 -0.83399200 -0.41724400
F -0.01223200 -2.07787600 -0.62009300
F -0.75906300 -1.58012100 1.33057100
H 1.88880600 1.82787100 -0.63090400
9
energy = -962.1021137230001
C -0.65851600 -1.21835100 0.15109100
S 1.66286400 0.00391500 0.05113400
O -0.03858500 -0.01724600 0.06147200
O 2.09529600 -0.34290600 1.36380000
O 1.68737200 1.60176000 0.01752300
F -1.90355400 -1.08106200 -0.27024800
F -0.05673700 -2.14236200 -0.60654100
F -0.68042700 -1.67390400 1.39402600
H 1.42044500 1.93518000 -0.85019400
9
energy = -962.1069580010001
C -0.63366000 -1.18934700 0.15194600
S 1.69947900 -0.00010000 0.00055300
O -0.00012100 0.00000600 -0.00124200
O 2.07653700 -0.48118100 1.29600100
O 1.75209300 1.58314200 0.00004200
F -1.85201600 -1.08344100 -0.34792000
F 0.00458600 -2.17172700 -0.49067100
F -0.73194500 -1.53795500 1.42601600
H 1.41309500 1.93903600 0.83791600
