1
energy = -75.0661577121
O 2.22301400 -0.23002600 1.61495200
