2
energy = -75.72487900040001
O 2.23542100 1.46772000 -0.08766300
H 2.34605200 1.57769000 -1.04623400
