 Entering Gaussian System, Link 0=g16
 Initial command:
 /apps/easybuild-2022/easybuild/software/Compiler/NVHPC/22.11-CUDA-11.7.0/Gaussian/g16c01-CUDA-11.7.0/g16/l1.exe "/tmp/Gau-284793.inp" -scrdir="/tmp/"
 Entering Link 1 = /apps/easybuild-2022/easybuild/software/Compiler/NVHPC/22.11-CUDA-11.7.0/Gaussian/g16c01-CUDA-11.7.0/g16/l1.exe PID=    284795.
  
 Copyright (c) 1988-2019, Gaussian, Inc.  All Rights Reserved.
  
 This is part of the Gaussian(R) 16 program.  It is based on
 the Gaussian(R) 09 system (copyright 2009, Gaussian, Inc.),
 the Gaussian(R) 03 system (copyright 2003, Gaussian, Inc.),
 the Gaussian(R) 98 system (copyright 1998, Gaussian, Inc.),
 the Gaussian(R) 94 system (copyright 1995, Gaussian, Inc.),
 the Gaussian 92(TM) system (copyright 1992, Gaussian, Inc.),
 the Gaussian 90(TM) system (copyright 1990, Gaussian, Inc.),
 the Gaussian 88(TM) system (copyright 1988, Gaussian, Inc.),
 the Gaussian 86(TM) system (copyright 1986, Carnegie Mellon
 University), and the Gaussian 82(TM) system (copyright 1983,
 Carnegie Mellon University). Gaussian is a federally registered
 trademark of Gaussian, Inc.
  
 This software contains proprietary and confidential information,
 including trade secrets, belonging to Gaussian, Inc.
  
 This software is provided under written license and may be
 used, copied, transmitted, or stored only in accord with that
 written license.
  
 The following legend is applicable only to US Government
 contracts under FAR:
  
                    RESTRICTED RIGHTS LEGEND
  
 Use, reproduction and disclosure by the US Government is
 subject to restrictions as set forth in subparagraphs (a)
 and (c) of the Commercial Computer Software - Restricted
 Rights clause in FAR 52.227-19.
  
 Gaussian, Inc.
 340 Quinnipiac St., Bldg. 40, Wallingford CT 06492
  
  
 ---------------------------------------------------------------
 Warning -- This program may not be used in any manner that
 competes with the business of Gaussian, Inc. or will provide
 assistance to any competitor of Gaussian, Inc.  The licensee
 of this program is prohibited from giving any competitor of
 Gaussian, Inc. access to this program.  By using this program,
 the user acknowledges that Gaussian, Inc. is engaged in the
 business of creating and licensing software in the field of
 computational chemistry and represents and warrants to the
 licensee that it is not a competitor of Gaussian, Inc. and that
 it will not use this program in any manner prohibited above.
 ---------------------------------------------------------------
  

 Cite this work as:
 Gaussian 16, Revision C.01,
 M. J. Frisch, G. W. Trucks, H. B. Schlegel, G. E. Scuseria, 
 M. A. Robb, J. R. Cheeseman, G. Scalmani, V. Barone, 
 G. A. Petersson, H. Nakatsuji, X. Li, M. Caricato, A. V. Marenich, 
 J. Bloino, B. G. Janesko, R. Gomperts, B. Mennucci, H. P. Hratchian, 
 J. V. Ortiz, A. F. Izmaylov, J. L. Sonnenberg, D. Williams-Young, 
 F. Ding, F. Lipparini, F. Egidi, J. Goings, B. Peng, A. Petrone, 
 T. Henderson, D. Ranasinghe, V. G. Zakrzewski, J. Gao, N. Rega, 
 G. Zheng, W. Liang, M. Hada, M. Ehara, K. Toyota, R. Fukuda, 
 J. Hasegawa, M. Ishida, T. Nakajima, Y. Honda, O. Kitao, H. Nakai, 
 T. Vreven, K. Throssell, J. A. Montgomery, Jr., J. E. Peralta, 
 F. Ogliaro, M. J. Bearpark, J. J. Heyd, E. N. Brothers, K. N. Kudin, 
 V. N. Staroverov, T. A. Keith, R. Kobayashi, J. Normand, 
 K. Raghavachari, A. P. Rendell, J. C. Burant, S. S. Iyengar, 
 J. Tomasi, M. Cossi, J. M. Millam, M. Klene, C. Adamo, R. Cammi, 
 J. W. Ochterski, R. L. Martin, K. Morokuma, O. Farkas, 
 J. B. Foresman, and D. J. Fox, Gaussian, Inc., Wallingford CT, 2019.
 
 ******************************************
 Gaussian 16:  ES64L-G16RevC.01  3-Jul-2019
                24-May-2025 
 ******************************************
 %mem=28GB
 %nprocshared=8
 Will use up to    8 processors via shared memory.
 ----------------------------------------------------------------------
 #P M062X/Def2TZVPP Symm(None) scf(xqc) pop(None) freq opt(CalcFC, Tigh
 t)
 ----------------------------------------------------------------------
 1/7=10,10=4,18=20,19=15,26=3,38=1/1,3;
 2/9=110,12=2,15=3,17=6,18=5,40=1/2;
 3/5=44,7=202,11=2,25=1,30=1,71=2,74=-55,140=1/1,2,3;
 4//1;
 5/5=2,8=3,13=1,38=5/2,8;
 8/6=4,10=90,11=11/1;
 11/6=1,8=1,9=11,15=111,16=1,31=1/1,2,10;
 10/6=1,13=1,31=1/2;
 7/10=1,25=1,30=1/1,2,3,16;
 1/7=10,10=4,18=20,19=15,26=3/3(2);
 2/9=110,15=3/2;
 99//99;
 2/9=110,15=3/2;
 3/5=44,7=202,11=2,25=1,30=1,71=1,74=-55/1,2,3;
 4/5=5,16=3,69=1/1;
 5/5=2,8=3,13=1,38=5/2,8;
 7/30=1/1,2,3,16;
 1/7=10,18=20,19=15,26=3/3(-5);
 2/9=110,15=3/2;
 99/9=1/99;
 Leave Link    1 at Sat May 24 09:56:42 2025, MaxMem=  3758096384 cpu:               0.0 elap:               0.0
 (Enter /apps/easybuild-2022/easybuild/software/Compiler/NVHPC/22.11-CUDA-11.7.0/Gaussian/g16c01-CUDA-11.7.0/g16/l101.exe)
 ------------------------------
 Gaussian input prepared by ASE
 ------------------------------
 Symbolic Z-matrix:
 Charge =  0 Multiplicity = 1
 C                     0.03963  -1.07172  -0.82827 
 C                     0.33953  -0.19075   0.38514 
 F                     0.65065  -0.92921   1.43291 
 S                     0.77487   1.48411   0.35052 
 O                     1.41517   1.971     1.51425 
 O                     0.82326   2.16183  -0.8895 
 O                    -0.65446   0.82148   0.65421 
 F                    -0.28551  -0.34082  -1.87621 
 F                     1.10825  -1.80195  -1.11379 
 F                    -0.96878  -1.88093  -0.533 
 
 ITRead=  0  0  0  0  0  0  0  0  0  0
 MicOpt= -1 -1 -1 -1 -1 -1 -1 -1 -1 -1
 NAtoms=     10 NQM=       10 NQMF=       0 NMMI=      0 NMMIF=      0
                NMic=       0 NMicF=      0.
                    Isotopes and Nuclear Properties:
 (Nuclear quadrupole moments (NQMom) in fm**2, nuclear magnetic moments (NMagM)
  in nuclear magnetons)

  Atom         1           2           3           4           5           6           7           8           9          10
 IAtWgt=          12          12          19          32          16          16          16          19          19          19
 AtmWgt=  12.0000000  12.0000000  18.9984032  31.9720718  15.9949146  15.9949146  15.9949146  18.9984032  18.9984032  18.9984032
 NucSpn=           0           0           1           0           0           0           0           1           1           1
 AtZEff=  -0.0000000  -0.0000000  -0.0000000  -0.0000000  -0.0000000  -0.0000000  -0.0000000  -0.0000000  -0.0000000  -0.0000000
 NQMom=    0.0000000   0.0000000   0.0000000   0.0000000   0.0000000   0.0000000   0.0000000   0.0000000   0.0000000   0.0000000
 NMagM=    0.0000000   0.0000000   2.6288670   0.0000000   0.0000000   0.0000000   0.0000000   2.6288670   2.6288670   2.6288670
 AtZNuc=   6.0000000   6.0000000   9.0000000  16.0000000   8.0000000   8.0000000   8.0000000   9.0000000   9.0000000   9.0000000
 Leave Link  101 at Sat May 24 09:56:42 2025, MaxMem=  3758096384 cpu:               0.2 elap:               0.2
 (Enter /apps/easybuild-2022/easybuild/software/Compiler/NVHPC/22.11-CUDA-11.7.0/Gaussian/g16c01-CUDA-11.7.0/g16/l103.exe)

 GradGradGradGradGradGradGradGradGradGradGradGradGradGradGradGradGradGrad
 Berny optimization.
 Initialization pass.
                           ----------------------------
                           !    Initial Parameters    !
                           ! (Angstroms and Degrees)  !
 --------------------------                            --------------------------
 ! Name  Definition              Value          Derivative Info.                !
 --------------------------------------------------------------------------------
 ! R1    R(1,2)                  1.5292         calculate D2E/DX2 analytically  !
 ! R2    R(1,8)                  1.3184         calculate D2E/DX2 analytically  !
 ! R3    R(1,9)                  1.3254         calculate D2E/DX2 analytically  !
 ! R4    R(1,10)                 1.3262         calculate D2E/DX2 analytically  !
 ! R5    R(2,3)                  1.3191         calculate D2E/DX2 analytically  !
 ! R6    R(2,4)                  1.7309         calculate D2E/DX2 analytically  !
 ! R7    R(2,7)                  1.444          calculate D2E/DX2 analytically  !
 ! R8    R(4,5)                  1.4147         calculate D2E/DX2 analytically  !
 ! R9    R(4,6)                  1.414          calculate D2E/DX2 analytically  !
 ! R10   R(4,7)                  1.6045         calculate D2E/DX2 analytically  !
 ! A1    A(2,1,8)              111.0823         calculate D2E/DX2 analytically  !
 ! A2    A(2,1,9)              109.2818         calculate D2E/DX2 analytically  !
 ! A3    A(2,1,10)             108.9031         calculate D2E/DX2 analytically  !
 ! A4    A(8,1,9)              109.4543         calculate D2E/DX2 analytically  !
 ! A5    A(8,1,10)             109.1302         calculate D2E/DX2 analytically  !
 ! A6    A(9,1,10)             108.9558         calculate D2E/DX2 analytically  !
 ! A7    A(1,2,3)              110.7341         calculate D2E/DX2 analytically  !
 ! A8    A(1,2,4)              126.2223         calculate D2E/DX2 analytically  !
 ! A9    A(1,2,7)              114.6271         calculate D2E/DX2 analytically  !
 ! A10   A(3,2,4)              119.8866         calculate D2E/DX2 analytically  !
 ! A11   A(3,2,7)              114.0038         calculate D2E/DX2 analytically  !
 ! A12   A(2,4,5)              115.4941         calculate D2E/DX2 analytically  !
 ! A13   A(2,4,6)              119.3369         calculate D2E/DX2 analytically  !
 ! A14   A(5,4,6)              122.7495         calculate D2E/DX2 analytically  !
 ! A15   A(5,4,7)              112.9325         calculate D2E/DX2 analytically  !
 ! A16   A(6,4,7)              113.2304         calculate D2E/DX2 analytically  !
 ! D1    D(8,1,2,3)            179.3604         calculate D2E/DX2 analytically  !
 ! D2    D(8,1,2,4)            -20.9678         calculate D2E/DX2 analytically  !
 ! D3    D(8,1,2,7)             48.6661         calculate D2E/DX2 analytically  !
 ! D4    D(9,1,2,3)            -59.7739         calculate D2E/DX2 analytically  !
 ! D5    D(9,1,2,4)             99.898          calculate D2E/DX2 analytically  !
 ! D6    D(9,1,2,7)            169.5319         calculate D2E/DX2 analytically  !
 ! D7    D(10,1,2,3)            59.1443         calculate D2E/DX2 analytically  !
 ! D8    D(10,1,2,4)          -141.1839         calculate D2E/DX2 analytically  !
 ! D9    D(10,1,2,7)           -71.55           calculate D2E/DX2 analytically  !
 ! D10   D(1,2,4,5)           -160.2728         calculate D2E/DX2 analytically  !
 ! D11   D(1,2,4,6)              2.5685         calculate D2E/DX2 analytically  !
 ! D12   D(3,2,4,5)             -2.2805         calculate D2E/DX2 analytically  !
 ! D13   D(3,2,4,6)            160.5608         calculate D2E/DX2 analytically  !
 --------------------------------------------------------------------------------
 Trust Radius=3.00D-01 FncErr=1.00D-07 GrdErr=1.00D-06 EigMax=2.50D+02 EigMin=1.00D-04
 Number of steps in this run=     49 maximum allowed number of steps=    100.
 GradGradGradGradGradGradGradGradGradGradGradGradGradGradGradGradGradGrad

 Leave Link  103 at Sat May 24 09:56:42 2025, MaxMem=  3758096384 cpu:               0.0 elap:               0.0
 (Enter /apps/easybuild-2022/easybuild/software/Compiler/NVHPC/22.11-CUDA-11.7.0/Gaussian/g16c01-CUDA-11.7.0/g16/l202.exe)
                          Input orientation:                          
 ---------------------------------------------------------------------
 Center     Atomic      Atomic             Coordinates (Angstroms)
 Number     Number       Type             X           Y           Z
 ---------------------------------------------------------------------
      1          6           0        0.039629   -1.071722   -0.828274
      2          6           0        0.339531   -0.190750    0.385140
      3          9           0        0.650652   -0.929213    1.432913
      4         16           0        0.774874    1.484113    0.350521
      5          8           0        1.415172    1.970998    1.514252
      6          8           0        0.823262    2.161828   -0.889495
      7          8           0       -0.654457    0.821475    0.654208
      8          9           0       -0.285514   -0.340819   -1.876214
      9          9           0        1.108255   -1.801954   -1.113793
     10          9           0       -0.968777   -1.880932   -0.533004
 ---------------------------------------------------------------------
                    Distance matrix (angstroms):
                    1          2          3          4          5
     1  C    0.000000
     2  C    1.529191   0.000000
     3  F    2.346620   1.319072   0.000000
     4  S    2.909027   1.730863   2.647857   0.000000
     5  O    4.078933   2.665530   3.000388   1.414676   0.000000
     6  O    3.327713   2.719065   3.870130   1.413959   2.482896
     7  O    2.502739   1.443956   2.318318   1.604463   2.518818
     8  F    1.318376   2.350941   3.488973   3.068085   4.442082
     9  F    1.325414   2.331033   2.730712   3.612976   4.608252
    10  F    1.326231   2.326236   2.719035   3.891589   4.971100
                    6          7          8          9         10
     6  O    0.000000
     7  O    2.522542   0.000000
     8  F    2.909680   2.808929   0.000000
     9  F    3.980339   3.621514   2.158424   0.000000
    10  F    4.436485   2.968379   2.154764   2.158151   0.000000
 Symmetry turned off by external request.
 Stoichiometry    C2F4O3S
 Rotational constants (GHZ):           2.1569458           0.9734570           0.8324879
 Leave Link  202 at Sat May 24 09:56:42 2025, MaxMem=  3758096384 cpu:               0.0 elap:               0.0
 (Enter /apps/easybuild-2022/easybuild/software/Compiler/NVHPC/22.11-CUDA-11.7.0/Gaussian/g16c01-CUDA-11.7.0/g16/l301.exe)
 Standard basis: def2TZVPP (5D, 7F)
 Ernie: Thresh=  0.10000D-02 Tol=  0.10000D-05 Strict=F.
   321 basis functions,   528 primitive gaussians,   372 cartesian basis functions
    44 alpha electrons       44 beta electrons
       nuclear repulsion energy       762.8832124327 Hartrees.
 IExCor= 4336 DFT=T Ex+Corr=M062X ExCW=0 ScaHFX=  0.540000
 ScaDFX=  1.000000  1.000000  1.000000  1.000000 ScalE2=  1.000000  1.000000
 IRadAn=      5 IRanWt=     -1 IRanGd=            0 ICorTp=0 IEmpDi=  4
 NAtoms=   10 NActive=   10 NUniq=   10 SFac= 1.00D+00 NAtFMM=   60 NAOKFM=F Big=F
 Integral buffers will be    131072 words long.
 Raffenetti 2 integral format.
 Two-electron integral symmetry is turned off.
 Leave Link  301 at Sat May 24 09:56:42 2025, MaxMem=  3758096384 cpu:               0.0 elap:               0.0
 (Enter /apps/easybuild-2022/easybuild/software/Compiler/NVHPC/22.11-CUDA-11.7.0/Gaussian/g16c01-CUDA-11.7.0/g16/l302.exe)
 NPDir=0 NMtPBC=     1 NCelOv=     1 NCel=       1 NClECP=     1 NCelD=      1
         NCelK=      1 NCelE2=     1 NClLst=     1 CellRange=     0.0.
 One-electron integrals computed using PRISM.
   1 Symmetry operations used in ECPInt.
 ECPInt:  NShTT=    6441 NPrTT=   21761 LenC2=    6072 LenP2D=   15309.
 LDataN:  DoStor=T MaxTD1= 6 Len=  172
 NBasis=   321 RedAO= T EigKep=  4.21D-04  NBF=   321
 NBsUse=   321 1.00D-06 EigRej= -1.00D+00 NBFU=   321
 Precomputing XC quadrature grid using
 IXCGrd= 4 IRadAn=           5 IRanWt=          -1 IRanGd=           0 AccXCQ= 0.00D+00.
 Generated NRdTot=       0 NPtTot=           0 NUsed=           0 NTot=          32
 NSgBfM=   370   370   370   370   370 MxSgAt=    10 MxSgA2=    10.
 Leave Link  302 at Sat May 24 09:56:42 2025, MaxMem=  3758096384 cpu:               0.6 elap:               0.1
 (Enter /apps/easybuild-2022/easybuild/software/Compiler/NVHPC/22.11-CUDA-11.7.0/Gaussian/g16c01-CUDA-11.7.0/g16/l303.exe)
 DipDrv:  MaxL=1.
 Leave Link  303 at Sat May 24 09:56:42 2025, MaxMem=  3758096384 cpu:               0.1 elap:               0.0
 (Enter /apps/easybuild-2022/easybuild/software/Compiler/NVHPC/22.11-CUDA-11.7.0/Gaussian/g16c01-CUDA-11.7.0/g16/l401.exe)
 ExpMin= 9.52D-02 ExpMax= 6.07D+04 ExpMxC= 2.07D+03 IAcc=3 IRadAn=         5 AccDes= 0.00D+00
 Harris functional with IExCor= 1009 and IRadAn=       5 diagonalized for initial guess.
 HarFok:  IExCor= 1009 AccDes= 0.00D+00 IRadAn=         5 IDoV= 1 UseB2=F ITyADJ=14
 ICtDFT=  3500011 ScaDFX=  1.000000  1.000000  1.000000  1.000000
 FoFCou: FMM=F IPFlag=           0 FMFlag=      100000 FMFlg1=           0
         NFxFlg=           0 DoJE=T BraDBF=F KetDBF=T FulRan=T
         wScrn=  0.000000 ICntrl=       500 IOpCl=  0 I1Cent=   200000004 NGrid=           0
         NMat0=    1 NMatS0=      1 NMatT0=    0 NMatD0=    1 NMtDS0=    0 NMtDT0=    0
 Symmetry not used in FoFCou.
 Harris En= -1098.87967965530    
 JPrj=0 DoOrth=F DoCkMO=F.
 Leave Link  401 at Sat May 24 09:56:43 2025, MaxMem=  3758096384 cpu:               3.3 elap:               0.5
 (Enter /apps/easybuild-2022/easybuild/software/Compiler/NVHPC/22.11-CUDA-11.7.0/Gaussian/g16c01-CUDA-11.7.0/g16/l502.exe)
 Keep R1 ints in memory in canonical form, NReq=1361437093.
 FoFCou: FMM=F IPFlag=           0 FMFlag=           0 FMFlg1=           0
         NFxFlg=           0 DoJE=F BraDBF=F KetDBF=F FulRan=T
         wScrn=  0.000000 ICntrl=       600 IOpCl=  0 I1Cent=           0 NGrid=           0
         NMat0=    1 NMatS0=  51681 NMatT0=    0 NMatD0=    1 NMtDS0=    0 NMtDT0=    0
 Symmetry not used in FoFCou.
 Two-electron integral symmetry not used.
 Closed shell SCF:
 Using DIIS extrapolation, IDIIS=  1040.
 NGot=  3758096384 LenX=  2422325353 LenY=  2422186528
 Requested convergence on RMS density matrix=1.00D-08 within  32 cycles.
 Requested convergence on MAX density matrix=1.00D-06.
 Requested convergence on             energy=1.00D-06.
 No special actions if energy rises.
 Integral accuracy reduced to 1.0D-05 until final iterations.

 Cycle   1  Pass 0  IDiag  1:
 E= -1099.14668144080    
 DIIS: error= 3.40D-02 at cycle   1 NSaved=   1.
 NSaved= 1 IEnMin= 1 EnMin= -1099.14668144080     IErMin= 1 ErrMin= 3.40D-02
 ErrMax= 3.40D-02  0.00D+00 EMaxC= 1.00D-01 BMatC= 5.38D-01 BMatP= 5.38D-01
 IDIUse=3 WtCom= 6.60D-01 WtEn= 3.40D-01
 Coeff-Com:  0.100D+01
 Coeff-En:   0.100D+01
 Coeff:      0.100D+01
 Gap=     0.398 Goal=   None    Shift=    0.000
 GapD=    0.398 DampG=1.000 DampE=0.500 DampFc=0.5000 IDamp=-1.
 Damping current iteration by 5.00D-01
 RMSDP=2.70D-03 MaxDP=2.59D-01              OVMax= 2.43D-01

 Cycle   2  Pass 0  IDiag  1:
 E= -1099.23197624326     Delta-E=       -0.085294802453 Rises=F Damp=T
 DIIS: error= 9.82D-03 at cycle   2 NSaved=   2.
 NSaved= 2 IEnMin= 2 EnMin= -1099.23197624326     IErMin= 2 ErrMin= 9.82D-03
 ErrMax= 9.82D-03  0.00D+00 EMaxC= 1.00D-01 BMatC= 5.72D-02 BMatP= 5.38D-01
 IDIUse=3 WtCom= 9.02D-01 WtEn= 9.82D-02
 Coeff-Com:  0.122D+00 0.878D+00
 Coeff-En:   0.316D+00 0.684D+00
 Coeff:      0.141D+00 0.859D+00
 Gap=     0.446 Goal=   None    Shift=    0.000
 RMSDP=6.99D-04 MaxDP=5.01D-02 DE=-8.53D-02 OVMax= 1.39D-01

 Cycle   3  Pass 0  IDiag  1:
 E= -1099.41540164092     Delta-E=       -0.183425397661 Rises=F Damp=F
 DIIS: error= 6.26D-03 at cycle   3 NSaved=   3.
 NSaved= 3 IEnMin= 3 EnMin= -1099.41540164092     IErMin= 3 ErrMin= 6.26D-03
 ErrMax= 6.26D-03  0.00D+00 EMaxC= 1.00D-01 BMatC= 1.11D-02 BMatP= 5.72D-02
 IDIUse=3 WtCom= 9.37D-01 WtEn= 6.26D-02
 Coeff-Com: -0.517D-01 0.244D+00 0.808D+00
 Coeff-En:   0.000D+00 0.000D+00 0.100D+01
 Coeff:     -0.485D-01 0.229D+00 0.820D+00
 Gap=     0.411 Goal=   None    Shift=    0.000
 RMSDP=3.12D-04 MaxDP=1.59D-02 DE=-1.83D-01 OVMax= 3.51D-02

 Cycle   4  Pass 0  IDiag  1:
 E= -1099.42149425353     Delta-E=       -0.006092612613 Rises=F Damp=F
 DIIS: error= 1.96D-03 at cycle   4 NSaved=   4.
 NSaved= 4 IEnMin= 4 EnMin= -1099.42149425353     IErMin= 4 ErrMin= 1.96D-03
 ErrMax= 1.96D-03  0.00D+00 EMaxC= 1.00D-01 BMatC= 3.25D-03 BMatP= 1.11D-02
 IDIUse=3 WtCom= 9.80D-01 WtEn= 1.96D-02
 Coeff-Com: -0.316D-01 0.710D-01 0.434D+00 0.526D+00
 Coeff-En:   0.000D+00 0.000D+00 0.182D+00 0.818D+00
 Coeff:     -0.310D-01 0.696D-01 0.429D+00 0.532D+00
 Gap=     0.406 Goal=   None    Shift=    0.000
 RMSDP=1.10D-04 MaxDP=5.13D-03 DE=-6.09D-03 OVMax= 1.26D-02

 Cycle   5  Pass 0  IDiag  1:
 E= -1099.42363734443     Delta-E=       -0.002143090902 Rises=F Damp=F
 DIIS: error= 4.96D-04 at cycle   5 NSaved=   5.
 NSaved= 5 IEnMin= 5 EnMin= -1099.42363734443     IErMin= 5 ErrMin= 4.96D-04
 ErrMax= 4.96D-04  0.00D+00 EMaxC= 1.00D-01 BMatC= 1.55D-04 BMatP= 3.25D-03
 IDIUse=3 WtCom= 9.95D-01 WtEn= 4.96D-03
 Coeff-Com: -0.101D-01 0.155D-01 0.137D+00 0.244D+00 0.613D+00
 Coeff-En:   0.000D+00 0.000D+00 0.000D+00 0.000D+00 0.100D+01
 Coeff:     -0.100D-01 0.154D-01 0.136D+00 0.243D+00 0.615D+00
 Gap=     0.407 Goal=   None    Shift=    0.000
 RMSDP=2.62D-05 MaxDP=1.36D-03 DE=-2.14D-03 OVMax= 2.32D-03

 Cycle   6  Pass 0  IDiag  1:
 E= -1099.42373563442     Delta-E=       -0.000098289984 Rises=F Damp=F
 DIIS: error= 1.18D-04 at cycle   6 NSaved=   6.
 NSaved= 6 IEnMin= 6 EnMin= -1099.42373563442     IErMin= 6 ErrMin= 1.18D-04
 ErrMax= 1.18D-04  0.00D+00 EMaxC= 1.00D-01 BMatC= 1.55D-05 BMatP= 1.55D-04
 IDIUse=3 WtCom= 9.99D-01 WtEn= 1.18D-03
 Coeff-Com: -0.145D-02 0.249D-03 0.139D-01 0.508D-01 0.284D+00 0.653D+00
 Coeff-En:   0.000D+00 0.000D+00 0.000D+00 0.000D+00 0.000D+00 0.100D+01
 Coeff:     -0.145D-02 0.249D-03 0.138D-01 0.507D-01 0.283D+00 0.653D+00
 Gap=     0.407 Goal=   None    Shift=    0.000
 RMSDP=8.36D-06 MaxDP=3.40D-04 DE=-9.83D-05 OVMax= 8.80D-04

 Initial convergence to 1.0D-05 achieved.  Increase integral accuracy.
 Cycle   7  Pass 1  IDiag  1:
 E= -1099.42380610238     Delta-E=       -0.000070467960 Rises=F Damp=F
 DIIS: error= 3.96D-05 at cycle   1 NSaved=   1.
 NSaved= 1 IEnMin= 1 EnMin= -1099.42380610238     IErMin= 1 ErrMin= 3.96D-05
 ErrMax= 3.96D-05  0.00D+00 EMaxC= 1.00D-01 BMatC= 1.25D-06 BMatP= 1.25D-06
 IDIUse=1 WtCom= 1.00D+00 WtEn= 0.00D+00
 Coeff-Com:  0.100D+01
 Coeff:      0.100D+01
 Gap=     0.407 Goal=   None    Shift=    0.000
 RMSDP=8.36D-06 MaxDP=3.40D-04 DE=-7.05D-05 OVMax= 2.36D-04

 Cycle   8  Pass 1  IDiag  1:
 E= -1099.42380668906     Delta-E=       -0.000000586686 Rises=F Damp=F
 DIIS: error= 3.20D-05 at cycle   2 NSaved=   2.
 NSaved= 2 IEnMin= 2 EnMin= -1099.42380668906     IErMin= 2 ErrMin= 3.20D-05
 ErrMax= 3.20D-05  0.00D+00 EMaxC= 1.00D-01 BMatC= 6.04D-07 BMatP= 1.25D-06
 IDIUse=1 WtCom= 1.00D+00 WtEn= 0.00D+00
 Coeff-Com:  0.387D+00 0.613D+00
 Coeff:      0.387D+00 0.613D+00
 Gap=     0.407 Goal=   None    Shift=    0.000
 RMSDP=1.78D-06 MaxDP=1.49D-04 DE=-5.87D-07 OVMax= 1.13D-04

 Cycle   9  Pass 1  IDiag  1:
 E= -1099.42380702343     Delta-E=       -0.000000334361 Rises=F Damp=F
 DIIS: error= 1.33D-05 at cycle   3 NSaved=   3.
 NSaved= 3 IEnMin= 3 EnMin= -1099.42380702343     IErMin= 3 ErrMin= 1.33D-05
 ErrMax= 1.33D-05  0.00D+00 EMaxC= 1.00D-01 BMatC= 9.68D-08 BMatP= 6.04D-07
 IDIUse=1 WtCom= 1.00D+00 WtEn= 0.00D+00
 Coeff-Com:  0.577D-02 0.274D+00 0.720D+00
 Coeff:      0.577D-02 0.274D+00 0.720D+00
 Gap=     0.407 Goal=   None    Shift=    0.000
 RMSDP=7.07D-07 MaxDP=3.81D-05 DE=-3.34D-07 OVMax= 6.80D-05

 Cycle  10  Pass 1  IDiag  1:
 E= -1099.42380707952     Delta-E=       -0.000000056097 Rises=F Damp=F
 DIIS: error= 6.62D-06 at cycle   4 NSaved=   4.
 NSaved= 4 IEnMin= 4 EnMin= -1099.42380707952     IErMin= 4 ErrMin= 6.62D-06
 ErrMax= 6.62D-06  0.00D+00 EMaxC= 1.00D-01 BMatC= 1.35D-08 BMatP= 9.68D-08
 IDIUse=1 WtCom= 1.00D+00 WtEn= 0.00D+00
 Coeff-Com: -0.296D-01 0.101D+00 0.381D+00 0.548D+00
 Coeff:     -0.296D-01 0.101D+00 0.381D+00 0.548D+00
 Gap=     0.407 Goal=   None    Shift=    0.000
 RMSDP=2.58D-07 MaxDP=1.32D-05 DE=-5.61D-08 OVMax= 2.41D-05

 Cycle  11  Pass 1  IDiag  1:
 E= -1099.42380708870     Delta-E=       -0.000000009176 Rises=F Damp=F
 DIIS: error= 9.93D-07 at cycle   5 NSaved=   5.
 NSaved= 5 IEnMin= 5 EnMin= -1099.42380708870     IErMin= 5 ErrMin= 9.93D-07
 ErrMax= 9.93D-07  0.00D+00 EMaxC= 1.00D-01 BMatC= 6.54D-10 BMatP= 1.35D-08
 IDIUse=1 WtCom= 1.00D+00 WtEn= 0.00D+00
 Coeff-Com: -0.102D-01 0.349D-02 0.377D-01 0.175D+00 0.794D+00
 Coeff:     -0.102D-01 0.349D-02 0.377D-01 0.175D+00 0.794D+00
 Gap=     0.407 Goal=   None    Shift=    0.000
 RMSDP=8.96D-08 MaxDP=4.75D-06 DE=-9.18D-09 OVMax= 8.88D-06

 Cycle  12  Pass 1  IDiag  1:
 E= -1099.42380708942     Delta-E=       -0.000000000725 Rises=F Damp=F
 DIIS: error= 4.36D-07 at cycle   6 NSaved=   6.
 NSaved= 6 IEnMin= 6 EnMin= -1099.42380708942     IErMin= 6 ErrMin= 4.36D-07
 ErrMax= 4.36D-07  0.00D+00 EMaxC= 1.00D-01 BMatC= 1.06D-10 BMatP= 6.54D-10
 IDIUse=1 WtCom= 1.00D+00 WtEn= 0.00D+00
 Coeff-Com:  0.124D-02-0.157D-01-0.508D-01-0.308D-01 0.306D+00 0.790D+00
 Coeff:      0.124D-02-0.157D-01-0.508D-01-0.308D-01 0.306D+00 0.790D+00
 Gap=     0.407 Goal=   None    Shift=    0.000
 RMSDP=3.68D-08 MaxDP=1.25D-06 DE=-7.25D-10 OVMax= 4.92D-06

 Cycle  13  Pass 1  IDiag  1:
 E= -1099.42380708940     Delta-E=        0.000000000027 Rises=F Damp=F
 DIIS: error= 1.53D-07 at cycle   7 NSaved=   7.
 NSaved= 7 IEnMin= 6 EnMin= -1099.42380708942     IErMin= 7 ErrMin= 1.53D-07
 ErrMax= 1.53D-07  0.00D+00 EMaxC= 1.00D-01 BMatC= 1.46D-11 BMatP= 1.06D-10
 IDIUse=1 WtCom= 1.00D+00 WtEn= 0.00D+00
 Coeff-Com:  0.107D-02-0.750D-02-0.254D-01-0.248D-01 0.100D+00 0.389D+00
 Coeff-Com:  0.567D+00
 Coeff:      0.107D-02-0.750D-02-0.254D-01-0.248D-01 0.100D+00 0.389D+00
 Coeff:      0.567D+00
 Gap=     0.407 Goal=   None    Shift=    0.000
 RMSDP=9.16D-09 MaxDP=3.86D-07 DE= 2.66D-11 OVMax= 7.72D-07

 SCF Done:  E(RM062X) =  -1099.42380709     A.U. after   13 cycles
            NFock= 13  Conv=0.92D-08     -V/T= 2.0028
 KE= 1.096364850655D+03 PE=-4.131638012071D+03 EE= 1.172966141893D+03
 Leave Link  502 at Sat May 24 09:57:07 2025, MaxMem=  3758096384 cpu:             102.3 elap:              23.9
 (Enter /apps/easybuild-2022/easybuild/software/Compiler/NVHPC/22.11-CUDA-11.7.0/Gaussian/g16c01-CUDA-11.7.0/g16/l508.exe)
 QCSCF skips out because SCF is already converged.
 Leave Link  508 at Sat May 24 09:57:07 2025, MaxMem=  3758096384 cpu:               0.0 elap:               0.0
 (Enter /apps/easybuild-2022/easybuild/software/Compiler/NVHPC/22.11-CUDA-11.7.0/Gaussian/g16c01-CUDA-11.7.0/g16/l801.exe)
 DoSCS=F DFT=T ScalE2(SS,OS)=  1.000000  1.000000
 Range of M.O.s used for correlation:     1   321
 NBasis=   321 NAE=    44 NBE=    44 NFC=     0 NFV=     0
 NROrb=    321 NOA=    44 NOB=    44 NVA=   277 NVB=   277

 **** Warning!!: The largest alpha MO coefficient is  0.17178891D+02

 Leave Link  801 at Sat May 24 09:57:07 2025, MaxMem=  3758096384 cpu:               0.0 elap:               0.0
 (Enter /apps/easybuild-2022/easybuild/software/Compiler/NVHPC/22.11-CUDA-11.7.0/Gaussian/g16c01-CUDA-11.7.0/g16/l1101.exe)
 Using compressed storage, NAtomX=    10.
 Will process     11 centers per pass.
   1 Symmetry operations used in ECPInt.
 ECPInt:  NShTT=    6441 NPrTT=   21761 LenC2=    6072 LenP2D=   15309.
 LDataN:  DoStor=T MaxTD1= 7 Len=  274
 Leave Link 1101 at Sat May 24 09:57:07 2025, MaxMem=  3758096384 cpu:               0.9 elap:               0.2
 (Enter /apps/easybuild-2022/easybuild/software/Compiler/NVHPC/22.11-CUDA-11.7.0/Gaussian/g16c01-CUDA-11.7.0/g16/l1102.exe)
 Symmetrizing basis deriv contribution to polar:
 IMax=3 JMax=2 DiffMx= 0.00D+00
 Leave Link 1102 at Sat May 24 09:57:07 2025, MaxMem=  3758096384 cpu:               0.1 elap:               0.0
 (Enter /apps/easybuild-2022/easybuild/software/Compiler/NVHPC/22.11-CUDA-11.7.0/Gaussian/g16c01-CUDA-11.7.0/g16/l1110.exe)
 Forming Gx(P) for the SCF density, NAtomX=    10.
 Integral derivatives from FoFJK, PRISM(SPDF).
 Do as many integral derivatives as possible in FoFJK.
 G2DrvN: MDV=    3758095218.
 G2DrvN: will do    11 centers at a time, making    1 passes.
 Calling FoFCou, ICntrl=  3107 FMM=F I1Cent=   0 AccDes= 0.00D+00.
 FoFJK:  IHMeth= 1 ICntrl=    3107 DoSepK=F KAlg= 0 I1Cent=           0 FoldK=F
 IRaf=         0 NMat=       1 IRICut=       1 DoRegI=T DoRafI=F ISym2E= 0 IDoP0=0 IntGTp=1.
 FoFCou: FMM=F IPFlag=           0 FMFlag=      100000 FMFlg1=           0
         NFxFlg=           0 DoJE=F BraDBF=F KetDBF=F FulRan=T
         wScrn=  0.000000 ICntrl=      3107 IOpCl=  0 I1Cent=           0 NGrid=           0
         NMat0=    1 NMatS0=      1 NMatT0=    0 NMatD0=    1 NMtDS0=    0 NMtDT0=    0
 Symmetry not used in FoFCou.
 End of G2Drv F.D. properties file   721 does not exist.
 End of G2Drv F.D. properties file   722 does not exist.
 End of G2Drv F.D. properties file   788 does not exist.
 Leave Link 1110 at Sat May 24 09:57:43 2025, MaxMem=  3758096384 cpu:             284.6 elap:              35.9
 (Enter /apps/easybuild-2022/easybuild/software/Compiler/NVHPC/22.11-CUDA-11.7.0/Gaussian/g16c01-CUDA-11.7.0/g16/l1002.exe)
 Minotr:  Closed shell wavefunction.
          IDoAtm=1111111111
          Direct CPHF calculation.
          Differentiating once with respect to nuclear coordinates.
          Requested convergence is 1.0D-08 RMS, and 1.0D-07 maximum.
          Secondary convergence is 1.0D-12 RMS, and 1.0D-12 maximum.
          NewPWx=T KeepS1=F KeepF1=F KeepIn=T MapXYZ=F SortEE=F KeepMc=T.
         2995 words used for storage of precomputed grid.
 Keep R1 ints in memory in canonical form, NReq=1361442095.
 FoFCou: FMM=F IPFlag=           0 FMFlag=           0 FMFlg1=           0
         NFxFlg=           0 DoJE=F BraDBF=F KetDBF=F FulRan=T
         wScrn=  0.000000 ICntrl=       600 IOpCl=  0 I1Cent=           0 NGrid=           0
         NMat0=    1 NMatS0=  51681 NMatT0=    0 NMatD0=    1 NMtDS0=    0 NMtDT0=    0
 Symmetry not used in FoFCou.
 Two-electron integral symmetry not used.
          MDV=    3758096384 using IRadAn=       1.
          Solving linear equations simultaneously, MaxMat=       0.
          There are    33 degrees of freedom in the 1st order CPHF.  IDoFFX=6 NUNeed=     0.
     27 vectors produced by pass  0 Test12= 3.69D-14 3.03D-09 XBig12= 2.36D-01 1.19D-01.
 AX will form    27 AO Fock derivatives at one time.
     27 vectors produced by pass  1 Test12= 3.69D-14 3.03D-09 XBig12= 3.55D-02 3.78D-02.
     27 vectors produced by pass  2 Test12= 3.69D-14 3.03D-09 XBig12= 2.26D-03 7.72D-03.
     27 vectors produced by pass  3 Test12= 3.69D-14 3.03D-09 XBig12= 3.97D-05 1.43D-03.
     27 vectors produced by pass  4 Test12= 3.69D-14 3.03D-09 XBig12= 6.53D-07 1.65D-04.
     27 vectors produced by pass  5 Test12= 3.69D-14 3.03D-09 XBig12= 9.81D-09 1.31D-05.
     27 vectors produced by pass  6 Test12= 3.69D-14 3.03D-09 XBig12= 8.96D-11 1.60D-06.
     20 vectors produced by pass  7 Test12= 3.69D-14 3.03D-09 XBig12= 6.98D-13 9.93D-08.
      7 vectors produced by pass  8 Test12= 3.69D-14 3.03D-09 XBig12= 4.92D-15 7.08D-09.
 InvSVY:  IOpt=1 It=  1 EMax= 8.88D-16
 Solved reduced A of dimension   216 with    27 vectors.
 End of Minotr F.D. properties file   721 does not exist.
 End of Minotr F.D. properties file   722 does not exist.
 End of Minotr F.D. properties file   788 does not exist.
 Leave Link 1002 at Sat May 24 09:58:36 2025, MaxMem=  3758096384 cpu:             414.5 elap:              52.7
 (Enter /apps/easybuild-2022/easybuild/software/Compiler/NVHPC/22.11-CUDA-11.7.0/Gaussian/g16c01-CUDA-11.7.0/g16/l701.exe)
 ... and contract with generalized density number  0.
 Compute integral second derivatives.
   1 Symmetry operations used in ECPInt.
 ECPInt:  NShTT=    6441 NPrTT=   21761 LenC2=    6072 LenP2D=   15309.
 LDataN:  DoStor=T MaxTD1= 8 Len=  415
 Leave Link  701 at Sat May 24 09:58:36 2025, MaxMem=  3758096384 cpu:               0.7 elap:               0.1
 (Enter /apps/easybuild-2022/easybuild/software/Compiler/NVHPC/22.11-CUDA-11.7.0/Gaussian/g16c01-CUDA-11.7.0/g16/l702.exe)
 L702 exits ... SP integral derivatives will be done elsewhere.
 Leave Link  702 at Sat May 24 09:58:36 2025, MaxMem=  3758096384 cpu:               0.0 elap:               0.0
 (Enter /apps/easybuild-2022/easybuild/software/Compiler/NVHPC/22.11-CUDA-11.7.0/Gaussian/g16c01-CUDA-11.7.0/g16/l703.exe)
 Integral derivatives from FoFJK, PRISM(SPDF).
 Compute integral second derivatives, UseDBF=F ICtDFT=           0.
 Calling FoFJK, ICntrl=    100127 FMM=F ISym2X=0 I1Cent= 0 IOpClX= 0 NMat=1 NMatS=1 NMatT=0.
 FoFJK:  IHMeth= 1 ICntrl=  100127 DoSepK=F KAlg= 0 I1Cent=           0 FoldK=F
 IRaf=         0 NMat=       1 IRICut=       1 DoRegI=T DoRafI=F ISym2E= 0 IDoP0=0 IntGTp=1.
 FoFCou: FMM=F IPFlag=           0 FMFlag=      100000 FMFlg1=         800
         NFxFlg=           0 DoJE=F BraDBF=F KetDBF=F FulRan=T
         wScrn=  0.000000 ICntrl=    100127 IOpCl=  0 I1Cent=           0 NGrid=           0
         NMat0=    1 NMatS0=      1 NMatT0=    0 NMatD0=    1 NMtDS0=    0 NMtDT0=    0
 Symmetry not used in FoFCou.
 Leave Link  703 at Sat May 24 09:59:58 2025, MaxMem=  3758096384 cpu:             651.8 elap:              82.0
 (Enter /apps/easybuild-2022/easybuild/software/Compiler/NVHPC/22.11-CUDA-11.7.0/Gaussian/g16c01-CUDA-11.7.0/g16/l716.exe)
 Dipole        =-6.44403995D-02-5.37155291D-01-6.27432503D-02
 Polarizability= 0.00000000D+00 0.00000000D+00 0.00000000D+00
                 0.00000000D+00 0.00000000D+00 0.00000000D+00
 -------------------------------------------------------------------
 Center     Atomic                   Forces (Hartrees/Bohr)
 Number     Number              X              Y              Z
 -------------------------------------------------------------------
      1        6          -0.000005865    0.000002810   -0.000000006
      2        6           0.000003392   -0.000002260    0.000000672
      3        9           0.000010331   -0.000000475   -0.000000712
      4       16          -0.000003405    0.000001840   -0.000000911
      5        8           0.000001019   -0.000000154   -0.000002345
      6        8          -0.000008498    0.000002776    0.000001822
      7        8           0.000001450   -0.000003185    0.000004741
      8        9          -0.000005799    0.000000004    0.000001531
      9        9           0.000003469    0.000002102   -0.000006821
     10        9           0.000003905   -0.000003458    0.000002030
 -------------------------------------------------------------------
 Cartesian Forces:  Max     0.000010331 RMS     0.000003819
 Force constants in Cartesian coordinates: 
                1             2             3             4             5 
      1  0.581475D+00
      2 -0.740299D-02  0.605482D+00
      3  0.153765D-01  0.343484D-02  0.625612D+00
      4 -0.601327D-01 -0.228256D-01 -0.130251D-01  0.302121D+00
      5 -0.327536D-01 -0.982141D-01 -0.604567D-01  0.143501D-01  0.618974D+00
      6 -0.328477D-01 -0.872082D-01 -0.149173D+00  0.573713D-01 -0.200798D-01
      7 -0.136991D-02  0.871573D-02 -0.113443D-01 -0.692634D-01  0.208775D-01
      8  0.102422D-02 -0.148919D-03 -0.808775D-03  0.323270D-01 -0.153254D+00
      9 -0.907796D-02  0.400469D-01 -0.348679D-01 -0.511625D-01  0.122083D+00
     10 -0.578886D-02 -0.273373D-02  0.592688D-02  0.479467D-01 -0.829426D-01
     11 -0.776679D-02 -0.174759D-01 -0.285535D-01 -0.810988D-01 -0.254003D+00
     12 -0.937410D-02 -0.199538D-01  0.227696D-01 -0.307772D-01 -0.119490D-01
     13  0.296350D-03  0.120703D-02  0.107005D-02 -0.688737D-02  0.280572D-02
     14 -0.329431D-02  0.312386D-02  0.126367D-01  0.170426D-02  0.327527D-02
     15 -0.187099D-02  0.441869D-02  0.436685D-02  0.105102D-01  0.102035D-01
     16 -0.653153D-03  0.106036D-02 -0.265844D-02 -0.122496D-01 -0.125218D-02
     17  0.357884D-03  0.458936D-02  0.734471D-02  0.183578D-01  0.123851D-01
     18  0.104671D-02  0.359478D-02 -0.130965D-01 -0.790116D-02 -0.636213D-02
     19 -0.190213D-02  0.297579D-02 -0.907928D-02 -0.169956D+00  0.837468D-01
     20  0.305980D-01 -0.144653D-01  0.326563D-02  0.408114D-01 -0.832168D-01
     21  0.237611D-01 -0.440663D-02 -0.154410D-02  0.420021D-01 -0.266804D-01
     22 -0.935011D-01  0.289746D-01 -0.591589D-01  0.228211D-02  0.107896D-01
     23  0.310390D-01 -0.137359D+00  0.989236D-01  0.124128D-02  0.507438D-02
     24 -0.573586D-01  0.917454D-01 -0.265247D+00 -0.140333D-01  0.298084D-01
     25 -0.209572D+00  0.106990D+00  0.531813D-01 -0.995831D-02  0.128299D-01
     26  0.105590D+00 -0.165732D+00 -0.499163D-01  0.325169D-01 -0.182906D-01
     27  0.499796D-01 -0.468812D-01 -0.104267D+00  0.252927D-01 -0.193493D-01
     28 -0.208851D+00 -0.116961D+00  0.197113D-01 -0.239022D-01 -0.284514D-01
     29 -0.117392D+00 -0.179800D+00  0.141298D-01 -0.373844D-01 -0.327301D-01
     30  0.203656D-01  0.152092D-01 -0.845536D-01 -0.182770D-01 -0.172174D-01
                6             7             8             9            10 
      6  0.563164D+00
      7 -0.505013D-01  0.666984D-01
      8  0.141663D+00 -0.600655D-01  0.193387D+00
      9 -0.280013D+00  0.797738D-01 -0.174930D+00  0.321226D+00
     10 -0.267121D-01 -0.758977D-02  0.117111D-01 -0.194824D-02  0.491410D+00
     11  0.228243D-01  0.450978D-02 -0.705003D-02 -0.112123D-02  0.221079D+00
     12 -0.227821D-01  0.123783D-01  0.285861D-01 -0.217788D-01  0.203629D+00
     13 -0.215739D-02  0.121996D-02 -0.231079D-02  0.208315D-02 -0.198272D+00
     14 -0.306874D-01  0.125226D-02 -0.195591D-03  0.270366D-02 -0.110521D+00
     15 -0.177087D-01  0.526919D-03 -0.579556D-02  0.917967D-02 -0.244092D+00
     16  0.488911D-02  0.344735D-02 -0.284204D-03 -0.114137D-02 -0.705468D-01
     17  0.880643D-02 -0.407898D-02 -0.100518D-01  0.803271D-02 -0.191763D-01
     18  0.484448D-02  0.547237D-03  0.428895D-02 -0.761653D-03  0.178524D-01
     19  0.539326D-01  0.268616D-02  0.201387D-01 -0.162081D-01 -0.246783D+00
     20 -0.334568D-01  0.308711D-01 -0.309925D-01  0.148652D-01 -0.203323D-01
     21 -0.668777D-01 -0.281634D-01  0.146093D-01  0.141645D-01  0.440349D-01
     22 -0.110054D-01 -0.505565D-04 -0.163027D-02 -0.368782D-02 -0.206562D-02
     23 -0.191852D-02 -0.681148D-03  0.174211D-02 -0.414522D-02  0.173420D-02
     24 -0.341071D-01 -0.346268D-02 -0.481489D-02 -0.115988D-01 -0.893978D-03
     25  0.192640D-02  0.242935D-02 -0.238853D-02  0.210638D-02 -0.465839D-02
     26 -0.615905D-02 -0.290235D-02  0.297528D-02 -0.382616D-02  0.632702D-02
     27 -0.211937D-02  0.891046D-04 -0.830244D-03  0.109187D-02  0.494109D-02
     28  0.510447D-02  0.179240D-02  0.147828D-02 -0.737385D-03 -0.365272D-02
     29  0.621559D-02  0.150163D-02  0.358805D-02 -0.370886D-02 -0.514540D-02
     30  0.477212D-02  0.156326D-03 -0.196857D-02  0.335760D-02 -0.273736D-02
               11            12            13            14            15 
     11  0.767223D+00
     12 -0.981322D-01  0.118662D+01
     13 -0.945887D-01 -0.235547D+00  0.193504D+00
     14 -0.173958D+00 -0.185186D+00  0.124286D+00  0.143676D+00
     15 -0.185495D+00 -0.513039D+00  0.260015D+00  0.188985D+00  0.527483D+00
     16 -0.378503D-02  0.107466D-01  0.143145D-01  0.503187D-02 -0.193483D-01
     17 -0.248335D+00  0.278599D+00 -0.642890D-02  0.205989D-01 -0.164593D-01
     18  0.267840D+00 -0.571351D+00  0.218798D-02  0.233571D-01 -0.180866D-01
     19 -0.465527D-01  0.477940D-01 -0.605273D-02 -0.165695D-01 -0.479555D-02
     20 -0.764341D-01  0.186573D-02 -0.228623D-01  0.767616D-02  0.943842D-02
     21  0.519147D-02 -0.648934D-01 -0.263621D-01 -0.478132D-02  0.917363D-02
     22  0.153464D-02  0.440325D-03  0.315992D-03 -0.244540D-03 -0.959557D-04
     23 -0.316712D-02  0.693391D-02 -0.542915D-03  0.897688D-03 -0.127858D-02
     24  0.790505D-02 -0.725575D-02 -0.845289D-04 -0.292300D-02 -0.273970D-04
     25 -0.696873D-03  0.123612D-02  0.131481D-02  0.967125D-03  0.111959D-02
     26  0.486167D-02  0.725719D-03 -0.161773D-02 -0.112688D-02 -0.131271D-02
     27  0.476124D-02 -0.332350D-02 -0.123896D-02 -0.143942D-02 -0.589888D-03
     28  0.736516D-02 -0.525903D-03  0.246364D-03 -0.261227D-02 -0.196907D-02
     29  0.833865D-02 -0.148967D-02  0.520415D-04 -0.396682D-02 -0.270468D-02
     30  0.478005D-02 -0.496494D-02  0.333315D-04 -0.266562D-02 -0.751503D-03
               16            17            18            19            20 
     16  0.537766D-01
     17  0.287228D-01  0.218644D+00
     18 -0.149132D-01 -0.292788D+00  0.593305D+00
     19  0.969982D-02 -0.150495D-01  0.140566D-02  0.398577D+00
     20 -0.273791D-01  0.756908D-02  0.364423D-02 -0.302776D-01  0.191556D+00
     21  0.217471D-01  0.126742D-01 -0.382966D-02 -0.752916D-01  0.106783D-01
     22  0.349200D-03 -0.176417D-02 -0.309049D-03  0.256096D-02 -0.235982D-02
     23 -0.198997D-02 -0.187238D-02 -0.482479D-02 -0.242801D-02  0.235054D-02
     24  0.472741D-03 -0.346583D-02  0.437759D-02  0.115822D-02 -0.289508D-02
     25  0.984958D-03  0.681258D-03 -0.387614D-03  0.351050D-02  0.269162D-02
     26 -0.911500D-03 -0.134146D-02  0.529466D-03 -0.268318D-02 -0.764660D-02
     27 -0.399220D-03 -0.134887D-02  0.211265D-02 -0.159475D-02 -0.845355D-02
     28  0.877207D-03 -0.162196D-02  0.471059D-03  0.765947D-02 -0.176104D-02
     29  0.786954D-03 -0.218553D-02  0.720666D-03  0.669923D-02  0.360387D-02
     30  0.605006D-03 -0.139509D-02  0.248570D-02  0.267881D-02  0.104797D-02
               21            22            23            24            25 
     21  0.115702D+00
     22 -0.143810D-03  0.106393D+00
     23 -0.195995D-02 -0.533667D-01  0.199868D+00
     24  0.980030D-03  0.754021D-01 -0.174001D+00  0.323969D+00
     25  0.787993D-03 -0.262512D-01  0.410837D-01 -0.193684D-01  0.319908D+00
     26 -0.595920D-02  0.434858D-01 -0.311170D-01  0.184433D-01 -0.167789D+00
     27 -0.426216D-02 -0.326780D-01  0.313512D-01  0.103835D-01 -0.680434D-01
     28 -0.237210D-02  0.996670D-02 -0.160894D-01  0.181684D-01 -0.777073D-01
     29  0.634284D-03 -0.254191D-01 -0.364174D-01  0.401976D-01  0.563130D-02
     30  0.138697D-02  0.312364D-01  0.509194D-01 -0.214742D-01  0.274416D-01
               26            27            28            29            30 
     26  0.193492D+00
     27  0.415355D-01  0.941949D-01
     28 -0.120162D-01  0.236518D-01  0.293571D+00
     29  0.239255D-01  0.654698D-03  0.170670D+00  0.215644D+00
     30  0.593947D-02  0.677912D-02 -0.615027D-01 -0.546494D-01  0.929627D-01
 FormGI is forming the generalized inverse of G from B-inverse, IUseBI=4.
 Force constants in internal coordinates: 
                1             2             3             4             5 
      1  0.290352D+00
      2  0.218339D-01  0.470069D+00
      3  0.234436D-01  0.557843D-01  0.453619D+00
      4  0.242679D-01  0.560108D-01  0.557257D-01  0.448608D+00
      5  0.156806D-01  0.386065D-02  0.556946D-02  0.441123D-02  0.468333D+00
      6  0.122818D-01 -0.347686D-02  0.261658D-02 -0.490790D-02  0.141123D-01
      7  0.876161D-02  0.415304D-02  0.632160D-02  0.459626D-02  0.393774D-01
      8 -0.191251D-02  0.295525D-03  0.303915D-02  0.367185D-02  0.111020D-01
      9 -0.272188D-02  0.628019D-02  0.175329D-02  0.125763D-02  0.782347D-02
     10 -0.439966D-02  0.649403D-03 -0.771500D-02  0.412260D-02  0.351218D-02
     11  0.250147D-01  0.164296D-01 -0.304425D-01 -0.294877D-01  0.166125D-01
     12  0.153224D-01 -0.307317D-01  0.209334D-01 -0.284190D-01 -0.367644D-02
     13  0.180177D-01 -0.311541D-01 -0.290757D-01  0.174021D-01 -0.612291D-02
     14 -0.206142D-01  0.208578D-01  0.185285D-01  0.260333D-02 -0.349659D-02
     15 -0.213166D-01  0.213048D-01  0.257560D-02  0.196300D-01 -0.263974D-02
     16 -0.170726D-01  0.294554D-02  0.180981D-01  0.193339D-01 -0.953624D-03
     17  0.913726D-02  0.139085D-01 -0.333393D-02 -0.514747D-02  0.171831D-01
     18  0.100242D-01 -0.877428D-02  0.397578D-02  0.833655D-02 -0.315292D-01
     19  0.636976D-02 -0.359516D-02  0.905865D-02 -0.208338D-02 -0.874450D-02
     20 -0.188559D-01 -0.524336D-02 -0.128462D-02 -0.209710D-02  0.142810D-01
     21 -0.684060D-02 -0.392950D-02 -0.222601D-02  0.601725D-03  0.656974D-02
     22 -0.439330D-02  0.594441D-02  0.203638D-02  0.218138D-02 -0.692485D-02
     23  0.368059D-02 -0.382519D-02 -0.358423D-03  0.261250D-02  0.147332D-01
     24 -0.149621D-03 -0.139749D-02 -0.203898D-02 -0.326085D-02 -0.611078D-02
     25 -0.190619D-02  0.100747D-02 -0.259390D-02  0.985102D-03 -0.705779D-02
     26  0.284365D-02 -0.271785D-02  0.297212D-02 -0.296851D-02  0.126967D-02
     27  0.281045D-02  0.144170D-02 -0.154292D-01  0.142708D-01  0.402306D-02
     28 -0.217804D-03  0.725564D-03 -0.179217D-01  0.167876D-01  0.835604D-02
     29 -0.168529D-02 -0.271398D-02 -0.172673D-01  0.200674D-01 -0.134572D-01
     30  0.314350D-02  0.177103D-01  0.203752D-02 -0.200002D-01  0.784038D-02
     31  0.115249D-03  0.169941D-01 -0.454960D-03 -0.174834D-01  0.121734D-01
     32 -0.135224D-02  0.135546D-01  0.199441D-03 -0.142037D-01 -0.963988D-02
     33  0.205165D-02 -0.150331D-01  0.190496D-01 -0.297014D-02  0.932221D-03
     34 -0.976601D-03 -0.157492D-01  0.165571D-01 -0.453296D-03  0.526520D-02
     35 -0.244409D-02 -0.191888D-01  0.172115D-01  0.282643D-02 -0.165480D-01
     36  0.116996D-02 -0.272044D-02  0.321741D-02 -0.480579D-02 -0.247580D-02
     37 -0.187783D-02 -0.424272D-03  0.162283D-02 -0.117214D-03  0.212990D-02
     38  0.364423D-02 -0.155729D-03  0.286419D-03 -0.236036D-02  0.156322D-02
     39  0.596427D-03  0.214044D-02 -0.130816D-02  0.232822D-02  0.616891D-02
                6             7             8             9            10 
      6  0.258538D+00
      7 -0.306467D-01  0.268823D+00
      8 -0.488963D-02  0.466868D-02  0.752959D+00
      9 -0.523742D-02  0.512940D-02  0.343569D-03  0.754671D+00
     10  0.341516D-01  0.446858D-01  0.589548D-02  0.506592D-02  0.203691D+00
     11  0.631876D-02 -0.379303D-02  0.141176D-02 -0.115537D-02  0.260777D-04
     12 -0.111062D-02  0.162902D-01  0.864684D-03  0.255221D-02 -0.100468D-01
     13 -0.503494D-02 -0.272992D-02  0.429355D-02  0.549737D-02  0.702740D-02
     14 -0.169267D-02 -0.452433D-02 -0.167579D-02 -0.211766D-02  0.401649D-02
     15 -0.564265D-03 -0.154477D-02 -0.242564D-02 -0.209205D-02 -0.175585D-02
     16  0.202613D-02 -0.375474D-02 -0.252671D-02 -0.270333D-02  0.779154D-03
     17 -0.216417D-01 -0.173305D-01 -0.204340D-02 -0.374663D-02  0.120895D-01
     18  0.280735D-01  0.522148D-02  0.652177D-02 -0.507795D-02 -0.184145D-01
     19  0.366376D-01  0.235909D-01 -0.411626D-02 -0.251137D-03 -0.588315D-01
     20 -0.328736D-02  0.940958D-02 -0.392148D-02  0.900691D-02  0.444563D-02
     21  0.654922D-02  0.190852D-02  0.172492D-02 -0.525435D-03  0.216220D-02
     22 -0.579159D-02  0.211720D-01  0.999795D-02 -0.185885D-01 -0.756189D-02
     23 -0.161261D-01  0.199278D-01 -0.188479D-01  0.876246D-02  0.869322D-02
     24  0.128903D-01 -0.276111D-01  0.765810D-02  0.877810D-02 -0.598282D-02
     25  0.166067D-01 -0.382419D-01  0.106340D-01 -0.129718D-01  0.273221D-01
     26  0.290439D-01 -0.269647D-01 -0.143744D-01  0.774476D-02 -0.335359D-02
     27  0.381800D-02  0.244120D-02 -0.856284D-03 -0.144169D-02 -0.105207D-01
     28  0.112959D-01 -0.466940D-02 -0.223274D-03  0.105073D-02 -0.144457D-01
     29 -0.180690D-01 -0.522188D-02  0.227764D-02  0.301223D-02  0.277354D-01
     30  0.500699D-02  0.510077D-02 -0.147660D-02 -0.314014D-02 -0.121074D-01
     31  0.124849D-01 -0.200983D-02 -0.843585D-03 -0.647718D-03 -0.160325D-01
     32 -0.168800D-01 -0.256232D-02  0.165733D-02  0.131378D-02  0.261487D-01
     33  0.384455D-02  0.847151D-02 -0.150016D-02 -0.168220D-02 -0.128987D-01
     34  0.113225D-01  0.136091D-02 -0.867150D-03  0.810218D-03 -0.168238D-01
     35 -0.180424D-01  0.808422D-03  0.163376D-02  0.277172D-02  0.253573D-01
     36  0.113258D-01 -0.131826D-01  0.791104D-03  0.791434D-03  0.893809D-02
     37 -0.173693D-01  0.282975D-01 -0.174874D-02 -0.141247D-02 -0.894677D-02
     38  0.169365D-01 -0.257776D-01  0.207999D-02  0.845202D-03  0.547287D-02
     39 -0.117585D-01  0.157024D-01 -0.459853D-03 -0.135870D-02 -0.124120D-01
               11            12            13            14            15 
     11  0.202513D+00
     12 -0.324423D-02  0.188855D+00
     13 -0.104397D-02  0.671563D-02  0.186942D+00
     14 -0.951038D-01 -0.932963D-01 -0.117600D-01  0.125831D+00
     15 -0.948408D-01 -0.115147D-01 -0.932633D-01  0.390699D-01  0.125745D+00
     16 -0.111688D-01 -0.894822D-01 -0.889412D-01  0.370568D-01  0.366504D-01
     17  0.111924D-01 -0.294738D-02 -0.581953D-02 -0.284079D-02 -0.169539D-02
     18  0.685113D-02 -0.321247D-02  0.877132D-02 -0.258933D-02 -0.703735D-02
     19 -0.170247D-02  0.147624D-01 -0.796505D-02 -0.470231D-02  0.172394D-02
     20 -0.173441D-01  0.473122D-02 -0.162001D-02  0.555465D-02  0.804212D-02
     21 -0.475381D-02 -0.552895D-02  0.469324D-02  0.382949D-02  0.858308D-03
     22 -0.668222D-02  0.484426D-02  0.695087D-02 -0.114520D-02 -0.364056D-03
     23  0.131059D-01 -0.475828D-02 -0.177432D-02 -0.203857D-02 -0.513889D-02
     24 -0.552900D-02 -0.821460D-03 -0.313626D-02  0.295553D-02  0.420074D-02
     25 -0.560248D-03 -0.697188D-02  0.671967D-02  0.188948D-02 -0.126771D-02
     26  0.407212D-02  0.446591D-02 -0.796625D-02 -0.231141D-02  0.109332D-02
     27  0.482033D-03 -0.385461D-02  0.241207D-02 -0.186021D-01  0.192249D-01
     28 -0.843355D-03 -0.728265D-02  0.573669D-02 -0.170616D-01  0.189377D-01
     29 -0.167018D-02 -0.646750D-02  0.829046D-02 -0.171855D-01  0.180452D-01
     30  0.892631D-02  0.201843D-02 -0.850136D-02  0.162577D-01 -0.130116D-03
     31  0.760092D-02 -0.140961D-02 -0.517673D-02  0.177982D-01 -0.417323D-03
     32  0.677410D-02 -0.594463D-03 -0.262297D-02  0.176744D-01 -0.130987D-02
     33 -0.709842D-02  0.808562D-02 -0.211062D-02 -0.360151D-03 -0.174328D-01
     34 -0.842381D-02  0.465758D-02  0.121401D-02  0.118035D-02 -0.177201D-01
     35 -0.925063D-02  0.547272D-02  0.376777D-02  0.105649D-02 -0.186126D-01
     36 -0.273312D-02  0.682352D-02 -0.826113D-02 -0.604592D-03  0.380916D-02
     37 -0.775007D-03  0.420512D-02 -0.174484D-02 -0.852761D-03  0.112341D-03
     38  0.156221D-02  0.153356D-02 -0.514807D-02 -0.648849D-03  0.136831D-02
     39  0.352033D-02 -0.108485D-02  0.136823D-02 -0.897017D-03 -0.232851D-02
               16            17            18            19            20 
     16  0.118545D+00
     17  0.198418D-02  0.102331D+00
     18 -0.290391D-02 -0.515203D-01  0.104215D+00
     19 -0.218207D-02 -0.138928D-01  0.233333D-02  0.758531D-01
     20  0.879306D-03 -0.525949D-01 -0.480536D-01  0.103007D-01  0.990420D-01
     21  0.100995D-02 -0.474167D-01  0.290275D-01 -0.386980D-01  0.188379D-01
     22 -0.356171D-02  0.874371D-02 -0.991414D-02  0.192151D-01  0.742780D-03
     23  0.424331D-03 -0.131279D-01  0.164121D-01 -0.186645D-01 -0.168737D-02
     24  0.244875D-02  0.357009D-02 -0.483834D-02  0.139234D-03  0.811718D-03
     25  0.237848D-03 -0.833250D-02  0.292879D-01 -0.476483D-01 -0.196259D-01
     26  0.567592D-03  0.945265D-02 -0.279310D-01  0.392111D-01  0.168434D-01
     27  0.492748D-03  0.918710D-02 -0.177314D-02 -0.832188D-03 -0.917450D-02
     28  0.706602D-03 -0.246780D-02 -0.239167D-02 -0.309118D-02  0.643373D-02
     29 -0.834470D-03 -0.638328D-02  0.292541D-02 -0.841027D-03  0.384548D-02
     30 -0.193118D-01  0.108443D-01 -0.274633D-02  0.193350D-02 -0.101974D-01
     31 -0.190980D-01 -0.810556D-03 -0.336486D-02 -0.325487D-03  0.541084D-02
     32 -0.206391D-01 -0.472603D-02  0.195222D-02  0.192466D-02  0.282259D-02
     33  0.194497D-01  0.809559D-02 -0.297260D-02  0.323144D-02 -0.732208D-02
     34  0.196635D-01 -0.355931D-02 -0.359113D-02  0.972446D-03  0.828615D-02
     35  0.181225D-01 -0.747479D-02  0.172596D-02  0.322260D-02  0.569790D-02
     36  0.987371D-03 -0.545023D-02 -0.846280D-02  0.217063D-02  0.110297D-01
     37 -0.968476D-03 -0.747025D-02 -0.378851D-02  0.481434D-02  0.107339D-01
     38  0.132002D-02  0.970861D-02 -0.585803D-02 -0.481232D-02 -0.299540D-02
     39 -0.635829D-03  0.768859D-02 -0.118374D-02 -0.216861D-02 -0.329118D-02
               21            22            23            24            25 
     21  0.666267D-01
     22 -0.201938D-01  0.117634D+00
     23  0.192730D-01 -0.230987D-01  0.117732D+00
     24  0.390208D-03 -0.804073D-01 -0.807479D-01  0.144149D+00
     25  0.417259D-01  0.260048D-01 -0.428821D-02 -0.292607D-01  0.838442D-01
     26 -0.391581D-01 -0.576894D-02  0.266335D-01 -0.280300D-01 -0.354650D-01
     27  0.489335D-02  0.467963D-03 -0.335734D-02  0.194334D-02  0.458844D-02
     28  0.780100D-02 -0.109719D-03  0.300171D-03  0.965425D-03  0.340631D-02
     29 -0.108497D-01  0.378534D-02 -0.178381D-02 -0.205476D-02 -0.422195D-02
     30  0.299764D-02 -0.203491D-02 -0.670709D-03  0.156157D-02  0.199870D-02
     31  0.590529D-02 -0.261259D-02  0.298681D-02  0.583662D-03  0.816564D-03
     32 -0.127454D-01  0.128246D-02  0.902822D-03 -0.243652D-02 -0.681169D-02
     33  0.375168D-02  0.579974D-03 -0.398324D-02  0.219755D-02  0.216842D-02
     34  0.665933D-02  0.229272D-05 -0.325724D-03  0.121964D-02  0.986281D-03
     35 -0.119914D-01  0.389735D-02 -0.240971D-02 -0.180054D-02 -0.664197D-02
     36  0.488782D-02 -0.216111D-01 -0.149722D-01  0.176998D-01  0.167438D-01
     37  0.287763D-02  0.134661D-01  0.173998D-01 -0.149064D-01 -0.143019D-01
     38 -0.357072D-02 -0.210761D-01 -0.125985D-01  0.169906D-01  0.187381D-01
     39 -0.558091D-02  0.140011D-01  0.197735D-01 -0.156156D-01 -0.123076D-01
               26            27            28            29            30 
     26  0.762258D-01
     27 -0.482508D-02  0.248060D-01
     28 -0.517954D-02  0.177783D-01  0.240004D-01
     29  0.684291D-02  0.100694D-01  0.117800D-01  0.321345D-01
     30 -0.217056D-02 -0.625067D-03 -0.883337D-02 -0.166876D-01  0.266757D-01
     31 -0.252503D-02 -0.765282D-02 -0.261120D-02 -0.149771D-01  0.184674D-01
     32  0.949742D-02 -0.153617D-01 -0.148316D-01  0.537741D-02  0.106131D-01
     33 -0.356448D-02 -0.861468D-03 -0.885694D-02 -0.165956D-01 -0.517216D-03
     34 -0.391894D-02 -0.788922D-02 -0.263477D-02 -0.148850D-01 -0.872552D-02
     35  0.810350D-02 -0.155981D-01 -0.148552D-01  0.546943D-02 -0.165798D-01
     36  0.138679D-01  0.251966D-02 -0.401036D-02 -0.127732D-02  0.451325D-02
     37 -0.160556D-01 -0.363249D-03  0.140431D-03 -0.179461D-02  0.846572D-03
     38  0.110150D-01 -0.161081D-02  0.905950D-03 -0.128099D-02 -0.414029D-03
     39 -0.189086D-01 -0.449372D-02  0.505674D-02 -0.179829D-02 -0.408071D-02
               31            32            33            34            35 
     31  0.235090D-01
     32  0.111431D-01  0.313522D-01
     33 -0.851269D-02 -0.162514D-01  0.264992D-01
     34 -0.347107D-02 -0.157213D-01  0.185038D-01  0.237582D-01
     35 -0.158369D-01  0.448769D-02  0.107651D-01  0.115079D-01  0.318326D-01
     36 -0.201678D-02  0.716269D-03  0.483159D-02 -0.169843D-02  0.103461D-02
     37  0.135025D-02 -0.584789D-03  0.110513D-02  0.160881D-02 -0.326230D-03
     38  0.210273D-02 -0.842162D-04 -0.951966D-03  0.156479D-02 -0.622152D-03
     39  0.546976D-02 -0.138527D-02 -0.467843D-02  0.487203D-02 -0.198300D-02
               36            37            38            39 
     36  0.438905D-01
     37 -0.179826D-01  0.342578D-01
     38  0.333702D-01 -0.210694D-01  0.382973D-01
     39 -0.285028D-01  0.311710D-01 -0.161424D-01  0.435314D-01
 Leave Link  716 at Sat May 24 09:59:58 2025, MaxMem=  3758096384 cpu:               0.0 elap:               0.0
 (Enter /apps/easybuild-2022/easybuild/software/Compiler/NVHPC/22.11-CUDA-11.7.0/Gaussian/g16c01-CUDA-11.7.0/g16/l103.exe)

 GradGradGradGradGradGradGradGradGradGradGradGradGradGradGradGradGradGrad
 Berny optimization.
 Red2BG is reusing G-inverse.
 Internal  Forces:  Max     0.000003221 RMS     0.000001115
 Search for a local minimum.
 Step number   1 out of a maximum of   49
 All quantities printed in internal units (Hartrees-Bohrs-Radians)
 RMS Force = .11150D-05 SwitMx=.10000D-02 MixMth= 2
 Mixed Optimization -- En-DIIS/RFO-DIIS
 Second derivative matrix not updated -- analytic derivatives used.
 ITU=  0
     Eigenvalues ---    0.00155   0.02369   0.03527   0.09609   0.10439
     Eigenvalues ---    0.10864   0.11024   0.14305   0.17449   0.20940
     Eigenvalues ---    0.22116   0.23675   0.24711   0.25832   0.26614
     Eigenvalues ---    0.28325   0.34632   0.40628   0.41710   0.42952
     Eigenvalues ---    0.48870   0.59060   0.75531   0.75694
 RFO step:  Lambda= 0.00000000D+00 EMin= 1.55141951D-03
 Linear search not attempted -- first point.
 Iteration  1 RMS(Cart)=  0.00001093 RMS(Int)=  0.00000000
 Iteration  2 RMS(Cart)=  0.00000000 RMS(Int)=  0.00000000
 ITry= 1 IFail=0 DXMaxC= 2.92D-05 DCOld= 1.00D+10 DXMaxT= 3.00D-01 DXLimC= 3.00D+00 Rises=F
 Variable       Old X    -DE/DX   Delta X   Delta X   Delta X     New X
                                 (Linear)    (Quad)   (Total)
    R1        2.88975   0.00000   0.00000   0.00000   0.00000   2.88976
    R2        2.49137  -0.00000   0.00000  -0.00000  -0.00000   2.49137
    R3        2.50467   0.00000   0.00000   0.00001   0.00001   2.50468
    R4        2.50621  -0.00000   0.00000  -0.00000  -0.00000   2.50621
    R5        2.49269   0.00000   0.00000   0.00000   0.00000   2.49269
    R6        3.27086   0.00000   0.00000   0.00000   0.00000   3.27086
    R7        2.72868   0.00000   0.00000   0.00001   0.00001   2.72869
    R8        2.67335  -0.00000   0.00000  -0.00000  -0.00000   2.67335
    R9        2.67199  -0.00000   0.00000  -0.00000  -0.00000   2.67199
   R10        3.03200  -0.00000   0.00000  -0.00000  -0.00000   3.03199
    A1        1.93875   0.00000   0.00000   0.00000   0.00000   1.93875
    A2        1.90733  -0.00000   0.00000  -0.00001  -0.00001   1.90732
    A3        1.90072   0.00000   0.00000   0.00001   0.00001   1.90073
    A4        1.91034  -0.00000   0.00000  -0.00001  -0.00001   1.91033
    A5        1.90468  -0.00000   0.00000   0.00000   0.00000   1.90468
    A6        1.90164  -0.00000   0.00000  -0.00000  -0.00000   1.90164
    A7        1.93268   0.00000   0.00000   0.00001   0.00001   1.93269
    A8        2.20300   0.00000   0.00000  -0.00000  -0.00000   2.20300
    A9        2.00062  -0.00000   0.00000  -0.00001  -0.00001   2.00061
   A10        2.09242  -0.00000   0.00000  -0.00001  -0.00001   2.09240
   A11        1.98974  -0.00000   0.00000   0.00000   0.00000   1.98974
   A12        2.01575  -0.00000   0.00000  -0.00001  -0.00001   2.01574
   A13        2.08282   0.00000   0.00000   0.00001   0.00001   2.08284
   A14        2.14238  -0.00000   0.00000  -0.00000  -0.00000   2.14238
   A15        1.97104  -0.00000   0.00000  -0.00000  -0.00000   1.97104
   A16        1.97624   0.00000   0.00000   0.00001   0.00001   1.97625
    D1        3.13043   0.00000   0.00000   0.00001   0.00001   3.13044
    D2       -0.36596   0.00000   0.00000   0.00001   0.00001  -0.36595
    D3        0.84938  -0.00000   0.00000  -0.00000  -0.00000   0.84938
    D4       -1.04325   0.00000   0.00000  -0.00000  -0.00000  -1.04325
    D5        1.74355  -0.00000   0.00000  -0.00000  -0.00000   1.74354
    D6        2.95889  -0.00000   0.00000  -0.00001  -0.00001   2.95888
    D7        1.03226   0.00000   0.00000  -0.00000  -0.00000   1.03226
    D8       -2.46412  -0.00000   0.00000  -0.00000  -0.00000  -2.46413
    D9       -1.24878  -0.00000   0.00000  -0.00001  -0.00001  -1.24880
   D10       -2.79729  -0.00000   0.00000  -0.00000  -0.00000  -2.79729
   D11        0.04483  -0.00000   0.00000  -0.00001  -0.00001   0.04482
   D12       -0.03980   0.00000   0.00000   0.00000   0.00000  -0.03980
   D13        2.80231  -0.00000   0.00000  -0.00001  -0.00001   2.80231
         Item               Value     Threshold  Converged?
 Maximum Force            0.000003     0.000015     YES
 RMS     Force            0.000001     0.000010     YES
 Maximum Displacement     0.000029     0.000060     YES
 RMS     Displacement     0.000011     0.000040     YES
 Predicted change in Energy=-1.255109D-10
 Optimization completed.
    -- Stationary point found.
                           ----------------------------
                           !   Optimized Parameters   !
                           ! (Angstroms and Degrees)  !
 --------------------------                            --------------------------
 ! Name  Definition              Value          Derivative Info.                !
 --------------------------------------------------------------------------------
 ! R1    R(1,2)                  1.5292         -DE/DX =    0.0                 !
 ! R2    R(1,8)                  1.3184         -DE/DX =    0.0                 !
 ! R3    R(1,9)                  1.3254         -DE/DX =    0.0                 !
 ! R4    R(1,10)                 1.3262         -DE/DX =    0.0                 !
 ! R5    R(2,3)                  1.3191         -DE/DX =    0.0                 !
 ! R6    R(2,4)                  1.7309         -DE/DX =    0.0                 !
 ! R7    R(2,7)                  1.444          -DE/DX =    0.0                 !
 ! R8    R(4,5)                  1.4147         -DE/DX =    0.0                 !
 ! R9    R(4,6)                  1.414          -DE/DX =    0.0                 !
 ! R10   R(4,7)                  1.6045         -DE/DX =    0.0                 !
 ! A1    A(2,1,8)              111.0823         -DE/DX =    0.0                 !
 ! A2    A(2,1,9)              109.2818         -DE/DX =    0.0                 !
 ! A3    A(2,1,10)             108.9031         -DE/DX =    0.0                 !
 ! A4    A(8,1,9)              109.4543         -DE/DX =    0.0                 !
 ! A5    A(8,1,10)             109.1302         -DE/DX =    0.0                 !
 ! A6    A(9,1,10)             108.9558         -DE/DX =    0.0                 !
 ! A7    A(1,2,3)              110.7341         -DE/DX =    0.0                 !
 ! A8    A(1,2,4)              126.2223         -DE/DX =    0.0                 !
 ! A9    A(1,2,7)              114.6271         -DE/DX =    0.0                 !
 ! A10   A(3,2,4)              119.8866         -DE/DX =    0.0                 !
 ! A11   A(3,2,7)              114.0038         -DE/DX =    0.0                 !
 ! A12   A(2,4,5)              115.4941         -DE/DX =    0.0                 !
 ! A13   A(2,4,6)              119.3369         -DE/DX =    0.0                 !
 ! A14   A(5,4,6)              122.7495         -DE/DX =    0.0                 !
 ! A15   A(5,4,7)              112.9325         -DE/DX =    0.0                 !
 ! A16   A(6,4,7)              113.2304         -DE/DX =    0.0                 !
 ! D1    D(8,1,2,3)            179.3604         -DE/DX =    0.0                 !
 ! D2    D(8,1,2,4)            -20.9678         -DE/DX =    0.0                 !
 ! D3    D(8,1,2,7)             48.6661         -DE/DX =    0.0                 !
 ! D4    D(9,1,2,3)            -59.7739         -DE/DX =    0.0                 !
 ! D5    D(9,1,2,4)             99.898          -DE/DX =    0.0                 !
 ! D6    D(9,1,2,7)            169.5319         -DE/DX =    0.0                 !
 ! D7    D(10,1,2,3)            59.1443         -DE/DX =    0.0                 !
 ! D8    D(10,1,2,4)          -141.1839         -DE/DX =    0.0                 !
 ! D9    D(10,1,2,7)           -71.55           -DE/DX =    0.0                 !
 ! D10   D(1,2,4,5)           -160.2728         -DE/DX =    0.0                 !
 ! D11   D(1,2,4,6)              2.5685         -DE/DX =    0.0                 !
 ! D12   D(3,2,4,5)             -2.2805         -DE/DX =    0.0                 !
 ! D13   D(3,2,4,6)            160.5608         -DE/DX =    0.0                 !
 --------------------------------------------------------------------------------
 Lowest energy point so far.  Saving SCF results.
 Largest change from initial coordinates is atom    0       0.000 Angstoms.
 GradGradGradGradGradGradGradGradGradGradGradGradGradGradGradGradGradGrad

 Leave Link  103 at Sat May 24 09:59:58 2025, MaxMem=  3758096384 cpu:               0.1 elap:               0.0
 (Enter /apps/easybuild-2022/easybuild/software/Compiler/NVHPC/22.11-CUDA-11.7.0/Gaussian/g16c01-CUDA-11.7.0/g16/l202.exe)
                          Input orientation:                          
 ---------------------------------------------------------------------
 Center     Atomic      Atomic             Coordinates (Angstroms)
 Number     Number       Type             X           Y           Z
 ---------------------------------------------------------------------
      1          6           0        0.039629   -1.071722   -0.828274
      2          6           0        0.339531   -0.190750    0.385140
      3          9           0        0.650652   -0.929213    1.432913
      4         16           0        0.774874    1.484113    0.350521
      5          8           0        1.415172    1.970998    1.514252
      6          8           0        0.823262    2.161828   -0.889495
      7          8           0       -0.654457    0.821475    0.654208
      8          9           0       -0.285514   -0.340819   -1.876214
      9          9           0        1.108255   -1.801954   -1.113793
     10          9           0       -0.968777   -1.880932   -0.533004
 ---------------------------------------------------------------------
                    Distance matrix (angstroms):
                    1          2          3          4          5
     1  C    0.000000
     2  C    1.529191   0.000000
     3  F    2.346620   1.319072   0.000000
     4  S    2.909027   1.730863   2.647857   0.000000
     5  O    4.078933   2.665530   3.000388   1.414676   0.000000
     6  O    3.327713   2.719065   3.870130   1.413959   2.482896
     7  O    2.502739   1.443956   2.318318   1.604463   2.518818
     8  F    1.318376   2.350941   3.488973   3.068085   4.442082
     9  F    1.325414   2.331033   2.730712   3.612976   4.608252
    10  F    1.326231   2.326236   2.719035   3.891589   4.971100
                    6          7          8          9         10
     6  O    0.000000
     7  O    2.522542   0.000000
     8  F    2.909680   2.808929   0.000000
     9  F    3.980339   3.621514   2.158424   0.000000
    10  F    4.436485   2.968379   2.154764   2.158151   0.000000
 Symmetry turned off by external request.
 Stoichiometry    C2F4O3S
 Rotational constants (GHZ):           2.1569458           0.9734570           0.8324879
 Leave Link  202 at Sat May 24 09:59:58 2025, MaxMem=  3758096384 cpu:               0.0 elap:               0.0
 (Enter /apps/easybuild-2022/easybuild/software/Compiler/NVHPC/22.11-CUDA-11.7.0/Gaussian/g16c01-CUDA-11.7.0/g16/l9999.exe)
 Unable to Open any file for archive entry.
 1\1\GINC-SPARTAN-BM171\FOpt\RM062X\def2TZVPP\C2F4O3S1\AKHALILOV\24-May
 -2025\0\\#P M062X/Def2TZVPP Symm(None) scf(xqc) pop(None) freq opt(Cal
 cFC, Tight)\\Gaussian input prepared by ASE\\0,1\C,0.039629,-1.071722,
 -0.828274\C,0.339531,-0.19075,0.38514\F,0.650652,-0.929213,1.432913\S,
 0.774874,1.484113,0.350521\O,1.415172,1.970998,1.514252\O,0.823262,2.1
 61828,-0.889495\O,-0.654457,0.821475,0.654208\F,-0.285514,-0.340819,-1
 .876214\F,1.108255,-1.801954,-1.113793\F,-0.968777,-1.880932,-0.533004
 \\Version=ES64L-G16RevC.01\HF=-1099.4238071\RMSD=9.164e-09\RMSF=3.819e
 -06\Dipole=-0.0644404,-0.5371553,-0.0627433\Polar=0.,0.,0.,0.,0.,0.\PG
 =Unknown\\@
 The archive entry for this job was punched.


 It takes a long time to grow an old friend.
                            -- John Leonard
 Leave Link 9999 at Sat May 24 09:59:58 2025, MaxMem=  3758096384 cpu:               0.0 elap:               0.0
 Job cpu time:       0 days  0 hours 24 minutes 19.6 seconds.
 Elapsed time:       0 days  0 hours  3 minutes 15.9 seconds.
 File lengths (MBytes):  RWF=    109 Int=      0 D2E=      0 Chk=      8 Scr=      1
 Normal termination of Gaussian 16 at Sat May 24 09:59:58 2025.
 (Enter /apps/easybuild-2022/easybuild/software/Compiler/NVHPC/22.11-CUDA-11.7.0/Gaussian/g16c01-CUDA-11.7.0/g16/l1.exe)
 Link1:  Proceeding to internal job step number  2.
 ---------------------------------------------------------------------
 #P Geom=AllCheck Guess=TCheck SCRF=Check GenChk RM062X/def2TZVPP Freq
 ---------------------------------------------------------------------
 1/7=10,10=4,29=7,30=1,38=1,40=1/1,3;
 2/12=2,15=3,40=1/2;
 3/5=44,7=202,11=2,14=-4,25=1,30=1,70=2,71=2,74=-55,116=1,140=1/1,2,3;
 4/5=101/1;
 5/5=2,8=3,13=1,38=6,98=1/2,8;
 8/6=4,10=90,11=11/1;
 11/6=1,8=1,9=11,15=111,16=1,31=1/1,2,10;
 10/6=1,31=1/2;
 7/8=1,10=1,25=1,30=1/1,2,3,16;
 1/7=10,10=4,30=1/3;
 99//99;
 Leave Link    1 at Sat May 24 09:59:58 2025, MaxMem=  3758096384 cpu:               0.0 elap:               0.0
 (Enter /apps/easybuild-2022/easybuild/software/Compiler/NVHPC/22.11-CUDA-11.7.0/Gaussian/g16c01-CUDA-11.7.0/g16/l101.exe)
 Structure from the checkpoint file:  "/tmp/Gau-284795.chk"
 ------------------------------
 Gaussian input prepared by ASE
 ------------------------------
 Charge =  0 Multiplicity = 1
 Redundant internal coordinates found in file.  (old form).
 C,0,0.039629,-1.071722,-0.828274
 C,0,0.339531,-0.19075,0.38514
 F,0,0.650652,-0.929213,1.432913
 S,0,0.774874,1.484113,0.350521
 O,0,1.415172,1.970998,1.514252
 O,0,0.823262,2.161828,-0.889495
 O,0,-0.654457,0.821475,0.654208
 F,0,-0.285514,-0.340819,-1.876214
 F,0,1.108255,-1.801954,-1.113793
 F,0,-0.968777,-1.880932,-0.533004
 Recover connectivity data from disk.
 ITRead=  0  0  0  0  0  0  0  0  0  0
 MicOpt= -1 -1 -1 -1 -1 -1 -1 -1 -1 -1
 NAtoms=     10 NQM=       10 NQMF=       0 NMMI=      0 NMMIF=      0
                NMic=       0 NMicF=      0.
                    Isotopes and Nuclear Properties:
 (Nuclear quadrupole moments (NQMom) in fm**2, nuclear magnetic moments (NMagM)
  in nuclear magnetons)

  Atom         1           2           3           4           5           6           7           8           9          10
 IAtWgt=          12          12          19          32          16          16          16          19          19          19
 AtmWgt=  12.0000000  12.0000000  18.9984032  31.9720718  15.9949146  15.9949146  15.9949146  18.9984032  18.9984032  18.9984032
 NucSpn=           0           0           1           0           0           0           0           1           1           1
 AtZEff=   3.6000000   3.6000000   6.7500000  13.6000000   5.6000000   5.6000000   5.6000000   6.7500000   6.7500000   6.7500000
 NQMom=    0.0000000   0.0000000   0.0000000   0.0000000   0.0000000   0.0000000   0.0000000   0.0000000   0.0000000   0.0000000
 NMagM=    0.0000000   0.0000000   2.6288670   0.0000000   0.0000000   0.0000000   0.0000000   2.6288670   2.6288670   2.6288670
 AtZNuc=   6.0000000   6.0000000   9.0000000  16.0000000   8.0000000   8.0000000   8.0000000   9.0000000   9.0000000   9.0000000
 Leave Link  101 at Sat May 24 09:59:58 2025, MaxMem=  3758096384 cpu:               0.2 elap:               0.2
 (Enter /apps/easybuild-2022/easybuild/software/Compiler/NVHPC/22.11-CUDA-11.7.0/Gaussian/g16c01-CUDA-11.7.0/g16/l103.exe)

 GradGradGradGradGradGradGradGradGradGradGradGradGradGradGradGradGradGrad
 Berny optimization.
 Initialization pass.
                           ----------------------------
                           !    Initial Parameters    !
                           ! (Angstroms and Degrees)  !
 --------------------------                            --------------------------
 ! Name  Definition              Value          Derivative Info.                !
 --------------------------------------------------------------------------------
 ! R1    R(1,2)                  1.5292         calculate D2E/DX2 analytically  !
 ! R2    R(1,8)                  1.3184         calculate D2E/DX2 analytically  !
 ! R3    R(1,9)                  1.3254         calculate D2E/DX2 analytically  !
 ! R4    R(1,10)                 1.3262         calculate D2E/DX2 analytically  !
 ! R5    R(2,3)                  1.3191         calculate D2E/DX2 analytically  !
 ! R6    R(2,4)                  1.7309         calculate D2E/DX2 analytically  !
 ! R7    R(2,7)                  1.444          calculate D2E/DX2 analytically  !
 ! R8    R(4,5)                  1.4147         calculate D2E/DX2 analytically  !
 ! R9    R(4,6)                  1.414          calculate D2E/DX2 analytically  !
 ! R10   R(4,7)                  1.6045         calculate D2E/DX2 analytically  !
 ! A1    A(2,1,8)              111.0823         calculate D2E/DX2 analytically  !
 ! A2    A(2,1,9)              109.2818         calculate D2E/DX2 analytically  !
 ! A3    A(2,1,10)             108.9031         calculate D2E/DX2 analytically  !
 ! A4    A(8,1,9)              109.4543         calculate D2E/DX2 analytically  !
 ! A5    A(8,1,10)             109.1302         calculate D2E/DX2 analytically  !
 ! A6    A(9,1,10)             108.9558         calculate D2E/DX2 analytically  !
 ! A7    A(1,2,3)              110.7341         calculate D2E/DX2 analytically  !
 ! A8    A(1,2,4)              126.2223         calculate D2E/DX2 analytically  !
 ! A9    A(1,2,7)              114.6271         calculate D2E/DX2 analytically  !
 ! A10   A(3,2,4)              119.8866         calculate D2E/DX2 analytically  !
 ! A11   A(3,2,7)              114.0038         calculate D2E/DX2 analytically  !
 ! A12   A(2,4,5)              115.4941         calculate D2E/DX2 analytically  !
 ! A13   A(2,4,6)              119.3369         calculate D2E/DX2 analytically  !
 ! A14   A(5,4,6)              122.7495         calculate D2E/DX2 analytically  !
 ! A15   A(5,4,7)              112.9325         calculate D2E/DX2 analytically  !
 ! A16   A(6,4,7)              113.2304         calculate D2E/DX2 analytically  !
 ! D1    D(8,1,2,3)            179.3604         calculate D2E/DX2 analytically  !
 ! D2    D(8,1,2,4)            -20.9678         calculate D2E/DX2 analytically  !
 ! D3    D(8,1,2,7)             48.6661         calculate D2E/DX2 analytically  !
 ! D4    D(9,1,2,3)            -59.7739         calculate D2E/DX2 analytically  !
 ! D5    D(9,1,2,4)             99.898          calculate D2E/DX2 analytically  !
 ! D6    D(9,1,2,7)            169.5319         calculate D2E/DX2 analytically  !
 ! D7    D(10,1,2,3)            59.1443         calculate D2E/DX2 analytically  !
 ! D8    D(10,1,2,4)          -141.1839         calculate D2E/DX2 analytically  !
 ! D9    D(10,1,2,7)           -71.55           calculate D2E/DX2 analytically  !
 ! D10   D(1,2,4,5)           -160.2728         calculate D2E/DX2 analytically  !
 ! D11   D(1,2,4,6)              2.5685         calculate D2E/DX2 analytically  !
 ! D12   D(3,2,4,5)             -2.2805         calculate D2E/DX2 analytically  !
 ! D13   D(3,2,4,6)            160.5608         calculate D2E/DX2 analytically  !
 --------------------------------------------------------------------------------
 Trust Radius=3.00D-01 FncErr=1.00D-07 GrdErr=1.00D-07 EigMax=2.50D+02 EigMin=1.00D-04
 Number of steps in this run=      2 maximum allowed number of steps=      2.
 GradGradGradGradGradGradGradGradGradGradGradGradGradGradGradGradGradGrad

 Leave Link  103 at Sat May 24 09:59:58 2025, MaxMem=  3758096384 cpu:               0.0 elap:               0.0
 (Enter /apps/easybuild-2022/easybuild/software/Compiler/NVHPC/22.11-CUDA-11.7.0/Gaussian/g16c01-CUDA-11.7.0/g16/l202.exe)
                          Input orientation:                          
 ---------------------------------------------------------------------
 Center     Atomic      Atomic             Coordinates (Angstroms)
 Number     Number       Type             X           Y           Z
 ---------------------------------------------------------------------
      1          6           0        0.039629   -1.071722   -0.828274
      2          6           0        0.339531   -0.190750    0.385140
      3          9           0        0.650652   -0.929213    1.432913
      4         16           0        0.774874    1.484113    0.350521
      5          8           0        1.415172    1.970998    1.514252
      6          8           0        0.823262    2.161828   -0.889495
      7          8           0       -0.654457    0.821475    0.654208
      8          9           0       -0.285514   -0.340819   -1.876214
      9          9           0        1.108255   -1.801954   -1.113793
     10          9           0       -0.968777   -1.880932   -0.533004
 ---------------------------------------------------------------------
                    Distance matrix (angstroms):
                    1          2          3          4          5
     1  C    0.000000
     2  C    1.529191   0.000000
     3  F    2.346620   1.319072   0.000000
     4  S    2.909027   1.730863   2.647857   0.000000
     5  O    4.078933   2.665530   3.000388   1.414676   0.000000
     6  O    3.327713   2.719065   3.870130   1.413959   2.482896
     7  O    2.502739   1.443956   2.318318   1.604463   2.518818
     8  F    1.318376   2.350941   3.488973   3.068085   4.442082
     9  F    1.325414   2.331033   2.730712   3.612976   4.608252
    10  F    1.326231   2.326236   2.719035   3.891589   4.971100
                    6          7          8          9         10
     6  O    0.000000
     7  O    2.522542   0.000000
     8  F    2.909680   2.808929   0.000000
     9  F    3.980339   3.621514   2.158424   0.000000
    10  F    4.436485   2.968379   2.154764   2.158151   0.000000
 Symmetry turned off by external request.
 Stoichiometry    C2F4O3S
 Rotational constants (GHZ):           2.1569458           0.9734570           0.8324879
 Leave Link  202 at Sat May 24 09:59:58 2025, MaxMem=  3758096384 cpu:               0.0 elap:               0.0
 (Enter /apps/easybuild-2022/easybuild/software/Compiler/NVHPC/22.11-CUDA-11.7.0/Gaussian/g16c01-CUDA-11.7.0/g16/l301.exe)
 Standard basis: def2TZVPP (5D, 7F)
 Ernie: Thresh=  0.10000D-02 Tol=  0.10000D-05 Strict=F.
   321 basis functions,   528 primitive gaussians,   372 cartesian basis functions
    44 alpha electrons       44 beta electrons
       nuclear repulsion energy       762.8832124327 Hartrees.
 IExCor= 4336 DFT=T Ex+Corr=M062X ExCW=0 ScaHFX=  0.540000
 ScaDFX=  1.000000  1.000000  1.000000  1.000000 ScalE2=  1.000000  1.000000
 IRadAn=      5 IRanWt=     -1 IRanGd=            0 ICorTp=0 IEmpDi=  4
 NAtoms=   10 NActive=   10 NUniq=   10 SFac= 1.00D+00 NAtFMM=   60 NAOKFM=F Big=F
 Integral buffers will be    131072 words long.
 Raffenetti 2 integral format.
 Two-electron integral symmetry is turned off.
 Leave Link  301 at Sat May 24 09:59:58 2025, MaxMem=  3758096384 cpu:               0.0 elap:               0.0
 (Enter /apps/easybuild-2022/easybuild/software/Compiler/NVHPC/22.11-CUDA-11.7.0/Gaussian/g16c01-CUDA-11.7.0/g16/l302.exe)
 NPDir=0 NMtPBC=     1 NCelOv=     1 NCel=       1 NClECP=     1 NCelD=      1
         NCelK=      1 NCelE2=     1 NClLst=     1 CellRange=     0.0.
 One-electron integrals computed using PRISM.
   1 Symmetry operations used in ECPInt.
 ECPInt:  NShTT=    6441 NPrTT=   21761 LenC2=    6072 LenP2D=   15309.
 LDataN:  DoStor=T MaxTD1= 6 Len=  172
 NBasis=   321 RedAO= T EigKep=  4.21D-04  NBF=   321
 NBsUse=   321 1.00D-06 EigRej= -1.00D+00 NBFU=   321
 Precomputing XC quadrature grid using
 IXCGrd= 4 IRadAn=           5 IRanWt=          -1 IRanGd=           0 AccXCQ= 0.00D+00.
 Generated NRdTot=       0 NPtTot=           0 NUsed=           0 NTot=          32
 NSgBfM=   370   370   370   370   370 MxSgAt=    10 MxSgA2=    10.
 Leave Link  302 at Sat May 24 09:59:58 2025, MaxMem=  3758096384 cpu:               0.6 elap:               0.1
 (Enter /apps/easybuild-2022/easybuild/software/Compiler/NVHPC/22.11-CUDA-11.7.0/Gaussian/g16c01-CUDA-11.7.0/g16/l303.exe)
 DipDrv:  MaxL=1.
 Leave Link  303 at Sat May 24 09:59:58 2025, MaxMem=  3758096384 cpu:               0.1 elap:               0.0
 (Enter /apps/easybuild-2022/easybuild/software/Compiler/NVHPC/22.11-CUDA-11.7.0/Gaussian/g16c01-CUDA-11.7.0/g16/l401.exe)
 Initial guess from the checkpoint file:  "/tmp/Gau-284795.chk"
 B after Tr=     0.000000    0.000000    0.000000
[...]
 (Enter /apps/easybuild-2022/easybuild/software/Compiler/NVHPC/22.11-CUDA-11.7.0/Gaussian/g16c01-CUDA-11.7.0/g16/l103.exe)

 GradGradGradGradGradGradGradGradGradGradGradGradGradGradGradGradGradGrad
 Berny optimization.
 Red2BG is reusing G-inverse.
 Internal  Forces:  Max     0.000003248 RMS     0.000001125
 Search for a local minimum.
 Step number   1 out of a maximum of    2
 All quantities printed in internal units (Hartrees-Bohrs-Radians)
 Second derivative matrix not updated -- analytic derivatives used.
 ITU=  0
     Eigenvalues ---    0.00155   0.02369   0.03527   0.09609   0.10439
     Eigenvalues ---    0.10864   0.11024   0.14305   0.17449   0.20940
     Eigenvalues ---    0.22116   0.23675   0.24711   0.25832   0.26614
     Eigenvalues ---    0.28325   0.34632   0.40628   0.41710   0.42952
     Eigenvalues ---    0.48870   0.59060   0.75531   0.75694
 Angle between quadratic step and forces=  34.71 degrees.
 Linear search not attempted -- first point.
 Iteration  1 RMS(Cart)=  0.00001096 RMS(Int)=  0.00000000
 Iteration  2 RMS(Cart)=  0.00000000 RMS(Int)=  0.00000000
 ITry= 1 IFail=0 DXMaxC= 2.89D-05 DCOld= 1.00D+10 DXMaxT= 3.00D-01 DXLimC= 3.00D+00 Rises=F
 Variable       Old X    -DE/DX   Delta X   Delta X   Delta X     New X
                                 (Linear)    (Quad)   (Total)
    R1        2.88975   0.00000   0.00000   0.00000   0.00000   2.88976
    R2        2.49137  -0.00000   0.00000  -0.00000  -0.00000   2.49137
    R3        2.50467   0.00000   0.00000   0.00001   0.00001   2.50468
    R4        2.50621  -0.00000   0.00000  -0.00000  -0.00000   2.50621
    R5        2.49269   0.00000   0.00000   0.00000   0.00000   2.49269
    R6        3.27086   0.00000   0.00000   0.00000   0.00000   3.27086
    R7        2.72868   0.00000   0.00000   0.00001   0.00001   2.72869
    R8        2.67335  -0.00000   0.00000   0.00000   0.00000   2.67335
    R9        2.67199  -0.00000   0.00000  -0.00000  -0.00000   2.67199
   R10        3.03200  -0.00000   0.00000  -0.00000  -0.00000   3.03199
    A1        1.93875   0.00000   0.00000   0.00000   0.00000   1.93875
    A2        1.90733  -0.00000   0.00000  -0.00001  -0.00001   1.90732
    A3        1.90072   0.00000   0.00000   0.00001   0.00001   1.90073
    A4        1.91034  -0.00000   0.00000  -0.00001  -0.00001   1.91033
    A5        1.90468  -0.00000   0.00000   0.00000   0.00000   1.90469
    A6        1.90164  -0.00000   0.00000  -0.00000  -0.00000   1.90164
    A7        1.93268   0.00000   0.00000   0.00001   0.00001   1.93269
    A8        2.20300   0.00000   0.00000  -0.00000  -0.00000   2.20299
    A9        2.00062  -0.00000   0.00000  -0.00001  -0.00001   2.00061
   A10        2.09242  -0.00000   0.00000  -0.00001  -0.00001   2.09240
   A11        1.98974  -0.00000   0.00000   0.00000   0.00000   1.98974
   A12        2.01575  -0.00000   0.00000  -0.00001  -0.00001   2.01574
   A13        2.08282   0.00000   0.00000   0.00001   0.00001   2.08284
   A14        2.14238  -0.00000   0.00000  -0.00000  -0.00000   2.14238
   A15        1.97104  -0.00000   0.00000  -0.00000  -0.00000   1.97104
   A16        1.97624   0.00000   0.00000   0.00001   0.00001   1.97625
    D1        3.13043   0.00000   0.00000   0.00001   0.00001   3.13044
    D2       -0.36596   0.00000   0.00000   0.00001   0.00001  -0.36595
    D3        0.84938  -0.00000   0.00000  -0.00000  -0.00000   0.84938
    D4       -1.04325   0.00000   0.00000  -0.00000  -0.00000  -1.04325
    D5        1.74355  -0.00000   0.00000  -0.00000  -0.00000   1.74354
    D6        2.95889  -0.00000   0.00000  -0.00001  -0.00001   2.95888
    D7        1.03226   0.00000   0.00000  -0.00000  -0.00000   1.03226
    D8       -2.46412  -0.00000   0.00000  -0.00001  -0.00001  -2.46413
    D9       -1.24878  -0.00000   0.00000  -0.00001  -0.00001  -1.24880
   D10       -2.79729  -0.00000   0.00000  -0.00000  -0.00000  -2.79729
   D11        0.04483  -0.00000   0.00000  -0.00001  -0.00001   0.04482
   D12       -0.03980   0.00000   0.00000   0.00000   0.00000  -0.03980
   D13        2.80231  -0.00000   0.00000  -0.00001  -0.00001   2.80231
         Item               Value     Threshold  Converged?
 Maximum Force            0.000003     0.000015     YES
 RMS     Force            0.000001     0.000010     YES
 Maximum Displacement     0.000029     0.000060     YES
 RMS     Displacement     0.000011     0.000040     YES
 Predicted change in Energy=-1.286778D-10
 Optimization completed.
    -- Stationary point found.
                           ----------------------------
                           !   Optimized Parameters   !
                           ! (Angstroms and Degrees)  !
 --------------------------                            --------------------------
 ! Name  Definition              Value          Derivative Info.                !
 --------------------------------------------------------------------------------
 ! R1    R(1,2)                  1.5292         -DE/DX =    0.0                 !
 ! R2    R(1,8)                  1.3184         -DE/DX =    0.0                 !
 ! R3    R(1,9)                  1.3254         -DE/DX =    0.0                 !
 ! R4    R(1,10)                 1.3262         -DE/DX =    0.0                 !
 ! R5    R(2,3)                  1.3191         -DE/DX =    0.0                 !
 ! R6    R(2,4)                  1.7309         -DE/DX =    0.0                 !
 ! R7    R(2,7)                  1.444          -DE/DX =    0.0                 !
 ! R8    R(4,5)                  1.4147         -DE/DX =    0.0                 !
 ! R9    R(4,6)                  1.414          -DE/DX =    0.0                 !
 ! R10   R(4,7)                  1.6045         -DE/DX =    0.0                 !
 ! A1    A(2,1,8)              111.0823         -DE/DX =    0.0                 !
 ! A2    A(2,1,9)              109.2818         -DE/DX =    0.0                 !
 ! A3    A(2,1,10)             108.9031         -DE/DX =    0.0                 !
 ! A4    A(8,1,9)              109.4543         -DE/DX =    0.0                 !
 ! A5    A(8,1,10)             109.1302         -DE/DX =    0.0                 !
 ! A6    A(9,1,10)             108.9558         -DE/DX =    0.0                 !
 ! A7    A(1,2,3)              110.7341         -DE/DX =    0.0                 !
 ! A8    A(1,2,4)              126.2223         -DE/DX =    0.0                 !
 ! A9    A(1,2,7)              114.6271         -DE/DX =    0.0                 !
 ! A10   A(3,2,4)              119.8866         -DE/DX =    0.0                 !
 ! A11   A(3,2,7)              114.0038         -DE/DX =    0.0                 !
 ! A12   A(2,4,5)              115.4941         -DE/DX =    0.0                 !
 ! A13   A(2,4,6)              119.3369         -DE/DX =    0.0                 !
 ! A14   A(5,4,6)              122.7495         -DE/DX =    0.0                 !
 ! A15   A(5,4,7)              112.9325         -DE/DX =    0.0                 !
 ! A16   A(6,4,7)              113.2304         -DE/DX =    0.0                 !
 ! D1    D(8,1,2,3)            179.3604         -DE/DX =    0.0                 !
 ! D2    D(8,1,2,4)            -20.9678         -DE/DX =    0.0                 !
 ! D3    D(8,1,2,7)             48.6661         -DE/DX =    0.0                 !
 ! D4    D(9,1,2,3)            -59.7739         -DE/DX =    0.0                 !
 ! D5    D(9,1,2,4)             99.898          -DE/DX =    0.0                 !
 ! D6    D(9,1,2,7)            169.5319         -DE/DX =    0.0                 !
 ! D7    D(10,1,2,3)            59.1443         -DE/DX =    0.0                 !
 ! D8    D(10,1,2,4)          -141.1839         -DE/DX =    0.0                 !
 ! D9    D(10,1,2,7)           -71.55           -DE/DX =    0.0                 !
 ! D10   D(1,2,4,5)           -160.2728         -DE/DX =    0.0                 !
 ! D11   D(1,2,4,6)              2.5685         -DE/DX =    0.0                 !
 ! D12   D(3,2,4,5)             -2.2805         -DE/DX =    0.0                 !
 ! D13   D(3,2,4,6)            160.5608         -DE/DX =    0.0                 !
 --------------------------------------------------------------------------------
 GradGradGradGradGradGradGradGradGradGradGradGradGradGradGradGradGradGrad

 Leave Link  103 at Sat May 24 10:03:02 2025, MaxMem=  3758096384 cpu:               0.0 elap:               0.0
 (Enter /apps/easybuild-2022/easybuild/software/Compiler/NVHPC/22.11-CUDA-11.7.0/Gaussian/g16c01-CUDA-11.7.0/g16/l9999.exe)

 ----------------------------------------------------------------------

 Electric dipole moment (input orientation):
 (Debye = 10**-18 statcoulomb cm , SI units = C m)
                  (au)            (Debye)         (10**-30 SI)
   Tot        0.544631D+00      0.138431D+01      0.461757D+01
   x         -0.644427D-01     -0.163797D+00     -0.546368D+00
   y         -0.537153D+00     -0.136531D+01     -0.455417D+01
   z         -0.627456D-01     -0.159483D+00     -0.531979D+00

 Dipole polarizability, Alpha (input orientation).
 (esu units = cm**3 , SI units = C**2 m**2 J**-1)
 Alpha(0;0):
               (au)            (10**-24 esu)      (10**-40 SI)
   iso        0.499952D+02      0.740852D+01      0.824309D+01
   aniso      0.165522D+02      0.245278D+01      0.272909D+01
   xx         0.427811D+02      0.633951D+01      0.705366D+01
   yx         0.533111D+01      0.789988D+00      0.878981D+00
   yy         0.577185D+02      0.855300D+01      0.951650D+01
   zx         0.257731D+01      0.381917D+00      0.424940D+00
   zy         0.534728D+00      0.792385D-01      0.881648D-01
   zz         0.494858D+02      0.733304D+01      0.815911D+01

 ----------------------------------------------------------------------

 Dipole orientation:
     6          0.47107895         -1.27713209          2.16891548
     6          0.58516888          0.83101052          0.19574784
     9          1.07746906          3.02364101          1.27440161
    16          1.07406156          0.44820641         -3.01563122
     8          1.91236978          2.62620940         -4.31960371
     8          1.30760409         -2.01696397         -4.01959672
     8         -1.52994278          0.89154950         -1.52713947
     9         -0.04585401         -3.47102140          1.10752354
     9          2.67338044         -1.42165550          3.35312286
     9         -1.31661219         -0.73085224          3.83829898

 Electric dipole moment (dipole orientation):
 (Debye = 10**-18 statcoulomb cm , SI units = C m)
                  (au)            (Debye)         (10**-30 SI)
   Tot        0.544631D+00      0.138431D+01      0.461757D+01
   x          0.000000D+00      0.000000D+00      0.000000D+00
   y          0.000000D+00      0.000000D+00      0.000000D+00
   z          0.544631D+00      0.138431D+01      0.461757D+01

 Dipole polarizability, Alpha (dipole orientation).
 (esu units = cm**3 , SI units = C**2 m**2 J**-1)
 Alpha(0;0):
               (au)            (10**-24 esu)      (10**-40 SI)
   iso        0.499952D+02      0.740852D+01      0.824309D+01
   aniso      0.165522D+02      0.245278D+01      0.272909D+01
   xx         0.413478D+02      0.612712D+01      0.681734D+01
   yx         0.111733D+01      0.165571D+00      0.184223D+00
   yy         0.498015D+02      0.737982D+01      0.821116D+01
   zx        -0.368112D+01     -0.545486D+00     -0.606935D+00
   zy        -0.193332D+00     -0.286488D-01     -0.318761D-01
   zz         0.588362D+02      0.871862D+01      0.970077D+01

 ----------------------------------------------------------------------
 Unable to Open any file for archive entry.
 1\1\GINC-SPARTAN-BM171\Freq\RM062X\def2TZVPP\C2F4O3S1\AKHALILOV\24-May
 -2025\0\\#P Geom=AllCheck Guess=TCheck SCRF=Check GenChk RM062X/def2TZ
 VPP Freq\\Gaussian input prepared by ASE\\0,1\C,0.039629,-1.071722,-0.
 828274\C,0.339531,-0.19075,0.38514\F,0.650652,-0.929213,1.432913\S,0.7
 74874,1.484113,0.350521\O,1.415172,1.970998,1.514252\O,0.823262,2.1618
 28,-0.889495\O,-0.654457,0.821475,0.654208\F,-0.285514,-0.340819,-1.87
 6214\F,1.108255,-1.801954,-1.113793\F,-0.968777,-1.880932,-0.533004\\V
 ersion=ES64L-G16RevC.01\HF=-1099.4238071\RMSD=4.959e-09\RMSF=3.830e-06
 \ZeroPoint=0.0383934\Thermal=0.0469632\ETot=-1099.3768439\HTot=-1099.3
 758997\GTot=-1099.4201838\Dipole=-0.0644427,-0.5371528,-0.0627456\Dipo
 leDeriv=1.6279035,-0.0168914,-0.0763945,0.032264,1.7380995,-0.0603314,
 0.0193908,0.3022493,1.4915767,0.4001164,-0.3272692,0.0596058,-0.106704
 4,0.9208169,-0.3055214,0.0525395,-0.5602408,0.6382366,-0.1851405,0.088
 92,-0.0904308,0.0899468,-0.6602915,0.236002,-0.1480773,0.5097246,-0.61
 20992,1.6037886,0.4875057,0.1768595,0.5552506,2.0322393,-0.0086945,0.1
 468464,-0.1140875,1.9714289,-0.5507688,-0.1697046,-0.1801181,-0.215034
 4,-0.7343408,-0.1402763,-0.3013152,-0.3092654,-0.8400662,-0.4192359,-0
 .021944,-0.0409969,-0.1616159,-0.7977705,0.2107844,0.0697765,0.3327316
 ,-0.8553883,-0.8954605,-0.0012315,0.1146872,-0.1820631,-0.7999285,0.01
 96753,0.1385038,-0.0617807,-0.4168982,-0.3035715,0.0591571,-0.1312702,
 0.0468932,-0.4487538,0.1557954,-0.1452679,0.1692597,-0.684182,-0.64289
 57,0.2836668,0.0976807,0.2718321,-0.5790259,-0.1245882,0.123984,-0.206
 5255,-0.3508931,-0.6347355,-0.3822089,0.0703772,-0.3307688,-0.6710447,
 0.0171546,0.0436194,-0.0620653,-0.3417151\Polar=42.7811454,5.3311055,5
 7.7185188,2.5773067,0.5347281,49.4858358\PG=Unknown\NImag=0\\0.5814747
 8,-0.00740303,0.60548175,0.01537641,0.00343480,0.62561208,-0.06013274,
 -0.02282563,-0.01302512,0.30212136,-0.03275357,-0.09821410,-0.06045661
 ,0.01434986,0.61897353,-0.03284770,-0.08720813,-0.14917278,0.05737137,
 -0.02007988,0.56316399,-0.00136989,0.00871572,-0.01134432,-0.06926344,
 0.02087760,-0.05050137,0.06669844,0.00102422,-0.00014889,-0.00080876,0
 .03232707,-0.15325381,0.14166350,-0.06006557,0.19338719,-0.00907796,0.
 04004684,-0.03486787,-0.05116256,0.12208279,-0.28001282,0.07977383,-0.
 17492970,0.32122631,-0.00578885,-0.00273374,0.00592683,0.04794629,-0.0
 8294252,-0.02671198,-0.00758974,0.01171114,-0.00194823,0.49141063,-0.0
 0776680,-0.01747588,-0.02855351,-0.08109856,-0.25400270,0.02282425,0.0
 0450979,-0.00705004,-0.00112116,0.22107930,0.76722280,-0.00937408,-0.0
 1995379,0.02276962,-0.03077706,-0.01194892,-0.02278227,0.01237832,0.02
 858602,-0.02177873,0.20362846,-0.09813222,1.18661846,0.00029635,0.0012
 0704,0.00107005,-0.00688737,0.00280569,-0.00215740,0.00121995,-0.00231
 078,0.00208315,-0.19827234,-0.09458866,-0.23554682,0.19350444,-0.00329
 430,0.00312386,0.01263669,0.00170420,0.00327522,-0.03068735,0.00125226
 ,-0.00019557,0.00270364,-0.11052130,-0.17395843,-0.18518565,0.12428643
 ,0.14367588,-0.00187098,0.00441869,0.00436683,0.01051013,0.01020340,-0
 .01770864,0.00052691,-0.00579554,0.00917963,-0.24409213,-0.18549459,-0
 .51303903,0.26001534,0.18898496,0.52748303,-0.00065315,0.00106036,-0.0
 0265842,-0.01224960,-0.00125216,0.00488910,0.00344735,-0.00028421,-0.0
 0114136,-0.07054676,-0.00378507,0.01074662,0.01431450,0.00503187,-0.01
 934833,0.05377651,0.00035789,0.00458936,0.00734469,0.01835774,0.012384
 99,0.00880642,-0.00407897,-0.01005181,0.00803267,-0.01917625,-0.248334
 79,0.27859877,-0.00642890,0.02059891,-0.01645933,0.02872284,0.21864365
 ,0.00104670,0.00359478,-0.01309643,-0.00790113,-0.00636207,0.00484448,
 0.00054723,0.00428893,-0.00076163,0.01785244,0.26783935,-0.57135040,0.
 00218796,0.02335711,-0.01808664,-0.01491321,-0.29278766,0.59330437,-0.
 00190212,0.00297580,-0.00907923,-0.16995617,0.08374693,0.05393252,0.00
 268615,0.02013866,-0.01620805,-0.24678252,-0.04655292,0.04779403,-0.00
 605271,-0.01656948,-0.00479552,0.00969978,-0.01504948,0.00140562,0.398
 57670,0.03059793,-0.01446525,0.00326561,0.04081158,-0.08321684,-0.0334
 5680,0.03087105,-0.03099249,0.01486515,-0.02033246,-0.07643414,0.00186
 584,-0.02286221,0.00767613,0.00943838,-0.02737911,0.00756906,0.0036442
 3,-0.03027754,0.19155571,0.02376102,-0.00440663,-0.00154411,0.04200203
 ,-0.02668039,-0.06687766,-0.02816335,0.01460926,0.01416446,0.04403485,
 0.00519154,-0.06489346,-0.02636211,-0.00478136,0.00917360,0.02174708,0
 .01267422,-0.00382967,-0.07529161,0.01067823,0.11570198,-0.09350101,0.
 02897458,-0.05915884,0.00228212,0.01078960,-0.01100538,-0.00005056,-0.
 00163027,-0.00368781,-0.00206562,0.00153464,0.00044033,0.00031599,-0.0
 0024454,-0.00009596,0.00034920,-0.00176417,-0.00030905,0.00256095,-0.0
 0235981,-0.00014381,0.10639339,0.03103901,-0.13735859,0.09892353,0.001
 24128,0.00507439,-0.00191851,-0.00068115,0.00174211,-0.00414522,0.0017
 3420,-0.00316711,0.00693390,-0.00054292,0.00089769,-0.00127858,-0.0019
 8997,-0.00187239,-0.00482478,-0.00242801,0.00235054,-0.00195995,-0.053
 36673,0.19986775,-0.05735857,0.09174546,-0.26524667,-0.01403327,0.0298
 0837,-0.03410705,-0.00346268,-0.00481489,-0.01159881,-0.00089397,0.007
 90506,-0.00725575,-0.00008453,-0.00292299,-0.00002739,0.00047274,-0.00
 346582,0.00437758,0.00115820,-0.00289507,0.00098003,0.07540209,-0.1740
 0098,0.32396878,-0.20957255,0.10698978,0.05318127,-0.00995827,0.012829
 91,0.00192641,0.00242935,-0.00238853,0.00210637,-0.00465839,-0.0006968
 7,0.00123611,0.00131481,0.00096712,0.00111959,0.00098496,0.00068125,-0
 .00038761,0.00351050,0.00269161,0.00078799,-0.02625116,0.04108366,-0.0
 1936843,0.31990810,0.10559049,-0.16573185,-0.04991626,0.03251683,-0.01
 829060,-0.00615905,-0.00290235,0.00297527,-0.00382615,0.00632701,0.004
 86167,0.00072572,-0.00161773,-0.00112688,-0.00131271,-0.00091150,-0.00
 134146,0.00052946,-0.00268318,-0.00764659,-0.00595919,0.04348581,-0.03
 111699,0.01844326,-0.16778924,0.19349191,0.04997957,-0.04688117,-0.104
 26703,0.02529264,-0.01934931,-0.00211938,0.00008910,-0.00083024,0.0010
 9187,0.00494109,0.00476124,-0.00332350,-0.00123896,-0.00143942,-0.0005
 8989,-0.00039922,-0.00134887,0.00211264,-0.00159475,-0.00845353,-0.004
 26215,-0.03267796,0.03135116,0.01038346,-0.06804334,0.04153546,0.09419
 486,-0.20885082,-0.11696087,0.01971138,-0.02390218,-0.02845134,0.00510
 443,0.00179239,0.00147828,-0.00073738,-0.00365270,0.00736515,-0.000525
 90,0.00024636,-0.00261226,-0.00196906,0.00087720,-0.00162196,0.0004710
 5,0.00765945,-0.00176104,-0.00237209,0.00996669,-0.01608939,0.01816842
 ,-0.07770733,-0.01201615,0.02365184,0.29357093,-0.11739184,-0.17980041
 ,0.01412980,-0.03738436,-0.03273009,0.00621555,0.00150163,0.00358804,-
 0.00370886,-0.00514539,0.00833864,-0.00148967,0.00005204,-0.00396681,-
 0.00270467,0.00078695,-0.00218553,0.00072066,0.00669921,0.00360387,0.0
 0063428,-0.02541912,-0.03641738,0.04019760,0.00563130,0.02392552,0.000
 65469,0.17066958,0.21564415,0.02036558,0.01520915,-0.08455363,-0.01827
 703,-0.01721739,0.00477212,0.00015633,-0.00196857,0.00335760,-0.002737
 35,0.00478005,-0.00496494,0.00003333,-0.00266561,-0.00075150,0.0006050
 0,-0.00139509,0.00248570,0.00267880,0.00104796,0.00138697,0.03123639,0
 .05091943,-0.02147418,0.02744164,0.00593946,0.00677912,-0.06150270,-0.
 05464939,0.09296275\\0.00000597,-0.00000275,0.00000016,-0.00000328,0.0
 0000239,-0.00000064,-0.00001039,0.00000058,0.00000057,0.00000353,-0.00
 000195,0.00000136,-0.00000123,0.00000003,0.00000196,0.00000846,-0.0000
 0280,-0.00000179,-0.00000139,0.00000317,-0.00000480,0.00000576,0.,-0.0
 0000159,-0.00000350,-0.00000210,0.00000681,-0.00000395,0.00000341,-0.0
 0000205\\\@
 The archive entry for this job was punched.


      THE ONE-EYED VIEW OF OUR UNIVERSE SAYS YOU MUST NOT LOOK
      FAR AFIELD FOR PROBLEMS.  SUCH PROBLEMS MAY NEVER ARRIVE. 
      INSTEAD, TEND TO THE WOLF WITHIN YOUR FENCES.
      THE PACKS RANGING OUTSIDE MAY NOT EVEN EXIST.

                              -- THE AZHAR BOOK SHAMRA I:4
                                 CHILDREN OF DUNE, BY FRANK HERBERT
 Job cpu time:       0 days  0 hours 24 minutes  1.4 seconds.
 Elapsed time:       0 days  0 hours  3 minutes  3.5 seconds.
 File lengths (MBytes):  RWF=    112 Int=      0 D2E=      0 Chk=      8 Scr=      1
 Normal termination of Gaussian 16 at Sat May 24 10:03:02 2025.
done
