 Entering Gaussian System, Link 0=g16
 Initial command:
 /apps/easybuild-2022/easybuild/software/Compiler/NVHPC/22.11-CUDA-11.7.0/Gaussian/g16c01-CUDA-11.7.0/g16/l1.exe "/tmp/Gau-28610.inp" -scrdir="/tmp/"
 Entering Link 1 = /apps/easybuild-2022/easybuild/software/Compiler/NVHPC/22.11-CUDA-11.7.0/Gaussian/g16c01-CUDA-11.7.0/g16/l1.exe PID=     28611.
  
 Copyright (c) 1988-2019, Gaussian, Inc.  All Rights Reserved.
  
 This is part of the Gaussian(R) 16 program.  It is based on
 the Gaussian(R) 09 system (copyright 2009, Gaussian, Inc.),
 the Gaussian(R) 03 system (copyright 2003, Gaussian, Inc.),
 the Gaussian(R) 98 system (copyright 1998, Gaussian, Inc.),
 the Gaussian(R) 94 system (copyright 1995, Gaussian, Inc.),
 the Gaussian 92(TM) system (copyright 1992, Gaussian, Inc.),
 the Gaussian 90(TM) system (copyright 1990, Gaussian, Inc.),
 the Gaussian 88(TM) system (copyright 1988, Gaussian, Inc.),
 the Gaussian 86(TM) system (copyright 1986, Carnegie Mellon
 University), and the Gaussian 82(TM) system (copyright 1983,
 Carnegie Mellon University). Gaussian is a federally registered
 trademark of Gaussian, Inc.
  
 This software contains proprietary and confidential information,
 including trade secrets, belonging to Gaussian, Inc.
  
 This software is provided under written license and may be
 used, copied, transmitted, or stored only in accord with that
 written license.
  
 The following legend is applicable only to US Government
 contracts under FAR:
  
                    RESTRICTED RIGHTS LEGEND
  
 Use, reproduction and disclosure by the US Government is
 subject to restrictions as set forth in subparagraphs (a)
 and (c) of the Commercial Computer Software - Restricted
 Rights clause in FAR 52.227-19.
  
 Gaussian, Inc.
 340 Quinnipiac St., Bldg. 40, Wallingford CT 06492
  
  
 ---------------------------------------------------------------
 Warning -- This program may not be used in any manner that
 competes with the business of Gaussian, Inc. or will provide
 assistance to any competitor of Gaussian, Inc.  The licensee
 of this program is prohibited from giving any competitor of
 Gaussian, Inc. access to this program.  By using this program,
 the user acknowledges that Gaussian, Inc. is engaged in the
 business of creating and licensing software in the field of
 computational chemistry and represents and warrants to the
 licensee that it is not a competitor of Gaussian, Inc. and that
 it will not use this program in any manner prohibited above.
 ---------------------------------------------------------------
  

 Cite this work as:
 Gaussian 16, Revision C.01,
 M. J. Frisch, G. W. Trucks, H. B. Schlegel, G. E. Scuseria, 
 M. A. Robb, J. R. Cheeseman, G. Scalmani, V. Barone, 
 G. A. Petersson, H. Nakatsuji, X. Li, M. Caricato, A. V. Marenich, 
 J. Bloino, B. G. Janesko, R. Gomperts, B. Mennucci, H. P. Hratchian, 
 J. V. Ortiz, A. F. Izmaylov, J. L. Sonnenberg, D. Williams-Young, 
 F. Ding, F. Lipparini, F. Egidi, J. Goings, B. Peng, A. Petrone, 
 T. Henderson, D. Ranasinghe, V. G. Zakrzewski, J. Gao, N. Rega, 
 G. Zheng, W. Liang, M. Hada, M. Ehara, K. Toyota, R. Fukuda, 
 J. Hasegawa, M. Ishida, T. Nakajima, Y. Honda, O. Kitao, H. Nakai, 
 T. Vreven, K. Throssell, J. A. Montgomery, Jr., J. E. Peralta, 
 F. Ogliaro, M. J. Bearpark, J. J. Heyd, E. N. Brothers, K. N. Kudin, 
 V. N. Staroverov, T. A. Keith, R. Kobayashi, J. Normand, 
 K. Raghavachari, A. P. Rendell, J. C. Burant, S. S. Iyengar, 
 J. Tomasi, M. Cossi, J. M. Millam, M. Klene, C. Adamo, R. Cammi, 
 J. W. Ochterski, R. L. Martin, K. Morokuma, O. Farkas, 
 J. B. Foresman, and D. J. Fox, Gaussian, Inc., Wallingford CT, 2019.
 
 ******************************************
 Gaussian 16:  ES64L-G16RevC.01  3-Jul-2019
                24-May-2025 
 ******************************************
 %mem=28GB
 %nprocshared=8
 Will use up to    8 processors via shared memory.
 ----------------------------------------------------------------------
 #P M062X/Def2TZVPP Symm(None) scf(xqc) pop(None) freq opt(CalcFC, Tigh
 t)
 ----------------------------------------------------------------------
 1/7=10,10=4,18=20,19=15,26=3,38=1/1,3;
 2/9=110,12=2,15=3,17=6,18=5,40=1/2;
 3/5=44,7=202,11=2,25=1,30=1,71=2,74=-55,140=1/1,2,3;
 4//1;
 5/5=2,8=3,13=1,38=5/2,8;
 8/6=4,10=90,11=11/1;
 11/6=1,8=1,9=11,15=111,16=1,31=1/1,2,10;
 10/6=1,13=1,31=1/2;
 7/10=1,25=1,30=1/1,2,3,16;
 1/7=10,10=4,18=20,19=15,26=3/3(2);
 2/9=110,15=3/2;
 99//99;
 2/9=110,15=3/2;
 3/5=44,7=202,11=2,25=1,30=1,71=1,74=-55/1,2,3;
 4/5=5,16=3,69=1/1;
 5/5=2,8=3,13=1,38=5/2,8;
 7/30=1/1,2,3,16;
 1/7=10,18=20,19=15,26=3/3(-5);
 2/9=110,15=3/2;
 99/9=1/99;
 Leave Link    1 at Sat May 24 01:08:26 2025, MaxMem=  3758096384 cpu:               0.0 elap:               0.0
 (Enter /apps/easybuild-2022/easybuild/software/Compiler/NVHPC/22.11-CUDA-11.7.0/Gaussian/g16c01-CUDA-11.7.0/g16/l101.exe)
 ------------------------------
 Gaussian input prepared by ASE
 ------------------------------
 Symbolic Z-matrix:
 Charge =  0 Multiplicity = 2
 C                     1.07216  -0.24953   2.8236 
 C                     1.89827  -0.56234   1.59683 
 F                     3.17513  -0.76118   1.79214 
 S                     1.42      0.        0. 
 O                     2.21361  -0.68524  -0.94492 
 O                     0.        0.        0. 
 O                     1.9229    1.49706   0. 
 F                     0.73293   1.04993   2.84488 
 F                    -0.04704  -0.95534   2.84887 
 F                     1.77178  -0.50989   3.917 
 H                     2.72315   1.57436   0.54003 
 
 ITRead=  0  0  0  0  0  0  0  0  0  0  0
 MicOpt= -1 -1 -1 -1 -1 -1 -1 -1 -1 -1 -1
 NAtoms=     11 NQM=       11 NQMF=       0 NMMI=      0 NMMIF=      0
                NMic=       0 NMicF=      0.
                    Isotopes and Nuclear Properties:
 (Nuclear quadrupole moments (NQMom) in fm**2, nuclear magnetic moments (NMagM)
  in nuclear magnetons)

  Atom         1           2           3           4           5           6           7           8           9          10
 IAtWgt=          12          12          19          32          16          16          16          19          19          19
 AtmWgt=  12.0000000  12.0000000  18.9984032  31.9720718  15.9949146  15.9949146  15.9949146  18.9984032  18.9984032  18.9984032
 NucSpn=           0           0           1           0           0           0           0           1           1           1
 AtZEff=  -0.0000000  -0.0000000  -0.0000000  -0.0000000  -0.0000000  -0.0000000  -0.0000000  -0.0000000  -0.0000000  -0.0000000
 NQMom=    0.0000000   0.0000000   0.0000000   0.0000000   0.0000000   0.0000000   0.0000000   0.0000000   0.0000000   0.0000000
 NMagM=    0.0000000   0.0000000   2.6288670   0.0000000   0.0000000   0.0000000   0.0000000   2.6288670   2.6288670   2.6288670
 AtZNuc=   6.0000000   6.0000000   9.0000000  16.0000000   8.0000000   8.0000000   8.0000000   9.0000000   9.0000000   9.0000000

  Atom        11
 IAtWgt=           1
 AtmWgt=   1.0078250
 NucSpn=           1
 AtZEff=  -0.0000000
 NQMom=    0.0000000
 NMagM=    2.7928460
 AtZNuc=   1.0000000
 Leave Link  101 at Sat May 24 01:08:26 2025, MaxMem=  3758096384 cpu:               0.2 elap:               0.2
 (Enter /apps/easybuild-2022/easybuild/software/Compiler/NVHPC/22.11-CUDA-11.7.0/Gaussian/g16c01-CUDA-11.7.0/g16/l103.exe)

 GradGradGradGradGradGradGradGradGradGradGradGradGradGradGradGradGradGrad
 Berny optimization.
 Initialization pass.
                           ----------------------------
                           !    Initial Parameters    !
                           ! (Angstroms and Degrees)  !
 --------------------------                            --------------------------
 ! Name  Definition              Value          Derivative Info.                !
 --------------------------------------------------------------------------------
 ! R1    R(1,2)                  1.5117         calculate D2E/DX2 analytically  !
 ! R2    R(1,8)                  1.3432         calculate D2E/DX2 analytically  !
 ! R3    R(1,9)                  1.3234         calculate D2E/DX2 analytically  !
 ! R4    R(1,10)                 1.3239         calculate D2E/DX2 analytically  !
 ! R5    R(2,3)                  1.3069         calculate D2E/DX2 analytically  !
 ! R6    R(2,4)                  1.7592         calculate D2E/DX2 analytically  !
 ! R7    R(4,5)                  1.4115         calculate D2E/DX2 analytically  !
 ! R8    R(4,6)                  1.42           calculate D2E/DX2 analytically  !
 ! R9    R(4,7)                  1.5793         calculate D2E/DX2 analytically  !
 ! R10   R(7,11)                 0.9685         calculate D2E/DX2 analytically  !
 ! A1    A(2,1,8)              110.5526         calculate D2E/DX2 analytically  !
 ! A2    A(2,1,9)              111.5482         calculate D2E/DX2 analytically  !
 ! A3    A(2,1,10)             109.9214         calculate D2E/DX2 analytically  !
 ! A4    A(8,1,9)              107.5827         calculate D2E/DX2 analytically  !
 ! A5    A(8,1,10)             108.0975         calculate D2E/DX2 analytically  !
 ! A6    A(9,1,10)             109.0412         calculate D2E/DX2 analytically  !
 ! A7    A(1,2,3)              116.3663         calculate D2E/DX2 analytically  !
 ! A8    A(1,2,4)              121.459          calculate D2E/DX2 analytically  !
 ! A9    A(3,2,4)              116.7368         calculate D2E/DX2 analytically  !
 ! A10   A(2,4,5)              107.4346         calculate D2E/DX2 analytically  !
 ! A11   A(2,4,6)              105.7753         calculate D2E/DX2 analytically  !
 ! A12   A(2,4,7)              102.5002         calculate D2E/DX2 analytically  !
 ! A13   A(5,4,6)              124.2124         calculate D2E/DX2 analytically  !
 ! A14   A(5,4,7)              106.3295         calculate D2E/DX2 analytically  !
 ! A15   A(6,4,7)              108.5685         calculate D2E/DX2 analytically  !
 ! A16   A(4,7,11)             109.8026         calculate D2E/DX2 analytically  !
 ! D1    D(8,1,2,3)            106.3135         calculate D2E/DX2 analytically  !
 ! D2    D(8,1,2,4)            -46.8011         calculate D2E/DX2 analytically  !
 ! D3    D(9,1,2,3)           -134.0226         calculate D2E/DX2 analytically  !
 ! D4    D(9,1,2,4)             72.8629         calculate D2E/DX2 analytically  !
 ! D5    D(10,1,2,3)           -12.9448         calculate D2E/DX2 analytically  !
 ! D6    D(10,1,2,4)          -166.0594         calculate D2E/DX2 analytically  !
 ! D7    D(1,2,4,5)           -167.5292         calculate D2E/DX2 analytically  !
 ! D8    D(1,2,4,6)            -33.0122         calculate D2E/DX2 analytically  !
 ! D9    D(1,2,4,7)             80.664          calculate D2E/DX2 analytically  !
 ! D10   D(3,2,4,5)             39.4502         calculate D2E/DX2 analytically  !
 ! D11   D(3,2,4,6)            173.9673         calculate D2E/DX2 analytically  !
 ! D12   D(3,2,4,7)            -72.3565         calculate D2E/DX2 analytically  !
 ! D13   D(2,4,7,11)            32.0494         calculate D2E/DX2 analytically  !
 ! D14   D(5,4,7,11)           -80.5785         calculate D2E/DX2 analytically  !
 ! D15   D(6,4,7,11)           143.6561         calculate D2E/DX2 analytically  !
 --------------------------------------------------------------------------------
 Trust Radius=3.00D-01 FncErr=1.00D-07 GrdErr=1.00D-06 EigMax=2.50D+02 EigMin=1.00D-04
 Number of steps in this run=     51 maximum allowed number of steps=    100.
 GradGradGradGradGradGradGradGradGradGradGradGradGradGradGradGradGradGrad

 Leave Link  103 at Sat May 24 01:08:26 2025, MaxMem=  3758096384 cpu:               0.0 elap:               0.0
 (Enter /apps/easybuild-2022/easybuild/software/Compiler/NVHPC/22.11-CUDA-11.7.0/Gaussian/g16c01-CUDA-11.7.0/g16/l202.exe)
                          Input orientation:                          
 ---------------------------------------------------------------------
 Center     Atomic      Atomic             Coordinates (Angstroms)
 Number     Number       Type             X           Y           Z
 ---------------------------------------------------------------------
      1          6           0        1.072159   -0.249527    2.823600
      2          6           0        1.898269   -0.562345    1.596832
      3          9           0        3.175125   -0.761177    1.792144
      4         16           0        1.419997    0.000000    0.000000
      5          8           0        2.213611   -0.685235   -0.944915
      6          8           0        0.000000    0.000000    0.000000
      7          8           0        1.922895    1.497055    0.000000
      8          9           0        0.732932    1.049927    2.844881
      9          9           0       -0.047040   -0.955339    2.848871
     10          9           0        1.771782   -0.509889    3.917003
     11          1           0        2.723148    1.574361    0.540027
 ---------------------------------------------------------------------
                    Distance matrix (angstroms):
                    1          2          3          4          5
     1  C    0.000000
     2  C    1.511712   0.000000
     3  F    2.397532   1.306921   0.000000
     4  S    2.855867   1.759218   2.621382   0.000000
     5  O    3.961624   2.564181   2.902028   1.411466   0.000000
     6  O    3.030595   2.543527   3.724593   1.419997   2.502496
     7  O    3.427393   2.606071   3.143163   1.579266   2.395782
     8  F    1.343171   2.348416   3.217555   3.109301   4.423320
     9  F    1.323410   2.346545   3.396575   3.343791   4.424513
    10  F    1.323930   2.324208   2.558817   3.965684   4.885100
    11  H    3.356641   2.522454   2.688274   2.113869   2.751447
                    6          7          8          9         10
     6  O    0.000000
     7  O    2.436945   0.000000
     8  F    3.119757   3.115973   0.000000
     9  F    3.005154   4.243931   2.151619   0.000000
    10  F    4.329216   4.403813   2.159092   2.155794   0.000000
    11  H    3.191516   0.968509   3.090040   4.405007   4.080828
                   11
    11  H    0.000000
 Symmetry turned off by external request.
 Stoichiometry    C2HF4O3S
 Rotational constants (GHZ):           1.9858564           0.9257448           0.8220391
 Leave Link  202 at Sat May 24 01:08:26 2025, MaxMem=  3758096384 cpu:               0.1 elap:               0.0
 (Enter /apps/easybuild-2022/easybuild/software/Compiler/NVHPC/22.11-CUDA-11.7.0/Gaussian/g16c01-CUDA-11.7.0/g16/l301.exe)
 Standard basis: def2TZVPP (5D, 7F)
 Ernie: Thresh=  0.10000D-02 Tol=  0.10000D-05 Strict=F.
   335 basis functions,   545 primitive gaussians,   387 cartesian basis functions
    45 alpha electrons       44 beta electrons
       nuclear repulsion energy       767.1229989378 Hartrees.
 IExCor= 4336 DFT=T Ex+Corr=M062X ExCW=0 ScaHFX=  0.540000
 ScaDFX=  1.000000  1.000000  1.000000  1.000000 ScalE2=  1.000000  1.000000
 IRadAn=      5 IRanWt=     -1 IRanGd=            0 ICorTp=0 IEmpDi=  4
 NAtoms=   11 NActive=   11 NUniq=   11 SFac= 1.00D+00 NAtFMM=   60 NAOKFM=F Big=F
 Integral buffers will be    131072 words long.
 Raffenetti 2 integral format.
 Two-electron integral symmetry is turned off.
 Leave Link  301 at Sat May 24 01:08:26 2025, MaxMem=  3758096384 cpu:               0.1 elap:               0.0
 (Enter /apps/easybuild-2022/easybuild/software/Compiler/NVHPC/22.11-CUDA-11.7.0/Gaussian/g16c01-CUDA-11.7.0/g16/l302.exe)
 NPDir=0 NMtPBC=     1 NCelOv=     1 NCel=       1 NClECP=     1 NCelD=      1
         NCelK=      1 NCelE2=     1 NClLst=     1 CellRange=     0.0.
 One-electron integrals computed using PRISM.
   1 Symmetry operations used in ECPInt.
 ECPInt:  NShTT=    7140 NPrTT=   23456 LenC2=    6741 LenP2D=   16555.
 LDataN:  DoStor=T MaxTD1= 6 Len=  172
 NBasis=   335 RedAO= T EigKep=  4.39D-04  NBF=   335
 NBsUse=   335 1.00D-06 EigRej= -1.00D+00 NBFU=   335
 Precomputing XC quadrature grid using
 IXCGrd= 4 IRadAn=           5 IRanWt=          -1 IRanGd=           0 AccXCQ= 0.00D+00.
 Generated NRdTot=       0 NPtTot=           0 NUsed=           0 NTot=          32
 NSgBfM=   385   385   385   385   385 MxSgAt=    11 MxSgA2=    11.
 Leave Link  302 at Sat May 24 01:08:26 2025, MaxMem=  3758096384 cpu:               0.6 elap:               0.1
 (Enter /apps/easybuild-2022/easybuild/software/Compiler/NVHPC/22.11-CUDA-11.7.0/Gaussian/g16c01-CUDA-11.7.0/g16/l303.exe)
 DipDrv:  MaxL=1.
 Leave Link  303 at Sat May 24 01:08:26 2025, MaxMem=  3758096384 cpu:               0.1 elap:               0.0
 (Enter /apps/easybuild-2022/easybuild/software/Compiler/NVHPC/22.11-CUDA-11.7.0/Gaussian/g16c01-CUDA-11.7.0/g16/l401.exe)
 ExpMin= 9.52D-02 ExpMax= 6.07D+04 ExpMxC= 2.07D+03 IAcc=3 IRadAn=         5 AccDes= 0.00D+00
 Harris functional with IExCor= 1009 and IRadAn=       5 diagonalized for initial guess.
 HarFok:  IExCor= 1009 AccDes= 0.00D+00 IRadAn=         5 IDoV= 1 UseB2=F ITyADJ=14
 ICtDFT=  3500011 ScaDFX=  1.000000  1.000000  1.000000  1.000000
 FoFCou: FMM=F IPFlag=           0 FMFlag=      100000 FMFlg1=           0
         NFxFlg=           0 DoJE=T BraDBF=F KetDBF=T FulRan=T
         wScrn=  0.000000 ICntrl=       500 IOpCl=  0 I1Cent=   200000004 NGrid=           0
         NMat0=    1 NMatS0=      1 NMatT0=    0 NMatD0=    1 NMtDS0=    0 NMtDT0=    0
 Symmetry not used in FoFCou.
 Harris En= -1099.46639684474    
 JPrj=0 DoOrth=F DoCkMO=F.
 Initial guess <Sx>= 0.0000 <Sy>= 0.0000 <Sz>= 0.5000 <S**2>= 0.7500 S= 0.5000
 Leave Link  401 at Sat May 24 01:08:27 2025, MaxMem=  3758096384 cpu:               3.7 elap:               0.5
 (Enter /apps/easybuild-2022/easybuild/software/Compiler/NVHPC/22.11-CUDA-11.7.0/Gaussian/g16c01-CUDA-11.7.0/g16/l502.exe)
 Keep R1 and R2 ints in memory in canonical form, NReq=3196701089.
 FoFCou: FMM=F IPFlag=           0 FMFlag=           0 FMFlg1=           0
         NFxFlg=           0 DoJE=F BraDBF=F KetDBF=F FulRan=T
         wScrn=  0.000000 ICntrl=       600 IOpCl=  0 I1Cent=           0 NGrid=           0
         NMat0=    1 NMatS0=  56280 NMatT0=    0 NMatD0=    1 NMtDS0=    0 NMtDT0=    0
 Symmetry not used in FoFCou.
 Two-electron integral symmetry not used.
 UHF open shell SCF:
 Using DIIS extrapolation, IDIIS=  1040.
 NGot=  3758096384 LenX=   590296375 LenY=   590146165
 Requested convergence on RMS density matrix=1.00D-08 within  32 cycles.
 Requested convergence on MAX density matrix=1.00D-06.
 Requested convergence on             energy=1.00D-06.
 No special actions if energy rises.
 Integral accuracy reduced to 1.0D-05 until final iterations.

 Cycle   1  Pass 0  IDiag  1:
 E= -1099.71036157879    
 DIIS: error= 2.29D-02 at cycle   1 NSaved=   1.
 NSaved= 1 IEnMin= 1 EnMin= -1099.71036157879     IErMin= 1 ErrMin= 2.29D-02
 ErrMax= 2.29D-02  0.00D+00 EMaxC= 1.00D-01 BMatC= 2.27D+00 BMatP= 2.27D+00
 IDIUse=3 WtCom= 7.71D-01 WtEn= 2.29D-01
 Coeff-Com:  0.100D+01
 Coeff-En:   0.100D+01
 Coeff:      0.100D+01
 Gap=     0.432 Goal=   None    Shift=    0.000
 Gap=     0.272 Goal=   None    Shift=    0.000
 GapD=    0.272 DampG=1.000 DampE=0.500 DampFc=0.5000 IDamp=-1.
 Damping current iteration by 5.00D-01
 RMSDP=2.78D-03 MaxDP=2.50D-01              OVMax= 2.39D-01

 Cycle   2  Pass 0  IDiag  1:
 E= -1099.81166906163     Delta-E=       -0.101307482843 Rises=F Damp=T
 DIIS: error= 8.40D-03 at cycle   2 NSaved=   2.
 NSaved= 2 IEnMin= 2 EnMin= -1099.81166906163     IErMin= 2 ErrMin= 8.40D-03
 ErrMax= 8.40D-03  0.00D+00 EMaxC= 1.00D-01 BMatC= 2.18D-01 BMatP= 2.27D+00
 IDIUse=3 WtCom= 9.16D-01 WtEn= 8.40D-02
 Coeff-Com:  0.104D+00 0.896D+00
 Coeff-En:   0.280D+00 0.720D+00
 Coeff:      0.119D+00 0.881D+00
 Gap=     0.442 Goal=   None    Shift=    0.000
 Gap=     0.314 Goal=   None    Shift=    0.000
 RMSDP=6.73D-04 MaxDP=5.11D-02 DE=-1.01D-01 OVMax= 1.43D-01

 Cycle   3  Pass 0  IDiag  1:
 E= -1100.00194527958     Delta-E=       -0.190276217952 Rises=F Damp=F
 DIIS: error= 4.25D-03 at cycle   3 NSaved=   3.
 NSaved= 3 IEnMin= 3 EnMin= -1100.00194527958     IErMin= 3 ErrMin= 4.25D-03
 ErrMax= 4.25D-03  0.00D+00 EMaxC= 1.00D-01 BMatC= 4.87D-02 BMatP= 2.18D-01
 IDIUse=3 WtCom= 9.57D-01 WtEn= 4.25D-02
 Coeff-Com: -0.534D-01 0.258D+00 0.796D+00
 Coeff-En:   0.000D+00 0.000D+00 0.100D+01
 Coeff:     -0.512D-01 0.247D+00 0.804D+00
 Gap=     0.382 Goal=   None    Shift=    0.000
 Gap=     0.298 Goal=   None    Shift=    0.000
 RMSDP=2.98D-04 MaxDP=2.12D-02 DE=-1.90D-01 OVMax= 2.82D-02

 Cycle   4  Pass 0  IDiag  1:
 E= -1100.00928047948     Delta-E=       -0.007335199897 Rises=F Damp=F
 DIIS: error= 2.25D-03 at cycle   4 NSaved=   4.
 NSaved= 4 IEnMin= 4 EnMin= -1100.00928047948     IErMin= 4 ErrMin= 2.25D-03
 ErrMax= 2.25D-03  0.00D+00 EMaxC= 1.00D-01 BMatC= 1.17D-02 BMatP= 4.87D-02
 IDIUse=3 WtCom= 9.77D-01 WtEn= 2.25D-02
 Coeff-Com: -0.317D-01 0.674D-01 0.402D+00 0.562D+00
 Coeff-En:   0.000D+00 0.000D+00 0.925D-01 0.908D+00
 Coeff:     -0.310D-01 0.659D-01 0.395D+00 0.570D+00
 Gap=     0.380 Goal=   None    Shift=    0.000
 Gap=     0.303 Goal=   None    Shift=    0.000
 RMSDP=9.10D-05 MaxDP=5.09D-03 DE=-7.34D-03 OVMax= 9.50D-03

 Cycle   5  Pass 0  IDiag  1:
 E= -1100.01121908840     Delta-E=       -0.001938608918 Rises=F Damp=F
 DIIS: error= 5.24D-04 at cycle   5 NSaved=   5.
 NSaved= 5 IEnMin= 5 EnMin= -1100.01121908840     IErMin= 5 ErrMin= 5.24D-04
 ErrMax= 5.24D-04  0.00D+00 EMaxC= 1.00D-01 BMatC= 5.98D-04 BMatP= 1.17D-02
 IDIUse=3 WtCom= 9.95D-01 WtEn= 5.24D-03
 Coeff-Com: -0.682D-02 0.535D-02 0.764D-01 0.216D+00 0.709D+00
 Coeff-En:   0.000D+00 0.000D+00 0.000D+00 0.000D+00 0.100D+01
 Coeff:     -0.678D-02 0.532D-02 0.760D-01 0.215D+00 0.711D+00
 Gap=     0.378 Goal=   None    Shift=    0.000
 Gap=     0.306 Goal=   None    Shift=    0.000
 RMSDP=2.87D-05 MaxDP=1.77D-03 DE=-1.94D-03 OVMax= 3.95D-03

 Cycle   6  Pass 0  IDiag  1:
 E= -1100.01135810365     Delta-E=       -0.000139015257 Rises=F Damp=F
 DIIS: error= 1.63D-04 at cycle   6 NSaved=   6.
 NSaved= 6 IEnMin= 6 EnMin= -1100.01135810365     IErMin= 6 ErrMin= 1.63D-04
 ErrMax= 1.63D-04  0.00D+00 EMaxC= 1.00D-01 BMatC= 7.45D-05 BMatP= 5.98D-04
 IDIUse=3 WtCom= 9.98D-01 WtEn= 1.63D-03
 Coeff-Com:  0.235D-02-0.717D-02-0.419D-01-0.290D-01 0.173D+00 0.902D+00
 Coeff-En:   0.000D+00 0.000D+00 0.000D+00 0.000D+00 0.000D+00 0.100D+01
 Coeff:      0.235D-02-0.716D-02-0.418D-01-0.290D-01 0.173D+00 0.903D+00
 Gap=     0.380 Goal=   None    Shift=    0.000
 Gap=     0.306 Goal=   None    Shift=    0.000
 RMSDP=1.76D-05 MaxDP=1.34D-03 DE=-1.39D-04 OVMax= 3.21D-03

 Cycle   7  Pass 0  IDiag  1:
 E= -1100.01139267329     Delta-E=       -0.000034569637 Rises=F Damp=F
 DIIS: error= 1.19D-04 at cycle   7 NSaved=   7.
 NSaved= 7 IEnMin= 7 EnMin= -1100.01139267329     IErMin= 7 ErrMin= 1.19D-04
 ErrMax= 1.19D-04  0.00D+00 EMaxC= 1.00D-01 BMatC= 1.51D-05 BMatP= 7.45D-05
 IDIUse=3 WtCom= 9.99D-01 WtEn= 1.19D-03
 Coeff-Com:  0.201D-02-0.321D-02-0.300D-01-0.521D-01-0.888D-01 0.281D+00
 Coeff-Com:  0.891D+00
 Coeff-En:   0.000D+00 0.000D+00 0.000D+00 0.000D+00 0.000D+00 0.000D+00
 Coeff-En:   0.100D+01
 Coeff:      0.201D-02-0.321D-02-0.299D-01-0.520D-01-0.887D-01 0.280D+00
 Coeff:      0.891D+00
 Gap=     0.380 Goal=   None    Shift=    0.000
 Gap=     0.307 Goal=   None    Shift=    0.000
 RMSDP=8.38D-06 MaxDP=7.00D-04 DE=-3.46D-05 OVMax= 1.96D-03

 Initial convergence to 1.0D-05 achieved.  Increase integral accuracy.
 Cycle   8  Pass 1  IDiag  1:
 E= -1100.01137473332     Delta-E=        0.000017939970 Rises=F Damp=F
 DIIS: error= 5.26D-05 at cycle   1 NSaved=   1.
 NSaved= 1 IEnMin= 1 EnMin= -1100.01137473332     IErMin= 1 ErrMin= 5.26D-05
 ErrMax= 5.26D-05  0.00D+00 EMaxC= 1.00D-01 BMatC= 6.93D-06 BMatP= 6.93D-06
 IDIUse=1 WtCom= 1.00D+00 WtEn= 0.00D+00
 Coeff-Com:  0.100D+01
 Coeff:      0.100D+01
 Gap=     0.380 Goal=   None    Shift=    0.000
 Gap=     0.307 Goal=   None    Shift=    0.000
 RMSDP=8.38D-06 MaxDP=7.00D-04 DE= 1.79D-05 OVMax= 4.11D-04

 Cycle   9  Pass 1  IDiag  1:
 E= -1100.01137594696     Delta-E=       -0.000001213641 Rises=F Damp=F
 DIIS: error= 5.22D-05 at cycle   2 NSaved=   2.
 NSaved= 2 IEnMin= 2 EnMin= -1100.01137594696     IErMin= 2 ErrMin= 5.22D-05
 ErrMax= 5.22D-05  0.00D+00 EMaxC= 1.00D-01 BMatC= 4.02D-06 BMatP= 6.93D-06
 IDIUse=1 WtCom= 1.00D+00 WtEn= 0.00D+00
 Coeff-Com:  0.411D+00 0.589D+00
 Coeff:      0.411D+00 0.589D+00
 Gap=     0.380 Goal=   None    Shift=    0.000
 Gap=     0.307 Goal=   None    Shift=    0.000
 RMSDP=1.82D-06 MaxDP=1.59D-04 DE=-1.21D-06 OVMax= 3.15D-04

 Cycle  10  Pass 1  IDiag  1:
 E= -1100.01137657123     Delta-E=       -0.000000624265 Rises=F Damp=F
 DIIS: error= 1.68D-05 at cycle   3 NSaved=   3.
 NSaved= 3 IEnMin= 3 EnMin= -1100.01137657123     IErMin= 3 ErrMin= 1.68D-05
 ErrMax= 1.68D-05  0.00D+00 EMaxC= 1.00D-01 BMatC= 5.83D-07 BMatP= 4.02D-06
 IDIUse=1 WtCom= 1.00D+00 WtEn= 0.00D+00
 Coeff-Com: -0.801D-01 0.216D+00 0.864D+00
 Coeff:     -0.801D-01 0.216D+00 0.864D+00
 Gap=     0.380 Goal=   None    Shift=    0.000
 Gap=     0.307 Goal=   None    Shift=    0.000
 RMSDP=1.21D-06 MaxDP=5.97D-05 DE=-6.24D-07 OVMax= 1.72D-04

 Cycle  11  Pass 1  IDiag  1:
 E= -1100.01137674207     Delta-E=       -0.000000170842 Rises=F Damp=F
 DIIS: error= 5.29D-06 at cycle   4 NSaved=   4.
 NSaved= 4 IEnMin= 4 EnMin= -1100.01137674207     IErMin= 4 ErrMin= 5.29D-06
 ErrMax= 5.29D-06  0.00D+00 EMaxC= 1.00D-01 BMatC= 7.68D-08 BMatP= 5.83D-07
 IDIUse=1 WtCom= 1.00D+00 WtEn= 0.00D+00
 Coeff-Com: -0.636D-01 0.328D-01 0.278D+00 0.752D+00
 Coeff:     -0.636D-01 0.328D-01 0.278D+00 0.752D+00
 Gap=     0.380 Goal=   None    Shift=    0.000
 Gap=     0.307 Goal=   None    Shift=    0.000
 RMSDP=4.77D-07 MaxDP=2.91D-05 DE=-1.71D-07 OVMax= 9.68D-05

 Cycle  12  Pass 1  IDiag  1:
 E= -1100.01137677256     Delta-E=       -0.000000030496 Rises=F Damp=F
 DIIS: error= 4.11D-06 at cycle   5 NSaved=   5.
 NSaved= 5 IEnMin= 5 EnMin= -1100.01137677256     IErMin= 5 ErrMin= 4.11D-06
 ErrMax= 4.11D-06  0.00D+00 EMaxC= 1.00D-01 BMatC= 3.14D-08 BMatP= 7.68D-08
 IDIUse=1 WtCom= 1.00D+00 WtEn= 0.00D+00
 Coeff-Com:  0.553D-02-0.767D-01-0.281D+00 0.397D+00 0.956D+00
 Coeff:      0.553D-02-0.767D-01-0.281D+00 0.397D+00 0.956D+00
 Gap=     0.380 Goal=   None    Shift=    0.000
 Gap=     0.307 Goal=   None    Shift=    0.000
 RMSDP=4.30D-07 MaxDP=3.03D-05 DE=-3.05D-08 OVMax= 9.55D-05

 Cycle  13  Pass 1  IDiag  1:
 E= -1100.01137678792     Delta-E=       -0.000000015355 Rises=F Damp=F
 DIIS: error= 9.46D-07 at cycle   6 NSaved=   6.
 NSaved= 6 IEnMin= 6 EnMin= -1100.01137678792     IErMin= 6 ErrMin= 9.46D-07
 ErrMax= 9.46D-07  0.00D+00 EMaxC= 1.00D-01 BMatC= 3.40D-09 BMatP= 3.14D-08
 IDIUse=1 WtCom= 1.00D+00 WtEn= 0.00D+00
 Coeff-Com:  0.937D-02-0.368D-01-0.160D+00 0.937D-01 0.431D+00 0.663D+00
 Coeff:      0.937D-02-0.368D-01-0.160D+00 0.937D-01 0.431D+00 0.663D+00
 Gap=     0.380 Goal=   None    Shift=    0.000
 Gap=     0.307 Goal=   None    Shift=    0.000
 RMSDP=1.18D-07 MaxDP=6.25D-06 DE=-1.54D-08 OVMax= 2.01D-05

 Cycle  14  Pass 1  IDiag  1:
 E= -1100.01137678889     Delta-E=       -0.000000000975 Rises=F Damp=F
 DIIS: error= 2.52D-07 at cycle   7 NSaved=   7.
 NSaved= 7 IEnMin= 7 EnMin= -1100.01137678889     IErMin= 7 ErrMin= 2.52D-07
 ErrMax= 2.52D-07  0.00D+00 EMaxC= 1.00D-01 BMatC= 3.03D-10 BMatP= 3.40D-09
 IDIUse=1 WtCom= 1.00D+00 WtEn= 0.00D+00
 Coeff-Com:  0.339D-02-0.677D-02-0.357D-01-0.181D-02 0.725D-01 0.250D+00
 Coeff-Com:  0.718D+00
 Coeff:      0.339D-02-0.677D-02-0.357D-01-0.181D-02 0.725D-01 0.250D+00
 Coeff:      0.718D+00
 Gap=     0.380 Goal=   None    Shift=    0.000
 Gap=     0.307 Goal=   None    Shift=    0.000
 RMSDP=2.96D-08 MaxDP=1.26D-06 DE=-9.75D-10 OVMax= 6.47D-06

 Cycle  15  Pass 1  IDiag  1:
 E= -1100.01137678900     Delta-E=       -0.000000000102 Rises=F Damp=F
 DIIS: error= 1.27D-07 at cycle   8 NSaved=   8.
 NSaved= 8 IEnMin= 8 EnMin= -1100.01137678900     IErMin= 8 ErrMin= 1.27D-07
 ErrMax= 1.27D-07  0.00D+00 EMaxC= 1.00D-01 BMatC= 6.02D-11 BMatP= 3.03D-10
 IDIUse=1 WtCom= 1.00D+00 WtEn= 0.00D+00
 Coeff-Com: -0.718D-03 0.490D-02 0.194D-01-0.199D-01-0.622D-01-0.365D-01
 Coeff-Com:  0.300D+00 0.795D+00
 Coeff:     -0.718D-03 0.490D-02 0.194D-01-0.199D-01-0.622D-01-0.365D-01
 Coeff:      0.300D+00 0.795D+00
 Gap=     0.380 Goal=   None    Shift=    0.000
 Gap=     0.307 Goal=   None    Shift=    0.000
 RMSDP=1.51D-08 MaxDP=7.21D-07 DE=-1.02D-10 OVMax= 3.39D-06

 Cycle  16  Pass 1  IDiag  1:
 E= -1100.01137678902     Delta-E=       -0.000000000026 Rises=F Damp=F
 DIIS: error= 4.72D-08 at cycle   9 NSaved=   9.
 NSaved= 9 IEnMin= 9 EnMin= -1100.01137678902     IErMin= 9 ErrMin= 4.72D-08
 ErrMax= 4.72D-08  0.00D+00 EMaxC= 1.00D-01 BMatC= 3.98D-12 BMatP= 6.02D-11
 IDIUse=1 WtCom= 1.00D+00 WtEn= 0.00D+00
 Coeff-Com: -0.412D-03 0.176D-02 0.750D-02-0.491D-02-0.216D-01-0.268D-01
 Coeff-Com:  0.259D-01 0.211D+00 0.808D+00
 Coeff:     -0.412D-03 0.176D-02 0.750D-02-0.491D-02-0.216D-01-0.268D-01
 Coeff:      0.259D-01 0.211D+00 0.808D+00
 Gap=     0.380 Goal=   None    Shift=    0.000
 Gap=     0.307 Goal=   None    Shift=    0.000
 RMSDP=4.25D-09 MaxDP=1.91D-07 DE=-2.59D-11 OVMax= 1.31D-06

 SCF Done:  E(UM062X) =  -1100.01137679     A.U. after   16 cycles
            NFock= 16  Conv=0.42D-08     -V/T= 2.0028
 <Sx>= 0.0000 <Sy>= 0.0000 <Sz>= 0.5000 <S**2>= 0.7553 S= 0.5027
 <L.S>=  0.00000000000    
 KE= 1.096975237911D+03 PE=-4.142240074179D+03 EE= 1.178130460541D+03
 Annihilation of the first spin contaminant:
 S**2 before annihilation     0.7553,   after     0.7500
 Leave Link  502 at Sat May 24 01:09:26 2025, MaxMem=  3758096384 cpu:             222.1 elap:              59.6
 (Enter /apps/easybuild-2022/easybuild/software/Compiler/NVHPC/22.11-CUDA-11.7.0/Gaussian/g16c01-CUDA-11.7.0/g16/l508.exe)
 QCSCF skips out because SCF is already converged.
 Leave Link  508 at Sat May 24 01:09:26 2025, MaxMem=  3758096384 cpu:               0.0 elap:               0.0
 (Enter /apps/easybuild-2022/easybuild/software/Compiler/NVHPC/22.11-CUDA-11.7.0/Gaussian/g16c01-CUDA-11.7.0/g16/l801.exe)
 DoSCS=F DFT=T ScalE2(SS,OS)=  1.000000  1.000000
 Range of M.O.s used for correlation:     1   335
 NBasis=   335 NAE=    45 NBE=    44 NFC=     0 NFV=     0
 NROrb=    335 NOA=    45 NOB=    44 NVA=   290 NVB=   291

 **** Warning!!: The largest alpha MO coefficient is  0.18132961D+02


 **** Warning!!: The largest beta MO coefficient is  0.18047690D+02

 Leave Link  801 at Sat May 24 01:09:26 2025, MaxMem=  3758096384 cpu:               0.0 elap:               0.0
 (Enter /apps/easybuild-2022/easybuild/software/Compiler/NVHPC/22.11-CUDA-11.7.0/Gaussian/g16c01-CUDA-11.7.0/g16/l1101.exe)
 Using compressed storage, NAtomX=    11.
 Will process     12 centers per pass.
   1 Symmetry operations used in ECPInt.
 ECPInt:  NShTT=    7140 NPrTT=   23456 LenC2=    6741 LenP2D=   16555.
 LDataN:  DoStor=T MaxTD1= 7 Len=  274
 Leave Link 1101 at Sat May 24 01:09:27 2025, MaxMem=  3758096384 cpu:               0.9 elap:               0.2
 (Enter /apps/easybuild-2022/easybuild/software/Compiler/NVHPC/22.11-CUDA-11.7.0/Gaussian/g16c01-CUDA-11.7.0/g16/l1102.exe)
 Symmetrizing basis deriv contribution to polar:
 IMax=3 JMax=2 DiffMx= 0.00D+00
 Leave Link 1102 at Sat May 24 01:09:27 2025, MaxMem=  3758096384 cpu:               0.0 elap:               0.0
 (Enter /apps/easybuild-2022/easybuild/software/Compiler/NVHPC/22.11-CUDA-11.7.0/Gaussian/g16c01-CUDA-11.7.0/g16/l1110.exe)
 Forming Gx(P) for the SCF density, NAtomX=    11.
 Integral derivatives from FoFJK, PRISM(SPDF).
 Do as many integral derivatives as possible in FoFJK.
 G2DrvN: MDV=    3758095115.
 G2DrvN: will do    12 centers at a time, making    1 passes.
 Calling FoFCou, ICntrl=  3107 FMM=F I1Cent=   0 AccDes= 0.00D+00.
 FoFJK:  IHMeth= 1 ICntrl=    3107 DoSepK=F KAlg= 0 I1Cent=           0 FoldK=F
 IRaf=         0 NMat=       1 IRICut=       1 DoRegI=T DoRafI=F ISym2E= 0 IDoP0=0 IntGTp=1.
 FoFCou: FMM=F IPFlag=           0 FMFlag=      100000 FMFlg1=           0
         NFxFlg=           0 DoJE=F BraDBF=F KetDBF=F FulRan=T
         wScrn=  0.000000 ICntrl=      3107 IOpCl=  1 I1Cent=           0 NGrid=           0
         NMat0=    1 NMatS0=      1 NMatT0=    0 NMatD0=    1 NMtDS0=    0 NMtDT0=    0
 Symmetry not used in FoFCou.
 End of G2Drv F.D. properties file   721 does not exist.
 End of G2Drv F.D. properties file   722 does not exist.
 End of G2Drv F.D. properties file   788 does not exist.
 Leave Link 1110 at Sat May 24 01:10:36 2025, MaxMem=  3758096384 cpu:             554.5 elap:              69.8
 (Enter /apps/easybuild-2022/easybuild/software/Compiler/NVHPC/22.11-CUDA-11.7.0/Gaussian/g16c01-CUDA-11.7.0/g16/l1002.exe)
 Minotr:  UHF open shell wavefunction.
          IDoAtm=11111111111
          Direct CPHF calculation.
          Differentiating once with respect to nuclear coordinates.
          Requested convergence is 1.0D-08 RMS, and 1.0D-07 maximum.
          Secondary convergence is 1.0D-12 RMS, and 1.0D-12 maximum.
          NewPWx=T KeepS1=F KeepF1=F KeepIn=T MapXYZ=F SortEE=F KeepMc=T.
         3293 words used for storage of precomputed grid.
 Keep R1 and R2 ints in memory in canonical form, NReq=3196706850.
 FoFCou: FMM=F IPFlag=           0 FMFlag=           0 FMFlg1=           0
         NFxFlg=           0 DoJE=F BraDBF=F KetDBF=F FulRan=T
         wScrn=  0.000000 ICntrl=       600 IOpCl=  0 I1Cent=           0 NGrid=           0
         NMat0=    1 NMatS0=  56280 NMatT0=    0 NMatD0=    1 NMtDS0=    0 NMtDT0=    0
 Symmetry not used in FoFCou.
 Two-electron integral symmetry not used.
          MDV=    3758096384 using IRadAn=       1.
          Solving linear equations simultaneously, MaxMat=       0.
          There are    36 degrees of freedom in the 1st order CPHF.  IDoFFX=6 NUNeed=     0.
     30 vectors produced by pass  0 Test12= 7.18D-14 2.78D-09 XBig12= 4.25D-01 1.20D-01.
 AX will form    30 AO Fock derivatives at one time.
     30 vectors produced by pass  1 Test12= 7.18D-14 2.78D-09 XBig12= 1.10D-01 4.78D-02.
     30 vectors produced by pass  2 Test12= 7.18D-14 2.78D-09 XBig12= 6.65D-03 1.17D-02.
     30 vectors produced by pass  3 Test12= 7.18D-14 2.78D-09 XBig12= 1.83D-04 2.32D-03.
     30 vectors produced by pass  4 Test12= 7.18D-14 2.78D-09 XBig12= 3.34D-06 2.35D-04.
     30 vectors produced by pass  5 Test12= 7.18D-14 2.78D-09 XBig12= 7.03D-08 3.83D-05.
     30 vectors produced by pass  6 Test12= 7.18D-14 2.78D-09 XBig12= 1.34D-09 5.24D-06.
     30 vectors produced by pass  7 Test12= 7.18D-14 2.78D-09 XBig12= 2.01D-11 4.80D-07.
     13 vectors produced by pass  8 Test12= 7.18D-14 2.78D-09 XBig12= 2.31D-13 5.46D-08.
      5 vectors produced by pass  9 Test12= 7.18D-14 2.78D-09 XBig12= 2.69D-15 6.07D-09.
 InvSVY:  IOpt=1 It=  1 EMax= 1.11D-15
 Solved reduced A of dimension   258 with    30 vectors.
 End of Minotr F.D. properties file   721 does not exist.
 End of Minotr F.D. properties file   722 does not exist.
 End of Minotr F.D. properties file   788 does not exist.
 Leave Link 1002 at Sat May 24 01:12:38 2025, MaxMem=  3758096384 cpu:             960.3 elap:             122.1
 (Enter /apps/easybuild-2022/easybuild/software/Compiler/NVHPC/22.11-CUDA-11.7.0/Gaussian/g16c01-CUDA-11.7.0/g16/l701.exe)
 ... and contract with generalized density number  0.
 Compute integral second derivatives.
   1 Symmetry operations used in ECPInt.
 ECPInt:  NShTT=    7140 NPrTT=   23456 LenC2=    6741 LenP2D=   16555.
 LDataN:  DoStor=T MaxTD1= 8 Len=  415
 Leave Link  701 at Sat May 24 01:12:39 2025, MaxMem=  3758096384 cpu:               0.8 elap:               0.1
 (Enter /apps/easybuild-2022/easybuild/software/Compiler/NVHPC/22.11-CUDA-11.7.0/Gaussian/g16c01-CUDA-11.7.0/g16/l702.exe)
 L702 exits ... SP integral derivatives will be done elsewhere.
 Leave Link  702 at Sat May 24 01:12:39 2025, MaxMem=  3758096384 cpu:               0.0 elap:               0.0
 (Enter /apps/easybuild-2022/easybuild/software/Compiler/NVHPC/22.11-CUDA-11.7.0/Gaussian/g16c01-CUDA-11.7.0/g16/l703.exe)
 Integral derivatives from FoFJK, PRISM(SPDF).
 Compute integral second derivatives, UseDBF=F ICtDFT=           0.
 Calling FoFJK, ICntrl=    100127 FMM=F ISym2X=0 I1Cent= 0 IOpClX= 1 NMat=1 NMatS=1 NMatT=0.
 FoFJK:  IHMeth= 1 ICntrl=  100127 DoSepK=F KAlg= 0 I1Cent=           0 FoldK=F
 IRaf=         0 NMat=       1 IRICut=       1 DoRegI=T DoRafI=F ISym2E= 0 IDoP0=0 IntGTp=1.
 FoFCou: FMM=F IPFlag=           0 FMFlag=      100000 FMFlg1=         800
         NFxFlg=           0 DoJE=F BraDBF=F KetDBF=F FulRan=T
         wScrn=  0.000000 ICntrl=    100127 IOpCl=  1 I1Cent=           0 NGrid=           0
         NMat0=    1 NMatS0=      1 NMatT0=    0 NMatD0=    1 NMtDS0=    0 NMtDT0=    0
 Symmetry not used in FoFCou.
 Leave Link  703 at Sat May 24 01:14:36 2025, MaxMem=  3758096384 cpu:             935.2 elap:             117.6
 (Enter /apps/easybuild-2022/easybuild/software/Compiler/NVHPC/22.11-CUDA-11.7.0/Gaussian/g16c01-CUDA-11.7.0/g16/l716.exe)
 Dipole        = 9.64166812D-01 4.15080116D-01 7.70797277D-01
 Polarizability= 0.00000000D+00 0.00000000D+00 0.00000000D+00
                 0.00000000D+00 0.00000000D+00 0.00000000D+00
 -------------------------------------------------------------------
 Center     Atomic                   Forces (Hartrees/Bohr)
 Number     Number              X              Y              Z
 -------------------------------------------------------------------
      1        6          -0.004861819    0.004612874    0.001012666
      2        6          -0.006023022   -0.000044735    0.001265013
      3        9           0.005044809   -0.000174187    0.000588194
      4       16          -0.005624157   -0.000159345    0.000263527
      5        8           0.000590142   -0.010143380   -0.004552893
      6        8           0.009700930    0.002844974   -0.003315232
      7        8          -0.005171945    0.005193019    0.010116409
      8        9           0.002211705   -0.003938467    0.000167131
      9        9           0.000919945   -0.000642429   -0.000384800
     10        9           0.001374190   -0.000858009    0.000814370
     11        1           0.001839223    0.003309686   -0.005974385
 -------------------------------------------------------------------
 Cartesian Forces:  Max     0.010143380 RMS     0.004298502
 Force constants in Cartesian coordinates: 
                1             2             3             4             5 
      1  0.593676D+00
      2  0.391792D-02  0.503211D+00
      3 -0.975579D-02 -0.330662D-02  0.614821D+00
      4 -0.103873D+00  0.267142D-01  0.898432D-01  0.636061D+00
      5  0.140203D-01 -0.491305D-01 -0.180872D-01 -0.110707D+00  0.129223D+00
      6  0.368521D-01 -0.242825D-01 -0.162720D+00  0.109582D-02 -0.269412D-01
      7 -0.293664D-01  0.228573D-02 -0.262251D-01 -0.432432D+00  0.710108D-01
      8  0.123166D-01  0.184901D-02  0.222217D-02  0.649598D-01 -0.153367D-01
      9  0.210716D-01 -0.814750D-03  0.582288D-02 -0.617769D-01  0.152034D-01
     10  0.385196D-01 -0.934500D-02  0.613399D-02 -0.630668D-01  0.432570D-02
     11 -0.118093D-01  0.224159D-01  0.131669D-02  0.248632D-01 -0.520582D-01
     12  0.184358D-01  0.658292D-02 -0.347685D-01 -0.562304D-01  0.271910D-01
     13 -0.251003D-02  0.124882D-02 -0.245838D-02 -0.261201D-02  0.359983D-02
     14  0.829204D-03 -0.217990D-02  0.987881D-03  0.445766D-02  0.559041D-02
     15 -0.129200D-01  0.426596D-02  0.503893D-02  0.312841D-01 -0.165724D-01
     16 -0.150836D-01  0.171718D-02  0.192233D-02 -0.144612D-01 -0.184680D-02
     17  0.134430D-02 -0.589573D-02 -0.120997D-02  0.493794D-02  0.483876D-02
     18  0.255864D-02 -0.769004D-03  0.646107D-02 -0.200915D-01 -0.424957D-03
     19 -0.250008D-02 -0.538430D-03 -0.241017D-02  0.224072D-02  0.184947D-02
     20  0.854477D-02 -0.113875D-01 -0.846100D-02 -0.202105D-01 -0.141776D-01
     21 -0.553920D-02 -0.316603D-02  0.566884D-02  0.120283D-01  0.237942D-01
     22 -0.929918D-01  0.649408D-01  0.101951D-01  0.434770D-03  0.268658D-01
     23  0.540557D-01 -0.249912D+00 -0.220346D-01  0.113267D-01 -0.232632D-01
     24  0.110907D-01 -0.282560D-01 -0.843870D-01  0.855665D-02 -0.248847D-01
     25 -0.258324D+00 -0.108472D+00  0.240254D-01 -0.295925D-01 -0.134113D-01
     26 -0.100867D+00 -0.130401D+00  0.109336D-01 -0.713637D-02  0.557511D-02
     27  0.266645D-01  0.132795D-01 -0.862717D-01  0.218604D-01  0.786067D-02
     28 -0.126490D+00  0.192710D-01 -0.936944D-01  0.976387D-03  0.122932D-02
     29  0.200255D-01 -0.798929D-01  0.352459D-01  0.117648D-02  0.837948D-02
     30 -0.889127D-01  0.331086D-01 -0.269819D+00 -0.290379D-01  0.111379D-01
     31 -0.105731D-02 -0.174024D-02  0.242375D-02  0.632471D-02  0.306361D-02
     32 -0.237828D-02  0.132366D-02  0.239315D-02 -0.382370D-03  0.359172D-03
     33  0.454397D-03  0.335794D-02  0.152872D-03  0.246827D-02  0.172332D-02
                6             7             8             9            10 
      6  0.473454D+00
      7 -0.542721D-01  0.487937D+00
      8  0.101486D-01 -0.867353D-01  0.166740D-01
      9 -0.745494D-01  0.632632D-01 -0.155859D-01  0.726708D-01
     10 -0.107197D-01 -0.285696D-01  0.162962D-01 -0.304786D-01  0.117430D+01
     11  0.453617D-01 -0.502704D-02 -0.415964D-03 -0.245278D-02 -0.132104D+00
     12 -0.167092D+00  0.212747D-01  0.204278D-02  0.595634D-02 -0.188573D+00
     13 -0.171179D-02  0.905907D-02 -0.180145D-02  0.191368D-02 -0.296062D+00
     14  0.301127D-02 -0.207257D-02 -0.111178D-03  0.495549D-03  0.176767D+00
     15 -0.204722D-01 -0.565098D-02  0.462746D-03 -0.906096D-04  0.247734D+00
     16  0.538501D-02 -0.395791D-02  0.190055D-02 -0.804424D-02 -0.688719D+00
     17  0.620185D-03  0.365364D-02  0.129601D-02  0.308936D-02  0.155060D-01
     18  0.969774D-02 -0.858964D-02  0.321343D-02 -0.768663D-02 -0.166479D-01
     19 -0.436598D-02  0.592974D-02 -0.220214D-02  0.332084D-02 -0.991303D-01
     20  0.510371D-02  0.104298D-01  0.359704D-03  0.262379D-02 -0.395087D-01
     21 -0.307391D-02 -0.539982D-02 -0.168693D-02  0.197588D-03 -0.109121D-01
     22  0.133128D-01 -0.332494D-02 -0.931137D-03  0.111032D-03 -0.752002D-02
     23 -0.126704D-01  0.701272D-02 -0.261936D-02 -0.322953D-02  0.501557D-02
     24 -0.102074D-02  0.643272D-02 -0.217578D-02 -0.144100D-02 -0.368551D-04
     25  0.122840D-01 -0.753822D-02 -0.146690D-02  0.523833D-02 -0.115017D-01
     26 -0.572009D-03 -0.825573D-03 -0.455288D-03  0.193745D-02 -0.176525D-02
     27  0.460596D-02  0.808585D-02  0.753211D-03 -0.351093D-02 -0.230054D-02
     28  0.175213D-02  0.556880D-02 -0.124064D-02  0.559882D-02 -0.420157D-02
     29 -0.785261D-03 -0.130758D-02 -0.577125D-03 -0.155226D-02  0.145992D-02
     30 -0.581443D-01  0.275724D-02  0.499866D-03  0.359771D-02  0.731391D-02
     31  0.387774D-03 -0.330561D-02 -0.109560D-02 -0.217792D-03 -0.140450D-01
     32  0.100583D-02  0.157541D-02 -0.663122D-03  0.285617D-03 -0.366472D-01
     33 -0.685779D-03 -0.167612D-02  0.105799D-03 -0.966700D-03 -0.151392D-02
               11            12            13            14            15 
     11  0.619378D+00
     12  0.171564D+00  0.744147D+00
     13  0.173940D+00  0.235651D+00  0.282406D+00
     14 -0.226852D+00 -0.203491D+00 -0.190475D+00  0.244245D+00
     15 -0.215692D+00 -0.391309D+00 -0.269206D+00  0.242781D+00  0.388970D+00
     16  0.115718D-01  0.581272D-04 -0.900968D-02 -0.538089D-02 -0.676741D-02
     17 -0.838301D-01  0.305406D-02  0.194451D-01  0.143884D-01 -0.455120D-02
     18  0.627908D-03 -0.101833D+00  0.326628D-01 -0.592819D-02  0.185298D-01
     19 -0.601515D-01 -0.962011D-02  0.172233D-01  0.124193D-01  0.814250D-02
     20 -0.252212D+00  0.100141D-01 -0.894737D-02 -0.357224D-01 -0.110368D-01
     21  0.102403D-01 -0.733933D-01 -0.865057D-03 -0.385098D-01  0.722581D-02
     22  0.310507D-02 -0.667694D-02  0.668452D-03 -0.502015D-03  0.186558D-02
     23 -0.111229D-01  0.664451D-02 -0.308750D-03  0.176524D-02 -0.227285D-02
     24  0.373568D-03  0.547369D-02  0.632131D-03 -0.335057D-03 -0.995783D-03
     25  0.148361D-02 -0.700645D-02  0.124129D-02  0.118553D-03  0.330251D-02
     26 -0.296054D-02 -0.124402D-02  0.789375D-04  0.594972D-03  0.634773D-03
     27 -0.197096D-02  0.251647D-02  0.579221D-03 -0.836773D-04 -0.971158D-03
     28  0.142300D-02  0.283459D-03  0.920997D-03 -0.433701D-03  0.493422D-03
     29 -0.168906D-02 -0.683712D-03 -0.362206D-03  0.243462D-03 -0.101170D-03
     30 -0.729002D-02  0.828332D-02  0.897487D-03 -0.210953D-03 -0.659595D-02
     31 -0.729412D-02 -0.759654D-02 -0.132580D-02  0.427206D-02  0.172208D-02
     32 -0.106540D-01 -0.216741D-01  0.358219D-02 -0.196273D-02  0.208157D-02
     33 -0.207876D-02  0.201844D-02  0.190502D-02  0.128337D-02  0.670612D-03
               16            17            18            19            20 
     16  0.737139D+00
     17 -0.802761D-03  0.697474D-01
     18  0.109561D-01  0.435656D-02  0.680668D-01
     19 -0.180012D-01 -0.403698D-01  0.512322D-05  0.436034D+00
     20 -0.365345D-02 -0.248082D-03 -0.255441D-02  0.102387D+00  0.334412D+00
     21 -0.710273D-02 -0.115604D-01  0.134199D-01  0.245169D+00  0.217326D-01
     22  0.338516D-02 -0.119764D-02 -0.476707D-03  0.253149D-03 -0.237155D-02
     23 -0.214173D-02  0.260923D-02 -0.101185D-02  0.269623D-03  0.672725D-02
     24 -0.487500D-03 -0.710099D-03 -0.255529D-02  0.105243D-02  0.160637D-02
     25  0.579548D-02  0.233770D-03 -0.976312D-04  0.931803D-03 -0.196670D-02
     26  0.916113D-03  0.905018D-03  0.734760D-03  0.350123D-03  0.127913D-02
     27  0.907276D-03  0.154506D-02 -0.337158D-02  0.659144D-03  0.161918D-02
     28  0.195735D-02 -0.172048D-03 -0.644179D-03  0.680285D-03 -0.264892D-03
     29 -0.328749D-03  0.580422D-03  0.200760D-03 -0.440529D-04  0.133729D-02
     30 -0.206273D-02  0.855381D-03 -0.110808D-02  0.812623D-03  0.400503D-02
     31  0.954700D-03 -0.257850D-02  0.364863D-03 -0.343661D+00 -0.444387D-01
     32 -0.195130D-02 -0.439129D-02  0.155499D-02 -0.139700D-01 -0.303683D-01
     33  0.523576D-02  0.451109D-02  0.379106D-03 -0.242765D+00 -0.246525D-01
               21            22            23            24            25 
     21  0.215033D+00
     22  0.225768D-02  0.100423D+00
     23  0.384164D-03 -0.795807D-01  0.385061D+00
     24 -0.286265D-02  0.201042D-02  0.334066D-02  0.768219D-01
     25  0.219991D-02  0.746619D-02 -0.279087D-01 -0.231304D-02  0.346621D+00
     26  0.849064D-03 -0.475233D-01 -0.737472D-01  0.298448D-02  0.169100D+00
     27 -0.288604D-03 -0.343862D-02  0.347984D-03  0.153376D-01 -0.642031D-03
     28 -0.928268D-04 -0.911817D-02  0.316508D-01 -0.261810D-01 -0.555827D-01
     29  0.271337D-03  0.365359D-01 -0.341078D-01  0.486107D-01 -0.183961D-01
     30 -0.145481D-02 -0.189134D-01  0.320842D-01 -0.433552D-02 -0.365032D-01
     31 -0.231743D+00  0.323819D-03  0.608710D-03 -0.756637D-03  0.483429D-03
     32 -0.234841D-02  0.658674D-03 -0.139040D-02 -0.554106D-03  0.685741D-03
     33 -0.160472D+00 -0.246921D-03 -0.158234D-02 -0.352103D-04 -0.487871D-03
               26            27            28            29            30 
     26  0.188077D+00
     27 -0.468833D-02  0.753659D-01
     28 -0.126665D-01 -0.521601D-01  0.185662D+00
     29  0.112554D-01 -0.183110D-01 -0.389815D-01  0.946835D-01
     30 -0.109406D-01 -0.332899D-02  0.164728D+00 -0.624903D-01  0.333243D+00
     31  0.338270D-03 -0.215079D-03 -0.373250D-03  0.222384D-03 -0.107962D-02
     32 -0.123494D-03 -0.351587D-03  0.185012D-03 -0.212788D-03 -0.759115D-03
     33 -0.629215D-03 -0.829515D-04 -0.835233D-04 -0.404895D-03 -0.338053D-03
               31            32            33 
     31  0.355681D+00
     32  0.486421D-01  0.480833D-01
     33  0.236710D+00  0.183662D-01  0.159359D+00
 FormGI is forming the generalized inverse of G from B-inverse, IUseBI=4.
 Leave Link  716 at Sat May 24 01:14:36 2025, MaxMem=  3758096384 cpu:               0.0 elap:               0.0
 (Enter /apps/easybuild-2022/easybuild/software/Compiler/NVHPC/22.11-CUDA-11.7.0/Gaussian/g16c01-CUDA-11.7.0/g16/l103.exe)

 GradGradGradGradGradGradGradGradGradGradGradGradGradGradGradGradGradGrad
 Berny optimization.
 Red2BG is reusing G-inverse.
 Internal  Forces:  Max     0.009701196 RMS     0.003914557
 Search for a local minimum.
 Step number   1 out of a maximum of   51
 All quantities printed in internal units (Hartrees-Bohrs-Radians)
 RMS Force = .39146D-02 SwitMx=.10000D-02 MixMth= 1
 Mixed Optimization -- RFO/linear search
 Second derivative matrix not updated -- analytic derivatives used.
 ITU=  0
     Eigenvalues ---   -0.00415   0.00022   0.00316   0.00786   0.11318
     Eigenvalues ---    0.12065   0.13102   0.14304   0.14831   0.16930
     Eigenvalues ---    0.17222   0.18674   0.21115   0.22926   0.23348
     Eigenvalues ---    0.24718   0.26378   0.31399   0.38361   0.39209
     Eigenvalues ---    0.41873   0.42464   0.51935   0.52668   0.57976
     Eigenvalues ---    0.74092   0.78985
 Eigenvalue     1 is  -4.15D-03 should be greater than     0.000000 Eigenvector:
                          D14       D13       D15       D11       D8
   1                    0.57843   0.57032   0.56722   0.06811   0.04939
                          D10       D12       A16       D7        D9
   1                    0.04868   0.04741  -0.04491   0.02995   0.02868
 RFO step:  Lambda=-8.39831917D-03 EMin=-4.14735763D-03
 Linear search not attempted -- first point.
 Iteration  1 RMS(Cart)=  0.07007708 RMS(Int)=  0.10175824
 Iteration  2 RMS(Cart)=  0.04860121 RMS(Int)=  0.04786295
 Iteration  3 RMS(Cart)=  0.04308154 RMS(Int)=  0.00385967
 Iteration  4 RMS(Cart)=  0.00347059 RMS(Int)=  0.00010037
 Iteration  5 RMS(Cart)=  0.00001677 RMS(Int)=  0.00009980
 Iteration  6 RMS(Cart)=  0.00000000 RMS(Int)=  0.00009980
 ITry= 1 IFail=0 DXMaxC= 7.82D-01 DCOld= 1.00D+10 DXMaxT= 3.00D-01 DXLimC= 3.00D+00 Rises=F
 Variable       Old X    -DE/DX   Delta X   Delta X   Delta X     New X
                                 (Linear)    (Quad)   (Total)
    R1        2.85672   0.00133   0.00000   0.00313   0.00313   2.85985
    R2        2.53823  -0.00437   0.00000  -0.02196  -0.02196   2.51627
    R3        2.50088  -0.00044   0.00000   0.00346   0.00346   2.50434
    R4        2.50186   0.00157   0.00000   0.00679   0.00679   2.50866
    R5        2.46972   0.00504   0.00000   0.01304   0.01304   2.48276
    R6        3.32444   0.00311   0.00000   0.00034   0.00034   3.32478
    R7        2.66728   0.00830   0.00000   0.01082   0.01082   2.67810
    R8        2.68341  -0.00970   0.00000  -0.01563  -0.01563   2.66777
    R9        2.98438   0.00700   0.00000   0.00054   0.00054   2.98492
   R10        1.83022  -0.00155   0.00000   0.00129   0.00129   1.83151
    A1        1.92951   0.00007   0.00000   0.01366   0.01369   1.94319
    A2        1.94688  -0.00098   0.00000  -0.01298  -0.01305   1.93383
    A3        1.91849  -0.00157   0.00000  -0.01061  -0.01069   1.90780
    A4        1.87767   0.00154   0.00000   0.00841   0.00844   1.88612
    A5        1.88666   0.00043   0.00000   0.00484   0.00486   1.89152
    A6        1.90313   0.00063   0.00000  -0.00256  -0.00273   1.90040
    A7        2.03098  -0.00151   0.00000  -0.00172  -0.00169   2.02928
    A8        2.11986   0.00405   0.00000   0.02594   0.02593   2.14579
    A9        2.03744  -0.00209   0.00000  -0.02071  -0.02075   2.01670
   A10        1.87509  -0.00250   0.00000  -0.01763  -0.01777   1.85732
   A11        1.84613   0.00245   0.00000   0.02265   0.02264   1.86876
   A12        1.78897   0.00316   0.00000   0.00403   0.00400   1.79296
   A13        2.16792  -0.00299   0.00000  -0.00221  -0.00196   2.16596
   A14        1.85580   0.00781   0.00000   0.04850   0.04865   1.90445
   A15        1.89488  -0.00680   0.00000  -0.05454  -0.05436   1.84052
   A16        1.91642   0.00826   0.00000   0.01225   0.01225   1.92866
    D1        1.85552  -0.00067   0.00000  -0.02260  -0.02256   1.83296
    D2       -0.81683  -0.00108   0.00000  -0.02481  -0.02486  -0.84169
    D3       -2.33914   0.00067   0.00000  -0.01140  -0.01144  -2.35058
    D4        1.27170   0.00026   0.00000  -0.01361  -0.01374   1.25796
    D5       -0.22593  -0.00025   0.00000  -0.03042  -0.03030  -0.25623
    D6       -2.89828  -0.00066   0.00000  -0.03263  -0.03260  -2.93088
    D7       -2.92394   0.00497   0.00000   0.07075   0.07068  -2.85326
    D8       -0.57617   0.00119   0.00000   0.07179   0.07176  -0.50441
    D9        1.40785  -0.00413   0.00000   0.02163   0.02160   1.42945
   D10        0.68854   0.00441   0.00000   0.06365   0.06366   0.75220
   D11        3.03630   0.00062   0.00000   0.06469   0.06475   3.10105
   D12       -1.26286  -0.00469   0.00000   0.01453   0.01459  -1.24827
   D13        0.55937   0.00291   0.00000   0.57166   0.57178   1.13114
   D14       -1.40636   0.00154   0.00000   0.57188   0.57155  -0.83481
   D15        2.50727   0.00454   0.00000   0.57854   0.57876   3.08603
         Item               Value     Threshold  Converged?
 Maximum Force            0.009701     0.000015     NO 
 RMS     Force            0.003915     0.000010     NO 
 Maximum Displacement     0.782027     0.000060     NO 
 RMS     Displacement     0.150359     0.000040     NO 
 Predicted change in Energy=-8.402888D-03
 Lowest energy point so far.  Saving SCF results.
 GradGradGradGradGradGradGradGradGradGradGradGradGradGradGradGradGradGrad

 Leave Link  103 at Sat May 24 01:14:36 2025, MaxMem=  3758096384 cpu:               0.1 elap:               0.0
 (Enter /apps/easybuild-2022/easybuild/software/Compiler/NVHPC/22.11-CUDA-11.7.0/Gaussian/g16c01-CUDA-11.7.0/g16/l202.exe)
                          Input orientation:                          
 ---------------------------------------------------------------------
 Center     Atomic      Atomic             Coordinates (Angstroms)
 Number     Number       Type             X           Y           Z
 ---------------------------------------------------------------------
      1          6           0        1.035098   -0.284973    2.868029
      2          6           0        1.882271   -0.534338    1.639049
      3          9           0        3.170795   -0.690211    1.842850
      4         16           0        1.430566    0.029899    0.034964
      5          8           0        2.224791   -0.699540   -0.884576
      6          8           0        0.020335    0.081628   -0.004306
      7          8           0        1.906757    1.535898    0.048862
      8          9           0        0.663984    0.991197    2.949864
      9          9           0       -0.060124   -1.030737    2.843882
     10          9           0        1.736856   -0.587182    3.953629
     11          1           0        2.871549    1.586188    0.126196
 ---------------------------------------------------------------------
                    Distance matrix (angstroms):
                    1          2          3          4          5
     1  C    0.000000
     2  C    1.513366   0.000000
     3  F    2.403416   1.313821   0.000000
     4  S    2.877811   1.759400   2.610634   0.000000
     5  O    3.958444   2.552115   2.886843   1.417190   0.000000
     6  O    3.068297   2.558678   3.732709   1.411725   2.498944
     7  O    3.467430   2.610589   3.125980   1.579552   2.443283
     8  F    1.331553   2.351535   3.215076   3.163603   4.471872
     9  F    1.325239   2.339003   3.399538   3.352183   4.385422
    10  F    1.327524   2.319745   2.553856   3.978761   4.864044
    11  H    3.793606   2.786400   2.866783   2.122920   2.581571
                    6          7          8          9         10
     6  O    0.000000
     7  O    2.382502   0.000000
     8  F    3.157327   3.202655   0.000000
     9  F    3.058758   4.274152   2.150298   0.000000
    10  F    4.365661   4.447869   2.156357   2.158104   0.000000
    11  H    3.226477   0.969192   3.633244   4.777952   4.545361
                   11
    11  H    0.000000
 Symmetry turned off by external request.
 Stoichiometry    C2HF4O3S
 Rotational constants (GHZ):           1.9843387           0.9144033           0.8134276
 Leave Link  202 at Sat May 24 01:14:36 2025, MaxMem=  3758096384 cpu:               0.0 elap:               0.0
 (Enter /apps/easybuild-2022/easybuild/software/Compiler/NVHPC/22.11-CUDA-11.7.0/Gaussian/g16c01-CUDA-11.7.0/g16/l301.exe)
 Standard basis: def2TZVPP (5D, 7F)
 Ernie: Thresh=  0.10000D-02 Tol=  0.10000D-05 Strict=F.
   335 basis functions,   545 primitive gaussians,   387 cartesian basis functions
    45 alpha electrons       44 beta electrons
       nuclear repulsion energy       765.0282901139 Hartrees.
 IExCor= 4336 DFT=T Ex+Corr=M062X ExCW=0 ScaHFX=  0.540000
 ScaDFX=  1.000000  1.000000  1.000000  1.000000 ScalE2=  1.000000  1.000000
 IRadAn=      5 IRanWt=     -1 IRanGd=            0 ICorTp=0 IEmpDi=  4
 NAtoms=   11 NActive=   11 NUniq=   11 SFac= 1.00D+00 NAtFMM=   60 NAOKFM=F Big=F
 Integral buffers will be    131072 words long.
 Raffenetti 2 integral format.
 Two-electron integral symmetry is turned off.
 Leave Link  301 at Sat May 24 01:14:36 2025, MaxMem=  3758096384 cpu:               0.0 elap:               0.0
 (Enter /apps/easybuild-2022/easybuild/software/Compiler/NVHPC/22.11-CUDA-11.7.0/Gaussian/g16c01-CUDA-11.7.0/g16/l302.exe)
 NPDir=0 NMtPBC=     1 NCelOv=     1 NCel=       1 NClECP=     1 NCelD=      1
         NCelK=      1 NCelE2=     1 NClLst=     1 CellRange=     0.0.
 One-electron integrals computed using PRISM.
   1 Symmetry operations used in ECPInt.
 ECPInt:  NShTT=    7140 NPrTT=   23456 LenC2=    6729 LenP2D=   16502.
 LDataN:  DoStor=T MaxTD1= 6 Len=  172
 NBasis=   335 RedAO= T EigKep=  4.43D-04  NBF=   335
 NBsUse=   335 1.00D-06 EigRej= -1.00D+00 NBFU=   335
 Precomputing XC quadrature grid using
 IXCGrd= 4 IRadAn=           5 IRanWt=          -1 IRanGd=           0 AccXCQ= 0.00D+00.
 Generated NRdTot=       0 NPtTot=           0 NUsed=           0 NTot=          32
 NSgBfM=   385   385   385   385   385 MxSgAt=    11 MxSgA2=    11.
 Leave Link  302 at Sat May 24 01:14:37 2025, MaxMem=  3758096384 cpu:               0.7 elap:               0.1
 (Enter /apps/easybuild-2022/easybuild/software/Compiler/NVHPC/22.11-CUDA-11.7.0/Gaussian/g16c01-CUDA-11.7.0/g16/l303.exe)
 DipDrv:  MaxL=1.
 Leave Link  303 at Sat May 24 01:14:37 2025, MaxMem=  3758096384 cpu:               0.1 elap:               0.0
 (Enter /apps/easybuild-2022/easybuild/software/Compiler/NVHPC/22.11-CUDA-11.7.0/Gaussian/g16c01-CUDA-11.7.0/g16/l401.exe)
 Initial guess from the checkpoint file:  "/tmp/Gau-28611.chk"
 B after Tr=     0.009618    0.015992    0.037650
         Rot=    0.999912   -0.009682    0.006203   -0.006555 Ang=  -1.52 deg.
 Guess basis will be translated and rotated to current coordinates.
 JPrj=2 DoOrth=T DoCkMO=T.
 Initial guess <Sx>= 0.0000 <Sy>= 0.0000 <Sz>= 0.5000 <S**2>= 0.7554 S= 0.5027
 Generating alternative initial guess.
 ExpMin= 9.52D-02 ExpMax= 6.07D+04 ExpMxC= 2.07D+03 IAcc=3 IRadAn=         5 AccDes= 0.00D+00
 Harris functional with IExCor= 1009 and IRadAn=       5 diagonalized for initial guess.
 HarFok:  IExCor= 1009 AccDes= 0.00D+00 IRadAn=         5 IDoV= 1 UseB2=F ITyADJ=14
 ICtDFT=  3500011 ScaDFX=  1.000000  1.000000  1.000000  1.000000
 FoFCou: FMM=F IPFlag=           0 FMFlag=      100000 FMFlg1=           0
         NFxFlg=           0 DoJE=T BraDBF=F KetDBF=T FulRan=T
         wScrn=  0.000000 ICntrl=       500 IOpCl=  0 I1Cent=   200000004 NGrid=           0
         NMat0=    1 NMatS0=      1 NMatT0=    0 NMatD0=    1 NMtDS0=    0 NMtDT0=    0
 Symmetry not used in FoFCou.
 Harris En= -1099.46915682317    
 Leave Link  401 at Sat May 24 01:14:37 2025, MaxMem=  3758096384 cpu:               4.0 elap:               0.6
 (Enter /apps/easybuild-2022/easybuild/software/Compiler/NVHPC/22.11-CUDA-11.7.0/Gaussian/g16c01-CUDA-11.7.0/g16/l502.exe)
 Keep R1 and R2 ints in memory in canonical form, NReq=3196701089.
 FoFCou: FMM=F IPFlag=           0 FMFlag=           0 FMFlg1=           0
         NFxFlg=           0 DoJE=F BraDBF=F KetDBF=F FulRan=T
         wScrn=  0.000000 ICntrl=       600 IOpCl=  0 I1Cent=           0 NGrid=           0
         NMat0=    1 NMatS0=  56280 NMatT0=    0 NMatD0=    1 NMtDS0=    0 NMtDT0=    0
 Symmetry not used in FoFCou.
 Two-electron integral symmetry not used.
 UHF open shell SCF:
 Using DIIS extrapolation, IDIIS=  1040.
 NGot=  3758096384 LenX=   590296375 LenY=   590146165
 Requested convergence on RMS density matrix=1.00D-08 within  32 cycles.
 Requested convergence on MAX density matrix=1.00D-06.
 Requested convergence on             energy=1.00D-06.
 No special actions if energy rises.
 Integral accuracy reduced to 1.0D-05 until final iterations.

 Cycle   1  Pass 0  IDiag  1:
 E= -1099.97332964627    
 DIIS: error= 9.17D-03 at cycle   1 NSaved=   1.
 NSaved= 1 IEnMin= 1 EnMin= -1099.97332964627     IErMin= 1 ErrMin= 9.17D-03
 ErrMax= 9.17D-03  0.00D+00 EMaxC= 1.00D-01 BMatC= 1.62D-01 BMatP= 1.62D-01
 IDIUse=3 WtCom= 9.08D-01 WtEn= 9.17D-02
 Coeff-Com:  0.100D+01
 Coeff-En:   0.100D+01
 Coeff:      0.100D+01
 Gap=     0.982 Goal=   None    Shift=    0.000
 Gap=     1.025 Goal=   None    Shift=    0.000
 GapD=    0.982 DampG=2.000 DampE=1.000 DampFc=2.0000 IDamp=-1.
 RMSDP=6.26D-04 MaxDP=5.41D-02              OVMax= 7.00D-02

 Cycle   2  Pass 0  IDiag  1:
 E= -1100.01572139542     Delta-E=       -0.042391749147 Rises=F Damp=F
 DIIS: error= 1.74D-03 at cycle   2 NSaved=   2.
 NSaved= 2 IEnMin= 2 EnMin= -1100.01572139542     IErMin= 2 ErrMin= 1.74D-03
 ErrMax= 1.74D-03  0.00D+00 EMaxC= 1.00D-01 BMatC= 6.16D-03 BMatP= 1.62D-01
 IDIUse=3 WtCom= 9.83D-01 WtEn= 1.74D-02
 Coeff-Com: -0.580D-01 0.106D+01
 Coeff-En:   0.000D+00 0.100D+01
 Coeff:     -0.570D-01 0.106D+01
 Gap=     0.383 Goal=   None    Shift=    0.000
 Gap=     0.323 Goal=   None    Shift=    0.000
 RMSDP=1.45D-04 MaxDP=1.13D-02 DE=-4.24D-02 OVMax= 1.82D-02

 Cycle   3  Pass 0  IDiag  1:
 E= -1100.01727550019     Delta-E=       -0.001554104766 Rises=F Damp=F
 DIIS: error= 1.47D-03 at cycle   3 NSaved=   3.
 NSaved= 3 IEnMin= 3 EnMin= -1100.01727550019     IErMin= 3 ErrMin= 1.47D-03
 ErrMax= 1.47D-03  0.00D+00 EMaxC= 1.00D-01 BMatC= 3.49D-03 BMatP= 6.16D-03
 IDIUse=3 WtCom= 9.85D-01 WtEn= 1.47D-02
 Coeff-Com: -0.573D-01 0.462D+00 0.595D+00
 Coeff-En:   0.000D+00 0.000D+00 0.100D+01
 Coeff:     -0.565D-01 0.455D+00 0.601D+00
 Gap=     0.384 Goal=   None    Shift=    0.000
 Gap=     0.322 Goal=   None    Shift=    0.000
 RMSDP=6.03D-05 MaxDP=4.39D-03 DE=-1.55D-03 OVMax= 8.28D-03

 Cycle   4  Pass 0  IDiag  1:
 E= -1100.01782874649     Delta-E=       -0.000553246300 Rises=F Damp=F
 DIIS: error= 3.68D-04 at cycle   4 NSaved=   4.
 NSaved= 4 IEnMin= 4 EnMin= -1100.01782874649     IErMin= 4 ErrMin= 3.68D-04
 ErrMax= 3.68D-04  0.00D+00 EMaxC= 1.00D-01 BMatC= 4.32D-04 BMatP= 3.49D-03
 IDIUse=3 WtCom= 9.96D-01 WtEn= 3.68D-03
 Coeff-Com: -0.120D-01 0.176D-01 0.260D+00 0.734D+00
 Coeff-En:   0.000D+00 0.000D+00 0.000D+00 0.100D+01
 Coeff:     -0.119D-01 0.175D-01 0.259D+00 0.735D+00
 Gap=     0.383 Goal=   None    Shift=    0.000
 Gap=     0.321 Goal=   None    Shift=    0.000
 RMSDP=2.30D-05 MaxDP=1.26D-03 DE=-5.53D-04 OVMax= 2.81D-03

 Cycle   5  Pass 0  IDiag  1:
 E= -1100.01791265314     Delta-E=       -0.000083906656 Rises=F Damp=F
 DIIS: error= 1.10D-04 at cycle   5 NSaved=   5.
 NSaved= 5 IEnMin= 5 EnMin= -1100.01791265314     IErMin= 5 ErrMin= 1.10D-04
 ErrMax= 1.10D-04  0.00D+00 EMaxC= 1.00D-01 BMatC= 2.86D-05 BMatP= 4.32D-04
 IDIUse=3 WtCom= 9.99D-01 WtEn= 1.10D-03
 Coeff-Com:  0.969D-03-0.390D-01 0.394D-01 0.268D+00 0.731D+00
 Coeff-En:   0.000D+00 0.000D+00 0.000D+00 0.000D+00 0.100D+01
 Coeff:      0.968D-03-0.390D-01 0.393D-01 0.267D+00 0.731D+00
 Gap=     0.383 Goal=   None    Shift=    0.000
 Gap=     0.322 Goal=   None    Shift=    0.000
 RMSDP=7.43D-06 MaxDP=3.85D-04 DE=-8.39D-05 OVMax= 8.99D-04

 Initial convergence to 1.0D-05 achieved.  Increase integral accuracy.
 Cycle   6  Pass 1  IDiag  1:
 E= -1100.01791336774     Delta-E=       -0.000000714593 Rises=F Damp=F
 DIIS: error= 4.68D-05 at cycle   1 NSaved=   1.
 NSaved= 1 IEnMin= 1 EnMin= -1100.01791336774     IErMin= 1 ErrMin= 4.68D-05
 ErrMax= 4.68D-05  0.00D+00 EMaxC= 1.00D-01 BMatC= 9.18D-06 BMatP= 9.18D-06
 IDIUse=1 WtCom= 1.00D+00 WtEn= 0.00D+00
 Coeff-Com:  0.100D+01
 Coeff:      0.100D+01
 Gap=     0.383 Goal=   None    Shift=    0.000
 Gap=     0.321 Goal=   None    Shift=    0.000
 RMSDP=7.43D-06 MaxDP=3.85D-04 DE=-7.15D-07 OVMax= 5.65D-04

 Cycle   7  Pass 1  IDiag  1:
 E= -1100.01791335362     Delta-E=        0.000000014112 Rises=F Damp=F
 DIIS: error= 6.51D-05 at cycle   2 NSaved=   2.
 NSaved= 2 IEnMin= 1 EnMin= -1100.01791336774     IErMin= 1 ErrMin= 4.68D-05
 ErrMax= 6.51D-05  0.00D+00 EMaxC= 1.00D-01 BMatC= 1.15D-05 BMatP= 9.18D-06
 IDIUse=1 WtCom= 1.00D+00 WtEn= 0.00D+00
 Coeff-Com:  0.532D+00 0.468D+00
 Coeff:      0.532D+00 0.468D+00
 Gap=     0.383 Goal=   None    Shift=    0.000
 Gap=     0.321 Goal=   None    Shift=    0.000
 RMSDP=3.10D-06 MaxDP=2.17D-04 DE= 1.41D-08 OVMax= 3.21D-04

 Cycle   8  Pass 1  IDiag  1:
 E= -1100.01791520278     Delta-E=       -0.000001849160 Rises=F Damp=F
 DIIS: error= 1.18D-05 at cycle   3 NSaved=   3.
 NSaved= 3 IEnMin= 3 EnMin= -1100.01791520278     IErMin= 3 ErrMin= 1.18D-05
 ErrMax= 1.18D-05  0.00D+00 EMaxC= 1.00D-01 BMatC= 3.36D-07 BMatP= 9.18D-06
 IDIUse=1 WtCom= 1.00D+00 WtEn= 0.00D+00
 Coeff-Com: -0.130D-01 0.123D+00 0.890D+00
 Coeff:     -0.130D-01 0.123D+00 0.890D+00
 Gap=     0.383 Goal=   None    Shift=    0.000
 Gap=     0.321 Goal=   None    Shift=    0.000
 RMSDP=1.01D-06 MaxDP=6.63D-05 DE=-1.85D-06 OVMax= 9.45D-05

 Cycle   9  Pass 1  IDiag  1:
 E= -1100.01791527038     Delta-E=       -0.000000067598 Rises=F Damp=F
 DIIS: error= 4.96D-06 at cycle   4 NSaved=   4.
 NSaved= 4 IEnMin= 4 EnMin= -1100.01791527038     IErMin= 4 ErrMin= 4.96D-06
 ErrMax= 4.96D-06  0.00D+00 EMaxC= 1.00D-01 BMatC= 7.82D-08 BMatP= 3.36D-07
 IDIUse=1 WtCom= 1.00D+00 WtEn= 0.00D+00
 Coeff-Com: -0.364D-01 0.351D-01 0.455D+00 0.546D+00
 Coeff:     -0.364D-01 0.351D-01 0.455D+00 0.546D+00
 Gap=     0.383 Goal=   None    Shift=    0.000
 Gap=     0.321 Goal=   None    Shift=    0.000
 RMSDP=3.04D-07 MaxDP=1.48D-05 DE=-6.76D-08 OVMax= 3.46D-05

 Cycle  10  Pass 1  IDiag  1:
 E= -1100.01791528497     Delta-E=       -0.000000014589 Rises=F Damp=F
 DIIS: error= 1.33D-06 at cycle   5 NSaved=   5.
 NSaved= 5 IEnMin= 5 EnMin= -1100.01791528497     IErMin= 5 ErrMin= 1.33D-06
 ErrMax= 1.33D-06  0.00D+00 EMaxC= 1.00D-01 BMatC= 4.52D-09 BMatP= 7.82D-08
 IDIUse=1 WtCom= 1.00D+00 WtEn= 0.00D+00
 Coeff-Com: -0.537D-02-0.156D-01-0.635D-01 0.109D+00 0.975D+00
 Coeff:     -0.537D-02-0.156D-01-0.635D-01 0.109D+00 0.975D+00
 Gap=     0.383 Goal=   None    Shift=    0.000
 Gap=     0.321 Goal=   None    Shift=    0.000
 RMSDP=1.71D-07 MaxDP=1.38D-05 DE=-1.46D-08 OVMax= 2.91D-05

 Cycle  11  Pass 1  IDiag  1:
 E= -1100.01791528697     Delta-E=       -0.000000001994 Rises=F Damp=F
 DIIS: error= 5.91D-07 at cycle   6 NSaved=   6.
 NSaved= 6 IEnMin= 6 EnMin= -1100.01791528697     IErMin= 6 ErrMin= 5.91D-07
 ErrMax= 5.91D-07  0.00D+00 EMaxC= 1.00D-01 BMatC= 1.14D-09 BMatP= 4.52D-09
 IDIUse=1 WtCom= 1.00D+00 WtEn= 0.00D+00
 Coeff-Com:  0.301D-02-0.118D-01-0.938D-01-0.300D-01 0.427D+00 0.706D+00
 Coeff:      0.301D-02-0.118D-01-0.938D-01-0.300D-01 0.427D+00 0.706D+00
 Gap=     0.383 Goal=   None    Shift=    0.000
 Gap=     0.321 Goal=   None    Shift=    0.000
 RMSDP=5.92D-08 MaxDP=3.65D-06 DE=-1.99D-09 OVMax= 9.59D-06

 Cycle  12  Pass 1  IDiag  1:
 E= -1100.01791528734     Delta-E=       -0.000000000371 Rises=F Damp=F
 DIIS: error= 2.28D-07 at cycle   7 NSaved=   7.
 NSaved= 7 IEnMin= 7 EnMin= -1100.01791528734     IErMin= 7 ErrMin= 2.28D-07
 ErrMax= 2.28D-07  0.00D+00 EMaxC= 1.00D-01 BMatC= 1.72D-10 BMatP= 1.14D-09
 IDIUse=1 WtCom= 1.00D+00 WtEn= 0.00D+00
 Coeff-Com:  0.207D-02-0.281D-02-0.317D-01-0.262D-01 0.478D-01 0.295D+00
 Coeff-Com:  0.716D+00
 Coeff:      0.207D-02-0.281D-02-0.317D-01-0.262D-01 0.478D-01 0.295D+00
 Coeff:      0.716D+00
 Gap=     0.383 Goal=   None    Shift=    0.000
 Gap=     0.321 Goal=   None    Shift=    0.000
 RMSDP=2.12D-08 MaxDP=8.60D-07 DE=-3.71D-10 OVMax= 4.39D-06

 Cycle  13  Pass 1  IDiag  1:
 E= -1100.01791528744     Delta-E=       -0.000000000101 Rises=F Damp=F
 DIIS: error= 9.12D-08 at cycle   8 NSaved=   8.
 NSaved= 8 IEnMin= 8 EnMin= -1100.01791528744     IErMin= 8 ErrMin= 9.12D-08
 ErrMax= 9.12D-08  0.00D+00 EMaxC= 1.00D-01 BMatC= 3.10D-11 BMatP= 1.72D-10
 IDIUse=1 WtCom= 1.00D+00 WtEn= 0.00D+00
 Coeff-Com:  0.197D-03 0.129D-02 0.643D-02-0.254D-02-0.664D-01-0.421D-01
 Coeff-Com:  0.261D+00 0.842D+00
 Coeff:      0.197D-03 0.129D-02 0.643D-02-0.254D-02-0.664D-01-0.421D-01
 Coeff:      0.261D+00 0.842D+00
 Gap=     0.383 Goal=   None    Shift=    0.000
 Gap=     0.321 Goal=   None    Shift=    0.000
 RMSDP=1.19D-08 MaxDP=4.10D-07 DE=-1.01D-10 OVMax= 2.56D-06

 Cycle  14  Pass 1  IDiag  1:
 E= -1100.01791528742     Delta-E=        0.000000000018 Rises=F Damp=F
 DIIS: error= 4.44D-08 at cycle   9 NSaved=   9.
 NSaved= 9 IEnMin= 8 EnMin= -1100.01791528744     IErMin= 9 ErrMin= 4.44D-08
 ErrMax= 4.44D-08  0.00D+00 EMaxC= 1.00D-01 BMatC= 4.25D-12 BMatP= 3.10D-11
 IDIUse=1 WtCom= 1.00D+00 WtEn= 0.00D+00
 Coeff-Com: -0.341D-03 0.900D-03 0.786D-02 0.465D-02-0.283D-01-0.733D-01
 Coeff-Com: -0.595D-01 0.269D+00 0.879D+00
 Coeff:     -0.341D-03 0.900D-03 0.786D-02 0.465D-02-0.283D-01-0.733D-01
 Coeff:     -0.595D-01 0.269D+00 0.879D+00
 Gap=     0.383 Goal=   None    Shift=    0.000
 Gap=     0.321 Goal=   None    Shift=    0.000
 RMSDP=5.26D-09 MaxDP=2.09D-07 DE= 1.80D-11 OVMax= 1.38D-06

 SCF Done:  E(UM062X) =  -1100.01791529     A.U. after   14 cycles
            NFock= 14  Conv=0.53D-08     -V/T= 2.0028
 <Sx>= 0.0000 <Sy>= 0.0000 <Sz>= 0.5000 <S**2>= 0.7554 S= 0.5027
 <L.S>=  0.00000000000    
 KE= 1.096958536782D+03 PE=-4.138221784964D+03 EE= 1.176217042780D+03
 Annihilation of the first spin contaminant:
 S**2 before annihilation     0.7554,   after     0.7500
 Leave Link  502 at Sat May 24 01:15:30 2025, MaxMem=  3758096384 cpu:             202.8 elap:              53.2
 (Enter /apps/easybuild-2022/easybuild/software/Compiler/NVHPC/22.11-CUDA-11.7.0/Gaussian/g16c01-CUDA-11.7.0/g16/l508.exe)
 QCSCF skips out because SCF is already converged.
 Leave Link  508 at Sat May 24 01:15:30 2025, MaxMem=  3758096384 cpu:               0.0 elap:               0.0
 (Enter /apps/easybuild-2022/easybuild/software/Compiler/NVHPC/22.11-CUDA-11.7.0/Gaussian/g16c01-CUDA-11.7.0/g16/l701.exe)
 ... and contract with generalized density number  0.
 Compute integral first derivatives.
   1 Symmetry operations used in ECPInt.
 ECPInt:  NShTT=    7140 NPrTT=   23456 LenC2=    6729 LenP2D=   16502.
 LDataN:  DoStor=T MaxTD1= 7 Len=  274
 Leave Link  701 at Sat May 24 01:15:31 2025, MaxMem=  3758096384 cpu:               0.5 elap:               0.1
 (Enter /apps/easybuild-2022/easybuild/software/Compiler/NVHPC/22.11-CUDA-11.7.0/Gaussian/g16c01-CUDA-11.7.0/g16/l702.exe)
 L702 exits ... SP integral derivatives will be done elsewhere.
 Leave Link  702 at Sat May 24 01:15:31 2025, MaxMem=  3758096384 cpu:               0.0 elap:               0.0
 (Enter /apps/easybuild-2022/easybuild/software/Compiler/NVHPC/22.11-CUDA-11.7.0/Gaussian/g16c01-CUDA-11.7.0/g16/l703.exe)
 Integral derivatives from FoFJK, PRISM(SPDF).
 Compute integral first derivatives, UseDBF=F ICtDFT=           0.
 Calling FoFJK, ICntrl=      2127 FMM=F ISym2X=0 I1Cent= 0 IOpClX= 1 NMat=1 NMatS=1 NMatT=0.
 FoFJK:  IHMeth= 1 ICntrl=    2127 DoSepK=F KAlg= 0 I1Cent=           0 FoldK=F
 IRaf=         0 NMat=       1 IRICut=       1 DoRegI=T DoRafI=F ISym2E= 0 IDoP0=0 IntGTp=1.
 FoFCou: FMM=F IPFlag=           0 FMFlag=      100000 FMFlg1=         800
         NFxFlg=           0 DoJE=F BraDBF=F KetDBF=F FulRan=T
         wScrn=  0.000000 ICntrl=      2127 IOpCl=  1 I1Cent=           0 NGrid=           0
         NMat0=    1 NMatS0=      1 NMatT0=    0 NMatD0=    1 NMtDS0=    0 NMtDT0=    0
 Symmetry not used in FoFCou.
 Leave Link  703 at Sat May 24 01:15:41 2025, MaxMem=  3758096384 cpu:              84.7 elap:              10.7
 (Enter /apps/easybuild-2022/easybuild/software/Compiler/NVHPC/22.11-CUDA-11.7.0/Gaussian/g16c01-CUDA-11.7.0/g16/l716.exe)
 Dipole        = 1.06166719D+00 4.69840084D-01 4.66427826D-01
 -------------------------------------------------------------------
 Center     Atomic                   Forces (Hartrees/Bohr)
 Number     Number              X              Y              Z
 -------------------------------------------------------------------
      1        6           0.000009200   -0.001921528   -0.000185819
      2        6           0.000110951    0.000572602    0.000712656
      3        9          -0.000831780    0.000507588    0.000103900
      4       16          -0.001059318    0.000187142   -0.000496469
      5        8           0.000795335    0.000178278   -0.000001559
      6        8          -0.001396242   -0.001468613   -0.000550013
      7        8           0.003212115   -0.000154709    0.004677877
      8        9          -0.000011972    0.001019855    0.000196515
      9        9          -0.000094058    0.000260597    0.000014104
     10        9          -0.000195137   -0.000036851   -0.000049136
     11        1          -0.000539094    0.000855636   -0.004422057
 -------------------------------------------------------------------
 Cartesian Forces:  Max     0.004677877 RMS     0.001414334
 Leave Link  716 at Sat May 24 01:15:41 2025, MaxMem=  3758096384 cpu:               0.0 elap:               0.0
 (Enter /apps/easybuild-2022/easybuild/software/Compiler/NVHPC/22.11-CUDA-11.7.0/Gaussian/g16c01-CUDA-11.7.0/g16/l103.exe)

 GradGradGradGradGradGradGradGradGradGradGradGradGradGradGradGradGradGrad
 Berny optimization.
 Using GEDIIS/GDIIS optimizer.
 FormGI is forming the generalized inverse of G from B-inverse, IUseBI=4.
 Internal  Forces:  Max     0.002996143 RMS     0.001041122
 Search for a local minimum.
 Step number   2 out of a maximum of   51
 All quantities printed in internal units (Hartrees-Bohrs-Radians)
 RMS Force = .10411D-02 SwitMx=.10000D-02 MixMth= 1
 Mixed Optimization -- RFO/linear search
 Update second derivatives using D2CorX and points    1    2
 DE= -6.54D-03 DEPred=-8.40D-03 R= 7.78D-01
 TightC=F SS=  1.41D+00  RLast= 1.01D+00 DXNew= 5.0454D-01 3.0301D+00
 Trust test= 7.78D-01 RLast= 1.01D+00 DXMaxT set to 5.05D-01
 ITU=  1  0
 Use linear search instead of GDIIS.
     Eigenvalues ---    0.00022   0.00240   0.00316   0.00797   0.11335
     Eigenvalues ---    0.12084   0.14243   0.14429   0.15167   0.17181
     Eigenvalues ---    0.17225   0.20994   0.22852   0.23184   0.24538
     Eigenvalues ---    0.25282   0.28678   0.32637   0.39174   0.41601
     Eigenvalues ---    0.42399   0.46009   0.51986   0.56160   0.57989
     Eigenvalues ---    0.76473   1.03371
 RFO step:  Lambda=-5.30380479D-04 EMin= 2.18694688D-04
 Quartic linear search produced a step of  0.30490.
 Iteration  1 RMS(Cart)=  0.10447040 RMS(Int)=  0.01590315
 Iteration  2 RMS(Cart)=  0.01379315 RMS(Int)=  0.00043085
 Iteration  3 RMS(Cart)=  0.00036719 RMS(Int)=  0.00015734
 Iteration  4 RMS(Cart)=  0.00000022 RMS(Int)=  0.00015734
 ITry= 1 IFail=0 DXMaxC= 4.31D-01 DCOld= 1.00D+10 DXMaxT= 5.05D-01 DXLimC= 3.00D+00 Rises=F
 Variable       Old X    -DE/DX   Delta X   Delta X   Delta X     New X
                                 (Linear)    (Quad)   (Total)
    R1        2.85985   0.00003   0.00095  -0.00113  -0.00017   2.85967
    R2        2.51627   0.00099  -0.00669   0.00705   0.00036   2.51663
    R3        2.50434  -0.00007   0.00105  -0.00530  -0.00424   2.50009
    R4        2.50866  -0.00013   0.00207  -0.00041   0.00166   2.51032
    R5        2.48276  -0.00086   0.00398   0.00250   0.00647   2.48923
    R6        3.32478   0.00034   0.00010   0.00432   0.00442   3.32921
    R7        2.67810   0.00035   0.00330   0.00176   0.00506   2.68316
    R8        2.66777   0.00136  -0.00477   0.00045  -0.00432   2.66345
    R9        2.98492   0.00147   0.00016   0.00244   0.00261   2.98753
   R10        1.83151  -0.00085   0.00039  -0.00162  -0.00123   1.83028
    A1        1.94319  -0.00017   0.00417  -0.00306   0.00112   1.94432
    A2        1.93383   0.00029  -0.00398   0.00276  -0.00125   1.93258
    A3        1.90780   0.00015  -0.00326  -0.00100  -0.00429   1.90351
    A4        1.88612  -0.00004   0.00257   0.00238   0.00496   1.89107
    A5        1.89152  -0.00014   0.00148  -0.00423  -0.00275   1.88877
    A6        1.90040  -0.00010  -0.00083   0.00317   0.00228   1.90267
    A7        2.02928  -0.00023  -0.00052  -0.01237  -0.01348   2.01580
    A8        2.14579   0.00009   0.00791  -0.00235   0.00502   2.15082
    A9        2.01670   0.00022  -0.00633  -0.01143  -0.01832   1.99837
   A10        1.85732   0.00093  -0.00542   0.00825   0.00280   1.86012
   A11        1.86876  -0.00162   0.00690  -0.00569   0.00120   1.86997
   A12        1.79296   0.00053   0.00122  -0.00636  -0.00516   1.78781
   A13        2.16596  -0.00024  -0.00060  -0.00326  -0.00378   2.16218
   A14        1.90445  -0.00156   0.01483  -0.00793   0.00695   1.91140
   A15        1.84052   0.00208  -0.01657   0.01383  -0.00269   1.83783
   A16        1.92866   0.00178   0.00373   0.00904   0.01278   1.94144
    D1        1.83296  -0.00020  -0.00688  -0.20163  -0.20848   1.62448
    D2       -0.84169  -0.00044  -0.00758  -0.13565  -0.14325  -0.98494
    D3       -2.35058  -0.00017  -0.00349  -0.19881  -0.20230  -2.55288
    D4        1.25796  -0.00041  -0.00419  -0.13282  -0.13707   1.12089
    D5       -0.25623  -0.00002  -0.00924  -0.19381  -0.20300  -0.45922
    D6       -2.93088  -0.00025  -0.00994  -0.12782  -0.13776  -3.06864
    D7       -2.85326   0.00019   0.02155   0.04493   0.06653  -2.78674
    D8       -0.50441  -0.00060   0.02188   0.04267   0.06462  -0.43979
    D9        1.42945   0.00134   0.00659   0.05330   0.05995   1.48940
   D10        0.75220   0.00007   0.01941   0.11073   0.13007   0.88227
   D11        3.10105  -0.00072   0.01974   0.10848   0.12816  -3.05397
   D12       -1.24827   0.00122   0.00445   0.11910   0.12349  -1.12478
   D13        1.13114   0.00300   0.17433   0.07866   0.25302   1.38416
   D14       -0.83481   0.00230   0.17426   0.07544   0.24960  -0.58521
   D15        3.08603   0.00217   0.17646   0.07486   0.25140  -2.94576
         Item               Value     Threshold  Converged?
 Maximum Force            0.002996     0.000015     NO 
 RMS     Force            0.001041     0.000010     NO 
 Maximum Displacement     0.431039     0.000060     NO 
 RMS     Displacement     0.112273     0.000040     NO 
 Predicted change in Energy=-1.902940D-03
 Lowest energy point so far.  Saving SCF results.
 GradGradGradGradGradGradGradGradGradGradGradGradGradGradGradGradGradGrad

 Leave Link  103 at Sat May 24 01:15:41 2025, MaxMem=  3758096384 cpu:               0.1 elap:               0.0
 (Enter /apps/easybuild-2022/easybuild/software/Compiler/NVHPC/22.11-CUDA-11.7.0/Gaussian/g16c01-CUDA-11.7.0/g16/l202.exe)
                          Input orientation:                          
 ---------------------------------------------------------------------
 Center     Atomic      Atomic             Coordinates (Angstroms)
 Number     Number       Type             X           Y           Z
 ---------------------------------------------------------------------
      1          6           0        1.019852   -0.311798    2.888207
      2          6           0        1.893631   -0.514951    1.669505
      3          9           0        3.190999   -0.524905    1.897265
      4         16           0        1.439463    0.024547    0.055070
      5          8           0        2.222495   -0.728714   -0.858980
      6          8           0        0.031873    0.086800    0.018549
[...]
    R4        2.50918   0.00000   0.00000   0.00000   0.00000   2.50918
    R5        2.47824  -0.00000   0.00000  -0.00000  -0.00000   2.47824
    R6        3.32128   0.00000   0.00000  -0.00001  -0.00001   3.32128
    R7        2.68349  -0.00000   0.00000  -0.00000  -0.00000   2.68349
    R8        2.66916   0.00000   0.00000   0.00000   0.00000   2.66916
    R9        2.98531   0.00000   0.00000   0.00000   0.00000   2.98531
   R10        1.82863   0.00000   0.00000   0.00000   0.00000   1.82863
    A1        1.94248   0.00000   0.00000   0.00000   0.00000   1.94248
    A2        1.93787  -0.00000   0.00000  -0.00000  -0.00000   1.93787
    A3        1.90486  -0.00000   0.00000  -0.00000  -0.00000   1.90486
    A4        1.88845   0.00000   0.00000  -0.00000  -0.00000   1.88845
    A5        1.88718  -0.00000   0.00000   0.00000   0.00000   1.88718
    A6        1.90191   0.00000   0.00000  -0.00000  -0.00000   1.90191
    A7        2.02406   0.00000   0.00000   0.00001   0.00001   2.02407
    A8        2.15252   0.00000   0.00000   0.00001   0.00001   2.15253
    A9        2.01542  -0.00000   0.00000   0.00001   0.00001   2.01543
   A10        1.87653  -0.00000   0.00000   0.00000   0.00000   1.87653
   A11        1.85580   0.00000   0.00000  -0.00000  -0.00000   1.85580
   A12        1.77533   0.00000   0.00000   0.00000   0.00000   1.77534
   A13        2.16218   0.00000   0.00000   0.00000   0.00000   2.16218
   A14        1.87955   0.00000   0.00000  -0.00000  -0.00000   1.87955
   A15        1.87696  -0.00000   0.00000  -0.00000  -0.00000   1.87696
   A16        1.91566  -0.00000   0.00000  -0.00000  -0.00000   1.91566
    D1        1.64936   0.00000   0.00000   0.00008   0.00008   1.64944
    D2       -1.02528  -0.00000   0.00000   0.00002   0.00002  -1.02526
    D3       -2.52897   0.00000   0.00000   0.00008   0.00008  -2.52888
    D4        1.07958   0.00000   0.00000   0.00002   0.00002   1.07960
    D5       -0.43211   0.00000   0.00000   0.00008   0.00008  -0.43203
    D6       -3.10675  -0.00000   0.00000   0.00002   0.00002  -3.10673
    D7       -2.72996   0.00000   0.00000   0.00005   0.00005  -2.72990
    D8       -0.38143   0.00000   0.00000   0.00005   0.00005  -0.38137
    D9        1.58082  -0.00000   0.00000   0.00005   0.00005   1.58087
   D10        0.87650  -0.00000   0.00000  -0.00001  -0.00001   0.87649
   D11       -3.05816   0.00000   0.00000  -0.00001  -0.00001  -3.05817
   D12       -1.09591  -0.00000   0.00000  -0.00001  -0.00001  -1.09592
   D13        1.73439   0.00000   0.00000   0.00002   0.00002   1.73441
   D14       -0.23575   0.00000   0.00000   0.00002   0.00002  -0.23574
   D15       -2.60251   0.00000   0.00000   0.00002   0.00002  -2.60250
         Item               Value     Threshold  Converged?
 Maximum Force            0.000000     0.000015     YES
 RMS     Force            0.000000     0.000010     YES
 Maximum Displacement     0.000121     0.000060     NO 
 RMS     Displacement     0.000039     0.000040     YES
 Predicted change in Energy=-3.829197D-11
                           ----------------------------
                           ! Non-Optimized Parameters !
                           ! (Angstroms and Degrees)  !
 --------------------------                            --------------------------
 ! Name  Definition              Value          Derivative Info.                !
 --------------------------------------------------------------------------------
 ! R1    R(1,2)                  1.5114         -DE/DX =    0.0                 !
 ! R2    R(1,8)                  1.3342         -DE/DX =    0.0                 !
 ! R3    R(1,9)                  1.3232         -DE/DX =    0.0                 !
 ! R4    R(1,10)                 1.3278         -DE/DX =    0.0                 !
 ! R5    R(2,3)                  1.3114         -DE/DX =    0.0                 !
 ! R6    R(2,4)                  1.7575         -DE/DX =    0.0                 !
 ! R7    R(4,5)                  1.42           -DE/DX =    0.0                 !
 ! R8    R(4,6)                  1.4125         -DE/DX =    0.0                 !
 ! R9    R(4,7)                  1.5798         -DE/DX =    0.0                 !
 ! R10   R(7,11)                 0.9677         -DE/DX =    0.0                 !
 ! A1    A(2,1,8)              111.2959         -DE/DX =    0.0                 !
 ! A2    A(2,1,9)              111.0318         -DE/DX =    0.0                 !
 ! A3    A(2,1,10)             109.1404         -DE/DX =    0.0                 !
 ! A4    A(8,1,9)              108.2002         -DE/DX =    0.0                 !
 ! A5    A(8,1,10)             108.1276         -DE/DX =    0.0                 !
 ! A6    A(9,1,10)             108.9714         -DE/DX =    0.0                 !
 ! A7    A(1,2,3)              115.9708         -DE/DX =    0.0                 !
 ! A8    A(1,2,4)              123.3308         -DE/DX =    0.0                 !
 ! A9    A(3,2,4)              115.4756         -DE/DX =    0.0                 !
 ! A10   A(2,4,5)              107.5172         -DE/DX =    0.0                 !
 ! A11   A(2,4,6)              106.3293         -DE/DX =    0.0                 !
 ! A12   A(2,4,7)              101.7192         -DE/DX =    0.0                 !
 ! A13   A(5,4,6)              123.8838         -DE/DX =    0.0                 !
 ! A14   A(5,4,7)              107.6901         -DE/DX =    0.0                 !
 ! A15   A(6,4,7)              107.5417         -DE/DX =    0.0                 !
 ! A16   A(4,7,11)             109.7593         -DE/DX =    0.0                 !
 ! D1    D(8,1,2,3)             94.5062         -DE/DX =    0.0                 !
 ! D2    D(8,1,2,4)            -58.7429         -DE/DX =    0.0                 !
 ! D3    D(9,1,2,3)           -144.8943         -DE/DX =    0.0                 !
 ! D4    D(9,1,2,4)             61.8565         -DE/DX =    0.0                 !
 ! D5    D(10,1,2,3)           -24.7534         -DE/DX =    0.0                 !
 ! D6    D(10,1,2,4)          -178.0025         -DE/DX =    0.0                 !
 ! D7    D(1,2,4,5)           -156.412          -DE/DX =    0.0                 !
 ! D8    D(1,2,4,6)            -21.8512         -DE/DX =    0.0                 !
 ! D9    D(1,2,4,7)             90.5773         -DE/DX =    0.0                 !
 ! D10   D(3,2,4,5)             50.2189         -DE/DX =    0.0                 !
 ! D11   D(3,2,4,6)           -175.2202         -DE/DX =    0.0                 !
 ! D12   D(3,2,4,7)            -62.7918         -DE/DX =    0.0                 !
 ! D13   D(2,4,7,11)            99.3745         -DE/DX =    0.0                 !
 ! D14   D(5,4,7,11)           -13.5067         -DE/DX =    0.0                 !
 ! D15   D(6,4,7,11)          -149.1122         -DE/DX =    0.0                 !
 --------------------------------------------------------------------------------
 GradGradGradGradGradGradGradGradGradGradGradGradGradGradGradGradGradGrad

 Leave Link  103 at Sat May 24 01:30:01 2025, MaxMem=  3758096384 cpu:               0.0 elap:               0.0
 (Enter /apps/easybuild-2022/easybuild/software/Compiler/NVHPC/22.11-CUDA-11.7.0/Gaussian/g16c01-CUDA-11.7.0/g16/l9999.exe)

 ----------------------------------------------------------------------

 Electric dipole moment (input orientation):
 (Debye = 10**-18 statcoulomb cm , SI units = C m)
                  (au)            (Debye)         (10**-30 SI)
   Tot        0.111962D+01      0.284579D+01      0.949253D+01
   x          0.100904D+01      0.256472D+01      0.855497D+01
   y          0.472619D+00      0.120128D+01      0.400703D+01
   z          0.109651D+00      0.278705D+00      0.929660D+00

 Dipole polarizability, Alpha (input orientation).
 (esu units = cm**3 , SI units = C**2 m**2 J**-1)
 Alpha(0;0):
               (au)            (10**-24 esu)      (10**-40 SI)
   iso        0.517418D+02      0.766734D+01      0.853107D+01
   aniso      0.995500D+01      0.147518D+01      0.164136D+01
   xx         0.524459D+02      0.777168D+01      0.864716D+01
   yx        -0.139270D+00     -0.206376D-01     -0.229625D-01
   yy         0.464561D+02      0.688408D+01      0.765958D+01
   zx        -0.191335D+01     -0.283530D+00     -0.315469D+00
   zy        -0.215436D+01     -0.319243D+00     -0.355206D+00
   zz         0.563233D+02      0.834626D+01      0.928646D+01

 ----------------------------------------------------------------------

 Dipole orientation:
     6         -4.23474569         -3.50387423          1.97621525
     6         -1.64605622         -3.36485697          3.17469128
     9         -1.41602793         -4.45156562          5.39005370
    16          0.53005210         -0.93694984          2.54164598
     8          2.98023096         -1.88600001          3.08666648
     8         -0.17227226          0.10515015          0.18682424
     8         -0.15909326          1.06014773          4.65085929
     9         -5.59504107         -1.44495421          2.49343695
     9         -4.06262403         -3.72231441         -0.50883230
     9         -5.45732653         -5.49656530          2.88751702
     1          1.01593704          0.91761371          6.04472495

 Electric dipole moment (dipole orientation):
 (Debye = 10**-18 statcoulomb cm , SI units = C m)
                  (au)            (Debye)         (10**-30 SI)
   Tot        0.111962D+01      0.284579D+01      0.949253D+01
   x          0.000000D+00      0.000000D+00      0.000000D+00
   y          0.000000D+00      0.000000D+00      0.000000D+00
   z          0.111962D+01      0.284579D+01      0.949253D+01

 Dipole polarizability, Alpha (dipole orientation).
 (esu units = cm**3 , SI units = C**2 m**2 J**-1)
 Alpha(0;0):
               (au)            (10**-24 esu)      (10**-40 SI)
   iso        0.517418D+02      0.766734D+01      0.853107D+01
   aniso      0.995500D+01      0.147518D+01      0.164136D+01
   xx         0.544532D+02      0.806913D+01      0.897811D+01
   yx         0.409068D+01      0.606177D+00      0.674463D+00
   yy         0.499782D+02      0.740601D+01      0.824030D+01
   zx         0.296005D+01      0.438635D+00      0.488047D+00
   zy        -0.136320D+01     -0.202005D+00     -0.224761D+00
   zz         0.507939D+02      0.752688D+01      0.837479D+01

 ----------------------------------------------------------------------
 Unable to Open any file for archive entry.
 1\1\GINC-SPARTAN-BM153\Freq\UM062X\def2TZVPP\C2H1F4O3S1\AKHALILOV\24-M
 ay-2025\0\\#P Geom=AllCheck Guess=TCheck SCRF=Check GenChk UM062X/def2
 TZVPP Freq\\Gaussian input prepared by ASE\\0,2\C,1.0017866362,-0.3353
 274265,2.9047080951\C,1.9043471523,-0.4806463649,1.7011903308\F,3.1918
 132145,-0.5096915577,1.9490469523\S,1.4569305978,0.0552149117,0.088228
 6962\O,2.2282831064,-0.6930093734,-0.840046433\O,0.0460951726,0.119932
 6397,0.068352596\O,2.0017529069,1.5380314357,0.0800922505\F,0.68361128
 91,0.9423389048,3.1203352523\F,-0.1196058262,-1.0188272551,2.742627287
 6\F,1.6334147503,-0.790940668,3.9801242827\H,2.8544495533,1.5707547492
 ,-0.376216418\\Version=ES64L-G16RevC.01\HF=-1100.0204049\S2=0.755263\S
 2-1=0.\S2A=0.750022\RMSD=7.628e-09\RMSF=1.803e-06\ZeroPoint=0.0482652\
 Thermal=0.0580188\ETot=-1099.9623861\HTot=-1099.9614419\GTot=-1100.009
 6651\Dipole=1.0090367,0.4726185,0.109651\DipoleDeriv=1.5195783,0.08038
 17,-0.2171043,0.0095566,1.6324046,0.0176036,0.0655413,-0.0785631,1.772
 4396,0.7698898,-0.1203249,0.3249814,-0.0386941,-0.1080132,-0.0265541,0
 .2042344,-0.0164156,-0.004195,-0.9022741,0.1232585,-0.2576965,0.000577
 2,-0.0503659,0.0276993,-0.1707647,0.0735057,-0.350678,2.0983879,0.0713
 468,-0.0752434,0.1595773,2.1828029,-0.0771679,-0.1743883,0.039364,2.14
 29025,-0.6924156,0.1725443,0.2897694,0.0794157,-0.7220734,-0.1765064,0
 .1947996,-0.212075,-0.9856404,-1.0669051,0.0226607,-0.1340483,0.070971
 9,-0.5069106,0.0334479,-0.0345787,0.0261717,-0.6326718,-0.623511,-0.42
 45157,0.102477,-0.3421271,-1.1965006,0.2650628,0.030099,0.1360594,-0.5
 935668,-0.344661,0.1515967,0.1393835,0.1410114,-0.7878978,-0.1627255,0
 .0878611,-0.1320339,-0.4364704,-0.7158312,-0.2864269,0.0298884,-0.2389
 621,-0.4228478,-0.0377389,0.0365997,0.0012297,-0.3452299,-0.4006635,0.
 0857525,-0.1628718,0.0997214,-0.3455708,0.1756377,-0.2175917,0.2263833
 ,-0.9026665,0.3584055,0.1237263,-0.0395354,0.0589518,0.3249725,-0.0387
 585,-0.0218119,-0.0636261,0.3357767\Polar=52.4459079,-0.1392697,46.456
 0977,-1.9133539,-2.1543592,56.323325\PG=Unknown\NImag=0\\0.59706916,0.
 00701729,0.52149599,-0.01256962,-0.00718378,0.60094357,-0.11288760,0.0
 1391600,0.09479773,0.64138077,0.00512299,-0.03995588,-0.00161338,-0.03
 207458,0.11287609,0.04463849,-0.01205392,-0.15811188,0.00496551,-0.035
 07875,0.48285157,-0.03141892,-0.00210441,-0.02876165,-0.42371178,0.011
 79870,-0.06597179,0.48147695,0.00748950,0.00234029,-0.00000058,0.00374
 762,-0.01096005,0.00318378,-0.01874939,0.00753150,0.01981310,0.0026343
 4,0.00611311,-0.07508084,0.00836331,-0.08101626,0.07961410,-0.01062394
 ,0.07886658,0.03816273,-0.00678434,0.00884845,-0.06044521,0.00593251,-
 0.01056567,-0.03227841,0.01243694,-0.03297951,1.20006143,-0.01138096,0
 .01625718,0.00424928,0.02429368,-0.04431252,0.04766391,-0.00825384,-0.
 00144952,-0.00549211,-0.14116436,0.63341187,0.01972583,0.00925211,-0.0
 3287128,-0.05132531,0.02126740,-0.17243464,0.01792753,0.00607061,0.005
 12524,-0.18680685,0.14585054,0.71196489,-0.00220339,0.00127134,-0.0027
 0311,-0.00217068,0.00220020,-0.00180872,0.00894977,-0.00051613,0.00272
 129,-0.27286100,0.16718090,0.20799304,0.25840114,0.00032290,-0.0018600
 8,0.00050845,0.00415337,0.00458600,0.00300561,-0.00097970,-0.00000263,
 0.00042990,0.16961069,-0.25024612,-0.19875846,-0.18889911,0.26236730,-
 0.01349712,0.00173812,0.00493689,0.03060644,-0.01476927,-0.01897209,-0
 .00613497,0.00008022,-0.00087894,0.22140848,-0.21180246,-0.35846858,-0
 .23794114,0.23940372,0.35656565,-0.01617561,0.00092895,0.00185197,-0.0
 1299425,-0.00135895,0.00556408,-0.00425015,0.00227426,-0.00773333,-0.7
 2526155,0.04022317,-0.01002000,-0.00829527,-0.00511700,-0.00664949,0.7
 7578435,0.00098669,-0.00517332,-0.00155305,0.00595210,0.00577696,-0.00
 112911,0.00295511,0.00147568,0.00364970,0.04200826,-0.08465496,0.00216
 305,0.02244896,0.01318492,-0.00371840,-0.03019808,0.06986892,0.0015671
 3,-0.00110437,0.00685685,-0.02062872,0.00015436,0.00980480,-0.00904529
 ,0.00313801,-0.00822409,-0.02441617,0.00453476,-0.09953507,0.03173284,
 -0.00739181,0.01780869,0.01753651,-0.00028537,0.06614008,-0.00112405,-
 0.00087692,-0.00405828,-0.00169142,-0.00405939,-0.00343957,0.00887697,
 -0.00058481,0.00371898,-0.10723690,-0.06907597,0.01106451,0.01522193,0
 .01464351,0.00508897,-0.02298417,-0.04124093,0.00325820,0.50201205,0.0
 0837352,-0.00765975,-0.00833227,-0.02229735,-0.01401723,0.00504701,0.0
 0868637,0.00236529,0.00159379,-0.04384750,-0.24798445,-0.01130717,-0.0
 0855972,-0.03382491,-0.00832725,-0.00221061,0.00009990,0.00136875,0.09
 005579,0.32782408,-0.00623233,-0.00022344,0.00541999,0.01147730,0.0234
 3445,-0.00499554,-0.00378701,-0.00200592,-0.00015053,0.02218649,0.0173
 4760,-0.07439620,-0.00354163,-0.03359744,0.01178754,0.00561381,0.00298
 578,0.01350270,-0.23739603,0.00447455,0.17122444,-0.09381546,0.0655706
 7,0.01981360,0.00023587,0.02648394,0.01836689,-0.00248467,-0.00205107,
 -0.00096927,-0.00675066,0.00374182,-0.00743008,0.00041461,-0.00058036,
 0.00234493,0.00351959,-0.00094124,0.00013358,-0.00021911,-0.00212212,0
 .00174105,0.09684265,0.05566254,-0.25911748,-0.04733496,0.00887360,-0.
 01935749,-0.01798878,0.00686716,-0.00051144,-0.00157506,0.00456829,-0.
 00961770,0.00683067,-0.00016115,0.00152331,-0.00260384,-0.00232852,0.0
 0242064,-0.00082864,0.00105466,0.00452343,-0.00120999,-0.07998135,0.39
 852500,0.01990685,-0.05515526,-0.09375247,0.00890490,-0.02860856,-0.00
 855105,0.00743740,-0.00054048,-0.00061894,0.00059755,-0.00182907,0.007
 69511,0.00062785,0.00014338,-0.00163350,-0.00106564,-0.00000292,-0.002
 01985,0.00110732,0.00239509,-0.00178517,-0.00861310,0.05310361,0.08266
 387,-0.26256041,-0.10870536,-0.00317610,-0.03399300,-0.01486556,0.0037
 3980,-0.00818869,-0.00261717,0.00617669,-0.01096914,0.00147537,-0.0069
 7896,0.00114899,0.00004135,0.00301795,0.00614108,0.00024600,0.00009744
 ,0.00082246,-0.00185153,0.00204248,0.00760886,-0.02751231,-0.00739212,
 0.34944417,-0.10195343,-0.12974995,-0.00304370,-0.01031032,0.00319047,
 -0.00216339,-0.00120735,-0.00011774,0.00235003,-0.00189496,-0.00229833
 ,-0.00156602,0.00006847,0.00057600,0.00074134,0.00087685,0.00067841,0.
 00126511,0.00039482,0.00055371,0.00047794,-0.04686620,-0.06942309,-0.0
 1410102,0.16305466,0.18075023,-0.00172994,-0.00300074,-0.08402056,0.01
 901860,0.00689574,0.00964924,0.00751147,0.00120691,-0.00302731,-0.0043
 1933,-0.00166156,0.00155946,0.00078500,-0.00005144,-0.00053920,0.00178
 066,0.00197352,-0.00400550,0.00095504,0.00126576,-0.00017722,-0.011770
 17,-0.01570749,0.01216249,0.04382313,0.02356845,0.08156683,-0.11396228
 ,0.02995814,-0.07561871,0.00261134,-0.00122031,0.00482661,0.00532180,-
 0.00107550,0.00519349,-0.00493478,0.00146286,-0.00025525,0.00085820,-0
 .00028604,0.00088648,0.00220157,-0.00014790,-0.00057766,0.00064737,-0.
 00038945,0.00025862,-0.00564587,0.03318674,-0.02102560,-0.04967624,-0.
 00222743,-0.05588054,0.16267908,0.02867162,-0.09645948,0.06400200,0.00
 441803,0.00500161,0.00896659,-0.00063577,-0.00054464,-0.00161595,0.000
 11017,-0.00013205,-0.00159980,-0.00045396,0.00033218,0.00109689,-0.000
 07730,0.00037064,0.00035788,-0.00011015,0.00040113,0.00003825,0.036696
 57,-0.04903354,0.04473497,-0.00947019,0.01576735,-0.01438453,-0.059301
 33,0.12421276,-0.07191462,0.06502267,-0.25528651,-0.02501968,0.0180706
 6,-0.05806622,0.00293899,-0.00000982,0.00384710,0.00693601,-0.00571749
 ,0.00831827,0.00095287,-0.00061729,-0.00615628,-0.00193412,0.00079731,
 -0.00130673,0.00127075,0.00435601,-0.00199438,-0.01353866,0.02734796,0
 .00583243,-0.04110517,-0.00741752,-0.01328575,0.14227277,-0.10155501,0
 .31801100,-0.00108417,-0.00019136,0.00157573,0.00366596,0.00204044,-0.
 00031563,-0.00229287,-0.00035423,-0.00047471,-0.01748652,-0.00850267,0
 .00610554,0.00053571,0.00709039,0.00086949,0.00231442,-0.00206897,0.00
 034215,-0.39432512,-0.02583741,0.20763725,0.00029418,-0.00022966,-0.00
 048543,0.00022193,0.00006489,-0.00017391,-0.00010019,0.00015232,-0.000
 85913,0.40825668,-0.00031267,-0.00011753,0.00030197,-0.00067215,-0.002
 82797,0.00054705,0.00162312,-0.00012675,0.00028598,-0.04097570,-0.0089
 7338,0.02179707,0.00542019,0.00336403,-0.00183908,-0.00301275,-0.00404
 779,-0.00120869,0.00979939,-0.03228121,-0.01172178,0.00004934,0.000068
 38,-0.00013974,0.00020474,0.00007295,-0.00010462,0.00004022,0.00008403
 ,-0.00027748,0.02783626,0.04478525,0.00029224,0.00007426,-0.00022772,0
 .00228406,0.00188403,-0.00015794,-0.00172878,-0.00049878,-0.00003594,-
 0.00088944,0.00685662,0.00304282,0.00118173,-0.00307463,-0.00445018,-0
 .00494446,-0.00488053,0.00097812,0.21843012,0.00746573,-0.11843562,-0.
 00007878,-0.00003347,0.00000709,-0.00024515,-0.00011124,0.00011750,-0.
 00008019,-0.00004130,0.00008706,-0.21422136,-0.00764068,0.11907480\\0.
 00000267,-0.00000027,0.00000096,0.00000025,-0.00000086,-0.00000100,0.0
 0000066,-0.00000066,-0.00000286,-0.00000310,0.00000133,0.00000069,-0.0
 0000393,0.00000048,-0.00000179,-0.00000185,0.00000079,0.00000245,-0.00
 000117,-0.00000015,-0.00000042,0.00000333,-0.00000025,0.00000167,0.000
 00164,0.00000035,0.00000241,0.00000381,-0.00000102,-0.00000062,-0.0000
 0231,0.00000025,-0.00000148\\\@
 The archive entry for this job was punched.


 The mind is not a vessel to be filled but a fire to be kindled.
                                  -- Plutarch
 Job cpu time:       0 days  0 hours 42 minutes 18.5 seconds.
 Elapsed time:       0 days  0 hours  5 minutes 25.1 seconds.
 File lengths (MBytes):  RWF=    244 Int=      0 D2E=      0 Chk=     12 Scr=      1
 Normal termination of Gaussian 16 at Sat May 24 01:30:01 2025.
done
