 Entering Gaussian System, Link 0=g16
 Initial command:
 /apps/easybuild-2022/easybuild/software/Compiler/NVHPC/22.11-CUDA-11.7.0/Gaussian/g16c01-CUDA-11.7.0/g16/l1.exe "/tmp/Gau-33638.inp" -scrdir="/tmp/"
 Entering Link 1 = /apps/easybuild-2022/easybuild/software/Compiler/NVHPC/22.11-CUDA-11.7.0/Gaussian/g16c01-CUDA-11.7.0/g16/l1.exe PID=     33639.
  
 Copyright (c) 1988-2019, Gaussian, Inc.  All Rights Reserved.
  
 This is part of the Gaussian(R) 16 program.  It is based on
 the Gaussian(R) 09 system (copyright 2009, Gaussian, Inc.),
 the Gaussian(R) 03 system (copyright 2003, Gaussian, Inc.),
 the Gaussian(R) 98 system (copyright 1998, Gaussian, Inc.),
 the Gaussian(R) 94 system (copyright 1995, Gaussian, Inc.),
 the Gaussian 92(TM) system (copyright 1992, Gaussian, Inc.),
 the Gaussian 90(TM) system (copyright 1990, Gaussian, Inc.),
 the Gaussian 88(TM) system (copyright 1988, Gaussian, Inc.),
 the Gaussian 86(TM) system (copyright 1986, Carnegie Mellon
 University), and the Gaussian 82(TM) system (copyright 1983,
 Carnegie Mellon University). Gaussian is a federally registered
 trademark of Gaussian, Inc.
  
 This software contains proprietary and confidential information,
 including trade secrets, belonging to Gaussian, Inc.
  
 This software is provided under written license and may be
 used, copied, transmitted, or stored only in accord with that
 written license.
  
 The following legend is applicable only to US Government
 contracts under FAR:
  
                    RESTRICTED RIGHTS LEGEND
  
 Use, reproduction and disclosure by the US Government is
 subject to restrictions as set forth in subparagraphs (a)
 and (c) of the Commercial Computer Software - Restricted
 Rights clause in FAR 52.227-19.
  
 Gaussian, Inc.
 340 Quinnipiac St., Bldg. 40, Wallingford CT 06492
  
  
 ---------------------------------------------------------------
 Warning -- This program may not be used in any manner that
 competes with the business of Gaussian, Inc. or will provide
 assistance to any competitor of Gaussian, Inc.  The licensee
 of this program is prohibited from giving any competitor of
 Gaussian, Inc. access to this program.  By using this program,
 the user acknowledges that Gaussian, Inc. is engaged in the
 business of creating and licensing software in the field of
 computational chemistry and represents and warrants to the
 licensee that it is not a competitor of Gaussian, Inc. and that
 it will not use this program in any manner prohibited above.
 ---------------------------------------------------------------
  

 Cite this work as:
 Gaussian 16, Revision C.01,
 M. J. Frisch, G. W. Trucks, H. B. Schlegel, G. E. Scuseria, 
 M. A. Robb, J. R. Cheeseman, G. Scalmani, V. Barone, 
 G. A. Petersson, H. Nakatsuji, X. Li, M. Caricato, A. V. Marenich, 
 J. Bloino, B. G. Janesko, R. Gomperts, B. Mennucci, H. P. Hratchian, 
 J. V. Ortiz, A. F. Izmaylov, J. L. Sonnenberg, D. Williams-Young, 
 F. Ding, F. Lipparini, F. Egidi, J. Goings, B. Peng, A. Petrone, 
 T. Henderson, D. Ranasinghe, V. G. Zakrzewski, J. Gao, N. Rega, 
 G. Zheng, W. Liang, M. Hada, M. Ehara, K. Toyota, R. Fukuda, 
 J. Hasegawa, M. Ishida, T. Nakajima, Y. Honda, O. Kitao, H. Nakai, 
 T. Vreven, K. Throssell, J. A. Montgomery, Jr., J. E. Peralta, 
 F. Ogliaro, M. J. Bearpark, J. J. Heyd, E. N. Brothers, K. N. Kudin, 
 V. N. Staroverov, T. A. Keith, R. Kobayashi, J. Normand, 
 K. Raghavachari, A. P. Rendell, J. C. Burant, S. S. Iyengar, 
 J. Tomasi, M. Cossi, J. M. Millam, M. Klene, C. Adamo, R. Cammi, 
 J. W. Ochterski, R. L. Martin, K. Morokuma, O. Farkas, 
 J. B. Foresman, and D. J. Fox, Gaussian, Inc., Wallingford CT, 2019.
 
 ******************************************
 Gaussian 16:  ES64L-G16RevC.01  3-Jul-2019
                24-May-2025 
 ******************************************
 %mem=28GB
 %nprocshared=8
 Will use up to    8 processors via shared memory.
 ----------------------------------------------------------------------
 #P M062X/Def2TZVPP Symm(None) scf(xqc) pop(None) freq opt(CalcFC, Tigh
 t)
 ----------------------------------------------------------------------
 1/7=10,10=4,18=20,19=15,26=3,38=1/1,3;
 2/9=110,12=2,15=3,17=6,18=5,40=1/2;
 3/5=44,7=202,11=2,25=1,30=1,71=2,74=-55,140=1/1,2,3;
 4//1;
 5/5=2,8=3,13=1,38=5/2,8;
 8/6=4,10=90,11=11/1;
 11/6=1,8=1,9=11,15=111,16=1,31=1/1,2,10;
 10/6=1,13=1,31=1/2;
 7/10=1,25=1,30=1/1,2,3,16;
 1/7=10,10=4,18=20,19=15,26=3/3(2);
 2/9=110,15=3/2;
 99//99;
 2/9=110,15=3/2;
 3/5=44,7=202,11=2,25=1,30=1,71=1,74=-55/1,2,3;
 4/5=5,16=3,69=1/1;
 5/5=2,8=3,13=1,38=5/2,8;
 7/30=1/1,2,3,16;
 1/7=10,18=20,19=15,26=3/3(-5);
 2/9=110,15=3/2;
 99/9=1/99;
 Leave Link    1 at Sat May 24 00:53:24 2025, MaxMem=  3758096384 cpu:               0.1 elap:               0.0
 (Enter /apps/easybuild-2022/easybuild/software/Compiler/NVHPC/22.11-CUDA-11.7.0/Gaussian/g16c01-CUDA-11.7.0/g16/l101.exe)
 ------------------------------
 Gaussian input prepared by ASE
 ------------------------------
 Symbolic Z-matrix:
 Charge =  0 Multiplicity = 2
 C                    -0.5471    0.88995  -1.08868 
 C                     0.        0.        0. 
 F                    -0.40572   0.46921   1.18855 
 F                    -0.42967  -1.26371  -0.12372 
 S                     1.83872   0.        0. 
 O                     2.2824   -0.49934   1.24357 
 O                     2.23366  -0.54355  -1.25177 
 O                     2.09032   1.55145   0. 
 F                    -0.14052   0.58625  -2.29684 
 F                    -1.84719   1.05746  -1.02867 
 H                     1.39138   2.00492   0.49309 
 
 ITRead=  0  0  0  0  0  0  0  0  0  0  0
 MicOpt= -1 -1 -1 -1 -1 -1 -1 -1 -1 -1 -1
 NAtoms=     11 NQM=       11 NQMF=       0 NMMI=      0 NMMIF=      0
                NMic=       0 NMicF=      0.
                    Isotopes and Nuclear Properties:
 (Nuclear quadrupole moments (NQMom) in fm**2, nuclear magnetic moments (NMagM)
  in nuclear magnetons)

  Atom         1           2           3           4           5           6           7           8           9          10
 IAtWgt=          12          12          19          19          32          16          16          16          19          19
 AtmWgt=  12.0000000  12.0000000  18.9984032  18.9984032  31.9720718  15.9949146  15.9949146  15.9949146  18.9984032  18.9984032
 NucSpn=           0           0           1           1           0           0           0           0           1           1
 AtZEff=  -0.0000000  -0.0000000  -0.0000000  -0.0000000  -0.0000000  -0.0000000  -0.0000000  -0.0000000  -0.0000000  -0.0000000
 NQMom=    0.0000000   0.0000000   0.0000000   0.0000000   0.0000000   0.0000000   0.0000000   0.0000000   0.0000000   0.0000000
 NMagM=    0.0000000   0.0000000   2.6288670   2.6288670   0.0000000   0.0000000   0.0000000   0.0000000   2.6288670   2.6288670
 AtZNuc=   6.0000000   6.0000000   9.0000000   9.0000000  16.0000000   8.0000000   8.0000000   8.0000000   9.0000000   9.0000000

  Atom        11
 IAtWgt=           1
 AtmWgt=   1.0078250
 NucSpn=           1
 AtZEff=  -0.0000000
 NQMom=    0.0000000
 NMagM=    2.7928460
 AtZNuc=   1.0000000
 Leave Link  101 at Sat May 24 00:53:25 2025, MaxMem=  3758096384 cpu:               0.3 elap:               0.2
 (Enter /apps/easybuild-2022/easybuild/software/Compiler/NVHPC/22.11-CUDA-11.7.0/Gaussian/g16c01-CUDA-11.7.0/g16/l103.exe)

 GradGradGradGradGradGradGradGradGradGradGradGradGradGradGradGradGradGrad
 Berny optimization.
 Initialization pass.
                           ----------------------------
                           !    Initial Parameters    !
                           ! (Angstroms and Degrees)  !
 --------------------------                            --------------------------
 ! Name  Definition              Value          Derivative Info.                !
 --------------------------------------------------------------------------------
 ! R1    R(1,2)                  1.5088         calculate D2E/DX2 analytically  !
 ! R2    R(1,9)                  1.3104         calculate D2E/DX2 analytically  !
 ! R3    R(1,10)                 1.3122         calculate D2E/DX2 analytically  !
 ! R4    R(2,3)                  1.3407         calculate D2E/DX2 analytically  !
 ! R5    R(2,4)                  1.3405         calculate D2E/DX2 analytically  !
 ! R6    R(2,5)                  1.8387         calculate D2E/DX2 analytically  !
 ! R7    R(5,6)                  1.4116         calculate D2E/DX2 analytically  !
 ! R8    R(5,7)                  1.4207         calculate D2E/DX2 analytically  !
 ! R9    R(5,8)                  1.5717         calculate D2E/DX2 analytically  !
 ! R10   R(8,11)                 0.9681         calculate D2E/DX2 analytically  !
 ! A1    A(2,1,9)              114.5845         calculate D2E/DX2 analytically  !
 ! A2    A(2,1,10)             113.6747         calculate D2E/DX2 analytically  !
 ! A3    A(9,1,10)             112.2812         calculate D2E/DX2 analytically  !
 ! A4    A(1,2,3)              108.8752         calculate D2E/DX2 analytically  !
 ! A5    A(1,2,4)              111.9152         calculate D2E/DX2 analytically  !
 ! A6    A(1,2,5)              111.2598         calculate D2E/DX2 analytically  !
 ! A7    A(3,2,4)              108.3461         calculate D2E/DX2 analytically  !
 ! A8    A(3,2,5)              107.6154         calculate D2E/DX2 analytically  !
 ! A9    A(4,2,5)              108.6951         calculate D2E/DX2 analytically  !
 ! A10   A(2,5,6)              108.3192         calculate D2E/DX2 analytically  !
 ! A11   A(2,5,7)              106.1407         calculate D2E/DX2 analytically  !
 ! A12   A(2,5,8)               99.2117         calculate D2E/DX2 analytically  !
 ! A13   A(6,5,7)              123.6071         calculate D2E/DX2 analytically  !
 ! A14   A(6,5,8)              107.3891         calculate D2E/DX2 analytically  !
 ! A15   A(7,5,8)              109.4605         calculate D2E/DX2 analytically  !
 ! A16   A(5,8,11)             110.2907         calculate D2E/DX2 analytically  !
 ! D1    D(9,1,2,3)            175.4732         calculate D2E/DX2 analytically  !
 ! D2    D(9,1,2,4)            -64.7845         calculate D2E/DX2 analytically  !
 ! D3    D(9,1,2,5)             57.0356         calculate D2E/DX2 analytically  !
 ! D4    D(10,1,2,3)           -53.5422         calculate D2E/DX2 analytically  !
 ! D5    D(10,1,2,4)            66.2001         calculate D2E/DX2 analytically  !
 ! D6    D(10,1,2,5)          -171.9798         calculate D2E/DX2 analytically  !
 ! D7    D(1,2,5,6)            162.6128         calculate D2E/DX2 analytically  !
 ! D8    D(1,2,5,7)            -62.7362         calculate D2E/DX2 analytically  !
 ! D9    D(1,2,5,8)             50.7354         calculate D2E/DX2 analytically  !
 ! D10   D(3,2,5,6)             43.4202         calculate D2E/DX2 analytically  !
 ! D11   D(3,2,5,7)            178.0712         calculate D2E/DX2 analytically  !
 ! D12   D(3,2,5,8)            -68.4572         calculate D2E/DX2 analytically  !
 ! D13   D(4,2,5,6)            -73.7141         calculate D2E/DX2 analytically  !
 ! D14   D(4,2,5,7)             60.9369         calculate D2E/DX2 analytically  !
 ! D15   D(4,2,5,8)            174.4085         calculate D2E/DX2 analytically  !
 ! D16   D(2,5,8,11)            32.889          calculate D2E/DX2 analytically  !
 ! D17   D(6,5,8,11)           -79.7209         calculate D2E/DX2 analytically  !
 ! D18   D(7,5,8,11)           143.7435         calculate D2E/DX2 analytically  !
 --------------------------------------------------------------------------------
 Trust Radius=3.00D-01 FncErr=1.00D-07 GrdErr=1.00D-06 EigMax=2.50D+02 EigMin=1.00D-04
 Number of steps in this run=     54 maximum allowed number of steps=    100.
 GradGradGradGradGradGradGradGradGradGradGradGradGradGradGradGradGradGrad

 Leave Link  103 at Sat May 24 00:53:25 2025, MaxMem=  3758096384 cpu:               0.1 elap:               0.0
 (Enter /apps/easybuild-2022/easybuild/software/Compiler/NVHPC/22.11-CUDA-11.7.0/Gaussian/g16c01-CUDA-11.7.0/g16/l202.exe)
                          Input orientation:                          
 ---------------------------------------------------------------------
 Center     Atomic      Atomic             Coordinates (Angstroms)
 Number     Number       Type             X           Y           Z
 ---------------------------------------------------------------------
      1          6           0       -0.547097    0.889954   -1.088682
      2          6           0        0.000000    0.000000    0.000000
      3          9           0       -0.405724    0.469209    1.188552
      4          9           0       -0.429666   -1.263711   -0.123719
      5         16           0        1.838716    0.000000    0.000000
      6          8           0        2.282401   -0.499340    1.243566
      7          8           0        2.233661   -0.543545   -1.251768
      8          8           0        2.090322    1.551454    0.000000
      9          9           0       -0.140519    0.586251   -2.296840
     10          9           0       -1.847193    1.057464   -1.028668
     11          1           0        1.391383    2.004922    0.493087
 ---------------------------------------------------------------------
                    Distance matrix (angstroms):
                    1          2          3          4          5
     1  C    0.000000
     2  C    1.508828   0.000000
     3  F    2.320087   1.340680   0.000000
     4  F    2.362883   1.340480   2.173854   0.000000
     5  S    2.769359   1.838716   2.582697   2.599582   0.000000
     6  O    3.921170   2.646724   2.857819   3.131938   1.411614
     7  O    3.132752   2.617557   3.734593   2.980678   1.420685
     8  O    2.928957   2.603163   2.968864   3.780317   1.571724
     9  F    1.310415   2.374639   3.497426   2.868522   3.088128
    10  F    1.312216   2.364003   2.709232   2.866386   3.970178
    11  H    2.739134   2.489738   2.464079   3.792181   2.112571
                    6          7          8          9         10
     6  O    0.000000
     7  O    2.496201   0.000000
     8  O    2.406056   2.444686   0.000000
     9  F    4.425328   2.829372   3.344211   0.000000
    10  F    4.963892   4.389348   4.099537   2.177852   0.000000
    11  H    2.761967   3.201350   0.968134   3.484688   3.701593
                   11
    11  H    0.000000
 Symmetry turned off by external request.
 Stoichiometry    C2HF4O3S
 Rotational constants (GHZ):           1.8616342           1.0129080           0.8969743
 Leave Link  202 at Sat May 24 00:53:25 2025, MaxMem=  3758096384 cpu:               0.1 elap:               0.0
 (Enter /apps/easybuild-2022/easybuild/software/Compiler/NVHPC/22.11-CUDA-11.7.0/Gaussian/g16c01-CUDA-11.7.0/g16/l301.exe)
 Standard basis: def2TZVPP (5D, 7F)
 Ernie: Thresh=  0.10000D-02 Tol=  0.10000D-05 Strict=F.
   335 basis functions,   545 primitive gaussians,   387 cartesian basis functions
    45 alpha electrons       44 beta electrons
       nuclear repulsion energy       775.9995364454 Hartrees.
 IExCor= 4336 DFT=T Ex+Corr=M062X ExCW=0 ScaHFX=  0.540000
 ScaDFX=  1.000000  1.000000  1.000000  1.000000 ScalE2=  1.000000  1.000000
 IRadAn=      5 IRanWt=     -1 IRanGd=            0 ICorTp=0 IEmpDi=  4
 NAtoms=   11 NActive=   11 NUniq=   11 SFac= 1.00D+00 NAtFMM=   60 NAOKFM=F Big=F
 Integral buffers will be    131072 words long.
 Raffenetti 2 integral format.
 Two-electron integral symmetry is turned off.
 Leave Link  301 at Sat May 24 00:53:25 2025, MaxMem=  3758096384 cpu:               0.1 elap:               0.0
 (Enter /apps/easybuild-2022/easybuild/software/Compiler/NVHPC/22.11-CUDA-11.7.0/Gaussian/g16c01-CUDA-11.7.0/g16/l302.exe)
 NPDir=0 NMtPBC=     1 NCelOv=     1 NCel=       1 NClECP=     1 NCelD=      1
         NCelK=      1 NCelE2=     1 NClLst=     1 CellRange=     0.0.
 One-electron integrals computed using PRISM.
   1 Symmetry operations used in ECPInt.
 ECPInt:  NShTT=    7140 NPrTT=   23456 LenC2=    6793 LenP2D=   16727.
 LDataN:  DoStor=T MaxTD1= 6 Len=  172
 NBasis=   335 RedAO= T EigKep=  4.67D-04  NBF=   335
 NBsUse=   335 1.00D-06 EigRej= -1.00D+00 NBFU=   335
 Precomputing XC quadrature grid using
 IXCGrd= 4 IRadAn=           5 IRanWt=          -1 IRanGd=           0 AccXCQ= 0.00D+00.
 Generated NRdTot=       0 NPtTot=           0 NUsed=           0 NTot=          32
 NSgBfM=   383   383   383   383   383 MxSgAt=    11 MxSgA2=    11.
 Leave Link  302 at Sat May 24 00:53:25 2025, MaxMem=  3758096384 cpu:               0.7 elap:               0.2
 (Enter /apps/easybuild-2022/easybuild/software/Compiler/NVHPC/22.11-CUDA-11.7.0/Gaussian/g16c01-CUDA-11.7.0/g16/l303.exe)
 DipDrv:  MaxL=1.
 Leave Link  303 at Sat May 24 00:53:25 2025, MaxMem=  3758096384 cpu:               0.1 elap:               0.0
 (Enter /apps/easybuild-2022/easybuild/software/Compiler/NVHPC/22.11-CUDA-11.7.0/Gaussian/g16c01-CUDA-11.7.0/g16/l401.exe)
 ExpMin= 9.52D-02 ExpMax= 6.07D+04 ExpMxC= 2.07D+03 IAcc=3 IRadAn=         5 AccDes= 0.00D+00
 Harris functional with IExCor= 1009 and IRadAn=       5 diagonalized for initial guess.
 HarFok:  IExCor= 1009 AccDes= 0.00D+00 IRadAn=         5 IDoV= 1 UseB2=F ITyADJ=14
 ICtDFT=  3500011 ScaDFX=  1.000000  1.000000  1.000000  1.000000
 FoFCou: FMM=F IPFlag=           0 FMFlag=      100000 FMFlg1=           0
         NFxFlg=           0 DoJE=T BraDBF=F KetDBF=T FulRan=T
         wScrn=  0.000000 ICntrl=       500 IOpCl=  0 I1Cent=   200000004 NGrid=           0
         NMat0=    1 NMatS0=      1 NMatT0=    0 NMatD0=    1 NMtDS0=    0 NMtDT0=    0
 Symmetry not used in FoFCou.
 Harris En= -1099.43985730637    
 JPrj=0 DoOrth=F DoCkMO=F.
 Initial guess <Sx>= 0.0000 <Sy>= 0.0000 <Sz>= 0.5000 <S**2>= 0.7500 S= 0.5000
 Leave Link  401 at Sat May 24 00:53:26 2025, MaxMem=  3758096384 cpu:               3.9 elap:               0.6
 (Enter /apps/easybuild-2022/easybuild/software/Compiler/NVHPC/22.11-CUDA-11.7.0/Gaussian/g16c01-CUDA-11.7.0/g16/l502.exe)
 Keep R1 and R2 ints in memory in canonical form, NReq=3196701089.
 FoFCou: FMM=F IPFlag=           0 FMFlag=           0 FMFlg1=           0
         NFxFlg=           0 DoJE=F BraDBF=F KetDBF=F FulRan=T
         wScrn=  0.000000 ICntrl=       600 IOpCl=  0 I1Cent=           0 NGrid=           0
         NMat0=    1 NMatS0=  56280 NMatT0=    0 NMatD0=    1 NMtDS0=    0 NMtDT0=    0
 Symmetry not used in FoFCou.
 Two-electron integral symmetry not used.
 UHF open shell SCF:
 Using DIIS extrapolation, IDIIS=  1040.
 NGot=  3758096384 LenX=   590296375 LenY=   590146165
 Requested convergence on RMS density matrix=1.00D-08 within  32 cycles.
 Requested convergence on MAX density matrix=1.00D-06.
 Requested convergence on             energy=1.00D-06.
 No special actions if energy rises.
 Integral accuracy reduced to 1.0D-05 until final iterations.

 Cycle   1  Pass 0  IDiag  1:
 E= -1099.69900942924    
 DIIS: error= 2.49D-02 at cycle   1 NSaved=   1.
 NSaved= 1 IEnMin= 1 EnMin= -1099.69900942924     IErMin= 1 ErrMin= 2.49D-02
 ErrMax= 2.49D-02  0.00D+00 EMaxC= 1.00D-01 BMatC= 2.23D+00 BMatP= 2.23D+00
 IDIUse=3 WtCom= 7.51D-01 WtEn= 2.49D-01
 Coeff-Com:  0.100D+01
 Coeff-En:   0.100D+01
 Coeff:      0.100D+01
 Gap=     0.425 Goal=   None    Shift=    0.000
 Gap=     0.304 Goal=   None    Shift=    0.000
 GapD=    0.304 DampG=1.000 DampE=0.500 DampFc=0.5000 IDamp=-1.
 Damping current iteration by 5.00D-01
 RMSDP=2.76D-03 MaxDP=2.58D-01              OVMax= 2.29D-01

 Cycle   2  Pass 0  IDiag  1:
 E= -1099.79282281604     Delta-E=       -0.093813386804 Rises=F Damp=T
 DIIS: error= 7.47D-03 at cycle   2 NSaved=   2.
 NSaved= 2 IEnMin= 2 EnMin= -1099.79282281604     IErMin= 2 ErrMin= 7.47D-03
 ErrMax= 7.47D-03  0.00D+00 EMaxC= 1.00D-01 BMatC= 2.31D-01 BMatP= 2.23D+00
 IDIUse=3 WtCom= 9.25D-01 WtEn= 7.47D-02
 Coeff-Com:  0.120D+00 0.880D+00
 Coeff-En:   0.303D+00 0.697D+00
 Coeff:      0.133D+00 0.867D+00
 Gap=     0.475 Goal=   None    Shift=    0.000
 Gap=     0.332 Goal=   None    Shift=    0.000
 RMSDP=6.74D-04 MaxDP=5.35D-02 DE=-9.38D-02 OVMax= 1.45D-01

 Cycle   3  Pass 0  IDiag  1:
 E= -1099.98687737742     Delta-E=       -0.194054561373 Rises=F Damp=F
 DIIS: error= 4.03D-03 at cycle   3 NSaved=   3.
 NSaved= 3 IEnMin= 3 EnMin= -1099.98687737742     IErMin= 3 ErrMin= 4.03D-03
 ErrMax= 4.03D-03  0.00D+00 EMaxC= 1.00D-01 BMatC= 4.63D-02 BMatP= 2.31D-01
 IDIUse=3 WtCom= 9.60D-01 WtEn= 4.03D-02
 Coeff-Com: -0.569D-01 0.241D+00 0.816D+00
 Coeff-En:   0.000D+00 0.000D+00 0.100D+01
 Coeff:     -0.546D-01 0.231D+00 0.824D+00
 Gap=     0.374 Goal=   None    Shift=    0.000
 Gap=     0.336 Goal=   None    Shift=    0.000
 RMSDP=3.18D-04 MaxDP=1.96D-02 DE=-1.94D-01 OVMax= 2.31D-02

 Cycle   4  Pass 0  IDiag  1:
 E= -1099.99391486895     Delta-E=       -0.007037491528 Rises=F Damp=F
 DIIS: error= 1.73D-03 at cycle   4 NSaved=   4.
 NSaved= 4 IEnMin= 4 EnMin= -1099.99391486895     IErMin= 4 ErrMin= 1.73D-03
 ErrMax= 1.73D-03  0.00D+00 EMaxC= 1.00D-01 BMatC= 1.06D-02 BMatP= 4.63D-02
 IDIUse=3 WtCom= 9.83D-01 WtEn= 1.73D-02
 Coeff-Com: -0.334D-01 0.692D-01 0.411D+00 0.553D+00
 Coeff-En:   0.000D+00 0.000D+00 0.649D-01 0.935D+00
 Coeff:     -0.328D-01 0.680D-01 0.405D+00 0.560D+00
 Gap=     0.378 Goal=   None    Shift=    0.000
 Gap=     0.334 Goal=   None    Shift=    0.000
 RMSDP=9.74D-05 MaxDP=5.91D-03 DE=-7.04D-03 OVMax= 8.93D-03

 Cycle   5  Pass 0  IDiag  1:
 E= -1099.99566919591     Delta-E=       -0.001754326964 Rises=F Damp=F
 DIIS: error= 3.48D-04 at cycle   5 NSaved=   5.
 NSaved= 5 IEnMin= 5 EnMin= -1099.99566919591     IErMin= 5 ErrMin= 3.48D-04
 ErrMax= 3.48D-04  0.00D+00 EMaxC= 1.00D-01 BMatC= 5.68D-04 BMatP= 1.06D-02
 IDIUse=3 WtCom= 9.97D-01 WtEn= 3.48D-03
 Coeff-Com: -0.591D-02 0.370D-02 0.600D-01 0.203D+00 0.739D+00
 Coeff-En:   0.000D+00 0.000D+00 0.000D+00 0.000D+00 0.100D+01
 Coeff:     -0.589D-02 0.369D-02 0.598D-01 0.202D+00 0.740D+00
 Gap=     0.378 Goal=   None    Shift=    0.000
 Gap=     0.335 Goal=   None    Shift=    0.000
 RMSDP=3.35D-05 MaxDP=2.62D-03 DE=-1.75D-03 OVMax= 4.57D-03

 Cycle   6  Pass 0  IDiag  1:
 E= -1099.99581736365     Delta-E=       -0.000148167744 Rises=F Damp=F
 DIIS: error= 2.32D-04 at cycle   6 NSaved=   6.
 NSaved= 6 IEnMin= 6 EnMin= -1099.99581736365     IErMin= 6 ErrMin= 2.32D-04
 ErrMax= 2.32D-04  0.00D+00 EMaxC= 1.00D-01 BMatC= 6.89D-05 BMatP= 5.68D-04
 IDIUse=3 WtCom= 9.98D-01 WtEn= 2.32D-03
 Coeff-Com:  0.303D-02-0.813D-02-0.520D-01-0.482D-01 0.131D+00 0.974D+00
 Coeff-En:   0.000D+00 0.000D+00 0.000D+00 0.000D+00 0.000D+00 0.100D+01
 Coeff:      0.303D-02-0.811D-02-0.519D-01-0.481D-01 0.131D+00 0.974D+00
 Gap=     0.379 Goal=   None    Shift=    0.000
 Gap=     0.337 Goal=   None    Shift=    0.000
 RMSDP=2.30D-05 MaxDP=2.68D-03 DE=-1.48D-04 OVMax= 3.57D-03

 Cycle   7  Pass 0  IDiag  1:
 E= -1099.99585528132     Delta-E=       -0.000037917663 Rises=F Damp=F
 DIIS: error= 7.51D-05 at cycle   7 NSaved=   7.
 NSaved= 7 IEnMin= 7 EnMin= -1099.99585528132     IErMin= 7 ErrMin= 7.51D-05
 ErrMax= 7.51D-05  0.00D+00 EMaxC= 1.00D-01 BMatC= 1.34D-05 BMatP= 6.89D-05
 IDIUse=1 WtCom= 1.00D+00 WtEn= 0.00D+00
 Coeff-Com:  0.182D-02-0.248D-02-0.261D-01-0.544D-01-0.117D+00 0.271D+00
 Coeff-Com:  0.927D+00
 Coeff:      0.182D-02-0.248D-02-0.261D-01-0.544D-01-0.117D+00 0.271D+00
 Coeff:      0.927D+00
 Gap=     0.379 Goal=   None    Shift=    0.000
 Gap=     0.337 Goal=   None    Shift=    0.000
 RMSDP=1.11D-05 MaxDP=1.49D-03 DE=-3.79D-05 OVMax= 1.95D-03

 Cycle   8  Pass 0  IDiag  1:
 E= -1099.99586280733     Delta-E=       -0.000007526018 Rises=F Damp=F
 DIIS: error= 2.69D-05 at cycle   8 NSaved=   8.
 NSaved= 8 IEnMin= 8 EnMin= -1099.99586280733     IErMin= 8 ErrMin= 2.69D-05
 ErrMax= 2.69D-05  0.00D+00 EMaxC= 1.00D-01 BMatC= 2.39D-06 BMatP= 1.34D-05
 IDIUse=1 WtCom= 1.00D+00 WtEn= 0.00D+00
 Coeff-Com:  0.316D-03 0.144D-03-0.227D-02-0.138D-01-0.635D-01-0.206D-01
 Coeff-Com:  0.323D+00 0.777D+00
 Coeff:      0.316D-03 0.144D-03-0.227D-02-0.138D-01-0.635D-01-0.206D-01
 Coeff:      0.323D+00 0.777D+00
 Gap=     0.379 Goal=   None    Shift=    0.000
 Gap=     0.337 Goal=   None    Shift=    0.000
 RMSDP=3.04D-06 MaxDP=3.36D-04 DE=-7.53D-06 OVMax= 4.51D-04

 Initial convergence to 1.0D-05 achieved.  Increase integral accuracy.
 Cycle   9  Pass 1  IDiag  1:
 E= -1099.99583941693     Delta-E=        0.000023390402 Rises=F Damp=F
 DIIS: error= 2.15D-05 at cycle   1 NSaved=   1.
 NSaved= 1 IEnMin= 1 EnMin= -1099.99583941693     IErMin= 1 ErrMin= 2.15D-05
 ErrMax= 2.15D-05  0.00D+00 EMaxC= 1.00D-01 BMatC= 2.47D-06 BMatP= 2.47D-06
 IDIUse=1 WtCom= 1.00D+00 WtEn= 0.00D+00
 Coeff-Com:  0.100D+01
 Coeff:      0.100D+01
 Gap=     0.379 Goal=   None    Shift=    0.000
 Gap=     0.337 Goal=   None    Shift=    0.000
 RMSDP=3.04D-06 MaxDP=3.36D-04 DE= 2.34D-05 OVMax= 3.97D-04

 Cycle  10  Pass 1  IDiag  1:
 E= -1099.99583996616     Delta-E=       -0.000000549231 Rises=F Damp=F
 DIIS: error= 1.26D-05 at cycle   2 NSaved=   2.
 NSaved= 2 IEnMin= 2 EnMin= -1099.99583996616     IErMin= 2 ErrMin= 1.26D-05
 ErrMax= 1.26D-05  0.00D+00 EMaxC= 1.00D-01 BMatC= 5.96D-07 BMatP= 2.47D-06
 IDIUse=1 WtCom= 1.00D+00 WtEn= 0.00D+00
 Coeff-Com:  0.229D+00 0.771D+00
 Coeff:      0.229D+00 0.771D+00
 Gap=     0.379 Goal=   None    Shift=    0.000
 Gap=     0.337 Goal=   None    Shift=    0.000
 RMSDP=1.28D-06 MaxDP=5.09D-05 DE=-5.49D-07 OVMax= 8.78D-05

 Cycle  11  Pass 1  IDiag  1:
 E= -1099.99584002703     Delta-E=       -0.000000060872 Rises=F Damp=F
 DIIS: error= 8.67D-06 at cycle   3 NSaved=   3.
 NSaved= 3 IEnMin= 3 EnMin= -1099.99584002703     IErMin= 3 ErrMin= 8.67D-06
 ErrMax= 8.67D-06  0.00D+00 EMaxC= 1.00D-01 BMatC= 3.27D-07 BMatP= 5.96D-07
 IDIUse=1 WtCom= 1.00D+00 WtEn= 0.00D+00
 Coeff-Com: -0.532D-01 0.425D+00 0.628D+00
 Coeff:     -0.532D-01 0.425D+00 0.628D+00
 Gap=     0.379 Goal=   None    Shift=    0.000
 Gap=     0.337 Goal=   None    Shift=    0.000
 RMSDP=6.63D-07 MaxDP=4.38D-05 DE=-6.09D-08 OVMax= 6.03D-05

 Cycle  12  Pass 1  IDiag  1:
 E= -1099.99584008002     Delta-E=       -0.000000052982 Rises=F Damp=F
 DIIS: error= 1.62D-06 at cycle   4 NSaved=   4.
 NSaved= 4 IEnMin= 4 EnMin= -1099.99584008002     IErMin= 4 ErrMin= 1.62D-06
 ErrMax= 1.62D-06  0.00D+00 EMaxC= 1.00D-01 BMatC= 8.22D-09 BMatP= 3.27D-07
 IDIUse=1 WtCom= 1.00D+00 WtEn= 0.00D+00
 Coeff-Com: -0.232D-01 0.951D-01 0.180D+00 0.748D+00
 Coeff:     -0.232D-01 0.951D-01 0.180D+00 0.748D+00
 Gap=     0.379 Goal=   None    Shift=    0.000
 Gap=     0.337 Goal=   None    Shift=    0.000
 RMSDP=1.81D-07 MaxDP=1.95D-05 DE=-5.30D-08 OVMax= 1.92D-05

 Cycle  13  Pass 1  IDiag  1:
 E= -1099.99584008235     Delta-E=       -0.000000002331 Rises=F Damp=F
 DIIS: error= 8.96D-07 at cycle   5 NSaved=   5.
 NSaved= 5 IEnMin= 5 EnMin= -1099.99584008235     IErMin= 5 ErrMin= 8.96D-07
 ErrMax= 8.96D-07  0.00D+00 EMaxC= 1.00D-01 BMatC= 3.45D-09 BMatP= 8.22D-09
 IDIUse=1 WtCom= 1.00D+00 WtEn= 0.00D+00
 Coeff-Com:  0.570D-02-0.895D-01-0.111D+00 0.370D+00 0.824D+00
 Coeff:      0.570D-02-0.895D-01-0.111D+00 0.370D+00 0.824D+00
 Gap=     0.379 Goal=   None    Shift=    0.000
 Gap=     0.337 Goal=   None    Shift=    0.000
 RMSDP=1.30D-07 MaxDP=1.20D-05 DE=-2.33D-09 OVMax= 1.65D-05

 Cycle  14  Pass 1  IDiag  1:
 E= -1099.99584008345     Delta-E=       -0.000000001106 Rises=F Damp=F
 DIIS: error= 4.07D-07 at cycle   6 NSaved=   6.
 NSaved= 6 IEnMin= 6 EnMin= -1099.99584008345     IErMin= 6 ErrMin= 4.07D-07
 ErrMax= 4.07D-07  0.00D+00 EMaxC= 1.00D-01 BMatC= 4.61D-10 BMatP= 3.45D-09
 IDIUse=1 WtCom= 1.00D+00 WtEn= 0.00D+00
 Coeff-Com:  0.511D-02-0.524D-01-0.687D-01 0.554D-01 0.353D+00 0.708D+00
 Coeff:      0.511D-02-0.524D-01-0.687D-01 0.554D-01 0.353D+00 0.708D+00
 Gap=     0.379 Goal=   None    Shift=    0.000
 Gap=     0.337 Goal=   None    Shift=    0.000
 RMSDP=3.77D-08 MaxDP=2.14D-06 DE=-1.11D-09 OVMax= 5.13D-06

 Cycle  15  Pass 1  IDiag  1:
 E= -1099.99584008362     Delta-E=       -0.000000000163 Rises=F Damp=F
 DIIS: error= 1.45D-07 at cycle   7 NSaved=   7.
 NSaved= 7 IEnMin= 7 EnMin= -1099.99584008362     IErMin= 7 ErrMin= 1.45D-07
 ErrMax= 1.45D-07  0.00D+00 EMaxC= 1.00D-01 BMatC= 5.16D-11 BMatP= 4.61D-10
 IDIUse=1 WtCom= 1.00D+00 WtEn= 0.00D+00
 Coeff-Com: -0.441D-04 0.773D-02 0.110D-01-0.731D-01-0.102D+00 0.123D+00
 Coeff-Com:  0.103D+01
 Coeff:     -0.441D-04 0.773D-02 0.110D-01-0.731D-01-0.102D+00 0.123D+00
 Coeff:      0.103D+01
 Gap=     0.379 Goal=   None    Shift=    0.000
 Gap=     0.337 Goal=   None    Shift=    0.000
 RMSDP=2.20D-08 MaxDP=1.46D-06 DE=-1.63D-10 OVMax= 3.32D-06

 Cycle  16  Pass 1  IDiag  1:
 E= -1099.99584008364     Delta-E=       -0.000000000024 Rises=F Damp=F
 DIIS: error= 7.41D-08 at cycle   8 NSaved=   8.
 NSaved= 8 IEnMin= 8 EnMin= -1099.99584008364     IErMin= 8 ErrMin= 7.41D-08
 ErrMax= 7.41D-08  0.00D+00 EMaxC= 1.00D-01 BMatC= 1.95D-11 BMatP= 5.16D-11
 IDIUse=1 WtCom= 1.00D+00 WtEn= 0.00D+00
 Coeff-Com: -0.595D-03 0.103D-01 0.138D-01-0.467D-01-0.960D-01-0.152D-01
 Coeff-Com:  0.553D+00 0.581D+00
 Coeff:     -0.595D-03 0.103D-01 0.138D-01-0.467D-01-0.960D-01-0.152D-01
 Coeff:      0.553D+00 0.581D+00
 Gap=     0.379 Goal=   None    Shift=    0.000
 Gap=     0.337 Goal=   None    Shift=    0.000
 RMSDP=6.40D-09 MaxDP=5.38D-07 DE=-2.36D-11 OVMax= 8.04D-07

 SCF Done:  E(UM062X) =  -1099.99584008     A.U. after   16 cycles
            NFock= 16  Conv=0.64D-08     -V/T= 2.0028
 <Sx>= 0.0000 <Sy>= 0.0000 <Sz>= 0.5000 <S**2>= 0.7534 S= 0.5017
 <L.S>=  0.00000000000    
 KE= 1.096959955289D+03 PE=-4.159939420965D+03 EE= 1.186984089146D+03
 Annihilation of the first spin contaminant:
 S**2 before annihilation     0.7534,   after     0.7500
 Leave Link  502 at Sat May 24 00:54:28 2025, MaxMem=  3758096384 cpu:             216.8 elap:              62.0
 (Enter /apps/easybuild-2022/easybuild/software/Compiler/NVHPC/22.11-CUDA-11.7.0/Gaussian/g16c01-CUDA-11.7.0/g16/l508.exe)
 QCSCF skips out because SCF is already converged.
 Leave Link  508 at Sat May 24 00:54:28 2025, MaxMem=  3758096384 cpu:               0.0 elap:               0.0
 (Enter /apps/easybuild-2022/easybuild/software/Compiler/NVHPC/22.11-CUDA-11.7.0/Gaussian/g16c01-CUDA-11.7.0/g16/l801.exe)
 DoSCS=F DFT=T ScalE2(SS,OS)=  1.000000  1.000000
 Range of M.O.s used for correlation:     1   335
 NBasis=   335 NAE=    45 NBE=    44 NFC=     0 NFV=     0
 NROrb=    335 NOA=    45 NOB=    44 NVA=   290 NVB=   291

 **** Warning!!: The largest alpha MO coefficient is  0.16521179D+02


 **** Warning!!: The largest beta MO coefficient is  0.16393156D+02

 Leave Link  801 at Sat May 24 00:54:28 2025, MaxMem=  3758096384 cpu:               0.1 elap:               0.0
 (Enter /apps/easybuild-2022/easybuild/software/Compiler/NVHPC/22.11-CUDA-11.7.0/Gaussian/g16c01-CUDA-11.7.0/g16/l1101.exe)
 Using compressed storage, NAtomX=    11.
 Will process     12 centers per pass.
   1 Symmetry operations used in ECPInt.
 ECPInt:  NShTT=    7140 NPrTT=   23456 LenC2=    6793 LenP2D=   16727.
 LDataN:  DoStor=T MaxTD1= 7 Len=  274
 Leave Link 1101 at Sat May 24 00:54:28 2025, MaxMem=  3758096384 cpu:               1.2 elap:               0.2
 (Enter /apps/easybuild-2022/easybuild/software/Compiler/NVHPC/22.11-CUDA-11.7.0/Gaussian/g16c01-CUDA-11.7.0/g16/l1102.exe)
 Symmetrizing basis deriv contribution to polar:
 IMax=3 JMax=2 DiffMx= 0.00D+00
 Leave Link 1102 at Sat May 24 00:54:28 2025, MaxMem=  3758096384 cpu:               0.1 elap:               0.0
 (Enter /apps/easybuild-2022/easybuild/software/Compiler/NVHPC/22.11-CUDA-11.7.0/Gaussian/g16c01-CUDA-11.7.0/g16/l1110.exe)
 Forming Gx(P) for the SCF density, NAtomX=    11.
 Integral derivatives from FoFJK, PRISM(SPDF).
 Do as many integral derivatives as possible in FoFJK.
 G2DrvN: MDV=    3758095115.
 G2DrvN: will do    12 centers at a time, making    1 passes.
 Calling FoFCou, ICntrl=  3107 FMM=F I1Cent=   0 AccDes= 0.00D+00.
 FoFJK:  IHMeth= 1 ICntrl=    3107 DoSepK=F KAlg= 0 I1Cent=           0 FoldK=F
 IRaf=         0 NMat=       1 IRICut=       1 DoRegI=T DoRafI=F ISym2E= 0 IDoP0=0 IntGTp=1.
 FoFCou: FMM=F IPFlag=           0 FMFlag=      100000 FMFlg1=           0
         NFxFlg=           0 DoJE=F BraDBF=F KetDBF=F FulRan=T
         wScrn=  0.000000 ICntrl=      3107 IOpCl=  1 I1Cent=           0 NGrid=           0
         NMat0=    1 NMatS0=      1 NMatT0=    0 NMatD0=    1 NMtDS0=    0 NMtDT0=    0
 Symmetry not used in FoFCou.
 End of G2Drv F.D. properties file   721 does not exist.
 End of G2Drv F.D. properties file   722 does not exist.
 End of G2Drv F.D. properties file   788 does not exist.
 Leave Link 1110 at Sat May 24 00:55:44 2025, MaxMem=  3758096384 cpu:             577.8 elap:              76.4
 (Enter /apps/easybuild-2022/easybuild/software/Compiler/NVHPC/22.11-CUDA-11.7.0/Gaussian/g16c01-CUDA-11.7.0/g16/l1002.exe)
 Minotr:  UHF open shell wavefunction.
          IDoAtm=11111111111
          Direct CPHF calculation.
          Differentiating once with respect to nuclear coordinates.
          Requested convergence is 1.0D-08 RMS, and 1.0D-07 maximum.
          Secondary convergence is 1.0D-12 RMS, and 1.0D-12 maximum.
          NewPWx=T KeepS1=F KeepF1=F KeepIn=T MapXYZ=F SortEE=F KeepMc=T.
         3286 words used for storage of precomputed grid.
 Keep R1 and R2 ints in memory in canonical form, NReq=3196706843.
 FoFCou: FMM=F IPFlag=           0 FMFlag=           0 FMFlg1=           0
         NFxFlg=           0 DoJE=F BraDBF=F KetDBF=F FulRan=T
         wScrn=  0.000000 ICntrl=       600 IOpCl=  0 I1Cent=           0 NGrid=           0
         NMat0=    1 NMatS0=  56280 NMatT0=    0 NMatD0=    1 NMtDS0=    0 NMtDT0=    0
 Symmetry not used in FoFCou.
 Two-electron integral symmetry not used.
          MDV=    3758096384 using IRadAn=       1.
          Solving linear equations simultaneously, MaxMat=       0.
          There are    36 degrees of freedom in the 1st order CPHF.  IDoFFX=6 NUNeed=     0.
     30 vectors produced by pass  0 Test12= 7.18D-14 2.78D-09 XBig12= 4.66D-01 1.48D-01.
 AX will form    30 AO Fock derivatives at one time.
     30 vectors produced by pass  1 Test12= 7.18D-14 2.78D-09 XBig12= 1.42D-01 4.85D-02.
     30 vectors produced by pass  2 Test12= 7.18D-14 2.78D-09 XBig12= 4.65D-03 9.70D-03.
     30 vectors produced by pass  3 Test12= 7.18D-14 2.78D-09 XBig12= 1.46D-04 2.91D-03.
     30 vectors produced by pass  4 Test12= 7.18D-14 2.78D-09 XBig12= 3.15D-06 2.55D-04.
     30 vectors produced by pass  5 Test12= 7.18D-14 2.78D-09 XBig12= 7.60D-08 4.04D-05.
     30 vectors produced by pass  6 Test12= 7.18D-14 2.78D-09 XBig12= 1.42D-09 3.78D-06.
     29 vectors produced by pass  7 Test12= 7.18D-14 2.78D-09 XBig12= 2.09D-11 3.87D-07.
     12 vectors produced by pass  8 Test12= 7.18D-14 2.78D-09 XBig12= 2.44D-13 3.84D-08.
      4 vectors produced by pass  9 Test12= 7.18D-14 2.78D-09 XBig12= 2.57D-15 4.04D-09.
 InvSVY:  IOpt=1 It=  1 EMax= 1.67D-15
 Solved reduced A of dimension   255 with    30 vectors.
 End of Minotr F.D. properties file   721 does not exist.
 End of Minotr F.D. properties file   722 does not exist.
 End of Minotr F.D. properties file   788 does not exist.
 Leave Link 1002 at Sat May 24 00:58:00 2025, MaxMem=  3758096384 cpu:            1062.1 elap:             135.4
 (Enter /apps/easybuild-2022/easybuild/software/Compiler/NVHPC/22.11-CUDA-11.7.0/Gaussian/g16c01-CUDA-11.7.0/g16/l701.exe)
 ... and contract with generalized density number  0.
 Compute integral second derivatives.
   1 Symmetry operations used in ECPInt.
 ECPInt:  NShTT=    7140 NPrTT=   23456 LenC2=    6793 LenP2D=   16727.
 LDataN:  DoStor=T MaxTD1= 8 Len=  415
 Leave Link  701 at Sat May 24 00:58:00 2025, MaxMem=  3758096384 cpu:               1.3 elap:               0.2
 (Enter /apps/easybuild-2022/easybuild/software/Compiler/NVHPC/22.11-CUDA-11.7.0/Gaussian/g16c01-CUDA-11.7.0/g16/l702.exe)
 L702 exits ... SP integral derivatives will be done elsewhere.
 Leave Link  702 at Sat May 24 00:58:00 2025, MaxMem=  3758096384 cpu:               0.1 elap:               0.0
 (Enter /apps/easybuild-2022/easybuild/software/Compiler/NVHPC/22.11-CUDA-11.7.0/Gaussian/g16c01-CUDA-11.7.0/g16/l703.exe)
 Integral derivatives from FoFJK, PRISM(SPDF).
 Compute integral second derivatives, UseDBF=F ICtDFT=           0.
 Calling FoFJK, ICntrl=    100127 FMM=F ISym2X=0 I1Cent= 0 IOpClX= 1 NMat=1 NMatS=1 NMatT=0.
 FoFJK:  IHMeth= 1 ICntrl=  100127 DoSepK=F KAlg= 0 I1Cent=           0 FoldK=F
 IRaf=         0 NMat=       1 IRICut=       1 DoRegI=T DoRafI=F ISym2E= 0 IDoP0=0 IntGTp=1.
 FoFCou: FMM=F IPFlag=           0 FMFlag=      100000 FMFlg1=         800
         NFxFlg=           0 DoJE=F BraDBF=F KetDBF=F FulRan=T
         wScrn=  0.000000 ICntrl=    100127 IOpCl=  1 I1Cent=           0 NGrid=           0
         NMat0=    1 NMatS0=      1 NMatT0=    0 NMatD0=    1 NMtDS0=    0 NMtDT0=    0
 Symmetry not used in FoFCou.
 Leave Link  703 at Sat May 24 01:00:03 2025, MaxMem=  3758096384 cpu:             966.6 elap:             123.1
 (Enter /apps/easybuild-2022/easybuild/software/Compiler/NVHPC/22.11-CUDA-11.7.0/Gaussian/g16c01-CUDA-11.7.0/g16/l716.exe)
 Dipole        =-7.67059479D-01 1.10684417D+00 1.69341084D-01
 Polarizability= 0.00000000D+00 0.00000000D+00 0.00000000D+00
                 0.00000000D+00 0.00000000D+00 0.00000000D+00
 -------------------------------------------------------------------
 Center     Atomic                   Forces (Hartrees/Bohr)
 Number     Number              X              Y              Z
 -------------------------------------------------------------------
      1        6          -0.002123288   -0.003093066   -0.004688499
      2        6          -0.001070871   -0.003479318    0.002110264
      3        9          -0.001497401    0.002797912    0.000506745
      4        9           0.002887495    0.002299445   -0.000415062
      5       16           0.001478784   -0.007419303   -0.007930184
      6        8          -0.000488467   -0.009198438    0.004376101
      7        8           0.003070682    0.006230598    0.010093526
      8        8          -0.004238872    0.005750035   -0.010848240
      9        9          -0.002561618    0.002376195    0.002265817
     10        9          -0.000010756    0.000726652    0.000002080
     11        1           0.004554312    0.003009288    0.004527451
 -------------------------------------------------------------------
 Cartesian Forces:  Max     0.010848240 RMS     0.004569391
 Force constants in Cartesian coordinates: 
                1             2             3             4             5 
      1  0.578186D+00
      2 -0.925250D-01  0.240932D+00
      3  0.774085D-02  0.768769D-02  0.612420D+00
      4 -0.888993D-01  0.822723D-02 -0.291701D-01  0.470370D+00
      5  0.595860D-01 -0.904166D-01  0.832039D-01  0.651215D-02  0.505441D+00
      6 -0.673625D-01  0.337243D-01 -0.131099D+00 -0.170029D-01 -0.125045D-01
      7  0.163433D-02 -0.696168D-03 -0.275490D-02 -0.100074D+00  0.264778D-01
      8 -0.538879D-02  0.756119D-02  0.809262D-02  0.237241D-01 -0.815794D-01
      9  0.255906D-01 -0.126038D-01 -0.470935D-01  0.754602D-01 -0.534490D-01
     10  0.528197D-02  0.575941D-02 -0.171875D-02 -0.103303D+00 -0.840227D-01
     11 -0.195473D-01 -0.629671D-01 -0.286739D-03 -0.821251D-01 -0.275478D+00
     12  0.110843D-01  0.306351D-01  0.389541D-02 -0.363953D-02 -0.116932D-02
     13 -0.145545D-01  0.948197D-02 -0.243737D-01 -0.176366D+00 -0.320372D-03
     14  0.192510D-01  0.811852D-02  0.224172D-02  0.520557D-02 -0.375515D-01
     15 -0.312785D-01  0.250834D-02  0.204348D-01 -0.173706D-01  0.134379D-01
     16 -0.476151D-02 -0.312167D-02  0.922665D-02  0.696989D-02  0.177829D-01
     17 -0.679600D-03 -0.255648D-03 -0.186881D-02 -0.376179D-02  0.302471D-03
     18  0.129160D-02 -0.211192D-02  0.124593D-02  0.142205D-01  0.826230D-02
     19  0.238496D-02 -0.200402D-02  0.213812D-02  0.152920D-01  0.122746D-01
     20 -0.228868D-02 -0.501045D-03 -0.101154D-02 -0.704043D-02 -0.899789D-03
     21  0.653738D-02 -0.780950D-03 -0.110454D-01 -0.124386D-01 -0.114746D-01
     22  0.151698D-03  0.152575D-02  0.391008D-02  0.906509D-02 -0.241796D-01
     23 -0.252515D-02 -0.340273D-02  0.204973D-02  0.175917D-01 -0.172459D-01
     24  0.249509D-02  0.424691D-03 -0.192087D-02  0.166174D-02 -0.247032D-02
     25 -0.803354D-01  0.288822D-01  0.680292D-01  0.661697D-02 -0.653176D-02
     26  0.230629D-01 -0.603319D-01 -0.957313D-01 -0.299337D-03  0.283550D-02
     27  0.566188D-01 -0.643113D-01 -0.376579D+00  0.177548D-01 -0.241545D-01
     28 -0.397587D+00  0.459368D-01 -0.308620D-01 -0.408888D-01 -0.105458D-02
     29  0.225499D-01 -0.388727D-01 -0.282252D-02  0.369852D-01 -0.449923D-02
     30 -0.102205D-01  0.582426D-02 -0.689783D-01 -0.274330D-01 -0.106540D-02
     31 -0.150200D-02 -0.146640D-02 -0.216541D-02  0.121644D-02 -0.652448D-02
     32 -0.149523D-02  0.136078D-03 -0.155478D-02 -0.501927D-02 -0.908889D-03
     33 -0.249717D-02 -0.996301D-03 -0.128068D-02 -0.204263D-02  0.138344D-02
                6             7             8             9            10 
      6  0.550967D+00
      7  0.815011D-01  0.971730D-01
      8 -0.556900D-01 -0.350533D-01  0.113250D+00
      9 -0.270678D+00 -0.101990D+00  0.106845D+00  0.357507D+00
     10 -0.236411D-02  0.144392D-01  0.780437D-02 -0.219834D-02  0.922589D-01
     11 -0.500929D-03 -0.229680D-02 -0.425261D-01 -0.388170D-01  0.107390D+00
     12 -0.669438D-01 -0.958548D-02 -0.556542D-01 -0.149667D-01  0.585736D-02
     13  0.580095D-02 -0.527233D-02  0.140194D-02 -0.143890D-02  0.109796D-02
     14  0.114037D-01  0.148487D-01 -0.563403D-02 -0.129388D-01 -0.383163D-01
     15 -0.415447D-01  0.383157D-01 -0.978011D-02 -0.273319D-01 -0.119042D-02
     16 -0.283140D-01  0.969590D-04  0.202746D-03  0.958349D-03 -0.218923D-02
     17  0.603572D-02 -0.924444D-03  0.117619D-02  0.730663D-03  0.481155D-02
     18 -0.158273D-01 -0.339579D-02  0.144497D-02  0.101869D-01 -0.298341D-02
     19  0.206614D-01 -0.124718D-01  0.355321D-02  0.828665D-02 -0.216942D-02
     20 -0.842575D-02  0.295525D-02  0.429685D-03 -0.450787D-03  0.364231D-02
     21 -0.676921D-02  0.512344D-02 -0.163070D-02 -0.611721D-03  0.236137D-02
     22 -0.280254D-02 -0.310733D-03  0.150627D-02  0.165606D-02 -0.105127D-01
     23 -0.464853D-02 -0.530695D-02  0.560000D-02  0.620509D-02 -0.767963D-02
     24  0.244728D-02 -0.261401D-02  0.163452D-02  0.364994D-02 -0.384332D-03
     25  0.973452D-03  0.109060D-02  0.138658D-02 -0.443050D-02  0.173074D-03
     26  0.231404D-01  0.106953D-02  0.524242D-03  0.440671D-02  0.280648D-03
     27 -0.285180D-01 -0.362315D-02  0.545692D-02 -0.108870D-01 -0.225724D-03
     28  0.117758D-01  0.541743D-02 -0.110983D-02 -0.417744D-02  0.547915D-02
     29  0.937957D-02 -0.149074D-02  0.367966D-03 -0.980419D-03 -0.194438D-02
     30  0.256276D-02 -0.134246D-02  0.500918D-03  0.306378D-02  0.163968D-02
     31 -0.286666D-02 -0.172282D-02  0.197265D-02  0.228308D-02 -0.556352D-03
     32 -0.191397D-02  0.417056D-03  0.830179D-03  0.105232D-02  0.227503D-02
     33  0.540313D-02  0.365229D-03 -0.122005D-02 -0.283846D-02  0.120668D-02
               11            12            13            14            15 
     11  0.378919D+00
     12  0.352821D-01  0.716963D-01
     13  0.109933D-03  0.517756D-03  0.601539D+00
     14 -0.275818D-01 -0.233771D-02 -0.127956D+00  0.702899D+00
     15 -0.486749D-02 -0.724403D-03  0.215211D-01  0.903475D-02  0.128639D+01
     16 -0.464868D-02  0.560066D-03 -0.165080D+00  0.805196D-01 -0.187863D+00
     17  0.613249D-02 -0.358214D-03  0.743552D-01 -0.161830D+00  0.198153D+00
     18 -0.449040D-02  0.172415D-02 -0.181471D+00  0.195130D+00 -0.590165D+00
     19 -0.250314D-02 -0.116001D-02 -0.157297D+00  0.701456D-01  0.159162D+00
     20  0.600934D-02  0.186795D-02  0.654565D-01 -0.167639D+00 -0.195767D+00
     21  0.503617D-02  0.277423D-02  0.152975D+00 -0.192211D+00 -0.557524D+00
     22 -0.643709D-02 -0.549018D-03 -0.996680D-01 -0.284833D-01  0.153995D-01
     23 -0.899043D-03 -0.133482D-02 -0.498832D-01 -0.271404D+00  0.107038D-01
     24  0.137516D-03  0.890519D-03  0.123394D-01 -0.808516D-02 -0.742458D-01
     25 -0.825901D-05 -0.405128D-03 -0.281941D-02  0.149485D-02  0.629017D-02
     26  0.903822D-02 -0.406066D-02  0.241529D-02 -0.317492D-02 -0.450213D-02
     27  0.815864D-02  0.126865D-02  0.862505D-02 -0.111198D-02 -0.937733D-02
     28  0.880592D-02 -0.270654D-02  0.112211D-01  0.119842D-02 -0.441525D-03
     29  0.793777D-02 -0.333140D-02 -0.375666D-02 -0.425988D-02  0.374284D-02
     30 -0.526911D-03  0.122403D-02  0.569872D-02  0.288359D-02 -0.595400D-02
     31  0.126080D-02  0.261917D-04  0.719918D-02  0.209214D-02 -0.254495D-02
     32  0.141509D-02  0.461130D-03  0.286957D-01 -0.319430D-01 -0.226636D-01
     33  0.874971D-03 -0.838401D-03 -0.194485D-03 -0.400898D-02  0.399618D-04
               16            17            18            19            20 
     16  0.126135D+00
     17 -0.858908D-01  0.166465D+00
     18  0.198199D+00 -0.227418D+00  0.612010D+00
     19  0.242542D-01 -0.558880D-03 -0.157604D-01  0.122714D+00
     20  0.504079D-03  0.165391D-01  0.165225D-01 -0.805047D-01  0.168377D+00
     21  0.146717D-01 -0.182914D-01 -0.182078D-01 -0.166234D+00  0.220717D+00
     22  0.185866D-01  0.150119D-01 -0.639986D-02  0.154849D-01  0.209068D-01
     23 -0.369665D-02 -0.310174D-01  0.991288D-02 -0.116890D-02 -0.192731D-01
     24 -0.248095D-02  0.392313D-01  0.313943D-02 -0.191694D-02 -0.331886D-01
     25  0.100409D-02 -0.188097D-03 -0.122291D-02 -0.546615D-02  0.234675D-02
     26 -0.787240D-03  0.441436D-03  0.669868D-03  0.273485D-02  0.653133D-04
     27 -0.316360D-02  0.708951D-03  0.466872D-03 -0.421759D-02  0.191474D-02
     28 -0.441004D-02  0.116964D-02 -0.340974D-02 -0.262998D-02  0.750837D-03
     29  0.221526D-02  0.141891D-03  0.660277D-03  0.499486D-03  0.209845D-03
     30 -0.316274D-02  0.336394D-03 -0.739952D-03 -0.988650D-03  0.814455D-04
     31 -0.605819D-03 -0.334467D-02  0.931905D-03 -0.959814D-04 -0.672862D-02
     32 -0.307956D-02  0.190498D-02  0.141684D-02 -0.246806D-02 -0.331741D-02
     33  0.136860D-02  0.274042D-02 -0.383338D-02  0.294947D-04 -0.226048D-02
               21            22            23            24            25 
     21  0.582089D+00
     22  0.585839D-02  0.343317D+00
     23 -0.517111D-02 -0.118980D+00  0.463022D+00
     24  0.785291D-03 -0.202755D+00  0.106640D+00  0.194494D+00
     25 -0.622954D-02  0.777743D-03 -0.608149D-03 -0.483551D-03  0.115808D+00
     26  0.406201D-02 -0.157569D-02  0.115508D-02  0.305985D-03 -0.455498D-01
     27  0.522948D-02 -0.311880D-02 -0.287338D-03  0.106446D-02 -0.119708D+00
     28  0.101164D-02 -0.337777D-02 -0.154001D-02 -0.153511D-02 -0.364604D-01
     29 -0.778071D-03 -0.933488D-03  0.198942D-02 -0.849774D-03  0.186163D-01
     30  0.268378D-02 -0.683783D-03 -0.150628D-02  0.486361D-03  0.572649D-01
     31 -0.363627D-02 -0.273513D+00  0.173797D+00  0.195674D+00 -0.389463D-03
     32  0.522611D-03  0.141638D+00 -0.128524D+00 -0.103780D+00  0.159457D-03
     33  0.596447D-03  0.189485D+00 -0.122564D+00 -0.130791D+00 -0.776789D-04
               26            27            28            29            30 
     26  0.448722D-01
     27  0.786736D-01  0.424426D+00
     28  0.176724D-01  0.491736D-01  0.462941D+00
     29  0.445807D-02 -0.585901D-02 -0.731815D-01  0.326449D-01
     30 -0.740649D-02 -0.740758D-02 -0.206818D-01  0.431994D-03  0.730921D-01
     31  0.976464D-03  0.188497D-02  0.295334D-03  0.440690D-03 -0.903598D-04
     32  0.116790D-03  0.811290D-03  0.135195D-02 -0.118026D-03  0.446480D-03
     33  0.442041D-03  0.313390D-03  0.185314D-02  0.406511D-03 -0.329550D-04
               31            32            33 
     31  0.269675D+00
     32 -0.162475D+00  0.160408D+00
     33 -0.189497D+00  0.125202D+00  0.133262D+00
 FormGI is forming the generalized inverse of G from B-inverse, IUseBI=4.
 Leave Link  716 at Sat May 24 01:00:03 2025, MaxMem=  3758096384 cpu:               0.1 elap:               0.0
 (Enter /apps/easybuild-2022/easybuild/software/Compiler/NVHPC/22.11-CUDA-11.7.0/Gaussian/g16c01-CUDA-11.7.0/g16/l103.exe)

 GradGradGradGradGradGradGradGradGradGradGradGradGradGradGradGradGradGrad
 Berny optimization.
 Red2BG is reusing G-inverse.
 Internal  Forces:  Max     0.010426983 RMS     0.004202043
 Search for a local minimum.
 Step number   1 out of a maximum of   54
 All quantities printed in internal units (Hartrees-Bohrs-Radians)
 RMS Force = .42020D-02 SwitMx=.10000D-02 MixMth= 1
 Mixed Optimization -- RFO/linear search
 Second derivative matrix not updated -- analytic derivatives used.
 ITU=  0
     Eigenvalues ---   -0.00257  -0.00039   0.00332   0.05350   0.05937
     Eigenvalues ---    0.10093   0.10983   0.11549   0.12836   0.13598
     Eigenvalues ---    0.15272   0.16059   0.19818   0.20294   0.22010
     Eigenvalues ---    0.24122   0.26176   0.32003   0.37429   0.38688
     Eigenvalues ---    0.39247   0.43568   0.48994   0.52179   0.55096
     Eigenvalues ---    0.73641   0.78213
 Eigenvalue     1 is  -2.57D-03 should be greater than     0.000000 Eigenvector:
                          D17       D18       D16       D14       A16
   1                    0.58064   0.56838   0.56793   0.05581  -0.05187
                          D11       D8        D13       D15       D10
   1                    0.05010   0.04425   0.03320   0.03214   0.02749
 Eigenvalue     2 is  -3.89D-04 should be greater than     0.000000 Eigenvector:
                          D12       D3        D15       D11       D14
   1                    0.26758   0.26682   0.26670   0.26648   0.26559
                          D10       D13       D9        D8        D2
   1                    0.26382   0.26294   0.25681   0.25571   0.25415
 RFO step:  Lambda=-8.53525132D-03 EMin=-2.56900519D-03
 Linear search not attempted -- first point.
 Iteration  1 RMS(Cart)=  0.14491999 RMS(Int)=  0.09160086
 Iteration  2 RMS(Cart)=  0.04665968 RMS(Int)=  0.03917760
 Iteration  3 RMS(Cart)=  0.03542048 RMS(Int)=  0.00267948
 Iteration  4 RMS(Cart)=  0.00240595 RMS(Int)=  0.00012169
 Iteration  5 RMS(Cart)=  0.00000819 RMS(Int)=  0.00012157
 Iteration  6 RMS(Cart)=  0.00000000 RMS(Int)=  0.00012157
 ITry= 1 IFail=0 DXMaxC= 7.18D-01 DCOld= 1.00D+10 DXMaxT= 3.00D-01 DXLimC= 3.00D+00 Rises=F
 Variable       Old X    -DE/DX   Delta X   Delta X   Delta X     New X
                                 (Linear)    (Quad)   (Total)
    R1        2.85127   0.00346   0.00000   0.00084   0.00084   2.85211
    R2        2.47633  -0.00343   0.00000  -0.00635  -0.00635   2.46997
    R3        2.47973   0.00010   0.00000   0.00596   0.00596   2.48569
    R4        2.53352   0.00188   0.00000   0.01030   0.01030   2.54382
    R5        2.53314  -0.00306   0.00000  -0.00389  -0.00389   2.52925
    R6        3.47467   0.00437   0.00000  -0.00350  -0.00350   3.47117
    R7        2.66756   0.00696   0.00000   0.00909   0.00909   2.67665
    R8        2.68471  -0.01043   0.00000  -0.01723  -0.01723   2.66747
    R9        2.97013   0.00870   0.00000   0.00704   0.00704   2.97717
   R10        1.82951   0.00043   0.00000   0.00408   0.00408   1.83359
    A1        1.99988   0.00444   0.00000   0.00646   0.00646   2.00634
    A2        1.98400  -0.00028   0.00000  -0.00621  -0.00621   1.97779
    A3        1.95968  -0.00200   0.00000  -0.00331  -0.00330   1.95638
    A4        1.90023  -0.00424   0.00000  -0.01196  -0.01177   1.88846
    A5        1.95329  -0.00185   0.00000   0.00294   0.00302   1.95631
    A6        1.94185   0.00918   0.00000   0.03251   0.03258   1.97443
    A7        1.89100   0.00235   0.00000   0.00941   0.00923   1.90022
    A8        1.87824  -0.00089   0.00000  -0.01677  -0.01675   1.86150
    A9        1.89709  -0.00464   0.00000  -0.01734  -0.01752   1.87956
   A10        1.89053  -0.00477   0.00000  -0.03956  -0.03936   1.85116
   A11        1.85250   0.00618   0.00000   0.04720   0.04735   1.89986
   A12        1.73157   0.00317   0.00000  -0.00359  -0.00348   1.72809
   A13        2.15735  -0.00292   0.00000  -0.00163  -0.00122   2.15613
   A14        1.87429   0.00599   0.00000   0.05134   0.05153   1.92582
   A15        1.91045  -0.00639   0.00000  -0.05524  -0.05491   1.85554
   A16        1.92494   0.00693   0.00000  -0.00743  -0.00743   1.91750
    D1        3.06259   0.00069   0.00000   0.11153   0.11153  -3.10907
    D2       -1.13070  -0.00033   0.00000   0.11720   0.11711  -1.01359
    D3        0.99546  -0.00106   0.00000   0.12017   0.12026   1.11572
    D4       -0.93449   0.00181   0.00000   0.10685   0.10685  -0.82764
    D5        1.15541   0.00079   0.00000   0.11252   0.11243   1.26784
    D6       -3.00161   0.00006   0.00000   0.11549   0.11558  -2.88604
    D7        2.83813   0.00319   0.00000   0.18126   0.18130   3.01943
    D8       -1.09495   0.00058   0.00000   0.18559   0.18561  -0.90934
    D9        0.88550  -0.00326   0.00000   0.13860   0.13856   1.02406
   D10        0.75782   0.00358   0.00000   0.18741   0.18755   0.94537
   D11        3.10793   0.00097   0.00000   0.19175   0.19186  -2.98340
   D12       -1.19480  -0.00287   0.00000   0.14475   0.14480  -1.05000
   D13       -1.28655   0.00375   0.00000   0.19460   0.19453  -1.09203
   D14        1.06355   0.00114   0.00000   0.19894   0.19884   1.26239
   D15        3.04400  -0.00270   0.00000   0.15194   0.15178  -3.08740
   D16        0.57402   0.00064   0.00000   0.52575   0.52568   1.09970
   D17       -1.39139   0.00273   0.00000   0.55468   0.55459  -0.83680
   D18        2.50880   0.00689   0.00000   0.55928   0.55945   3.06824
         Item               Value     Threshold  Converged?
 Maximum Force            0.010427     0.000015     NO 
 RMS     Force            0.004202     0.000010     NO 
 Maximum Displacement     0.717975     0.000060     NO 
 RMS     Displacement     0.196227     0.000040     NO 
 Predicted change in Energy=-9.057398D-03
 Lowest energy point so far.  Saving SCF results.
 GradGradGradGradGradGradGradGradGradGradGradGradGradGradGradGradGradGrad

 Leave Link  103 at Sat May 24 01:00:03 2025, MaxMem=  3758096384 cpu:               0.1 elap:               0.0
 (Enter /apps/easybuild-2022/easybuild/software/Compiler/NVHPC/22.11-CUDA-11.7.0/Gaussian/g16c01-CUDA-11.7.0/g16/l202.exe)
                          Input orientation:                          
 ---------------------------------------------------------------------
 Center     Atomic      Atomic             Coordinates (Angstroms)
 Number     Number       Type             X           Y           Z
 ---------------------------------------------------------------------
      1          6           0       -0.595805    0.804790   -1.205202
      2          6           0       -0.010465    0.032843   -0.047888
      3          9           0       -0.412439    0.619500    1.095054
      4          9           0       -0.409030   -1.244846   -0.042195
      5         16           0        1.826256    0.044708   -0.028085
      6          8           0        2.209075   -0.570313    1.189066
      7          8           0        2.298745   -0.367775   -1.292653
      8          8           0        2.062214    1.600599    0.046571
      9          9           0       -0.317505    0.321654   -2.387368
     10          9           0       -1.878357    1.060799   -1.064795
     11          1           0        1.693596    1.950698    0.873023
 ---------------------------------------------------------------------
                    Distance matrix (angstroms):
                    1          2          3          4          5
     1  C    0.000000
     2  C    1.509271   0.000000
     3  F    2.314980   1.346130   0.000000
     4  F    2.363996   1.338423   2.183834   0.000000
     5  S    2.798161   1.836866   2.569743   2.580630   0.000000
     6  O    3.935833   2.611553   2.880422   2.970770   1.416424
     7  O    3.124257   2.653750   3.745181   3.108850   1.411567
     8  O    3.043898   2.600535   2.861080   3.769812   1.575451
     9  F    1.307053   2.377152   3.496425   2.821726   3.199785
    10  F    1.315368   2.362163   2.647378   2.919011   3.978864
    11  H    3.297497   2.725816   2.501353   3.933213   2.112438
                    6          7          8          9         10
     6  O    0.000000
     7  O    2.491584   0.000000
     8  O    2.457585   2.392481   0.000000
     9  F    4.468791   2.918644   3.636320   0.000000
    10  F    4.944443   4.420512   4.129724   2.175267   0.000000
    11  H    2.592508   3.229811   0.970295   4.162747   4.160037
                   11
    11  H    0.000000
 Symmetry turned off by external request.
 Stoichiometry    C2HF4O3S
 Rotational constants (GHZ):           1.8672390           0.9912955           0.8870385
 Leave Link  202 at Sat May 24 01:00:04 2025, MaxMem=  3758096384 cpu:               0.0 elap:               0.0
 (Enter /apps/easybuild-2022/easybuild/software/Compiler/NVHPC/22.11-CUDA-11.7.0/Gaussian/g16c01-CUDA-11.7.0/g16/l301.exe)
 Standard basis: def2TZVPP (5D, 7F)
 Ernie: Thresh=  0.10000D-02 Tol=  0.10000D-05 Strict=F.
   335 basis functions,   545 primitive gaussians,   387 cartesian basis functions
    45 alpha electrons       44 beta electrons
       nuclear repulsion energy       773.6370184471 Hartrees.
 IExCor= 4336 DFT=T Ex+Corr=M062X ExCW=0 ScaHFX=  0.540000
 ScaDFX=  1.000000  1.000000  1.000000  1.000000 ScalE2=  1.000000  1.000000
 IRadAn=      5 IRanWt=     -1 IRanGd=            0 ICorTp=0 IEmpDi=  4
 NAtoms=   11 NActive=   11 NUniq=   11 SFac= 1.00D+00 NAtFMM=   60 NAOKFM=F Big=F
 Integral buffers will be    131072 words long.
 Raffenetti 2 integral format.
 Two-electron integral symmetry is turned off.
 Leave Link  301 at Sat May 24 01:00:04 2025, MaxMem=  3758096384 cpu:               0.1 elap:               0.0
 (Enter /apps/easybuild-2022/easybuild/software/Compiler/NVHPC/22.11-CUDA-11.7.0/Gaussian/g16c01-CUDA-11.7.0/g16/l302.exe)
 NPDir=0 NMtPBC=     1 NCelOv=     1 NCel=       1 NClECP=     1 NCelD=      1
         NCelK=      1 NCelE2=     1 NClLst=     1 CellRange=     0.0.
 One-electron integrals computed using PRISM.
   1 Symmetry operations used in ECPInt.
 ECPInt:  NShTT=    7140 NPrTT=   23456 LenC2=    6773 LenP2D=   16645.
 LDataN:  DoStor=T MaxTD1= 6 Len=  172
 NBasis=   335 RedAO= T EigKep=  5.14D-04  NBF=   335
 NBsUse=   335 1.00D-06 EigRej= -1.00D+00 NBFU=   335
 Precomputing XC quadrature grid using
 IXCGrd= 4 IRadAn=           5 IRanWt=          -1 IRanGd=           0 AccXCQ= 0.00D+00.
 Generated NRdTot=       0 NPtTot=           0 NUsed=           0 NTot=          32
 NSgBfM=   383   383   383   383   383 MxSgAt=    11 MxSgA2=    11.
 Leave Link  302 at Sat May 24 01:00:04 2025, MaxMem=  3758096384 cpu:               1.0 elap:               0.2
 (Enter /apps/easybuild-2022/easybuild/software/Compiler/NVHPC/22.11-CUDA-11.7.0/Gaussian/g16c01-CUDA-11.7.0/g16/l303.exe)
 DipDrv:  MaxL=1.
 Leave Link  303 at Sat May 24 01:00:04 2025, MaxMem=  3758096384 cpu:               0.2 elap:               0.1
 (Enter /apps/easybuild-2022/easybuild/software/Compiler/NVHPC/22.11-CUDA-11.7.0/Gaussian/g16c01-CUDA-11.7.0/g16/l401.exe)
 Initial guess from the checkpoint file:  "/tmp/Gau-33639.chk"
 B after Tr=    -0.040968    0.021335   -0.037760
         Rot=    0.999822    0.017645   -0.002258   -0.006339 Ang=   2.16 deg.
 Guess basis will be translated and rotated to current coordinates.
 JPrj=2 DoOrth=T DoCkMO=T.
 Initial guess <Sx>= 0.0000 <Sy>= 0.0000 <Sz>= 0.5000 <S**2>= 0.7534 S= 0.5017
 Generating alternative initial guess.
 ExpMin= 9.52D-02 ExpMax= 6.07D+04 ExpMxC= 2.07D+03 IAcc=3 IRadAn=         5 AccDes= 0.00D+00
 Harris functional with IExCor= 1009 and IRadAn=       5 diagonalized for initial guess.
 HarFok:  IExCor= 1009 AccDes= 0.00D+00 IRadAn=         5 IDoV= 1 UseB2=F ITyADJ=14
 ICtDFT=  3500011 ScaDFX=  1.000000  1.000000  1.000000  1.000000
 FoFCou: FMM=F IPFlag=           0 FMFlag=      100000 FMFlg1=           0
         NFxFlg=           0 DoJE=T BraDBF=F KetDBF=T FulRan=T
         wScrn=  0.000000 ICntrl=       500 IOpCl=  0 I1Cent=   200000004 NGrid=           0
         NMat0=    1 NMatS0=      1 NMatT0=    0 NMatD0=    1 NMtDS0=    0 NMtDT0=    0
 Symmetry not used in FoFCou.
 Harris En= -1099.44240923238    
 Leave Link  401 at Sat May 24 01:00:05 2025, MaxMem=  3758096384 cpu:               4.3 elap:               1.1
 (Enter /apps/easybuild-2022/easybuild/software/Compiler/NVHPC/22.11-CUDA-11.7.0/Gaussian/g16c01-CUDA-11.7.0/g16/l502.exe)
 Keep R1 and R2 ints in memory in canonical form, NReq=3196701089.
 FoFCou: FMM=F IPFlag=           0 FMFlag=           0 FMFlg1=           0
         NFxFlg=           0 DoJE=F BraDBF=F KetDBF=F FulRan=T
         wScrn=  0.000000 ICntrl=       600 IOpCl=  0 I1Cent=           0 NGrid=           0
         NMat0=    1 NMatS0=  56280 NMatT0=    0 NMatD0=    1 NMtDS0=    0 NMtDT0=    0
 Symmetry not used in FoFCou.
 Two-electron integral symmetry not used.
 UHF open shell SCF:
 Using DIIS extrapolation, IDIIS=  1040.
 NGot=  3758096384 LenX=   590296375 LenY=   590146165
 Requested convergence on RMS density matrix=1.00D-08 within  32 cycles.
 Requested convergence on MAX density matrix=1.00D-06.
 Requested convergence on             energy=1.00D-06.
 No special actions if energy rises.
 Integral accuracy reduced to 1.0D-05 until final iterations.

 Cycle   1  Pass 0  IDiag  1:
 E= -1099.91678517223    
 DIIS: error= 1.13D-02 at cycle   1 NSaved=   1.
 NSaved= 1 IEnMin= 1 EnMin= -1099.91678517223     IErMin= 1 ErrMin= 1.13D-02
 ErrMax= 1.13D-02  0.00D+00 EMaxC= 1.00D-01 BMatC= 3.03D-01 BMatP= 3.03D-01
 IDIUse=3 WtCom= 8.87D-01 WtEn= 1.13D-01
 Coeff-Com:  0.100D+01
 Coeff-En:   0.100D+01
 Coeff:      0.100D+01
 Recover alternate guess density for next cycle.
 RMSDP=1.82D-03 MaxDP=9.60D-02              OVMax= 0.00D+00

 Cycle   2  Pass 0  IDiag  1:
 E= -1099.71251853391     Delta-E=        0.204266638325 Rises=F Damp=F
 Switch densities from cycles 1 and 2 for lowest energy.
 DIIS: error= 2.65D-02 at cycle   2 NSaved=   2.
 NSaved= 2 IEnMin= 1 EnMin= -1099.91678517223     IErMin= 1 ErrMin= 1.13D-02
 ErrMax= 2.65D-02  0.00D+00 EMaxC= 1.00D+00 BMatC= 2.20D+00 BMatP= 3.03D-01
 IDIUse=1 WtCom= 1.00D+00 WtEn= 0.00D+00
 Coeff-Com:  0.896D+00 0.104D+00
 Coeff:      0.896D+00 0.104D+00
 Gap=     0.382 Goal=   None    Shift=    0.000
 Gap=     0.362 Goal=   None    Shift=    0.000
 RMSDP=8.64D-04 MaxDP=3.98D-02 DE= 2.04D-01 OVMax= 1.08D-01

 Cycle   3  Pass 0  IDiag  1:
 E= -1099.99280557213     Delta-E=       -0.280287038220 Rises=F Damp=F
 DIIS: error= 3.69D-03 at cycle   3 NSaved=   3.
 NSaved= 3 IEnMin= 3 EnMin= -1099.99280557213     IErMin= 3 ErrMin= 3.69D-03
 ErrMax= 3.69D-03  0.00D+00 EMaxC= 1.00D+00 BMatC= 5.31D-02 BMatP= 3.03D-01
 IDIUse=1 WtCom= 1.00D+00 WtEn= 0.00D+00
 Coeff-Com: -0.434D-01 0.123D+00 0.921D+00
 Coeff:     -0.434D-01 0.123D+00 0.921D+00
 Gap=     0.372 Goal=   None    Shift=    0.000
 Gap=     0.359 Goal=   None    Shift=    0.000
 RMSDP=2.67D-04 MaxDP=2.08D-02 DE=-2.80D-01 OVMax= 2.11D-02

 Cycle   4  Pass 0  IDiag  1:
 E= -1100.00235245967     Delta-E=       -0.009546887537 Rises=F Damp=F
 DIIS: error= 1.19D-03 at cycle   4 NSaved=   4.
 NSaved= 4 IEnMin= 4 EnMin= -1100.00235245967     IErMin= 4 ErrMin= 1.19D-03
 ErrMax= 1.19D-03  0.00D+00 EMaxC= 1.00D+00 BMatC= 4.22D-03 BMatP= 5.31D-02
 IDIUse=1 WtCom= 1.00D+00 WtEn= 0.00D+00
 Coeff-Com: -0.339D-01 0.223D-02 0.222D+00 0.810D+00
 Coeff:     -0.339D-01 0.223D-02 0.222D+00 0.810D+00
 Gap=     0.374 Goal=   None    Shift=    0.000
 Gap=     0.351 Goal=   None    Shift=    0.000
 RMSDP=7.71D-05 MaxDP=4.58D-03 DE=-9.55D-03 OVMax= 5.30D-03

 Cycle   5  Pass 0  IDiag  1:
 E= -1100.00310277123     Delta-E=       -0.000750311566 Rises=F Damp=F
 DIIS: error= 2.63D-04 at cycle   5 NSaved=   5.
 NSaved= 5 IEnMin= 5 EnMin= -1100.00310277123     IErMin= 5 ErrMin= 2.63D-04
 ErrMax= 2.63D-04  0.00D+00 EMaxC= 1.00D+00 BMatC= 2.82D-04 BMatP= 4.22D-03
 IDIUse=1 WtCom= 1.00D+00 WtEn= 0.00D+00
 Coeff-Com: -0.985D-02-0.388D-02 0.362D-01 0.289D+00 0.689D+00
 Coeff:     -0.985D-02-0.388D-02 0.362D-01 0.289D+00 0.689D+00
 Gap=     0.374 Goal=   None    Shift=    0.000
 Gap=     0.351 Goal=   None    Shift=    0.000
 RMSDP=2.21D-05 MaxDP=1.06D-03 DE=-7.50D-04 OVMax= 2.26D-03

 Cycle   6  Pass 0  IDiag  1:
 E= -1100.00315292095     Delta-E=       -0.000050149718 Rises=F Damp=F
 DIIS: error= 1.32D-04 at cycle   6 NSaved=   6.
 NSaved= 6 IEnMin= 6 EnMin= -1100.00315292095     IErMin= 6 ErrMin= 1.32D-04
 ErrMax= 1.32D-04  0.00D+00 EMaxC= 1.00D+00 BMatC= 6.75D-05 BMatP= 2.82D-04
 IDIUse=1 WtCom= 1.00D+00 WtEn= 0.00D+00
 Coeff-Com:  0.185D-03-0.131D-02-0.209D-01-0.178D-02 0.324D+00 0.700D+00
 Coeff:      0.185D-03-0.131D-02-0.209D-01-0.178D-02 0.324D+00 0.700D+00
 Gap=     0.374 Goal=   None    Shift=    0.000
 Gap=     0.351 Goal=   None    Shift=    0.000
 RMSDP=1.01D-05 MaxDP=5.73D-04 DE=-5.01D-05 OVMax= 1.46D-03

 Cycle   7  Pass 0  IDiag  1:
 E= -1100.00316752635     Delta-E=       -0.000014605397 Rises=F Damp=F
 DIIS: error= 3.37D-05 at cycle   7 NSaved=   7.
 NSaved= 7 IEnMin= 7 EnMin= -1100.00316752635     IErMin= 7 ErrMin= 3.37D-05
 ErrMax= 3.37D-05  0.00D+00 EMaxC= 1.00D+00 BMatC= 6.00D-06 BMatP= 6.75D-05
 IDIUse=1 WtCom= 1.00D+00 WtEn= 0.00D+00
 Coeff-Com:  0.119D-02-0.812D-04-0.113D-01-0.362D-01 0.324D-01 0.247D+00
 Coeff-Com:  0.767D+00
 Coeff:      0.119D-02-0.812D-04-0.113D-01-0.362D-01 0.324D-01 0.247D+00
 Coeff:      0.767D+00
 Gap=     0.374 Goal=   None    Shift=    0.000
 Gap=     0.351 Goal=   None    Shift=    0.000
 RMSDP=4.48D-06 MaxDP=3.21D-04 DE=-1.46D-05 OVMax= 6.61D-04

 Initial convergence to 1.0D-05 achieved.  Increase integral accuracy.
 Cycle   8  Pass 1  IDiag  1:
 E= -1100.00319548527     Delta-E=       -0.000027958924 Rises=F Damp=F
 DIIS: error= 2.48D-05 at cycle   1 NSaved=   1.
 NSaved= 1 IEnMin= 1 EnMin= -1100.00319548527     IErMin= 1 ErrMin= 2.48D-05
 ErrMax= 2.48D-05  0.00D+00 EMaxC= 1.00D+00 BMatC= 3.60D-06 BMatP= 3.60D-06
 IDIUse=1 WtCom= 1.00D+00 WtEn= 0.00D+00
 Coeff-Com:  0.100D+01
 Coeff:      0.100D+01
 Gap=     0.374 Goal=   None    Shift=    0.000
 Gap=     0.351 Goal=   None    Shift=    0.000
 RMSDP=4.48D-06 MaxDP=3.21D-04 DE=-2.80D-05 OVMax= 4.24D-04

 Cycle   9  Pass 1  IDiag  1:
 E= -1100.00319604748     Delta-E=       -0.000000562214 Rises=F Damp=F
 DIIS: error= 2.63D-05 at cycle   2 NSaved=   2.
 NSaved= 2 IEnMin= 2 EnMin= -1100.00319604748     IErMin= 1 ErrMin= 2.48D-05
 ErrMax= 2.63D-05  0.00D+00 EMaxC= 1.00D+00 BMatC= 2.26D-06 BMatP= 3.60D-06
 IDIUse=1 WtCom= 1.00D+00 WtEn= 0.00D+00
 Coeff-Com:  0.418D+00 0.582D+00
 Coeff:      0.418D+00 0.582D+00
 Gap=     0.374 Goal=   None    Shift=    0.000
 Gap=     0.351 Goal=   None    Shift=    0.000
 RMSDP=1.84D-06 MaxDP=7.67D-05 DE=-5.62D-07 OVMax= 2.03D-04

 Cycle  10  Pass 1  IDiag  1:
 E= -1100.00319638161     Delta-E=       -0.000000334123 Rises=F Damp=F
 DIIS: error= 1.37D-05 at cycle   3 NSaved=   3.
 NSaved= 3 IEnMin= 3 EnMin= -1100.00319638161     IErMin= 3 ErrMin= 1.37D-05
 ErrMax= 1.37D-05  0.00D+00 EMaxC= 1.00D+00 BMatC= 4.91D-07 BMatP= 2.26D-06
 IDIUse=1 WtCom= 1.00D+00 WtEn= 0.00D+00
 Coeff-Com: -0.573D-01 0.295D+00 0.762D+00
 Coeff:     -0.573D-01 0.295D+00 0.762D+00
 Gap=     0.374 Goal=   None    Shift=    0.000
 Gap=     0.351 Goal=   None    Shift=    0.000
 RMSDP=1.04D-06 MaxDP=5.70D-05 DE=-3.34D-07 OVMax= 1.07D-04

 Cycle  11  Pass 1  IDiag  1:
 E= -1100.00319648968     Delta-E=       -0.000000108077 Rises=F Damp=F
 DIIS: error= 2.92D-06 at cycle   4 NSaved=   4.
 NSaved= 4 IEnMin= 4 EnMin= -1100.00319648968     IErMin= 4 ErrMin= 2.92D-06
 ErrMax= 2.92D-06  0.00D+00 EMaxC= 1.00D+00 BMatC= 3.78D-08 BMatP= 4.91D-07
 IDIUse=1 WtCom= 1.00D+00 WtEn= 0.00D+00
 Coeff-Com: -0.484D-01 0.732D-01 0.284D+00 0.691D+00
 Coeff:     -0.484D-01 0.732D-01 0.284D+00 0.691D+00
 Gap=     0.374 Goal=   None    Shift=    0.000
 Gap=     0.351 Goal=   None    Shift=    0.000
 RMSDP=2.98D-07 MaxDP=1.74D-05 DE=-1.08D-07 OVMax= 4.40D-05

 Cycle  12  Pass 1  IDiag  1:
 E= -1100.00319650134     Delta-E=       -0.000000011652 Rises=F Damp=F
 DIIS: error= 1.71D-06 at cycle   5 NSaved=   5.
 NSaved= 5 IEnMin= 5 EnMin= -1100.00319650134     IErMin= 5 ErrMin= 1.71D-06
 ErrMax= 1.71D-06  0.00D+00 EMaxC= 1.00D+00 BMatC= 7.60D-09 BMatP= 3.78D-08
 IDIUse=1 WtCom= 1.00D+00 WtEn= 0.00D+00
 Coeff-Com:  0.709D-02-0.895D-01-0.210D+00 0.170D+00 0.112D+01
 Coeff:      0.709D-02-0.895D-01-0.210D+00 0.170D+00 0.112D+01
 Gap=     0.374 Goal=   None    Shift=    0.000
 Gap=     0.351 Goal=   None    Shift=    0.000
 RMSDP=2.68D-07 MaxDP=2.35D-05 DE=-1.17D-08 OVMax= 4.56D-05

 Cycle  13  Pass 1  IDiag  1:
 E= -1100.00319650575     Delta-E=       -0.000000004410 Rises=F Damp=F
 DIIS: error= 5.92D-07 at cycle   6 NSaved=   6.
 NSaved= 6 IEnMin= 6 EnMin= -1100.00319650575     IErMin= 6 ErrMin= 5.92D-07
 ErrMax= 5.92D-07  0.00D+00 EMaxC= 1.00D+00 BMatC= 1.16D-09 BMatP= 7.60D-09
 IDIUse=1 WtCom= 1.00D+00 WtEn= 0.00D+00
 Coeff-Com:  0.770D-02-0.454D-01-0.118D+00 0.113D-01 0.486D+00 0.659D+00
 Coeff:      0.770D-02-0.454D-01-0.118D+00 0.113D-01 0.486D+00 0.659D+00
 Gap=     0.374 Goal=   None    Shift=    0.000
 Gap=     0.351 Goal=   None    Shift=    0.000
 RMSDP=5.78D-08 MaxDP=6.62D-06 DE=-4.41D-09 OVMax= 6.99D-06

 Cycle  14  Pass 1  IDiag  1:
 E= -1100.00319650601     Delta-E=       -0.000000000265 Rises=F Damp=F
 DIIS: error= 1.54D-07 at cycle   7 NSaved=   7.
 NSaved= 7 IEnMin= 7 EnMin= -1100.00319650601     IErMin= 7 ErrMin= 1.54D-07
 ErrMax= 1.54D-07  0.00D+00 EMaxC= 1.00D+00 BMatC= 8.49D-11 BMatP= 1.16D-09
 IDIUse=1 WtCom= 1.00D+00 WtEn= 0.00D+00
 Coeff-Com:  0.247D-03 0.552D-02 0.109D-01-0.217D-01-0.870D-01 0.138D+00
 Coeff-Com:  0.954D+00
 Coeff:      0.247D-03 0.552D-02 0.109D-01-0.217D-01-0.870D-01 0.138D+00
 Coeff:      0.954D+00
 Gap=     0.374 Goal=   None    Shift=    0.000
 Gap=     0.351 Goal=   None    Shift=    0.000
 RMSDP=3.08D-08 MaxDP=4.05D-06 DE=-2.65D-10 OVMax= 2.35D-06

 Cycle  15  Pass 1  IDiag  1:
 E= -1100.00319650611     Delta-E=       -0.000000000100 Rises=F Damp=F
 DIIS: error= 6.80D-08 at cycle   8 NSaved=   8.
 NSaved= 8 IEnMin= 8 EnMin= -1100.00319650611     IErMin= 8 ErrMin= 6.80D-08
 ErrMax= 6.80D-08  0.00D+00 EMaxC= 1.00D+00 BMatC= 1.24D-11 BMatP= 8.49D-11
 IDIUse=1 WtCom= 1.00D+00 WtEn= 0.00D+00
 Coeff-Com: -0.687D-03 0.632D-02 0.154D-01-0.922D-02-0.768D-01-0.181D-01
 Coeff-Com:  0.324D+00 0.759D+00
 Coeff:     -0.687D-03 0.632D-02 0.154D-01-0.922D-02-0.768D-01-0.181D-01
 Coeff:      0.324D+00 0.759D+00
 Gap=     0.374 Goal=   None    Shift=    0.000
 Gap=     0.351 Goal=   None    Shift=    0.000
 RMSDP=7.66D-09 MaxDP=6.31D-07 DE=-1.00D-10 OVMax= 8.98D-07

 SCF Done:  E(UM062X) =  -1100.00319651     A.U. after   15 cycles
            NFock= 15  Conv=0.77D-08     -V/T= 2.0028
 <Sx>= 0.0000 <Sy>= 0.0000 <Sz>= 0.5000 <S**2>= 0.7534 S= 0.5017
 <L.S>=  0.00000000000    
 KE= 1.096947234277D+03 PE=-4.155403939668D+03 EE= 1.184816490439D+03
 Annihilation of the first spin contaminant:
 S**2 before annihilation     0.7534,   after     0.7500
 Leave Link  502 at Sat May 24 01:01:05 2025, MaxMem=  3758096384 cpu:             217.9 elap:              60.2
 (Enter /apps/easybuild-2022/easybuild/software/Compiler/NVHPC/22.11-CUDA-11.7.0/Gaussian/g16c01-CUDA-11.7.0/g16/l508.exe)
 QCSCF skips out because SCF is already converged.
 Leave Link  508 at Sat May 24 01:01:05 2025, MaxMem=  3758096384 cpu:               0.0 elap:               0.0
 (Enter /apps/easybuild-2022/easybuild/software/Compiler/NVHPC/22.11-CUDA-11.7.0/Gaussian/g16c01-CUDA-11.7.0/g16/l701.exe)
 ... and contract with generalized density number  0.
 Compute integral first derivatives.
   1 Symmetry operations used in ECPInt.
 ECPInt:  NShTT=    7140 NPrTT=   23456 LenC2=    6773 LenP2D=   16645.
 LDataN:  DoStor=T MaxTD1= 7 Len=  274
 Leave Link  701 at Sat May 24 01:01:05 2025, MaxMem=  3758096384 cpu:               0.6 elap:               0.1
 (Enter /apps/easybuild-2022/easybuild/software/Compiler/NVHPC/22.11-CUDA-11.7.0/Gaussian/g16c01-CUDA-11.7.0/g16/l702.exe)
 L702 exits ... SP integral derivatives will be done elsewhere.
 Leave Link  702 at Sat May 24 01:01:05 2025, MaxMem=  3758096384 cpu:               0.1 elap:               0.0
 (Enter /apps/easybuild-2022/easybuild/software/Compiler/NVHPC/22.11-CUDA-11.7.0/Gaussian/g16c01-CUDA-11.7.0/g16/l703.exe)
 Integral derivatives from FoFJK, PRISM(SPDF).
 Compute integral first derivatives, UseDBF=F ICtDFT=           0.
 Calling FoFJK, ICntrl=      2127 FMM=F ISym2X=0 I1Cent= 0 IOpClX= 1 NMat=1 NMatS=1 NMatT=0.
 FoFJK:  IHMeth= 1 ICntrl=    2127 DoSepK=F KAlg= 0 I1Cent=           0 FoldK=F
 IRaf=         0 NMat=       1 IRICut=       1 DoRegI=T DoRafI=F ISym2E= 0 IDoP0=0 IntGTp=1.
 FoFCou: FMM=F IPFlag=           0 FMFlag=      100000 FMFlg1=         800
         NFxFlg=           0 DoJE=F BraDBF=F KetDBF=F FulRan=T
         wScrn=  0.000000 ICntrl=      2127 IOpCl=  1 I1Cent=           0 NGrid=           0
         NMat0=    1 NMatS0=      1 NMatT0=    0 NMatD0=    1 NMtDS0=    0 NMtDT0=    0
 Symmetry not used in FoFCou.
 Leave Link  703 at Sat May 24 01:01:17 2025, MaxMem=  3758096384 cpu:              86.4 elap:              11.2
 (Enter /apps/easybuild-2022/easybuild/software/Compiler/NVHPC/22.11-CUDA-11.7.0/Gaussian/g16c01-CUDA-11.7.0/g16/l716.exe)
 Dipole        =-5.36684600D-01 1.04107169D+00 3.93143090D-01
 -------------------------------------------------------------------
 Center     Atomic                   Forces (Hartrees/Bohr)
 Number     Number              X              Y              Z
 -------------------------------------------------------------------
      1        6          -0.002027154   -0.001320546   -0.000700646
      2        6          -0.000236010    0.000958248    0.001840753
      3        9          -0.000100222   -0.000863921   -0.001509229
      4        9           0.000015973    0.000411834    0.000096404
      5       16           0.000961663    0.000145193   -0.001167651
      6        8          -0.000238339    0.000079134    0.000663130
      7        8           0.000971096   -0.001376317   -0.001090108
      8        8          -0.004597503    0.000893911    0.001915796
      9        9          -0.000183515    0.000122782   -0.000368447
     10        9           0.001158616    0.000381638   -0.000321535
     11        1           0.004275394    0.000568045    0.000641532
 -------------------------------------------------------------------
 Cartesian Forces:  Max     0.004597503 RMS     0.001426513
 Leave Link  716 at Sat May 24 01:01:17 2025, MaxMem=  3758096384 cpu:               0.1 elap:               0.0
 (Enter /apps/easybuild-2022/easybuild/software/Compiler/NVHPC/22.11-CUDA-11.7.0/Gaussian/g16c01-CUDA-11.7.0/g16/l103.exe)

 GradGradGradGradGradGradGradGradGradGradGradGradGradGradGradGradGradGrad
 Berny optimization.
 Using GEDIIS/GDIIS optimizer.
 FormGI is forming the generalized inverse of G from B-inverse, IUseBI=4.
 Internal  Forces:  Max     0.002979171 RMS     0.001108431
 Search for a local minimum.
 Step number   2 out of a maximum of   54
 All quantities printed in internal units (Hartrees-Bohrs-Radians)
 RMS Force = .11084D-02 SwitMx=.10000D-02 MixMth= 1
 Mixed Optimization -- RFO/linear search
 Update second derivatives using D2CorX and points    1    2
 DE= -7.36D-03 DEPred=-9.06D-03 R= 8.12D-01
 TightC=F SS=  1.41D+00  RLast= 1.13D+00 DXNew= 5.0454D-01 3.3768D+00
 Trust test= 8.12D-01 RLast= 1.13D+00 DXMaxT set to 5.05D-01
 ITU=  1  0
 Use linear search instead of GDIIS.
     Eigenvalues ---   -0.00041   0.00331   0.00437   0.05355   0.06137
     Eigenvalues ---    0.10098   0.10982   0.11677   0.13573   0.14710
     Eigenvalues ---    0.15424   0.19327   0.19869   0.21397   0.22393
     Eigenvalues ---    0.24450   0.29157   0.32124   0.38213   0.38768
     Eigenvalues ---    0.43413   0.48873   0.52132   0.54898   0.64957
     Eigenvalues ---    0.76889 122.33467
 Eigenvalue     1 is  -4.08D-04 should be greater than     0.000000 Eigenvector:
                          D12       D3        D15       D11       D10
   1                    0.26405   0.26318   0.26246   0.25996   0.25902
                          D14       D13       D9        D6        D2
   1                    0.25837   0.25743   0.25332   0.25123   0.25123
 RFO step:  Lambda=-7.88291718D-04 EMin=-4.08169056D-04
 Quartic linear search produced a step of  0.31322.
 Iteration  1 RMS(Cart)=  0.16349654 RMS(Int)=  0.03874609
 Iteration  2 RMS(Cart)=  0.03645563 RMS(Int)=  0.00217137
 Iteration  3 RMS(Cart)=  0.00197589 RMS(Int)=  0.00007923
 Iteration  4 RMS(Cart)=  0.00000577 RMS(Int)=  0.00007909
 Iteration  5 RMS(Cart)=  0.00000000 RMS(Int)=  0.00007909
 ITry= 1 IFail=0 DXMaxC= 6.05D-01 DCOld= 1.00D+10 DXMaxT= 5.05D-01 DXLimC= 3.00D+00 Rises=F
 Variable       Old X    -DE/DX   Delta X   Delta X   Delta X     New X
                                 (Linear)    (Quad)   (Total)
    R1        2.85211   0.00106   0.00026   0.00351   0.00377   2.85588
    R2        2.46997   0.00025  -0.00199   0.00354   0.00155   2.47152
    R3        2.48569  -0.00109   0.00187  -0.00725  -0.00539   2.48030
    R4        2.54382  -0.00163   0.00323  -0.01551  -0.01229   2.53153
    R5        2.52925  -0.00040  -0.00122   0.00359   0.00237   2.53162
    R6        3.47117   0.00139  -0.00110   0.01762   0.01652   3.48769
    R7        2.67665   0.00047   0.00285   0.00281   0.00566   2.68231
    R8        2.66747   0.00171  -0.00540  -0.00044  -0.00584   2.66164
    R9        2.97717   0.00151   0.00221   0.00373   0.00593   2.98310
   R10        1.83359  -0.00088   0.00128  -0.00281  -0.00153   1.83206
    A1        2.00634   0.00051   0.00202   0.01087   0.01281   2.01914
    A2        1.97779   0.00079  -0.00194   0.00559   0.00356   1.98135
    A3        1.95638  -0.00052  -0.00103   0.00325   0.00209   1.95847
    A4        1.88846  -0.00002  -0.00369   0.00494   0.00099   1.88944
    A5        1.95631  -0.00065   0.00095  -0.01007  -0.00909   1.94722
    A6        1.97443   0.00059   0.01020   0.00261   0.01269   1.98712
    A7        1.90022  -0.00014   0.00289  -0.00548  -0.00251   1.89771
    A8        1.86150   0.00033  -0.00525   0.02529   0.01993   1.88142
    A9        1.87956  -0.00008  -0.00549  -0.01576  -0.02124   1.85833
   A10        1.85116   0.00039  -0.01233  -0.00169  -0.01402   1.83715
   A11        1.89986  -0.00108   0.01483  -0.00990   0.00503   1.90489
   A12        1.72809   0.00179  -0.00109   0.02256   0.02152   1.74961
   A13        2.15613  -0.00008  -0.00038   0.00151   0.00125   2.15737
   A14        1.92582  -0.00153   0.01614  -0.00631   0.00997   1.93579
   A15        1.85554   0.00092  -0.01720  -0.00117  -0.01831   1.83723
   A16        1.91750   0.00298  -0.00233   0.02315   0.02082   1.93832
    D1       -3.10907   0.00038   0.03493  -0.21920  -0.18430   2.98982
    D2       -1.01359  -0.00021   0.03668  -0.22894  -0.19230  -1.20589
    D3        1.11572  -0.00037   0.03767  -0.25540  -0.21774   0.89798
    D4       -0.82764   0.00090   0.03347  -0.19839  -0.16490  -0.99254
    D5        1.26784   0.00031   0.03521  -0.20813  -0.17291   1.09493
    D6       -2.88604   0.00015   0.03620  -0.23459  -0.19834  -3.08437
    D7        3.01943   0.00065   0.05679  -0.24524  -0.18838   2.83105
    D8       -0.90934   0.00004   0.05814  -0.25197  -0.19376  -1.10310
    D9        1.02406   0.00149   0.04340  -0.24663  -0.20310   0.82095
   D10        0.94537   0.00012   0.05874  -0.26931  -0.21068   0.73469
   D11       -2.98340  -0.00049   0.06009  -0.27605  -0.21606   3.08373
   D12       -1.05000   0.00096   0.04535  -0.27070  -0.22540  -1.27540
   D13       -1.09203   0.00015   0.06093  -0.26799  -0.20708  -1.29910
   D14        1.26239  -0.00046   0.06228  -0.27472  -0.21246   1.04993
   D15       -3.08740   0.00099   0.04754  -0.26938  -0.22180   2.97399
[...]
    A1        2.00145  -0.00000   0.00000   0.00000   0.00000   2.00145
    A2        1.99335   0.00000   0.00000  -0.00000  -0.00000   1.99335
    A3        1.95753   0.00000   0.00000  -0.00000  -0.00000   1.95753
    A4        1.90567   0.00000   0.00000  -0.00000  -0.00000   1.90567
    A5        1.95093   0.00000   0.00000  -0.00000  -0.00000   1.95092
    A6        1.95600  -0.00000   0.00000   0.00000   0.00000   1.95600
    A7        1.90215  -0.00000   0.00000  -0.00000  -0.00000   1.90215
    A8        1.87837   0.00000   0.00000   0.00000   0.00000   1.87837
    A9        1.86858   0.00000   0.00000  -0.00000  -0.00000   1.86858
   A10        1.86710  -0.00000   0.00000  -0.00000  -0.00000   1.86710
   A11        1.87823  -0.00000   0.00000  -0.00000  -0.00000   1.87823
   A12        1.73248   0.00000   0.00000   0.00000   0.00000   1.73248
   A13        2.15904   0.00000   0.00000   0.00000   0.00000   2.15904
   A14        1.90593   0.00000   0.00000   0.00000   0.00000   1.90593
   A15        1.87375  -0.00000   0.00000  -0.00000  -0.00000   1.87375
   A16        1.92165  -0.00000   0.00000  -0.00000  -0.00000   1.92165
    D1       -2.90963  -0.00000   0.00000  -0.00004  -0.00004  -2.90967
    D2       -0.80369  -0.00000   0.00000  -0.00004  -0.00004  -0.80373
    D3        1.29412  -0.00000   0.00000  -0.00004  -0.00004   1.29408
    D4       -0.61582  -0.00000   0.00000  -0.00004  -0.00004  -0.61586
    D5        1.49013  -0.00000   0.00000  -0.00004  -0.00004   1.49009
    D6       -2.69525  -0.00000   0.00000  -0.00004  -0.00004  -2.69530
    D7        3.12287   0.00000   0.00000  -0.00002  -0.00002   3.12285
    D8       -0.80618   0.00000   0.00000  -0.00002  -0.00002  -0.80620
    D9        1.14249  -0.00000   0.00000  -0.00002  -0.00002   1.14247
   D10        1.02744   0.00000   0.00000  -0.00002  -0.00002   1.02742
   D11       -2.90160   0.00000   0.00000  -0.00002  -0.00002  -2.90162
   D12       -0.95294  -0.00000   0.00000  -0.00002  -0.00002  -0.95296
   D13       -1.01522  -0.00000   0.00000  -0.00002  -0.00002  -1.01523
   D14        1.33893   0.00000   0.00000  -0.00002  -0.00002   1.33891
   D15       -2.99559  -0.00000   0.00000  -0.00002  -0.00002  -2.99561
   D16        1.58553   0.00000   0.00000   0.00000   0.00000   1.58553
   D17       -0.36437  -0.00000   0.00000   0.00000   0.00000  -0.36436
   D18       -2.74545  -0.00000   0.00000   0.00000   0.00000  -2.74545
         Item               Value     Threshold  Converged?
 Maximum Force            0.000001     0.000015     YES
 RMS     Force            0.000000     0.000010     YES
 Maximum Displacement     0.000079     0.000060     NO 
 RMS     Displacement     0.000023     0.000040     YES
 Predicted change in Energy=-2.164385D-11
                           ----------------------------
                           ! Non-Optimized Parameters !
                           ! (Angstroms and Degrees)  !
 --------------------------                            --------------------------
 ! Name  Definition              Value          Derivative Info.                !
 --------------------------------------------------------------------------------
 ! R1    R(1,2)                  1.5122         -DE/DX =    0.0                 !
 ! R2    R(1,9)                  1.3076         -DE/DX =    0.0                 !
 ! R3    R(1,10)                 1.3132         -DE/DX =    0.0                 !
 ! R4    R(2,3)                  1.3376         -DE/DX =    0.0                 !
 ! R5    R(2,4)                  1.3403         -DE/DX =    0.0                 !
 ! R6    R(2,5)                  1.8382         -DE/DX =    0.0                 !
 ! R7    R(5,6)                  1.4189         -DE/DX =    0.0                 !
 ! R8    R(5,7)                  1.4131         -DE/DX =    0.0                 !
 ! R9    R(5,8)                  1.5752         -DE/DX =    0.0                 !
 ! R10   R(8,11)                 0.9681         -DE/DX =    0.0                 !
 ! A1    A(2,1,9)              114.6745         -DE/DX =    0.0                 !
 ! A2    A(2,1,10)             114.2103         -DE/DX =    0.0                 !
 ! A3    A(9,1,10)             112.1579         -DE/DX =    0.0                 !
 ! A4    A(1,2,3)              109.1867         -DE/DX =    0.0                 !
 ! A5    A(1,2,4)              111.7798         -DE/DX =    0.0                 !
 ! A6    A(1,2,5)              112.0708         -DE/DX =    0.0                 !
 ! A7    A(3,2,4)              108.9849         -DE/DX =    0.0                 !
 ! A8    A(3,2,5)              107.6225         -DE/DX =    0.0                 !
 ! A9    A(4,2,5)              107.0618         -DE/DX =    0.0                 !
 ! A10   A(2,5,6)              106.9772         -DE/DX =    0.0                 !
 ! A11   A(2,5,7)              107.6144         -DE/DX =    0.0                 !
 ! A12   A(2,5,8)               99.2639         -DE/DX =    0.0                 !
 ! A13   A(6,5,7)              123.7039         -DE/DX =    0.0                 !
 ! A14   A(6,5,8)              109.202          -DE/DX =    0.0                 !
 ! A15   A(7,5,8)              107.358          -DE/DX =    0.0                 !
 ! A16   A(5,8,11)             110.1025         -DE/DX =    0.0                 !
 ! D1    D(9,1,2,3)           -166.712          -DE/DX =    0.0                 !
 ! D2    D(9,1,2,4)            -46.0503         -DE/DX =    0.0                 !
 ! D3    D(9,1,2,5)             74.1451         -DE/DX =    0.0                 !
 ! D4    D(10,1,2,3)           -35.2862         -DE/DX =    0.0                 !
 ! D5    D(10,1,2,4)            85.3756         -DE/DX =    0.0                 !
 ! D6    D(10,1,2,5)          -154.4291         -DE/DX =    0.0                 !
 ! D7    D(1,2,5,6)            178.926          -DE/DX =    0.0                 !
 ! D8    D(1,2,5,7)            -46.1916         -DE/DX =    0.0                 !
 ! D9    D(1,2,5,8)             65.4587         -DE/DX =    0.0                 !
 ! D10   D(3,2,5,6)             58.8669         -DE/DX =    0.0                 !
 ! D11   D(3,2,5,7)           -166.2507         -DE/DX =    0.0                 !
 ! D12   D(3,2,5,8)            -54.6005         -DE/DX =    0.0                 !
 ! D13   D(4,2,5,6)            -58.1686         -DE/DX =    0.0                 !
 ! D14   D(4,2,5,7)             76.7138         -DE/DX =    0.0                 !
 ! D15   D(4,2,5,8)           -171.636          -DE/DX =    0.0                 !
 ! D16   D(2,5,8,11)            90.8444         -DE/DX =    0.0                 !
 ! D17   D(6,5,8,11)           -20.8764         -DE/DX =    0.0                 !
 ! D18   D(7,5,8,11)          -157.3028         -DE/DX =    0.0                 !
 --------------------------------------------------------------------------------
 GradGradGradGradGradGradGradGradGradGradGradGradGradGradGradGradGradGrad

 Leave Link  103 at Sat May 24 01:29:02 2025, MaxMem=  3758096384 cpu:               0.1 elap:               0.1
 (Enter /apps/easybuild-2022/easybuild/software/Compiler/NVHPC/22.11-CUDA-11.7.0/Gaussian/g16c01-CUDA-11.7.0/g16/l9999.exe)

 ----------------------------------------------------------------------

 Electric dipole moment (input orientation):
 (Debye = 10**-18 statcoulomb cm , SI units = C m)
                  (au)            (Debye)         (10**-30 SI)
   Tot        0.114721D+01      0.291591D+01      0.972644D+01
   x         -0.304993D+00     -0.775215D+00     -0.258584D+01
   y          0.971356D+00      0.246894D+01      0.823550D+01
   z          0.528711D+00      0.134385D+01      0.448260D+01

 Dipole polarizability, Alpha (input orientation).
 (esu units = cm**3 , SI units = C**2 m**2 J**-1)
 Alpha(0;0):
               (au)            (10**-24 esu)      (10**-40 SI)
   iso        0.521774D+02      0.773189D+01      0.860289D+01
   aniso      0.829148D+01      0.122867D+01      0.136708D+01
   xx         0.547343D+02      0.811079D+01      0.902447D+01
   yx        -0.199141D+01     -0.295097D+00     -0.328340D+00
   yy         0.482990D+02      0.715717D+01      0.796342D+01
   zx         0.255939D+01      0.379263D+00      0.421987D+00
   zy         0.858391D+00      0.127200D+00      0.141530D+00
   zz         0.534988D+02      0.792771D+01      0.882077D+01

 ----------------------------------------------------------------------

 Dipole orientation:
     6         -1.53946978          2.56677704          0.35540674
     6         -0.09084627          0.12748289          0.01224135
     9         -0.16360358         -1.19210658          2.16700977
     9         -1.05933347         -1.28627148         -1.85287439
    16          3.24787775          0.69033489         -0.76400723
     8          4.41455457         -1.71299614         -0.99211637
     8          3.33081016          2.56413957         -2.66474327
     8          4.12272099          1.96588172          1.77931020
     9         -2.04224030          3.77178088         -1.74239545
     9         -3.53154332          2.36964015          1.82203712
     1          4.73859304          0.69405103          2.94127062

 Electric dipole moment (dipole orientation):
 (Debye = 10**-18 statcoulomb cm , SI units = C m)
                  (au)            (Debye)         (10**-30 SI)
   Tot        0.114721D+01      0.291591D+01      0.972644D+01
   x          0.000000D+00      0.000000D+00      0.000000D+00
   y          0.000000D+00      0.000000D+00      0.000000D+00
   z          0.114721D+01      0.291591D+01      0.972644D+01

 Dipole polarizability, Alpha (dipole orientation).
 (esu units = cm**3 , SI units = C**2 m**2 J**-1)
 Alpha(0;0):
               (au)            (10**-24 esu)      (10**-40 SI)
   iso        0.521774D+02      0.773189D+01      0.860289D+01
   aniso      0.829148D+01      0.122867D+01      0.136708D+01
   xx         0.552755D+02      0.819098D+01      0.911370D+01
   yx        -0.319237D+01     -0.473061D+00     -0.526351D+00
   yy         0.504590D+02      0.747726D+01      0.831957D+01
   zx        -0.131822D+01     -0.195340D+00     -0.217345D+00
   zy        -0.193900D+01     -0.287330D+00     -0.319698D+00
   zz         0.507975D+02      0.752742D+01      0.837538D+01

 ----------------------------------------------------------------------
 Unable to Open any file for archive entry.
 1\1\GINC-SPARTAN-BM168\Freq\UM062X\def2TZVPP\C2H1F4O3S1\AKHALILOV\24-M
 ay-2025\0\\#P Geom=AllCheck Guess=TCheck SCRF=Check GenChk UM062X/def2
 TZVPP Freq\\Gaussian input prepared by ASE\\0,2\C,-0.6159419991,0.7254
 179852,-1.2799759537\C,-0.0370750271,0.0324317166,-0.0669153816\F,-0.4
 844577651,0.6363590831,1.0396111639\F,-0.3776646156,-1.2632075033,-0.0
 245847665\S,1.7993233877,0.1085455677,-0.0387101858\O,2.2229549141,-0.
 546187127,1.1466309797\O,2.261282437,-0.2313784798,-1.3301737921\O,1.9
 860738093,1.6631799814,0.1331104683\F,-0.4757381129,0.0692072236,-2.40
 22364659\F,-1.841507388,1.1669977891,-1.1142192617\H,2.029034965,1.891
 2903888,1.0729915651\\Version=ES64L-G16RevC.01\HF=-1100.0052071\S2=0.7
 5347\S2-1=0.\S2A=0.750009\RMSD=2.835e-09\RMSF=1.615e-06\ZeroPoint=0.04
 82043\Thermal=0.0579192\ETot=-1099.9472879\HTot=-1099.9463437\GTot=-10
 99.9938285\Dipole=-0.3049929,0.9713556,0.5287112\DipoleDeriv=1.1526271
 ,-0.4008809,-0.0283034,-0.4085193,0.4958735,0.3607171,0.1079329,0.3493
 351,1.0453458,0.9146716,0.0745477,-0.0724731,0.2094883,1.1445074,0.123
 7531,-0.2587617,0.0420839,0.8917286,-0.4721537,0.102835,0.2016693,0.11
 21785,-0.347823,-0.1753728,0.252193,-0.2299573,-0.6631685,-0.4155642,-
 0.2266839,-0.024671,-0.2133343,-0.8540762,0.0680793,-0.0128562,0.09299
 63,-0.288026,1.8503006,-0.0941558,0.1353651,0.0391149,2.1754309,0.1093
 218,0.0199922,0.0197615,2.1353452,-0.7546129,0.1220478,-0.2061294,0.12
 52276,-0.6811583,0.15695,-0.2887886,0.275408,-0.9475353,-0.7548665,0.0
 729442,0.1575037,0.0644417,-0.5245812,-0.0791122,0.2619233,-0.1467736,
 -0.9459068,-0.5949509,-0.1272625,-0.0719586,-0.2718858,-1.2701054,-0.2
 300659,-0.0988284,-0.2606617,-0.4958177,-0.2524402,0.0563095,-0.087953
 7,0.0776828,-0.2772425,-0.374664,0.0023958,-0.2395992,-0.7862759,-1.01
 08335,0.3995275,-0.032542,0.2354464,-0.2215136,-0.0300275,-0.036121,-0
 .0319516,-0.2729905,0.3378226,0.0207714,0.0294931,0.0301593,0.3606884,
 0.070421,0.0509186,0.1293586,0.3273011\Polar=54.734292,-1.9914137,48.2
 98952,2.5593931,0.8583908,53.4988459\PG=Unknown\NImag=0\\0.53478627,-0
 .14028360,0.31327553,0.05553687,0.11260996,0.57680349,-0.09577467,-0.0
 0197369,-0.02596575,0.45967097,0.05103858,-0.06919018,0.06906833,-0.01
 031921,0.50692509,-0.08586585,0.03154731,-0.14233858,-0.01618005,-0.00
 088120,0.56099561,0.00146982,0.00246982,-0.00353103,-0.10559717,0.0379
 9903,0.08506983,0.10711220,-0.00006460,0.00553725,-0.00126830,0.036584
 73,-0.10045648,-0.07982954,-0.05340965,0.14523394,0.02586721,-0.022756
 07,-0.04365038,0.07567685,-0.07037136,-0.25567475,-0.10490906,0.132117
 34,0.32146479,0.00891471,0.01135830,-0.00392399,-0.09222757,-0.0712977
 2,0.00595073,0.01414708,0.01162413,-0.00161527,0.08090540,-0.01748584,
 -0.05577731,0.00978781,-0.07110281,-0.28178840,0.02740968,0.00198353,-
 0.05199045,-0.03349382,0.08904418,0.39529875,0.01297941,0.03439955,-0.
 00368988,0.00720127,0.02697392,-0.07160887,-0.00673320,-0.04920691,-0.
 00206687,-0.00552034,-0.00781046,0.06818992,-0.01554207,0.00551735,-0.
 02417787,-0.17656334,-0.00695615,0.00610363,-0.00698446,0.00166531,0.0
 0076746,0.00030003,-0.00007082,-0.00155041,0.60204119,0.01116799,0.007
 16941,0.00338985,-0.00422043,-0.02542877,0.00966637,0.01808071,-0.0092
 1293,-0.01494543,-0.03593975,-0.03088677,0.00179504,-0.09871448,0.6878
 8725,-0.03047778,0.00673733,0.01492076,-0.02167853,0.00723144,-0.04452
 763,0.03907810,-0.01145128,-0.02466059,0.00209487,0.00066857,0.0003082
 4,-0.02641544,-0.05150852,1.30945982,-0.00392809,-0.00086190,0.0081572
 1,0.00697282,0.01750352,-0.02918968,-0.00048361,0.00081288,0.00231033,
 -0.00098584,-0.00283644,0.00089835,-0.15818531,0.08963533,-0.16311340,
 0.12289295,0.00014606,-0.00034359,-0.00222519,-0.00570772,-0.00374254,
 0.00795824,-0.00086772,0.00156313,0.00045026,0.00323968,0.00769889,-0.
 00202325,0.08598858,-0.21711039,0.23183162,-0.09965766,0.21937642,0.00
 120271,-0.00160560,0.00179361,0.01361823,0.01070439,-0.01481327,-0.004
 80228,0.00216598,0.00917758,-0.00157163,-0.00490213,0.00227948,-0.1568
 9592,0.22682638,-0.51737456,0.17036095,-0.26372078,0.53167339,0.003565
 85,-0.00142266,0.00257936,0.01784183,0.01039121,0.02255638,-0.01339185
 ,0.00379102,0.00767742,-0.00378861,-0.00500701,-0.00129369,-0.17794631
 ,0.05349281,0.20381789,0.02347164,0.00197777,-0.01536642,0.14029815,-0
 .00123332,-0.00153632,-0.00169846,-0.00362478,0.00233936,-0.00470859,0
 .00114443,0.00099716,0.00029129,0.00396291,0.00503676,0.00032290,0.050
 42977,-0.11796664,-0.13178610,-0.00258830,0.01609858,0.02114459,-0.060
 26405,0.11174892,0.00582877,-0.00328381,-0.00886222,-0.01472666,-0.008
 03309,-0.00717776,0.00503198,-0.00142180,-0.00015143,0.00357698,0.0049
 9602,0.00237547,0.19627752,-0.13180690,-0.62235428,0.01611183,-0.01335
 120,-0.01716924,-0.21486141,0.15791742,0.65370535,0.00068178,0.0005050
 5,0.00339222,0.00773413,-0.01815533,-0.00357067,-0.00098336,-0.0018503
 2,-0.00001619,-0.00880456,-0.00685177,-0.00003646,-0.07743725,-0.03462
 083,-0.00649888,0.01745297,0.01332809,-0.00036790,0.01330013,0.0094802
 4,0.00392157,0.05543980,0.00005179,-0.00286806,0.00193824,0.01803169,-
 0.01788791,-0.00979925,-0.00357128,0.00613593,0.00601447,-0.00816648,-
 0.00275992,-0.00038677,-0.03316888,-0.26947527,-0.00262087,-0.00314549
 ,-0.02950727,0.00377904,-0.00333881,-0.01226600,-0.00705154,0.04629058
 ,0.38105077,0.00272742,-0.00100448,-0.00125613,0.00618336,-0.00762604,
 0.00159457,-0.00327039,0.00376867,0.00485033,-0.00316616,-0.00127644,0
 .00068204,-0.00906106,-0.03332796,-0.09831443,0.00137921,0.03343012,0.
 00840948,-0.00050129,-0.04501304,-0.01218157,0.02910524,0.12933230,0.5
 8049946,-0.06300957,0.01868489,-0.00648750,0.00838755,-0.01151479,0.00
 201673,0.00052139,0.00113565,-0.00476733,0.00007025,0.00256690,-0.0012
 5550,-0.00032812,0.00090220,0.00387937,0.00012770,0.00008091,-0.000901
 61,-0.00252850,-0.00026809,-0.00286724,-0.00030783,-0.00062418,-0.0006
 4727,0.06908754,0.00640298,-0.13206302,-0.17845726,0.00681252,-0.00236
 776,0.01467478,-0.00067556,0.00139092,0.00288124,-0.00039810,0.0122737
 7,-0.00309535,0.00424693,-0.00292967,-0.00516528,-0.00151339,0.0006761
 6,0.00015890,-0.00018999,0.00111853,0.00363066,-0.00168696,0.00082909,
 0.00012718,-0.04555184,0.13505012,-0.00929055,-0.14393443,-0.32805861,
 0.00702790,-0.03201531,-0.02829741,-0.00354184,0.00257140,-0.01134306,
 0.00067153,0.00494303,0.00191110,0.00928203,-0.00108788,-0.00736152,-0
 .00351073,0.00097021,-0.00028918,-0.00285492,0.00082866,0.00517296,-0.
 00225330,-0.00025867,0.00034309,-0.03852185,0.18859909,0.38260673,-0.3
 7123197,0.10629918,-0.00509906,-0.03165221,0.00606994,0.01661758,0.004
 67723,-0.00247922,-0.00353012,0.00232881,0.00938879,-0.00505328,0.0109
 1015,0.00417170,0.00040924,-0.00472234,0.00101703,-0.00357328,-0.00265
 211,0.00001202,0.00041667,-0.00176254,-0.00383053,-0.00154144,-0.01206
 803,0.03235299,0.04249989,0.40654324,0.09071036,-0.06434659,-0.0125252
 6,0.03630397,-0.00679780,0.00328221,-0.00290501,0.00058706,-0.00091504
 ,-0.00343127,0.00286750,-0.00098201,-0.00432585,-0.00273253,0.00194854
 ,0.00182338,-0.00011880,0.00088924,0.00057048,0.00035682,-0.00030277,0
 .00052020,0.00172264,0.00021517,0.03449346,-0.01410830,-0.02097152,-0.
 15387643,0.08276439,0.02224450,-0.01279762,-0.06500479,-0.02891125,0.0
 0353490,0.00022863,-0.00336052,0.00281529,0.00333846,0.00192240,-0.001
 30684,0.00183317,0.00445520,0.00223413,-0.00584458,-0.00272843,0.00040
 998,-0.00053882,-0.00065584,0.00002134,0.00226667,-0.00061848,-0.00113
 442,0.00052487,0.04939149,-0.02349255,-0.01493905,-0.04188509,0.029558
 00,0.07803153,0.00006795,-0.00029277,-0.00048046,0.00120766,-0.0047590
 8,-0.00350864,-0.00048726,0.00219008,0.00253871,-0.00085969,0.00037127
 ,0.00036385,-0.00026452,-0.00395525,-0.00109543,-0.00261289,0.00045499
 ,-0.00170286,0.00182979,0.00294918,0.00129000,-0.00531327,-0.00852841,
 -0.02120762,0.00004762,0.00020042,0.00049186,-0.00037023,0.00011674,0.
 00014603,0.00675484,-0.00045042,0.00014289,-0.00061972,-0.00078426,-0.
 00160460,0.00067999,-0.00024830,0.00021448,0.00072712,0.00000411,0.000
 02719,0.00001333,-0.00461176,-0.01931369,-0.04588543,0.00082807,0.0054
 0942,0.00455999,-0.00000076,-0.00592716,-0.00129301,-0.00695895,-0.054
 97400,-0.07862548,0.00009488,0.00013017,0.00035541,0.00087454,-0.00019
 440,0.00015779,0.01125283,0.07608969,-0.00075270,0.00008786,-0.0006572
 7,-0.00224537,0.00141402,0.00161947,0.00096842,-0.00026087,-0.00128406
 ,0.00158088,0.00098460,-0.00021380,0.00121487,-0.01123507,-0.00425123,
 -0.00067564,0.00626999,-0.00314846,-0.00109748,0.00267997,0.00437605,-
 0.02305713,-0.11981252,-0.48515169,0.00016071,0.00013859,0.00025497,0.
 00073889,-0.00019656,0.00010392,0.02316456,0.11993001,0.48835210\\0.00
 000156,-0.00000068,-0.00000208,-0.00000010,-0.00000002,-0.00000094,-0.
 00000199,0.00000035,-0.00000165,-0.00000002,-0.00000004,-0.00000098,-0
 .00000033,0.00000036,0.00000094,-0.00000185,0.00000045,0.00000298,0.00
 000181,-0.00000035,0.00000303,-0.00000103,0.00000041,0.00000231,0.0000
 0301,-0.00000068,-0.00000146,0.00000120,-0.00000050,-0.00000392,-0.000
 00225,0.00000071,0.00000178\\\@
 The archive entry for this job was punched.


 ERWIN WITH HIS PSI CAN DO
 CALCULATIONS QUITE A FEW.
 BUT ONE THING HAS NOT BEEN SEEN
 JUST WHAT DOES PSI REALLY MEAN.
 -- WALTER HUCKEL, TRANS. BY FELIX BLOCH
 Job cpu time:       0 days  0 hours 42 minutes  2.1 seconds.
 Elapsed time:       0 days  0 hours  5 minutes 25.6 seconds.
 File lengths (MBytes):  RWF=    244 Int=      0 D2E=      0 Chk=     12 Scr=      1
 Normal termination of Gaussian 16 at Sat May 24 01:29:02 2025.
done
