 Entering Gaussian System, Link 0=g16
 Initial command:
 /apps/easybuild-2022/easybuild/software/Compiler/NVHPC/22.11-CUDA-11.7.0/Gaussian/g16c01-CUDA-11.7.0/g16/l1.exe "/tmp/Gau-299065.inp" -scrdir="/tmp/"
 Entering Link 1 = /apps/easybuild-2022/easybuild/software/Compiler/NVHPC/22.11-CUDA-11.7.0/Gaussian/g16c01-CUDA-11.7.0/g16/l1.exe PID=    299066.
  
 Copyright (c) 1988-2019, Gaussian, Inc.  All Rights Reserved.
  
 This is part of the Gaussian(R) 16 program.  It is based on
 the Gaussian(R) 09 system (copyright 2009, Gaussian, Inc.),
 the Gaussian(R) 03 system (copyright 2003, Gaussian, Inc.),
 the Gaussian(R) 98 system (copyright 1998, Gaussian, Inc.),
 the Gaussian(R) 94 system (copyright 1995, Gaussian, Inc.),
 the Gaussian 92(TM) system (copyright 1992, Gaussian, Inc.),
 the Gaussian 90(TM) system (copyright 1990, Gaussian, Inc.),
 the Gaussian 88(TM) system (copyright 1988, Gaussian, Inc.),
 the Gaussian 86(TM) system (copyright 1986, Carnegie Mellon
 University), and the Gaussian 82(TM) system (copyright 1983,
 Carnegie Mellon University). Gaussian is a federally registered
 trademark of Gaussian, Inc.
  
 This software contains proprietary and confidential information,
 including trade secrets, belonging to Gaussian, Inc.
  
 This software is provided under written license and may be
 used, copied, transmitted, or stored only in accord with that
 written license.
  
 The following legend is applicable only to US Government
 contracts under FAR:
  
                    RESTRICTED RIGHTS LEGEND
  
 Use, reproduction and disclosure by the US Government is
 subject to restrictions as set forth in subparagraphs (a)
 and (c) of the Commercial Computer Software - Restricted
 Rights clause in FAR 52.227-19.
  
 Gaussian, Inc.
 340 Quinnipiac St., Bldg. 40, Wallingford CT 06492
  
  
 ---------------------------------------------------------------
 Warning -- This program may not be used in any manner that
 competes with the business of Gaussian, Inc. or will provide
 assistance to any competitor of Gaussian, Inc.  The licensee
 of this program is prohibited from giving any competitor of
 Gaussian, Inc. access to this program.  By using this program,
 the user acknowledges that Gaussian, Inc. is engaged in the
 business of creating and licensing software in the field of
 computational chemistry and represents and warrants to the
 licensee that it is not a competitor of Gaussian, Inc. and that
 it will not use this program in any manner prohibited above.
 ---------------------------------------------------------------
  

 Cite this work as:
 Gaussian 16, Revision C.01,
 M. J. Frisch, G. W. Trucks, H. B. Schlegel, G. E. Scuseria, 
 M. A. Robb, J. R. Cheeseman, G. Scalmani, V. Barone, 
 G. A. Petersson, H. Nakatsuji, X. Li, M. Caricato, A. V. Marenich, 
 J. Bloino, B. G. Janesko, R. Gomperts, B. Mennucci, H. P. Hratchian, 
 J. V. Ortiz, A. F. Izmaylov, J. L. Sonnenberg, D. Williams-Young, 
 F. Ding, F. Lipparini, F. Egidi, J. Goings, B. Peng, A. Petrone, 
 T. Henderson, D. Ranasinghe, V. G. Zakrzewski, J. Gao, N. Rega, 
 G. Zheng, W. Liang, M. Hada, M. Ehara, K. Toyota, R. Fukuda, 
 J. Hasegawa, M. Ishida, T. Nakajima, Y. Honda, O. Kitao, H. Nakai, 
 T. Vreven, K. Throssell, J. A. Montgomery, Jr., J. E. Peralta, 
 F. Ogliaro, M. J. Bearpark, J. J. Heyd, E. N. Brothers, K. N. Kudin, 
 V. N. Staroverov, T. A. Keith, R. Kobayashi, J. Normand, 
 K. Raghavachari, A. P. Rendell, J. C. Burant, S. S. Iyengar, 
 J. Tomasi, M. Cossi, J. M. Millam, M. Klene, C. Adamo, R. Cammi, 
 J. W. Ochterski, R. L. Martin, K. Morokuma, O. Farkas, 
 J. B. Foresman, and D. J. Fox, Gaussian, Inc., Wallingford CT, 2019.
 
 ******************************************
 Gaussian 16:  ES64L-G16RevC.01  3-Jul-2019
                24-May-2025 
 ******************************************
 %mem=28GB
 %nprocshared=8
 Will use up to    8 processors via shared memory.
 ----------------------------------------------------------------------
 #P M062X/Def2TZVPP Symm(None) scf(xqc) pop(None) freq opt(CalcFC, Tigh
 t)
 ----------------------------------------------------------------------
 1/7=10,10=4,18=20,19=15,26=3,38=1/1,3;
 2/9=110,12=2,15=3,17=6,18=5,40=1/2;
 3/5=44,7=202,11=2,25=1,30=1,71=2,74=-55,140=1/1,2,3;
 4//1;
 5/5=2,8=3,13=1,38=5/2,8;
 8/6=4,10=90,11=11/1;
 11/6=1,8=1,9=11,15=111,16=1,31=1/1,2,10;
 10/6=1,13=1,31=1/2;
 7/10=1,25=1,30=1/1,2,3,16;
 1/7=10,10=4,18=20,19=15,26=3/3(2);
 2/9=110,15=3/2;
 99//99;
 2/9=110,15=3/2;
 3/5=44,7=202,11=2,25=1,30=1,71=1,74=-55/1,2,3;
 4/5=5,16=3,69=1/1;
 5/5=2,8=3,13=1,38=5/2,8;
 7/30=1/1,2,3,16;
 1/7=10,18=20,19=15,26=3/3(-5);
 2/9=110,15=3/2;
 99/9=1/99;
 Leave Link    1 at Sat May 24 00:52:57 2025, MaxMem=  3758096384 cpu:               0.0 elap:               0.0
 (Enter /apps/easybuild-2022/easybuild/software/Compiler/NVHPC/22.11-CUDA-11.7.0/Gaussian/g16c01-CUDA-11.7.0/g16/l101.exe)
 ------------------------------
 Gaussian input prepared by ASE
 ------------------------------
 Symbolic Z-matrix:
 Charge =  0 Multiplicity = 2
 C                    -0.5471    0.49785   1.31506 
 C                     0.        0.        0. 
 F                    -0.40572  -1.26392  -0.18793 
 F                    -0.42967   0.739    -1.03255 
 S                     1.83872   0.        0. 
 O                     2.2824   -0.49934   1.24357 
 O                     2.23366  -0.54355  -1.25177 
 O                     2.09032   1.55145   0. 
 F                    -0.14052   1.696     1.65613 
 F                    -1.84719   0.36212   1.43012 
 H                     2.94193   1.75346   0.41382 
 
 ITRead=  0  0  0  0  0  0  0  0  0  0  0
 MicOpt= -1 -1 -1 -1 -1 -1 -1 -1 -1 -1 -1
 NAtoms=     11 NQM=       11 NQMF=       0 NMMI=      0 NMMIF=      0
                NMic=       0 NMicF=      0.
                    Isotopes and Nuclear Properties:
 (Nuclear quadrupole moments (NQMom) in fm**2, nuclear magnetic moments (NMagM)
  in nuclear magnetons)

  Atom         1           2           3           4           5           6           7           8           9          10
 IAtWgt=          12          12          19          19          32          16          16          16          19          19
 AtmWgt=  12.0000000  12.0000000  18.9984032  18.9984032  31.9720718  15.9949146  15.9949146  15.9949146  18.9984032  18.9984032
 NucSpn=           0           0           1           1           0           0           0           0           1           1
 AtZEff=  -0.0000000  -0.0000000  -0.0000000  -0.0000000  -0.0000000  -0.0000000  -0.0000000  -0.0000000  -0.0000000  -0.0000000
 NQMom=    0.0000000   0.0000000   0.0000000   0.0000000   0.0000000   0.0000000   0.0000000   0.0000000   0.0000000   0.0000000
 NMagM=    0.0000000   0.0000000   2.6288670   2.6288670   0.0000000   0.0000000   0.0000000   0.0000000   2.6288670   2.6288670
 AtZNuc=   6.0000000   6.0000000   9.0000000   9.0000000  16.0000000   8.0000000   8.0000000   8.0000000   9.0000000   9.0000000

  Atom        11
 IAtWgt=           1
 AtmWgt=   1.0078250
 NucSpn=           1
 AtZEff=  -0.0000000
 NQMom=    0.0000000
 NMagM=    2.7928460
 AtZNuc=   1.0000000
 Leave Link  101 at Sat May 24 00:52:58 2025, MaxMem=  3758096384 cpu:               0.2 elap:               0.2
 (Enter /apps/easybuild-2022/easybuild/software/Compiler/NVHPC/22.11-CUDA-11.7.0/Gaussian/g16c01-CUDA-11.7.0/g16/l103.exe)

 GradGradGradGradGradGradGradGradGradGradGradGradGradGradGradGradGradGrad
 Berny optimization.
 Initialization pass.
                           ----------------------------
                           !    Initial Parameters    !
                           ! (Angstroms and Degrees)  !
 --------------------------                            --------------------------
 ! Name  Definition              Value          Derivative Info.                !
 --------------------------------------------------------------------------------
 ! R1    R(1,2)                  1.5088         calculate D2E/DX2 analytically  !
 ! R2    R(1,9)                  1.3104         calculate D2E/DX2 analytically  !
 ! R3    R(1,10)                 1.3122         calculate D2E/DX2 analytically  !
 ! R4    R(2,3)                  1.3407         calculate D2E/DX2 analytically  !
 ! R5    R(2,4)                  1.3405         calculate D2E/DX2 analytically  !
 ! R6    R(2,5)                  1.8387         calculate D2E/DX2 analytically  !
 ! R7    R(5,6)                  1.4116         calculate D2E/DX2 analytically  !
 ! R8    R(5,7)                  1.4207         calculate D2E/DX2 analytically  !
 ! R9    R(5,8)                  1.5717         calculate D2E/DX2 analytically  !
 ! R10   R(8,11)                 0.9681         calculate D2E/DX2 analytically  !
 ! A1    A(2,1,9)              114.5845         calculate D2E/DX2 analytically  !
 ! A2    A(2,1,10)             113.6747         calculate D2E/DX2 analytically  !
 ! A3    A(9,1,10)             112.2812         calculate D2E/DX2 analytically  !
 ! A4    A(1,2,3)              108.8752         calculate D2E/DX2 analytically  !
 ! A5    A(1,2,4)              111.9152         calculate D2E/DX2 analytically  !
 ! A6    A(1,2,5)              111.2598         calculate D2E/DX2 analytically  !
 ! A7    A(3,2,4)              108.3461         calculate D2E/DX2 analytically  !
 ! A8    A(3,2,5)              107.6154         calculate D2E/DX2 analytically  !
 ! A9    A(4,2,5)              108.6951         calculate D2E/DX2 analytically  !
 ! A10   A(2,5,6)              108.3192         calculate D2E/DX2 analytically  !
 ! A11   A(2,5,7)              106.1407         calculate D2E/DX2 analytically  !
 ! A12   A(2,5,8)               99.2117         calculate D2E/DX2 analytically  !
 ! A13   A(6,5,7)              123.6071         calculate D2E/DX2 analytically  !
 ! A14   A(6,5,8)              107.3891         calculate D2E/DX2 analytically  !
 ! A15   A(7,5,8)              109.4605         calculate D2E/DX2 analytically  !
 ! A16   A(5,8,11)             110.2907         calculate D2E/DX2 analytically  !
 ! D1    D(9,1,2,3)            175.4732         calculate D2E/DX2 analytically  !
 ! D2    D(9,1,2,4)            -64.7845         calculate D2E/DX2 analytically  !
 ! D3    D(9,1,2,5)             57.0356         calculate D2E/DX2 analytically  !
 ! D4    D(10,1,2,3)           -53.5422         calculate D2E/DX2 analytically  !
 ! D5    D(10,1,2,4)            66.2001         calculate D2E/DX2 analytically  !
 ! D6    D(10,1,2,5)          -171.9798         calculate D2E/DX2 analytically  !
 ! D7    D(1,2,5,6)             42.6128         calculate D2E/DX2 analytically  !
 ! D8    D(1,2,5,7)            177.2638         calculate D2E/DX2 analytically  !
 ! D9    D(1,2,5,8)            -69.2646         calculate D2E/DX2 analytically  !
 ! D10   D(3,2,5,6)            -76.5798         calculate D2E/DX2 analytically  !
 ! D11   D(3,2,5,7)             58.0712         calculate D2E/DX2 analytically  !
 ! D12   D(3,2,5,8)            171.5428         calculate D2E/DX2 analytically  !
 ! D13   D(4,2,5,6)            166.2859         calculate D2E/DX2 analytically  !
 ! D14   D(4,2,5,7)            -59.0631         calculate D2E/DX2 analytically  !
 ! D15   D(4,2,5,8)             54.4085         calculate D2E/DX2 analytically  !
 ! D16   D(2,5,8,11)           152.889          calculate D2E/DX2 analytically  !
 ! D17   D(6,5,8,11)            40.2791         calculate D2E/DX2 analytically  !
 ! D18   D(7,5,8,11)           -96.2565         calculate D2E/DX2 analytically  !
 --------------------------------------------------------------------------------
 Trust Radius=3.00D-01 FncErr=1.00D-07 GrdErr=1.00D-06 EigMax=2.50D+02 EigMin=1.00D-04
 Number of steps in this run=     54 maximum allowed number of steps=    100.
 GradGradGradGradGradGradGradGradGradGradGradGradGradGradGradGradGradGrad

 Leave Link  103 at Sat May 24 00:52:58 2025, MaxMem=  3758096384 cpu:               0.0 elap:               0.0
 (Enter /apps/easybuild-2022/easybuild/software/Compiler/NVHPC/22.11-CUDA-11.7.0/Gaussian/g16c01-CUDA-11.7.0/g16/l202.exe)
                          Input orientation:                          
 ---------------------------------------------------------------------
 Center     Atomic      Atomic             Coordinates (Angstroms)
 Number     Number       Type             X           Y           Z
 ---------------------------------------------------------------------
      1          6           0       -0.547097    0.497849    1.315063
      2          6           0        0.000000    0.000000    0.000000
      3          9           0       -0.405724   -1.263920   -0.187929
      4          9           0       -0.429666    0.739000   -1.032547
      5         16           0        1.838716    0.000000    0.000000
      6          8           0        2.282401   -0.499340    1.243566
      7          8           0        2.233661   -0.543545   -1.251768
      8          8           0        2.090322    1.551454    0.000000
      9          9           0       -0.140519    1.695997    1.656128
     10          9           0       -1.847193    0.362120    1.430124
     11          1           0        2.941928    1.753464    0.413816
 ---------------------------------------------------------------------
                    Distance matrix (angstroms):
                    1          2          3          4          5
     1  C    0.000000
     2  C    1.508828   0.000000
     3  F    2.320087   1.340680   0.000000
     4  F    2.362883   1.340480   2.173854   0.000000
     5  S    2.769359   1.838716   2.582697   2.599582   0.000000
     6  O    3.000926   2.646724   3.140028   3.750930   1.411614
     7  O    3.925015   2.617557   2.935481   2.964167   1.420685
     8  O    3.129769   2.603163   3.767213   2.841931   1.571724
     9  F    1.310415   2.374639   3.497426   2.868522   3.088128
    10  F    1.312216   2.364003   2.709232   2.866386   3.970178
    11  H    3.816033   3.449756   4.546810   3.806408   2.112571
                    6          7          8          9         10
     6  O    0.000000
     7  O    2.496201   0.000000
     8  O    2.406056   2.444686   0.000000
     9  F    3.295490   4.371286   2.782140   0.000000
    10  F    4.222613   4.966503   4.354744   2.177852   0.000000
    11  H    2.489696   2.924391   0.968134   3.323872   5.089636
                   11
    11  H    0.000000
 Symmetry turned off by external request.
 Stoichiometry    C2HF4O3S
 Rotational constants (GHZ):           1.8606587           1.0197137           0.8834576
 Leave Link  202 at Sat May 24 00:52:58 2025, MaxMem=  3758096384 cpu:               0.0 elap:               0.0
 (Enter /apps/easybuild-2022/easybuild/software/Compiler/NVHPC/22.11-CUDA-11.7.0/Gaussian/g16c01-CUDA-11.7.0/g16/l301.exe)
 Standard basis: def2TZVPP (5D, 7F)
 Ernie: Thresh=  0.10000D-02 Tol=  0.10000D-05 Strict=F.
   335 basis functions,   545 primitive gaussians,   387 cartesian basis functions
    45 alpha electrons       44 beta electrons
       nuclear repulsion energy       774.7774920390 Hartrees.
 IExCor= 4336 DFT=T Ex+Corr=M062X ExCW=0 ScaHFX=  0.540000
 ScaDFX=  1.000000  1.000000  1.000000  1.000000 ScalE2=  1.000000  1.000000
 IRadAn=      5 IRanWt=     -1 IRanGd=            0 ICorTp=0 IEmpDi=  4
 NAtoms=   11 NActive=   11 NUniq=   11 SFac= 1.00D+00 NAtFMM=   60 NAOKFM=F Big=F
 Integral buffers will be    131072 words long.
 Raffenetti 2 integral format.
 Two-electron integral symmetry is turned off.
 Leave Link  301 at Sat May 24 00:52:58 2025, MaxMem=  3758096384 cpu:               0.0 elap:               0.0
 (Enter /apps/easybuild-2022/easybuild/software/Compiler/NVHPC/22.11-CUDA-11.7.0/Gaussian/g16c01-CUDA-11.7.0/g16/l302.exe)
 NPDir=0 NMtPBC=     1 NCelOv=     1 NCel=       1 NClECP=     1 NCelD=      1
         NCelK=      1 NCelE2=     1 NClLst=     1 CellRange=     0.0.
 One-electron integrals computed using PRISM.
   1 Symmetry operations used in ECPInt.
 ECPInt:  NShTT=    7140 NPrTT=   23456 LenC2=    6766 LenP2D=   16638.
 LDataN:  DoStor=T MaxTD1= 6 Len=  172
 NBasis=   335 RedAO= T EigKep=  4.86D-04  NBF=   335
 NBsUse=   335 1.00D-06 EigRej= -1.00D+00 NBFU=   335
 Precomputing XC quadrature grid using
 IXCGrd= 4 IRadAn=           5 IRanWt=          -1 IRanGd=           0 AccXCQ= 0.00D+00.
 Generated NRdTot=       0 NPtTot=           0 NUsed=           0 NTot=          32
 NSgBfM=   383   383   383   383   383 MxSgAt=    11 MxSgA2=    11.
 Leave Link  302 at Sat May 24 00:52:58 2025, MaxMem=  3758096384 cpu:               0.7 elap:               0.2
 (Enter /apps/easybuild-2022/easybuild/software/Compiler/NVHPC/22.11-CUDA-11.7.0/Gaussian/g16c01-CUDA-11.7.0/g16/l303.exe)
 DipDrv:  MaxL=1.
 Leave Link  303 at Sat May 24 00:52:58 2025, MaxMem=  3758096384 cpu:               0.1 elap:               0.0
 (Enter /apps/easybuild-2022/easybuild/software/Compiler/NVHPC/22.11-CUDA-11.7.0/Gaussian/g16c01-CUDA-11.7.0/g16/l401.exe)
 ExpMin= 9.52D-02 ExpMax= 6.07D+04 ExpMxC= 2.07D+03 IAcc=3 IRadAn=         5 AccDes= 0.00D+00
 Harris functional with IExCor= 1009 and IRadAn=       5 diagonalized for initial guess.
 HarFok:  IExCor= 1009 AccDes= 0.00D+00 IRadAn=         5 IDoV= 1 UseB2=F ITyADJ=14
 ICtDFT=  3500011 ScaDFX=  1.000000  1.000000  1.000000  1.000000
 FoFCou: FMM=F IPFlag=           0 FMFlag=      100000 FMFlg1=           0
         NFxFlg=           0 DoJE=T BraDBF=F KetDBF=T FulRan=T
         wScrn=  0.000000 ICntrl=       500 IOpCl=  0 I1Cent=   200000004 NGrid=           0
         NMat0=    1 NMatS0=      1 NMatT0=    0 NMatD0=    1 NMtDS0=    0 NMtDT0=    0
 Symmetry not used in FoFCou.
 Harris En= -1099.44204492493    
 JPrj=0 DoOrth=F DoCkMO=F.
 Initial guess <Sx>= 0.0000 <Sy>= 0.0000 <Sz>= 0.5000 <S**2>= 0.7500 S= 0.5000
 Leave Link  401 at Sat May 24 00:52:58 2025, MaxMem=  3758096384 cpu:               3.8 elap:               0.5
 (Enter /apps/easybuild-2022/easybuild/software/Compiler/NVHPC/22.11-CUDA-11.7.0/Gaussian/g16c01-CUDA-11.7.0/g16/l502.exe)
 Keep R1 and R2 ints in memory in canonical form, NReq=3196701089.
 FoFCou: FMM=F IPFlag=           0 FMFlag=           0 FMFlg1=           0
         NFxFlg=           0 DoJE=F BraDBF=F KetDBF=F FulRan=T
         wScrn=  0.000000 ICntrl=       600 IOpCl=  0 I1Cent=           0 NGrid=           0
         NMat0=    1 NMatS0=  56280 NMatT0=    0 NMatD0=    1 NMtDS0=    0 NMtDT0=    0
 Symmetry not used in FoFCou.
 Two-electron integral symmetry not used.
 UHF open shell SCF:
 Using DIIS extrapolation, IDIIS=  1040.
 NGot=  3758096384 LenX=   590296375 LenY=   590146165
 Requested convergence on RMS density matrix=1.00D-08 within  32 cycles.
 Requested convergence on MAX density matrix=1.00D-06.
 Requested convergence on             energy=1.00D-06.
 No special actions if energy rises.
 Integral accuracy reduced to 1.0D-05 until final iterations.

 Cycle   1  Pass 0  IDiag  1:
 E= -1099.71073417355    
 DIIS: error= 2.58D-02 at cycle   1 NSaved=   1.
 NSaved= 1 IEnMin= 1 EnMin= -1099.71073417355     IErMin= 1 ErrMin= 2.58D-02
 ErrMax= 2.58D-02  0.00D+00 EMaxC= 1.00D-01 BMatC= 2.20D+00 BMatP= 2.20D+00
 IDIUse=3 WtCom= 7.42D-01 WtEn= 2.58D-01
 Coeff-Com:  0.100D+01
 Coeff-En:   0.100D+01
 Coeff:      0.100D+01
 Gap=     0.385 Goal=   None    Shift=    0.000
 Gap=     0.327 Goal=   None    Shift=    0.000
 GapD=    0.327 DampG=1.000 DampE=0.500 DampFc=0.5000 IDamp=-1.
 Damping current iteration by 5.00D-01
 RMSDP=2.62D-03 MaxDP=2.53D-01              OVMax= 2.33D-01

 Cycle   2  Pass 0  IDiag  1:
 E= -1099.80828020829     Delta-E=       -0.097546034738 Rises=F Damp=T
 DIIS: error= 7.68D-03 at cycle   2 NSaved=   2.
 NSaved= 2 IEnMin= 2 EnMin= -1099.80828020829     IErMin= 2 ErrMin= 7.68D-03
 ErrMax= 7.68D-03  0.00D+00 EMaxC= 1.00D-01 BMatC= 2.16D-01 BMatP= 2.20D+00
 IDIUse=3 WtCom= 9.23D-01 WtEn= 7.68D-02
 Coeff-Com:  0.104D+00 0.896D+00
 Coeff-En:   0.279D+00 0.721D+00
 Coeff:      0.117D+00 0.883D+00
 Gap=     0.472 Goal=   None    Shift=    0.000
 Gap=     0.350 Goal=   None    Shift=    0.000
 RMSDP=6.58D-04 MaxDP=5.12D-02 DE=-9.75D-02 OVMax= 1.32D-01

 Cycle   3  Pass 0  IDiag  1:
 E= -1099.99037386344     Delta-E=       -0.182093655145 Rises=F Damp=F
 DIIS: error= 4.63D-03 at cycle   3 NSaved=   3.
 NSaved= 3 IEnMin= 3 EnMin= -1099.99037386344     IErMin= 3 ErrMin= 4.63D-03
 ErrMax= 4.63D-03  0.00D+00 EMaxC= 1.00D-01 BMatC= 5.25D-02 BMatP= 2.16D-01
 IDIUse=3 WtCom= 9.54D-01 WtEn= 4.63D-02
 Coeff-Com: -0.539D-01 0.269D+00 0.785D+00
 Coeff-En:   0.000D+00 0.000D+00 0.100D+01
 Coeff:     -0.514D-01 0.256D+00 0.795D+00
 Gap=     0.360 Goal=   None    Shift=    0.000
 Gap=     0.353 Goal=   None    Shift=    0.000
 RMSDP=3.33D-04 MaxDP=1.93D-02 DE=-1.82D-01 OVMax= 2.63D-02

 Cycle   4  Pass 0  IDiag  1:
 E= -1099.99761043052     Delta-E=       -0.007236567084 Rises=F Damp=F
 DIIS: error= 2.25D-03 at cycle   4 NSaved=   4.
 NSaved= 4 IEnMin= 4 EnMin= -1099.99761043052     IErMin= 4 ErrMin= 2.25D-03
 ErrMax= 2.25D-03  0.00D+00 EMaxC= 1.00D-01 BMatC= 1.56D-02 BMatP= 5.25D-02
 IDIUse=3 WtCom= 9.78D-01 WtEn= 2.25D-02
 Coeff-Com: -0.351D-01 0.730D-01 0.423D+00 0.539D+00
 Coeff-En:   0.000D+00 0.000D+00 0.154D+00 0.846D+00
 Coeff:     -0.343D-01 0.714D-01 0.417D+00 0.546D+00
 Gap=     0.364 Goal=   None    Shift=    0.000
 Gap=     0.352 Goal=   None    Shift=    0.000
 RMSDP=1.11D-04 MaxDP=6.54D-03 DE=-7.24D-03 OVMax= 1.10D-02

 Cycle   5  Pass 0  IDiag  1:
 E= -1100.00019722848     Delta-E=       -0.002586797957 Rises=F Damp=F
 DIIS: error= 4.28D-04 at cycle   5 NSaved=   5.
 NSaved= 5 IEnMin= 5 EnMin= -1100.00019722848     IErMin= 5 ErrMin= 4.28D-04
 ErrMax= 4.28D-04  0.00D+00 EMaxC= 1.00D-01 BMatC= 5.10D-04 BMatP= 1.56D-02
 IDIUse=3 WtCom= 9.96D-01 WtEn= 4.28D-03
 Coeff-Com: -0.581D-02 0.352D-02 0.621D-01 0.173D+00 0.767D+00
 Coeff-En:   0.000D+00 0.000D+00 0.000D+00 0.000D+00 0.100D+01
 Coeff:     -0.579D-02 0.351D-02 0.619D-01 0.173D+00 0.768D+00
 Gap=     0.365 Goal=   None    Shift=    0.000
 Gap=     0.351 Goal=   None    Shift=    0.000
 RMSDP=3.32D-05 MaxDP=2.70D-03 DE=-2.59D-03 OVMax= 4.79D-03

 Cycle   6  Pass 0  IDiag  1:
 E= -1100.00034098962     Delta-E=       -0.000143761148 Rises=F Damp=F
 DIIS: error= 2.39D-04 at cycle   6 NSaved=   6.
 NSaved= 6 IEnMin= 6 EnMin= -1100.00034098962     IErMin= 6 ErrMin= 2.39D-04
 ErrMax= 2.39D-04  0.00D+00 EMaxC= 1.00D-01 BMatC= 8.84D-05 BMatP= 5.10D-04
 IDIUse=3 WtCom= 9.98D-01 WtEn= 2.39D-03
 Coeff-Com:  0.270D-02-0.828D-02-0.458D-01-0.336D-01 0.208D+00 0.877D+00
 Coeff-En:   0.000D+00 0.000D+00 0.000D+00 0.000D+00 0.000D+00 0.100D+01
 Coeff:      0.269D-02-0.826D-02-0.457D-01-0.335D-01 0.207D+00 0.878D+00
 Gap=     0.365 Goal=   None    Shift=    0.000
 Gap=     0.353 Goal=   None    Shift=    0.000
 RMSDP=2.22D-05 MaxDP=2.47D-03 DE=-1.44D-04 OVMax= 3.20D-03

 Cycle   7  Pass 0  IDiag  1:
 E= -1100.00037855825     Delta-E=       -0.000037568621 Rises=F Damp=F
 DIIS: error= 8.94D-05 at cycle   7 NSaved=   7.
 NSaved= 7 IEnMin= 7 EnMin= -1100.00037855825     IErMin= 7 ErrMin= 8.94D-05
 ErrMax= 8.94D-05  0.00D+00 EMaxC= 1.00D-01 BMatC= 2.97D-05 BMatP= 8.84D-05
 IDIUse=1 WtCom= 1.00D+00 WtEn= 0.00D+00
 Coeff-Com:  0.254D-02-0.451D-02-0.380D-01-0.595D-01-0.853D-01 0.422D+00
 Coeff-Com:  0.763D+00
 Coeff:      0.254D-02-0.451D-02-0.380D-01-0.595D-01-0.853D-01 0.422D+00
 Coeff:      0.763D+00
 Gap=     0.366 Goal=   None    Shift=    0.000
 Gap=     0.354 Goal=   None    Shift=    0.000
 RMSDP=1.16D-05 MaxDP=1.22D-03 DE=-3.76D-05 OVMax= 1.85D-03

 Cycle   8  Pass 0  IDiag  1:
 E= -1100.00038894920     Delta-E=       -0.000010390958 Rises=F Damp=F
 DIIS: error= 4.35D-05 at cycle   8 NSaved=   8.
 NSaved= 8 IEnMin= 8 EnMin= -1100.00038894920     IErMin= 8 ErrMin= 4.35D-05
 ErrMax= 4.35D-05  0.00D+00 EMaxC= 1.00D-01 BMatC= 5.97D-06 BMatP= 2.97D-05
 IDIUse=1 WtCom= 1.00D+00 WtEn= 0.00D+00
 Coeff-Com:  0.658D-03-0.348D-03-0.817D-02-0.208D-01-0.826D-01 0.271D-01
 Coeff-Com:  0.367D+00 0.717D+00
 Coeff:      0.658D-03-0.348D-03-0.817D-02-0.208D-01-0.826D-01 0.271D-01
 Coeff:      0.367D+00 0.717D+00
 Gap=     0.366 Goal=   None    Shift=    0.000
 Gap=     0.354 Goal=   None    Shift=    0.000
 RMSDP=4.13D-06 MaxDP=3.13D-04 DE=-1.04D-05 OVMax= 6.69D-04

 Initial convergence to 1.0D-05 achieved.  Increase integral accuracy.
 Cycle   9  Pass 1  IDiag  1:
 E= -1100.00039167978     Delta-E=       -0.000002730571 Rises=F Damp=F
 DIIS: error= 2.13D-05 at cycle   1 NSaved=   1.
 NSaved= 1 IEnMin= 1 EnMin= -1100.00039167978     IErMin= 1 ErrMin= 2.13D-05
 ErrMax= 2.13D-05  0.00D+00 EMaxC= 1.00D-01 BMatC= 2.80D-06 BMatP= 2.80D-06
 IDIUse=1 WtCom= 1.00D+00 WtEn= 0.00D+00
 Coeff-Com:  0.100D+01
 Coeff:      0.100D+01
 Gap=     0.366 Goal=   None    Shift=    0.000
 Gap=     0.354 Goal=   None    Shift=    0.000
 RMSDP=4.13D-06 MaxDP=3.13D-04 DE=-2.73D-06 OVMax= 1.95D-04

 Cycle  10  Pass 1  IDiag  1:
 E= -1100.00039215389     Delta-E=       -0.000000474118 Rises=F Damp=F
 DIIS: error= 1.61D-05 at cycle   2 NSaved=   2.
 NSaved= 2 IEnMin= 2 EnMin= -1100.00039215389     IErMin= 2 ErrMin= 1.61D-05
 ErrMax= 1.61D-05  0.00D+00 EMaxC= 1.00D-01 BMatC= 9.48D-07 BMatP= 2.80D-06
 IDIUse=1 WtCom= 1.00D+00 WtEn= 0.00D+00
 Coeff-Com:  0.298D+00 0.702D+00
 Coeff:      0.298D+00 0.702D+00
 Gap=     0.366 Goal=   None    Shift=    0.000
 Gap=     0.354 Goal=   None    Shift=    0.000
 RMSDP=1.48D-06 MaxDP=7.84D-05 DE=-4.74D-07 OVMax= 1.31D-04

 Cycle  11  Pass 1  IDiag  1:
 E= -1100.00039224878     Delta-E=       -0.000000094884 Rises=F Damp=F
 DIIS: error= 1.10D-05 at cycle   3 NSaved=   3.
 NSaved= 3 IEnMin= 3 EnMin= -1100.00039224878     IErMin= 3 ErrMin= 1.10D-05
 ErrMax= 1.10D-05  0.00D+00 EMaxC= 1.00D-01 BMatC= 4.70D-07 BMatP= 9.48D-07
 IDIUse=1 WtCom= 1.00D+00 WtEn= 0.00D+00
 Coeff-Com: -0.443D-01 0.411D+00 0.633D+00
 Coeff:     -0.443D-01 0.411D+00 0.633D+00
 Gap=     0.366 Goal=   None    Shift=    0.000
 Gap=     0.354 Goal=   None    Shift=    0.000
 RMSDP=7.63D-07 MaxDP=5.53D-05 DE=-9.49D-08 OVMax= 6.12D-05

 Cycle  12  Pass 1  IDiag  1:
 E= -1100.00039232911     Delta-E=       -0.000000080332 Rises=F Damp=F
 DIIS: error= 2.04D-06 at cycle   4 NSaved=   4.
 NSaved= 4 IEnMin= 4 EnMin= -1100.00039232911     IErMin= 4 ErrMin= 2.04D-06
 ErrMax= 2.04D-06  0.00D+00 EMaxC= 1.00D-01 BMatC= 1.38D-08 BMatP= 4.70D-07
 IDIUse=1 WtCom= 1.00D+00 WtEn= 0.00D+00
 Coeff-Com: -0.258D-01 0.119D+00 0.216D+00 0.691D+00
 Coeff:     -0.258D-01 0.119D+00 0.216D+00 0.691D+00
 Gap=     0.366 Goal=   None    Shift=    0.000
 Gap=     0.354 Goal=   None    Shift=    0.000
 RMSDP=1.87D-07 MaxDP=1.53D-05 DE=-8.03D-08 OVMax= 1.71D-05

 Cycle  13  Pass 1  IDiag  1:
 E= -1100.00039233274     Delta-E=       -0.000000003631 Rises=F Damp=F
 DIIS: error= 1.10D-06 at cycle   5 NSaved=   5.
 NSaved= 5 IEnMin= 5 EnMin= -1100.00039233274     IErMin= 5 ErrMin= 1.10D-06
 ErrMax= 1.10D-06  0.00D+00 EMaxC= 1.00D-01 BMatC= 3.80D-09 BMatP= 1.38D-08
 IDIUse=1 WtCom= 1.00D+00 WtEn= 0.00D+00
 Coeff-Com:  0.444D-02-0.907D-01-0.136D+00 0.252D+00 0.970D+00
 Coeff:      0.444D-02-0.907D-01-0.136D+00 0.252D+00 0.970D+00
 Gap=     0.366 Goal=   None    Shift=    0.000
 Gap=     0.354 Goal=   None    Shift=    0.000
 RMSDP=1.44D-07 MaxDP=9.38D-06 DE=-3.63D-09 OVMax= 2.22D-05

 Cycle  14  Pass 1  IDiag  1:
 E= -1100.00039233430     Delta-E=       -0.000000001557 Rises=F Damp=F
 DIIS: error= 4.06D-07 at cycle   6 NSaved=   6.
 NSaved= 6 IEnMin= 6 EnMin= -1100.00039233430     IErMin= 6 ErrMin= 4.06D-07
 ErrMax= 4.06D-07  0.00D+00 EMaxC= 1.00D-01 BMatC= 7.16D-10 BMatP= 3.80D-09
 IDIUse=1 WtCom= 1.00D+00 WtEn= 0.00D+00
 Coeff-Com:  0.607D-02-0.598D-01-0.945D-01 0.732D-02 0.427D+00 0.714D+00
 Coeff:      0.607D-02-0.598D-01-0.945D-01 0.732D-02 0.427D+00 0.714D+00
 Gap=     0.366 Goal=   None    Shift=    0.000
 Gap=     0.354 Goal=   None    Shift=    0.000
 RMSDP=4.80D-08 MaxDP=2.72D-06 DE=-1.56D-09 OVMax= 6.38D-06

 Cycle  15  Pass 1  IDiag  1:
 E= -1100.00039233458     Delta-E=       -0.000000000281 Rises=F Damp=F
 DIIS: error= 1.90D-07 at cycle   7 NSaved=   7.
 NSaved= 7 IEnMin= 7 EnMin= -1100.00039233458     IErMin= 7 ErrMin= 1.90D-07
 ErrMax= 1.90D-07  0.00D+00 EMaxC= 1.00D-01 BMatC= 8.37D-11 BMatP= 7.16D-10
 IDIUse=1 WtCom= 1.00D+00 WtEn= 0.00D+00
 Coeff-Com:  0.729D-03-0.318D-03 0.166D-03-0.424D-01-0.593D-01 0.215D+00
 Coeff-Com:  0.887D+00
 Coeff:      0.729D-03-0.318D-03 0.166D-03-0.424D-01-0.593D-01 0.215D+00
 Coeff:      0.887D+00
 Gap=     0.366 Goal=   None    Shift=    0.000
 Gap=     0.354 Goal=   None    Shift=    0.000
 RMSDP=2.47D-08 MaxDP=3.11D-06 DE=-2.81D-10 OVMax= 2.98D-06

 Cycle  16  Pass 1  IDiag  1:
 E= -1100.00039233454     Delta-E=        0.000000000035 Rises=F Damp=F
 DIIS: error= 8.86D-08 at cycle   8 NSaved=   8.
 NSaved= 8 IEnMin= 7 EnMin= -1100.00039233458     IErMin= 8 ErrMin= 8.86D-08
 ErrMax= 8.86D-08  0.00D+00 EMaxC= 1.00D-01 BMatC= 2.99D-11 BMatP= 8.37D-11
 IDIUse=1 WtCom= 1.00D+00 WtEn= 0.00D+00
 Coeff-Com: -0.461D-03 0.848D-02 0.139D-01-0.246D-01-0.962D-01 0.122D-01
 Coeff-Com:  0.496D+00 0.590D+00
 Coeff:     -0.461D-03 0.848D-02 0.139D-01-0.246D-01-0.962D-01 0.122D-01
 Coeff:      0.496D+00 0.590D+00
 Gap=     0.366 Goal=   None    Shift=    0.000
 Gap=     0.354 Goal=   None    Shift=    0.000
 RMSDP=7.89D-09 MaxDP=1.01D-06 DE= 3.46D-11 OVMax= 9.40D-07

 Cycle  17  Pass 1  IDiag  1:
 E= -1100.00039233464     Delta-E=       -0.000000000095 Rises=F Damp=F
 DIIS: error= 1.79D-08 at cycle   9 NSaved=   9.
 NSaved= 9 IEnMin= 9 EnMin= -1100.00039233464     IErMin= 9 ErrMin= 1.79D-08
 ErrMax= 1.79D-08  0.00D+00 EMaxC= 1.00D-01 BMatC= 1.14D-12 BMatP= 2.99D-11
 IDIUse=1 WtCom= 1.00D+00 WtEn= 0.00D+00
 Coeff-Com: -0.229D-03 0.293D-02 0.448D-02-0.370D-02-0.242D-01-0.214D-01
 Coeff-Com:  0.556D-01 0.164D+00 0.823D+00
 Coeff:     -0.229D-03 0.293D-02 0.448D-02-0.370D-02-0.242D-01-0.214D-01
 Coeff:      0.556D-01 0.164D+00 0.823D+00
 Gap=     0.366 Goal=   None    Shift=    0.000
 Gap=     0.354 Goal=   None    Shift=    0.000
 RMSDP=3.17D-09 MaxDP=5.59D-07 DE=-9.46D-11 OVMax= 2.61D-07

 SCF Done:  E(UM062X) =  -1100.00039233     A.U. after   17 cycles
            NFock= 17  Conv=0.32D-08     -V/T= 2.0028
 <Sx>= 0.0000 <Sy>= 0.0000 <Sz>= 0.5000 <S**2>= 0.7534 S= 0.5017
 <L.S>=  0.00000000000    
 KE= 1.096958489522D+03 PE=-4.157957167333D+03 EE= 1.186220793437D+03
 Annihilation of the first spin contaminant:
 S**2 before annihilation     0.7534,   after     0.7500
 Leave Link  502 at Sat May 24 00:54:02 2025, MaxMem=  3758096384 cpu:             236.4 elap:              63.5
 (Enter /apps/easybuild-2022/easybuild/software/Compiler/NVHPC/22.11-CUDA-11.7.0/Gaussian/g16c01-CUDA-11.7.0/g16/l508.exe)
 QCSCF skips out because SCF is already converged.
 Leave Link  508 at Sat May 24 00:54:02 2025, MaxMem=  3758096384 cpu:               0.0 elap:               0.0
 (Enter /apps/easybuild-2022/easybuild/software/Compiler/NVHPC/22.11-CUDA-11.7.0/Gaussian/g16c01-CUDA-11.7.0/g16/l801.exe)
 DoSCS=F DFT=T ScalE2(SS,OS)=  1.000000  1.000000
 Range of M.O.s used for correlation:     1   335
 NBasis=   335 NAE=    45 NBE=    44 NFC=     0 NFV=     0
 NROrb=    335 NOA=    45 NOB=    44 NVA=   290 NVB=   291

 **** Warning!!: The largest alpha MO coefficient is  0.15854848D+02


 **** Warning!!: The largest beta MO coefficient is  0.15846238D+02

 Leave Link  801 at Sat May 24 00:54:02 2025, MaxMem=  3758096384 cpu:               0.0 elap:               0.0
 (Enter /apps/easybuild-2022/easybuild/software/Compiler/NVHPC/22.11-CUDA-11.7.0/Gaussian/g16c01-CUDA-11.7.0/g16/l1101.exe)
 Using compressed storage, NAtomX=    11.
 Will process     12 centers per pass.
   1 Symmetry operations used in ECPInt.
 ECPInt:  NShTT=    7140 NPrTT=   23456 LenC2=    6766 LenP2D=   16638.
 LDataN:  DoStor=T MaxTD1= 7 Len=  274
 Leave Link 1101 at Sat May 24 00:54:02 2025, MaxMem=  3758096384 cpu:               1.0 elap:               0.2
 (Enter /apps/easybuild-2022/easybuild/software/Compiler/NVHPC/22.11-CUDA-11.7.0/Gaussian/g16c01-CUDA-11.7.0/g16/l1102.exe)
 Symmetrizing basis deriv contribution to polar:
 IMax=3 JMax=2 DiffMx= 0.00D+00
 Leave Link 1102 at Sat May 24 00:54:02 2025, MaxMem=  3758096384 cpu:               0.1 elap:               0.0
 (Enter /apps/easybuild-2022/easybuild/software/Compiler/NVHPC/22.11-CUDA-11.7.0/Gaussian/g16c01-CUDA-11.7.0/g16/l1110.exe)
 Forming Gx(P) for the SCF density, NAtomX=    11.
 Integral derivatives from FoFJK, PRISM(SPDF).
 Do as many integral derivatives as possible in FoFJK.
 G2DrvN: MDV=    3758095115.
 G2DrvN: will do    12 centers at a time, making    1 passes.
 Calling FoFCou, ICntrl=  3107 FMM=F I1Cent=   0 AccDes= 0.00D+00.
 FoFJK:  IHMeth= 1 ICntrl=    3107 DoSepK=F KAlg= 0 I1Cent=           0 FoldK=F
 IRaf=         0 NMat=       1 IRICut=       1 DoRegI=T DoRafI=F ISym2E= 0 IDoP0=0 IntGTp=1.
 FoFCou: FMM=F IPFlag=           0 FMFlag=      100000 FMFlg1=           0
         NFxFlg=           0 DoJE=F BraDBF=F KetDBF=F FulRan=T
         wScrn=  0.000000 ICntrl=      3107 IOpCl=  1 I1Cent=           0 NGrid=           0
         NMat0=    1 NMatS0=      1 NMatT0=    0 NMatD0=    1 NMtDS0=    0 NMtDT0=    0
 Symmetry not used in FoFCou.
 End of G2Drv F.D. properties file   721 does not exist.
 End of G2Drv F.D. properties file   722 does not exist.
 End of G2Drv F.D. properties file   788 does not exist.
 Leave Link 1110 at Sat May 24 00:55:15 2025, MaxMem=  3758096384 cpu:             578.1 elap:              72.9
 (Enter /apps/easybuild-2022/easybuild/software/Compiler/NVHPC/22.11-CUDA-11.7.0/Gaussian/g16c01-CUDA-11.7.0/g16/l1002.exe)
 Minotr:  UHF open shell wavefunction.
          IDoAtm=11111111111
          Direct CPHF calculation.
          Differentiating once with respect to nuclear coordinates.
          Requested convergence is 1.0D-08 RMS, and 1.0D-07 maximum.
          Secondary convergence is 1.0D-12 RMS, and 1.0D-12 maximum.
          NewPWx=T KeepS1=F KeepF1=F KeepIn=T MapXYZ=F SortEE=F KeepMc=T.
         3286 words used for storage of precomputed grid.
 Keep R1 and R2 ints in memory in canonical form, NReq=3196706843.
 FoFCou: FMM=F IPFlag=           0 FMFlag=           0 FMFlg1=           0
         NFxFlg=           0 DoJE=F BraDBF=F KetDBF=F FulRan=T
         wScrn=  0.000000 ICntrl=       600 IOpCl=  0 I1Cent=           0 NGrid=           0
         NMat0=    1 NMatS0=  56280 NMatT0=    0 NMatD0=    1 NMtDS0=    0 NMtDT0=    0
 Symmetry not used in FoFCou.
 Two-electron integral symmetry not used.
          MDV=    3758096384 using IRadAn=       1.
          Solving linear equations simultaneously, MaxMat=       0.
          There are    36 degrees of freedom in the 1st order CPHF.  IDoFFX=6 NUNeed=     0.
     30 vectors produced by pass  0 Test12= 7.18D-14 2.78D-09 XBig12= 4.65D-01 1.43D-01.
 AX will form    30 AO Fock derivatives at one time.
     30 vectors produced by pass  1 Test12= 7.18D-14 2.78D-09 XBig12= 1.31D-01 5.59D-02.
     30 vectors produced by pass  2 Test12= 7.18D-14 2.78D-09 XBig12= 2.90D-03 1.05D-02.
     30 vectors produced by pass  3 Test12= 7.18D-14 2.78D-09 XBig12= 8.93D-05 2.54D-03.
     30 vectors produced by pass  4 Test12= 7.18D-14 2.78D-09 XBig12= 2.33D-06 2.23D-04.
     30 vectors produced by pass  5 Test12= 7.18D-14 2.78D-09 XBig12= 5.77D-08 3.00D-05.
     30 vectors produced by pass  6 Test12= 7.18D-14 2.78D-09 XBig12= 1.12D-09 3.62D-06.
     29 vectors produced by pass  7 Test12= 7.18D-14 2.78D-09 XBig12= 1.20D-11 3.96D-07.
     10 vectors produced by pass  8 Test12= 7.18D-14 2.78D-09 XBig12= 1.25D-13 3.66D-08.
      3 vectors produced by pass  9 Test12= 7.18D-14 2.78D-09 XBig12= 1.44D-15 3.84D-09.
 InvSVY:  IOpt=1 It=  1 EMax= 1.33D-15
 Solved reduced A of dimension   252 with    30 vectors.
 End of Minotr F.D. properties file   721 does not exist.
 End of Minotr F.D. properties file   722 does not exist.
 End of Minotr F.D. properties file   788 does not exist.
 Leave Link 1002 at Sat May 24 00:57:18 2025, MaxMem=  3758096384 cpu:             965.9 elap:             123.1
 (Enter /apps/easybuild-2022/easybuild/software/Compiler/NVHPC/22.11-CUDA-11.7.0/Gaussian/g16c01-CUDA-11.7.0/g16/l701.exe)
 ... and contract with generalized density number  0.
 Compute integral second derivatives.
   1 Symmetry operations used in ECPInt.
 ECPInt:  NShTT=    7140 NPrTT=   23456 LenC2=    6766 LenP2D=   16638.
 LDataN:  DoStor=T MaxTD1= 8 Len=  415
 Leave Link  701 at Sat May 24 00:57:18 2025, MaxMem=  3758096384 cpu:               0.7 elap:               0.1
 (Enter /apps/easybuild-2022/easybuild/software/Compiler/NVHPC/22.11-CUDA-11.7.0/Gaussian/g16c01-CUDA-11.7.0/g16/l702.exe)
 L702 exits ... SP integral derivatives will be done elsewhere.
 Leave Link  702 at Sat May 24 00:57:18 2025, MaxMem=  3758096384 cpu:               0.0 elap:               0.0
 (Enter /apps/easybuild-2022/easybuild/software/Compiler/NVHPC/22.11-CUDA-11.7.0/Gaussian/g16c01-CUDA-11.7.0/g16/l703.exe)
 Integral derivatives from FoFJK, PRISM(SPDF).
 Compute integral second derivatives, UseDBF=F ICtDFT=           0.
 Calling FoFJK, ICntrl=    100127 FMM=F ISym2X=0 I1Cent= 0 IOpClX= 1 NMat=1 NMatS=1 NMatT=0.
 FoFJK:  IHMeth= 1 ICntrl=  100127 DoSepK=F KAlg= 0 I1Cent=           0 FoldK=F
 IRaf=         0 NMat=       1 IRICut=       1 DoRegI=T DoRafI=F ISym2E= 0 IDoP0=0 IntGTp=1.
 FoFCou: FMM=F IPFlag=           0 FMFlag=      100000 FMFlg1=         800
         NFxFlg=           0 DoJE=F BraDBF=F KetDBF=F FulRan=T
         wScrn=  0.000000 ICntrl=    100127 IOpCl=  1 I1Cent=           0 NGrid=           0
         NMat0=    1 NMatS0=      1 NMatT0=    0 NMatD0=    1 NMtDS0=    0 NMtDT0=    0
 Symmetry not used in FoFCou.
 Leave Link  703 at Sat May 24 00:59:18 2025, MaxMem=  3758096384 cpu:             945.7 elap:             119.1
 (Enter /apps/easybuild-2022/easybuild/software/Compiler/NVHPC/22.11-CUDA-11.7.0/Gaussian/g16c01-CUDA-11.7.0/g16/l716.exe)
 Dipole        = 2.17501801D-01 8.75751016D-01 4.66287904D-01
 Polarizability= 0.00000000D+00 0.00000000D+00 0.00000000D+00
                 0.00000000D+00 0.00000000D+00 0.00000000D+00
 -------------------------------------------------------------------
 Center     Atomic                   Forces (Hartrees/Bohr)
 Number     Number              X              Y              Z
 -------------------------------------------------------------------
      1        6          -0.001570380   -0.002059185   -0.000705215
      2        6          -0.004135296   -0.000517413    0.001559836
      3        9           0.005362108    0.006083124    0.001296970
      4        9           0.000702345    0.000512881   -0.000051034
      5       16           0.002880360    0.002725658   -0.020260152
      6        8           0.004489106   -0.011657071    0.011511242
      7        8          -0.001448238   -0.000919583    0.008315933
      8        8          -0.003657567    0.004137464   -0.006154759
      9        9          -0.001453205    0.001615721    0.001806093
     10        9           0.000164739    0.000490849    0.000293270
     11        1          -0.001333973   -0.000412444    0.002387816
 -------------------------------------------------------------------
 Cartesian Forces:  Max     0.020260152 RMS     0.005411590
 Force constants in Cartesian coordinates: 
                1             2             3             4             5 
      1  0.578267D+00
      2  0.457666D-01  0.524813D+00
      3 -0.865176D-01  0.161350D+00  0.324788D+00
      4 -0.883275D-01  0.225251D-01  0.255445D-01  0.467552D+00
      5  0.278557D-01 -0.694083D-01 -0.221340D-01  0.902712D-02  0.521049D+00
      6  0.851663D-01 -0.743621D-01 -0.151997D+00  0.498314D-02  0.317726D-01
      7  0.182632D-02  0.242571D-02  0.166147D-03 -0.101449D+00 -0.814640D-01
      8 -0.189416D-01 -0.354116D-01 -0.127814D-01 -0.723632D-01 -0.271078D+00
      9 -0.167838D-01 -0.328009D-01 -0.391778D-02 -0.154362D-01 -0.505442D-01
     10  0.512247D-02 -0.199603D-02  0.525924D-02 -0.101924D+00  0.447305D-01
     11  0.579837D-03  0.266701D-03  0.620914D-02  0.415042D-01 -0.117597D+00
     12 -0.231805D-01  0.368073D-01 -0.593379D-01 -0.682566D-01  0.903421D-01
     13 -0.153194D-01  0.143008D-01  0.199026D-01 -0.178478D+00  0.596355D-02
     14  0.156678D-01  0.200386D-01  0.532827D-02  0.666551D-02 -0.308951D-01
     15  0.334286D-01  0.517293D-02  0.803433D-02  0.183835D-01 -0.556725D-02
     16  0.936183D-03 -0.465609D-02 -0.240572D-02  0.161943D-01  0.128968D-01
     17 -0.201530D-02 -0.334414D-02 -0.478163D-03 -0.575286D-02  0.869439D-03
     18 -0.490799D-02 -0.159589D-02 -0.442407D-02  0.147934D-01  0.792179D-02
     19 -0.508360D-02 -0.628320D-02 -0.749777D-02  0.709615D-02  0.130857D-01
     20 -0.182281D-03 -0.969554D-03  0.982656D-03 -0.552402D-02 -0.125392D-02
     21 -0.698661D-03  0.201571D-02  0.304637D-02 -0.140079D-01 -0.883306D-02
     22  0.151109D-02 -0.411331D-03 -0.212980D-02  0.123563D-01 -0.236413D-01
     23 -0.273060D-02 -0.887392D-02 -0.403757D-02  0.147976D-01 -0.104246D-01
     24 -0.345870D-02 -0.398971D-02 -0.236620D-02  0.107506D-02 -0.548015D-02
     25 -0.788512D-01 -0.742105D-01 -0.902771D-02  0.595300D-02  0.268067D-02
     26 -0.613893D-01 -0.367486D+00 -0.115839D+00 -0.166684D-01 -0.212745D-01
     27 -0.844327D-02 -0.834743D-01 -0.680295D-01 -0.994258D-02 -0.375137D-01
     28 -0.399017D+00  0.316226D-02  0.567422D-01 -0.396335D-01 -0.101538D-01
     29 -0.360775D-02 -0.598073D-01 -0.186656D-01  0.490437D-02  0.422596D-02
     30  0.252788D-01 -0.102295D-01 -0.466349D-01  0.446839D-01 -0.397917D-02
     31 -0.106423D-02 -0.623290D-03 -0.360650D-04  0.660104D-03 -0.980896D-03
     32 -0.100310D-02  0.181993D-03  0.651400D-04  0.884422D-03 -0.421296D-02
     33  0.116906D-03  0.110615D-02  0.838048D-03 -0.182011D-02  0.401512D-02
                6             7             8             9            10 
      6  0.532742D+00
      7 -0.162930D-01  0.932027D-01
      8 -0.550817D-01  0.100501D+00  0.388307D+00
      9 -0.836657D-01  0.194545D-01  0.490707D-01  0.841128D-01
     10 -0.685022D-01  0.150272D-01 -0.202923D-02  0.696758D-02  0.942441D-01
     11  0.885735D-01  0.905450D-02 -0.629986D-01  0.436537D-01 -0.586259D-01
     12 -0.223270D+00  0.299784D-02  0.270365D-01  0.569794D-02  0.902939D-01
     13 -0.594316D-02 -0.502072D-03 -0.498278D-03  0.267517D-02 -0.292981D-02
     14 -0.117403D-01 -0.367646D-01 -0.272502D-01 -0.426577D-02  0.218940D-01
     15 -0.430354D-01 -0.673883D-02 -0.339655D-02 -0.150442D-02 -0.331324D-01
     16 -0.190192D-01 -0.316872D-02 -0.466109D-02  0.290965D-03 -0.123835D-01
     17  0.685520D-02  0.445166D-02  0.529696D-02 -0.445531D-04  0.152712D-02
     18 -0.549876D-02 -0.285907D-02 -0.471818D-02  0.168488D-02 -0.513980D-02
     19  0.321998D-01 -0.997264D-03 -0.244319D-02 -0.972316D-03 -0.112920D-02
     20 -0.978083D-02  0.347729D-02  0.697240D-02  0.257115D-02 -0.129927D-02
     21 -0.177420D-01  0.178309D-02  0.509135D-02  0.296341D-02  0.465499D-02
     22  0.225444D-02 -0.106553D-01 -0.696074D-02 -0.895542D-03 -0.208438D-02
     23  0.308694D-02 -0.468925D-02 -0.109677D-02  0.299686D-03 -0.537630D-02
     24  0.362143D-02 -0.280114D-02 -0.148546D-02  0.351164D-03  0.137840D-02
     25 -0.533709D-02  0.114522D-02  0.296602D-02  0.333413D-02  0.376785D-03
     26  0.123881D-01  0.220410D-02 -0.413831D-02 -0.826454D-02  0.465697D-03
     27 -0.495779D-02  0.261776D-02 -0.670787D-02 -0.688065D-02  0.450398D-03
     28 -0.863867D-02  0.544789D-02  0.427870D-02  0.118852D-02  0.511130D-02
     29  0.671761D-02  0.195835D-02  0.211853D-02  0.445248D-03 -0.321251D-03
     30 -0.654624D-02 -0.535122D-03  0.204899D-02  0.110926D-02 -0.232349D-02
     31 -0.870340D-03  0.123308D-03  0.152031D-03  0.177014D-03  0.568604D-03
     32  0.157101D-02 -0.115425D-02 -0.721594D-03 -0.120405D-03  0.103069D-02
     33  0.349803D-03  0.220783D-02  0.923522D-03  0.490822D-04  0.933940D-04
               11            12            13            14            15 
     11  0.176756D+00
     12 -0.149517D+00  0.272743D+00
     13  0.215853D-02 -0.180406D-02  0.624528D+00
     14 -0.994757D-02  0.148167D-01 -0.844357D-01  0.690086D+00
     15  0.125075D-01 -0.203538D-01  0.375077D-01  0.102088D-01  0.128351D+01
     16  0.430147D-02 -0.598497D-02 -0.167443D+00  0.748809D-01 -0.187394D+00
     17  0.630795D-03 -0.412958D-03  0.707111D-01 -0.165815D+00  0.199394D+00
     18  0.171589D-02  0.656218D-03 -0.182125D+00  0.197107D+00 -0.587550D+00
     19  0.110458D-02 -0.218904D-02 -0.155363D+00  0.668471D-01  0.155399D+00
     20  0.144755D-02 -0.676093D-03  0.676015D-01 -0.171765D+00 -0.200698D+00
     21 -0.296355D-02  0.853008D-02  0.153216D+00 -0.197095D+00 -0.560052D+00
     22  0.142273D-02 -0.159929D-02 -0.106269D+00 -0.486479D-01 -0.119851D-01
     23  0.434310D-02 -0.385672D-02 -0.213082D-01 -0.269350D+00  0.832566D-02
     24 -0.804813D-03  0.171597D-02 -0.172236D-01 -0.783655D-02 -0.758967D-01
     25  0.383080D-03 -0.489618D-04 -0.174913D-02 -0.556436D-02 -0.308319D-02
     26  0.505230D-02 -0.111082D-01 -0.881384D-02 -0.106423D-01 -0.371962D-02
     27  0.173668D-02  0.552982D-02 -0.288756D-02  0.205072D-03 -0.207786D-02
     28 -0.198262D-02  0.944028D-02  0.106190D-01  0.417020D-03  0.673597D-03
     29  0.120464D-02 -0.328560D-02 -0.268902D-02 -0.271955D-02 -0.199456D-02
     30 -0.720652D-03  0.806072D-02 -0.586670D-02 -0.341830D-02 -0.688409D-02
     31  0.995735D-04  0.331388D-03 -0.709427D-02 -0.109598D-01 -0.305931D-02
     32  0.841520D-03 -0.146077D-03 -0.429904D-01 -0.217388D-01 -0.202331D-01
     33 -0.390355D-03  0.278594D-04  0.254797D-02 -0.330986D-02  0.580579D-02
               16            17            18            19            20 
     16  0.124944D+00
     17 -0.882940D-01  0.168420D+00
     18  0.199750D+00 -0.231374D+00  0.612816D+00
     19  0.240840D-01 -0.433784D-04 -0.156857D-01  0.114708D+00
     20  0.387165D-04  0.175137D-01  0.168665D-01 -0.748651D-01  0.172309D+00
     21  0.129330D-01 -0.183704D-01 -0.183063D-01 -0.164399D+00  0.227754D+00
     22  0.191505D-01  0.119156D-01 -0.205458D-02  0.217181D-01  0.296186D-02
     23 -0.368743D-02 -0.306295D-01  0.112681D-01 -0.599573D-02 -0.233704D-01
     24  0.200440D-02  0.444194D-01  0.104259D-02 -0.350180D-02 -0.345913D-01
     25  0.391634D-03  0.118762D-02  0.543962D-03  0.979313D-03  0.766067D-03
     26  0.322261D-02  0.203969D-02  0.117776D-02  0.330633D-02  0.945966D-03
     27  0.649744D-03 -0.778099D-05  0.132898D-02  0.104340D-02 -0.263868D-03
     28 -0.316601D-02  0.648496D-03 -0.471391D-03 -0.453228D-02  0.163871D-02
     29  0.995443D-03  0.363330D-03  0.371582D-03  0.165450D-02 -0.540733D-04
     30  0.578931D-03  0.118740D-03  0.237465D-02  0.358367D-02 -0.431236D-03
     31  0.460461D-03  0.566399D-02 -0.184448D-02 -0.147990D-02  0.538657D-02
     32  0.496270D-02  0.465536D-02  0.125966D-02  0.363243D-02 -0.177569D-02
     33 -0.140395D-02 -0.988074D-04 -0.412421D-02  0.201959D-02 -0.173328D-02
               21            22            23            24            25 
     21  0.582944D+00
     22 -0.783209D-03  0.463999D+00
     23 -0.625103D-02  0.128234D+00  0.375074D+00
     24  0.162505D-02  0.211908D+00  0.340987D-01  0.165186D+00
     25  0.465621D-03 -0.516838D-02  0.273726D-02  0.498348D-02  0.113250D+00
     26 -0.472086D-03  0.153022D-02  0.706808D-02  0.278592D-02  0.127467D+00
     27 -0.251764D-03  0.477489D-02  0.568849D-03 -0.116686D-02  0.206669D-01
     28  0.361131D-02 -0.248928D-02 -0.160138D-02  0.148546D-03 -0.366976D-01
     29 -0.723145D-03  0.552181D-03  0.175813D-02  0.832567D-03 -0.587734D-01
     30 -0.105032D-02  0.799381D-03  0.153534D-02  0.874285D-03 -0.125422D-01
     31  0.322424D-02 -0.392068D+00 -0.100380D+00 -0.194512D+00  0.370302D-03
     32 -0.152391D-03 -0.669558D-01 -0.444977D-01 -0.279486D-01  0.360070D-03
     33 -0.170692D-02 -0.200289D+00 -0.450380D-01 -0.949864D-01  0.450716D-04
               26            27            28            29            30 
     26  0.398837D+00
     27  0.126494D+00  0.706843D-01
     28 -0.519141D-01 -0.916620D-02  0.463586D+00
     29 -0.102446D-01 -0.759248D-03  0.552565D-01  0.631904D-01
     30 -0.228640D-02  0.661045D-02 -0.536057D-01  0.173071D-01  0.422879D-01
     31  0.589210D-03  0.236508D-03  0.771987D-03  0.701427D-04 -0.513894D-04
     32 -0.157839D-03 -0.277665D-03  0.250325D-03 -0.354414D-04  0.550904D-04
     33 -0.115597D-02 -0.789094D-03  0.774771D-04 -0.245909D-03 -0.201736D-03
               31            32            33 
     31  0.398752D+00
     32  0.100983D+00  0.674611D-01
     33  0.196405D+00  0.459274D-01  0.947378D-01
 FormGI is forming the generalized inverse of G from B-inverse, IUseBI=4.
 Leave Link  716 at Sat May 24 00:59:18 2025, MaxMem=  3758096384 cpu:               0.0 elap:               0.0
 (Enter /apps/easybuild-2022/easybuild/software/Compiler/NVHPC/22.11-CUDA-11.7.0/Gaussian/g16c01-CUDA-11.7.0/g16/l103.exe)

 GradGradGradGradGradGradGradGradGradGradGradGradGradGradGradGradGradGrad
 Berny optimization.
 Red2BG is reusing G-inverse.
 Internal  Forces:  Max     0.015677274 RMS     0.004231575
 Search for a local minimum.
 Step number   1 out of a maximum of   54
 All quantities printed in internal units (Hartrees-Bohrs-Radians)
 RMS Force = .42316D-02 SwitMx=.10000D-02 MixMth= 1
 Mixed Optimization -- RFO/linear search
 Second derivative matrix not updated -- analytic derivatives used.
 ITU=  0
     Eigenvalues ---   -0.00246   0.00102   0.00368   0.05164   0.05743
     Eigenvalues ---    0.09997   0.10817   0.11308   0.11732   0.13789
     Eigenvalues ---    0.14481   0.15930   0.18764   0.19679   0.22302
     Eigenvalues ---    0.23947   0.24814   0.30214   0.37217   0.37924
     Eigenvalues ---    0.39279   0.43644   0.48701   0.52465   0.55339
     Eigenvalues ---    0.73964   0.78759
 Eigenvalue     1 is  -2.46D-03 should be greater than     0.000000 Eigenvector:
                          D17       D18       D16       D3        D6
   1                   -0.57630  -0.57591  -0.57123  -0.03545  -0.03365
                          A12       D13       D2        D10       D5
   1                    0.03252  -0.02675  -0.02415  -0.02323  -0.02235
 RFO step:  Lambda=-4.33724856D-03 EMin=-2.46225332D-03
 Linear search not attempted -- first point.
 Iteration  1 RMS(Cart)=  0.04522490 RMS(Int)=  0.06710010
 Iteration  2 RMS(Cart)=  0.04629807 RMS(Int)=  0.01547404
 Iteration  3 RMS(Cart)=  0.01405175 RMS(Int)=  0.00044336
 Iteration  4 RMS(Cart)=  0.00038957 RMS(Int)=  0.00004093
 Iteration  5 RMS(Cart)=  0.00000023 RMS(Int)=  0.00004093
 ITry= 1 IFail=0 DXMaxC= 4.10D-01 DCOld= 1.00D+10 DXMaxT= 3.00D-01 DXLimC= 3.00D+00 Rises=F
 Variable       Old X    -DE/DX   Delta X   Delta X   Delta X     New X
                                 (Linear)    (Quad)   (Total)
    R1        2.85127   0.00226   0.00000   0.00323   0.00323   2.85451
    R2        2.47633   0.00150   0.00000   0.00528   0.00528   2.48161
    R3        2.47973  -0.00019   0.00000  -0.00066  -0.00066   2.47906
    R4        2.53352  -0.00754   0.00000  -0.01375  -0.01375   2.51977
    R5        2.53314   0.00010   0.00000   0.00290   0.00290   2.53604
    R6        3.47467   0.00093   0.00000   0.00013   0.00013   3.47480
    R7        2.66756   0.01568   0.00000   0.02145   0.02145   2.68901
    R8        2.68471  -0.00738   0.00000  -0.01551  -0.01551   2.66920
    R9        2.97013   0.00288   0.00000   0.00486   0.00486   2.97498
   R10        1.82951  -0.00024   0.00000  -0.00065  -0.00065   1.82886
    A1        1.99988   0.00395   0.00000   0.01287   0.01287   2.01275
    A2        1.98400  -0.00037   0.00000  -0.00300  -0.00299   1.98100
    A3        1.95968  -0.00230   0.00000  -0.00677  -0.00677   1.95291
    A4        1.90023  -0.00104   0.00000  -0.00513  -0.00501   1.89522
    A5        1.95329  -0.00169   0.00000  -0.00099  -0.00100   1.95229
    A6        1.94185   0.00811   0.00000   0.02158   0.02161   1.96346
    A7        1.89100   0.00218   0.00000   0.00634   0.00627   1.89726
    A8        1.87824  -0.00579   0.00000  -0.01628  -0.01627   1.86197
    A9        1.89709  -0.00207   0.00000  -0.00647  -0.00655   1.89054
   A10        1.89053  -0.00085   0.00000  -0.00354  -0.00347   1.88705
   A11        1.85250   0.00301   0.00000   0.00809   0.00813   1.86063
   A12        1.73157  -0.01097   0.00000  -0.01665  -0.01661   1.71496
   A13        2.15735  -0.00427   0.00000  -0.01556  -0.01562   2.14174
   A14        1.87429   0.00785   0.00000   0.01839   0.01835   1.89264
   A15        1.91045   0.00317   0.00000   0.00775   0.00777   1.91822
   A16        1.92494  -0.00105   0.00000  -0.00972  -0.00972   1.91522
    D1        3.06259  -0.00112   0.00000  -0.00291  -0.00291   3.05968
    D2       -1.13070  -0.00014   0.00000   0.00099   0.00097  -1.12973
    D3        0.99546   0.00179   0.00000   0.00738   0.00740   1.00286
    D4       -0.93449  -0.00101   0.00000  -0.00324  -0.00324  -0.93773
    D5        1.15541  -0.00003   0.00000   0.00066   0.00064   1.15605
    D6       -3.00161   0.00190   0.00000   0.00705   0.00707  -2.99455
    D7        0.74373   0.00141   0.00000  -0.03945  -0.03947   0.70426
    D8        3.09384  -0.00243   0.00000  -0.05594  -0.05596   3.03788
    D9       -1.20890  -0.00231   0.00000  -0.05152  -0.05157  -1.26046
   D10       -1.33657   0.00157   0.00000  -0.03559  -0.03553  -1.37210
   D11        1.01353  -0.00227   0.00000  -0.05208  -0.05201   0.96152
   D12        2.99399  -0.00215   0.00000  -0.04766  -0.04763   2.94636
   D13        2.90224   0.00324   0.00000  -0.03082  -0.03084   2.87140
   D14       -1.03084  -0.00060   0.00000  -0.04731  -0.04732  -1.07817
   D15        0.94961  -0.00048   0.00000  -0.04288  -0.04293   0.90667
   D16        2.66842  -0.00236   0.00000  -0.45659  -0.45663   2.21179
   D17        0.70300   0.00062   0.00000  -0.45158  -0.45147   0.25153
   D18       -1.67999  -0.00288   0.00000  -0.45259  -0.45265  -2.13264
         Item               Value     Threshold  Converged?
 Maximum Force            0.015677     0.000015     NO 
 RMS     Force            0.004232     0.000010     NO 
 Maximum Displacement     0.410395     0.000060     NO 
 RMS     Displacement     0.096064     0.000040     NO 
 Predicted change in Energy=-3.497629D-03
 Lowest energy point so far.  Saving SCF results.
 GradGradGradGradGradGradGradGradGradGradGradGradGradGradGradGradGradGrad

 Leave Link  103 at Sat May 24 00:59:18 2025, MaxMem=  3758096384 cpu:               0.1 elap:               0.0
 (Enter /apps/easybuild-2022/easybuild/software/Compiler/NVHPC/22.11-CUDA-11.7.0/Gaussian/g16c01-CUDA-11.7.0/g16/l202.exe)
                          Input orientation:                          
 ---------------------------------------------------------------------
 Center     Atomic      Atomic             Coordinates (Angstroms)
 Number     Number       Type             X           Y           Z
 ---------------------------------------------------------------------
      1          6           0       -0.517514    0.511723    1.317964
      2          6           0        0.020678    0.013706   -0.002664
      3          9           0       -0.393717   -1.240529   -0.184719
      4          9           0       -0.407756    0.762070   -1.030964
      5         16           0        1.858576   -0.026427   -0.043323
      6          8           0        2.318942   -0.498353    1.217697
      7          8           0        2.222136   -0.634840   -1.265106
      8          8           0        2.117052    1.524651   -0.119136
      9          9           0       -0.108313    1.706955    1.676429
     10          9           0       -1.818011    0.384611    1.434315
     11          1           0        2.724756    1.789512    0.585963
 ---------------------------------------------------------------------
                    Distance matrix (angstroms):
                    1          2          3          4          5
     1  C    0.000000
     2  C    1.510539   0.000000
     3  F    2.311660   1.333407   0.000000
     4  F    2.364780   1.342016   2.174105   0.000000
     5  S    2.790791   1.838786   2.562589   2.594885   0.000000
     6  O    3.012604   2.652075   3.142628   3.752336   1.422962
     7  O    3.936057   2.619312   2.894268   2.987058   1.412478
     8  O    3.167368   2.586756   3.735571   2.790631   1.574294
     9  F    1.313210   2.388112   3.497569   2.883132   3.135413
    10  F    1.311864   2.362891   2.700179   2.865117   3.983674
    11  H    3.561023   3.288162   4.415878   3.671883   2.108057
                    6          7          8          9         10
     6  O    0.000000
     7  O    2.488435   0.000000
     8  O    2.433193   2.446976   0.000000
     9  F    3.311402   4.423531   2.865230   0.000000
    10  F    4.235673   4.964770   4.381509   2.174920   0.000000
    11  H    2.407924   3.091370   0.967791   3.036810   4.830132
                   11
    11  H    0.000000
 Symmetry turned off by external request.
 Stoichiometry    C2HF4O3S
 Rotational constants (GHZ):           1.8665875           1.0118470           0.8812088
 Leave Link  202 at Sat May 24 00:59:18 2025, MaxMem=  3758096384 cpu:               0.0 elap:               0.0
 (Enter /apps/easybuild-2022/easybuild/software/Compiler/NVHPC/22.11-CUDA-11.7.0/Gaussian/g16c01-CUDA-11.7.0/g16/l301.exe)
 Standard basis: def2TZVPP (5D, 7F)
 Ernie: Thresh=  0.10000D-02 Tol=  0.10000D-05 Strict=F.
   335 basis functions,   545 primitive gaussians,   387 cartesian basis functions
    45 alpha electrons       44 beta electrons
       nuclear repulsion energy       774.2132157156 Hartrees.
 IExCor= 4336 DFT=T Ex+Corr=M062X ExCW=0 ScaHFX=  0.540000
 ScaDFX=  1.000000  1.000000  1.000000  1.000000 ScalE2=  1.000000  1.000000
 IRadAn=      5 IRanWt=     -1 IRanGd=            0 ICorTp=0 IEmpDi=  4
 NAtoms=   11 NActive=   11 NUniq=   11 SFac= 1.00D+00 NAtFMM=   60 NAOKFM=F Big=F
 Integral buffers will be    131072 words long.
 Raffenetti 2 integral format.
 Two-electron integral symmetry is turned off.
 Leave Link  301 at Sat May 24 00:59:18 2025, MaxMem=  3758096384 cpu:               0.0 elap:               0.0
 (Enter /apps/easybuild-2022/easybuild/software/Compiler/NVHPC/22.11-CUDA-11.7.0/Gaussian/g16c01-CUDA-11.7.0/g16/l302.exe)
 NPDir=0 NMtPBC=     1 NCelOv=     1 NCel=       1 NClECP=     1 NCelD=      1
         NCelK=      1 NCelE2=     1 NClLst=     1 CellRange=     0.0.
 One-electron integrals computed using PRISM.
   1 Symmetry operations used in ECPInt.
 ECPInt:  NShTT=    7140 NPrTT=   23456 LenC2=    6771 LenP2D=   16664.
 LDataN:  DoStor=T MaxTD1= 6 Len=  172
 NBasis=   335 RedAO= T EigKep=  5.14D-04  NBF=   335
 NBsUse=   335 1.00D-06 EigRej= -1.00D+00 NBFU=   335
 Precomputing XC quadrature grid using
 IXCGrd= 4 IRadAn=           5 IRanWt=          -1 IRanGd=           0 AccXCQ= 0.00D+00.
 Generated NRdTot=       0 NPtTot=           0 NUsed=           0 NTot=          32
 NSgBfM=   384   383   383   383   384 MxSgAt=    11 MxSgA2=    11.
 Leave Link  302 at Sat May 24 00:59:18 2025, MaxMem=  3758096384 cpu:               0.7 elap:               0.1
 (Enter /apps/easybuild-2022/easybuild/software/Compiler/NVHPC/22.11-CUDA-11.7.0/Gaussian/g16c01-CUDA-11.7.0/g16/l303.exe)
 DipDrv:  MaxL=1.
 Leave Link  303 at Sat May 24 00:59:18 2025, MaxMem=  3758096384 cpu:               0.1 elap:               0.0
 (Enter /apps/easybuild-2022/easybuild/software/Compiler/NVHPC/22.11-CUDA-11.7.0/Gaussian/g16c01-CUDA-11.7.0/g16/l401.exe)
 Initial guess from the checkpoint file:  "/tmp/Gau-299066.chk"
 B after Tr=     0.024203   -0.002151   -0.012675
         Rot=    0.999957    0.004723   -0.006285    0.005016 Ang=   1.07 deg.
 Guess basis will be translated and rotated to current coordinates.
 JPrj=2 DoOrth=T DoCkMO=T.
 Initial guess <Sx>= 0.0000 <Sy>= 0.0000 <Sz>= 0.5000 <S**2>= 0.7535 S= 0.5017
 Generating alternative initial guess.
 ExpMin= 9.52D-02 ExpMax= 6.07D+04 ExpMxC= 2.07D+03 IAcc=3 IRadAn=         5 AccDes= 0.00D+00
 Harris functional with IExCor= 1009 and IRadAn=       5 diagonalized for initial guess.
 HarFok:  IExCor= 1009 AccDes= 0.00D+00 IRadAn=         5 IDoV= 1 UseB2=F ITyADJ=14
 ICtDFT=  3500011 ScaDFX=  1.000000  1.000000  1.000000  1.000000
 FoFCou: FMM=F IPFlag=           0 FMFlag=      100000 FMFlg1=           0
         NFxFlg=           0 DoJE=T BraDBF=F KetDBF=T FulRan=T
         wScrn=  0.000000 ICntrl=       500 IOpCl=  0 I1Cent=   200000004 NGrid=           0
         NMat0=    1 NMatS0=      1 NMatT0=    0 NMatD0=    1 NMtDS0=    0 NMtDT0=    0
 Symmetry not used in FoFCou.
 Harris En= -1099.44237061027    
 Leave Link  401 at Sat May 24 00:59:19 2025, MaxMem=  3758096384 cpu:               4.2 elap:               0.6
 (Enter /apps/easybuild-2022/easybuild/software/Compiler/NVHPC/22.11-CUDA-11.7.0/Gaussian/g16c01-CUDA-11.7.0/g16/l502.exe)
 Keep R1 and R2 ints in memory in canonical form, NReq=3196701089.
 FoFCou: FMM=F IPFlag=           0 FMFlag=           0 FMFlg1=           0
         NFxFlg=           0 DoJE=F BraDBF=F KetDBF=F FulRan=T
         wScrn=  0.000000 ICntrl=       600 IOpCl=  0 I1Cent=           0 NGrid=           0
         NMat0=    1 NMatS0=  56280 NMatT0=    0 NMatD0=    1 NMtDS0=    0 NMtDT0=    0
 Symmetry not used in FoFCou.
 Two-electron integral symmetry not used.
 UHF open shell SCF:
 Using DIIS extrapolation, IDIIS=  1040.
 NGot=  3758096384 LenX=   590296375 LenY=   590146165
 Requested convergence on RMS density matrix=1.00D-08 within  32 cycles.
 Requested convergence on MAX density matrix=1.00D-06.
 Requested convergence on             energy=1.00D-06.
 No special actions if energy rises.
 Integral accuracy reduced to 1.0D-05 until final iterations.

 Cycle   1  Pass 0  IDiag  1:
 E= -1099.97756791819    
 DIIS: error= 7.46D-03 at cycle   1 NSaved=   1.
 NSaved= 1 IEnMin= 1 EnMin= -1099.97756791819     IErMin= 1 ErrMin= 7.46D-03
 ErrMax= 7.46D-03  0.00D+00 EMaxC= 1.00D-01 BMatC= 9.77D-02 BMatP= 9.77D-02
 IDIUse=3 WtCom= 9.25D-01 WtEn= 7.46D-02
 Coeff-Com:  0.100D+01
 Coeff-En:   0.100D+01
 Coeff:      0.100D+01
 Gap=     0.976 Goal=   None    Shift=    0.000
 Gap=     1.029 Goal=   None    Shift=    0.000
 GapD=    0.976 DampG=2.000 DampE=1.000 DampFc=2.0000 IDamp=-1.
 RMSDP=4.84D-04 MaxDP=3.28D-02              OVMax= 4.83D-02

 Cycle   2  Pass 0  IDiag  1:
 E= -1100.00202887243     Delta-E=       -0.024460954242 Rises=F Damp=F
 DIIS: error= 1.79D-03 at cycle   2 NSaved=   2.
 NSaved= 2 IEnMin= 2 EnMin= -1100.00202887243     IErMin= 2 ErrMin= 1.79D-03
 ErrMax= 1.79D-03  0.00D+00 EMaxC= 1.00D-01 BMatC= 4.37D-03 BMatP= 9.77D-02
 IDIUse=3 WtCom= 9.82D-01 WtEn= 1.79D-02
 Coeff-Com: -0.413D-01 0.104D+01
 Coeff-En:   0.000D+00 0.100D+01
 Coeff:     -0.405D-01 0.104D+01
 Gap=     0.369 Goal=   None    Shift=    0.000
 Gap=     0.356 Goal=   None    Shift=    0.000
 RMSDP=1.18D-04 MaxDP=6.93D-03 DE=-2.45D-02 OVMax= 1.31D-02

 Cycle   3  Pass 0  IDiag  1:
 E= -1100.00285592379     Delta-E=       -0.000827051358 Rises=F Damp=F
 DIIS: error= 1.22D-03 at cycle   3 NSaved=   3.
 NSaved= 3 IEnMin= 3 EnMin= -1100.00285592379     IErMin= 3 ErrMin= 1.22D-03
 ErrMax= 1.22D-03  0.00D+00 EMaxC= 1.00D-01 BMatC= 3.16D-03 BMatP= 4.37D-03
 IDIUse=3 WtCom= 9.88D-01 WtEn= 1.22D-02
 Coeff-Com: -0.604D-01 0.494D+00 0.566D+00
 Coeff-En:   0.000D+00 0.000D+00 0.100D+01
 Coeff:     -0.597D-01 0.488D+00 0.572D+00
 Gap=     0.371 Goal=   None    Shift=    0.000
 Gap=     0.355 Goal=   None    Shift=    0.000
 RMSDP=5.75D-05 MaxDP=3.87D-03 DE=-8.27D-04 OVMax= 5.78D-03

 Cycle   4  Pass 0  IDiag  1:
 E= -1100.00336332584     Delta-E=       -0.000507402050 Rises=F Damp=F
 DIIS: error= 3.00D-04 at cycle   4 NSaved=   4.
 NSaved= 4 IEnMin= 4 EnMin= -1100.00336332584     IErMin= 4 ErrMin= 3.00D-04
 ErrMax= 3.00D-04  0.00D+00 EMaxC= 1.00D-01 BMatC= 2.28D-04 BMatP= 3.16D-03
 IDIUse=3 WtCom= 9.97D-01 WtEn= 3.00D-03
 Coeff-Com: -0.137D-01 0.347D-01 0.216D+00 0.763D+00
 Coeff-En:   0.000D+00 0.000D+00 0.000D+00 0.100D+01
 Coeff:     -0.137D-01 0.346D-01 0.215D+00 0.764D+00
 Gap=     0.370 Goal=   None    Shift=    0.000
 Gap=     0.354 Goal=   None    Shift=    0.000
 RMSDP=1.85D-05 MaxDP=8.72D-04 DE=-5.07D-04 OVMax= 2.00D-03

 Cycle   5  Pass 0  IDiag  1:
 E= -1100.00340775698     Delta-E=       -0.000044431145 Rises=F Damp=F
 DIIS: error= 1.09D-04 at cycle   5 NSaved=   5.
 NSaved= 5 IEnMin= 5 EnMin= -1100.00340775698     IErMin= 5 ErrMin= 1.09D-04
 ErrMax= 1.09D-04  0.00D+00 EMaxC= 1.00D-01 BMatC= 2.63D-05 BMatP= 2.28D-04
 IDIUse=3 WtCom= 9.99D-01 WtEn= 1.09D-03
 Coeff-Com:  0.336D-03-0.388D-01 0.327D-01 0.324D+00 0.682D+00
 Coeff-En:   0.000D+00 0.000D+00 0.000D+00 0.000D+00 0.100D+01
 Coeff:      0.336D-03-0.387D-01 0.327D-01 0.323D+00 0.682D+00
 Gap=     0.370 Goal=   None    Shift=    0.000
 Gap=     0.355 Goal=   None    Shift=    0.000
 RMSDP=6.68D-06 MaxDP=2.77D-04 DE=-4.44D-05 OVMax= 6.99D-04

 Initial convergence to 1.0D-05 achieved.  Increase integral accuracy.
 Cycle   6  Pass 1  IDiag  1:
 E= -1100.00343449048     Delta-E=       -0.000026733495 Rises=F Damp=F
 DIIS: error= 4.26D-05 at cycle   1 NSaved=   1.
 NSaved= 1 IEnMin= 1 EnMin= -1100.00343449048     IErMin= 1 ErrMin= 4.26D-05
 ErrMax= 4.26D-05  0.00D+00 EMaxC= 1.00D-01 BMatC= 5.71D-06 BMatP= 5.71D-06
 IDIUse=1 WtCom= 1.00D+00 WtEn= 0.00D+00
 Coeff-Com:  0.100D+01
 Coeff:      0.100D+01
 Gap=     0.370 Goal=   None    Shift=    0.000
 Gap=     0.355 Goal=   None    Shift=    0.000
 RMSDP=6.68D-06 MaxDP=2.77D-04 DE=-2.67D-05 OVMax= 3.18D-04

 Cycle   7  Pass 1  IDiag  1:
 E= -1100.00343472294     Delta-E=       -0.000000232460 Rises=F Damp=F
 DIIS: error= 5.15D-05 at cycle   2 NSaved=   2.
 NSaved= 2 IEnMin= 2 EnMin= -1100.00343472294     IErMin= 1 ErrMin= 4.26D-05
 ErrMax= 5.15D-05  0.00D+00 EMaxC= 1.00D-01 BMatC= 5.89D-06 BMatP= 5.71D-06
 IDIUse=1 WtCom= 1.00D+00 WtEn= 0.00D+00
 Coeff-Com:  0.505D+00 0.495D+00
 Coeff:      0.505D+00 0.495D+00
 Gap=     0.370 Goal=   None    Shift=    0.000
 Gap=     0.355 Goal=   None    Shift=    0.000
 RMSDP=2.44D-06 MaxDP=2.39D-04 DE=-2.32D-07 OVMax= 1.89D-04

 Cycle   8  Pass 1  IDiag  1:
 E= -1100.00343564958     Delta-E=       -0.000000926642 Rises=F Damp=F
 DIIS: error= 1.00D-05 at cycle   3 NSaved=   3.
 NSaved= 3 IEnMin= 3 EnMin= -1100.00343564958     IErMin= 3 ErrMin= 1.00D-05
 ErrMax= 1.00D-05  0.00D+00 EMaxC= 1.00D-01 BMatC= 2.52D-07 BMatP= 5.71D-06
 IDIUse=1 WtCom= 1.00D+00 WtEn= 0.00D+00
 Coeff-Com: -0.228D-01 0.148D+00 0.875D+00
 Coeff:     -0.228D-01 0.148D+00 0.875D+00
 Gap=     0.370 Goal=   None    Shift=    0.000
 Gap=     0.355 Goal=   None    Shift=    0.000
 RMSDP=9.17D-07 MaxDP=1.07D-04 DE=-9.27D-07 OVMax= 6.70D-05

 Cycle   9  Pass 1  IDiag  1:
 E= -1100.00343569714     Delta-E=       -0.000000047563 Rises=F Damp=F
 DIIS: error= 3.41D-06 at cycle   4 NSaved=   4.
 NSaved= 4 IEnMin= 4 EnMin= -1100.00343569714     IErMin= 4 ErrMin= 3.41D-06
 ErrMax= 3.41D-06  0.00D+00 EMaxC= 1.00D-01 BMatC= 3.68D-08 BMatP= 2.52D-07
 IDIUse=1 WtCom= 1.00D+00 WtEn= 0.00D+00
 Coeff-Com: -0.330D-01 0.501D-01 0.430D+00 0.553D+00
 Coeff:     -0.330D-01 0.501D-01 0.430D+00 0.553D+00
 Gap=     0.370 Goal=   None    Shift=    0.000
 Gap=     0.355 Goal=   None    Shift=    0.000
 RMSDP=2.24D-07 MaxDP=1.93D-05 DE=-4.76D-08 OVMax= 1.96D-05

 Cycle  10  Pass 1  IDiag  1:
 E= -1100.00343570364     Delta-E=       -0.000000006497 Rises=F Damp=F
 DIIS: error= 1.03D-06 at cycle   5 NSaved=   5.
 NSaved= 5 IEnMin= 5 EnMin= -1100.00343570364     IErMin= 5 ErrMin= 1.03D-06
 ErrMax= 1.03D-06  0.00D+00 EMaxC= 1.00D-01 BMatC= 2.33D-09 BMatP= 3.68D-08
 IDIUse=1 WtCom= 1.00D+00 WtEn= 0.00D+00
 Coeff-Com: -0.645D-02-0.144D-01-0.350D-01 0.148D+00 0.907D+00
 Coeff:     -0.645D-02-0.144D-01-0.350D-01 0.148D+00 0.907D+00
 Gap=     0.370 Goal=   None    Shift=    0.000
 Gap=     0.355 Goal=   None    Shift=    0.000
 RMSDP=1.20D-07 MaxDP=1.51D-05 DE=-6.50D-09 OVMax= 9.60D-06

 Cycle  11  Pass 1  IDiag  1:
 E= -1100.00343570436     Delta-E=       -0.000000000714 Rises=F Damp=F
 DIIS: error= 2.96D-07 at cycle   6 NSaved=   6.
 NSaved= 6 IEnMin= 6 EnMin= -1100.00343570436     IErMin= 6 ErrMin= 2.96D-07
 ErrMax= 2.96D-07  0.00D+00 EMaxC= 1.00D-01 BMatC= 2.00D-10 BMatP= 2.33D-09
 IDIUse=1 WtCom= 1.00D+00 WtEn= 0.00D+00
 Coeff-Com:  0.205D-02-0.876D-02-0.539D-01-0.212D-01 0.229D+00 0.853D+00
 Coeff:      0.205D-02-0.876D-02-0.539D-01-0.212D-01 0.229D+00 0.853D+00
 Gap=     0.370 Goal=   None    Shift=    0.000
 Gap=     0.355 Goal=   None    Shift=    0.000
 RMSDP=3.46D-08 MaxDP=2.91D-06 DE=-7.14D-10 OVMax= 2.83D-06

 Cycle  12  Pass 1  IDiag  1:
 E= -1100.00343570447     Delta-E=       -0.000000000113 Rises=F Damp=F
 DIIS: error= 1.40D-07 at cycle   7 NSaved=   7.
 NSaved= 7 IEnMin= 7 EnMin= -1100.00343570447     IErMin= 7 ErrMin= 1.40D-07
 ErrMax= 1.40D-07  0.00D+00 EMaxC= 1.00D-01 BMatC= 4.85D-11 BMatP= 2.00D-10
 IDIUse=1 WtCom= 1.00D+00 WtEn= 0.00D+00
 Coeff-Com:  0.127D-02-0.287D-02-0.218D-01-0.181D-01 0.420D-01 0.394D+00
 Coeff-Com:  0.605D+00
 Coeff:      0.127D-02-0.287D-02-0.218D-01-0.181D-01 0.420D-01 0.394D+00
 Coeff:      0.605D+00
 Gap=     0.370 Goal=   None    Shift=    0.000
 Gap=     0.355 Goal=   None    Shift=    0.000
 RMSDP=7.96D-09 MaxDP=3.40D-07 DE=-1.13D-10 OVMax= 8.88D-07

 SCF Done:  E(UM062X) =  -1100.00343570     A.U. after   12 cycles
            NFock= 12  Conv=0.80D-08     -V/T= 2.0028
 <Sx>= 0.0000 <Sy>= 0.0000 <Sz>= 0.5000 <S**2>= 0.7534 S= 0.5017
 <L.S>=  0.00000000000    
 KE= 1.096942495903D+03 PE=-4.156722270336D+03 EE= 1.185563123014D+03
 Annihilation of the first spin contaminant:
 S**2 before annihilation     0.7534,   after     0.7500
 Leave Link  502 at Sat May 24 01:00:05 2025, MaxMem=  3758096384 cpu:             180.6 elap:              46.0
 (Enter /apps/easybuild-2022/easybuild/software/Compiler/NVHPC/22.11-CUDA-11.7.0/Gaussian/g16c01-CUDA-11.7.0/g16/l508.exe)
 QCSCF skips out because SCF is already converged.
 Leave Link  508 at Sat May 24 01:00:05 2025, MaxMem=  3758096384 cpu:               0.0 elap:               0.0
 (Enter /apps/easybuild-2022/easybuild/software/Compiler/NVHPC/22.11-CUDA-11.7.0/Gaussian/g16c01-CUDA-11.7.0/g16/l701.exe)
 ... and contract with generalized density number  0.
 Compute integral first derivatives.
   1 Symmetry operations used in ECPInt.
 ECPInt:  NShTT=    7140 NPrTT=   23456 LenC2=    6771 LenP2D=   16664.
 LDataN:  DoStor=T MaxTD1= 7 Len=  274
 Leave Link  701 at Sat May 24 01:00:05 2025, MaxMem=  3758096384 cpu:               0.6 elap:               0.1
 (Enter /apps/easybuild-2022/easybuild/software/Compiler/NVHPC/22.11-CUDA-11.7.0/Gaussian/g16c01-CUDA-11.7.0/g16/l702.exe)
 L702 exits ... SP integral derivatives will be done elsewhere.
 Leave Link  702 at Sat May 24 01:00:05 2025, MaxMem=  3758096384 cpu:               0.0 elap:               0.0
 (Enter /apps/easybuild-2022/easybuild/software/Compiler/NVHPC/22.11-CUDA-11.7.0/Gaussian/g16c01-CUDA-11.7.0/g16/l703.exe)
 Integral derivatives from FoFJK, PRISM(SPDF).
 Compute integral first derivatives, UseDBF=F ICtDFT=           0.
 Calling FoFJK, ICntrl=      2127 FMM=F ISym2X=0 I1Cent= 0 IOpClX= 1 NMat=1 NMatS=1 NMatT=0.
 FoFJK:  IHMeth= 1 ICntrl=    2127 DoSepK=F KAlg= 0 I1Cent=           0 FoldK=F
 IRaf=         0 NMat=       1 IRICut=       1 DoRegI=T DoRafI=F ISym2E= 0 IDoP0=0 IntGTp=1.
 FoFCou: FMM=F IPFlag=           0 FMFlag=      100000 FMFlg1=         800
         NFxFlg=           0 DoJE=F BraDBF=F KetDBF=F FulRan=T
         wScrn=  0.000000 ICntrl=      2127 IOpCl=  1 I1Cent=           0 NGrid=           0
         NMat0=    1 NMatS0=      1 NMatT0=    0 NMatD0=    1 NMtDS0=    0 NMtDT0=    0
 Symmetry not used in FoFCou.
 Leave Link  703 at Sat May 24 01:00:18 2025, MaxMem=  3758096384 cpu:             102.9 elap:              13.0
 (Enter /apps/easybuild-2022/easybuild/software/Compiler/NVHPC/22.11-CUDA-11.7.0/Gaussian/g16c01-CUDA-11.7.0/g16/l716.exe)
 Dipole        = 8.32498795D-02 9.15477239D-01 5.80209793D-01
 -------------------------------------------------------------------
 Center     Atomic                   Forces (Hartrees/Bohr)
 Number     Number              X              Y              Z
 -------------------------------------------------------------------
      1        6          -0.000629073   -0.000986928   -0.000080077
      2        6           0.000091269   -0.000206939    0.000661035
      3        9          -0.000295455   -0.000221418   -0.000178571
      4        9          -0.000058025    0.000019624    0.000260896
      5       16          -0.000470129    0.000463193    0.002088288
      6        8          -0.000103282   -0.000391629   -0.000199387
      7        8          -0.000123898    0.000556392   -0.000890004
      8        8           0.002824468   -0.000163327   -0.003129748
      9        9           0.000419069    0.000490753   -0.000103298
     10        9           0.000120245    0.000112528    0.000069472
     11        1          -0.001775189    0.000327753    0.001501394
 -------------------------------------------------------------------
 Cartesian Forces:  Max     0.003129748 RMS     0.000984628
 Leave Link  716 at Sat May 24 01:00:18 2025, MaxMem=  3758096384 cpu:               0.1 elap:               0.0
 (Enter /apps/easybuild-2022/easybuild/software/Compiler/NVHPC/22.11-CUDA-11.7.0/Gaussian/g16c01-CUDA-11.7.0/g16/l103.exe)

 GradGradGradGradGradGradGradGradGradGradGradGradGradGradGradGradGradGrad
 Berny optimization.
 Using GEDIIS/GDIIS optimizer.
 FormGI is forming the generalized inverse of G from B-inverse, IUseBI=4.
 Internal  Forces:  Max     0.001679955 RMS     0.000597203
 Search for a local minimum.
 Step number   2 out of a maximum of   54
 All quantities printed in internal units (Hartrees-Bohrs-Radians)
 RMS Force = .59720D-03 SwitMx=.10000D-02 MixMth= 2
 Mixed Optimization -- En-DIIS/RFO-DIIS
 Update second derivatives using D2CorX and points    1    2
 DE= -3.04D-03 DEPred=-3.50D-03 R= 8.70D-01
 TightC=F SS=  1.41D+00  RLast= 7.99D-01 DXNew= 5.0454D-01 2.3983D+00
 Trust test= 8.70D-01 RLast= 7.99D-01 DXMaxT set to 5.05D-01
 ITU=  1  0
 Use linear search instead of GDIIS.
     Eigenvalues ---   -0.25796   0.00102   0.00376   0.00725   0.05225
     Eigenvalues ---    0.05880   0.10008   0.11178   0.11390   0.11836
     Eigenvalues ---    0.14061   0.14505   0.16425   0.19574   0.20545
     Eigenvalues ---    0.22896   0.23985   0.27431   0.35931   0.37918
     Eigenvalues ---    0.39218   0.43487   0.46850   0.52454   0.55341
     Eigenvalues ---    0.65248   0.74995
 Eigenvalue     1 is  -2.58D-01 should be greater than     0.000000 Eigenvector:
                          A12       A14       A6        R7        A8
   1                   -0.41969   0.35714   0.33280   0.32374  -0.25820
                          A13       R4        D17       D13       A11
   1                   -0.22509  -0.21816   0.19931   0.18059   0.17449
 RFO step:  Lambda=-2.58609502D-01 EMin=-2.57964488D-01
 I=     1 Eig=   -2.58D-01 Dot1= -7.75D-03
 I=     1 Stepn= -6.00D-01 RXN=   6.00D-01 EDone=F
 Mixed    1 eigenvectors in step.  Raw Step.Grad=  7.75D-03.
 RFO eigenvector is Hessian eigenvector with negative curvature.
 Taking step of  6.00D-01 in eigenvector direction(s).  Step.Grad= -1.10D-04.
 Quartic linear search produced a step of  0.43355.
 Maximum step size (   0.505) exceeded in Quadratic search.
    -- Step size not scaled.
 Iteration  1 RMS(Cart)=  0.17853567 RMS(Int)=  0.02696044
 Iteration  2 RMS(Cart)=  0.02067228 RMS(Int)=  0.00466277
 Iteration  3 RMS(Cart)=  0.00094738 RMS(Int)=  0.00457561
 Iteration  4 RMS(Cart)=  0.00000320 RMS(Int)=  0.00457561
 Iteration  5 RMS(Cart)=  0.00000003 RMS(Int)=  0.00457561
 ITry= 1 IFail=0 DXMaxC= 5.17D-01 DCOld= 1.00D+10 DXMaxT= 5.05D-01 DXLimC= 3.00D+00 Rises=F
 Variable       Old X    -DE/DX   Delta X   Delta X   Delta X     New X
                                 (Linear)    (Quad)   (Total)
    R1        2.85451  -0.00020   0.00140  -0.04045  -0.03905   2.81545
    R2        2.48161   0.00055   0.00229  -0.03030  -0.02801   2.45360
    R3        2.47906  -0.00012  -0.00029   0.00363   0.00334   2.48240
    R4        2.51977   0.00032  -0.00596   0.13089   0.12493   2.64471
    R5        2.53604  -0.00017   0.00126  -0.01197  -0.01071   2.52533
    R6        3.47480   0.00035   0.00006  -0.02425  -0.02419   3.45061
    R7        2.68901  -0.00008   0.00930  -0.19424  -0.18495   2.50406
    R8        2.66920   0.00050  -0.00672   0.09794   0.09122   2.76042
    R9        2.97498   0.00041   0.00211  -0.06512  -0.06301   2.91197
   R10        1.82886   0.00007  -0.00028  -0.00107  -0.00136   1.82750
    A1        2.01275  -0.00075   0.00558  -0.09156  -0.08589   1.92686
    A2        1.98100   0.00040  -0.00130   0.02264   0.02144   2.00244
    A3        1.95291   0.00018  -0.00293   0.04814   0.04535   1.99826
    A4        1.89522   0.00000  -0.00217   0.02171   0.02799   1.92321
    A5        1.95229   0.00002  -0.00043   0.03534   0.03360   1.98589
    A6        1.96346  -0.00039   0.00937  -0.19968  -0.18725   1.77621
    A7        1.89726  -0.00011   0.00272  -0.05040  -0.05284   1.84443
    A8        1.86197   0.00035  -0.00705   0.15492   0.14710   2.00907
    A9        1.89054   0.00015  -0.00284   0.04657   0.03926   1.92979
   A10        1.88705  -0.00113  -0.00151   0.03527   0.04268   1.92973
   A11        1.86063   0.00026   0.00352  -0.10470  -0.09616   1.76448
   A12        1.71496   0.00165  -0.00720   0.25182   0.24773   1.96269
   A13        2.14174   0.00042  -0.00677   0.13505   0.12133   2.26307
   A14        1.89264   0.00048   0.00795  -0.21429  -0.21172   1.68092
   A15        1.91822  -0.00138   0.00337  -0.06411  -0.05647   1.86175
   A16        1.91522  -0.00012  -0.00421   0.01498   0.01077   1.92598
    D1        3.05968   0.00010  -0.00126   0.02661   0.02616   3.08583
    D2       -1.12973  -0.00003   0.00042   0.00013   0.00009  -1.12964
    D3        1.00286  -0.00011   0.00321  -0.05943  -0.05647   0.94638
    D4       -0.93773   0.00002  -0.00140   0.03037   0.02970  -0.90802
    D5        1.15605  -0.00011   0.00028   0.00388   0.00364   1.15969
    D6       -2.99455  -0.00018   0.00306  -0.05567  -0.05293  -3.04748
    D7        0.70426   0.00027  -0.01711  -0.05129  -0.06901   0.63525
    D8        3.03788   0.00017  -0.02426   0.06964   0.04436   3.08224
    D9       -1.26046  -0.00061  -0.02236   0.06799   0.03897  -1.22150
   D10       -1.37210   0.00026  -0.01541  -0.06272  -0.07213  -1.44423
   D11        0.96152   0.00016  -0.02255   0.05821   0.04125   1.00276
   D12        2.94636  -0.00062  -0.02065   0.05656   0.03585   2.98221
   D13        2.87140   0.00013  -0.01337  -0.10836  -0.12064   2.75075
   D14       -1.07817   0.00004  -0.02052   0.01258  -0.00727  -1.08544
   D15        0.90667  -0.00075  -0.01861   0.01093  -0.01266   0.89401
   D16        2.21179  -0.00168  -0.19797  -0.03817  -0.24527   1.96652
   D17        0.25153  -0.00128  -0.19574  -0.11958  -0.29820  -0.04667
   D18       -2.13264  -0.00108  -0.19625  -0.06083  -0.26508  -2.39772
         Item               Value     Threshold  Converged?
 Maximum Force            0.001680     0.000015     NO 
 RMS     Force            0.000597     0.000010     NO 
 Maximum Displacement     0.516974     0.000060     NO 
 RMS     Displacement     0.182164     0.000040     NO 
 Predicted change in Energy=-5.439348D-02
 Lowest energy point so far.  Saving SCF results.
 GradGradGradGradGradGradGradGradGradGradGradGradGradGradGradGradGradGrad

 Leave Link  103 at Sat May 24 01:00:18 2025, MaxMem=  3758096384 cpu:               0.1 elap:               0.0
 (Enter /apps/easybuild-2022/easybuild/software/Compiler/NVHPC/22.11-CUDA-11.7.0/Gaussian/g16c01-CUDA-11.7.0/g16/l202.exe)
                          Input orientation:                          
 ---------------------------------------------------------------------
 Center     Atomic      Atomic             Coordinates (Angstroms)
[...]
    A1        1.99463  -0.00000   0.00000  -0.00000  -0.00000   1.99462
    A2        1.99255   0.00000   0.00000   0.00000   0.00000   1.99255
    A3        1.94945   0.00000   0.00000   0.00000   0.00000   1.94945
    A4        1.90056   0.00000   0.00000   0.00000   0.00000   1.90056
    A5        1.94434   0.00000   0.00000  -0.00000  -0.00000   1.94433
    A6        1.95158  -0.00000   0.00000  -0.00000  -0.00000   1.95158
    A7        1.89616  -0.00000   0.00000  -0.00000  -0.00000   1.89616
    A8        1.87226   0.00000   0.00000   0.00000   0.00000   1.87227
    A9        1.89683   0.00000   0.00000  -0.00000  -0.00000   1.89683
   A10        1.85749   0.00000   0.00000   0.00001   0.00001   1.85750
   A11        1.86236  -0.00000   0.00000  -0.00001  -0.00001   1.86236
   A12        1.76237   0.00000   0.00000   0.00000   0.00000   1.76238
   A13        2.15979   0.00000   0.00000   0.00001   0.00001   2.15980
   A14        1.90795  -0.00000   0.00000  -0.00002  -0.00002   1.90793
   A15        1.87301  -0.00000   0.00000   0.00000   0.00000   1.87301
   A16        1.92382   0.00000   0.00000  -0.00000  -0.00000   1.92382
    D1        2.97625  -0.00000   0.00000  -0.00002  -0.00002   2.97622
    D2       -1.21598   0.00000   0.00000  -0.00002  -0.00002  -1.21600
    D3        0.91042  -0.00000   0.00000  -0.00003  -0.00003   0.91039
    D4       -1.03259  -0.00000   0.00000  -0.00002  -0.00002  -1.03261
    D5        1.05837   0.00000   0.00000  -0.00002  -0.00002   1.05835
    D6       -3.09841  -0.00000   0.00000  -0.00003  -0.00003  -3.09844
    D7        0.70568  -0.00000   0.00000  -0.00002  -0.00002   0.70567
    D8        3.04236   0.00000   0.00000  -0.00001  -0.00001   3.04235
    D9       -1.28591   0.00000   0.00000  -0.00000  -0.00000  -1.28591
   D10       -1.37692  -0.00000   0.00000  -0.00002  -0.00002  -1.37694
   D11        0.95976   0.00000   0.00000  -0.00001  -0.00001   0.95975
   D12        2.91468   0.00000   0.00000  -0.00001  -0.00001   2.91467
   D13        2.85917  -0.00000   0.00000  -0.00002  -0.00002   2.85915
   D14       -1.08734   0.00000   0.00000  -0.00001  -0.00001  -1.08735
   D15        0.86758   0.00000   0.00000  -0.00001  -0.00001   0.86758
   D16        1.57718   0.00000   0.00000   0.00005   0.00005   1.57722
   D17       -0.37610  -0.00000   0.00000   0.00004   0.00004  -0.37606
   D18       -2.75924   0.00000   0.00000   0.00004   0.00004  -2.75920
         Item               Value     Threshold  Converged?
 Maximum Force            0.000006     0.000015     YES
 RMS     Force            0.000001     0.000010     YES
 Maximum Displacement     0.000061     0.000060     NO 
 RMS     Displacement     0.000018     0.000040     YES
 Predicted change in Energy=-1.222250D-10
                           ----------------------------
                           ! Non-Optimized Parameters !
                           ! (Angstroms and Degrees)  !
 --------------------------                            --------------------------
 ! Name  Definition              Value          Derivative Info.                !
 --------------------------------------------------------------------------------
 ! R1    R(1,2)                  1.5103         -DE/DX =    0.0                 !
 ! R2    R(1,9)                  1.3209         -DE/DX =    0.0                 !
 ! R3    R(1,10)                 1.3091         -DE/DX =    0.0                 !
 ! R4    R(2,3)                  1.3334         -DE/DX =    0.0                 !
 ! R5    R(2,4)                  1.3418         -DE/DX =    0.0                 !
 ! R6    R(2,5)                  1.8419         -DE/DX =    0.0                 !
 ! R7    R(5,6)                  1.4214         -DE/DX =    0.0                 !
 ! R8    R(5,7)                  1.4114         -DE/DX =    0.0                 !
 ! R9    R(5,8)                  1.5713         -DE/DX =    0.0                 !
 ! R10   R(8,11)                 0.9683         -DE/DX =    0.0                 !
 ! A1    A(2,1,9)              114.2836         -DE/DX =    0.0                 !
 ! A2    A(2,1,10)             114.1647         -DE/DX =    0.0                 !
 ! A3    A(9,1,10)             111.6951         -DE/DX =    0.0                 !
 ! A4    A(1,2,3)              108.894          -DE/DX =    0.0                 !
 ! A5    A(1,2,4)              111.4021         -DE/DX =    0.0                 !
 ! A6    A(1,2,5)              111.8172         -DE/DX =    0.0                 !
 ! A7    A(3,2,4)              108.6419         -DE/DX =    0.0                 !
 ! A8    A(3,2,5)              107.273          -DE/DX =    0.0                 !
 ! A9    A(4,2,5)              108.6803         -DE/DX =    0.0                 !
 ! A10   A(2,5,6)              106.4267         -DE/DX =    0.0                 !
 ! A11   A(2,5,7)              106.7052         -DE/DX =    0.0                 !
 ! A12   A(2,5,8)              100.9767         -DE/DX =    0.0                 !
 ! A13   A(6,5,7)              123.7475         -DE/DX =    0.0                 !
 ! A14   A(6,5,8)              109.3164         -DE/DX =    0.0                 !
 ! A15   A(7,5,8)              107.3158         -DE/DX =    0.0                 !
 ! A16   A(5,8,11)             110.2266         -DE/DX =    0.0                 !
 ! D1    D(9,1,2,3)            170.525          -DE/DX =    0.0                 !
 ! D2    D(9,1,2,4)            -69.6717         -DE/DX =    0.0                 !
 ! D3    D(9,1,2,5)             52.1617         -DE/DX =    0.0                 !
 ! D4    D(10,1,2,3)           -59.1644         -DE/DX =    0.0                 !
 ! D5    D(10,1,2,4)            60.6389         -DE/DX =    0.0                 !
 ! D6    D(10,1,2,5)          -177.5277         -DE/DX =    0.0                 !
 ! D7    D(1,2,5,6)             40.4317         -DE/DX =    0.0                 !
 ! D8    D(1,2,5,7)            174.3138         -DE/DX =    0.0                 !
 ! D9    D(1,2,5,8)            -73.6771         -DE/DX =    0.0                 !
 ! D10   D(3,2,5,6)            -78.8927         -DE/DX =    0.0                 !
 ! D11   D(3,2,5,7)             54.9894         -DE/DX =    0.0                 !
 ! D12   D(3,2,5,8)            166.9985         -DE/DX =    0.0                 !
 ! D13   D(4,2,5,6)            163.8173         -DE/DX =    0.0                 !
 ! D14   D(4,2,5,7)            -62.3007         -DE/DX =    0.0                 !
 ! D15   D(4,2,5,8)             49.7085         -DE/DX =    0.0                 !
 ! D16   D(2,5,8,11)            90.3683         -DE/DX =    0.0                 !
 ! D17   D(6,5,8,11)           -21.5466         -DE/DX =    0.0                 !
 ! D18   D(7,5,8,11)          -158.0902         -DE/DX =    0.0                 !
 --------------------------------------------------------------------------------
 GradGradGradGradGradGradGradGradGradGradGradGradGradGradGradGradGradGrad

 Leave Link  103 at Sat May 24 01:14:17 2025, MaxMem=  3758096384 cpu:               0.1 elap:               0.0
 (Enter /apps/easybuild-2022/easybuild/software/Compiler/NVHPC/22.11-CUDA-11.7.0/Gaussian/g16c01-CUDA-11.7.0/g16/l9999.exe)

 ----------------------------------------------------------------------

 Electric dipole moment (input orientation):
 (Debye = 10**-18 statcoulomb cm , SI units = C m)
                  (au)            (Debye)         (10**-30 SI)
   Tot        0.119507D+01      0.303756D+01      0.101322D+02
   x         -0.235785D+00     -0.599305D+00     -0.199907D+01
   y          0.952172D+00      0.242018D+01      0.807285D+01
   z          0.682617D+00      0.173504D+01      0.578747D+01

 Dipole polarizability, Alpha (input orientation).
 (esu units = cm**3 , SI units = C**2 m**2 J**-1)
 Alpha(0;0):
               (au)            (10**-24 esu)      (10**-40 SI)
   iso        0.519765D+02      0.770212D+01      0.856977D+01
   aniso      0.851275D+01      0.126146D+01      0.140356D+01
   xx         0.553571D+02      0.820307D+01      0.912715D+01
   yx         0.255964D+00      0.379300D-01      0.422028D-01
   yy         0.490588D+02      0.726976D+01      0.808870D+01
   zx        -0.238279D+01     -0.353092D+00     -0.392868D+00
   zy         0.288699D+01      0.427807D+00      0.476000D+00
   zz         0.515136D+02      0.763353D+01      0.849345D+01

 ----------------------------------------------------------------------

 Dipole orientation:
     6         -0.28093210         -1.50550474          2.35777895
     6          0.07009917          0.01989453         -0.02868424
     9         -1.03337618         -1.19293126         -1.94203229
     9         -0.97373977          2.32105452          0.18209795
    16          3.43364008          0.39184219         -0.84321374
     8          4.60217199         -1.97466698         -0.34429314
     8          3.51818251          1.61609658         -3.21136885
     8          4.29602268          2.36382180          1.20240932
     9          1.04599767         -0.68383570          4.30582085
     9         -2.64540144         -1.90562116          2.96532502
     1          4.89045841          1.50059918          2.70222448

 Electric dipole moment (dipole orientation):
 (Debye = 10**-18 statcoulomb cm , SI units = C m)
                  (au)            (Debye)         (10**-30 SI)
   Tot        0.119507D+01      0.303756D+01      0.101322D+02
   x          0.000000D+00      0.000000D+00      0.000000D+00
   y          0.000000D+00      0.000000D+00      0.000000D+00
   z          0.119507D+01      0.303756D+01      0.101322D+02

 Dipole polarizability, Alpha (dipole orientation).
 (esu units = cm**3 , SI units = C**2 m**2 J**-1)
 Alpha(0;0):
               (au)            (10**-24 esu)      (10**-40 SI)
   iso        0.519765D+02      0.770212D+01      0.856977D+01
   aniso      0.851275D+01      0.126146D+01      0.140356D+01
   xx         0.543914D+02      0.805997D+01      0.896793D+01
   yx         0.229371D+01      0.339892D+00      0.378181D+00
   yy         0.483489D+02      0.716457D+01      0.797166D+01
   zx        -0.135712D+01     -0.201104D+00     -0.223758D+00
   zy        -0.261187D+01     -0.387039D+00     -0.430639D+00
   zz         0.531892D+02      0.788182D+01      0.876971D+01

 ----------------------------------------------------------------------
 Unable to Open any file for archive entry.
 1\1\GINC-SPARTAN-BM148\Freq\UM062X\def2TZVPP\C2H1F4O3S1\AKHALILOV\24-M
 ay-2025\0\\#P Geom=AllCheck Guess=TCheck SCRF=Check GenChk UM062X/def2
 TZVPP Freq\\Gaussian input prepared by ASE\\0,2\C,-0.4708520575,0.5044
 217058,1.3180923447\C,0.0402239407,-0.0021083783,-0.0097394156\F,-0.39
 36906899,-1.249733201,-0.1919285811\F,-0.3986412225,0.7572217603,-1.02
 52299396\S,1.8807694981,-0.0501506951,-0.0615906759\O,2.3064278553,-0.
 5242621959,1.2089880113\O,2.236464213,-0.6580437149,-1.2847421811\O,2.
 2166464582,1.4798967005,-0.1846670241\F,0.0540484067,1.6551443279,1.69
 90183308\F,-1.7756910835,0.5092062823,1.423565313\H,2.3211237237,1.871
 4860419,0.6946875791\\Version=ES64L-G16RevC.01\HF=-1100.0052948\S2=0.7
 53416\S2-1=0.\S2A=0.750009\RMSD=2.159e-09\RMSF=2.554e-06\ZeroPoint=0.0
 48214\Thermal=0.0578909\ETot=-1099.9474039\HTot=-1099.9464597\GTot=-10
 99.9935465\Dipole=-0.2357846,0.9521718,0.6826169\DipoleDeriv=1.3628395
 ,0.2446108,-0.0894836,0.1268894,0.9210656,0.3811025,-0.2250093,0.29866
 07,0.4162758,0.9213847,0.0774311,0.1405233,0.1042951,1.1042012,-0.0910
 656,0.3017831,-0.1726267,0.9285199,-0.4234073,-0.2557645,-0.0405151,-0
 .2696945,-0.7454817,-0.0601559,-0.0507707,-0.1276747,-0.2656048,-0.474
 5634,0.1505337,-0.2040033,0.162137,-0.4201465,0.2227675,-0.1882553,0.2
 412491,-0.6953537,1.8380993,-0.0510757,-0.0848338,0.0774548,2.1979091,
 0.0749761,0.0006505,0.03143,2.1260942,-0.7566413,0.1109449,-0.1592723,
 0.0846595,-0.6284497,0.1100267,-0.2381945,0.2204119,-0.9793293,-0.7182
 075,0.098244,0.1779508,0.1247818,-0.600851,-0.1817779,0.2575407,-0.251
 0617,-0.9411497,-0.637448,-0.2081063,0.0080587,-0.3392502,-1.2706361,-
 0.0300096,-0.0173293,-0.0895633,-0.4240621,-0.3945651,-0.1564158,-0.00
 88946,-0.2531687,-0.7380736,-0.3480463,-0.0118859,-0.1945641,-0.246375
 8,-1.0951995,-0.052746,0.2497173,0.1415933,-0.2011838,-0.1197779,0.136
 8374,-0.0609123,-0.1978073,0.3777084,0.0423439,0.0107527,0.0403025,0.3
 816466,0.0419604,0.0346333,0.104651,0.2787928\Polar=55.3570574,0.25596
 41,49.0587851,-2.3827858,2.8869871,51.5136224\PG=Unknown\NImag=0\\0.59
 167425,0.02907722,0.48466853,-0.06790711,0.16743920,0.33455199,-0.0844
 3027,0.02063440,0.02531309,0.47123684,0.02510637,-0.07081339,-0.020855
 95,0.01833497,0.53381527,0.07838460,-0.07805835,-0.15533182,0.01272604
 ,0.03324724,0.52864334,0.00201412,0.00127870,-0.00068491,-0.10709745,-
 0.09233857,-0.01866428,0.10049394,-0.01938085,-0.03469197,-0.01388157,
 -0.08540681,-0.28238420,-0.05524581,0.11571259,0.39958597,-0.01793709,
 -0.03241005,-0.00447429,-0.01801864,-0.05212963,-0.08169240,0.02217486
 ,0.05056926,0.08176408,0.00362725,-0.00055489,0.00364122,-0.10335095,0
 .04584559,-0.06921467,0.01531379,-0.00308966,0.00811827,0.09690957,0.0
 0090485,0.00052622,0.00626890,0.04468832,-0.12040779,0.08897632,0.0086
 0374,-0.06356314,0.04294579,-0.06040811,0.18119631,-0.02220194,0.03824
 863,-0.05870652,-0.06827764,0.09051411,-0.21701401,0.00327128,0.026704
 83,0.00608260,0.09037499,-0.15002158,0.26487247,-0.01121669,0.01575094
 ,0.02080485,-0.17407010,0.00590992,-0.00400096,-0.00352051,-0.00170927
 ,0.00252409,-0.00277536,0.00097457,-0.00147457,0.57664841,0.01694014,0
 .01898036,0.00525219,0.01016899,-0.02890891,-0.01460215,-0.03829474,-0
 .02679723,-0.00382178,0.02062209,-0.01181655,0.01432610,-0.08469182,0.
 71362479,0.03430174,0.00328415,0.00766450,0.02270859,-0.00915533,-0.04
 715997,-0.00797394,-0.00402168,-0.00063002,-0.03392276,0.01394098,-0.0
 1906715,0.00867371,0.06961641,1.30212986,0.00056883,-0.00477146,-0.002
 44370,0.01556334,0.01192197,-0.02094913,-0.00355086,-0.00466308,0.0004
 4792,-0.01271659,0.00493515,-0.00567973,-0.16126454,0.06561916,-0.1716
 9917,0.12416550,-0.00252743,-0.00337259,-0.00059283,-0.00645503,0.0016
 1480,0.00792080,0.00516879,0.00547929,-0.00001871,0.00212221,0.0005108
 7,-0.00019809,0.06265714,-0.15681033,0.17645834,-0.07319368,0.14936105
 ,-0.00596893,-0.00179328,-0.00475217,0.01497977,0.00805205,-0.00664203
 ,-0.00314935,-0.00468736,0.00178888,-0.00549064,0.00190171,0.00070050,
 -0.16389626,0.17094158,-0.56615632,0.18169510,-0.20495788,0.59289105,-
 0.00563809,-0.00606454,-0.00757674,0.00685165,0.01443394,0.03147777,-0
 .00017488,-0.00178543,-0.00089696,-0.00107625,0.00127181,-0.00242295,-
 0.14343458,0.07730856,0.15289884,0.02344248,-0.00221214,-0.01546236,0.
 10775017,0.00011550,-0.00050423,0.00146385,-0.00665855,-0.00334340,-0.
 01084495,0.00333054,0.00704323,0.00267897,-0.00085373,0.00138193,-0.00
 018116,0.07404958,-0.19801935,-0.23513683,0.00019096,0.01633235,0.0165
 2630,-0.07983528,0.20471332,-0.00082192,0.00211442,0.00312593,-0.01394
 333,-0.00924246,-0.01645549,0.00171928,0.00507742,0.00289020,0.0052843
 4,-0.00317828,0.00813920,0.14617966,-0.23454712,-0.57603701,0.01271147
 ,-0.02065749,-0.01740582,-0.15726692,0.26640792,0.59636625,0.00184947,
 0.00028941,-0.00193367,0.01155038,-0.02108739,0.00128883,-0.01014354,-
 0.00659641,-0.00053576,-0.00205315,0.00032306,-0.00112947,-0.08648014,
 -0.05568416,0.00341540,0.01885676,0.01077461,-0.00259733,0.01296521,0.
 00495845,0.00121786,0.06918201,-0.00478696,-0.01039973,-0.00518669,0.0
 1676207,-0.01631818,0.00621481,-0.00706052,-0.00220360,0.00039253,-0.0
 0452429,0.00655482,-0.00434809,-0.05176232,-0.26734514,0.03004714,-0.0
 0662361,-0.02206571,0.00994183,-0.00733565,-0.02272178,-0.00493571,0.0
 9065572,0.42493667,-0.00425511,-0.00341089,-0.00212725,-0.00323187,0.0
 0153964,0.00565716,0.00025385,-0.00025292,0.00050244,0.00162884,-0.002
 15667,0.00238823,-0.00016136,0.00274482,-0.09755343,0.00494553,0.03746
 276,0.00041862,-0.00498881,-0.04469802,-0.00303296,0.04662622,0.152406
 25,0.52606256,-0.08987835,-0.08907088,-0.02048261,0.00372451,0.0007539
 3,-0.00287769,0.00150729,0.00236683,0.00220962,0.00063015,0.00072557,-
 0.00128741,-0.00354260,-0.00660079,-0.00398314,0.00058374,0.00198661,0
 .00149275,0.00145086,0.00077769,0.00057077,-0.00337336,0.00392911,0.00
 362781,0.13545509,-0.07755503,-0.32337528,-0.11611018,-0.01858800,-0.0
 1825295,0.01289591,0.00212603,-0.00441555,-0.00884269,0.00054272,0.004
 52290,-0.01090042,-0.00919410,-0.01107670,-0.00290694,0.00345615,0.001
 71794,0.00122513,0.00319984,0.00087742,-0.00047892,0.00068301,0.008228
 68,0.00224915,0.13959740,0.34275345,-0.01706803,-0.08518146,-0.0737343
 5,-0.01435571,-0.03646687,-0.00393144,0.00244143,-0.00678167,-0.007269
 84,0.00087224,0.00210967,0.00442229,-0.00314850,0.00041480,-0.00191781
 ,0.00082725,-0.00006004,0.00150286,0.00097563,-0.00027988,-0.00021896,
 0.00392063,0.00067582,-0.00104232,0.03536947,0.12670782,0.07765178,-0.
 40425794,0.03846008,0.05274406,-0.03997006,-0.00638515,-0.00800368,0.0
 0564222,0.00431753,0.00148066,0.00567814,-0.00228322,0.00836858,0.0104
 4622,0.00045802,0.00006207,-0.00300678,0.00068341,-0.00015260,-0.00416
 539,0.00176290,0.00347641,-0.00219394,-0.00172506,0.00028349,-0.048360
 81,-0.04802153,-0.01060131,0.47878202,0.03362741,-0.06206377,-0.024343
 21,0.00890957,0.00508096,0.00827172,0.00073447,0.00162660,0.00061743,-
 0.00106722,0.00140694,-0.00442574,-0.00395930,-0.00281972,-0.00159258,
 0.00139468,0.00031580,0.00035096,0.00192790,-0.00027655,-0.00103027,0.
 00061612,0.00228845,0.00066559,-0.05507267,0.00029453,-0.00052144,0.01
 220146,0.05447702,0.02208712,-0.01292280,-0.04783604,0.04397905,-0.006
 95697,-0.00624979,-0.00091164,0.00173821,0.00123129,-0.00166121,-0.000
 76224,0.00848239,-0.00644094,-0.00352394,-0.00688293,0.00051711,0.0001
 5954,0.00247057,0.00362920,-0.00066450,-0.00109851,0.00062644,0.001979
 65,0.00096715,-0.01478355,-0.00157452,0.00647948,-0.04748321,0.0225841
 1,0.04285843,-0.00431257,-0.00502898,-0.00147447,-0.00000789,-0.002495
 58,-0.00016684,-0.00048412,0.00023456,0.00043304,-0.00018658,0.0002642
 6,0.00045887,-0.00079012,-0.00584545,-0.00448132,-0.00264188,0.0009955
 2,-0.00145015,0.00202882,0.00216193,0.00087238,-0.01015971,-0.02752850
 ,-0.04472859,0.00180347,0.00375351,0.00076691,0.00140633,0.00068759,0.
 00044164,0.01334425,-0.00152123,0.00104585,0.00054629,-0.00238994,-0.0
 0008220,0.00122446,0.00073896,0.00032062,0.00001888,0.00136529,-0.0003
 1250,0.00028143,-0.00802534,-0.02901122,-0.04053365,0.00173377,0.00691
 654,0.00249895,-0.00090900,-0.00548294,0.00047049,-0.02493241,-0.10095
 447,-0.14654970,0.00060720,-0.00127445,-0.00061675,0.00053156,-0.00033
 026,-0.00005654,0.03280114,0.12916502,0.00138668,0.00269046,0.00162002
 ,-0.00187935,0.00145417,0.00017646,0.00152343,0.00078129,-0.00019294,0
 .00036939,-0.00002460,-0.00029999,0.00094028,-0.00680091,0.00561029,-0
 .00037265,0.00448360,-0.00481612,-0.00036669,0.00472831,0.00372718,-0.
 05089914,-0.18718754,-0.43224020,0.00014399,-0.00226434,-0.00194169,-0
 .00017448,-0.00057656,-0.00042203,0.04932855,0.18271612,0.42877902\\-0
 .00000008,-0.00000044,0.00000015,0.00000085,-0.00000047,0.00000162,0.0
 0000243,-0.00000370,0.00000343,-0.00000103,-0.00000456,-0.00000062,0.0
 0000010,0.00000349,-0.00000258,0.00000286,-0.00000019,0.00000588,0.000
 00174,-0.00000139,0.00000129,-0.00000220,0.00000428,-0.00000443,-0.000
 00206,0.00000184,-0.00000195,0.00000012,-0.00000225,0.00000057,-0.0000
 0273,0.00000339,-0.00000335\\\@
 The archive entry for this job was punched.


 Standing in the middle of the road is very dangerous;
 you get knocked down by the traffic from both sides.
                                -- Margaret Thatcher
 Job cpu time:       0 days  0 hours 45 minutes  0.1 seconds.
 Elapsed time:       0 days  0 hours  5 minutes 46.4 seconds.
 File lengths (MBytes):  RWF=    244 Int=      0 D2E=      0 Chk=     12 Scr=      1
 Normal termination of Gaussian 16 at Sat May 24 01:14:17 2025.
done
