1
energy = -99.7337277474
F -0.30144900 -2.07940500 -0.84616000
