2
energy = -100.443670913
F -2.61739100 -0.79539400 0.59768400
H -2.78232300 0.10497400 0.67346500
