12
energy = -1199.70106815
C -1.34565500 -1.04573700 0.51357500
C 0.28244400 -0.07716200 0.24505700
F -0.21604600 0.62587700 -0.76994900
F 0.22571800 0.51917600 1.42051300
S 2.11851800 -0.12432000 -0.15099700
O 2.79930700 -0.64321500 0.97293500
O 2.27353000 -0.63056000 -1.46930400
O 2.38692700 1.43512400 -0.17898300
F 0.28528500 -1.73438800 0.21892600
F -1.65661400 -1.61816400 1.62074400
F -2.01656700 -1.58513200 -0.44072100
H 2.31108800 1.75808800 -1.08759600
