 Entering Gaussian System, Link 0=g16
 Initial command:
 /apps/easybuild-2022/easybuild/software/Compiler/NVHPC/22.11-CUDA-11.7.0/Gaussian/g16c01-CUDA-11.7.0/g16/l1.exe "/tmp/Gau-37465.inp" -scrdir="/tmp/"
 Entering Link 1 = /apps/easybuild-2022/easybuild/software/Compiler/NVHPC/22.11-CUDA-11.7.0/Gaussian/g16c01-CUDA-11.7.0/g16/l1.exe PID=     37467.
  
 Copyright (c) 1988-2019, Gaussian, Inc.  All Rights Reserved.
  
 This is part of the Gaussian(R) 16 program.  It is based on
 the Gaussian(R) 09 system (copyright 2009, Gaussian, Inc.),
 the Gaussian(R) 03 system (copyright 2003, Gaussian, Inc.),
 the Gaussian(R) 98 system (copyright 1998, Gaussian, Inc.),
 the Gaussian(R) 94 system (copyright 1995, Gaussian, Inc.),
 the Gaussian 92(TM) system (copyright 1992, Gaussian, Inc.),
 the Gaussian 90(TM) system (copyright 1990, Gaussian, Inc.),
 the Gaussian 88(TM) system (copyright 1988, Gaussian, Inc.),
 the Gaussian 86(TM) system (copyright 1986, Carnegie Mellon
 University), and the Gaussian 82(TM) system (copyright 1983,
 Carnegie Mellon University). Gaussian is a federally registered
 trademark of Gaussian, Inc.
  
 This software contains proprietary and confidential information,
 including trade secrets, belonging to Gaussian, Inc.
  
 This software is provided under written license and may be
 used, copied, transmitted, or stored only in accord with that
 written license.
  
 The following legend is applicable only to US Government
 contracts under FAR:
  
                    RESTRICTED RIGHTS LEGEND
  
 Use, reproduction and disclosure by the US Government is
 subject to restrictions as set forth in subparagraphs (a)
 and (c) of the Commercial Computer Software - Restricted
 Rights clause in FAR 52.227-19.
  
 Gaussian, Inc.
 340 Quinnipiac St., Bldg. 40, Wallingford CT 06492
  
  
 ---------------------------------------------------------------
 Warning -- This program may not be used in any manner that
 competes with the business of Gaussian, Inc. or will provide
 assistance to any competitor of Gaussian, Inc.  The licensee
 of this program is prohibited from giving any competitor of
 Gaussian, Inc. access to this program.  By using this program,
 the user acknowledges that Gaussian, Inc. is engaged in the
 business of creating and licensing software in the field of
 computational chemistry and represents and warrants to the
 licensee that it is not a competitor of Gaussian, Inc. and that
 it will not use this program in any manner prohibited above.
 ---------------------------------------------------------------
  

 Cite this work as:
 Gaussian 16, Revision C.01,
 M. J. Frisch, G. W. Trucks, H. B. Schlegel, G. E. Scuseria, 
 M. A. Robb, J. R. Cheeseman, G. Scalmani, V. Barone, 
 G. A. Petersson, H. Nakatsuji, X. Li, M. Caricato, A. V. Marenich, 
 J. Bloino, B. G. Janesko, R. Gomperts, B. Mennucci, H. P. Hratchian, 
 J. V. Ortiz, A. F. Izmaylov, J. L. Sonnenberg, D. Williams-Young, 
 F. Ding, F. Lipparini, F. Egidi, J. Goings, B. Peng, A. Petrone, 
 T. Henderson, D. Ranasinghe, V. G. Zakrzewski, J. Gao, N. Rega, 
 G. Zheng, W. Liang, M. Hada, M. Ehara, K. Toyota, R. Fukuda, 
 J. Hasegawa, M. Ishida, T. Nakajima, Y. Honda, O. Kitao, H. Nakai, 
 T. Vreven, K. Throssell, J. A. Montgomery, Jr., J. E. Peralta, 
 F. Ogliaro, M. J. Bearpark, J. J. Heyd, E. N. Brothers, K. N. Kudin, 
 V. N. Staroverov, T. A. Keith, R. Kobayashi, J. Normand, 
 K. Raghavachari, A. P. Rendell, J. C. Burant, S. S. Iyengar, 
 J. Tomasi, M. Cossi, J. M. Millam, M. Klene, C. Adamo, R. Cammi, 
 J. W. Ochterski, R. L. Martin, K. Morokuma, O. Farkas, 
 J. B. Foresman, and D. J. Fox, Gaussian, Inc., Wallingford CT, 2019.
 
 ******************************************
 Gaussian 16:  ES64L-G16RevC.01  3-Jul-2019
                24-May-2025 
 ******************************************
 %mem=28GB
 %nprocshared=8
 Will use up to    8 processors via shared memory.
 ----------------------------------------------------------------------
 #P M062X/Def2TZVPP Symm(None) scf(xqc) pop(None) opt(NoFreeze,TS,CalcA
 ll,NoEigentest,MaxCycle=999)
 ----------------------------------------------------------------------
 1/5=1,6=999,10=4,11=1,18=20,26=3,29=2000,38=1/1,3;
 2/9=110,12=2,15=3,17=6,18=5,40=1/2;
 3/5=44,7=202,11=2,25=1,30=1,71=2,74=-55,140=1/1,2,3;
 4//1;
 5/5=2,8=3,13=1,38=5/2,8;
 8/6=4,10=90,11=11/1;
 11/6=1,8=1,9=11,15=111,16=1,31=1/1,2,10;
 10/6=1,31=1/2;
 7/10=1,25=1,30=1/1,2,3,16;
 1/5=1,6=999,10=4,11=1,18=20,26=3/3(3);
 2/9=110,15=3/2;
 7/8=1,9=1,25=1,30=1,44=-1/16;
 99//99;
 2/9=110,15=3/2;
 3/5=44,7=202,11=2,25=1,30=1,71=2,74=-55,140=1/1,2,3;
 4/5=5,16=3,69=1/1;
 5/5=2,8=3,13=1,38=5/2,8;
 8/6=4,10=90,11=11/1;
 11/6=1,8=1,9=11,15=111,16=1,31=1/1,2,10;
 10/6=1,31=1/2;
 7/10=1,25=1,30=1/1,2,3,16;
 1/5=1,6=999,10=4,11=1,18=20,26=3/3(-8);
 2/9=110,15=3/2;
 7/8=1,9=1,25=1,30=1,44=-1/16;
 99//99;
 Leave Link    1 at Sat May 24 06:01:32 2025, MaxMem=  3758096384 cpu:               0.0 elap:               0.0
 (Enter /apps/easybuild-2022/easybuild/software/Compiler/NVHPC/22.11-CUDA-11.7.0/Gaussian/g16c01-CUDA-11.7.0/g16/l101.exe)
 ------------------------------
 Gaussian input prepared by ASE
 ------------------------------
 Symbolic Z-matrix:
 Charge =  0 Multiplicity = 1
 C                    -0.1416   -0.82765   1.31079 
 C                     0.        0.        0. 
 F                    -0.6176   -0.5757   -1.00712 
 F                    -0.62065   1.17198   0.12058 
 S                     1.85233   0.        0. 
 O                     2.03952  -0.23336   1.42758 
 O                     2.59036  -0.17819  -1.20596 
 O                     1.86874   1.62292   0. 
 F                     1.27164  -1.83012  -0.02414 
 F                     0.01377  -0.36357   2.47074 
 F                    -0.61778  -1.98116   1.36163 
 H                     1.05011   2.11855   0.11564 
 
 ITRead=  0  0  0  0  0  0  0  0  0  0  0  0
 MicOpt= -1 -1 -1 -1 -1 -1 -1 -1 -1 -1 -1 -1
 NAtoms=     12 NQM=       12 NQMF=       0 NMMI=      0 NMMIF=      0
                NMic=       0 NMicF=      0.
                    Isotopes and Nuclear Properties:
 (Nuclear quadrupole moments (NQMom) in fm**2, nuclear magnetic moments (NMagM)
  in nuclear magnetons)

  Atom         1           2           3           4           5           6           7           8           9          10
 IAtWgt=          12          12          19          19          32          16          16          16          19          19
 AtmWgt=  12.0000000  12.0000000  18.9984032  18.9984032  31.9720718  15.9949146  15.9949146  15.9949146  18.9984032  18.9984032
 NucSpn=           0           0           1           1           0           0           0           0           1           1
 AtZEff=  -0.0000000  -0.0000000  -0.0000000  -0.0000000  -0.0000000  -0.0000000  -0.0000000  -0.0000000  -0.0000000  -0.0000000
 NQMom=    0.0000000   0.0000000   0.0000000   0.0000000   0.0000000   0.0000000   0.0000000   0.0000000   0.0000000   0.0000000
 NMagM=    0.0000000   0.0000000   2.6288670   2.6288670   0.0000000   0.0000000   0.0000000   0.0000000   2.6288670   2.6288670
 AtZNuc=   6.0000000   6.0000000   9.0000000   9.0000000  16.0000000   8.0000000   8.0000000   8.0000000   9.0000000   9.0000000

  Atom        11          12
 IAtWgt=          19           1
 AtmWgt=  18.9984032   1.0078250
 NucSpn=           1           1
 AtZEff=  -0.0000000  -0.0000000
 NQMom=    0.0000000   0.0000000
 NMagM=    2.6288670   2.7928460
 AtZNuc=   9.0000000   1.0000000
 Leave Link  101 at Sat May 24 06:01:32 2025, MaxMem=  3758096384 cpu:               0.2 elap:               0.2
 (Enter /apps/easybuild-2022/easybuild/software/Compiler/NVHPC/22.11-CUDA-11.7.0/Gaussian/g16c01-CUDA-11.7.0/g16/l103.exe)

 GradGradGradGradGradGradGradGradGradGradGradGradGradGradGradGradGradGrad
 Berny optimization.
 Initialization pass.
                           ----------------------------
                           !    Initial Parameters    !
                           ! (Angstroms and Degrees)  !
 --------------------------                            --------------------------
 ! Name  Definition              Value          Derivative Info.                !
 --------------------------------------------------------------------------------
 ! R1    R(1,2)                  1.5567         calculate D2E/DX2 analytically  !
 ! R2    R(1,10)                 1.259          calculate D2E/DX2 analytically  !
 ! R3    R(1,11)                 1.249          calculate D2E/DX2 analytically  !
 ! R4    R(2,3)                  1.3142         calculate D2E/DX2 analytically  !
 ! R5    R(2,4)                  1.3316         calculate D2E/DX2 analytically  !
 ! R6    R(2,5)                  1.8523         calculate D2E/DX2 analytically  !
 ! R7    R(5,6)                  1.4586         calculate D2E/DX2 analytically  !
 ! R8    R(5,7)                  1.4251         calculate D2E/DX2 analytically  !
 ! R9    R(5,8)                  1.623          calculate D2E/DX2 analytically  !
 ! R10   R(5,9)                  1.9202         calculate D2E/DX2 analytically  !
 ! R11   R(8,12)                 0.9639         calculate D2E/DX2 analytically  !
 ! A1    A(2,1,10)             124.6533         calculate D2E/DX2 analytically  !
 ! A2    A(2,1,11)             124.0558         calculate D2E/DX2 analytically  !
 ! A3    A(10,1,11)            110.487          calculate D2E/DX2 analytically  !
 ! A4    A(1,2,3)              111.6929         calculate D2E/DX2 analytically  !
 ! A5    A(1,2,4)              110.4436         calculate D2E/DX2 analytically  !
 ! A6    A(1,2,5)               95.2192         calculate D2E/DX2 analytically  !
 ! A7    A(3,2,4)              103.6446         calculate D2E/DX2 analytically  !
 ! A8    A(3,2,5)              118.0303         calculate D2E/DX2 analytically  !
 ! A9    A(4,2,5)              117.7798         calculate D2E/DX2 analytically  !
 ! A10   A(2,5,6)               97.3738         calculate D2E/DX2 analytically  !
 ! A11   A(2,5,7)              121.1913         calculate D2E/DX2 analytically  !
 ! A12   A(2,5,8)               90.5795         calculate D2E/DX2 analytically  !
 ! A13   A(2,5,9)               72.3976         calculate D2E/DX2 analytically  !
 ! A14   A(6,5,7)              137.8841         calculate D2E/DX2 analytically  !
 ! A15   A(6,5,8)               99.1306         calculate D2E/DX2 analytically  !
 ! A16   A(6,5,9)               84.1817         calculate D2E/DX2 analytically  !
 ! A17   A(7,5,8)               96.8802         calculate D2E/DX2 analytically  !
 ! A18   A(7,5,9)               91.5361         calculate D2E/DX2 analytically  !
 ! A19   A(8,5,9)              162.9609         calculate D2E/DX2 analytically  !
 ! A20   A(5,8,12)             120.3679         calculate D2E/DX2 analytically  !
 ! D1    D(10,1,2,3)          -159.3747         calculate D2E/DX2 analytically  !
 ! D2    D(10,1,2,4)           -44.5886         calculate D2E/DX2 analytically  !
 ! D3    D(10,1,2,5)            77.6552         calculate D2E/DX2 analytically  !
 ! D4    D(11,1,2,3)             9.3701         calculate D2E/DX2 analytically  !
 ! D5    D(11,1,2,4)           124.1562         calculate D2E/DX2 analytically  !
 ! D6    D(11,1,2,5)          -113.6            calculate D2E/DX2 analytically  !
 ! D7    D(1,2,5,6)            -22.9849         calculate D2E/DX2 analytically  !
 ! D8    D(1,2,5,7)            139.3263         calculate D2E/DX2 analytically  !
 ! D9    D(1,2,5,8)           -122.2688         calculate D2E/DX2 analytically  !
 ! D10   D(1,2,5,9)             58.4868         calculate D2E/DX2 analytically  !
 ! D11   D(3,2,5,6)           -140.9624         calculate D2E/DX2 analytically  !
 ! D12   D(3,2,5,7)             21.3488         calculate D2E/DX2 analytically  !
 ! D13   D(3,2,5,8)            119.7537         calculate D2E/DX2 analytically  !
 ! D14   D(3,2,5,9)            -59.4908         calculate D2E/DX2 analytically  !
 ! D15   D(4,2,5,6)             93.4097         calculate D2E/DX2 analytically  !
 ! D16   D(4,2,5,7)           -104.2791         calculate D2E/DX2 analytically  !
 ! D17   D(4,2,5,8)             -5.8742         calculate D2E/DX2 analytically  !
 ! D18   D(4,2,5,9)            174.8813         calculate D2E/DX2 analytically  !
 ! D19   D(2,5,8,12)             7.9927         calculate D2E/DX2 analytically  !
 ! D20   D(6,5,8,12)           -89.5706         calculate D2E/DX2 analytically  !
 ! D21   D(7,5,8,12)           129.5198         calculate D2E/DX2 analytically  !
 ! D22   D(9,5,8,12)            10.4512         calculate D2E/DX2 analytically  !
 --------------------------------------------------------------------------------
 Trust Radius=3.00D-01 FncErr=1.00D-07 GrdErr=1.00D-06 EigMax=2.50D+02 EigMin=1.00D-04
 Number of steps in this run=    100 maximum allowed number of steps=    100.
 Search for a saddle point of order  1.
 GradGradGradGradGradGradGradGradGradGradGradGradGradGradGradGradGradGrad

 Leave Link  103 at Sat May 24 06:01:33 2025, MaxMem=  3758096384 cpu:               0.0 elap:               0.0
 (Enter /apps/easybuild-2022/easybuild/software/Compiler/NVHPC/22.11-CUDA-11.7.0/Gaussian/g16c01-CUDA-11.7.0/g16/l202.exe)
                          Input orientation:                          
 ---------------------------------------------------------------------
 Center     Atomic      Atomic             Coordinates (Angstroms)
 Number     Number       Type             X           Y           Z
 ---------------------------------------------------------------------
      1          6           0       -0.141605   -0.827650    1.310793
      2          6           0        0.000000    0.000000    0.000000
      3          9           0       -0.617599   -0.575702   -1.007120
      4          9           0       -0.620648    1.171982    0.120580
      5         16           0        1.852326    0.000000    0.000000
      6          8           0        2.039525   -0.233363    1.427580
      7          8           0        2.590360   -0.178186   -1.205963
      8          8           0        1.868741    1.622923    0.000000
      9          9           0        1.271641   -1.830124   -0.024136
     10          9           0        0.013771   -0.363573    2.470744
     11          9           0       -0.617775   -1.981165    1.361631
     12          1           0        1.050109    2.118548    0.115643
 ---------------------------------------------------------------------
                    Distance matrix (angstroms):
                    1          2          3          4          5
     1  C    0.000000
     2  C    1.556674   0.000000
     3  F    2.379657   1.314211   0.000000
     4  F    2.375840   1.331648   2.079932   0.000000
     5  S    2.525657   1.852326   2.728782   2.739284   0.000000
     6  O    2.263657   2.500421   3.620120   3.280208   1.458591
     7  O    3.770875   2.862877   3.238605   3.727364   1.425059
     8  O    3.430011   2.475091   3.468448   2.532774   1.623006
     9  F    2.187294   2.228679   2.471652   3.551668   1.920191
    10  F    1.258966   2.497389   3.541068   2.878140   3.101136
    11  F    1.248968   2.482076   2.754325   3.388592   3.446803
    12  H    3.395386   2.367351   3.361671   1.920271   2.268297
                    6          7          8          9         10
     6  O    0.000000
     7  O    2.691099   0.000000
     8  O    2.347968   2.284529   0.000000
     9  F    2.290583   2.421701   3.504376   0.000000
    10  F    2.282285   4.493480   3.673100   3.155541   0.000000
    11  F    3.181258   4.487249   4.585440   2.347990   2.060482
    12  H    2.869079   3.064964   0.963938   3.957351   3.575112
                   11         12
    11  F    0.000000
    12  H    4.598040   0.000000
 Symmetry turned off by external request.
 Stoichiometry    C2HF5O3S
 Rotational constants (GHZ):           1.4258490           0.9657807           0.9289565
 Leave Link  202 at Sat May 24 06:01:33 2025, MaxMem=  3758096384 cpu:               0.0 elap:               0.0
 (Enter /apps/easybuild-2022/easybuild/software/Compiler/NVHPC/22.11-CUDA-11.7.0/Gaussian/g16c01-CUDA-11.7.0/g16/l301.exe)
 Standard basis: def2TZVPP (5D, 7F)
 Ernie: Thresh=  0.10000D-02 Tol=  0.10000D-05 Strict=F.
   366 basis functions,   596 primitive gaussians,   423 cartesian basis functions
    49 alpha electrons       49 beta electrons
       nuclear repulsion energy       952.0452775459 Hartrees.
 IExCor= 4336 DFT=T Ex+Corr=M062X ExCW=0 ScaHFX=  0.540000
 ScaDFX=  1.000000  1.000000  1.000000  1.000000 ScalE2=  1.000000  1.000000
 IRadAn=      5 IRanWt=     -1 IRanGd=            0 ICorTp=0 IEmpDi=  4
 NAtoms=   12 NActive=   12 NUniq=   12 SFac= 1.00D+00 NAtFMM=   60 NAOKFM=F Big=F
 Integral buffers will be    131072 words long.
 Raffenetti 2 integral format.
 Two-electron integral symmetry is turned off.
 Leave Link  301 at Sat May 24 06:01:33 2025, MaxMem=  3758096384 cpu:               0.0 elap:               0.0
 (Enter /apps/easybuild-2022/easybuild/software/Compiler/NVHPC/22.11-CUDA-11.7.0/Gaussian/g16c01-CUDA-11.7.0/g16/l302.exe)
 NPDir=0 NMtPBC=     1 NCelOv=     1 NCel=       1 NClECP=     1 NCelD=      1
         NCelK=      1 NCelE2=     1 NClLst=     1 CellRange=     0.0.
 One-electron integrals computed using PRISM.
   1 Symmetry operations used in ECPInt.
 ECPInt:  NShTT=    8515 NPrTT=   27988 LenC2=    8088 LenP2D=   19753.
 LDataN:  DoStor=T MaxTD1= 6 Len=  172
 NBasis=   366 RedAO= T EigKep=  3.04D-04  NBF=   366
 NBsUse=   366 1.00D-06 EigRej= -1.00D+00 NBFU=   366
 Precomputing XC quadrature grid using
 IXCGrd= 4 IRadAn=           5 IRanWt=          -1 IRanGd=           0 AccXCQ= 0.00D+00.
 Generated NRdTot=       0 NPtTot=           0 NUsed=           0 NTot=          32
 NSgBfM=   420   420   420   420   420 MxSgAt=    12 MxSgA2=    12.
 Leave Link  302 at Sat May 24 06:01:33 2025, MaxMem=  3758096384 cpu:               0.7 elap:               0.2
 (Enter /apps/easybuild-2022/easybuild/software/Compiler/NVHPC/22.11-CUDA-11.7.0/Gaussian/g16c01-CUDA-11.7.0/g16/l303.exe)
 DipDrv:  MaxL=1.
 Leave Link  303 at Sat May 24 06:01:33 2025, MaxMem=  3758096384 cpu:               0.1 elap:               0.0
 (Enter /apps/easybuild-2022/easybuild/software/Compiler/NVHPC/22.11-CUDA-11.7.0/Gaussian/g16c01-CUDA-11.7.0/g16/l401.exe)
 ExpMin= 9.52D-02 ExpMax= 6.07D+04 ExpMxC= 2.07D+03 IAcc=3 IRadAn=         5 AccDes= 0.00D+00
 Harris functional with IExCor= 1009 and IRadAn=       5 diagonalized for initial guess.
 HarFok:  IExCor= 1009 AccDes= 0.00D+00 IRadAn=         5 IDoV= 1 UseB2=F ITyADJ=14
 ICtDFT=  3500011 ScaDFX=  1.000000  1.000000  1.000000  1.000000
 FoFCou: FMM=F IPFlag=           0 FMFlag=      100000 FMFlg1=           0
         NFxFlg=           0 DoJE=T BraDBF=F KetDBF=T FulRan=T
         wScrn=  0.000000 ICntrl=       500 IOpCl=  0 I1Cent=   200000004 NGrid=           0
         NMat0=    1 NMatS0=      1 NMatT0=    0 NMatD0=    1 NMtDS0=    0 NMtDT0=    0
 Symmetry not used in FoFCou.
 Harris En= -1199.23762964877    
 JPrj=0 DoOrth=F DoCkMO=F.
 Leave Link  401 at Sat May 24 06:01:33 2025, MaxMem=  3758096384 cpu:               4.7 elap:               0.6
 (Enter /apps/easybuild-2022/easybuild/software/Compiler/NVHPC/22.11-CUDA-11.7.0/Gaussian/g16c01-CUDA-11.7.0/g16/l502.exe)
 Keep R1 ints in memory in canonical form, NReq=2293447020.
 FoFCou: FMM=F IPFlag=           0 FMFlag=           0 FMFlg1=           0
         NFxFlg=           0 DoJE=F BraDBF=F KetDBF=F FulRan=T
         wScrn=  0.000000 ICntrl=       600 IOpCl=  0 I1Cent=           0 NGrid=           0
         NMat0=    1 NMatS0=  67161 NMatT0=    0 NMatD0=    1 NMtDS0=    0 NMtDT0=    0
 Symmetry not used in FoFCou.
 Two-electron integral symmetry not used.
 Closed shell SCF:
 Using DIIS extrapolation, IDIIS=  1040.
 NGot=  3758096384 LenX=  1502398648 LenY=  1502219278
 Requested convergence on RMS density matrix=1.00D-08 within  32 cycles.
 Requested convergence on MAX density matrix=1.00D-06.
 Requested convergence on             energy=1.00D-06.
 No special actions if energy rises.
 Integral accuracy reduced to 1.0D-05 until final iterations.

 Cycle   1  Pass 0  IDiag  1:
 E= -1199.32927597723    
 DIIS: error= 2.00D-02 at cycle   1 NSaved=   1.
 NSaved= 1 IEnMin= 1 EnMin= -1199.32927597723     IErMin= 1 ErrMin= 2.00D-02
 ErrMax= 2.00D-02  0.00D+00 EMaxC= 1.00D-01 BMatC= 7.23D-01 BMatP= 7.23D-01
 IDIUse=3 WtCom= 8.00D-01 WtEn= 2.00D-01
 Coeff-Com:  0.100D+01
 Coeff-En:   0.100D+01
 Coeff:      0.100D+01
 Gap=     0.221 Goal=   None    Shift=    0.000
 GapD=    0.221 DampG=1.000 DampE=0.500 DampFc=0.5000 IDamp=-1.
 Damping current iteration by 5.00D-01
 RMSDP=4.13D-03 MaxDP=2.98D-01              OVMax= 5.41D-01

 Cycle   2  Pass 0  IDiag  1:
 E= -1199.32303640992     Delta-E=        0.006239567305 Rises=F Damp=T
 DIIS: error= 9.05D-03 at cycle   2 NSaved=   2.
 NSaved= 2 IEnMin= 1 EnMin= -1199.32927597723     IErMin= 2 ErrMin= 9.05D-03
 ErrMax= 9.05D-03  0.00D+00 EMaxC= 1.00D-01 BMatC= 1.25D-01 BMatP= 7.23D-01
 IDIUse=3 WtCom= 9.09D-01 WtEn= 9.05D-02
 Coeff-Com:  0.215D+00 0.785D+00
 Coeff-En:   0.507D+00 0.493D+00
 Coeff:      0.241D+00 0.759D+00
 Gap=     0.094 Goal=   None    Shift=    0.000
 RMSDP=1.33D-03 MaxDP=1.16D-01 DE= 6.24D-03 OVMax= 4.51D-01

 Cycle   3  Pass 0  IDiag  1:
 E= -1199.68192402943     Delta-E=       -0.358887619507 Rises=F Damp=F
 DIIS: error= 7.77D-03 at cycle   3 NSaved=   3.
 NSaved= 3 IEnMin= 3 EnMin= -1199.68192402943     IErMin= 3 ErrMin= 7.77D-03
 ErrMax= 7.77D-03  0.00D+00 EMaxC= 1.00D-01 BMatC= 6.40D-02 BMatP= 1.25D-01
 IDIUse=3 WtCom= 9.22D-01 WtEn= 7.77D-02
 Coeff-Com:  0.214D-01 0.401D+00 0.578D+00
 Coeff-En:   0.000D+00 0.000D+00 0.100D+01
 Coeff:      0.198D-01 0.369D+00 0.611D+00
 Gap=     0.250 Goal=   None    Shift=    0.000
 RMSDP=6.62D-04 MaxDP=3.04D-02 DE=-3.59D-01 OVMax= 5.86D-02

 Cycle   4  Pass 0  IDiag  1:
 E= -1199.72736778520     Delta-E=       -0.045443755771 Rises=F Damp=F
 DIIS: error= 3.04D-03 at cycle   4 NSaved=   4.
 NSaved= 4 IEnMin= 4 EnMin= -1199.72736778520     IErMin= 4 ErrMin= 3.04D-03
 ErrMax= 3.04D-03  0.00D+00 EMaxC= 1.00D-01 BMatC= 1.24D-02 BMatP= 6.40D-02
 IDIUse=3 WtCom= 9.70D-01 WtEn= 3.04D-02
 Coeff-Com: -0.474D-01 0.126D+00 0.294D+00 0.627D+00
 Coeff-En:   0.000D+00 0.000D+00 0.000D+00 0.100D+01
 Coeff:     -0.460D-01 0.123D+00 0.285D+00 0.638D+00
 Gap=     0.240 Goal=   None    Shift=    0.000
 RMSDP=2.47D-04 MaxDP=1.30D-02 DE=-4.54D-02 OVMax= 2.86D-02

 Cycle   5  Pass 0  IDiag  1:
 E= -1199.73511709843     Delta-E=       -0.007749313227 Rises=F Damp=F
 DIIS: error= 1.08D-03 at cycle   5 NSaved=   5.
 NSaved= 5 IEnMin= 5 EnMin= -1199.73511709843     IErMin= 5 ErrMin= 1.08D-03
 ErrMax= 1.08D-03  0.00D+00 EMaxC= 1.00D-01 BMatC= 1.67D-03 BMatP= 1.24D-02
 IDIUse=3 WtCom= 9.89D-01 WtEn= 1.08D-02
 Coeff-Com: -0.260D-01 0.348D-01 0.452D-01 0.294D+00 0.652D+00
 Coeff-En:   0.000D+00 0.000D+00 0.000D+00 0.000D+00 0.100D+01
 Coeff:     -0.257D-01 0.344D-01 0.447D-01 0.291D+00 0.656D+00
 Gap=     0.240 Goal=   None    Shift=    0.000
 RMSDP=8.68D-05 MaxDP=4.51D-03 DE=-7.75D-03 OVMax= 1.10D-02

 Cycle   6  Pass 0  IDiag  1:
 E= -1199.73636888950     Delta-E=       -0.001251791075 Rises=F Damp=F
 DIIS: error= 2.72D-04 at cycle   6 NSaved=   6.
 NSaved= 6 IEnMin= 6 EnMin= -1199.73636888950     IErMin= 6 ErrMin= 2.72D-04
 ErrMax= 2.72D-04  0.00D+00 EMaxC= 1.00D-01 BMatC= 9.27D-05 BMatP= 1.67D-03
 IDIUse=3 WtCom= 9.97D-01 WtEn= 2.72D-03
 Coeff-Com: -0.109D-02-0.234D-02-0.327D-01-0.629D-02 0.184D+00 0.859D+00
 Coeff-En:   0.000D+00 0.000D+00 0.000D+00 0.000D+00 0.000D+00 0.100D+01
 Coeff:     -0.108D-02-0.234D-02-0.327D-01-0.627D-02 0.183D+00 0.859D+00
 Gap=     0.241 Goal=   None    Shift=    0.000
 RMSDP=4.06D-05 MaxDP=1.51D-03 DE=-1.25D-03 OVMax= 9.10D-03

 Cycle   7  Pass 0  IDiag  1:
 E= -1199.73651511669     Delta-E=       -0.000146227189 Rises=F Damp=F
 DIIS: error= 1.12D-04 at cycle   7 NSaved=   7.
 NSaved= 7 IEnMin= 7 EnMin= -1199.73651511669     IErMin= 7 ErrMin= 1.12D-04
 ErrMax= 1.12D-04  0.00D+00 EMaxC= 1.00D-01 BMatC= 1.47D-05 BMatP= 9.27D-05
 IDIUse=3 WtCom= 9.99D-01 WtEn= 1.12D-03
 Coeff-Com:  0.217D-02-0.457D-02-0.159D-01-0.321D-01-0.274D-02 0.353D+00
 Coeff-Com:  0.700D+00
 Coeff-En:   0.000D+00 0.000D+00 0.000D+00 0.000D+00 0.000D+00 0.000D+00
 Coeff-En:   0.100D+01
 Coeff:      0.216D-02-0.457D-02-0.159D-01-0.320D-01-0.274D-02 0.352D+00
 Coeff:      0.701D+00
 Gap=     0.241 Goal=   None    Shift=    0.000
 RMSDP=1.49D-05 MaxDP=5.55D-04 DE=-1.46D-04 OVMax= 3.76D-03

 Cycle   8  Pass 0  IDiag  1:
 E= -1199.73653765844     Delta-E=       -0.000022541746 Rises=F Damp=F
 DIIS: error= 4.48D-05 at cycle   8 NSaved=   8.
 NSaved= 8 IEnMin= 8 EnMin= -1199.73653765844     IErMin= 8 ErrMin= 4.48D-05
 ErrMax= 4.48D-05  0.00D+00 EMaxC= 1.00D-01 BMatC= 2.29D-06 BMatP= 1.47D-05
 IDIUse=1 WtCom= 1.00D+00 WtEn= 0.00D+00
 Coeff-Com:  0.864D-03-0.114D-02 0.137D-02-0.809D-02-0.315D-01-0.306D-02
 Coeff-Com:  0.246D+00 0.796D+00
 Coeff:      0.864D-03-0.114D-02 0.137D-02-0.809D-02-0.315D-01-0.306D-02
 Coeff:      0.246D+00 0.796D+00
 Gap=     0.241 Goal=   None    Shift=    0.000
 RMSDP=8.05D-06 MaxDP=3.61D-04 DE=-2.25D-05 OVMax= 1.97D-03

 Initial convergence to 1.0D-05 achieved.  Increase integral accuracy.
 Cycle   9  Pass 1  IDiag  1:
 E= -1199.73657162438     Delta-E=       -0.000033965938 Rises=F Damp=F
 DIIS: error= 2.38D-05 at cycle   1 NSaved=   1.
 NSaved= 1 IEnMin= 1 EnMin= -1199.73657162438     IErMin= 1 ErrMin= 2.38D-05
 ErrMax= 2.38D-05  0.00D+00 EMaxC= 1.00D-01 BMatC= 1.19D-06 BMatP= 1.19D-06
 IDIUse=1 WtCom= 1.00D+00 WtEn= 0.00D+00
 Coeff-Com:  0.100D+01
 Coeff:      0.100D+01
 Gap=     0.241 Goal=   None    Shift=    0.000
 RMSDP=8.05D-06 MaxDP=3.61D-04 DE=-3.40D-05 OVMax= 8.42D-04

 Cycle  10  Pass 1  IDiag  1:
 E= -1199.73657280959     Delta-E=       -0.000001185220 Rises=F Damp=F
 DIIS: error= 3.11D-05 at cycle   2 NSaved=   2.
 NSaved= 2 IEnMin= 2 EnMin= -1199.73657280959     IErMin= 1 ErrMin= 2.38D-05
 ErrMax= 3.11D-05  0.00D+00 EMaxC= 1.00D-01 BMatC= 6.32D-07 BMatP= 1.19D-06
 IDIUse=1 WtCom= 1.00D+00 WtEn= 0.00D+00
 Coeff-Com:  0.385D+00 0.615D+00
 Coeff:      0.385D+00 0.615D+00
 Gap=     0.241 Goal=   None    Shift=    0.000
 RMSDP=2.15D-06 MaxDP=2.07D-04 DE=-1.19D-06 OVMax= 2.74D-04

 Cycle  11  Pass 1  IDiag  1:
 E= -1199.73657324377     Delta-E=       -0.000000434171 Rises=F Damp=F
 DIIS: error= 1.50D-05 at cycle   3 NSaved=   3.
 NSaved= 3 IEnMin= 3 EnMin= -1199.73657324377     IErMin= 3 ErrMin= 1.50D-05
 ErrMax= 1.50D-05  0.00D+00 EMaxC= 1.00D-01 BMatC= 1.72D-07 BMatP= 6.32D-07
 IDIUse=1 WtCom= 1.00D+00 WtEn= 0.00D+00
 Coeff-Com: -0.508D-01 0.325D+00 0.726D+00
 Coeff:     -0.508D-01 0.325D+00 0.726D+00
 Gap=     0.241 Goal=   None    Shift=    0.000
 RMSDP=1.17D-06 MaxDP=4.70D-05 DE=-4.34D-07 OVMax= 2.62D-04

 Cycle  12  Pass 1  IDiag  1:
 E= -1199.73657343036     Delta-E=       -0.000000186595 Rises=F Damp=F
 DIIS: error= 3.25D-06 at cycle   4 NSaved=   4.
 NSaved= 4 IEnMin= 4 EnMin= -1199.73657343036     IErMin= 4 ErrMin= 3.25D-06
 ErrMax= 3.25D-06  0.00D+00 EMaxC= 1.00D-01 BMatC= 8.41D-09 BMatP= 1.72D-07
 IDIUse=1 WtCom= 1.00D+00 WtEn= 0.00D+00
 Coeff-Com: -0.363D-01 0.551D-01 0.197D+00 0.784D+00
 Coeff:     -0.363D-01 0.551D-01 0.197D+00 0.784D+00
 Gap=     0.241 Goal=   None    Shift=    0.000
 RMSDP=4.89D-07 MaxDP=2.33D-05 DE=-1.87D-07 OVMax= 1.31D-04

 Cycle  13  Pass 1  IDiag  1:
 E= -1199.73657345517     Delta-E=       -0.000000024808 Rises=F Damp=F
 DIIS: error= 1.65D-06 at cycle   5 NSaved=   5.
 NSaved= 5 IEnMin= 5 EnMin= -1199.73657345517     IErMin= 5 ErrMin= 1.65D-06
 ErrMax= 1.65D-06  0.00D+00 EMaxC= 1.00D-01 BMatC= 3.38D-09 BMatP= 8.41D-09
 IDIUse=1 WtCom= 1.00D+00 WtEn= 0.00D+00
 Coeff-Com:  0.124D-02-0.807D-01-0.154D+00 0.320D+00 0.913D+00
 Coeff:      0.124D-02-0.807D-01-0.154D+00 0.320D+00 0.913D+00
 Gap=     0.241 Goal=   None    Shift=    0.000
 RMSDP=4.04D-07 MaxDP=2.01D-05 DE=-2.48D-08 OVMax= 1.08D-04

 Cycle  14  Pass 1  IDiag  1:
 E= -1199.73657346548     Delta-E=       -0.000000010310 Rises=F Damp=F
 DIIS: error= 7.82D-07 at cycle   6 NSaved=   6.
 NSaved= 6 IEnMin= 6 EnMin= -1199.73657346548     IErMin= 6 ErrMin= 7.82D-07
 ErrMax= 7.82D-07  0.00D+00 EMaxC= 1.00D-01 BMatC= 7.01D-10 BMatP= 3.38D-09
 IDIUse=1 WtCom= 1.00D+00 WtEn= 0.00D+00
 Coeff-Com:  0.784D-02-0.519D-01-0.116D+00 0.229D-01 0.458D+00 0.679D+00
 Coeff:      0.784D-02-0.519D-01-0.116D+00 0.229D-01 0.458D+00 0.679D+00
 Gap=     0.241 Goal=   None    Shift=    0.000
 RMSDP=1.44D-07 MaxDP=6.89D-06 DE=-1.03D-08 OVMax= 3.75D-05

 Cycle  15  Pass 1  IDiag  1:
 E= -1199.73657346680     Delta-E=       -0.000000001318 Rises=F Damp=F
 DIIS: error= 2.33D-07 at cycle   7 NSaved=   7.
 NSaved= 7 IEnMin= 7 EnMin= -1199.73657346680     IErMin= 7 ErrMin= 2.33D-07
 ErrMax= 2.33D-07  0.00D+00 EMaxC= 1.00D-01 BMatC= 6.22D-11 BMatP= 7.01D-10
 IDIUse=1 WtCom= 1.00D+00 WtEn= 0.00D+00
 Coeff-Com:  0.198D-02-0.623D-02-0.172D-01-0.289D-01 0.195D-01 0.231D+00
 Coeff-Com:  0.799D+00
 Coeff:      0.198D-02-0.623D-02-0.172D-01-0.289D-01 0.195D-01 0.231D+00
 Coeff:      0.799D+00
 Gap=     0.241 Goal=   None    Shift=    0.000
 RMSDP=4.36D-08 MaxDP=1.97D-06 DE=-1.32D-09 OVMax= 8.59D-06

 Cycle  16  Pass 1  IDiag  1:
 E= -1199.73657346689     Delta-E=       -0.000000000095 Rises=F Damp=F
 DIIS: error= 7.03D-08 at cycle   8 NSaved=   8.
 NSaved= 8 IEnMin= 8 EnMin= -1199.73657346689     IErMin= 8 ErrMin= 7.03D-08
 ErrMax= 7.03D-08  0.00D+00 EMaxC= 1.00D-01 BMatC= 1.02D-11 BMatP= 6.22D-11
 IDIUse=1 WtCom= 1.00D+00 WtEn= 0.00D+00
 Coeff-Com: -0.467D-03 0.627D-02 0.120D-01-0.129D-01-0.694D-01-0.187D-01
 Coeff-Com:  0.300D+00 0.783D+00
 Coeff:     -0.467D-03 0.627D-02 0.120D-01-0.129D-01-0.694D-01-0.187D-01
 Coeff:      0.300D+00 0.783D+00
 Gap=     0.241 Goal=   None    Shift=    0.000
 RMSDP=1.63D-08 MaxDP=5.88D-07 DE=-9.46D-11 OVMax= 2.94D-06

 Cycle  17  Pass 1  IDiag  1:
 E= -1199.73657346693     Delta-E=       -0.000000000036 Rises=F Damp=F
 DIIS: error= 3.29D-08 at cycle   9 NSaved=   9.
 NSaved= 9 IEnMin= 9 EnMin= -1199.73657346693     IErMin= 9 ErrMin= 3.29D-08
 ErrMax= 3.29D-08  0.00D+00 EMaxC= 1.00D-01 BMatC= 1.47D-12 BMatP= 1.02D-11
 IDIUse=1 WtCom= 1.00D+00 WtEn= 0.00D+00
 Coeff-Com: -0.457D-03 0.345D-02 0.704D-02-0.152D-02-0.297D-01-0.385D-01
 Coeff-Com:  0.137D-01 0.276D+00 0.770D+00
 Coeff:     -0.457D-03 0.345D-02 0.704D-02-0.152D-02-0.297D-01-0.385D-01
 Coeff:      0.137D-01 0.276D+00 0.770D+00
 Gap=     0.241 Goal=   None    Shift=    0.000
 RMSDP=5.90D-09 MaxDP=2.23D-07 DE=-3.59D-11 OVMax= 1.42D-06

 SCF Done:  E(RM062X) =  -1199.73657347     A.U. after   17 cycles
            NFock= 17  Conv=0.59D-08     -V/T= 2.0028
 KE= 1.196399554540D+03 PE=-4.749834216922D+03 EE= 1.401652811369D+03
 Leave Link  502 at Sat May 24 06:02:22 2025, MaxMem=  3758096384 cpu:             189.9 elap:              48.6
 (Enter /apps/easybuild-2022/easybuild/software/Compiler/NVHPC/22.11-CUDA-11.7.0/Gaussian/g16c01-CUDA-11.7.0/g16/l508.exe)
 QCSCF skips out because SCF is already converged.
 Leave Link  508 at Sat May 24 06:02:22 2025, MaxMem=  3758096384 cpu:               0.0 elap:               0.0
 (Enter /apps/easybuild-2022/easybuild/software/Compiler/NVHPC/22.11-CUDA-11.7.0/Gaussian/g16c01-CUDA-11.7.0/g16/l801.exe)
 DoSCS=F DFT=T ScalE2(SS,OS)=  1.000000  1.000000
 Range of M.O.s used for correlation:     1   366
 NBasis=   366 NAE=    49 NBE=    49 NFC=     0 NFV=     0
 NROrb=    366 NOA=    49 NOB=    49 NVA=   317 NVB=   317

 **** Warning!!: The largest alpha MO coefficient is  0.15346621D+02

 Leave Link  801 at Sat May 24 06:02:22 2025, MaxMem=  3758096384 cpu:               0.0 elap:               0.0
 (Enter /apps/easybuild-2022/easybuild/software/Compiler/NVHPC/22.11-CUDA-11.7.0/Gaussian/g16c01-CUDA-11.7.0/g16/l1101.exe)
 Using compressed storage, NAtomX=    12.
 Will process     13 centers per pass.
   1 Symmetry operations used in ECPInt.
 ECPInt:  NShTT=    8515 NPrTT=   27988 LenC2=    8088 LenP2D=   19753.
 LDataN:  DoStor=T MaxTD1= 7 Len=  274
 Leave Link 1101 at Sat May 24 06:02:22 2025, MaxMem=  3758096384 cpu:               1.1 elap:               0.2
 (Enter /apps/easybuild-2022/easybuild/software/Compiler/NVHPC/22.11-CUDA-11.7.0/Gaussian/g16c01-CUDA-11.7.0/g16/l1102.exe)
 Symmetrizing basis deriv contribution to polar:
 IMax=3 JMax=2 DiffMx= 0.00D+00
 Leave Link 1102 at Sat May 24 06:02:22 2025, MaxMem=  3758096384 cpu:               0.1 elap:               0.0
 (Enter /apps/easybuild-2022/easybuild/software/Compiler/NVHPC/22.11-CUDA-11.7.0/Gaussian/g16c01-CUDA-11.7.0/g16/l1110.exe)
 Forming Gx(P) for the SCF density, NAtomX=    12.
 Integral derivatives from FoFJK, PRISM(SPDF).
 Do as many integral derivatives as possible in FoFJK.
 G2DrvN: MDV=    3758094988.
 G2DrvN: will do    13 centers at a time, making    1 passes.
 Calling FoFCou, ICntrl=  3107 FMM=F I1Cent=   0 AccDes= 0.00D+00.
 FoFJK:  IHMeth= 1 ICntrl=    3107 DoSepK=F KAlg= 0 I1Cent=           0 FoldK=F
 IRaf=         0 NMat=       1 IRICut=       1 DoRegI=T DoRafI=F ISym2E= 0 IDoP0=0 IntGTp=1.
 FoFCou: FMM=F IPFlag=           0 FMFlag=      100000 FMFlg1=           0
         NFxFlg=           0 DoJE=F BraDBF=F KetDBF=F FulRan=T
         wScrn=  0.000000 ICntrl=      3107 IOpCl=  0 I1Cent=           0 NGrid=           0
         NMat0=    1 NMatS0=      1 NMatT0=    0 NMatD0=    1 NMtDS0=    0 NMtDT0=    0
 Symmetry not used in FoFCou.
 End of G2Drv F.D. properties file   721 does not exist.
 End of G2Drv F.D. properties file   722 does not exist.
 End of G2Drv F.D. properties file   788 does not exist.
 Leave Link 1110 at Sat May 24 06:03:26 2025, MaxMem=  3758096384 cpu:             500.4 elap:              63.1
 (Enter /apps/easybuild-2022/easybuild/software/Compiler/NVHPC/22.11-CUDA-11.7.0/Gaussian/g16c01-CUDA-11.7.0/g16/l1002.exe)
 Minotr:  Closed shell wavefunction.
          IDoAtm=111111111111
          Direct CPHF calculation.
          Differentiating once with respect to electric field.
                with respect to dipole field.
          Differentiating once with respect to nuclear coordinates.
          Requested convergence is 1.0D-08 RMS, and 1.0D-07 maximum.
          Secondary convergence is 1.0D-12 RMS, and 1.0D-12 maximum.
          NewPWx=T KeepS1=F KeepF1=F KeepIn=T MapXYZ=F SortEE=F KeepMc=T.
         3598 words used for storage of precomputed grid.
 Keep R1 ints in memory in canonical form, NReq=2293452928.
 FoFCou: FMM=F IPFlag=           0 FMFlag=           0 FMFlg1=           0
         NFxFlg=           0 DoJE=F BraDBF=F KetDBF=F FulRan=T
         wScrn=  0.000000 ICntrl=       600 IOpCl=  0 I1Cent=           0 NGrid=           0
         NMat0=    1 NMatS0=  67161 NMatT0=    0 NMatD0=    1 NMtDS0=    0 NMtDT0=    0
 Symmetry not used in FoFCou.
 Two-electron integral symmetry not used.
          MDV=    3758096384 using IRadAn=       1.
          Solving linear equations simultaneously, MaxMat=       0.
          There are    39 degrees of freedom in the 1st order CPHF.  IDoFFX=6 NUNeed=     3.
     36 vectors produced by pass  0 Test12= 3.98D-14 2.56D-09 XBig12= 2.91D+01 1.78D+00.
 AX will form    36 AO Fock derivatives at one time.
     36 vectors produced by pass  1 Test12= 3.98D-14 2.56D-09 XBig12= 5.64D+00 3.21D-01.
     36 vectors produced by pass  2 Test12= 3.98D-14 2.56D-09 XBig12= 1.75D-01 6.86D-02.
     36 vectors produced by pass  3 Test12= 3.98D-14 2.56D-09 XBig12= 4.88D-03 1.01D-02.
     36 vectors produced by pass  4 Test12= 3.98D-14 2.56D-09 XBig12= 8.29D-05 1.00D-03.
     36 vectors produced by pass  5 Test12= 3.98D-14 2.56D-09 XBig12= 8.72D-07 9.03D-05.
     36 vectors produced by pass  6 Test12= 3.98D-14 2.56D-09 XBig12= 6.67D-09 1.14D-05.
     26 vectors produced by pass  7 Test12= 3.98D-14 2.56D-09 XBig12= 4.06D-11 7.19D-07.
      6 vectors produced by pass  8 Test12= 3.98D-14 2.56D-09 XBig12= 1.99D-13 4.14D-08.
      3 vectors produced by pass  9 Test12= 3.98D-14 2.56D-09 XBig12= 1.09D-15 3.31D-09.
 InvSVY:  IOpt=1 It=  1 EMax= 5.33D-15
 Solved reduced A of dimension   287 with    39 vectors.
 FullF1:  Do perturbations      1 to       3.
 Isotropic polarizability for W=    0.000000       58.44 Bohr**3.
 End of Minotr F.D. properties file   721 does not exist.
 End of Minotr F.D. properties file   722 does not exist.
 End of Minotr F.D. properties file   788 does not exist.
 Leave Link 1002 at Sat May 24 06:05:07 2025, MaxMem=  3758096384 cpu:             801.0 elap:             101.9
 (Enter /apps/easybuild-2022/easybuild/software/Compiler/NVHPC/22.11-CUDA-11.7.0/Gaussian/g16c01-CUDA-11.7.0/g16/l701.exe)
 ... and contract with generalized density number  0.
 Compute integral second derivatives.
   1 Symmetry operations used in ECPInt.
 ECPInt:  NShTT=    8515 NPrTT=   27988 LenC2=    8088 LenP2D=   19753.
 LDataN:  DoStor=T MaxTD1= 8 Len=  415
 Leave Link  701 at Sat May 24 06:05:08 2025, MaxMem=  3758096384 cpu:               0.9 elap:               0.2
 (Enter /apps/easybuild-2022/easybuild/software/Compiler/NVHPC/22.11-CUDA-11.7.0/Gaussian/g16c01-CUDA-11.7.0/g16/l702.exe)
 L702 exits ... SP integral derivatives will be done elsewhere.
 Leave Link  702 at Sat May 24 06:05:08 2025, MaxMem=  3758096384 cpu:               0.0 elap:               0.0
 (Enter /apps/easybuild-2022/easybuild/software/Compiler/NVHPC/22.11-CUDA-11.7.0/Gaussian/g16c01-CUDA-11.7.0/g16/l703.exe)
 Integral derivatives from FoFJK, PRISM(SPDF).
 Compute integral second derivatives, UseDBF=F ICtDFT=           0.
 Calling FoFJK, ICntrl=    100127 FMM=F ISym2X=0 I1Cent= 0 IOpClX= 0 NMat=1 NMatS=1 NMatT=0.
 FoFJK:  IHMeth= 1 ICntrl=  100127 DoSepK=F KAlg= 0 I1Cent=           0 FoldK=F
 IRaf=         0 NMat=       1 IRICut=       1 DoRegI=T DoRafI=F ISym2E= 0 IDoP0=0 IntGTp=1.
 FoFCou: FMM=F IPFlag=           0 FMFlag=      100000 FMFlg1=         800
         NFxFlg=           0 DoJE=F BraDBF=F KetDBF=F FulRan=T
         wScrn=  0.000000 ICntrl=    100127 IOpCl=  0 I1Cent=           0 NGrid=           0
         NMat0=    1 NMatS0=      1 NMatT0=    0 NMatD0=    1 NMtDS0=    0 NMtDT0=    0
 Symmetry not used in FoFCou.
 Leave Link  703 at Sat May 24 06:07:39 2025, MaxMem=  3758096384 cpu:            1199.4 elap:             151.2
 (Enter /apps/easybuild-2022/easybuild/software/Compiler/NVHPC/22.11-CUDA-11.7.0/Gaussian/g16c01-CUDA-11.7.0/g16/l716.exe)
 Dipole        =-2.46717946D+00 5.61600795D-01 1.27333225D+00
 Polarizability= 6.05461061D+01 3.37667343D+00 5.79191107D+01
                -6.97563175D+00-9.04892974D-01 5.68491768D+01
 -------------------------------------------------------------------
 Center     Atomic                   Forces (Hartrees/Bohr)
 Number     Number              X              Y              Z
 -------------------------------------------------------------------
      1        6           0.010751413   -0.021887692    0.014158420
      2        6          -0.011207350   -0.016269169   -0.011575730
      3        9           0.002127053   -0.012569921   -0.002021121
      4        9           0.000342027    0.012197774    0.017485406
      5       16          -0.015103505    0.027230673   -0.004395011
      6        8           0.028350760   -0.000582028   -0.017556759
      7        8           0.001923036   -0.014692995    0.017672301
      8        8           0.011171637    0.016704219   -0.004901663
      9        9          -0.001537671    0.005783124   -0.001520787
     10        9          -0.019603825    0.008997556   -0.005868136
     11        9          -0.011661539    0.002425335   -0.005373398
     12        1           0.004447966   -0.007336877    0.003896478
 -------------------------------------------------------------------
 Cartesian Forces:  Max     0.028350760 RMS     0.012691942
 Force constants in Cartesian coordinates: 
                1             2             3             4             5 
      1  0.181036D+00
      2  0.182127D+00  0.697373D+00
      3  0.592125D-01 -0.209488D-01  0.682653D+00
      4 -0.664281D-01  0.777489D-02 -0.209142D-01  0.474310D+00
      5 -0.114288D-01 -0.712153D-01  0.574222D-01 -0.117274D-01  0.521052D+00
      6  0.114778D-01  0.546227D-01 -0.112915D+00  0.109999D+00  0.545621D-01
      7 -0.202482D-02 -0.609099D-02 -0.547355D-02 -0.145049D+00 -0.590983D-01
      8  0.394279D-02  0.324219D-02 -0.244584D-02 -0.686747D-01 -0.115213D+00
      9 -0.198927D-01 -0.190100D-01 -0.469521D-01 -0.119833D+00 -0.921886D-01
     10 -0.313109D-02  0.693154D-02  0.566413D-02 -0.132710D+00  0.110001D+00
     11  0.159111D-01 -0.424931D-01  0.869071D-03  0.120646D+00 -0.253414D+00
     12 -0.871929D-02  0.188784D-01  0.398537D-02  0.401821D-02 -0.989762D-03
     13  0.256117D-01 -0.129723D-01  0.491721D-01 -0.154458D+00  0.548527D-02
     14 -0.589471D-01  0.453747D-01  0.471727D-01 -0.194424D-01  0.138523D-01
     15  0.108632D+00  0.303852D-01  0.146810D-01  0.575281D-02  0.355817D-02
     16  0.349833D-01  0.131635D-01  0.945755D-03  0.271593D-03  0.212518D-03
     17  0.300687D-01 -0.516989D-02 -0.445581D-02 -0.202724D-02 -0.537413D-02
     18 -0.415234D-01 -0.147689D-01 -0.250081D-01  0.670428D-02  0.288614D-02
     19 -0.118709D-01 -0.656641D-03 -0.746711D-02  0.972697D-02 -0.355502D-03
     20  0.537392D-02 -0.771042D-02 -0.578073D-02  0.129075D-02 -0.522510D-02
     21 -0.949772D-02 -0.318674D-02  0.861307D-03 -0.766633D-02  0.234882D-03
     22 -0.141693D-01  0.353532D-02 -0.495736D-02 -0.800427D-02 -0.168509D-01
     23  0.447317D-02  0.288642D-02 -0.947069D-02  0.328559D-02 -0.329718D-01
     24 -0.897767D-02 -0.269587D-02 -0.371078D-02 -0.335078D-03 -0.296587D-02
     25  0.432571D-02 -0.186033D-01 -0.296767D-01 -0.438381D-02  0.496334D-02
     26 -0.948693D-03 -0.333531D-01  0.670944D-03  0.208315D-03 -0.431933D-01
     27 -0.217664D-01  0.171330D-01  0.184902D-01  0.460890D-02 -0.414762D-02
     28 -0.501974D-01 -0.135539D-01 -0.442973D-01  0.156170D-01 -0.265961D-02
     29 -0.367423D-01 -0.128127D+00 -0.107198D+00  0.240626D-02  0.999029D-02
     30 -0.773948D-01 -0.104061D+00 -0.441291D+00  0.390187D-02 -0.311864D-01
     31 -0.998970D-01 -0.162474D+00 -0.151016D-02  0.835443D-02 -0.480866D-02
     32 -0.134712D+00 -0.458173D+00  0.417042D-01 -0.305236D-01 -0.115412D-01
     33  0.873596D-02  0.424961D-01 -0.924631D-01  0.136594D-01  0.125009D-01
     34  0.176210D-02  0.818595D-03 -0.698069D-03  0.275329D-02 -0.137334D-01
     35  0.881784D-03 -0.263446D-02  0.246040D-02 -0.321603D-02 -0.674682D-02
     36 -0.286686D-03  0.115626D-02  0.166986D-02  0.104578D-03  0.313835D-03
                6             7             8             9            10 
      6  0.477713D+00
      7 -0.115835D+00  0.140353D+00
      8 -0.879513D-01  0.605429D-01  0.181830D+00
      9 -0.236577D+00  0.147722D+00  0.156213D+00  0.310825D+00
     10  0.170456D-02  0.198016D-01 -0.108486D-01 -0.472449D-04  0.143789D+00
     11 -0.114215D-01  0.513525D-02 -0.717998D-01 -0.493070D-01 -0.133385D+00
     12 -0.690141D-01  0.945705D-02 -0.672691D-01 -0.192027D-01 -0.264147D-02
     13  0.580335D-02  0.721423D-02  0.424676D-02  0.784879D-03  0.535431D-02
     14  0.361040D-02 -0.114267D-01 -0.102518D-01 -0.631796D-02  0.227044D-01
     15 -0.427813D-01 -0.287414D-01 -0.669922D-02 -0.103095D-01  0.487555D-02
     16 -0.301355D-01 -0.967538D-02 -0.353658D-03 -0.420816D-02 -0.268588D-02
     17  0.529495D-02  0.246572D-02  0.307315D-02 -0.477569D-03 -0.862578D-03
     18 -0.215035D-01 -0.688146D-02 -0.233545D-02  0.196438D-02 -0.643968D-02
     19  0.156695D-01 -0.144261D-03 -0.866696D-03 -0.231886D-02 -0.538483D-02
     20 -0.188589D-02  0.467442D-03  0.157510D-02  0.926243D-03 -0.179452D-03
     21 -0.390563D-02  0.453809D-02  0.173227D-02  0.475061D-02  0.270786D-02
     22  0.285940D-02 -0.431735D-02 -0.278184D-02 -0.279735D-02 -0.605955D-02
     23  0.567622D-02 -0.727756D-02 -0.653306D-03 -0.397072D-02 -0.482458D-02
     24  0.519243D-02  0.174600D-02  0.831146D-03  0.832416D-03  0.583048D-03
     25  0.404667D-02 -0.656932D-02  0.119820D-01 -0.277972D-02 -0.303009D-02
     26 -0.898082D-02  0.796561D-02  0.231961D-02  0.640651D-02  0.101640D-01
     27 -0.850325D-02 -0.466904D-02  0.807546D-02  0.178141D-02 -0.197438D-02
     28 -0.182117D-02 -0.897819D-04  0.792064D-04  0.407878D-03 -0.199313D-03
     29  0.155094D-03  0.389166D-03  0.318202D-03  0.549020D-02 -0.129992D-02
     30 -0.326777D-02 -0.747513D-03  0.144975D-02 -0.842432D-02 -0.358129D-02
     31 -0.426482D-02  0.157123D-02  0.116662D-02  0.283771D-02  0.396047D-03
     32 -0.119128D-01  0.602478D-02  0.476107D-02  0.117003D-02  0.265977D-02
     33  0.124875D-01 -0.747336D-03 -0.120489D-02  0.200820D-02 -0.135405D-02
     34  0.496125D-03 -0.106935D-02  0.156520D-02  0.124826D-03 -0.161401D-01
     35 -0.176911D-02  0.902715D-03  0.798064D-03  0.106543D-02 -0.106087D-02
     36  0.307437D-02 -0.368012D-03 -0.396199D-03 -0.696098D-03  0.502960D-03
               11            12            13            14            15 
     11  0.378083D+00
     12  0.502529D-01  0.737431D-01
     13 -0.103359D-01 -0.273424D-02  0.626075D+00
     14 -0.322007D-01  0.785290D-04 -0.781660D-01  0.344398D+00
     15 -0.352725D-02  0.134000D-03 -0.238478D+00 -0.243305D-01  0.110954D+01
     16  0.368514D-02  0.543849D-03 -0.129025D+00  0.131398D-01 -0.972250D-01
     17  0.530425D-02 -0.176285D-02  0.433526D-02 -0.906001D-01  0.584163D-01
     18  0.218989D-02  0.323440D-02 -0.560023D-01  0.918873D-01 -0.479692D+00
     19  0.463073D-02  0.453446D-03 -0.242113D+00  0.504307D-01  0.254454D+00
     20  0.459634D-02 -0.821809D-04  0.408905D-01 -0.789136D-01 -0.602817D-01
     21 -0.785552D-03  0.329071D-03  0.241275D+00 -0.711776D-01 -0.482157D+00
     22 -0.111390D-01  0.242766D-03 -0.919927D-01 -0.478300D-02  0.902636D-02
     23  0.132481D-01 -0.475353D-03 -0.194522D-01 -0.173157D+00 -0.325334D-03
     24  0.347984D-03  0.275549D-02  0.898158D-02 -0.792816D-03 -0.537563D-01
     25  0.691275D-02 -0.334656D-02 -0.292087D-01  0.603911D-01  0.124468D-01
     26 -0.331259D-02 -0.178858D-03  0.271500D-01 -0.511803D-03  0.159460D-02
     27 -0.801380D-03  0.421489D-02 -0.623788D-02 -0.273284D-01 -0.547799D-01
     28 -0.214114D-02  0.137105D-02 -0.231420D-01 -0.474276D-03 -0.277776D-01
     29  0.186295D-02 -0.970821D-04  0.611772D-02 -0.442957D-02  0.804036D-02
     30  0.569888D-02  0.339286D-02  0.634142D-02 -0.768758D-02  0.136873D-01
     31 -0.201847D-02  0.125847D-02 -0.153778D-02  0.195902D-01 -0.289191D-02
     32 -0.295340D-02  0.141683D-02  0.513194D-02 -0.321634D-02 -0.146012D-02
     33  0.613839D-02 -0.241302D-02 -0.710149D-02 -0.387726D-02 -0.839311D-02
     34  0.209905D-02  0.967106D-04  0.722164D-02  0.698344D-02 -0.745798D-04
     35  0.307878D-02  0.228573D-03  0.275690D-01 -0.103448D-01 -0.537050D-02
     36  0.345586D-03 -0.115941D-02 -0.180427D-02 -0.123687D-02 -0.617083D-02
               16            17            18            19            20 
     16  0.102251D+00
     17 -0.903583D-02  0.132197D+00
     18  0.104005D+00 -0.724218D-01  0.553305D+00
     19  0.215776D-01  0.922684D-03 -0.993970D-02  0.228403D+00
     20 -0.128249D-02  0.131554D-01  0.911826D-03 -0.494400D-01  0.134014D+00
     21  0.164853D-01 -0.195796D-02  0.454089D-02 -0.286830D+00  0.849979D-01
     22  0.222811D-01  0.170042D-01 -0.117286D-01  0.172627D-02  0.411580D-01
     23 -0.231294D-02 -0.357034D-01  0.231338D-01  0.129197D-01 -0.414326D-01
     24 -0.360425D-02  0.465943D-01 -0.117624D-01  0.150433D-01 -0.405615D-01
     25  0.110436D-01 -0.245603D-01 -0.268914D-01 -0.844186D-02 -0.301182D-01
     26 -0.127617D-01 -0.260856D-01 -0.322247D-01 -0.148626D-01 -0.168889D-01
     27 -0.228012D-01 -0.445215D-01 -0.877051D-02  0.158863D-01  0.264528D-01
     28 -0.483588D-01 -0.105670D-01  0.452065D-01  0.424515D-02  0.394117D-03
     29  0.211405D-02  0.113825D-01 -0.330340D-02 -0.101296D-02  0.505063D-03
     30  0.338627D-01  0.115025D-01 -0.163824D-01  0.501970D-03  0.104020D-02
     31 -0.897416D-03 -0.279573D-02  0.783179D-04 -0.338726D-04 -0.343777D-02
     32 -0.357613D-02 -0.100779D-02  0.266182D-02 -0.175359D-02  0.691766D-03
     33 -0.899905D-03 -0.359181D-03  0.510959D-02  0.243147D-02  0.105980D-02
     34 -0.176496D-02 -0.494789D-02  0.341281D-02  0.230940D-02 -0.511671D-02
     35 -0.299227D-02 -0.117176D-02  0.138357D-02  0.441909D-04 -0.436693D-02
     36  0.303169D-02  0.414874D-02 -0.503627D-02  0.211582D-02 -0.679671D-02
               21            22            23            24            25 
     21  0.487615D+00
     22  0.246161D-01  0.478358D+00
     23 -0.212067D-01 -0.210158D+00  0.431338D+00
     24 -0.495397D-02 -0.724621D-01  0.267945D-01  0.483879D-01
     25  0.140627D-01  0.657386D-02 -0.491699D-03 -0.847920D-03  0.569513D-01
     26  0.128212D-01 -0.595947D-02 -0.715192D-02 -0.722173D-03 -0.737301D-02
     27 -0.141717D-02  0.273339D-03  0.530408D-03  0.522242D-02  0.799493D-02
     28  0.381879D-02  0.408845D-02 -0.128875D-02  0.178605D-02  0.625465D-02
     29 -0.346198D-03 -0.180180D-02  0.152277D-02 -0.717553D-03  0.152214D-03
     30 -0.232545D-02 -0.352853D-03  0.614553D-02  0.484374D-03  0.323916D-02
     31  0.110401D-02  0.138690D-02 -0.101559D-02  0.396782D-03 -0.322623D-01
     32  0.150946D-02 -0.165279D-02 -0.386416D-02  0.178374D-04 -0.178462D-02
     33 -0.202382D-03  0.167627D-02  0.193293D-02  0.109032D-02  0.222574D-01
     34 -0.461291D-02 -0.389871D+00  0.226142D+00  0.576902D-01 -0.125298D-02
     35 -0.263494D-02  0.193429D+00 -0.154061D+00 -0.261300D-01 -0.147019D-02
     36 -0.313463D-02  0.536040D-01 -0.287646D-01  0.102181D-01 -0.505381D-03
               26            27            28            29            30 
     26  0.109251D+00
     27  0.196543D-01  0.566032D-01
     28  0.138362D-02 -0.344000D-02  0.829806D-01
     29  0.270754D-02 -0.785389D-03  0.641364D-01  0.169786D+00
     30 -0.111704D-02 -0.756560D-03  0.549777D-01  0.176809D+00  0.468599D+00
     31 -0.465524D-02  0.323820D-01  0.916826D-02 -0.349733D-01 -0.213989D-01
     32  0.141915D-01  0.543002D-02 -0.348829D-01 -0.657195D-01 -0.577688D-01
     33  0.210613D-02 -0.123511D-01 -0.305419D-01 -0.774581D-01 -0.121728D-01
     34 -0.310860D-03 -0.256491D-03 -0.366874D-03  0.514481D-03  0.650490D-03
     35  0.202713D-02  0.308402D-03 -0.425880D-03  0.200550D-03 -0.825094D-03
     36 -0.300689D-04  0.266442D-03  0.310145D-03 -0.589511D-03 -0.154325D-02
               31            32            33            34            35 
     31  0.113781D+00
     32  0.195432D+00  0.525794D+00
     33 -0.792282D-02  0.171768D-01  0.107532D+00
     34 -0.297317D-04 -0.363268D-03 -0.192928D-03  0.396449D+00
     35 -0.102000D-04  0.103764D-02 -0.511638D-03 -0.213651D+00  0.172183D+00
     36 -0.686398D-04  0.546024D-04 -0.232296D-03 -0.566362D-01  0.317949D-01
               36 
     36  0.274398D-02
 FormGI is forming the generalized inverse of G from B-inverse, IUseBI=4.
 Leave Link  716 at Sat May 24 06:07:39 2025, MaxMem=  3758096384 cpu:               0.0 elap:               0.0
 (Enter /apps/easybuild-2022/easybuild/software/Compiler/NVHPC/22.11-CUDA-11.7.0/Gaussian/g16c01-CUDA-11.7.0/g16/l103.exe)

 GradGradGradGradGradGradGradGradGradGradGradGradGradGradGradGradGradGrad
 Berny optimization.
 Red2BG is reusing G-inverse.
 Internal  Forces:  Max     0.066108934 RMS     0.016396138
 Search for a saddle point.
 Step number   1 out of a maximum of  100
 All quantities printed in internal units (Hartrees-Bohrs-Radians)
 Swapping is turned off.
 Second derivative matrix not updated -- analytic derivatives used.
 ITU=  0
     Eigenvalues ---   -0.13034  -0.00562   0.00121   0.00998   0.02708
     Eigenvalues ---    0.03671   0.06604   0.06925   0.07900   0.09461
     Eigenvalues ---    0.11367   0.12363   0.13761   0.15319   0.17584
     Eigenvalues ---    0.20638   0.23807   0.27642   0.29508   0.33516
     Eigenvalues ---    0.37288   0.40825   0.49695   0.53097   0.55057
     Eigenvalues ---    0.60111   0.67731   0.69213   0.70544   1.16011
 Eigenvectors required to have negative eigenvalues:
                          D3        D10       D2        D1        A10
   1                   -0.31155  -0.30536  -0.26308  -0.24540   0.24444
                          D8        D9        A11       D6        R10
   1                   -0.23538  -0.23165  -0.21875  -0.21167   0.20031
 Eigenvalue     2 is  -5.62D-03 should be greater than     0.000000 Eigenvector:
                          D20       D21       D19       D22       D2
   1                    0.51455   0.49552   0.48880   0.47183   0.06599
                          D1        D3        D6        D18       D4
   1                    0.05692   0.05481  -0.03609  -0.03399  -0.03398
 RFO step:  Lambda0=4.759997411D-03 Lambda=-2.89426711D-02.
 Linear search not attempted -- option 19 set.
 Iteration  1 RMS(Cart)=  0.09779578 RMS(Int)=  0.04945021
 Iteration  2 RMS(Cart)=  0.03907154 RMS(Int)=  0.00418473
 Iteration  3 RMS(Cart)=  0.00324079 RMS(Int)=  0.00257148
 Iteration  4 RMS(Cart)=  0.00001961 RMS(Int)=  0.00257145
 Iteration  5 RMS(Cart)=  0.00000001 RMS(Int)=  0.00257145
 ITry= 1 IFail=0 DXMaxC= 5.04D-01 DCOld= 1.00D+10 DXMaxT= 3.00D-01 DXLimC= 3.00D+00 Rises=F
 Variable       Old X    -DE/DX   Delta X   Delta X   Delta X     New X
                                 (Linear)    (Quad)   (Total)
    R1        2.94169   0.00989   0.00000  -0.01840  -0.01840   2.92329
    R2        2.37910  -0.00451   0.00000   0.00737   0.00737   2.38648
    R3        2.36021   0.00199   0.00000  -0.00499  -0.00499   2.35521
    R4        2.48350   0.00605   0.00000  -0.00623  -0.00623   2.47726
    R5        2.51645   0.01216   0.00000   0.03007   0.03007   2.54652
    R6        3.50039   0.02925   0.00000  -0.00770  -0.00770   3.49269
    R7        2.75634  -0.01346   0.00000   0.00642   0.00642   2.76276
    R8        2.69297  -0.01212   0.00000  -0.02588  -0.02588   2.66709
    R9        3.06704   0.00952   0.00000  -0.00574  -0.00574   3.06129
   R10        3.62863  -0.00503   0.00000   0.06552   0.06552   3.69416
   R11        1.82158  -0.00709   0.00000  -0.00346  -0.00346   1.81811
    A1        2.17561  -0.00592   0.00000  -0.13078  -0.14015   2.03546
    A2        2.16518  -0.00710   0.00000   0.04948   0.04029   2.20547
    A3        1.92836   0.00976   0.00000   0.04275   0.03259   1.96096
    A4        1.94941  -0.02874   0.00000   0.02676   0.02690   1.97631
    A5        1.92761  -0.02835   0.00000  -0.06415  -0.06513   1.86248
    A6        1.66189   0.06611   0.00000   0.00476   0.00375   1.66564
    A7        1.80894   0.02168   0.00000   0.05314   0.05399   1.86293
    A8        2.06002  -0.02111   0.00000   0.00560   0.00548   2.06550
    A9        2.05565  -0.01445   0.00000  -0.03672  -0.03776   2.01789
   A10        1.69949   0.03353   0.00000   0.00781   0.00605   1.70554
   A11        2.11519  -0.00956   0.00000   0.05308   0.04956   2.16475
   A12        1.58091   0.02604   0.00000   0.08436   0.08197   1.66288
   A13        1.26358  -0.01826   0.00000  -0.06012  -0.05815   1.20543
   A14        2.40653  -0.02748   0.00000  -0.10528  -0.10563   2.30090
   A15        1.73016  -0.00348   0.00000   0.02974   0.02885   1.75900
   A16        1.46925   0.00840   0.00000  -0.03184  -0.03100   1.43824
   A17        1.69088  -0.00232   0.00000   0.02838   0.02428   1.71516
   A18        1.59761   0.00045   0.00000  -0.01799  -0.01579   1.58181
   A19        2.84420   0.00797   0.00000   0.02448   0.02401   2.86821
   A20        2.10082  -0.00783   0.00000  -0.10918  -0.10918   1.99164
    D1       -2.78161   0.01690   0.00000   0.23890   0.23810  -2.54351
    D2       -0.77822   0.00917   0.00000   0.28099   0.27915  -0.49907
    D3        1.35534   0.01619   0.00000   0.22018   0.21933   1.57467
    D4        0.16354  -0.00469   0.00000  -0.02391  -0.02238   0.14116
    D5        2.16693  -0.01242   0.00000   0.01818   0.01866   2.18559
    D6       -1.98269  -0.00540   0.00000  -0.04263  -0.04115  -2.02384
    D7       -0.40116   0.00233   0.00000   0.08730   0.08753  -0.31363
    D8        2.43170  -0.01097   0.00000  -0.04449  -0.04623   2.38547
    D9       -2.13399   0.00133   0.00000   0.04585   0.04604  -2.08796
   D10        1.02079  -0.00340   0.00000   0.04003   0.04047   1.06126
   D11       -2.46026   0.00182   0.00000   0.05001   0.05042  -2.40984
   D12        0.37261  -0.01147   0.00000  -0.08179  -0.08335   0.28926
   D13        2.09010   0.00083   0.00000   0.00856   0.00892   2.09901
   D14       -1.03831  -0.00391   0.00000   0.00274   0.00335  -1.03496
   D15        1.63031   0.00529   0.00000   0.00081   0.00153   1.63183
   D16       -1.82001  -0.00801   0.00000  -0.13099  -0.13224  -1.95225
   D17       -0.10252   0.00429   0.00000  -0.04064  -0.03997  -0.14249
   D18        3.05226  -0.00044   0.00000  -0.04646  -0.04553   3.00672
   D19        0.13950   0.01644   0.00000   0.34410   0.34398   0.48348
   D20       -1.56330  -0.02168   0.00000   0.32145   0.32043  -1.24287
   D21        2.26055   0.01042   0.00000   0.41266   0.41412   2.67466
   D22        0.18241   0.00189   0.00000   0.32776   0.32744   0.50985
         Item               Value     Threshold  Converged?
 Maximum Force            0.066109     0.000450     NO 
 RMS     Force            0.016396     0.000300     NO 
 Maximum Displacement     0.503505     0.001800     NO 
 RMS     Displacement     0.124942     0.001200     NO 
 Predicted change in Energy=-1.927505D-02
 Lowest energy point so far.  Saving SCF results.
 GradGradGradGradGradGradGradGradGradGradGradGradGradGradGradGradGradGrad

 Leave Link  103 at Sat May 24 06:07:39 2025, MaxMem=  3758096384 cpu:               0.1 elap:               0.0
 (Enter /apps/easybuild-2022/easybuild/software/Compiler/NVHPC/22.11-CUDA-11.7.0/Gaussian/g16c01-CUDA-11.7.0/g16/l202.exe)
                          Input orientation:                          
 ---------------------------------------------------------------------
 Center     Atomic      Atomic             Coordinates (Angstroms)
 Number     Number       Type             X           Y           Z
 ---------------------------------------------------------------------
      1          6           0       -0.095655   -0.839222    1.303776
      2          6           0       -0.013310   -0.056758   -0.028135
      3          9           0       -0.623047   -0.658868   -1.020191
      4          9           0       -0.653997    1.112258    0.168953
      5         16           0        1.832163    0.039083   -0.061029
      6          8           0        2.069476   -0.258574    1.350529
      7          8           0        2.614236   -0.184071   -1.214509
      8          8           0        1.897589    1.657644   -0.044640
      9          9           0        1.228804   -1.820197   -0.084064
     10          9           0       -0.170571   -0.151607    2.360379
     11          9           0       -0.541069   -1.993162    1.456596
     12          1           0        1.144228    2.077163    0.382086
 ---------------------------------------------------------------------
                    Distance matrix (angstroms):
                    1          2          3          4          5
     1  C    0.000000
     2  C    1.546938   0.000000
     3  F    2.389873   1.310912   0.000000
     4  F    2.325477   1.347562   2.133520   0.000000
     5  S    2.520039   1.848253   2.726753   2.717645   0.000000
     6  O    2.242127   2.505882   3.609741   3.269956   1.461990
     7  O    3.756926   2.885774   3.277681   3.778331   1.411365
     8  O    3.467793   2.567291   3.559710   2.617950   1.619966
     9  F    2.154670   2.157705   2.377892   3.494031   1.954864
    10  F    1.262868   2.395564   3.448232   2.575539   3.148099
    11  F    1.246325   2.496521   2.814523   3.363690   3.473534
    12  H    3.300322   2.462071   3.546196   2.051848   2.196219
                    6          7          8          9         10
     6  O    0.000000
     7  O    2.623306   0.000000
     8  O    2.376538   2.296539   0.000000
     9  F    2.281108   2.423682   3.541780   0.000000
    10  F    2.459482   4.531670   3.651684   3.273797   0.000000
    11  F    3.136080   4.512601   4.639952   2.352871   2.084566
    12  H    2.692514   3.134202   0.962105   3.926049   3.257262
                   11         12
    11  F    0.000000
    12  H    4.534572   0.000000
 Symmetry turned off by external request.
 Stoichiometry    C2HF5O3S
 Rotational constants (GHZ):           1.4491332           0.9588043           0.9193882
 Leave Link  202 at Sat May 24 06:07:39 2025, MaxMem=  3758096384 cpu:               0.0 elap:               0.0
 (Enter /apps/easybuild-2022/easybuild/software/Compiler/NVHPC/22.11-CUDA-11.7.0/Gaussian/g16c01-CUDA-11.7.0/g16/l301.exe)
 Standard basis: def2TZVPP (5D, 7F)
 Ernie: Thresh=  0.10000D-02 Tol=  0.10000D-05 Strict=F.
   366 basis functions,   596 primitive gaussians,   423 cartesian basis functions
    49 alpha electrons       49 beta electrons
       nuclear repulsion energy       951.6535468493 Hartrees.
 IExCor= 4336 DFT=T Ex+Corr=M062X ExCW=0 ScaHFX=  0.540000
 ScaDFX=  1.000000  1.000000  1.000000  1.000000 ScalE2=  1.000000  1.000000
 IRadAn=      5 IRanWt=     -1 IRanGd=            0 ICorTp=0 IEmpDi=  4
 NAtoms=   12 NActive=   12 NUniq=   12 SFac= 1.00D+00 NAtFMM=   60 NAOKFM=F Big=F
 Integral buffers will be    131072 words long.
 Raffenetti 2 integral format.
 Two-electron integral symmetry is turned off.
 Leave Link  301 at Sat May 24 06:07:39 2025, MaxMem=  3758096384 cpu:               0.0 elap:               0.0
 (Enter /apps/easybuild-2022/easybuild/software/Compiler/NVHPC/22.11-CUDA-11.7.0/Gaussian/g16c01-CUDA-11.7.0/g16/l302.exe)
 NPDir=0 NMtPBC=     1 NCelOv=     1 NCel=       1 NClECP=     1 NCelD=      1
         NCelK=      1 NCelE2=     1 NClLst=     1 CellRange=     0.0.
 One-electron integrals computed using PRISM.
   1 Symmetry operations used in ECPInt.
 ECPInt:  NShTT=    8515 NPrTT=   27988 LenC2=    8085 LenP2D=   19759.
 LDataN:  DoStor=T MaxTD1= 6 Len=  172
 NBasis=   366 RedAO= T EigKep=  2.58D-04  NBF=   366
 NBsUse=   366 1.00D-06 EigRej= -1.00D+00 NBFU=   366
 Precomputing XC quadrature grid using
 IXCGrd= 4 IRadAn=           5 IRanWt=          -1 IRanGd=           0 AccXCQ= 0.00D+00.
 Generated NRdTot=       0 NPtTot=           0 NUsed=           0 NTot=          32
 NSgBfM=   419   419   419   419   419 MxSgAt=    12 MxSgA2=    12.
 Leave Link  302 at Sat May 24 06:07:39 2025, MaxMem=  3758096384 cpu:               0.7 elap:               0.2
 (Enter /apps/easybuild-2022/easybuild/software/Compiler/NVHPC/22.11-CUDA-11.7.0/Gaussian/g16c01-CUDA-11.7.0/g16/l303.exe)
 DipDrv:  MaxL=1.
 Leave Link  303 at Sat May 24 06:07:39 2025, MaxMem=  3758096384 cpu:               0.1 elap:               0.0
 (Enter /apps/easybuild-2022/easybuild/software/Compiler/NVHPC/22.11-CUDA-11.7.0/Gaussian/g16c01-CUDA-11.7.0/g16/l401.exe)
 Initial guess from the checkpoint file:  "/tmp/Gau-37467.chk"
 B after Tr=    -0.026330   -0.018867   -0.056111
         Rot=    0.999906    0.012424   -0.000139   -0.005735 Ang=   1.57 deg.
 Guess basis will be translated and rotated to current coordinates.
 JPrj=2 DoOrth=T DoCkMO=T.
 Generating alternative initial guess.
 ExpMin= 9.52D-02 ExpMax= 6.07D+04 ExpMxC= 2.07D+03 IAcc=3 IRadAn=         5 AccDes= 0.00D+00
 Harris functional with IExCor= 1009 and IRadAn=       5 diagonalized for initial guess.
 HarFok:  IExCor= 1009 AccDes= 0.00D+00 IRadAn=         5 IDoV= 1 UseB2=F ITyADJ=14
 ICtDFT=  3500011 ScaDFX=  1.000000  1.000000  1.000000  1.000000
 FoFCou: FMM=F IPFlag=           0 FMFlag=      100000 FMFlg1=           0
         NFxFlg=           0 DoJE=T BraDBF=F KetDBF=T FulRan=T
         wScrn=  0.000000 ICntrl=       500 IOpCl=  0 I1Cent=   200000004 NGrid=           0
         NMat0=    1 NMatS0=      1 NMatT0=    0 NMatD0=    1 NMtDS0=    0 NMtDT0=    0
 Symmetry not used in FoFCou.
 Harris En= -1199.24999728650    
 Leave Link  401 at Sat May 24 06:07:40 2025, MaxMem=  3758096384 cpu:               4.3 elap:               0.6
 (Enter /apps/easybuild-2022/easybuild/software/Compiler/NVHPC/22.11-CUDA-11.7.0/Gaussian/g16c01-CUDA-11.7.0/g16/l502.exe)
 Keep R1 ints in memory in canonical form, NReq=2293447020.
 FoFCou: FMM=F IPFlag=           0 FMFlag=           0 FMFlg1=           0
         NFxFlg=           0 DoJE=F BraDBF=F KetDBF=F FulRan=T
         wScrn=  0.000000 ICntrl=       600 IOpCl=  0 I1Cent=           0 NGrid=           0
         NMat0=    1 NMatS0=  67161 NMatT0=    0 NMatD0=    1 NMtDS0=    0 NMtDT0=    0
 Symmetry not used in FoFCou.
 Two-electron integral symmetry not used.
 Closed shell SCF:
 Using DIIS extrapolation, IDIIS=  1040.
 NGot=  3758096384 LenX=  1502398648 LenY=  1502219278
 Requested convergence on RMS density matrix=1.00D-08 within  32 cycles.
 Requested convergence on MAX density matrix=1.00D-06.
 Requested convergence on             energy=1.00D-06.
 No special actions if energy rises.
 Integral accuracy reduced to 1.0D-05 until final iterations.

 Cycle   1  Pass 0  IDiag  1:
 E= -1199.68692827497    
 DIIS: error= 8.15D-03 at cycle   1 NSaved=   1.
 NSaved= 1 IEnMin= 1 EnMin= -1199.68692827497     IErMin= 1 ErrMin= 8.15D-03
 ErrMax= 8.15D-03  0.00D+00 EMaxC= 1.00D-01 BMatC= 5.32D-02 BMatP= 5.32D-02
 IDIUse=3 WtCom= 9.19D-01 WtEn= 8.15D-02
 Coeff-Com:  0.100D+01
 Coeff-En:   0.100D+01
 Coeff:      0.100D+01
 Gap=     1.059 Goal=   None    Shift=    0.000
 GapD=    1.059 DampG=2.000 DampE=1.000 DampFc=2.0000 IDamp=-1.
 RMSDP=8.40D-04 MaxDP=4.86D-02              OVMax= 5.18D-02

 Cycle   2  Pass 0  IDiag  1:
 E= -1199.74995885432     Delta-E=       -0.063030579347 Rises=F Damp=F
 DIIS: error= 1.82D-03 at cycle   2 NSaved=   2.
 NSaved= 2 IEnMin= 2 EnMin= -1199.74995885432     IErMin= 2 ErrMin= 1.82D-03
 ErrMax= 1.82D-03  0.00D+00 EMaxC= 1.00D-01 BMatC= 2.23D-03 BMatP= 5.32D-02
 IDIUse=3 WtCom= 9.82D-01 WtEn= 1.82D-02
 Coeff-Com: -0.957D-01 0.110D+01
 Coeff-En:   0.000D+00 0.100D+01
 Coeff:     -0.940D-01 0.109D+01
 Gap=     0.261 Goal=   None    Shift=    0.000
 RMSDP=1.83D-04 MaxDP=7.30D-03 DE=-6.30D-02 OVMax= 1.57D-02

 Cycle   3  Pass 0  IDiag  1:
 E= -1199.75292685257     Delta-E=       -0.002967998257 Rises=F Damp=F
 DIIS: error= 1.09D-03 at cycle   3 NSaved=   3.
 NSaved= 3 IEnMin= 3 EnMin= -1199.75292685257     IErMin= 3 ErrMin= 1.09D-03
 ErrMax= 1.09D-03  0.00D+00 EMaxC= 1.00D-01 BMatC= 1.29D-03 BMatP= 2.23D-03
 IDIUse=3 WtCom= 9.89D-01 WtEn= 1.09D-02
 Coeff-Com: -0.755D-01 0.503D+00 0.573D+00
 Coeff-En:   0.000D+00 0.000D+00 0.100D+01
 Coeff:     -0.747D-01 0.497D+00 0.578D+00
 Gap=     0.254 Goal=   None    Shift=    0.000
 RMSDP=6.96D-05 MaxDP=3.23D-03 DE=-2.97D-03 OVMax= 5.73D-03

 Cycle   4  Pass 0  IDiag  1:
 E= -1199.75371541401     Delta-E=       -0.000788561437 Rises=F Damp=F
 DIIS: error= 3.06D-04 at cycle   4 NSaved=   4.
 NSaved= 4 IEnMin= 4 EnMin= -1199.75371541401     IErMin= 4 ErrMin= 3.06D-04
 ErrMax= 3.06D-04  0.00D+00 EMaxC= 1.00D-01 BMatC= 1.20D-04 BMatP= 1.29D-03
 IDIUse=3 WtCom= 9.97D-01 WtEn= 3.06D-03
 Coeff-Com: -0.612D-02-0.300D-01 0.212D+00 0.824D+00
 Coeff-En:   0.000D+00 0.000D+00 0.000D+00 0.100D+01
 Coeff:     -0.610D-02-0.299D-01 0.211D+00 0.825D+00
 Gap=     0.256 Goal=   None    Shift=    0.000
 RMSDP=2.82D-05 MaxDP=8.24D-04 DE=-7.89D-04 OVMax= 3.34D-03

 Cycle   5  Pass 0  IDiag  1:
 E= -1199.75382301521     Delta-E=       -0.000107601196 Rises=F Damp=F
 DIIS: error= 9.65D-05 at cycle   5 NSaved=   5.
 NSaved= 5 IEnMin= 5 EnMin= -1199.75382301521     IErMin= 5 ErrMin= 9.65D-05
 ErrMax= 9.65D-05  0.00D+00 EMaxC= 1.00D-01 BMatC= 8.47D-06 BMatP= 1.20D-04
 IDIUse=1 WtCom= 1.00D+00 WtEn= 0.00D+00
 Coeff-Com:  0.327D-02-0.483D-01 0.324D-01 0.285D+00 0.728D+00
 Coeff:      0.327D-02-0.483D-01 0.324D-01 0.285D+00 0.728D+00
 Gap=     0.256 Goal=   None    Shift=    0.000
 RMSDP=9.54D-06 MaxDP=4.02D-04 DE=-1.08D-04 OVMax= 1.57D-03

 Initial convergence to 1.0D-05 achieved.  Increase integral accuracy.
 Cycle   6  Pass 1  IDiag  1:
 E= -1199.75384026321     Delta-E=       -0.000017248000 Rises=F Damp=F
 DIIS: error= 5.03D-05 at cycle   1 NSaved=   1.
 NSaved= 1 IEnMin= 1 EnMin= -1199.75384026321     IErMin= 1 ErrMin= 5.03D-05
 ErrMax= 5.03D-05  0.00D+00 EMaxC= 1.00D-01 BMatC= 3.43D-06 BMatP= 3.43D-06
 IDIUse=1 WtCom= 1.00D+00 WtEn= 0.00D+00
 Coeff-Com:  0.100D+01
 Coeff:      0.100D+01
 Gap=     0.256 Goal=   None    Shift=    0.000
 RMSDP=9.54D-06 MaxDP=4.02D-04 DE=-1.72D-05 OVMax= 7.76D-04

 Cycle   7  Pass 1  IDiag  1:
 E= -1199.75384100409     Delta-E=       -0.000000740882 Rises=F Damp=F
 DIIS: error= 5.88D-05 at cycle   2 NSaved=   2.
 NSaved= 2 IEnMin= 2 EnMin= -1199.75384100409     IErMin= 1 ErrMin= 5.03D-05
 ErrMax= 5.88D-05  0.00D+00 EMaxC= 1.00D-01 BMatC= 4.61D-06 BMatP= 3.43D-06
 IDIUse=1 WtCom= 1.00D+00 WtEn= 0.00D+00
 Coeff-Com:  0.542D+00 0.458D+00
 Coeff:      0.542D+00 0.458D+00
 Gap=     0.256 Goal=   None    Shift=    0.000
 RMSDP=3.73D-06 MaxDP=2.13D-04 DE=-7.41D-07 OVMax= 4.22D-04

 Cycle   8  Pass 1  IDiag  1:
 E= -1199.75384413554     Delta-E=       -0.000003131455 Rises=F Damp=F
 DIIS: error= 1.38D-05 at cycle   3 NSaved=   3.
 NSaved= 3 IEnMin= 3 EnMin= -1199.75384413554     IErMin= 3 ErrMin= 1.38D-05
 ErrMax= 1.38D-05  0.00D+00 EMaxC= 1.00D-01 BMatC= 1.80D-07 BMatP= 3.43D-06
 IDIUse=1 WtCom= 1.00D+00 WtEn= 0.00D+00
 Coeff-Com: -0.646D-01 0.100D+00 0.965D+00
 Coeff:     -0.646D-01 0.100D+00 0.965D+00
 Gap=     0.256 Goal=   None    Shift=    0.000
 RMSDP=1.88D-06 MaxDP=6.76D-05 DE=-3.13D-06 OVMax= 3.17D-04

 Cycle   9  Pass 1  IDiag  1:
 E= -1199.75384444271     Delta-E=       -0.000000307168 Rises=F Damp=F
 DIIS: error= 5.84D-06 at cycle   4 NSaved=   4.
 NSaved= 4 IEnMin= 4 EnMin= -1199.75384444271     IErMin= 4 ErrMin= 5.84D-06
 ErrMax= 5.84D-06  0.00D+00 EMaxC= 1.00D-01 BMatC= 4.47D-08 BMatP= 1.80D-07
 IDIUse=1 WtCom= 1.00D+00 WtEn= 0.00D+00
 Coeff-Com: -0.896D-01 0.585D-02 0.437D+00 0.647D+00
 Coeff:     -0.896D-01 0.585D-02 0.437D+00 0.647D+00
 Gap=     0.256 Goal=   None    Shift=    0.000
 RMSDP=7.35D-07 MaxDP=3.20D-05 DE=-3.07D-07 OVMax= 1.44D-04

 Cycle  10  Pass 1  IDiag  1:
 E= -1199.75384450988     Delta-E=       -0.000000067166 Rises=F Damp=F
 DIIS: error= 3.11D-06 at cycle   5 NSaved=   5.
 NSaved= 5 IEnMin= 5 EnMin= -1199.75384450988     IErMin= 5 ErrMin= 3.11D-06
 ErrMax= 3.11D-06  0.00D+00 EMaxC= 1.00D-01 BMatC= 9.49D-09 BMatP= 4.47D-08
 IDIUse=1 WtCom= 1.00D+00 WtEn= 0.00D+00
 Coeff-Com: -0.329D-02-0.222D-01-0.212D+00 0.225D+00 0.101D+01
 Coeff:     -0.329D-02-0.222D-01-0.212D+00 0.225D+00 0.101D+01
 Gap=     0.256 Goal=   None    Shift=    0.000
 RMSDP=6.07D-07 MaxDP=2.66D-05 DE=-6.72D-08 OVMax= 1.22D-04

 Cycle  11  Pass 1  IDiag  1:
 E= -1199.75384453238     Delta-E=       -0.000000022501 Rises=F Damp=F
 DIIS: error= 8.31D-07 at cycle   6 NSaved=   6.
 NSaved= 6 IEnMin= 6 EnMin= -1199.75384453238     IErMin= 6 ErrMin= 8.31D-07
 ErrMax= 8.31D-07  0.00D+00 EMaxC= 1.00D-01 BMatC= 1.24D-09 BMatP= 9.49D-09
 IDIUse=1 WtCom= 1.00D+00 WtEn= 0.00D+00
 Coeff-Com:  0.665D-02-0.114D-01-0.150D+00 0.524D-01 0.462D+00 0.640D+00
 Coeff:      0.665D-02-0.114D-01-0.150D+00 0.524D-01 0.462D+00 0.640D+00
 Gap=     0.256 Goal=   None    Shift=    0.000
 RMSDP=1.56D-07 MaxDP=6.52D-06 DE=-2.25D-08 OVMax= 2.57D-05

 Cycle  12  Pass 1  IDiag  1:
 E= -1199.75384453389     Delta-E=       -0.000000001508 Rises=F Damp=F
 DIIS: error= 3.95D-07 at cycle   7 NSaved=   7.
 NSaved= 7 IEnMin= 7 EnMin= -1199.75384453389     IErMin= 7 ErrMin= 3.95D-07
 ErrMax= 3.95D-07  0.00D+00 EMaxC= 1.00D-01 BMatC= 1.82D-10 BMatP= 1.24D-09
 IDIUse=1 WtCom= 1.00D+00 WtEn= 0.00D+00
 Coeff-Com:  0.325D-02-0.150D-02-0.338D-01-0.881D-02 0.354D-01 0.287D+00
 Coeff-Com:  0.718D+00
 Coeff:      0.325D-02-0.150D-02-0.338D-01-0.881D-02 0.354D-01 0.287D+00
 Coeff:      0.718D+00
 Gap=     0.256 Goal=   None    Shift=    0.000
 RMSDP=5.44D-08 MaxDP=2.00D-06 DE=-1.51D-09 OVMax= 1.04D-05

 Cycle  13  Pass 1  IDiag  1:
 E= -1199.75384453423     Delta-E=       -0.000000000345 Rises=F Damp=F
 DIIS: error= 1.56D-07 at cycle   8 NSaved=   8.
 NSaved= 8 IEnMin= 8 EnMin= -1199.75384453423     IErMin= 8 ErrMin= 1.56D-07
 ErrMax= 1.56D-07  0.00D+00 EMaxC= 1.00D-01 BMatC= 1.51D-11 BMatP= 1.82D-10
 IDIUse=1 WtCom= 1.00D+00 WtEn= 0.00D+00
 Coeff-Com: -0.211D-03 0.169D-02 0.155D-01-0.824D-02-0.622D-01-0.217D-01
 Coeff-Com:  0.164D+00 0.911D+00
 Coeff:     -0.211D-03 0.169D-02 0.155D-01-0.824D-02-0.622D-01-0.217D-01
 Coeff:      0.164D+00 0.911D+00
 Gap=     0.256 Goal=   None    Shift=    0.000
 RMSDP=2.38D-08 MaxDP=1.18D-06 DE=-3.45D-10 OVMax= 5.91D-06

 Cycle  14  Pass 1  IDiag  1:
 E= -1199.75384453434     Delta-E=       -0.000000000111 Rises=F Damp=F
 DIIS: error= 7.85D-08 at cycle   9 NSaved=   9.
 NSaved= 9 IEnMin= 9 EnMin= -1199.75384453434     IErMin= 9 ErrMin= 7.85D-08
 ErrMax= 7.85D-08  0.00D+00 EMaxC= 1.00D-01 BMatC= 5.85D-12 BMatP= 1.51D-11
 IDIUse=1 WtCom= 1.00D+00 WtEn= 0.00D+00
 Coeff-Com: -0.716D-03 0.107D-02 0.138D-01-0.316D-02-0.396D-01-0.641D-01
 Coeff-Com: -0.681D-01 0.432D+00 0.729D+00
 Coeff:     -0.716D-03 0.107D-02 0.138D-01-0.316D-02-0.396D-01-0.641D-01
 Coeff:     -0.681D-01 0.432D+00 0.729D+00
 Gap=     0.256 Goal=   None    Shift=    0.000
 RMSDP=1.18D-08 MaxDP=5.73D-07 DE=-1.11D-10 OVMax= 2.89D-06

 Cycle  15  Pass 1  IDiag  1:
 E= -1199.75384453432     Delta-E=        0.000000000023 Rises=F Damp=F
 DIIS: error= 2.69D-08 at cycle  10 NSaved=  10.
 NSaved=10 IEnMin= 9 EnMin= -1199.75384453434     IErMin=10 ErrMin= 2.69D-08
 ErrMax= 2.69D-08  0.00D+00 EMaxC= 1.00D-01 BMatC= 6.22D-13 BMatP= 5.85D-12
 IDIUse=1 WtCom= 1.00D+00 WtEn= 0.00D+00
 Coeff-Com: -0.247D-03 0.164D-03 0.318D-02 0.398D-04-0.675D-02-0.187D-01
 Coeff-Com: -0.488D-01 0.424D-01 0.272D+00 0.757D+00
 Coeff:     -0.247D-03 0.164D-03 0.318D-02 0.398D-04-0.675D-02-0.187D-01
 Coeff:     -0.488D-01 0.424D-01 0.272D+00 0.757D+00
 Gap=     0.256 Goal=   None    Shift=    0.000
 RMSDP=3.94D-09 MaxDP=1.77D-07 DE= 2.27D-11 OVMax= 9.89D-07

 SCF Done:  E(RM062X) =  -1199.75384453     A.U. after   15 cycles
            NFock= 15  Conv=0.39D-08     -V/T= 2.0028
 KE= 1.196371395167D+03 PE=-4.748969967492D+03 EE= 1.401191180941D+03
 Leave Link  502 at Sat May 24 06:08:25 2025, MaxMem=  3758096384 cpu:             178.8 elap:              44.8
 (Enter /apps/easybuild-2022/easybuild/software/Compiler/NVHPC/22.11-CUDA-11.7.0/Gaussian/g16c01-CUDA-11.7.0/g16/l508.exe)
 QCSCF skips out because SCF is already converged.
 Leave Link  508 at Sat May 24 06:08:25 2025, MaxMem=  3758096384 cpu:               0.0 elap:               0.0
 (Enter /apps/easybuild-2022/easybuild/software/Compiler/NVHPC/22.11-CUDA-11.7.0/Gaussian/g16c01-CUDA-11.7.0/g16/l801.exe)
 DoSCS=F DFT=T ScalE2(SS,OS)=  1.000000  1.000000
 Range of M.O.s used for correlation:     1   366
 NBasis=   366 NAE=    49 NBE=    49 NFC=     0 NFV=     0
 NROrb=    366 NOA=    49 NOB=    49 NVA=   317 NVB=   317

 **** Warning!!: The largest alpha MO coefficient is  0.15636858D+02

 Leave Link  801 at Sat May 24 06:08:25 2025, MaxMem=  3758096384 cpu:               0.0 elap:               0.0
 (Enter /apps/easybuild-2022/easybuild/software/Compiler/NVHPC/22.11-CUDA-11.7.0/Gaussian/g16c01-CUDA-11.7.0/g16/l1101.exe)
 Using compressed storage, NAtomX=    12.
 Will process     13 centers per pass.
   1 Symmetry operations used in ECPInt.
 ECPInt:  NShTT=    8515 NPrTT=   27988 LenC2=    8085 LenP2D=   19759.
 LDataN:  DoStor=T MaxTD1= 7 Len=  274
 Leave Link 1101 at Sat May 24 06:08:25 2025, MaxMem=  3758096384 cpu:               1.1 elap:               0.2
 (Enter /apps/easybuild-2022/easybuild/software/Compiler/NVHPC/22.11-CUDA-11.7.0/Gaussian/g16c01-CUDA-11.7.0/g16/l1102.exe)
 Symmetrizing basis deriv contribution to polar:
 IMax=3 JMax=2 DiffMx= 0.00D+00
 Leave Link 1102 at Sat May 24 06:08:25 2025, MaxMem=  3758096384 cpu:               0.1 elap:               0.0
 (Enter /apps/easybuild-2022/easybuild/software/Compiler/NVHPC/22.11-CUDA-11.7.0/Gaussian/g16c01-CUDA-11.7.0/g16/l1110.exe)
 Forming Gx(P) for the SCF density, NAtomX=    12.
 Integral derivatives from FoFJK, PRISM(SPDF).
 Do as many integral derivatives as possible in FoFJK.
 G2DrvN: MDV=    3758094988.
 G2DrvN: will do    13 centers at a time, making    1 passes.
 Calling FoFCou, ICntrl=  3107 FMM=F I1Cent=   0 AccDes= 0.00D+00.
 FoFJK:  IHMeth= 1 ICntrl=    3107 DoSepK=F KAlg= 0 I1Cent=           0 FoldK=F
 IRaf=         0 NMat=       1 IRICut=       1 DoRegI=T DoRafI=F ISym2E= 0 IDoP0=0 IntGTp=1.
 FoFCou: FMM=F IPFlag=           0 FMFlag=      100000 FMFlg1=           0
         NFxFlg=           0 DoJE=F BraDBF=F KetDBF=F FulRan=T
         wScrn=  0.000000 ICntrl=      3107 IOpCl=  0 I1Cent=           0 NGrid=           0
         NMat0=    1 NMatS0=      1 NMatT0=    0 NMatD0=    1 NMtDS0=    0 NMtDT0=    0
 Symmetry not used in FoFCou.
 End of G2Drv F.D. properties file   721 does not exist.
 End of G2Drv F.D. properties file   722 does not exist.
 End of G2Drv F.D. properties file   788 does not exist.
 Leave Link 1110 at Sat May 24 06:09:29 2025, MaxMem=  3758096384 cpu:             504.8 elap:              63.7
 (Enter /apps/easybuild-2022/easybuild/software/Compiler/NVHPC/22.11-CUDA-11.7.0/Gaussian/g16c01-CUDA-11.7.0/g16/l1002.exe)
 Minotr:  Closed shell wavefunction.
          IDoAtm=111111111111
          Direct CPHF calculation.
          Differentiating once with respect to electric field.
                with respect to dipole field.
          Differentiating once with respect to nuclear coordinates.
          Requested convergence is 1.0D-08 RMS, and 1.0D-07 maximum.
          Secondary convergence is 1.0D-12 RMS, and 1.0D-12 maximum.
          NewPWx=T KeepS1=F KeepF1=F KeepIn=T MapXYZ=F SortEE=F KeepMc=T.
         3598 words used for storage of precomputed grid.
 Keep R1 ints in memory in canonical form, NReq=2293452928.
 FoFCou: FMM=F IPFlag=           0 FMFlag=           0 FMFlg1=           0
         NFxFlg=           0 DoJE=F BraDBF=F KetDBF=F FulRan=T
         wScrn=  0.000000 ICntrl=       600 IOpCl=  0 I1Cent=           0 NGrid=           0
         NMat0=    1 NMatS0=  67161 NMatT0=    0 NMatD0=    1 NMtDS0=    0 NMtDT0=    0
 Symmetry not used in FoFCou.
 Two-electron integral symmetry not used.
          MDV=    3758096384 using IRadAn=       1.
          Solving linear equations simultaneously, MaxMat=       0.
          There are    39 degrees of freedom in the 1st order CPHF.  IDoFFX=6 NUNeed=     3.
     36 vectors produced by pass  0 Test12= 3.98D-14 2.56D-09 XBig12= 3.20D+01 2.33D+00.
 AX will form    36 AO Fock derivatives at one time.
     36 vectors produced by pass  1 Test12= 3.98D-14 2.56D-09 XBig12= 4.87D+00 2.85D-01.
     36 vectors produced by pass  2 Test12= 3.98D-14 2.56D-09 XBig12= 1.73D-01 6.48D-02.
     36 vectors produced by pass  3 Test12= 3.98D-14 2.56D-09 XBig12= 4.54D-03 1.04D-02.
     36 vectors produced by pass  4 Test12= 3.98D-14 2.56D-09 XBig12= 7.82D-05 1.14D-03.
     36 vectors produced by pass  5 Test12= 3.98D-14 2.56D-09 XBig12= 7.79D-07 1.04D-04.
     36 vectors produced by pass  6 Test12= 3.98D-14 2.56D-09 XBig12= 5.70D-09 8.09D-06.
     24 vectors produced by pass  7 Test12= 3.98D-14 2.56D-09 XBig12= 3.34D-11 6.12D-07.
      5 vectors produced by pass  8 Test12= 3.98D-14 2.56D-09 XBig12= 1.60D-13 4.99D-08.
      3 vectors produced by pass  9 Test12= 3.98D-14 2.56D-09 XBig12= 9.02D-16 3.71D-09.
 InvSVY:  IOpt=1 It=  1 EMax= 2.66D-15
 Solved reduced A of dimension   284 with    39 vectors.
 FullF1:  Do perturbations      1 to       3.
 Isotropic polarizability for W=    0.000000       58.93 Bohr**3.
 End of Minotr F.D. properties file   721 does not exist.
 End of Minotr F.D. properties file   722 does not exist.
 End of Minotr F.D. properties file   788 does not exist.
[...]
     19  0.484933D-02  0.191614D-02 -0.315528D+00  0.107032D+00  0.300370D+00
     20  0.368340D-02 -0.339050D-03  0.940220D-01 -0.104280D+00 -0.111879D+00
     21 -0.104312D-02  0.444184D-03  0.281381D+00 -0.128513D+00 -0.448985D+00
     22 -0.106278D-01  0.125179D-02 -0.709685D-01 -0.104215D-01  0.155116D-01
     23  0.107479D-01  0.466079D-03 -0.193792D-01 -0.217187D+00  0.206061D-01
     24  0.132273D-02  0.116307D-02  0.878757D-02 -0.500658D-02 -0.830225D-01
     25  0.865096D-02 -0.452263D-02 -0.212029D-01  0.570595D-01  0.152782D-01
     26 -0.469997D-02 -0.314861D-03  0.334242D-01  0.127384D-01  0.174665D-03
     27 -0.180962D-02  0.563090D-02 -0.110688D-01 -0.349713D-01 -0.536419D-01
     28 -0.294452D-02 -0.265316D-02 -0.165853D-01 -0.398644D-02 -0.284864D-01
     29  0.300504D-02  0.672211D-02  0.572190D-02 -0.507770D-02  0.117161D-01
     30  0.292524D-02  0.243833D-02  0.123872D-02 -0.921273D-02  0.106501D-01
     31 -0.801399D-03 -0.853120D-03  0.780398D-03  0.177230D-01 -0.150377D-02
     32 -0.153181D-02  0.124076D-02 -0.805468D-03  0.520462D-04 -0.997973D-02
     33  0.565122D-02 -0.134634D-02 -0.592434D-02 -0.510957D-02 -0.871933D-02
     34  0.424769D-02  0.493589D-03 -0.169730D-02  0.196190D-02  0.139644D-03
     35  0.594516D-03  0.401570D-03  0.115564D-01 -0.237977D-01 -0.362296D-01
     36  0.103672D-02 -0.110408D-03  0.143125D-02 -0.466369D-02  0.498341D-02
               16            17            18            19            20 
     16  0.864961D-01
     17 -0.101470D-01  0.118473D+00
     18  0.997291D-01 -0.382276D-01  0.512715D+00
     19  0.203190D-01  0.270043D-02 -0.108570D-01  0.299467D+00
     20  0.116754D-03  0.131232D-01  0.148031D-02 -0.982292D-01  0.155316D+00
     21  0.216551D-01 -0.306825D-02 -0.134125D-02 -0.326772D+00  0.131862D+00
     22  0.197850D-01  0.999179D-02 -0.612261D-02  0.273425D-02  0.313541D-01
     23 -0.554295D-02 -0.270893D-01  0.203874D-01  0.536044D-02 -0.332582D-01
     24  0.858100D-02  0.477479D-01 -0.183129D-01  0.149108D-01 -0.477750D-01
     25  0.142047D-01 -0.195281D-01 -0.261153D-01 -0.109483D-01 -0.306403D-01
     26 -0.958365D-02 -0.308413D-01 -0.347713D-01 -0.180397D-01 -0.171056D-01
     27 -0.212351D-01 -0.467807D-01  0.134501D-02  0.164815D-01  0.269722D-01
     28 -0.395520D-01 -0.975205D-02  0.434962D-01  0.308620D-02  0.604991D-03
     29  0.547198D-02  0.123956D-01 -0.790412D-02 -0.598194D-03  0.826830D-03
     30  0.235685D-01  0.905787D-02 -0.126685D-01  0.160103D-02  0.140122D-02
     31  0.170647D-02 -0.272987D-02  0.611158D-03 -0.100468D-02 -0.373860D-02
     32 -0.824523D-02 -0.417185D-02  0.695991D-02 -0.114231D-02  0.381897D-03
     33  0.166659D-03 -0.408665D-03  0.625524D-02  0.283780D-02  0.136122D-02
     34 -0.275984D-02 -0.302775D-02  0.623029D-03  0.169427D-02  0.286736D-02
     35  0.502565D-03  0.718516D-02 -0.507442D-03  0.158961D-02 -0.672659D-02
     36 -0.554149D-03  0.471612D-02 -0.575664D-02 -0.196870D-02  0.404315D-02
               21            22            23            24            25 
     21  0.453599D+00
     22  0.127440D-01  0.982712D-01
     23 -0.131187D-01 -0.392311D-01  0.409708D+00
     24 -0.759054D-02 -0.139323D+00  0.157868D+00  0.510201D+00
     25  0.156215D-01  0.396819D-02 -0.161152D-03 -0.204362D-02  0.685104D-01
     26  0.166506D-01 -0.609379D-02 -0.611227D-02 -0.144255D-02 -0.122470D-01
     27 -0.291584D-02  0.170146D-02  0.180683D-02  0.738336D-02 -0.604862D-03
     28  0.369197D-02  0.287358D-02 -0.242204D-02  0.317061D-02  0.676545D-02
     29 -0.114001D-02 -0.171336D-02  0.270431D-02 -0.168027D-02  0.126788D-02
     30 -0.215569D-02  0.367632D-04  0.567956D-02 -0.406740D-03  0.769577D-02
     31  0.112370D-02  0.666549D-03 -0.177059D-02  0.319875D-03 -0.338578D-01
     32  0.223880D-02 -0.156783D-03 -0.352657D-02  0.105777D-02 -0.368997D-02
     33 -0.403042D-03  0.160805D-02  0.252459D-02  0.142056D-02  0.278503D-01
     34  0.166136D-02 -0.368418D-01  0.515515D-01  0.115370D+00 -0.338166D-03
     35 -0.138828D-02  0.407364D-01 -0.109806D+00 -0.145323D+00 -0.248503D-03
     36  0.441252D-02  0.117582D+00 -0.187392D+00 -0.412049D+00 -0.440907D-03
               26            27            28            29            30 
     26  0.107976D+00
     27  0.157984D-01  0.462057D-01
     28  0.140329D-02 -0.417805D-02  0.678409D-01
     29  0.251125D-02 -0.238534D-02 -0.777036D-02  0.231411D+00
     30 -0.425704D-02 -0.428659D-02 -0.607491D-01  0.191992D+00  0.369630D+00
     31 -0.750760D-02  0.422641D-01  0.210591D-01 -0.900570D-02 -0.368225D-02
     32  0.148755D-01  0.856317D-02 -0.177061D-01 -0.890657D-01 -0.459329D-01
     33  0.480685D-02 -0.199312D-01 -0.129615D-01 -0.674918D-01  0.137840D-02
     34 -0.153837D-03 -0.572376D-03 -0.653064D-03  0.101178D-02  0.115775D-02
     35  0.117409D-02  0.173110D-02  0.101689D-02 -0.464345D-03 -0.677072D-03
     36  0.740155D-03 -0.587892D-03  0.259235D-03 -0.658829D-03 -0.136380D-02
               31            32            33            34            35 
     31  0.944034D-01
     32  0.146488D+00  0.516183D+00
     33 -0.454817D-01 -0.249082D-01  0.107987D+00
     34 -0.948668D-04 -0.183883D-03  0.120181D-03  0.386248D-01
     35  0.359152D-03  0.937843D-03 -0.189002D-04 -0.506433D-01  0.135089D+00
     36  0.143365D-03  0.144583D-03 -0.513477D-03 -0.117728D+00  0.181105D+00
               36 
     36  0.408786D+00
 Red2BG is reusing G-inverse.
 Leave Link  716 at Sat May 24 06:36:39 2025, MaxMem=  3758096384 cpu:               0.0 elap:               0.0
 (Enter /apps/easybuild-2022/easybuild/software/Compiler/NVHPC/22.11-CUDA-11.7.0/Gaussian/g16c01-CUDA-11.7.0/g16/l9999.exe)

 ----------------------------------------------------------------------

 Electric dipole moment (input orientation):
 (Debye = 10**-18 statcoulomb cm , SI units = C m)
                  (au)            (Debye)         (10**-30 SI)
   Tot        0.223316D+01      0.567614D+01      0.189336D+02
   x         -0.159772D+01     -0.406100D+01     -0.135460D+02
   y          0.902579D+00      0.229413D+01      0.765238D+01
   z          0.127266D+01      0.323478D+01      0.107901D+02

 Dipole polarizability, Alpha (input orientation).
 (esu units = cm**3 , SI units = C**2 m**2 J**-1)
 Alpha(0;0):
               (au)            (10**-24 esu)      (10**-40 SI)
   iso        0.588903D+02      0.872664D+01      0.970970D+01
   aniso      0.175741D+02      0.260421D+01      0.289758D+01
   xx         0.614724D+02      0.910927D+01      0.101354D+02
   yx         0.450504D+01      0.667578D+00      0.742780D+00
   yy         0.594276D+02      0.880626D+01      0.979828D+01
   zx        -0.860290D+01     -0.127482D+01     -0.141843D+01
   zy         0.548750D+00      0.813163D-01      0.904766D-01
   zz         0.557709D+02      0.826439D+01      0.919537D+01

 ----------------------------------------------------------------------

 Dipole orientation:
     6          1.38086621         -2.46220486          0.76695861
     6         -0.20576190         -0.12935324         -0.04616586
     9         -2.51807774         -0.66382334         -0.73576249
     9         -0.30321214          1.44770707          1.92899760
    16          2.12278234          0.88053158         -2.42914555
     8          4.21515942         -0.52157428         -1.21731687
     8          1.62739788          1.42970869         -4.99146801
     8          2.60730000          3.67662594         -1.36757369
     9          0.94680741         -2.64509645         -3.10818620
     9          2.78406055         -2.19020157          2.72153589
     9          0.63833413         -4.72439383          0.65293354
     1          3.57391642          3.61391293          0.17710762

 Electric dipole moment (dipole orientation):
 (Debye = 10**-18 statcoulomb cm , SI units = C m)
                  (au)            (Debye)         (10**-30 SI)
   Tot        0.223316D+01      0.567614D+01      0.189336D+02
   x          0.000000D+00      0.000000D+00      0.000000D+00
   y          0.000000D+00      0.000000D+00      0.000000D+00
   z          0.223316D+01      0.567614D+01      0.189336D+02

 Dipole polarizability, Alpha (dipole orientation).
 (esu units = cm**3 , SI units = C**2 m**2 J**-1)
 Alpha(0;0):
               (au)            (10**-24 esu)      (10**-40 SI)
   iso        0.588903D+02      0.872664D+01      0.970970D+01
   aniso      0.175741D+02      0.260421D+01      0.289758D+01
   xx         0.514515D+02      0.762432D+01      0.848320D+01
   yx         0.570483D+01      0.845369D+00      0.940599D+00
   yy         0.612700D+02      0.907928D+01      0.101021D+02
   zx        -0.527789D+00     -0.782103D-01     -0.870207D-01
   zy        -0.517973D+01     -0.767557D+00     -0.854022D+00
   zz         0.639494D+02      0.947632D+01      0.105438D+02

 ----------------------------------------------------------------------
 Unable to Open any file for archive entry.
 1\1\GINC-SPARTAN-BM197\Freq\RM062X\def2TZVPP\C2H1F5O3S1\AKHALILOV\24-M
 ay-2025\0\\#P M062X/Def2TZVPP Symm(None) scf(xqc) pop(None) opt(NoFree
 ze,TS,CalcAll,NoEigentest,MaxCycle=999)\\Gaussian input prepared by AS
 E\\0,1\C,-0.0378971473,-0.8687359356,1.2807018714\C,-0.0685120363,-0.0
 91257897,-0.0641581266\F,-0.6841825675,-0.7175311914,-1.0332543727\F,-
 0.6973459793,1.0693937422,0.1573059384\S,1.7625636587,0.1048419913,-0.
 1172061879\O,1.9133184954,-0.0967864529,1.3403032534\O,2.6095163685,-0
 .2310951201,-1.1949443618\O,1.8059874954,1.7047828983,-0.2116483369\F,
 1.2566059057,-1.8265632719,-0.0131575837\F,-0.2509576678,-0.1849636052
 ,2.3432249682\F,-0.4800395123,-2.0380344614,1.4490241812\H,1.559788834
 9,2.0996400994,0.633560859\\Version=ES64L-G16RevC.01\HF=-1199.7615105\
 RMSD=8.735e-09\RMSF=6.304e-06\ZeroPoint=0.0509466\Thermal=0.0606541\ET
 ot=-1199.7008563\HTot=-1199.6999121\GTot=-1199.7455432\Dipole=-1.59771
 91,0.9025791,1.2726609\DipoleDeriv=1.8855983,0.4795596,-0.7761797,0.50
 31921,1.7591083,0.2117481,-0.9110541,0.2774589,1.680427,0.9625976,-0.2
 767357,0.3746346,-0.3411978,1.0566383,0.1899596,0.5690758,0.186708,0.8
 274968,-0.5050824,-0.1450041,-0.3265186,-0.1589389,-0.3163774,-0.19044
 63,-0.3956449,-0.2063837,-0.5335986,-0.5640075,0.3652138,0.0139473,0.4
 185452,-0.7152782,-0.0924979,-0.0017317,-0.0641761,-0.2300464,1.525210
 7,0.1795685,-0.311654,0.4052163,2.9101231,-0.2108843,-0.7072248,-0.365
 9132,2.0864851,-0.9455723,-0.2818776,0.0591445,-0.3137178,-0.785545,0.
 132036,0.1512697,0.2751363,-1.0679666,-0.7542156,-0.0028294,0.2708117,
 0.0066769,-0.5992098,-0.0268268,0.3794275,-0.012347,-0.7797316,-0.4888
 016,-0.0389767,-0.0071383,-0.2347918,-1.3844336,0.0398187,0.0265725,-0
 .034538,-0.4132224,-0.6485805,0.0546643,0.1837857,0.0248169,-1.2305838
 ,-0.0447514,0.1857176,-0.114899,-0.6392761,-0.3449606,-0.0858634,0.225
 0917,0.2118784,-0.3069156,-0.2863214,0.4534744,-0.1913322,-0.8550046,-
 0.4115987,-0.2462093,0.2464549,-0.5649819,-0.7796902,0.2500979,0.19782
 12,0.1730434,-0.3107866,0.2894127,-0.0015099,0.04762,0.0433023,0.39216
 38,0.0280678,0.052297,0.0772424,0.235224\Polar=61.4723983,4.5050376,59
 .4275834,-8.6028988,0.5487497,55.7708594\PG=Unknown\NImag=1\\0.1504148
 2,0.08411940,0.69504277,-0.01323470,-0.05317703,0.60877637,-0.02714608
 ,-0.00836294,-0.02978285,0.49223265,-0.00881465,-0.06234344,0.07599123
 ,0.01249495,0.50544132,-0.01486487,0.06458037,-0.13846444,0.09438485,0
 .05906118,0.53732740,-0.00827017,-0.00628517,-0.00701197,-0.14967056,-
 0.06876780,-0.11675541,0.15116751,0.00069275,0.00233369,-0.00478967,-0
 .07567297,-0.12965184,-0.09975532,0.07309049,0.17915590,-0.01723753,-0
 .02226660,-0.03635048,-0.11802959,-0.09798772,-0.23865693,0.15095791,0
 .15766685,0.29621621,-0.00889920,0.01539534,0.00692809,-0.13562065,0.1
 0038443,0.00822984,0.01895782,-0.01053832,0.00077643,0.14336075,0.0182
 1619,-0.04342842,-0.00175485,0.10754875,-0.23257675,-0.01529679,0.0041
 5713,-0.05366807,-0.03902161,-0.13863069,0.34170256,-0.00259864,0.0148
 1553,-0.00070994,0.01139665,-0.01477529,-0.07500439,0.01058686,-0.0536
 7497,-0.01617204,-0.01279081,0.04946163,0.08194718,0.01621586,0.004067
 42,0.04041544,-0.17900003,-0.01997927,0.02978086,0.00687090,0.00342037
 ,-0.00487033,-0.00395014,0.00125891,-0.00180371,0.70308726,-0.04815658
 ,0.04040247,0.06854177,-0.02568780,0.01687443,-0.00438061,-0.01084053,
 -0.01030569,-0.00452370,0.02868105,-0.03039443,-0.00253311,-0.10904554
 ,0.41422794,0.12312564,0.06472250,0.00018227,-0.01937943,-0.01022049,-
 0.02840444,-0.02415306,-0.00582677,-0.01090310,0.01200307,-0.00286674,
 -0.00371759,-0.29907903,0.04944906,1.04508192,0.04093337,0.03563700,-0
 .00716744,-0.01397381,-0.00854180,-0.02471704,-0.00810568,0.00057638,-
 0.00577669,-0.00103090,0.00407541,-0.00042297,-0.11802252,-0.00431947,
 -0.09382683,0.08649614,0.04403403,0.00337354,-0.00806837,-0.00746559,-
 0.00951077,0.00849403,0.00201020,0.00374944,-0.00232533,-0.00182428,0.
 00656605,-0.00147040,-0.00426185,-0.09325319,0.03033342,-0.01014700,0.
 11847340,-0.05864188,-0.03311053,-0.03446603,0.01331625,0.00721799,-0.
 03358793,-0.00895714,-0.00384339,0.00388406,-0.00679269,0.00139519,0.0
 0543705,-0.04028911,0.08092360,-0.42350346,0.09972905,-0.03822759,0.51
 271534,-0.01020218,-0.00449419,-0.00681927,0.01980298,0.00302792,0.011
 32300,-0.00202366,-0.00205649,-0.00302337,-0.00739703,0.00484933,0.001
 91614,-0.31552773,0.10703234,0.30037041,0.02031900,0.00270043,-0.01085
 696,0.29946687,0.00426454,-0.00885543,-0.00763910,-0.00123248,-0.00482
 193,-0.00050836,0.00100904,0.00171568,0.00102024,-0.00039817,0.0036834
 0,-0.00033905,0.09402200,-0.10427959,-0.11187850,0.00011675,0.01312321
 ,0.00148031,-0.09822919,0.15531633,-0.01139951,-0.00602332,0.00330253,
 -0.00547044,0.00177185,-0.00263922,0.00435535,0.00177193,0.00427299,0.
 00140791,-0.00104312,0.00044418,0.28138144,-0.12851318,-0.44898548,0.0
 2165507,-0.00306825,-0.00134125,-0.32677232,0.13186168,0.45359884,-0.0
 1195761,-0.00156926,-0.00266861,0.00122701,-0.00892727,-0.00022744,-0.
 00425300,-0.00334148,-0.00209427,-0.00550484,-0.01062777,0.00125179,-0
 .07096850,-0.01042151,0.01551161,0.01978500,0.00999179,-0.00612261,0.0
 0273425,0.03135409,0.01274396,0.09827119,0.00714830,0.00114664,-0.0095
 7677,0.01544423,-0.02548276,0.00455807,-0.00702454,-0.00184483,-0.0038
 0914,-0.00397293,0.01074788,0.00046608,-0.01937915,-0.21718697,0.02060
 606,-0.00554295,-0.02708926,0.02038740,0.00536044,-0.03325820,-0.01311
 868,-0.03923110,0.40970754,-0.01364633,-0.00574928,-0.00360268,0.00470
 059,-0.00110605,0.00413182,0.00035069,0.00008599,0.00068484,-0.0011786
 1,0.00132273,0.00116307,0.00878757,-0.00500658,-0.08302245,0.00858100,
 0.04774789,-0.01831286,0.01491078,-0.04777497,-0.00759054,-0.13932265,
 0.15786818,0.51020053,-0.00344800,-0.01608653,-0.03940846,-0.01302857,
 0.00447862,0.01067466,-0.00802656,0.01114451,-0.00398458,-0.00259852,0
 .00865096,-0.00452263,-0.02120289,0.05705955,0.01527816,0.01420473,-0.
 01952805,-0.02611530,-0.01094828,-0.03064034,0.01562150,0.00396819,-0.
 00016115,-0.00204362,0.06851037,-0.00159407,-0.04121336,0.00653795,0.0
 0179093,-0.04278364,-0.01038867,0.00741769,0.00348092,0.00646587,0.011
 18347,-0.00469997,-0.00031486,0.03342424,0.01273836,0.00017467,-0.0095
 8365,-0.03084132,-0.03477132,-0.01803970,-0.01710561,0.01665059,-0.006
 09379,-0.00611227,-0.00144255,-0.01224697,0.10797602,-0.02591485,0.025
 34583,0.03330775,0.01302441,-0.00292328,-0.01542891,-0.00611347,0.0086
 5277,0.00291958,-0.00378398,-0.00180962,0.00563090,-0.01106875,-0.0349
 7126,-0.05364187,-0.02123515,-0.04678072,0.00134501,0.01648146,0.02697
 216,-0.00291584,0.00170146,0.00180683,0.00738336,-0.00060486,0.0157983
 6,0.04620574,-0.05377094,0.03745869,0.05618109,0.00519123,0.00344404,0
 .00120662,0.00119527,0.00065360,0.00102245,0.00254945,-0.00294452,-0.0
 0265316,-0.01658529,-0.00398644,-0.02848641,-0.03955195,-0.00975205,0.
 04349620,0.00308620,0.00060499,0.00369197,0.00287358,-0.00242204,0.003
 17061,0.00676545,0.00140329,-0.00417805,0.06784094,0.00098350,-0.16010
 179,-0.13136433,0.00813529,0.00115634,-0.00118485,-0.00038348,0.000698
 98,0.00337929,-0.00312123,0.00300504,0.00672211,0.00572190,-0.00507770
 ,0.01171614,0.00547198,0.01239559,-0.00790412,-0.00059819,0.00082683,-
 0.00114001,-0.00171336,0.00270431,-0.00168027,0.00126788,0.00251125,-0
 .00238534,-0.00777036,0.23141119,0.01675833,-0.12217236,-0.33640152,0.
 01845796,-0.02953926,-0.01892970,-0.00271689,0.00073548,-0.00788395,-0
 .00336657,0.00292524,0.00243833,0.00123872,-0.00921273,0.01065012,0.02
 356848,0.00905787,-0.01266853,0.00160103,0.00140122,-0.00215569,0.0000
 3676,0.00567956,-0.00040674,0.00769577,-0.00425704,-0.00428659,-0.0607
 4911,0.19199201,0.36962966,-0.08610290,-0.13932183,0.00381675,-0.00207
 015,-0.00088865,0.00105639,0.00274476,0.00119413,0.00218543,0.00176963
 ,-0.00080140,-0.00085312,0.00078040,0.01772301,-0.00150377,0.00170647,
 -0.00272987,0.00061116,-0.00100468,-0.00373860,0.00112370,0.00066655,-
 0.00177059,0.00031987,-0.03385775,-0.00750760,0.04226415,0.02105913,-0
 .00900570,-0.00368225,0.09440342,-0.09621061,-0.42336680,0.06485965,-0
 .02590447,-0.01486101,-0.00501672,0.00491122,0.00409299,0.00077294,0.0
 0264566,-0.00153181,0.00124076,-0.00080547,0.00005205,-0.00997973,-0.0
 0824523,-0.00417185,0.00695991,-0.00114231,0.00038190,0.00223880,-0.00
 015678,-0.00352657,0.00105777,-0.00368997,0.01487551,0.00856317,-0.017
 70610,-0.08906571,-0.04593291,0.14648794,0.51618347,0.01764567,0.07204
 199,-0.09777635,0.01781731,0.01301515,0.00990352,-0.00102779,-0.001463
 89,0.00174522,-0.00265068,0.00565122,-0.00134634,-0.00592434,-0.005109
 57,-0.00871933,0.00016666,-0.00040867,0.00625524,0.00283780,0.00136122
 ,-0.00040304,0.00160805,0.00252459,0.00142056,0.02785026,0.00480685,-0
 .01993124,-0.01296146,-0.06749177,0.00137840,-0.04548167,-0.02490822,0
 .10798684,0.00223302,-0.00055794,-0.00124808,0.00205598,-0.00791052,-0
 .00009146,-0.00058663,0.00083703,0.00007413,-0.00163636,0.00424769,0.0
 0049359,-0.00169730,0.00196190,0.00013964,-0.00275984,-0.00302775,0.00
 062303,0.00169427,0.00286736,0.00166136,-0.03684181,0.05155148,0.11537
 012,-0.00033817,-0.00015384,-0.00057238,-0.00065306,0.00101178,0.00115
 775,-0.00009487,-0.00018388,0.00012018,0.03862477,-0.00468280,-0.00298
 988,0.00043952,-0.00108792,-0.00143994,-0.00016232,0.00070572,0.000242
 84,0.00062890,0.00019568,0.00059452,0.00040157,0.01155645,-0.02379767,
 -0.03622962,0.00050256,0.00718516,-0.00050744,0.00158961,-0.00672659,-
 0.00138828,0.04073644,-0.10980551,-0.14532285,-0.00024850,0.00117409,0
 .00173110,0.00101689,-0.00046435,-0.00067707,0.00035915,0.00093784,-0.
 00001890,-0.05064330,0.13508948,0.00000865,0.00099289,0.00220253,-0.00
 043570,-0.00050532,-0.00024676,0.00048491,0.00044100,0.00024361,0.0012
 1799,0.00103672,-0.00011041,0.00143125,-0.00466369,0.00498341,-0.00055
 415,0.00471612,-0.00575664,-0.00196870,0.00404315,0.00441252,0.1175819
 5,-0.18739218,-0.41204892,-0.00044091,0.00074016,-0.00058789,0.0002592
 4,-0.00065883,-0.00136380,0.00014337,0.00014458,-0.00051348,-0.1177278
 9,0.18110539,0.40878583\\0.00000005,-0.00000083,0.00000146,-0.00000183
 ,0.00000660,0.00000398,-0.00000965,0.00001224,0.00000410,0.00000633,0.
 00000705,0.00001150,-0.00000211,-0.00000353,-0.00000421,0.00000374,-0.
 00000878,-0.00000550,-0.00000960,-0.00000129,-0.00000965,0.00000858,-0
 .00000476,0.00000135,-0.00000984,-0.00000073,-0.00000969,0.00000943,-0
 .00000357,0.00000394,-0.00000357,0.00000212,-0.00000186,0.00000848,-0.
 00000450,0.00000459\\\@
 The archive entry for this job was punched.


 ONE OF THE BENEFITS OF A COLLEGE EDUCATION
 IS TO SHOW THE BOY ITS LITTLE AVAIL 
                                    EMERSON IN 'CULTURE'
 Job cpu time:       0 days  4 hours 21 minutes 52.5 seconds.
 Elapsed time:       0 days  0 hours 35 minutes  6.0 seconds.
 File lengths (MBytes):  RWF=    173 Int=      0 D2E=      0 Chk=     11 Scr=      1
 Normal termination of Gaussian 16 at Sat May 24 06:36:39 2025.
done
