 Entering Gaussian System, Link 0=g16
 Initial command:
 /apps/easybuild-2022/easybuild/software/Compiler/NVHPC/22.11-CUDA-11.7.0/Gaussian/g16c01-CUDA-11.7.0/g16/l1.exe "/tmp/Gau-242208.inp" -scrdir="/tmp/"
 Entering Link 1 = /apps/easybuild-2022/easybuild/software/Compiler/NVHPC/22.11-CUDA-11.7.0/Gaussian/g16c01-CUDA-11.7.0/g16/l1.exe PID=    242209.
  
 Copyright (c) 1988-2019, Gaussian, Inc.  All Rights Reserved.
  
 This is part of the Gaussian(R) 16 program.  It is based on
 the Gaussian(R) 09 system (copyright 2009, Gaussian, Inc.),
 the Gaussian(R) 03 system (copyright 2003, Gaussian, Inc.),
 the Gaussian(R) 98 system (copyright 1998, Gaussian, Inc.),
 the Gaussian(R) 94 system (copyright 1995, Gaussian, Inc.),
 the Gaussian 92(TM) system (copyright 1992, Gaussian, Inc.),
 the Gaussian 90(TM) system (copyright 1990, Gaussian, Inc.),
 the Gaussian 88(TM) system (copyright 1988, Gaussian, Inc.),
 the Gaussian 86(TM) system (copyright 1986, Carnegie Mellon
 University), and the Gaussian 82(TM) system (copyright 1983,
 Carnegie Mellon University). Gaussian is a federally registered
 trademark of Gaussian, Inc.
  
 This software contains proprietary and confidential information,
 including trade secrets, belonging to Gaussian, Inc.
  
 This software is provided under written license and may be
 used, copied, transmitted, or stored only in accord with that
 written license.
  
 The following legend is applicable only to US Government
 contracts under FAR:
  
                    RESTRICTED RIGHTS LEGEND
  
 Use, reproduction and disclosure by the US Government is
 subject to restrictions as set forth in subparagraphs (a)
 and (c) of the Commercial Computer Software - Restricted
 Rights clause in FAR 52.227-19.
  
 Gaussian, Inc.
 340 Quinnipiac St., Bldg. 40, Wallingford CT 06492
  
  
 ---------------------------------------------------------------
 Warning -- This program may not be used in any manner that
 competes with the business of Gaussian, Inc. or will provide
 assistance to any competitor of Gaussian, Inc.  The licensee
 of this program is prohibited from giving any competitor of
 Gaussian, Inc. access to this program.  By using this program,
 the user acknowledges that Gaussian, Inc. is engaged in the
 business of creating and licensing software in the field of
 computational chemistry and represents and warrants to the
 licensee that it is not a competitor of Gaussian, Inc. and that
 it will not use this program in any manner prohibited above.
 ---------------------------------------------------------------
  

 Cite this work as:
 Gaussian 16, Revision C.01,
 M. J. Frisch, G. W. Trucks, H. B. Schlegel, G. E. Scuseria, 
 M. A. Robb, J. R. Cheeseman, G. Scalmani, V. Barone, 
 G. A. Petersson, H. Nakatsuji, X. Li, M. Caricato, A. V. Marenich, 
 J. Bloino, B. G. Janesko, R. Gomperts, B. Mennucci, H. P. Hratchian, 
 J. V. Ortiz, A. F. Izmaylov, J. L. Sonnenberg, D. Williams-Young, 
 F. Ding, F. Lipparini, F. Egidi, J. Goings, B. Peng, A. Petrone, 
 T. Henderson, D. Ranasinghe, V. G. Zakrzewski, J. Gao, N. Rega, 
 G. Zheng, W. Liang, M. Hada, M. Ehara, K. Toyota, R. Fukuda, 
 J. Hasegawa, M. Ishida, T. Nakajima, Y. Honda, O. Kitao, H. Nakai, 
 T. Vreven, K. Throssell, J. A. Montgomery, Jr., J. E. Peralta, 
 F. Ogliaro, M. J. Bearpark, J. J. Heyd, E. N. Brothers, K. N. Kudin, 
 V. N. Staroverov, T. A. Keith, R. Kobayashi, J. Normand, 
 K. Raghavachari, A. P. Rendell, J. C. Burant, S. S. Iyengar, 
 J. Tomasi, M. Cossi, J. M. Millam, M. Klene, C. Adamo, R. Cammi, 
 J. W. Ochterski, R. L. Martin, K. Morokuma, O. Farkas, 
 J. B. Foresman, and D. J. Fox, Gaussian, Inc., Wallingford CT, 2019.
 
 ******************************************
 Gaussian 16:  ES64L-G16RevC.01  3-Jul-2019
                24-May-2025 
 ******************************************
 %mem=28GB
 %nprocshared=8
 Will use up to    8 processors via shared memory.
 ----------------------------------------------------------------------
 #P M062X/Def2TZVPP Symm(None) scf(xqc) pop(None) opt(NoFreeze,TS,CalcA
 ll,NoEigentest,MaxCycle=999)
 ----------------------------------------------------------------------
 1/5=1,6=999,10=4,11=1,18=20,26=3,29=2000,38=1/1,3;
 2/9=110,12=2,15=3,17=6,18=5,40=1/2;
 3/5=44,7=202,11=2,25=1,30=1,71=2,74=-55,140=1/1,2,3;
 4//1;
 5/5=2,8=3,13=1,38=5/2,8;
 8/6=4,10=90,11=11/1;
 11/6=1,8=1,9=11,15=111,16=1,31=1/1,2,10;
 10/6=1,31=1/2;
 7/10=1,25=1,30=1/1,2,3,16;
 1/5=1,6=999,10=4,11=1,18=20,26=3/3(3);
 2/9=110,15=3/2;
 7/8=1,9=1,25=1,30=1,44=-1/16;
 99//99;
 2/9=110,15=3/2;
 3/5=44,7=202,11=2,25=1,30=1,71=2,74=-55,140=1/1,2,3;
 4/5=5,16=3,69=1/1;
 5/5=2,8=3,13=1,38=5/2,8;
 8/6=4,10=90,11=11/1;
 11/6=1,8=1,9=11,15=111,16=1,31=1/1,2,10;
 10/6=1,31=1/2;
 7/10=1,25=1,30=1/1,2,3,16;
 1/5=1,6=999,10=4,11=1,18=20,26=3/3(-8);
 2/9=110,15=3/2;
 7/8=1,9=1,25=1,30=1,44=-1/16;
 99//99;
 Leave Link    1 at Sat May 24 05:33:08 2025, MaxMem=  3758096384 cpu:               0.0 elap:               0.0
 (Enter /apps/easybuild-2022/easybuild/software/Compiler/NVHPC/22.11-CUDA-11.7.0/Gaussian/g16c01-CUDA-11.7.0/g16/l101.exe)
 ------------------------------
 Gaussian input prepared by ASE
 ------------------------------
 Symbolic Z-matrix:
 Charge =  0 Multiplicity = 1
 C                    -0.46042  -2.21252  -1.12013 
 C                     0.48513  -1.73757  -0.00262 
 F                     0.        0.        0. 
 F                     0.02716  -2.1603    1.12428 
 S                     1.75908   0.        0. 
 O                     2.20352  -0.37635   1.29504 
 O                     2.27325  -0.31739  -1.27436 
 O                     1.82175   1.58112   0. 
 F                    -0.23268  -1.56304  -2.24443 
 F                    -0.20545  -3.50707  -1.30056 
 F                    -1.74033  -2.07375  -0.79357 
 H                     1.1114    1.93013  -0.55491 
 
 ITRead=  0  0  0  0  0  0  0  0  0  0  0  0
 MicOpt= -1 -1 -1 -1 -1 -1 -1 -1 -1 -1 -1 -1
 NAtoms=     12 NQM=       12 NQMF=       0 NMMI=      0 NMMIF=      0
                NMic=       0 NMicF=      0.
                    Isotopes and Nuclear Properties:
 (Nuclear quadrupole moments (NQMom) in fm**2, nuclear magnetic moments (NMagM)
  in nuclear magnetons)

  Atom         1           2           3           4           5           6           7           8           9          10
 IAtWgt=          12          12          19          19          32          16          16          16          19          19
 AtmWgt=  12.0000000  12.0000000  18.9984032  18.9984032  31.9720718  15.9949146  15.9949146  15.9949146  18.9984032  18.9984032
 NucSpn=           0           0           1           1           0           0           0           0           1           1
 AtZEff=  -0.0000000  -0.0000000  -0.0000000  -0.0000000  -0.0000000  -0.0000000  -0.0000000  -0.0000000  -0.0000000  -0.0000000
 NQMom=    0.0000000   0.0000000   0.0000000   0.0000000   0.0000000   0.0000000   0.0000000   0.0000000   0.0000000   0.0000000
 NMagM=    0.0000000   0.0000000   2.6288670   2.6288670   0.0000000   0.0000000   0.0000000   0.0000000   2.6288670   2.6288670
 AtZNuc=   6.0000000   6.0000000   9.0000000   9.0000000  16.0000000   8.0000000   8.0000000   8.0000000   9.0000000   9.0000000

  Atom        11          12
 IAtWgt=          19           1
 AtmWgt=  18.9984032   1.0078250
 NucSpn=           1           1
 AtZEff=  -0.0000000  -0.0000000
 NQMom=    0.0000000   0.0000000
 NMagM=    2.6288670   2.7928460
 AtZNuc=   9.0000000   1.0000000
 Leave Link  101 at Sat May 24 05:33:08 2025, MaxMem=  3758096384 cpu:               0.2 elap:               0.2
 (Enter /apps/easybuild-2022/easybuild/software/Compiler/NVHPC/22.11-CUDA-11.7.0/Gaussian/g16c01-CUDA-11.7.0/g16/l103.exe)

 GradGradGradGradGradGradGradGradGradGradGradGradGradGradGradGradGradGrad
 Berny optimization.
 Initialization pass.
                           ----------------------------
                           !    Initial Parameters    !
                           ! (Angstroms and Degrees)  !
 --------------------------                            --------------------------
 ! Name  Definition              Value          Derivative Info.                !
 --------------------------------------------------------------------------------
 ! R1    R(1,2)                  1.539          calculate D2E/DX2 analytically  !
 ! R2    R(1,9)                  1.3182         calculate D2E/DX2 analytically  !
 ! R3    R(1,10)                 1.3317         calculate D2E/DX2 analytically  !
 ! R4    R(1,11)                 1.3282         calculate D2E/DX2 analytically  !
 ! R5    R(2,4)                  1.2878         calculate D2E/DX2 analytically  !
 ! R6    R(2,5)                  2.1546         calculate D2E/DX2 analytically  !
 ! R7    R(3,5)                  1.7591         calculate D2E/DX2 analytically  !
 ! R8    R(5,6)                  1.42           calculate D2E/DX2 analytically  !
 ! R9    R(5,7)                  1.4104         calculate D2E/DX2 analytically  !
 ! R10   R(5,8)                  1.5824         calculate D2E/DX2 analytically  !
 ! R11   R(8,12)                 0.9666         calculate D2E/DX2 analytically  !
 ! A1    A(2,1,9)              111.1684         calculate D2E/DX2 analytically  !
 ! A2    A(2,1,10)             106.3052         calculate D2E/DX2 analytically  !
 ! A3    A(2,1,11)             112.4138         calculate D2E/DX2 analytically  !
 ! A4    A(9,1,10)             109.2874         calculate D2E/DX2 analytically  !
 ! A5    A(9,1,11)             108.9479         calculate D2E/DX2 analytically  !
 ! A6    A(10,1,11)            108.6254         calculate D2E/DX2 analytically  !
 ! A7    A(1,2,4)              108.3978         calculate D2E/DX2 analytically  !
 ! A8    A(1,2,5)              127.8106         calculate D2E/DX2 analytically  !
 ! A9    A(4,2,5)              118.2913         calculate D2E/DX2 analytically  !
 ! A10   A(2,5,3)               53.7519         calculate D2E/DX2 analytically  !
 ! A11   A(2,5,6)               88.4203         calculate D2E/DX2 analytically  !
 ! A12   A(2,5,7)               91.8897         calculate D2E/DX2 analytically  !
 ! A13   A(2,5,8)              146.0215         calculate D2E/DX2 analytically  !
 ! A14   A(3,5,6)              108.2398         calculate D2E/DX2 analytically  !
 ! A15   A(3,5,7)              111.3809         calculate D2E/DX2 analytically  !
 ! A16   A(3,5,8)               92.2698         calculate D2E/DX2 analytically  !
 ! A17   A(6,5,7)              130.5665         calculate D2E/DX2 analytically  !
 ! A18   A(6,5,8)              104.6217         calculate D2E/DX2 analytically  !
 ! A19   A(7,5,8)              102.1473         calculate D2E/DX2 analytically  !
 ! A20   A(5,8,12)             109.3709         calculate D2E/DX2 analytically  !
 ! D1    D(9,1,2,4)            165.2107         calculate D2E/DX2 analytically  !
 ! D2    D(9,1,2,5)             12.2965         calculate D2E/DX2 analytically  !
 ! D3    D(10,1,2,4)           -75.9517         calculate D2E/DX2 analytically  !
 ! D4    D(10,1,2,5)           131.134          calculate D2E/DX2 analytically  !
 ! D5    D(11,1,2,4)            42.7733         calculate D2E/DX2 analytically  !
 ! D6    D(11,1,2,5)          -110.1409         calculate D2E/DX2 analytically  !
 ! D7    D(1,2,5,3)             66.7103         calculate D2E/DX2 analytically  !
 ! D8    D(1,2,5,6)           -179.1807         calculate D2E/DX2 analytically  !
 ! D9    D(1,2,5,7)            -48.6374         calculate D2E/DX2 analytically  !
 ! D10   D(1,2,5,8)             66.5558         calculate D2E/DX2 analytically  !
 ! D11   D(4,2,5,3)            -83.9057         calculate D2E/DX2 analytically  !
 ! D12   D(4,2,5,6)             30.2033         calculate D2E/DX2 analytically  !
 ! D13   D(4,2,5,7)            160.7466         calculate D2E/DX2 analytically  !
 ! D14   D(4,2,5,8)            -84.0602         calculate D2E/DX2 analytically  !
 ! D15   D(2,5,8,12)           -37.3585         calculate D2E/DX2 analytically  !
 ! D16   D(3,5,8,12)           -37.4831         calculate D2E/DX2 analytically  !
 ! D17   D(6,5,8,12)          -146.9988         calculate D2E/DX2 analytically  !
 ! D18   D(7,5,8,12)            74.9583         calculate D2E/DX2 analytically  !
 --------------------------------------------------------------------------------
 Trust Radius=3.00D-01 FncErr=1.00D-07 GrdErr=1.00D-06 EigMax=2.50D+02 EigMin=1.00D-04
 Number of steps in this run=    100 maximum allowed number of steps=    100.
 Search for a saddle point of order  1.
 GradGradGradGradGradGradGradGradGradGradGradGradGradGradGradGradGradGrad

 Leave Link  103 at Sat May 24 05:33:08 2025, MaxMem=  3758096384 cpu:               0.1 elap:               0.0
 (Enter /apps/easybuild-2022/easybuild/software/Compiler/NVHPC/22.11-CUDA-11.7.0/Gaussian/g16c01-CUDA-11.7.0/g16/l202.exe)
                          Input orientation:                          
 ---------------------------------------------------------------------
 Center     Atomic      Atomic             Coordinates (Angstroms)
 Number     Number       Type             X           Y           Z
 ---------------------------------------------------------------------
      1          6           0       -0.460424   -2.212517   -1.120127
      2          6           0        0.485129   -1.737566   -0.002620
      3          9           0        0.000000    0.000000    0.000000
      4          9           0        0.027157   -2.160304    1.124278
      5         16           0        1.759079    0.000000    0.000000
      6          8           0        2.203520   -0.376347    1.295040
      7          8           0        2.273247   -0.317388   -1.274365
      8          8           0        1.821747    1.581115    0.000000
      9          9           0       -0.232681   -1.563037   -2.244431
     10          9           0       -0.205454   -3.507066   -1.300561
     11          9           0       -1.740331   -2.073753   -0.793567
     12          1           0        1.111397    1.930129   -0.554911
 ---------------------------------------------------------------------
                    Distance matrix (angstroms):
                    1          2          3          4          5
     1  C    0.000000
     2  C    1.538984   0.000000
     3  F    2.522282   1.804021   0.000000
     4  F    2.297350   1.287768   2.435498   0.000000
     5  S    3.328080   2.154551   1.759079   2.988389   0.000000
     6  O    4.037469   2.547490   2.583460   2.819259   1.419962
     7  O    3.329905   2.613734   2.625337   3.767592   1.410358
     8  O    4.566689   3.577737   2.412196   4.299160   1.582357
     9  F    1.318238   2.360387   2.744940   3.431099   3.383440
    10  F    1.331699   2.300584   3.746089   2.783472   4.224969
    11  F    1.328178   2.385642   2.821161   2.609527   4.144402
    12  H    4.466723   3.761545   2.295327   4.552680   2.110170
                    6          7          8          9         10
     6  O    0.000000
     7  O    2.571027   0.000000
     8  O    2.377927   2.330702   0.000000
     9  F    4.457708   2.961815   4.375368   0.000000
    10  F    4.726701   4.039640   5.629440   2.161222   0.000000
    11  F    4.774664   4.407357   5.164902   2.153798   2.160388
    12  H    3.151965   2.630369   0.966610   4.106487   5.643862
                   11         12
    11  F    0.000000
    12  H    4.921420   0.000000
 Symmetry turned off by external request.
 Stoichiometry    C2HF5O3S
 Rotational constants (GHZ):           1.8680520           0.6996492           0.6422161
 Leave Link  202 at Sat May 24 05:33:08 2025, MaxMem=  3758096384 cpu:               0.0 elap:               0.0
 (Enter /apps/easybuild-2022/easybuild/software/Compiler/NVHPC/22.11-CUDA-11.7.0/Gaussian/g16c01-CUDA-11.7.0/g16/l301.exe)
 Standard basis: def2TZVPP (5D, 7F)
 Ernie: Thresh=  0.10000D-02 Tol=  0.10000D-05 Strict=F.
   366 basis functions,   596 primitive gaussians,   423 cartesian basis functions
    49 alpha electrons       49 beta electrons
       nuclear repulsion energy       907.3487862179 Hartrees.
 IExCor= 4336 DFT=T Ex+Corr=M062X ExCW=0 ScaHFX=  0.540000
 ScaDFX=  1.000000  1.000000  1.000000  1.000000 ScalE2=  1.000000  1.000000
 IRadAn=      5 IRanWt=     -1 IRanGd=            0 ICorTp=0 IEmpDi=  4
 NAtoms=   12 NActive=   12 NUniq=   12 SFac= 1.00D+00 NAtFMM=   60 NAOKFM=F Big=F
 Integral buffers will be    131072 words long.
 Raffenetti 2 integral format.
 Two-electron integral symmetry is turned off.
 Leave Link  301 at Sat May 24 05:33:08 2025, MaxMem=  3758096384 cpu:               0.1 elap:               0.0
 (Enter /apps/easybuild-2022/easybuild/software/Compiler/NVHPC/22.11-CUDA-11.7.0/Gaussian/g16c01-CUDA-11.7.0/g16/l302.exe)
 NPDir=0 NMtPBC=     1 NCelOv=     1 NCel=       1 NClECP=     1 NCelD=      1
         NCelK=      1 NCelE2=     1 NClLst=     1 CellRange=     0.0.
 One-electron integrals computed using PRISM.
   1 Symmetry operations used in ECPInt.
 ECPInt:  NShTT=    8515 NPrTT=   27988 LenC2=    7895 LenP2D=   19109.
 LDataN:  DoStor=T MaxTD1= 6 Len=  172
 NBasis=   366 RedAO= T EigKep=  5.88D-04  NBF=   366
 NBsUse=   366 1.00D-06 EigRej= -1.00D+00 NBFU=   366
 Precomputing XC quadrature grid using
 IXCGrd= 4 IRadAn=           5 IRanWt=          -1 IRanGd=           0 AccXCQ= 0.00D+00.
 Generated NRdTot=       0 NPtTot=           0 NUsed=           0 NTot=          32
 NSgBfM=   420   419   419   420   420 MxSgAt=    12 MxSgA2=    12.
 Leave Link  302 at Sat May 24 05:33:08 2025, MaxMem=  3758096384 cpu:               0.7 elap:               0.2
 (Enter /apps/easybuild-2022/easybuild/software/Compiler/NVHPC/22.11-CUDA-11.7.0/Gaussian/g16c01-CUDA-11.7.0/g16/l303.exe)
 DipDrv:  MaxL=1.
 Leave Link  303 at Sat May 24 05:33:09 2025, MaxMem=  3758096384 cpu:               0.1 elap:               0.0
 (Enter /apps/easybuild-2022/easybuild/software/Compiler/NVHPC/22.11-CUDA-11.7.0/Gaussian/g16c01-CUDA-11.7.0/g16/l401.exe)
 ExpMin= 9.52D-02 ExpMax= 6.07D+04 ExpMxC= 2.07D+03 IAcc=3 IRadAn=         5 AccDes= 0.00D+00
 Harris functional with IExCor= 1009 and IRadAn=       5 diagonalized for initial guess.
 HarFok:  IExCor= 1009 AccDes= 0.00D+00 IRadAn=         5 IDoV= 1 UseB2=F ITyADJ=14
 ICtDFT=  3500011 ScaDFX=  1.000000  1.000000  1.000000  1.000000
 FoFCou: FMM=F IPFlag=           0 FMFlag=      100000 FMFlg1=           0
         NFxFlg=           0 DoJE=T BraDBF=F KetDBF=T FulRan=T
         wScrn=  0.000000 ICntrl=       500 IOpCl=  0 I1Cent=   200000004 NGrid=           0
         NMat0=    1 NMatS0=      1 NMatT0=    0 NMatD0=    1 NMtDS0=    0 NMtDT0=    0
 Symmetry not used in FoFCou.
 Harris En= -1199.21872519982    
 JPrj=0 DoOrth=F DoCkMO=F.
 Leave Link  401 at Sat May 24 05:33:09 2025, MaxMem=  3758096384 cpu:               3.9 elap:               0.5
 (Enter /apps/easybuild-2022/easybuild/software/Compiler/NVHPC/22.11-CUDA-11.7.0/Gaussian/g16c01-CUDA-11.7.0/g16/l502.exe)
 Keep R1 ints in memory in canonical form, NReq=2293447020.
 FoFCou: FMM=F IPFlag=           0 FMFlag=           0 FMFlg1=           0
         NFxFlg=           0 DoJE=F BraDBF=F KetDBF=F FulRan=T
         wScrn=  0.000000 ICntrl=       600 IOpCl=  0 I1Cent=           0 NGrid=           0
         NMat0=    1 NMatS0=  67161 NMatT0=    0 NMatD0=    1 NMtDS0=    0 NMtDT0=    0
 Symmetry not used in FoFCou.
 Two-electron integral symmetry not used.
 Closed shell SCF:
 Using DIIS extrapolation, IDIIS=  1040.
 NGot=  3758096384 LenX=  1502398648 LenY=  1502219278
 Requested convergence on RMS density matrix=1.00D-08 within  32 cycles.
 Requested convergence on MAX density matrix=1.00D-06.
 Requested convergence on             energy=1.00D-06.
 No special actions if energy rises.
 Integral accuracy reduced to 1.0D-05 until final iterations.

 Cycle   1  Pass 0  IDiag  1:
 E= -1199.45019235475    
 DIIS: error= 2.56D-02 at cycle   1 NSaved=   1.
 NSaved= 1 IEnMin= 1 EnMin= -1199.45019235475     IErMin= 1 ErrMin= 2.56D-02
 ErrMax= 2.56D-02  0.00D+00 EMaxC= 1.00D-01 BMatC= 6.33D-01 BMatP= 6.33D-01
 IDIUse=3 WtCom= 7.44D-01 WtEn= 2.56D-01
 Coeff-Com:  0.100D+01
 Coeff-En:   0.100D+01
 Coeff:      0.100D+01
 Gap=     0.259 Goal=   None    Shift=    0.000
 GapD=    0.259 DampG=1.000 DampE=0.500 DampFc=0.5000 IDamp=-1.
 Damping current iteration by 5.00D-01
 RMSDP=2.68D-03 MaxDP=3.36D-01              OVMax= 2.32D-01

 Cycle   2  Pass 0  IDiag  1:
 E= -1199.55482590525     Delta-E=       -0.104633550502 Rises=F Damp=T
 DIIS: error= 9.20D-03 at cycle   2 NSaved=   2.
 NSaved= 2 IEnMin= 2 EnMin= -1199.55482590525     IErMin= 2 ErrMin= 9.20D-03
 ErrMax= 9.20D-03  0.00D+00 EMaxC= 1.00D-01 BMatC= 6.58D-02 BMatP= 6.33D-01
 IDIUse=3 WtCom= 9.08D-01 WtEn= 9.20D-02
 Coeff-Com:  0.120D+00 0.880D+00
 Coeff-En:   0.307D+00 0.693D+00
 Coeff:      0.137D+00 0.863D+00
 Gap=     0.367 Goal=   None    Shift=    0.000
 RMSDP=6.64D-04 MaxDP=6.83D-02 DE=-1.05D-01 OVMax= 1.58D-01

 Cycle   3  Pass 0  IDiag  1:
 E= -1199.77119199623     Delta-E=       -0.216366090980 Rises=F Damp=F
 DIIS: error= 6.83D-03 at cycle   3 NSaved=   3.
 NSaved= 3 IEnMin= 3 EnMin= -1199.77119199623     IErMin= 3 ErrMin= 6.83D-03
 ErrMax= 6.83D-03  0.00D+00 EMaxC= 1.00D-01 BMatC= 1.94D-02 BMatP= 6.58D-02
 IDIUse=3 WtCom= 9.32D-01 WtEn= 6.83D-02
 Coeff-Com: -0.398D-01 0.304D+00 0.735D+00
 Coeff-En:   0.000D+00 0.000D+00 0.100D+01
 Coeff:     -0.371D-01 0.284D+00 0.753D+00
 Gap=     0.284 Goal=   None    Shift=    0.000
 RMSDP=3.26D-04 MaxDP=2.63D-02 DE=-2.16D-01 OVMax= 3.42D-02

 Cycle   4  Pass 0  IDiag  1:
 E= -1199.78060585512     Delta-E=       -0.009413858890 Rises=F Damp=F
 DIIS: error= 2.11D-03 at cycle   4 NSaved=   4.
 NSaved= 4 IEnMin= 4 EnMin= -1199.78060585512     IErMin= 4 ErrMin= 2.11D-03
 ErrMax= 2.11D-03  0.00D+00 EMaxC= 1.00D-01 BMatC= 6.60D-03 BMatP= 1.94D-02
 IDIUse=3 WtCom= 9.79D-01 WtEn= 2.11D-02
 Coeff-Com: -0.345D-01 0.740D-01 0.422D+00 0.538D+00
 Coeff-En:   0.000D+00 0.000D+00 0.215D+00 0.785D+00
 Coeff:     -0.337D-01 0.724D-01 0.418D+00 0.544D+00
 Gap=     0.289 Goal=   None    Shift=    0.000
 RMSDP=1.12D-04 MaxDP=6.78D-03 DE=-9.41D-03 OVMax= 1.16D-02

 Cycle   5  Pass 0  IDiag  1:
 E= -1199.78451710848     Delta-E=       -0.003911253359 Rises=F Damp=F
 DIIS: error= 2.86D-04 at cycle   5 NSaved=   5.
 NSaved= 5 IEnMin= 5 EnMin= -1199.78451710848     IErMin= 5 ErrMin= 2.86D-04
 ErrMax= 2.86D-04  0.00D+00 EMaxC= 1.00D-01 BMatC= 1.15D-04 BMatP= 6.60D-03
 IDIUse=3 WtCom= 9.97D-01 WtEn= 2.86D-03
 Coeff-Com: -0.882D-02 0.122D-01 0.104D+00 0.189D+00 0.704D+00
 Coeff-En:   0.000D+00 0.000D+00 0.000D+00 0.000D+00 0.100D+01
 Coeff:     -0.879D-02 0.121D-01 0.103D+00 0.188D+00 0.705D+00
 Gap=     0.288 Goal=   None    Shift=    0.000
 RMSDP=2.45D-05 MaxDP=1.43D-03 DE=-3.91D-03 OVMax= 2.47D-03

 Cycle   6  Pass 0  IDiag  1:
 E= -1199.78459462502     Delta-E=       -0.000077516542 Rises=F Damp=F
 DIIS: error= 1.16D-04 at cycle   6 NSaved=   6.
 NSaved= 6 IEnMin= 6 EnMin= -1199.78459462502     IErMin= 6 ErrMin= 1.16D-04
 ErrMax= 1.16D-04  0.00D+00 EMaxC= 1.00D-01 BMatC= 2.04D-05 BMatP= 1.15D-04
 IDIUse=3 WtCom= 9.99D-01 WtEn= 1.16D-03
 Coeff-Com: -0.159D-02-0.713D-04 0.120D-01 0.398D-01 0.336D+00 0.613D+00
 Coeff-En:   0.000D+00 0.000D+00 0.000D+00 0.000D+00 0.000D+00 0.100D+01
 Coeff:     -0.159D-02-0.713D-04 0.120D-01 0.398D-01 0.336D+00 0.614D+00
 Gap=     0.289 Goal=   None    Shift=    0.000
 RMSDP=9.49D-06 MaxDP=5.16D-04 DE=-7.75D-05 OVMax= 1.26D-03

 Initial convergence to 1.0D-05 achieved.  Increase integral accuracy.
 Cycle   7  Pass 1  IDiag  1:
 E= -1199.78465725055     Delta-E=       -0.000062625524 Rises=F Damp=F
 DIIS: error= 4.12D-05 at cycle   1 NSaved=   1.
 NSaved= 1 IEnMin= 1 EnMin= -1199.78465725055     IErMin= 1 ErrMin= 4.12D-05
 ErrMax= 4.12D-05  0.00D+00 EMaxC= 1.00D-01 BMatC= 2.84D-06 BMatP= 2.84D-06
 IDIUse=1 WtCom= 1.00D+00 WtEn= 0.00D+00
 Coeff-Com:  0.100D+01
 Coeff:      0.100D+01
 Gap=     0.289 Goal=   None    Shift=    0.000
 RMSDP=9.49D-06 MaxDP=5.16D-04 DE=-6.26D-05 OVMax= 7.25D-04

 Cycle   8  Pass 1  IDiag  1:
 E= -1199.78465812923     Delta-E=       -0.000000878684 Rises=F Damp=F
 DIIS: error= 4.83D-05 at cycle   2 NSaved=   2.
 NSaved= 2 IEnMin= 2 EnMin= -1199.78465812923     IErMin= 1 ErrMin= 4.12D-05
 ErrMax= 4.83D-05  0.00D+00 EMaxC= 1.00D-01 BMatC= 3.25D-06 BMatP= 2.84D-06
 IDIUse=1 WtCom= 1.00D+00 WtEn= 0.00D+00
 Coeff-Com:  0.520D+00 0.480D+00
 Coeff:      0.520D+00 0.480D+00
 Gap=     0.289 Goal=   None    Shift=    0.000
 RMSDP=3.00D-06 MaxDP=1.56D-04 DE=-8.79D-07 OVMax= 2.70D-04

 Cycle   9  Pass 1  IDiag  1:
 E= -1199.78466015689     Delta-E=       -0.000002027659 Rises=F Damp=F
 DIIS: error= 1.09D-05 at cycle   3 NSaved=   3.
 NSaved= 3 IEnMin= 3 EnMin= -1199.78466015689     IErMin= 3 ErrMin= 1.09D-05
 ErrMax= 1.09D-05  0.00D+00 EMaxC= 1.00D-01 BMatC= 1.21D-07 BMatP= 2.84D-06
 IDIUse=1 WtCom= 1.00D+00 WtEn= 0.00D+00
 Coeff-Com: -0.171D-01 0.121D+00 0.896D+00
 Coeff:     -0.171D-01 0.121D+00 0.896D+00
 Gap=     0.289 Goal=   None    Shift=    0.000
 RMSDP=1.45D-06 MaxDP=7.34D-05 DE=-2.03D-06 OVMax= 2.08D-04

 Cycle  10  Pass 1  IDiag  1:
 E= -1199.78466030271     Delta-E=       -0.000000145815 Rises=F Damp=F
 DIIS: error= 5.29D-06 at cycle   4 NSaved=   4.
 NSaved= 4 IEnMin= 4 EnMin= -1199.78466030271     IErMin= 4 ErrMin= 5.29D-06
 ErrMax= 5.29D-06  0.00D+00 EMaxC= 1.00D-01 BMatC= 3.87D-08 BMatP= 1.21D-07
 IDIUse=1 WtCom= 1.00D+00 WtEn= 0.00D+00
 Coeff-Com: -0.701D-01 0.225D-02 0.451D+00 0.617D+00
 Coeff:     -0.701D-01 0.225D-02 0.451D+00 0.617D+00
 Gap=     0.289 Goal=   None    Shift=    0.000
 RMSDP=5.90D-07 MaxDP=2.71D-05 DE=-1.46D-07 OVMax= 9.46D-05

 Cycle  11  Pass 1  IDiag  1:
 E= -1199.78466034024     Delta-E=       -0.000000037536 Rises=F Damp=F
 DIIS: error= 1.83D-06 at cycle   5 NSaved=   5.
 NSaved= 5 IEnMin= 5 EnMin= -1199.78466034024     IErMin= 5 ErrMin= 1.83D-06
 ErrMax= 1.83D-06  0.00D+00 EMaxC= 1.00D-01 BMatC= 3.42D-09 BMatP= 3.87D-08
 IDIUse=1 WtCom= 1.00D+00 WtEn= 0.00D+00
 Coeff-Com: -0.197D-01-0.244D-01-0.227D-01 0.183D+00 0.884D+00
 Coeff:     -0.197D-01-0.244D-01-0.227D-01 0.183D+00 0.884D+00
 Gap=     0.289 Goal=   None    Shift=    0.000
 RMSDP=3.32D-07 MaxDP=1.41D-05 DE=-3.75D-08 OVMax= 6.60D-05

 Cycle  12  Pass 1  IDiag  1:
 E= -1199.78466034689     Delta-E=       -0.000000006651 Rises=F Damp=F
 DIIS: error= 9.36D-07 at cycle   6 NSaved=   6.
 NSaved= 6 IEnMin= 6 EnMin= -1199.78466034689     IErMin= 6 ErrMin= 9.36D-07
 ErrMax= 9.36D-07  0.00D+00 EMaxC= 1.00D-01 BMatC= 8.30D-10 BMatP= 3.42D-09
 IDIUse=1 WtCom= 1.00D+00 WtEn= 0.00D+00
 Coeff-Com:  0.488D-02-0.113D-01-0.926D-01-0.360D-01 0.384D+00 0.751D+00
 Coeff:      0.488D-02-0.113D-01-0.926D-01-0.360D-01 0.384D+00 0.751D+00
 Gap=     0.289 Goal=   None    Shift=    0.000
 RMSDP=1.33D-07 MaxDP=5.57D-06 DE=-6.65D-09 OVMax= 2.43D-05

 Cycle  13  Pass 1  IDiag  1:
 E= -1199.78466034804     Delta-E=       -0.000000001146 Rises=F Damp=F
 DIIS: error= 3.60D-07 at cycle   7 NSaved=   7.
 NSaved= 7 IEnMin= 7 EnMin= -1199.78466034804     IErMin= 7 ErrMin= 3.60D-07
 ErrMax= 3.60D-07  0.00D+00 EMaxC= 1.00D-01 BMatC= 1.20D-10 BMatP= 8.30D-10
 IDIUse=1 WtCom= 1.00D+00 WtEn= 0.00D+00
 Coeff-Com:  0.444D-02-0.370D-02-0.456D-01-0.341D-01 0.114D+00 0.357D+00
 Coeff-Com:  0.608D+00
 Coeff:      0.444D-02-0.370D-02-0.456D-01-0.341D-01 0.114D+00 0.357D+00
 Coeff:      0.608D+00
 Gap=     0.289 Goal=   None    Shift=    0.000
 RMSDP=3.34D-08 MaxDP=1.73D-06 DE=-1.15D-09 OVMax= 6.91D-06

 Cycle  14  Pass 1  IDiag  1:
 E= -1199.78466034819     Delta-E=       -0.000000000156 Rises=F Damp=F
 DIIS: error= 1.64D-07 at cycle   8 NSaved=   8.
 NSaved= 8 IEnMin= 8 EnMin= -1199.78466034819     IErMin= 8 ErrMin= 1.64D-07
 ErrMax= 1.64D-07  0.00D+00 EMaxC= 1.00D-01 BMatC= 1.36D-11 BMatP= 1.20D-10
 IDIUse=1 WtCom= 1.00D+00 WtEn= 0.00D+00
 Coeff-Com:  0.149D-03 0.109D-02 0.668D-02-0.146D-02-0.432D-01-0.635D-01
 Coeff-Com:  0.193D+00 0.908D+00
 Coeff:      0.149D-03 0.109D-02 0.668D-02-0.146D-02-0.432D-01-0.635D-01
 Coeff:      0.193D+00 0.908D+00
 Gap=     0.289 Goal=   None    Shift=    0.000
 RMSDP=1.75D-08 MaxDP=7.39D-07 DE=-1.56D-10 OVMax= 4.24D-06

 Cycle  15  Pass 1  IDiag  1:
 E= -1199.78466034826     Delta-E=       -0.000000000064 Rises=F Damp=F
 DIIS: error= 3.64D-08 at cycle   9 NSaved=   9.
 NSaved= 9 IEnMin= 9 EnMin= -1199.78466034826     IErMin= 9 ErrMin= 3.64D-08
 ErrMax= 3.64D-08  0.00D+00 EMaxC= 1.00D-01 BMatC= 1.82D-12 BMatP= 1.36D-11
 IDIUse=1 WtCom= 1.00D+00 WtEn= 0.00D+00
 Coeff-Com: -0.448D-03 0.735D-03 0.751D-02 0.324D-02-0.272D-01-0.684D-01
 Coeff-Com: -0.124D-01 0.328D+00 0.769D+00
 Coeff:     -0.448D-03 0.735D-03 0.751D-02 0.324D-02-0.272D-01-0.684D-01
 Coeff:     -0.124D-01 0.328D+00 0.769D+00
 Gap=     0.289 Goal=   None    Shift=    0.000
 RMSDP=5.84D-09 MaxDP=2.56D-07 DE=-6.37D-11 OVMax= 1.52D-06

 SCF Done:  E(RM062X) =  -1199.78466035     A.U. after   15 cycles
            NFock= 15  Conv=0.58D-08     -V/T= 2.0028
 KE= 1.196395854425D+03 PE=-4.660821201363D+03 EE= 1.357291900372D+03
 Leave Link  502 at Sat May 24 05:33:55 2025, MaxMem=  3758096384 cpu:             164.6 elap:              46.3
 (Enter /apps/easybuild-2022/easybuild/software/Compiler/NVHPC/22.11-CUDA-11.7.0/Gaussian/g16c01-CUDA-11.7.0/g16/l508.exe)
 QCSCF skips out because SCF is already converged.
 Leave Link  508 at Sat May 24 05:33:55 2025, MaxMem=  3758096384 cpu:               0.1 elap:               0.0
 (Enter /apps/easybuild-2022/easybuild/software/Compiler/NVHPC/22.11-CUDA-11.7.0/Gaussian/g16c01-CUDA-11.7.0/g16/l801.exe)
 DoSCS=F DFT=T ScalE2(SS,OS)=  1.000000  1.000000
 Range of M.O.s used for correlation:     1   366
 NBasis=   366 NAE=    49 NBE=    49 NFC=     0 NFV=     0
 NROrb=    366 NOA=    49 NOB=    49 NVA=   317 NVB=   317

 **** Warning!!: The largest alpha MO coefficient is  0.15633546D+02

 Leave Link  801 at Sat May 24 05:33:55 2025, MaxMem=  3758096384 cpu:               0.1 elap:               0.0
 (Enter /apps/easybuild-2022/easybuild/software/Compiler/NVHPC/22.11-CUDA-11.7.0/Gaussian/g16c01-CUDA-11.7.0/g16/l1101.exe)
 Using compressed storage, NAtomX=    12.
 Will process     13 centers per pass.
   1 Symmetry operations used in ECPInt.
 ECPInt:  NShTT=    8515 NPrTT=   27988 LenC2=    7895 LenP2D=   19109.
 LDataN:  DoStor=T MaxTD1= 7 Len=  274
 Leave Link 1101 at Sat May 24 05:33:56 2025, MaxMem=  3758096384 cpu:               1.2 elap:               0.3
 (Enter /apps/easybuild-2022/easybuild/software/Compiler/NVHPC/22.11-CUDA-11.7.0/Gaussian/g16c01-CUDA-11.7.0/g16/l1102.exe)
 Symmetrizing basis deriv contribution to polar:
 IMax=3 JMax=2 DiffMx= 0.00D+00
 Leave Link 1102 at Sat May 24 05:33:56 2025, MaxMem=  3758096384 cpu:               0.1 elap:               0.1
 (Enter /apps/easybuild-2022/easybuild/software/Compiler/NVHPC/22.11-CUDA-11.7.0/Gaussian/g16c01-CUDA-11.7.0/g16/l1110.exe)
 Forming Gx(P) for the SCF density, NAtomX=    12.
 Integral derivatives from FoFJK, PRISM(SPDF).
 Do as many integral derivatives as possible in FoFJK.
 G2DrvN: MDV=    3758094988.
 G2DrvN: will do    13 centers at a time, making    1 passes.
 Calling FoFCou, ICntrl=  3107 FMM=F I1Cent=   0 AccDes= 0.00D+00.
 FoFJK:  IHMeth= 1 ICntrl=    3107 DoSepK=F KAlg= 0 I1Cent=           0 FoldK=F
 IRaf=         0 NMat=       1 IRICut=       1 DoRegI=T DoRafI=F ISym2E= 0 IDoP0=0 IntGTp=1.
 FoFCou: FMM=F IPFlag=           0 FMFlag=      100000 FMFlg1=           0
         NFxFlg=           0 DoJE=F BraDBF=F KetDBF=F FulRan=T
         wScrn=  0.000000 ICntrl=      3107 IOpCl=  0 I1Cent=           0 NGrid=           0
         NMat0=    1 NMatS0=      1 NMatT0=    0 NMatD0=    1 NMtDS0=    0 NMtDT0=    0
 Symmetry not used in FoFCou.
 End of G2Drv F.D. properties file   721 does not exist.
 End of G2Drv F.D. properties file   722 does not exist.
 End of G2Drv F.D. properties file   788 does not exist.
 Leave Link 1110 at Sat May 24 05:34:47 2025, MaxMem=  3758096384 cpu:             403.4 elap:              51.0
 (Enter /apps/easybuild-2022/easybuild/software/Compiler/NVHPC/22.11-CUDA-11.7.0/Gaussian/g16c01-CUDA-11.7.0/g16/l1002.exe)
 Minotr:  Closed shell wavefunction.
          IDoAtm=111111111111
          Direct CPHF calculation.
          Differentiating once with respect to electric field.
                with respect to dipole field.
          Differentiating once with respect to nuclear coordinates.
          Requested convergence is 1.0D-08 RMS, and 1.0D-07 maximum.
          Secondary convergence is 1.0D-12 RMS, and 1.0D-12 maximum.
          NewPWx=T KeepS1=F KeepF1=F KeepIn=T MapXYZ=F SortEE=F KeepMc=T.
         3612 words used for storage of precomputed grid.
 Keep R1 ints in memory in canonical form, NReq=2293452942.
 FoFCou: FMM=F IPFlag=           0 FMFlag=           0 FMFlg1=           0
         NFxFlg=           0 DoJE=F BraDBF=F KetDBF=F FulRan=T
         wScrn=  0.000000 ICntrl=       600 IOpCl=  0 I1Cent=           0 NGrid=           0
         NMat0=    1 NMatS0=  67161 NMatT0=    0 NMatD0=    1 NMtDS0=    0 NMtDT0=    0
 Symmetry not used in FoFCou.
 Two-electron integral symmetry not used.
          MDV=    3758096384 using IRadAn=       1.
          Solving linear equations simultaneously, MaxMat=       0.
          There are    39 degrees of freedom in the 1st order CPHF.  IDoFFX=6 NUNeed=     3.
     36 vectors produced by pass  0 Test12= 3.98D-14 2.56D-09 XBig12= 2.91D+01 2.61D+00.
 AX will form    36 AO Fock derivatives at one time.
     36 vectors produced by pass  1 Test12= 3.98D-14 2.56D-09 XBig12= 5.64D+00 3.85D-01.
     36 vectors produced by pass  2 Test12= 3.98D-14 2.56D-09 XBig12= 2.18D-01 8.69D-02.
     36 vectors produced by pass  3 Test12= 3.98D-14 2.56D-09 XBig12= 5.84D-03 1.40D-02.
     36 vectors produced by pass  4 Test12= 3.98D-14 2.56D-09 XBig12= 8.14D-05 1.24D-03.
     36 vectors produced by pass  5 Test12= 3.98D-14 2.56D-09 XBig12= 8.58D-07 1.09D-04.
     36 vectors produced by pass  6 Test12= 3.98D-14 2.56D-09 XBig12= 4.72D-09 7.31D-06.
     19 vectors produced by pass  7 Test12= 3.98D-14 2.56D-09 XBig12= 2.23D-11 5.15D-07.
      3 vectors produced by pass  8 Test12= 3.98D-14 2.56D-09 XBig12= 1.16D-13 4.55D-08.
      2 vectors produced by pass  9 Test12= 3.98D-14 2.56D-09 XBig12= 6.25D-16 4.77D-09.
 InvSVY:  IOpt=1 It=  1 EMax= 8.92D-16
 Solved reduced A of dimension   276 with    39 vectors.
 FullF1:  Do perturbations      1 to       3.
 Isotropic polarizability for W=    0.000000       58.27 Bohr**3.
 End of Minotr F.D. properties file   721 does not exist.
 End of Minotr F.D. properties file   722 does not exist.
 End of Minotr F.D. properties file   788 does not exist.
 Leave Link 1002 at Sat May 24 05:36:16 2025, MaxMem=  3758096384 cpu:             704.0 elap:              89.6
 (Enter /apps/easybuild-2022/easybuild/software/Compiler/NVHPC/22.11-CUDA-11.7.0/Gaussian/g16c01-CUDA-11.7.0/g16/l701.exe)
 ... and contract with generalized density number  0.
 Compute integral second derivatives.
   1 Symmetry operations used in ECPInt.
 ECPInt:  NShTT=    8515 NPrTT=   27988 LenC2=    7895 LenP2D=   19109.
 LDataN:  DoStor=T MaxTD1= 8 Len=  415
 Leave Link  701 at Sat May 24 05:36:17 2025, MaxMem=  3758096384 cpu:               0.9 elap:               0.2
 (Enter /apps/easybuild-2022/easybuild/software/Compiler/NVHPC/22.11-CUDA-11.7.0/Gaussian/g16c01-CUDA-11.7.0/g16/l702.exe)
 L702 exits ... SP integral derivatives will be done elsewhere.
 Leave Link  702 at Sat May 24 05:36:17 2025, MaxMem=  3758096384 cpu:               0.1 elap:               0.0
 (Enter /apps/easybuild-2022/easybuild/software/Compiler/NVHPC/22.11-CUDA-11.7.0/Gaussian/g16c01-CUDA-11.7.0/g16/l703.exe)
 Integral derivatives from FoFJK, PRISM(SPDF).
 Compute integral second derivatives, UseDBF=F ICtDFT=           0.
 Calling FoFJK, ICntrl=    100127 FMM=F ISym2X=0 I1Cent= 0 IOpClX= 0 NMat=1 NMatS=1 NMatT=0.
 FoFJK:  IHMeth= 1 ICntrl=  100127 DoSepK=F KAlg= 0 I1Cent=           0 FoldK=F
 IRaf=         0 NMat=       1 IRICut=       1 DoRegI=T DoRafI=F ISym2E= 0 IDoP0=0 IntGTp=1.
 FoFCou: FMM=F IPFlag=           0 FMFlag=      100000 FMFlg1=         800
         NFxFlg=           0 DoJE=F BraDBF=F KetDBF=F FulRan=T
         wScrn=  0.000000 ICntrl=    100127 IOpCl=  0 I1Cent=           0 NGrid=           0
         NMat0=    1 NMatS0=      1 NMatT0=    0 NMatD0=    1 NMtDS0=    0 NMtDT0=    0
 Symmetry not used in FoFCou.
 Leave Link  703 at Sat May 24 05:38:03 2025, MaxMem=  3758096384 cpu:             841.7 elap:             106.4
 (Enter /apps/easybuild-2022/easybuild/software/Compiler/NVHPC/22.11-CUDA-11.7.0/Gaussian/g16c01-CUDA-11.7.0/g16/l716.exe)
 Dipole        =-6.92796739D-01 5.60191904D-01-2.29135236D-01
 Polarizability= 5.51967693D+01 9.31450627D+00 6.53494303D+01
                 2.19916299D+00 4.68881967D-01 5.42756226D+01
 -------------------------------------------------------------------
 Center     Atomic                   Forces (Hartrees/Bohr)
 Number     Number              X              Y              Z
 -------------------------------------------------------------------
      1        6          -0.000337587   -0.001102300    0.003011202
      2        6          -0.000667849   -0.009857583   -0.000304923
      3        9           0.001285959    0.015349082   -0.001544155
      4        9          -0.001169114    0.000313734   -0.000785661
      5       16           0.010804818   -0.013786502    0.010548237
      6        8           0.002199790    0.011673728   -0.010029630
      7        8           0.003458530   -0.006674998   -0.008683111
      8        8          -0.017469267   -0.000539107    0.013021628
      9        9          -0.000134236    0.000752858   -0.001277945
     10        9           0.000021107    0.000442933   -0.000243597
     11        9          -0.001362466    0.000098034   -0.000651270
     12        1           0.003370314    0.003330121   -0.003060776
 -------------------------------------------------------------------
 Cartesian Forces:  Max     0.017469267 RMS     0.006776452
 Force constants in Cartesian coordinates: 
                1             2             3             4             5 
      1  0.583257D+00
      2  0.180320D-01  0.555897D+00
      3  0.142615D-01 -0.171548D-01  0.627801D+00
      4 -0.117875D+00 -0.226617D-01 -0.369099D-01  0.360801D+00
      5 -0.570440D-01 -0.486010D-01 -0.146256D-01  0.114094D+00  0.139394D+00
      6 -0.920409D-01 -0.390706D-01 -0.114537D+00 -0.671360D-01 -0.557074D-01
      7  0.203596D-02 -0.526569D-02 -0.673926D-02 -0.505712D-01  0.999022D-01
      8  0.240563D-01 -0.973238D-02  0.163431D-01  0.197092D-01 -0.406381D-02
      9  0.784854D-02 -0.617649D-02 -0.366349D-02  0.484802D-02 -0.103987D-01
     10  0.405344D-02  0.193876D-02 -0.161263D-01 -0.121400D+00 -0.662850D-01
     11 -0.388637D-03  0.300908D-02 -0.241402D-02 -0.493942D-01 -0.828042D-01
     12  0.292294D-01  0.270590D-01 -0.506372D-01  0.118904D+00  0.870857D-01
     13 -0.430928D-02 -0.154701D-01 -0.238289D-01 -0.138217D-01 -0.606124D-01
     14 -0.186313D-02 -0.809612D-02 -0.357294D-01 -0.434803D-01  0.787881D-01
     15 -0.125752D-01 -0.672012D-02  0.189757D-01 -0.108492D-01 -0.326852D-02
     16 -0.105061D-02  0.332791D-02  0.104589D-01 -0.984834D-02 -0.157309D-01
     17 -0.121864D-02  0.389126D-03  0.935753D-02 -0.117795D-01 -0.232027D-01
     18  0.140617D-02  0.402924D-02  0.611416D-02 -0.909063D-02 -0.180412D-01
     19  0.112099D-02  0.397041D-02  0.563555D-02 -0.237784D-02 -0.141141D-01
     20  0.235510D-02  0.734865D-03  0.363761D-02 -0.408818D-02 -0.208344D-01
     21  0.433747D-02  0.136768D-02 -0.151128D-01  0.727085D-02  0.173660D-01
     22  0.256246D-03  0.849692D-03  0.109750D-02 -0.313466D-02  0.952771D-02
     23  0.280130D-02  0.165272D-02  0.306595D-02  0.489956D-03 -0.121522D-02
     24  0.863269D-03  0.481019D-03 -0.235192D-02  0.886723D-03 -0.629675D-05
     25 -0.827824D-01 -0.156806D-01  0.232132D-01  0.889281D-02  0.892106D-02
     26 -0.141597D-01 -0.123623D+00  0.100458D+00 -0.719067D-03  0.178148D-02
     27  0.130629D-01  0.970179D-01 -0.289097D+00  0.106876D-01  0.252114D-01
     28 -0.801875D-01  0.173760D-01 -0.920539D-04  0.928381D-02 -0.700020D-02
     29  0.180876D-01 -0.297241D+00 -0.578948D-01  0.643704D-02 -0.391731D-01
     30  0.440638D-03 -0.591901D-01 -0.942592D-01  0.329576D-02 -0.252184D-01
     31 -0.304857D+00  0.140060D-01  0.288184D-01 -0.600837D-01 -0.980033D-02
     32  0.104126D-01 -0.733458D-01 -0.450952D-02 -0.899862D-02  0.311909D-02
     33  0.328461D-01 -0.148658D-02 -0.844752D-01 -0.215356D-01 -0.425185D-02
     34  0.337699D-03 -0.422760D-03  0.211413D-03  0.133743D-03 -0.185759D-02
     35 -0.107084D-02 -0.104276D-02 -0.533635D-03  0.391886D-03 -0.318778D-02
     36  0.320176D-03 -0.156139D-03  0.124183D-02 -0.371624D-03  0.185499D-02
                6             7             8             9            10 
      6  0.547854D+00
      7  0.136389D-01  0.123928D+00
      8 -0.453682D-01 -0.406498D-01  0.758255D-01
      9 -0.861049D-02 -0.617783D-03  0.671928D-02  0.437686D-01
     10  0.134448D+00  0.184807D-01 -0.151715D-01 -0.787861D-02  0.922068D-01
     11  0.110034D+00 -0.857358D-02 -0.151230D-01  0.151927D-01  0.572364D-01
     12 -0.354668D+00 -0.710980D-02  0.409273D-01 -0.955859D-03 -0.118213D+00
     13  0.305718D-01 -0.813838D-01  0.730985D-01  0.121317D-02  0.129462D-01
     14  0.373304D-01 -0.286020D-01 -0.716330D-01  0.830596D-03  0.312492D-01
     15 -0.133795D-01  0.169437D-02 -0.122744D-02 -0.498600D-01  0.196654D-01
     16 -0.274931D-01 -0.198792D-02 -0.328902D-02 -0.155441D-01 -0.216202D-02
     17 -0.239131D-01  0.431484D-02  0.136688D-01  0.358702D-02 -0.187394D-03
     18 -0.282834D-01  0.685361D-02  0.274501D-03  0.533930D-02 -0.736869D-02
     19  0.104021D-01 -0.109054D-05 -0.229981D-02  0.121797D-01 -0.109466D-01
     20  0.129295D-01  0.332267D-02  0.166292D-01 -0.313214D-02 -0.108138D-01
     21 -0.270642D-02 -0.754743D-02 -0.792160D-03  0.684575D-02  0.652931D-02
     22 -0.177994D-02 -0.151161D-01 -0.386967D-01 -0.456912D-03  0.293807D-03
     23 -0.223827D-02 -0.135746D-01 -0.144519D-01 -0.314774D-03 -0.246997D-02
     24  0.146107D-02  0.897568D-03  0.246957D-02  0.778412D-02 -0.146365D-02
     25 -0.119331D-01  0.948173D-03 -0.208149D-02 -0.700751D-03 -0.633210D-03
     26  0.438297D-02 -0.214232D-02  0.359894D-02 -0.322729D-02  0.150615D-02
     27 -0.319784D-01  0.164222D-02 -0.870656D-02 -0.326621D-03 -0.763155D-02
     28  0.103804D-02 -0.856946D-03 -0.574231D-02 -0.170290D-02 -0.185528D-03
     29 -0.125125D-02 -0.644973D-02 -0.108571D-02 -0.237072D-02  0.135709D-02
     30  0.364832D-02 -0.324126D-02 -0.357482D-02 -0.115344D-02  0.883848D-03
     31  0.993128D-02  0.108323D-01 -0.784246D-02  0.508605D-03  0.767553D-02
     32  0.186229D-02 -0.124151D-02  0.532868D-03  0.428482D-03  0.880381D-03
     33  0.142391D-02  0.137716D-02 -0.208882D-02  0.111876D-02 -0.267376D-02
     34  0.352625D-03 -0.630825D-02 -0.109082D-02  0.303083D-03 -0.329449D-03
     35  0.100988D-02 -0.104041D-02  0.583442D-02 -0.113800D-02  0.759529D-03
     36 -0.224360D-03 -0.848328D-03 -0.497580D-02 -0.286589D-03 -0.171118D-03
               11            12            13            14            15 
     11  0.900116D-01
     12 -0.128943D+00  0.417826D+00
     13  0.290205D-02 -0.230764D-01  0.439357D+00
     14  0.283112D-02 -0.206818D-01 -0.135868D+00  0.495060D+00
     15  0.100525D-01 -0.154226D-01 -0.286118D-01 -0.249002D-01  0.134724D+01
     16  0.449767D-04  0.388692D-02 -0.134819D+00  0.651387D-01 -0.165303D+00
     17  0.800499D-03  0.130948D-03  0.431360D-01 -0.118438D+00  0.126618D+00
     18 -0.248068D-02  0.120579D-01 -0.150690D+00  0.159851D+00 -0.580007D+00
     19 -0.426261D-02  0.707805D-02 -0.156350D+00  0.731672D-01  0.208178D+00
     20 -0.383735D-02  0.524800D-02  0.508660D-01 -0.109306D+00 -0.120215D+00
     21  0.246484D-02 -0.239527D-02  0.191797D+00 -0.149127D+00 -0.608420D+00
     22 -0.829209D-03  0.176064D-02 -0.746120D-01  0.103351D-01 -0.140921D-01
     23 -0.117270D-02  0.202929D-02  0.254748D-02 -0.239788D+00 -0.137450D-01
     24 -0.854888D-03  0.142938D-02 -0.136840D-01  0.381056D-02 -0.879726D-01
     25 -0.570246D-03 -0.702744D-02 -0.145799D-02  0.125961D-02  0.384441D-02
     26  0.728833D-03 -0.175634D-02 -0.705072D-03 -0.328159D-02  0.472578D-02
     27 -0.234900D-02 -0.128803D-01  0.840840D-02  0.101747D-01 -0.667542D-02
     28  0.950343D-03 -0.349554D-02  0.171643D-02  0.571984D-03  0.840147D-03
     29  0.388188D-02 -0.788887D-02  0.616726D-02  0.242981D-02  0.740434D-03
     30 -0.345741D-04 -0.397032D-03  0.436684D-02  0.361269D-02 -0.240386D-02
     31  0.299377D-02 -0.176474D-02  0.467763D-02  0.238764D-01 -0.175016D-02
     32  0.989830D-03 -0.186149D-02  0.292775D-02  0.190314D-02 -0.584426D-03
     33 -0.426155D-03  0.574385D-02  0.410352D-02  0.734623D-02 -0.399067D-02
     34 -0.109090D-03 -0.172012D-03  0.805590D-02  0.421518D-02 -0.104059D-02
     35  0.684374D-03 -0.134892D-02  0.310105D-01 -0.304702D-01  0.285236D-01
     36 -0.241749D-03  0.299508D-03 -0.569230D-03  0.748263D-02  0.191590D-02
               16            17            18            19            20 
     16  0.128284D+00
     17 -0.465553D-01  0.142568D+00
     18  0.190672D+00 -0.153509D+00  0.597953D+00
     19  0.154288D-01 -0.482169D-03 -0.159612D-01  0.142436D+00
     20 -0.172531D-02  0.158617D-01  0.390037D-02 -0.530049D-01  0.142883D+00
     21  0.172096D-01 -0.169304D-02 -0.662771D-02 -0.235320D+00  0.154229D+00
     22  0.864859D-02  0.244589D-01 -0.134004D-01  0.140882D-01  0.223374D-01
     23  0.135625D-02 -0.262391D-01  0.792801D-02  0.330803D-02 -0.439803D-01
     24 -0.730594D-02  0.432642D-01 -0.538275D-02  0.130526D-01 -0.499137D-01
     25  0.399742D-03  0.115639D-03 -0.593785D-03 -0.115080D-02 -0.143878D-02
     26  0.574285D-03  0.950600D-03 -0.483713D-03 -0.605090D-03  0.170740D-03
     27 -0.262879D-02 -0.221667D-02 -0.459328D-03 -0.250975D-02 -0.174935D-02
     28  0.161013D-04  0.303205D-04 -0.856033D-04 -0.134798D-03 -0.305896D-03
     29 -0.185036D-02 -0.849195D-03 -0.192375D-02 -0.152718D-02 -0.396594D-03
     30 -0.146581D-02 -0.115735D-02 -0.721703D-03 -0.932875D-03 -0.513303D-03
     31 -0.462493D-02 -0.554629D-02 -0.494929D-02 -0.275196D-02 -0.355469D-02
     32 -0.107300D-02 -0.446655D-03 -0.862249D-03 -0.719177D-03 -0.107819D-03
     33 -0.206894D-02 -0.200105D-02 -0.962914D-03 -0.115770D-02 -0.787228D-03
     34  0.171545D-02 -0.628646D-02  0.320788D-02  0.639165D-03 -0.394963D-02
     35 -0.218328D-03 -0.506255D-02  0.131722D-02 -0.343055D-02  0.218223D-02
     36 -0.417734D-03  0.153200D-02  0.980501D-03 -0.644585D-03 -0.363428D-02
               21            22            23            24            25 
     21  0.625037D+00
     22  0.149127D-01  0.353191D+00
     23 -0.190726D-01 -0.131774D+00  0.416772D+00
     24 -0.141932D-02  0.230533D+00 -0.821855D-01  0.253984D+00
     25 -0.270010D-02  0.274704D-03 -0.834356D-03 -0.284960D-03  0.923638D-01
     26 -0.319016D-02 -0.974833D-05 -0.862477D-04 -0.458483D-03  0.312556D-01
     27  0.525758D-02 -0.495813D-03 -0.100102D-02  0.922510D-03 -0.615814D-01
     28 -0.743458D-04 -0.191896D-03 -0.528026D-03 -0.138124D-04  0.129022D-01
     29  0.453652D-03 -0.694530D-03 -0.990706D-03  0.693373D-04  0.176886D-02
     30  0.197307D-02 -0.429789D-03 -0.734836D-03  0.392249D-03 -0.205685D-02
     31  0.307910D-02  0.855763D-03 -0.254709D-02  0.231927D-03 -0.296243D-01
     32  0.617070D-03 -0.280229D-03 -0.342056D-03  0.786564D-04 -0.229123D-01
     33  0.297513D-02 -0.140224D-03 -0.601309D-03  0.489442D-03  0.598610D-01
     34  0.505750D-03 -0.284554D+00  0.141225D+00 -0.223712D+00 -0.132886D-03
     35 -0.262334D-02  0.104776D+00 -0.901586D-01  0.832455D-01  0.196984D-03
     36 -0.540768D-02 -0.217508D+00  0.106870D+00 -0.169336D+00 -0.401571D-04
               26            27            28            29            30 
     26  0.173811D+00
     27 -0.165782D+00  0.359922D+00
     28  0.251623D-03 -0.645671D-03  0.877512D-01
     29 -0.631143D-01  0.352314D-01 -0.665701D-01  0.419379D+00
     30  0.521434D-01  0.459173D-02 -0.154297D-01  0.482682D-01  0.807273D-01
     31 -0.153730D-01  0.417508D-01 -0.300607D-01  0.431605D-01  0.145921D-01
     32  0.880745D-02  0.140350D-01  0.607654D-01 -0.233453D-01 -0.138199D-01
     33  0.129207D-01 -0.286593D-01  0.197845D-01 -0.133492D-01  0.786239D-02
     34  0.126304D-03 -0.590037D-04 -0.523632D-04  0.113645D-03 -0.228364D-04
     35  0.256145D-03  0.134278D-03  0.200776D-03  0.505371D-03  0.219127D-03
     36  0.267555D-03 -0.617704D-03 -0.123026D-03 -0.845090D-04 -0.259828D-03
               31            32            33            34            35 
     31  0.408390D+00
     32 -0.398362D-01  0.820719D-01
     33 -0.903574D-01  0.465274D-02  0.987018D-01
     34 -0.428802D-03  0.748640D-04 -0.385352D-04  0.280924D+00
     35  0.463534D-03  0.163407D-03  0.724360D-04 -0.132039D+00  0.120296D+00
     36 -0.905335D-04 -0.365889D-04 -0.227278D-03  0.220464D+00 -0.108878D+00
               36 
     36  0.171922D+00
 FormGI is forming the generalized inverse of G from B-inverse, IUseBI=4.
 Leave Link  716 at Sat May 24 05:38:03 2025, MaxMem=  3758096384 cpu:               0.1 elap:               0.0
 (Enter /apps/easybuild-2022/easybuild/software/Compiler/NVHPC/22.11-CUDA-11.7.0/Gaussian/g16c01-CUDA-11.7.0/g16/l103.exe)

 GradGradGradGradGradGradGradGradGradGradGradGradGradGradGradGradGradGrad
 Berny optimization.
 Red2BG is reusing G-inverse.
 Internal  Forces:  Max     0.027699560 RMS     0.006563942
 Search for a saddle point.
 Step number   1 out of a maximum of  100
 All quantities printed in internal units (Hartrees-Bohrs-Radians)
 Swapping is turned off.
 Second derivative matrix not updated -- analytic derivatives used.
 ITU=  0
     Eigenvalues ---   -0.07337  -0.00163   0.00390   0.01016   0.02981
     Eigenvalues ---    0.04183   0.05271   0.08046   0.09470   0.11439
     Eigenvalues ---    0.12022   0.14239   0.14520   0.18654   0.20290
     Eigenvalues ---    0.21735   0.23629   0.25510   0.28963   0.30303
     Eigenvalues ---    0.36123   0.38644   0.40777   0.42553   0.44432
     Eigenvalues ---    0.52756   0.57467   0.61338   0.71584   0.77181
 Eigenvectors required to have negative eigenvalues:
                          R6        R7        A13       A10       A12
   1                   -0.62110   0.47243  -0.32748  -0.23283   0.18015
                          A11       D7        D9        D12       D10
   1                    0.16172   0.12759   0.12633  -0.11802   0.11451
 Eigenvalue     2 is  -1.63D-03 should be greater than     0.000000 Eigenvector:
                          D18       D15       D17       D16       D13
   1                    0.50888   0.50421   0.49231   0.48776  -0.02893
                          A20       D9        D14       A15       A17
   1                    0.02846  -0.02634  -0.02520   0.02474  -0.02428
 RFO step:  Lambda0=2.792447178D-04 Lambda=-8.54014642D-03.
 Linear search not attempted -- option 19 set.
 Iteration  1 RMS(Cart)=  0.04383473 RMS(Int)=  0.08688137
 Iteration  2 RMS(Cart)=  0.04065622 RMS(Int)=  0.02994043
 Iteration  3 RMS(Cart)=  0.02214040 RMS(Int)=  0.00146599
 Iteration  4 RMS(Cart)=  0.00115713 RMS(Int)=  0.00078840
 Iteration  5 RMS(Cart)=  0.00000230 RMS(Int)=  0.00078840
 Iteration  6 RMS(Cart)=  0.00000000 RMS(Int)=  0.00078840
 ITry= 1 IFail=0 DXMaxC= 3.06D-01 DCOld= 1.00D+10 DXMaxT= 3.00D-01 DXLimC= 3.00D+00 Rises=F
 Variable       Old X    -DE/DX   Delta X   Delta X   Delta X     New X
                                 (Linear)    (Quad)   (Total)
    R1        2.90826   0.00045   0.00000   0.00154   0.00154   2.90980
    R2        2.49111   0.00144   0.00000   0.00242   0.00242   2.49353
    R3        2.51655  -0.00039   0.00000  -0.00124  -0.00124   2.51531
    R4        2.50989   0.00116   0.00000  -0.00103  -0.00103   2.50887
    R5        2.43353  -0.00038   0.00000  -0.00426  -0.00426   2.42927
    R6        4.07151   0.00970   0.00000  -0.00156  -0.00156   4.06995
    R7        3.32418  -0.00129   0.00000   0.00837   0.00837   3.33254
    R8        2.68334  -0.01155   0.00000  -0.01813  -0.01813   2.66521
    R9        2.66519   0.01061   0.00000   0.01293   0.01293   2.67812
   R10        2.99022   0.00223   0.00000  -0.00546  -0.00546   2.98476
   R11        1.82663   0.00048   0.00000   0.00020   0.00020   1.82682
    A1        1.94025  -0.00001   0.00000   0.00028   0.00028   1.94054
    A2        1.85538   0.00005   0.00000   0.00101   0.00101   1.85639
    A3        1.96199   0.00157   0.00000  -0.00041  -0.00041   1.96158
    A4        1.90743  -0.00029   0.00000  -0.00075  -0.00075   1.90668
    A5        1.90150  -0.00101   0.00000  -0.00138  -0.00138   1.90012
    A6        1.89587  -0.00033   0.00000   0.00131   0.00131   1.89718
    A7        1.89190  -0.00137   0.00000  -0.00078  -0.00078   1.89112
    A8        2.23072   0.00037   0.00000   0.00116   0.00116   2.23188
    A9        2.06457   0.00079   0.00000  -0.00057  -0.00057   2.06400
   A10        0.93815   0.01950   0.00000   0.00878   0.00981   0.94796
   A11        1.54323   0.01161   0.00000   0.05260   0.05092   1.59415
   A12        1.60378  -0.00365   0.00000   0.01483   0.01658   1.62035
   A13        2.54856  -0.00820   0.00000  -0.07987  -0.08056   2.46800
   A14        1.88914   0.01051   0.00000   0.06502   0.06354   1.95268
   A15        1.94396   0.00368   0.00000  -0.01580  -0.01558   1.92838
   A16        1.61041  -0.02770   0.00000  -0.08877  -0.08797   1.52244
   A17        2.27882   0.00109   0.00000  -0.00408  -0.00502   2.27380
   A18        1.82599  -0.01005   0.00000  -0.05078  -0.05198   1.77402
   A19        1.78281   0.00841   0.00000   0.05160   0.05345   1.83626
   A20        1.90888   0.00639   0.00000   0.00817   0.00817   1.91705
    D1        2.88347  -0.00022   0.00000  -0.00307  -0.00307   2.88040
    D2        0.21461   0.00012   0.00000  -0.00235  -0.00235   0.21226
    D3       -1.32561  -0.00054   0.00000  -0.00320  -0.00320  -1.32881
    D4        2.28872  -0.00020   0.00000  -0.00249  -0.00249   2.28623
    D5        0.74654  -0.00002   0.00000  -0.00120  -0.00120   0.74534
    D6       -1.92232   0.00032   0.00000  -0.00048  -0.00048  -1.92280
    D7        1.16431  -0.00008   0.00000  -0.01279  -0.01271   1.15160
    D8       -3.12729  -0.00297   0.00000   0.02509   0.02452  -3.10277
    D9       -0.84888  -0.00162   0.00000   0.02193   0.02270  -0.82618
   D10        1.16162   0.00260   0.00000   0.08761   0.08734   1.24896
   D11       -1.46443   0.00080   0.00000  -0.01202  -0.01195  -1.47638
   D12        0.52715  -0.00210   0.00000   0.02585   0.02528   0.55243
   D13        2.80556  -0.00075   0.00000   0.02270   0.02346   2.82902
   D14       -1.46713   0.00347   0.00000   0.08837   0.08810  -1.37902
   D15       -0.65203  -0.00260   0.00000  -0.54361  -0.54212  -1.19415
   D16       -0.65420  -0.00047   0.00000  -0.46259  -0.46081  -1.11502
   D17       -2.56561  -0.00202   0.00000  -0.49770  -0.50025  -3.06586
   D18        1.30827  -0.00247   0.00000  -0.49421  -0.49493   0.81334
         Item               Value     Threshold  Converged?
 Maximum Force            0.027700     0.000450     NO 
 RMS     Force            0.006564     0.000300     NO 
 Maximum Displacement     0.306343     0.001800     NO 
 RMS     Displacement     0.078460     0.001200     NO 
 Predicted change in Energy=-7.618094D-03
 Lowest energy point so far.  Saving SCF results.
 GradGradGradGradGradGradGradGradGradGradGradGradGradGradGradGradGradGrad

 Leave Link  103 at Sat May 24 05:38:03 2025, MaxMem=  3758096384 cpu:               0.1 elap:               0.0
 (Enter /apps/easybuild-2022/easybuild/software/Compiler/NVHPC/22.11-CUDA-11.7.0/Gaussian/g16c01-CUDA-11.7.0/g16/l202.exe)
                          Input orientation:                          
 ---------------------------------------------------------------------
 Center     Atomic      Atomic             Coordinates (Angstroms)
 Number     Number       Type             X           Y           Z
 ---------------------------------------------------------------------
      1          6           0       -0.467214   -2.218355   -1.117871
      2          6           0        0.480752   -1.748844    0.001015
      3          9           0       -0.015353    0.003629    0.003205
      4          9           0        0.027880   -2.181907    1.123471
      5         16           0        1.748069   -0.007524    0.016361
      6          8           0        2.262055   -0.352040    1.283748
      7          8           0        2.252111   -0.276100   -1.280659
      8          8           0        1.680926    1.567308    0.116942
      9          9           0       -0.247905   -1.556010   -2.237839
     10          9           0       -0.206574   -3.508933   -1.313194
     11          9           0       -1.745869   -2.087916   -0.785243
     12          1           0        1.273507    1.929959   -0.681200
 ---------------------------------------------------------------------
                    Distance matrix (angstroms):
                    1          2          3          4          5
     1  C    0.000000
     2  C    1.539801   0.000000
     3  F    2.529467   1.821342   0.000000
     4  F    2.295661   1.285513   2.456305   0.000000
     5  S    3.328924   2.153723   1.763506   2.985412   0.000000
     6  O    4.086540   2.601827   2.636831   2.892342   1.410369
     7  O    3.345682   2.636168   2.620677   3.789347   1.417199
     8  O    4.524435   3.528558   2.309847   4.219275   1.579469
     9  F    1.319518   2.362329   2.740225   3.430191   3.385726
    10  F    1.331043   2.301625   3.756004   2.784476   4.224714
    11  F    1.327635   2.385585   2.826818   2.607338   4.144660
    12  H    4.519878   3.824588   2.416675   4.660029   2.113207
                    6          7          8          9         10
     6  O    0.000000
     7  O    2.565550   0.000000
     8  O    2.320139   2.382791   0.000000
     9  F    4.488988   2.967229   4.361250   0.000000
    10  F    4.775376   4.061700   5.601444   2.161153   0.000000
    11  F    4.832954   4.417235   5.090926   2.153337   2.160428
    12  H    3.169506   2.486708   0.966714   4.109720   5.672002
                   11         12
    11  F    0.000000
    12  H    5.027005   0.000000
 Symmetry turned off by external request.
 Stoichiometry    C2HF5O3S
 Rotational constants (GHZ):           1.8636835           0.6970540           0.6434294
 Leave Link  202 at Sat May 24 05:38:03 2025, MaxMem=  3758096384 cpu:               0.1 elap:               0.0
 (Enter /apps/easybuild-2022/easybuild/software/Compiler/NVHPC/22.11-CUDA-11.7.0/Gaussian/g16c01-CUDA-11.7.0/g16/l301.exe)
 Standard basis: def2TZVPP (5D, 7F)
 Ernie: Thresh=  0.10000D-02 Tol=  0.10000D-05 Strict=F.
   366 basis functions,   596 primitive gaussians,   423 cartesian basis functions
    49 alpha electrons       49 beta electrons
       nuclear repulsion energy       906.8509380426 Hartrees.
 IExCor= 4336 DFT=T Ex+Corr=M062X ExCW=0 ScaHFX=  0.540000
 ScaDFX=  1.000000  1.000000  1.000000  1.000000 ScalE2=  1.000000  1.000000
 IRadAn=      5 IRanWt=     -1 IRanGd=            0 ICorTp=0 IEmpDi=  4
 NAtoms=   12 NActive=   12 NUniq=   12 SFac= 1.00D+00 NAtFMM=   60 NAOKFM=F Big=F
 Integral buffers will be    131072 words long.
 Raffenetti 2 integral format.
 Two-electron integral symmetry is turned off.
 Leave Link  301 at Sat May 24 05:38:03 2025, MaxMem=  3758096384 cpu:               0.1 elap:               0.0
 (Enter /apps/easybuild-2022/easybuild/software/Compiler/NVHPC/22.11-CUDA-11.7.0/Gaussian/g16c01-CUDA-11.7.0/g16/l302.exe)
 NPDir=0 NMtPBC=     1 NCelOv=     1 NCel=       1 NClECP=     1 NCelD=      1
         NCelK=      1 NCelE2=     1 NClLst=     1 CellRange=     0.0.
 One-electron integrals computed using PRISM.
   1 Symmetry operations used in ECPInt.
 ECPInt:  NShTT=    8515 NPrTT=   27988 LenC2=    7890 LenP2D=   19091.
 LDataN:  DoStor=T MaxTD1= 6 Len=  172
 NBasis=   366 RedAO= T EigKep=  6.00D-04  NBF=   366
 NBsUse=   366 1.00D-06 EigRej= -1.00D+00 NBFU=   366
 Precomputing XC quadrature grid using
 IXCGrd= 4 IRadAn=           5 IRanWt=          -1 IRanGd=           0 AccXCQ= 0.00D+00.
 Generated NRdTot=       0 NPtTot=           0 NUsed=           0 NTot=          32
 NSgBfM=   420   419   419   420   420 MxSgAt=    12 MxSgA2=    12.
 Leave Link  302 at Sat May 24 05:38:03 2025, MaxMem=  3758096384 cpu:               0.9 elap:               0.2
 (Enter /apps/easybuild-2022/easybuild/software/Compiler/NVHPC/22.11-CUDA-11.7.0/Gaussian/g16c01-CUDA-11.7.0/g16/l303.exe)
 DipDrv:  MaxL=1.
 Leave Link  303 at Sat May 24 05:38:04 2025, MaxMem=  3758096384 cpu:               0.1 elap:               0.0
 (Enter /apps/easybuild-2022/easybuild/software/Compiler/NVHPC/22.11-CUDA-11.7.0/Gaussian/g16c01-CUDA-11.7.0/g16/l401.exe)
 Initial guess from the checkpoint file:  "/tmp/Gau-242209.chk"
 B after Tr=    -0.042424   -0.026831    0.057070
         Rot=    0.999943   -0.007476   -0.004025   -0.006451 Ang=  -1.22 deg.
 Guess basis will be translated and rotated to current coordinates.
 JPrj=2 DoOrth=T DoCkMO=T.
 Generating alternative initial guess.
 ExpMin= 9.52D-02 ExpMax= 6.07D+04 ExpMxC= 2.07D+03 IAcc=3 IRadAn=         5 AccDes= 0.00D+00
 Harris functional with IExCor= 1009 and IRadAn=       5 diagonalized for initial guess.
 HarFok:  IExCor= 1009 AccDes= 0.00D+00 IRadAn=         5 IDoV= 1 UseB2=F ITyADJ=14
 ICtDFT=  3500011 ScaDFX=  1.000000  1.000000  1.000000  1.000000
 FoFCou: FMM=F IPFlag=           0 FMFlag=      100000 FMFlg1=           0
         NFxFlg=           0 DoJE=T BraDBF=F KetDBF=T FulRan=T
         wScrn=  0.000000 ICntrl=       500 IOpCl=  0 I1Cent=   200000004 NGrid=           0
         NMat0=    1 NMatS0=      1 NMatT0=    0 NMatD0=    1 NMtDS0=    0 NMtDT0=    0
 Symmetry not used in FoFCou.
 Harris En= -1199.22287921581    
 Leave Link  401 at Sat May 24 05:38:04 2025, MaxMem=  3758096384 cpu:               4.4 elap:               0.7
 (Enter /apps/easybuild-2022/easybuild/software/Compiler/NVHPC/22.11-CUDA-11.7.0/Gaussian/g16c01-CUDA-11.7.0/g16/l502.exe)
 Keep R1 ints in memory in canonical form, NReq=2293447020.
 FoFCou: FMM=F IPFlag=           0 FMFlag=           0 FMFlg1=           0
         NFxFlg=           0 DoJE=F BraDBF=F KetDBF=F FulRan=T
         wScrn=  0.000000 ICntrl=       600 IOpCl=  0 I1Cent=           0 NGrid=           0
         NMat0=    1 NMatS0=  67161 NMatT0=    0 NMatD0=    1 NMtDS0=    0 NMtDT0=    0
 Symmetry not used in FoFCou.
 Two-electron integral symmetry not used.
 Closed shell SCF:
 Using DIIS extrapolation, IDIIS=  1040.
 NGot=  3758096384 LenX=  1502398648 LenY=  1502219278
 Requested convergence on RMS density matrix=1.00D-08 within  32 cycles.
 Requested convergence on MAX density matrix=1.00D-06.
 Requested convergence on             energy=1.00D-06.
 No special actions if energy rises.
 Integral accuracy reduced to 1.0D-05 until final iterations.

 Cycle   1  Pass 0  IDiag  1:
 E= -1199.76150538103    
 DIIS: error= 7.94D-03 at cycle   1 NSaved=   1.
 NSaved= 1 IEnMin= 1 EnMin= -1199.76150538103     IErMin= 1 ErrMin= 7.94D-03
 ErrMax= 7.94D-03  0.00D+00 EMaxC= 1.00D-01 BMatC= 2.73D-02 BMatP= 2.73D-02
 IDIUse=3 WtCom= 9.21D-01 WtEn= 7.94D-02
 Coeff-Com:  0.100D+01
 Coeff-En:   0.100D+01
 Coeff:      0.100D+01
 Gap=     1.065 Goal=   None    Shift=    0.000
 GapD=    1.065 DampG=2.000 DampE=1.000 DampFc=2.0000 IDamp=-1.
 RMSDP=4.68D-04 MaxDP=3.28D-02              OVMax= 5.67D-02

 Cycle   2  Pass 0  IDiag  1:
 E= -1199.78954176550     Delta-E=       -0.028036384470 Rises=F Damp=F
 DIIS: error= 1.40D-03 at cycle   2 NSaved=   2.
 NSaved= 2 IEnMin= 2 EnMin= -1199.78954176550     IErMin= 2 ErrMin= 1.40D-03
 ErrMax= 1.40D-03  0.00D+00 EMaxC= 1.00D-01 BMatC= 1.20D-03 BMatP= 2.73D-02
 IDIUse=3 WtCom= 9.86D-01 WtEn= 1.40D-02
 Coeff-Com: -0.586D-01 0.106D+01
 Coeff-En:   0.000D+00 0.100D+01
 Coeff:     -0.578D-01 0.106D+01
 Gap=     0.290 Goal=   None    Shift=    0.000
 RMSDP=1.07D-04 MaxDP=7.83D-03 DE=-2.80D-02 OVMax= 1.49D-02

 Cycle   3  Pass 0  IDiag  1:
 E= -1199.79044051763     Delta-E=       -0.000898752132 Rises=F Damp=F
 DIIS: error= 9.76D-04 at cycle   3 NSaved=   3.
 NSaved= 3 IEnMin= 3 EnMin= -1199.79044051763     IErMin= 3 ErrMin= 9.76D-04
 ErrMax= 9.76D-04  0.00D+00 EMaxC= 1.00D-01 BMatC= 8.77D-04 BMatP= 1.20D-03
 IDIUse=3 WtCom= 9.90D-01 WtEn= 9.76D-03
 Coeff-Com: -0.636D-01 0.508D+00 0.555D+00
 Coeff-En:   0.000D+00 0.000D+00 0.100D+01
 Coeff:     -0.630D-01 0.503D+00 0.560D+00
 Gap=     0.291 Goal=   None    Shift=    0.000
 RMSDP=5.07D-05 MaxDP=3.44D-03 DE=-8.99D-04 OVMax= 6.31D-03

 Cycle   4  Pass 0  IDiag  1:
 E= -1199.79098695537     Delta-E=       -0.000546437730 Rises=F Damp=F
 DIIS: error= 2.57D-04 at cycle   4 NSaved=   4.
 NSaved= 4 IEnMin= 4 EnMin= -1199.79098695537     IErMin= 4 ErrMin= 2.57D-04
 ErrMax= 2.57D-04  0.00D+00 EMaxC= 1.00D-01 BMatC= 7.21D-05 BMatP= 8.77D-04
 IDIUse=3 WtCom= 9.97D-01 WtEn= 2.57D-03
 Coeff-Com: -0.118D-01 0.218D-01 0.223D+00 0.767D+00
 Coeff-En:   0.000D+00 0.000D+00 0.000D+00 0.100D+01
 Coeff:     -0.118D-01 0.217D-01 0.222D+00 0.768D+00
 Gap=     0.290 Goal=   None    Shift=    0.000
 RMSDP=1.91D-05 MaxDP=9.09D-04 DE=-5.46D-04 OVMax= 2.00D-03

 Cycle   5  Pass 0  IDiag  1:
 E= -1199.79104081075     Delta-E=       -0.000053855388 Rises=F Damp=F
 DIIS: error= 1.01D-04 at cycle   5 NSaved=   5.
 NSaved= 5 IEnMin= 5 EnMin= -1199.79104081075     IErMin= 5 ErrMin= 1.01D-04
 ErrMax= 1.01D-04  0.00D+00 EMaxC= 1.00D-01 BMatC= 9.05D-06 BMatP= 7.21D-05
 IDIUse=3 WtCom= 9.99D-01 WtEn= 1.01D-03
 Coeff-Com:  0.187D-03-0.380D-01 0.551D-01 0.367D+00 0.616D+00
 Coeff-En:   0.000D+00 0.000D+00 0.000D+00 0.000D+00 0.100D+01
 Coeff:      0.187D-03-0.380D-01 0.551D-01 0.367D+00 0.616D+00
 Gap=     0.290 Goal=   None    Shift=    0.000
 RMSDP=6.05D-06 MaxDP=4.85D-04 DE=-5.39D-05 OVMax= 7.01D-04

 Initial convergence to 1.0D-05 achieved.  Increase integral accuracy.
 Cycle   6  Pass 1  IDiag  1:
 E= -1199.79111138191     Delta-E=       -0.000070571155 Rises=F Damp=F
 DIIS: error= 3.77D-05 at cycle   1 NSaved=   1.
 NSaved= 1 IEnMin= 1 EnMin= -1199.79111138191     IErMin= 1 ErrMin= 3.77D-05
 ErrMax= 3.77D-05  0.00D+00 EMaxC= 1.00D-01 BMatC= 1.69D-06 BMatP= 1.69D-06
 IDIUse=1 WtCom= 1.00D+00 WtEn= 0.00D+00
 Coeff-Com:  0.100D+01
 Coeff:      0.100D+01
 Gap=     0.290 Goal=   None    Shift=    0.000
 RMSDP=6.05D-06 MaxDP=4.85D-04 DE=-7.06D-05 OVMax= 3.86D-04

 Cycle   7  Pass 1  IDiag  1:
 E= -1199.79111167636     Delta-E=       -0.000000294447 Rises=F Damp=F
 DIIS: error= 4.25D-05 at cycle   2 NSaved=   2.
 NSaved= 2 IEnMin= 2 EnMin= -1199.79111167636     IErMin= 1 ErrMin= 3.77D-05
 ErrMax= 4.25D-05  0.00D+00 EMaxC= 1.00D-01 BMatC= 1.78D-06 BMatP= 1.69D-06
 IDIUse=1 WtCom= 1.00D+00 WtEn= 0.00D+00
 Coeff-Com:  0.507D+00 0.493D+00
 Coeff:      0.507D+00 0.493D+00
 Gap=     0.290 Goal=   None    Shift=    0.000
 RMSDP=2.30D-06 MaxDP=2.50D-04 DE=-2.94D-07 OVMax= 2.43D-04

 Cycle   8  Pass 1  IDiag  1:
 E= -1199.79111276041     Delta-E=       -0.000001084053 Rises=F Damp=F
 DIIS: error= 8.50D-06 at cycle   3 NSaved=   3.
 NSaved= 3 IEnMin= 3 EnMin= -1199.79111276041     IErMin= 3 ErrMin= 8.50D-06
 ErrMax= 8.50D-06  0.00D+00 EMaxC= 1.00D-01 BMatC= 9.08D-08 BMatP= 1.69D-06
 IDIUse=1 WtCom= 1.00D+00 WtEn= 0.00D+00
 Coeff-Com: -0.805D-02 0.166D+00 0.842D+00
 Coeff:     -0.805D-02 0.166D+00 0.842D+00
 Gap=     0.290 Goal=   None    Shift=    0.000
 RMSDP=8.53D-07 MaxDP=3.77D-05 DE=-1.08D-06 OVMax= 7.46D-05

 Cycle   9  Pass 1  IDiag  1:
 E= -1199.79111282011     Delta-E=       -0.000000059700 Rises=F Damp=F
 DIIS: error= 3.79D-06 at cycle   4 NSaved=   4.
 NSaved= 4 IEnMin= 4 EnMin= -1199.79111282011     IErMin= 4 ErrMin= 3.79D-06
 ErrMax= 3.79D-06  0.00D+00 EMaxC= 1.00D-01 BMatC= 1.93D-08 BMatP= 9.08D-08
 IDIUse=1 WtCom= 1.00D+00 WtEn= 0.00D+00
 Coeff-Com: -0.338D-01 0.606D-01 0.459D+00 0.514D+00
 Coeff:     -0.338D-01 0.606D-01 0.459D+00 0.514D+00
 Gap=     0.290 Goal=   None    Shift=    0.000
 RMSDP=2.31D-07 MaxDP=1.22D-05 DE=-5.97D-08 OVMax= 2.14D-05

 Cycle  10  Pass 1  IDiag  1:
 E= -1199.79111283328     Delta-E=       -0.000000013169 Rises=F Damp=F
 DIIS: error= 1.08D-06 at cycle   5 NSaved=   5.
 NSaved= 5 IEnMin= 5 EnMin= -1199.79111283328     IErMin= 5 ErrMin= 1.08D-06
 ErrMax= 1.08D-06  0.00D+00 EMaxC= 1.00D-01 BMatC= 6.24D-10 BMatP= 1.93D-08
 IDIUse=1 WtCom= 1.00D+00 WtEn= 0.00D+00
 Coeff-Com: -0.923D-02-0.939D-02 0.851D-03 0.114D+00 0.904D+00
 Coeff:     -0.923D-02-0.939D-02 0.851D-03 0.114D+00 0.904D+00
 Gap=     0.290 Goal=   None    Shift=    0.000
 RMSDP=8.79D-08 MaxDP=5.49D-06 DE=-1.32D-08 OVMax= 1.12D-05

 Cycle  11  Pass 1  IDiag  1:
 E= -1199.79111283401     Delta-E=       -0.000000000733 Rises=F Damp=F
 DIIS: error= 2.15D-07 at cycle   6 NSaved=   6.
 NSaved= 6 IEnMin= 6 EnMin= -1199.79111283401     IErMin= 6 ErrMin= 2.15D-07
 ErrMax= 2.15D-07  0.00D+00 EMaxC= 1.00D-01 BMatC= 5.85D-11 BMatP= 6.24D-10
 IDIUse=1 WtCom= 1.00D+00 WtEn= 0.00D+00
 Coeff-Com:  0.138D-02-0.859D-02-0.490D-01-0.267D-01 0.207D+00 0.875D+00
 Coeff:      0.138D-02-0.859D-02-0.490D-01-0.267D-01 0.207D+00 0.875D+00
 Gap=     0.290 Goal=   None    Shift=    0.000
 RMSDP=3.02D-08 MaxDP=1.77D-06 DE=-7.33D-10 OVMax= 3.76D-06

 Cycle  12  Pass 1  IDiag  1:
 E= -1199.79111283413     Delta-E=       -0.000000000117 Rises=F Damp=F
 DIIS: error= 1.05D-07 at cycle   7 NSaved=   7.
 NSaved= 7 IEnMin= 7 EnMin= -1199.79111283413     IErMin= 7 ErrMin= 1.05D-07
 ErrMax= 1.05D-07  0.00D+00 EMaxC= 1.00D-01 BMatC= 1.25D-11 BMatP= 5.85D-11
 IDIUse=1 WtCom= 1.00D+00 WtEn= 0.00D+00
 Coeff-Com:  0.122D-02-0.288D-02-0.203D-01-0.180D-01 0.284D-01 0.386D+00
 Coeff-Com:  0.625D+00
 Coeff:      0.122D-02-0.288D-02-0.203D-01-0.180D-01 0.284D-01 0.386D+00
 Coeff:      0.625D+00
 Gap=     0.290 Goal=   None    Shift=    0.000
 RMSDP=7.00D-09 MaxDP=3.09D-07 DE=-1.17D-10 OVMax= 7.34D-07

 SCF Done:  E(RM062X) =  -1199.79111283     A.U. after   12 cycles
            NFock= 12  Conv=0.70D-08     -V/T= 2.0029
 KE= 1.196374174955D+03 PE=-4.659818887708D+03 EE= 1.356802661876D+03
 Leave Link  502 at Sat May 24 05:38:40 2025, MaxMem=  3758096384 cpu:             139.4 elap:              35.9
 (Enter /apps/easybuild-2022/easybuild/software/Compiler/NVHPC/22.11-CUDA-11.7.0/Gaussian/g16c01-CUDA-11.7.0/g16/l508.exe)
 QCSCF skips out because SCF is already converged.
 Leave Link  508 at Sat May 24 05:38:40 2025, MaxMem=  3758096384 cpu:               0.0 elap:               0.0
 (Enter /apps/easybuild-2022/easybuild/software/Compiler/NVHPC/22.11-CUDA-11.7.0/Gaussian/g16c01-CUDA-11.7.0/g16/l801.exe)
 DoSCS=F DFT=T ScalE2(SS,OS)=  1.000000  1.000000
 Range of M.O.s used for correlation:     1   366
 NBasis=   366 NAE=    49 NBE=    49 NFC=     0 NFV=     0
 NROrb=    366 NOA=    49 NOB=    49 NVA=   317 NVB=   317

 **** Warning!!: The largest alpha MO coefficient is  0.15335947D+02

 Leave Link  801 at Sat May 24 05:38:40 2025, MaxMem=  3758096384 cpu:               0.0 elap:               0.0
 (Enter /apps/easybuild-2022/easybuild/software/Compiler/NVHPC/22.11-CUDA-11.7.0/Gaussian/g16c01-CUDA-11.7.0/g16/l1101.exe)
 Using compressed storage, NAtomX=    12.
 Will process     13 centers per pass.
   1 Symmetry operations used in ECPInt.
 ECPInt:  NShTT=    8515 NPrTT=   27988 LenC2=    7890 LenP2D=   19091.
 LDataN:  DoStor=T MaxTD1= 7 Len=  274
 Leave Link 1101 at Sat May 24 05:38:40 2025, MaxMem=  3758096384 cpu:               1.2 elap:               0.2
 (Enter /apps/easybuild-2022/easybuild/software/Compiler/NVHPC/22.11-CUDA-11.7.0/Gaussian/g16c01-CUDA-11.7.0/g16/l1102.exe)
 Symmetrizing basis deriv contribution to polar:
 IMax=3 JMax=2 DiffMx= 0.00D+00
 Leave Link 1102 at Sat May 24 05:38:40 2025, MaxMem=  3758096384 cpu:               0.1 elap:               0.0
 (Enter /apps/easybuild-2022/easybuild/software/Compiler/NVHPC/22.11-CUDA-11.7.0/Gaussian/g16c01-CUDA-11.7.0/g16/l1110.exe)
 Forming Gx(P) for the SCF density, NAtomX=    12.
 Integral derivatives from FoFJK, PRISM(SPDF).
 Do as many integral derivatives as possible in FoFJK.
 G2DrvN: MDV=    3758094988.
 G2DrvN: will do    13 centers at a time, making    1 passes.
 Calling FoFCou, ICntrl=  3107 FMM=F I1Cent=   0 AccDes= 0.00D+00.
 FoFJK:  IHMeth= 1 ICntrl=    3107 DoSepK=F KAlg= 0 I1Cent=           0 FoldK=F
 IRaf=         0 NMat=       1 IRICut=       1 DoRegI=T DoRafI=F ISym2E= 0 IDoP0=0 IntGTp=1.
 FoFCou: FMM=F IPFlag=           0 FMFlag=      100000 FMFlg1=           0
         NFxFlg=           0 DoJE=F BraDBF=F KetDBF=F FulRan=T
         wScrn=  0.000000 ICntrl=      3107 IOpCl=  0 I1Cent=           0 NGrid=           0
         NMat0=    1 NMatS0=      1 NMatT0=    0 NMatD0=    1 NMtDS0=    0 NMtDT0=    0
 Symmetry not used in FoFCou.
 End of G2Drv F.D. properties file   721 does not exist.
 End of G2Drv F.D. properties file   722 does not exist.
 End of G2Drv F.D. properties file   788 does not exist.
 Leave Link 1110 at Sat May 24 05:39:31 2025, MaxMem=  3758096384 cpu:             398.4 elap:              50.4
 (Enter /apps/easybuild-2022/easybuild/software/Compiler/NVHPC/22.11-CUDA-11.7.0/Gaussian/g16c01-CUDA-11.7.0/g16/l1002.exe)
 Minotr:  Closed shell wavefunction.
          IDoAtm=111111111111
          Direct CPHF calculation.
          Differentiating once with respect to electric field.
                with respect to dipole field.
          Differentiating once with respect to nuclear coordinates.
          Requested convergence is 1.0D-08 RMS, and 1.0D-07 maximum.
          Secondary convergence is 1.0D-12 RMS, and 1.0D-12 maximum.
          NewPWx=T KeepS1=F KeepF1=F KeepIn=T MapXYZ=F SortEE=F KeepMc=T.
         3612 words used for storage of precomputed grid.
 Keep R1 ints in memory in canonical form, NReq=2293452942.
 FoFCou: FMM=F IPFlag=           0 FMFlag=           0 FMFlg1=           0
         NFxFlg=           0 DoJE=F BraDBF=F KetDBF=F FulRan=T
         wScrn=  0.000000 ICntrl=       600 IOpCl=  0 I1Cent=           0 NGrid=           0
         NMat0=    1 NMatS0=  67161 NMatT0=    0 NMatD0=    1 NMtDS0=    0 NMtDT0=    0
 Symmetry not used in FoFCou.
 Two-electron integral symmetry not used.
          MDV=    3758096384 using IRadAn=       1.
          Solving linear equations simultaneously, MaxMat=       0.
          There are    39 degrees of freedom in the 1st order CPHF.  IDoFFX=6 NUNeed=     3.
     36 vectors produced by pass  0 Test12= 3.98D-14 2.56D-09 XBig12= 2.97D+01 2.64D+00.
 AX will form    36 AO Fock derivatives at one time.
     36 vectors produced by pass  1 Test12= 3.98D-14 2.56D-09 XBig12= 5.63D+00 3.45D-01.
     36 vectors produced by pass  2 Test12= 3.98D-14 2.56D-09 XBig12= 2.18D-01 1.04D-01.
     36 vectors produced by pass  3 Test12= 3.98D-14 2.56D-09 XBig12= 6.80D-03 1.19D-02.
     36 vectors produced by pass  4 Test12= 3.98D-14 2.56D-09 XBig12= 8.81D-05 1.30D-03.
     36 vectors produced by pass  5 Test12= 3.98D-14 2.56D-09 XBig12= 8.47D-07 1.17D-04.
     36 vectors produced by pass  6 Test12= 3.98D-14 2.56D-09 XBig12= 4.37D-09 6.92D-06.
     18 vectors produced by pass  7 Test12= 3.98D-14 2.56D-09 XBig12= 2.05D-11 5.26D-07.
      3 vectors produced by pass  8 Test12= 3.98D-14 2.56D-09 XBig12= 1.11D-13 4.17D-08.
      1 vectors produced by pass  9 Test12= 3.98D-14 2.56D-09 XBig12= 6.44D-16 4.31D-09.
 InvSVY:  IOpt=1 It=  1 EMax= 3.55D-15
 Solved reduced A of dimension   274 with    39 vectors.
 FullF1:  Do perturbations      1 to       3.
 Isotropic polarizability for W=    0.000000       58.51 Bohr**3.
 End of Minotr F.D. properties file   721 does not exist.
 End of Minotr F.D. properties file   722 does not exist.
 End of Minotr F.D. properties file   788 does not exist.
 Leave Link 1002 at Sat May 24 05:41:02 2025, MaxMem=  3758096384 cpu:             703.2 elap:              91.3
 (Enter /apps/easybuild-2022/easybuild/software/Compiler/NVHPC/22.11-CUDA-11.7.0/Gaussian/g16c01-CUDA-11.7.0/g16/l701.exe)
 ... and contract with generalized density number  0.
 Compute integral second derivatives.
   1 Symmetry operations used in ECPInt.
 ECPInt:  NShTT=    8515 NPrTT=   27988 LenC2=    7890 LenP2D=   19091.
 LDataN:  DoStor=T MaxTD1= 8 Len=  415
 Leave Link  701 at Sat May 24 05:41:02 2025, MaxMem=  3758096384 cpu:               0.8 elap:               0.2
 (Enter /apps/easybuild-2022/easybuild/software/Compiler/NVHPC/22.11-CUDA-11.7.0/Gaussian/g16c01-CUDA-11.7.0/g16/l702.exe)
 L702 exits ... SP integral derivatives will be done elsewhere.
 Leave Link  702 at Sat May 24 05:41:02 2025, MaxMem=  3758096384 cpu:               0.1 elap:               0.0
 (Enter /apps/easybuild-2022/easybuild/software/Compiler/NVHPC/22.11-CUDA-11.7.0/Gaussian/g16c01-CUDA-11.7.0/g16/l703.exe)
 Integral derivatives from FoFJK, PRISM(SPDF).
 Compute integral second derivatives, UseDBF=F ICtDFT=           0.
 Calling FoFJK, ICntrl=    100127 FMM=F ISym2X=0 I1Cent= 0 IOpClX= 0 NMat=1 NMatS=1 NMatT=0.
 FoFJK:  IHMeth= 1 ICntrl=  100127 DoSepK=F KAlg= 0 I1Cent=           0 FoldK=F
 IRaf=         0 NMat=       1 IRICut=       1 DoRegI=T DoRafI=F ISym2E= 0 IDoP0=0 IntGTp=1.
 FoFCou: FMM=F IPFlag=           0 FMFlag=      100000 FMFlg1=         800
         NFxFlg=           0 DoJE=F BraDBF=F KetDBF=F FulRan=T
         wScrn=  0.000000 ICntrl=    100127 IOpCl=  0 I1Cent=           0 NGrid=           0
         NMat0=    1 NMatS0=      1 NMatT0=    0 NMatD0=    1 NMtDS0=    0 NMtDT0=    0
 Symmetry not used in FoFCou.
 Leave Link  703 at Sat May 24 05:42:47 2025, MaxMem=  3758096384 cpu:             833.9 elap:             104.9
 (Enter /apps/easybuild-2022/easybuild/software/Compiler/NVHPC/22.11-CUDA-11.7.0/Gaussian/g16c01-CUDA-11.7.0/g16/l716.exe)
 Dipole        =-5.65239356D-01 4.13375934D-01-3.39555081D-01
 Polarizability= 5.50823700D+01 9.36242120D+00 6.57648404D+01
                 2.49362022D+00 6.80553503D-01 5.46858929D+01
 -------------------------------------------------------------------
 Center     Atomic                   Forces (Hartrees/Bohr)
 Number     Number              X              Y              Z
 -------------------------------------------------------------------
      1        6          -0.000009893    0.000131790   -0.000174789
      2        6          -0.000209746   -0.000537238    0.001267318
      3        9          -0.000500491   -0.001394028    0.000186572
      4        9          -0.000323710    0.000371574   -0.000153382
      5       16          -0.000018251    0.000352792   -0.001967777
      6        8           0.001306138   -0.002114213    0.001284396
      7        8          -0.000115974    0.000362580   -0.000152520
      8        8          -0.002475476    0.002092242    0.000574759
      9        9           0.000001673   -0.000068617    0.000081655
     10        9           0.000053714   -0.000061875   -0.000005439
     11        9          -0.000036931   -0.000056120    0.000018420
     12        1           0.002328946    0.000921114   -0.000959213
 -------------------------------------------------------------------
 Cartesian Forces:  Max     0.002475476 RMS     0.000979282
 Force constants in Cartesian coordinates: 
                1             2             3             4             5 
      1  0.583651D+00
      2  0.167918D-01  0.556070D+00
      3  0.142636D-01 -0.165621D-01  0.623807D+00
      4 -0.117998D+00 -0.231102D-01 -0.372223D-01  0.357862D+00
      5 -0.566317D-01 -0.471963D-01 -0.127435D-01  0.116345D+00  0.135950D+00
      6 -0.922500D-01 -0.388601D-01 -0.113235D+00 -0.662693D-01 -0.635819D-01
      7  0.148531D-02 -0.381567D-02 -0.746779D-02 -0.501153D-01  0.964436D-01
      8  0.232697D-01 -0.106191D-01  0.153622D-01  0.184248D-01 -0.104862D-02
[...]
     19 -0.435638D-02  0.655019D-02 -0.149250D+00  0.528669D-01  0.190855D+00
     20 -0.425461D-02  0.549708D-02  0.335832D-01 -0.100839D+00 -0.783184D-01
     21  0.264145D-02 -0.248722D-02  0.176244D+00 -0.108610D+00 -0.591594D+00
     22 -0.120472D-02  0.199184D-02 -0.606793D-01  0.131520D-01 -0.179367D-02
     23 -0.129887D-02  0.228528D-02  0.302260D-01 -0.237375D+00 -0.295517D-01
     24 -0.109342D-02  0.147231D-02 -0.382545D-02  0.264461D-02 -0.107593D+00
     25 -0.566458D-03 -0.714751D-02 -0.116980D-02  0.128586D-02  0.367912D-02
     26  0.889611D-03 -0.175515D-02 -0.600231D-03 -0.363399D-02  0.485735D-02
     27 -0.240481D-02 -0.125621D-01  0.791707D-02  0.106865D-01 -0.660362D-02
     28  0.876844D-03 -0.315660D-02  0.176495D-02  0.535978D-03  0.745406D-03
     29  0.408904D-02 -0.774477D-02  0.631083D-02  0.269624D-02  0.716396D-03
     30  0.160045D-03 -0.312108D-03  0.448280D-02  0.395148D-02 -0.243135D-02
     31  0.293034D-02 -0.159210D-02  0.362965D-02  0.238424D-01 -0.144876D-02
     32  0.108353D-02 -0.201133D-02  0.278680D-02  0.249564D-02 -0.570610D-03
     33 -0.688525D-03  0.566260D-02  0.368084D-02  0.736658D-02 -0.389474D-02
     34  0.293626D-04 -0.910280D-04  0.452178D-02  0.245593D-02 -0.385971D-02
     35  0.601570D-03 -0.101978D-02  0.530167D-02 -0.302432D-01  0.442763D-01
     36 -0.203388D-03  0.296394D-03 -0.398690D-04  0.631871D-02  0.486251D-02
               16            17            18            19            20 
     16  0.151227D+00
     17 -0.627899D-01  0.146536D+00
     18  0.231051D+00 -0.162002D+00  0.607901D+00
     19  0.149413D-01 -0.412879D-03 -0.164789D-01  0.136590D+00
     20 -0.230602D-02  0.157069D-01  0.381211D-02 -0.374453D-01  0.117577D+00
     21  0.166412D-01 -0.653046D-03 -0.640825D-02 -0.217023D+00  0.110770D+00
     22  0.699484D-02  0.192716D-01 -0.925589D-02  0.127022D-01  0.218084D-01
     23  0.302587D-02 -0.316689D-01  0.108575D-01  0.482767D-02 -0.301674D-01
     24 -0.149696D-01  0.537432D-01 -0.920136D-02  0.118134D-01 -0.466967D-01
     25  0.286755D-03  0.532302D-04 -0.580923D-03 -0.116087D-02 -0.140187D-02
     26  0.569734D-03  0.987641D-03 -0.482456D-03 -0.633478D-03  0.312401D-03
     27 -0.257658D-02 -0.227485D-02 -0.411213D-03 -0.229887D-02 -0.207032D-02
     28  0.151266D-04  0.278702D-04 -0.455360D-04 -0.110575D-03 -0.295914D-03
     29 -0.190640D-02 -0.860663D-03 -0.186520D-02 -0.153494D-02 -0.489013D-03
     30 -0.152019D-02 -0.119116D-02 -0.738166D-03 -0.932589D-03 -0.625082D-03
     31 -0.451129D-02 -0.545630D-02 -0.458813D-02 -0.244109D-02 -0.380002D-02
     32 -0.114288D-02 -0.584223D-03 -0.887027D-03 -0.725499D-03 -0.270020D-03
     33 -0.195295D-02 -0.193511D-02 -0.830948D-03 -0.101786D-02 -0.920991D-03
     34  0.215032D-02  0.337074D-02 -0.173540D-02 -0.212919D-02 -0.245253D-02
     35  0.240095D-02 -0.610813D-02  0.355485D-03 -0.221321D-02  0.675606D-02
     36  0.178361D-02 -0.434699D-02  0.432885D-02  0.214422D-02 -0.571419D-02
               21            22            23            24            25 
     21  0.612764D+00
     22  0.133714D-01  0.734588D-01
     23 -0.160674D-01 -0.335538D-01  0.429066D+00
     24 -0.601201D-02  0.507384D-01 -0.149264D+00  0.550524D+00
     25 -0.244684D-02  0.277037D-03 -0.781143D-03 -0.348638D-03  0.894789D-01
     26 -0.326262D-02 -0.747756D-05 -0.770342D-04 -0.510878D-03  0.272178D-01
     27  0.522056D-02 -0.480312D-03 -0.114646D-02  0.924714D-03 -0.519720D-01
     28 -0.360756D-04 -0.216066D-03 -0.544148D-03 -0.241054D-04  0.128064D-01
     29  0.485445D-03 -0.872854D-03 -0.115427D-02  0.222469D-04  0.423251D-02
     30  0.200543D-02 -0.551626D-03 -0.862667D-03  0.383818D-03 -0.334957D-02
     31  0.293926D-02  0.861954D-03 -0.241766D-02  0.238966D-03 -0.274069D-01
     32  0.632107D-03 -0.265189D-03 -0.473391D-03  0.811694D-04 -0.249121D-01
     33  0.289349D-02 -0.157167D-03 -0.647397D-03  0.504296D-03  0.590592D-01
     34  0.146011D-02 -0.103330D-01  0.215671D-01 -0.470765D-01 -0.811554D-04
     35 -0.230753D-02  0.181633D-01 -0.102441D+00  0.139523D+00  0.249094D-03
     36 -0.558894D-02 -0.527618D-01  0.185633D+00 -0.441604D+00 -0.509332D-04
               26            27            28            29            30 
     26  0.181842D+00
     27 -0.169046D+00  0.350801D+00
     28  0.299081D-02 -0.165869D-02  0.909645D-01
     29 -0.648292D-01  0.335905D-01 -0.738345D-01  0.415068D+00
     30  0.505710D-01  0.631928D-02 -0.182556D-01  0.563767D-01  0.835524D-01
     31 -0.168789D-01  0.410846D-01 -0.323083D-01  0.422446D-01  0.163432D-01
     32  0.721896D-02  0.163329D-01  0.598658D-01 -0.202815D-01 -0.151275D-01
     33  0.154251D-01 -0.295806D-01  0.219263D-01 -0.140614D-01  0.680551D-02
     34  0.187743D-03 -0.166754D-03 -0.456687D-04  0.215615D-03  0.122602D-04
     35  0.268649D-03 -0.201886D-04  0.134643D-03  0.384178D-03  0.123171D-03
     36  0.185482D-03 -0.523673D-03 -0.105344D-03 -0.113441D-03 -0.232317D-03
               31            32            33            34            35 
     31  0.407432D+00
     32 -0.297842D-01  0.808506D-01
     33 -0.960048D-01  0.265931D-02  0.101993D+00
     34 -0.220798D-03  0.545808D-04 -0.478366D-04  0.107406D-01
     35  0.524279D-03  0.117877D-03  0.138904D-04 -0.234909D-01  0.130810D+00
     36 -0.195752D-03 -0.635475D-04 -0.214848D-03  0.522753D-01 -0.179310D+00
               36 
     36  0.438444D+00
 Red2BG is reusing G-inverse.
 Leave Link  716 at Sat May 24 05:57:08 2025, MaxMem=  3758096384 cpu:               0.1 elap:               0.0
 (Enter /apps/easybuild-2022/easybuild/software/Compiler/NVHPC/22.11-CUDA-11.7.0/Gaussian/g16c01-CUDA-11.7.0/g16/l9999.exe)

 ----------------------------------------------------------------------

 Electric dipole moment (input orientation):
 (Debye = 10**-18 statcoulomb cm , SI units = C m)
                  (au)            (Debye)         (10**-30 SI)
   Tot        0.715699D+00      0.181913D+01      0.606795D+01
   x         -0.380747D+00     -0.967762D+00     -0.322811D+01
   y          0.462192D+00      0.117478D+01      0.391863D+01
   z         -0.391964D+00     -0.996272D+00     -0.332321D+01

 Dipole polarizability, Alpha (input orientation).
 (esu units = cm**3 , SI units = C**2 m**2 J**-1)
 Alpha(0;0):
               (au)            (10**-24 esu)      (10**-40 SI)
   iso        0.585092D+02      0.867017D+01      0.964687D+01
   aniso      0.206377D+02      0.305818D+01      0.340269D+01
   xx         0.544871D+02      0.807416D+01      0.898372D+01
   yx         0.963333D+01      0.142751D+01      0.158832D+01
   yy         0.661856D+02      0.980769D+01      0.109125D+02
   zx         0.215083D+01      0.318720D+00      0.354623D+00
   zy         0.561412D+00      0.831927D-01      0.925644D-01
   zz         0.548549D+02      0.812866D+01      0.904436D+01

 ----------------------------------------------------------------------

 Dipole orientation:
     6         -0.54566638          4.64109627         -1.09393413
     6          0.00323043          2.22630496         -2.61877832
     9         -0.12799937          0.01712259         -0.02786166
     9         -1.98167970          1.66197212         -3.90531691
    16          2.62004016         -0.75813027         -1.72812772
     8          2.00928577         -2.01953336         -3.99840465
     8          4.61260850          0.94266902         -1.15951468
     8          3.00961362         -3.03245395          0.17463896
     9          1.15944291          4.98193459          0.69425151
     9         -0.42903583          6.55292502         -2.72472935
     9         -2.82549011          4.61724434         -0.04608963
     1          3.88930365         -2.43264749          1.65879664

 Electric dipole moment (dipole orientation):
 (Debye = 10**-18 statcoulomb cm , SI units = C m)
                  (au)            (Debye)         (10**-30 SI)
   Tot        0.715699D+00      0.181913D+01      0.606795D+01
   x          0.000000D+00      0.000000D+00      0.000000D+00
   y          0.000000D+00      0.000000D+00      0.000000D+00
   z          0.715699D+00      0.181913D+01      0.606795D+01

 Dipole polarizability, Alpha (dipole orientation).
 (esu units = cm**3 , SI units = C**2 m**2 J**-1)
 Alpha(0;0):
               (au)            (10**-24 esu)      (10**-40 SI)
   iso        0.585092D+02      0.867017D+01      0.964687D+01
   aniso      0.206377D+02      0.305818D+01      0.340269D+01
   xx         0.566599D+02      0.839613D+01      0.934196D+01
   yx        -0.873925D+01     -0.129502D+01     -0.144091D+01
   yy         0.651545D+02      0.965490D+01      0.107425D+02
   zx         0.511510D+01      0.757980D+00      0.843366D+00
   zy        -0.203512D+01     -0.301573D+00     -0.335546D+00
   zz         0.537132D+02      0.795948D+01      0.885612D+01

 ----------------------------------------------------------------------
 Unable to Open any file for archive entry.
 1\1\GINC-SPARTAN-BM179\Freq\RM062X\def2TZVPP\C2H1F5O3S1\AKHALILOV\24-M
 ay-2025\0\\#P M062X/Def2TZVPP Symm(None) scf(xqc) pop(None) opt(NoFree
 ze,TS,CalcAll,NoEigentest,MaxCycle=999)\\Gaussian input prepared by AS
 E\\0,1\C,-0.4731715219,-2.2320963997,-1.1153889172\C,0.4771102674,-1.7
 552035309,-0.0027693903\F,-0.04951579,-0.0311765715,0.0382573904\F,0.0
 472944553,-2.2098672966,1.1217277675\S,1.7084836782,0.0102842986,0.022
 3242117\O,2.2316887275,-0.3496660382,1.2832856455\O,2.2102210504,-0.21
 8830942,-1.2846393321\O,1.608436302,1.5855046731,0.1384305759\F,-0.279
 3132439,-1.5524698877,-2.2301236763\F,-0.1882205145,-3.5147770625,-1.3
 289433307\F,-1.7511720441,-2.1325952748,-0.7691030763\H,1.5005452689,1
 .9641602171,-0.7443217311\\Version=ES64L-G16RevC.01\HF=-1199.7919655\R
 MSD=7.798e-09\RMSF=2.758e-06\ZeroPoint=0.0500582\Thermal=0.0603726\ETo
 t=-1199.731593\HTot=-1199.7306488\GTot=-1199.7787465\Dipole=-0.3807469
 ,0.4621923,-0.3919635\DipoleDeriv=1.5343584,0.0124282,-0.18308,0.02595
 59,1.7323416,-0.0558844,0.0892044,0.2610561,1.4844236,0.2875927,-0.100
 3137,-0.1834754,-0.1785996,0.5057005,-0.2907623,-0.2956151,-0.6447213,
 0.8339482,-0.9316389,0.1627775,0.0231428,-0.2243396,-1.3550883,-0.0368
 613,-0.008026,-0.0404802,-0.298344,-0.3232407,-0.4215048,0.2871434,-0.
 1342544,-0.3024946,0.2511668,0.2282353,0.5710156,-0.7808682,2.6144085,
 0.8676815,0.0805035,0.8196077,3.5861692,0.0990417,-0.0205912,0.0086549
 ,2.1482489,-0.7098805,-0.1966334,-0.1768976,-0.1286459,-0.7588669,0.02
 96873,-0.3733291,-0.0769689,-0.9099755,-0.6853563,-0.1606806,0.1262802
 ,-0.1386206,-0.80861,-0.0206903,0.3604617,0.0575929,-0.9001949,-0.4555
 402,0.0408905,0.0095219,-0.0437465,-1.3729129,0.0261712,0.0175289,0.10
 11439,-0.4160532,-0.3008524,-0.0574741,0.0002039,-0.0607973,-0.4083811
 ,0.1960488,0.0208191,0.1736889,-0.7298232,-0.3215292,0.0351514,-0.0244
 502,0.0807731,-0.8979032,-0.116364,-0.030479,-0.2030024,-0.3395856,-1.
 0349574,-0.1776139,0.0505587,-0.0307139,-0.3288712,-0.038713,0.027547,
 -0.0958991,-0.3556033,0.3266359,-0.0047086,-0.0094513,0.0133811,0.4089
 17,-0.0428404,-0.0157559,-0.1120804,0.2638273\Polar=54.487141,9.633332
 2,66.185568,2.1508261,0.5614124,54.8549407\PG=Unknown\NImag=1\\0.58333
 548,0.01669457,0.55802927,0.01569405,-0.01604234,0.62291566,-0.1177467
 7,-0.02400405,-0.03737462,0.35171279,-0.05779789,-0.04865755,-0.013116
 33,0.12017557,0.14164387,-0.09215004,-0.03987386,-0.11341213,-0.059779
 59,-0.06790338,0.55157250,0.00140507,-0.00440172,-0.00817758,-0.053948
 13,0.09804791,0.01880464,0.12623639,0.02449969,-0.01132739,0.01463709,
 0.01580891,0.00208289,-0.04386625,-0.03045811,0.08588288,0.00861041,-0
 .00623213,-0.00354406,0.00594985,-0.01067265,-0.01171773,-0.00336690,0
 .00909434,0.04290568,0.00438231,0.00235405,-0.01620546,-0.11500240,-0.
 06849080,0.12734335,0.01908889,-0.01258549,-0.00889083,0.08586479,-0.0
 0058069,0.00287226,-0.00146391,-0.05121529,-0.09017819,0.11997061,-0.0
 0724901,-0.01745806,0.01547771,0.05721772,0.09927252,0.02736229,0.0291
 0345,-0.05059219,0.11289802,0.09666785,-0.35716102,-0.00870989,0.03959
 187,0.00023387,-0.10989003,-0.14033961,0.41903255,-0.00520527,-0.01482
 384,-0.02217961,-0.01137161,-0.06773702,0.02728287,-0.07894493,0.07174
 453,0.00282309,0.01134460,0.00420808,-0.02271224,0.44488041,-0.0020946
 8,-0.00808292,-0.03804853,-0.04448921,0.07450824,0.04146247,-0.0293546
 8,-0.06631493,0.00078222,0.03034997,0.00343527,-0.02077067,-0.12467460
 ,0.47985631,-0.01177657,-0.00715270,0.01893685,-0.01235604,-0.00150147
 ,-0.01578723,0.00012257,-0.00312678,-0.04950302,0.01986011,0.01102171,
 -0.01508248,0.01903415,-0.06998094,1.36088981,-0.00058922,0.00325815,0
 .01047909,-0.00833391,-0.01388476,-0.02675662,-0.00046504,-0.00325907,
 -0.01361520,-0.00219461,-0.00008980,0.00449707,-0.15952096,0.07612410,
 -0.20306114,0.15122667,-0.00091003,0.00043107,0.00961312,-0.01037002,-
 0.02225473,-0.02364556,0.00372934,0.01337227,0.00286588,-0.00018820,0.
 00094593,0.00049579,0.05367457,-0.11650279,0.12933085,-0.06278989,0.14
 653565,0.00149551,0.00375446,0.00586627,-0.00702885,-0.01548934,-0.025
 97559,0.00695726,0.00082710,0.00617038,-0.00708318,-0.00307787,0.01149
 936,-0.19270730,0.16419730,-0.59219985,0.23105136,-0.16200211,0.607900
 52,0.00120264,0.00380570,0.00524936,-0.00040560,-0.01108336,0.00857148
 ,-0.00031632,-0.00309527,0.01256800,-0.00962294,-0.00435638,0.00655019
 ,-0.14924958,0.05286693,0.19085454,0.01494131,-0.00041288,-0.01647894,
 0.13659003,0.00232077,0.00105681,0.00463210,-0.00201635,-0.02159136,0.
 01199573,0.00308858,0.01620238,-0.00236097,-0.01108293,-0.00425461,0.0
 0549708,0.03358316,-0.10083929,-0.07831840,-0.00230602,0.01570692,0.00
 381211,-0.03744529,0.11757714,0.00372743,0.00158208,-0.01507824,0.0048
 4389,0.01529951,-0.00141294,-0.00587351,-0.00050994,0.00569771,0.00615
 244,0.00264145,-0.00248722,0.17624363,-0.10860969,-0.59159363,0.016641
 19,-0.00065305,-0.00640825,-0.21702287,0.11076967,0.61276403,0.0003654
 1,0.00074880,0.00115720,-0.00398891,0.01033516,-0.00173403,-0.01983584
 ,-0.04757520,-0.00052428,0.00039286,-0.00120472,0.00199184,-0.06067925
 ,0.01315201,-0.00179367,0.00699484,0.01927156,-0.00925589,0.01270219,0
 .02180841,0.01337136,0.07345877,0.00280000,0.00193241,0.00349587,-0.00
 017603,0.00042629,-0.00288019,-0.02275677,-0.02676870,-0.00185206,-0.0
 0221711,-0.00129887,0.00228528,0.03022604,-0.23737457,-0.02955169,0.00
 302587,-0.03166894,0.01085754,0.00482767,-0.03016741,-0.01606742,-0.03
 355381,0.42906592,0.00096275,0.00057637,-0.00246262,0.00078874,0.00034
 975,0.00190831,0.00317339,0.00062468,0.01115652,-0.00147123,-0.0010934
 2,0.00147231,-0.00382545,0.00264461,-0.10759326,-0.01496964,0.05374318
 ,-0.00920136,0.01181335,-0.04669674,-0.00601201,0.05073838,-0.14926407
 ,0.55052372,-0.08186524,-0.01297184,0.01631545,0.00863310,0.00985316,-
 0.01246563,0.00107483,-0.00225827,-0.00069178,-0.00087309,-0.00056646,
 -0.00714751,-0.00116980,0.00128586,0.00367912,0.00028675,0.00005323,-0
 .00058092,-0.00116087,-0.00140187,-0.00244684,0.00027704,-0.00078114,-
 0.00034864,0.08947889,-0.01135975,-0.12782023,0.10243547,-0.00067150,0
 .00122177,0.00486318,-0.00243891,0.00361931,-0.00328088,0.00162416,0.0
 0088961,-0.00175515,-0.00060023,-0.00363399,0.00485735,0.00056973,0.00
 098764,-0.00048246,-0.00063348,0.00031240,-0.00326262,-0.00000748,-0.0
 0007703,-0.00051088,0.02721783,0.18184213,0.00698227,0.09857066,-0.281
 16954,0.00890104,0.02593515,-0.03177332,0.00190959,-0.00815343,-0.0006
 4157,-0.00764137,-0.00240481,-0.01256207,0.00791707,0.01068647,-0.0066
 0362,-0.00257658,-0.00227485,-0.00041121,-0.00229887,-0.00207032,0.005
 22056,-0.00048031,-0.00114646,0.00092471,-0.05197196,-0.16904560,0.350
 80106,-0.08130422,0.02220677,0.00173440,0.00938349,-0.00621599,0.00071
 530,-0.00064533,-0.00574817,-0.00183946,-0.00030430,0.00087684,-0.0031
 5660,0.00176495,0.00053598,0.00074541,0.00001513,0.00002787,-0.0000455
 4,-0.00011058,-0.00029591,-0.00003608,-0.00021607,-0.00054415,-0.00002
 411,0.01280643,0.00299081,-0.00165869,0.09096451,0.02303954,-0.2943098
 6,-0.06232865,0.00726726,-0.03873792,-0.00261208,-0.00617013,-0.001574
 50,-0.00246574,0.00100852,0.00408904,-0.00774477,0.00631083,0.00269624
 ,0.00071640,-0.00190640,-0.00086066,-0.00186520,-0.00153494,-0.0004890
 1,0.00048544,-0.00087285,-0.00115427,0.00002225,0.00423251,-0.06482922
 ,0.03359048,-0.07383451,0.41506754,0.00226496,-0.06347099,-0.09677130,
 0.00384849,-0.02610078,0.00273004,-0.00310200,-0.00380421,-0.00131122,
 0.00075984,0.00016004,-0.00031211,0.00448280,0.00395148,-0.00243135,-0
 .00152019,-0.00119116,-0.00073817,-0.00093259,-0.00062508,0.00200543,-
 0.00055163,-0.00086267,0.00038382,-0.00334957,0.05057101,0.00631928,-0
 .01825563,0.05637669,0.08355239,-0.30417684,0.00754764,0.03303475,-0.0
 5924786,-0.01183687,0.00988034,0.01119134,-0.00691525,0.00030844,0.007
 19836,0.00293034,-0.00159210,0.00362965,0.02384239,-0.00144876,-0.0045
 1129,-0.00545630,-0.00458813,-0.00244109,-0.00380002,0.00293926,0.0008
 6195,-0.00241766,0.00023897,-0.02740689,-0.01687893,0.04108455,-0.0323
 0835,0.04224455,0.01634324,0.40743182,0.00433354,-0.07325924,-0.003646
 44,-0.01020956,0.00238840,0.00214427,-0.00111031,0.00071344,0.00045670
 ,0.00110896,0.00108353,-0.00201133,0.00278680,0.00249564,-0.00057061,-
 0.00114288,-0.00058422,-0.00088703,-0.00072550,-0.00027002,0.00063211,
 -0.00026519,-0.00047339,0.00008117,-0.02491211,0.00721896,0.01633289,0
 .05986582,-0.02028155,-0.01512750,-0.02978415,0.08085057,0.03652635,-0
 .00084201,-0.08583299,-0.02059366,-0.00470163,0.00140804,0.00130706,-0
 .00166785,0.00108677,-0.00272552,-0.00068853,0.00566260,0.00368084,0.0
 0736658,-0.00389474,-0.00195295,-0.00193511,-0.00083095,-0.00101786,-0
 .00092099,0.00289349,-0.00015717,-0.00064740,0.00050430,0.05905922,0.0
 1542510,-0.02958060,0.02192633,-0.01406137,0.00680551,-0.09600481,0.00
 265931,0.10199343,0.00019666,-0.00041423,0.00027296,0.00031582,-0.0013
 6510,0.00028793,-0.00484093,-0.00015830,-0.00133136,-0.00027446,0.0000
 2936,-0.00009103,0.00452178,0.00245593,-0.00385971,0.00215032,0.003370
 74,-0.00173540,-0.00212919,-0.00245253,0.00146011,-0.01033299,0.021567
 08,-0.04707650,-0.00008116,0.00018774,-0.00016675,-0.00004567,0.000215
 62,0.00001226,-0.00022080,0.00005458,-0.00004784,0.01074062,-0.0009450
 8,-0.00086461,-0.00016744,-0.00009973,-0.00085170,0.00034504,-0.000926
 17,0.00157041,-0.00181242,0.00090115,0.00060157,-0.00101978,0.00530167
 ,-0.03024321,0.04427628,0.00240095,-0.00610813,0.00035549,-0.00221321,
 0.00675606,-0.00230753,0.01816332,-0.10244144,0.13952309,0.00024909,0.
 00026865,-0.00002019,0.00013464,0.00038418,0.00012317,0.00052428,0.000
 11788,0.00001389,-0.02349091,0.13081034,0.00030059,0.00002701,0.001144
 28,-0.00009726,0.00123332,-0.00037892,-0.00304463,-0.00364662,-0.00053
 333,-0.00020815,-0.00020339,0.00029639,-0.00003987,0.00631871,0.004862
 51,0.00178361,-0.00434699,0.00432885,0.00214422,-0.00571419,-0.0055889
 4,-0.05276181,0.18563325,-0.44160444,-0.00005093,0.00018548,-0.0005236
 7,-0.00010534,-0.00011344,-0.00023232,-0.00019575,-0.00006355,-0.00021
 485,0.05227533,-0.17930960,0.43844444\\0.00000197,-0.00000122,-0.00000
 078,-0.00000135,0.00000109,0.00000138,-0.00000139,0.00000102,-0.000004
 00,-0.00000565,0.00000321,0.00000098,-0.00000095,0.00000061,0.00000197
 ,-0.00000592,0.00000324,0.00000407,0.00000287,-0.00000221,0.00000427,0
 .00000023,0.00000052,-0.00000134,0.00000586,-0.00000336,-0.00000147,0.
 00000203,-0.00000168,0.00000260,0.00000072,0.00000016,-0.00000528,0.00
 000156,-0.00000138,-0.00000241\\\@
 The archive entry for this job was punched.


 YOU WILL NEVER "FIND" TIME FOR ANYTHING.
 IF YOU WANT TIME, YOU MUST MAKE IT.

                        -- CHARLES BIXTON
 Job cpu time:       0 days  2 hours 55 minutes 41.1 seconds.
 Elapsed time:       0 days  0 hours 23 minutes 58.7 seconds.
 File lengths (MBytes):  RWF=    173 Int=      0 D2E=      0 Chk=     11 Scr=      1
 Normal termination of Gaussian 16 at Sat May 24 05:57:08 2025.
done
