 Entering Gaussian System, Link 0=g16
 Initial command:
 /apps/easybuild-2022/easybuild/software/Compiler/NVHPC/22.11-CUDA-11.7.0/Gaussian/g16c01-CUDA-11.7.0/g16/l1.exe "/tmp/Gau-231898.inp" -scrdir="/tmp/"
 Entering Link 1 = /apps/easybuild-2022/easybuild/software/Compiler/NVHPC/22.11-CUDA-11.7.0/Gaussian/g16c01-CUDA-11.7.0/g16/l1.exe PID=    231899.
  
 Copyright (c) 1988-2019, Gaussian, Inc.  All Rights Reserved.
  
 This is part of the Gaussian(R) 16 program.  It is based on
 the Gaussian(R) 09 system (copyright 2009, Gaussian, Inc.),
 the Gaussian(R) 03 system (copyright 2003, Gaussian, Inc.),
 the Gaussian(R) 98 system (copyright 1998, Gaussian, Inc.),
 the Gaussian(R) 94 system (copyright 1995, Gaussian, Inc.),
 the Gaussian 92(TM) system (copyright 1992, Gaussian, Inc.),
 the Gaussian 90(TM) system (copyright 1990, Gaussian, Inc.),
 the Gaussian 88(TM) system (copyright 1988, Gaussian, Inc.),
 the Gaussian 86(TM) system (copyright 1986, Carnegie Mellon
 University), and the Gaussian 82(TM) system (copyright 1983,
 Carnegie Mellon University). Gaussian is a federally registered
 trademark of Gaussian, Inc.
  
 This software contains proprietary and confidential information,
 including trade secrets, belonging to Gaussian, Inc.
  
 This software is provided under written license and may be
 used, copied, transmitted, or stored only in accord with that
 written license.
  
 The following legend is applicable only to US Government
 contracts under FAR:
  
                    RESTRICTED RIGHTS LEGEND
  
 Use, reproduction and disclosure by the US Government is
 subject to restrictions as set forth in subparagraphs (a)
 and (c) of the Commercial Computer Software - Restricted
 Rights clause in FAR 52.227-19.
  
 Gaussian, Inc.
 340 Quinnipiac St., Bldg. 40, Wallingford CT 06492
  
  
 ---------------------------------------------------------------
 Warning -- This program may not be used in any manner that
 competes with the business of Gaussian, Inc. or will provide
 assistance to any competitor of Gaussian, Inc.  The licensee
 of this program is prohibited from giving any competitor of
 Gaussian, Inc. access to this program.  By using this program,
 the user acknowledges that Gaussian, Inc. is engaged in the
 business of creating and licensing software in the field of
 computational chemistry and represents and warrants to the
 licensee that it is not a competitor of Gaussian, Inc. and that
 it will not use this program in any manner prohibited above.
 ---------------------------------------------------------------
  

 Cite this work as:
 Gaussian 16, Revision C.01,
 M. J. Frisch, G. W. Trucks, H. B. Schlegel, G. E. Scuseria, 
 M. A. Robb, J. R. Cheeseman, G. Scalmani, V. Barone, 
 G. A. Petersson, H. Nakatsuji, X. Li, M. Caricato, A. V. Marenich, 
 J. Bloino, B. G. Janesko, R. Gomperts, B. Mennucci, H. P. Hratchian, 
 J. V. Ortiz, A. F. Izmaylov, J. L. Sonnenberg, D. Williams-Young, 
 F. Ding, F. Lipparini, F. Egidi, J. Goings, B. Peng, A. Petrone, 
 T. Henderson, D. Ranasinghe, V. G. Zakrzewski, J. Gao, N. Rega, 
 G. Zheng, W. Liang, M. Hada, M. Ehara, K. Toyota, R. Fukuda, 
 J. Hasegawa, M. Ishida, T. Nakajima, Y. Honda, O. Kitao, H. Nakai, 
 T. Vreven, K. Throssell, J. A. Montgomery, Jr., J. E. Peralta, 
 F. Ogliaro, M. J. Bearpark, J. J. Heyd, E. N. Brothers, K. N. Kudin, 
 V. N. Staroverov, T. A. Keith, R. Kobayashi, J. Normand, 
 K. Raghavachari, A. P. Rendell, J. C. Burant, S. S. Iyengar, 
 J. Tomasi, M. Cossi, J. M. Millam, M. Klene, C. Adamo, R. Cammi, 
 J. W. Ochterski, R. L. Martin, K. Morokuma, O. Farkas, 
 J. B. Foresman, and D. J. Fox, Gaussian, Inc., Wallingford CT, 2019.
 
 ******************************************
 Gaussian 16:  ES64L-G16RevC.01  3-Jul-2019
                24-May-2025 
 ******************************************
 %mem=28GB
 %nprocshared=8
 Will use up to    8 processors via shared memory.
 ------------------------------------------
 #P am1 Symm(None) scf(xqc) pop(None) force
 ------------------------------------------
 1/10=7,30=1,38=1/1,3;
 2/12=2,15=3,17=6,18=5,40=1/2;
 3/5=2,25=1,41=700000,71=1/1,2,3;
 4/35=1/1;
 5/5=2,8=3,13=1,35=1,38=5/2,8;
 7/29=1,30=1/1,2,3,16;
 1/10=7,30=1/3;
 99//99;
 Leave Link    1 at Sat May 24 08:10:54 2025, MaxMem=  3758096384 cpu:               0.1 elap:               0.0
 (Enter /apps/easybuild-2022/easybuild/software/Compiler/NVHPC/22.11-CUDA-11.7.0/Gaussian/g16c01-CUDA-11.7.0/g16/l101.exe)
 ------------------------------
 Gaussian input prepared by ASE
 ------------------------------
 Symbolic Z-matrix:
 Charge =  0 Multiplicity = 1
 C                     1.98486  -1.04281  -1.19322 
 C                     2.02915  -0.10476  -0.01053 
 F                    -0.35349   0.76155   0.34097 
 F                     1.96939  -0.68863   1.16942 
 S                     1.97744   1.5691   -0.07912 
 O                     0.6772    2.15038   0.35891 
 O                     3.03522   2.2925    0.51516 
 O                     2.01547   1.95286  -1.5828 
 F                     1.38397  -0.54063  -2.25986 
 F                     3.205    -1.39903  -1.62134 
 F                     1.36193  -2.18347  -0.93953 
 H                     2.72394   2.50216  -1.95206 
 
 ITRead=  0  0  0  0  0  0  0  0  0  0  0  0
 MicOpt= -1 -1 -1 -1 -1 -1 -1 -1 -1 -1 -1 -1
 NAtoms=     12 NQM=       12 NQMF=       0 NMMI=      0 NMMIF=      0
                NMic=       0 NMicF=      0.
                    Isotopes and Nuclear Properties:
 (Nuclear quadrupole moments (NQMom) in fm**2, nuclear magnetic moments (NMagM)
  in nuclear magnetons)

  Atom         1           2           3           4           5           6           7           8           9          10
 IAtWgt=          12          12          19          19          32          16          16          16          19          19
 AtmWgt=  12.0000000  12.0000000  18.9984032  18.9984032  31.9720718  15.9949146  15.9949146  15.9949146  18.9984032  18.9984032
 NucSpn=           0           0           1           1           0           0           0           0           1           1
 AtZEff=  -0.0000000  -0.0000000  -0.0000000  -0.0000000  -0.0000000  -0.0000000  -0.0000000  -0.0000000  -0.0000000  -0.0000000
 NQMom=    0.0000000   0.0000000   0.0000000   0.0000000   0.0000000   0.0000000   0.0000000   0.0000000   0.0000000   0.0000000
 NMagM=    0.0000000   0.0000000   2.6288670   2.6288670   0.0000000   0.0000000   0.0000000   0.0000000   2.6288670   2.6288670
 AtZNuc=   6.0000000   6.0000000   9.0000000   9.0000000  16.0000000   8.0000000   8.0000000   8.0000000   9.0000000   9.0000000

  Atom        11          12
 IAtWgt=          19           1
 AtmWgt=  18.9984032   1.0078250
 NucSpn=           1           1
 AtZEff=  -0.0000000  -0.0000000
 NQMom=    0.0000000   0.0000000
 NMagM=    2.6288670   2.7928460
 AtZNuc=   9.0000000   1.0000000
 Leave Link  101 at Sat May 24 08:10:54 2025, MaxMem=  3758096384 cpu:               0.1 elap:               0.1
 (Enter /apps/easybuild-2022/easybuild/software/Compiler/NVHPC/22.11-CUDA-11.7.0/Gaussian/g16c01-CUDA-11.7.0/g16/l103.exe)

 GradGradGradGradGradGradGradGradGradGradGradGradGradGradGradGradGradGrad
 Berny optimization.
 Initialization pass.
 Trust Radius=3.00D-01 FncErr=1.00D-07 GrdErr=1.00D-07 EigMax=2.50D+02 EigMin=1.00D-04
 Number of steps in this run=      2 maximum allowed number of steps=      2.
 GradGradGradGradGradGradGradGradGradGradGradGradGradGradGradGradGradGrad

 Leave Link  103 at Sat May 24 08:10:54 2025, MaxMem=  3758096384 cpu:               0.1 elap:               0.0
 (Enter /apps/easybuild-2022/easybuild/software/Compiler/NVHPC/22.11-CUDA-11.7.0/Gaussian/g16c01-CUDA-11.7.0/g16/l202.exe)
                          Input orientation:                          
 ---------------------------------------------------------------------
 Center     Atomic      Atomic             Coordinates (Angstroms)
 Number     Number       Type             X           Y           Z
 ---------------------------------------------------------------------
      1          6           0        1.984860   -1.042807   -1.193219
      2          6           0        2.029149   -0.104762   -0.010534
      3          9           0       -0.353489    0.761547    0.340970
      4          9           0        1.969387   -0.688628    1.169424
      5         16           0        1.977441    1.569102   -0.079124
      6          8           0        0.677203    2.150384    0.358905
      7          8           0        3.035218    2.292500    0.515165
      8          8           0        2.015473    1.952860   -1.582802
      9          9           0        1.383972   -0.540632   -2.259863
     10          9           0        3.204995   -1.399029   -1.621344
     11          9           0        1.361934   -2.183471   -0.939534
     12          1           0        2.723940    2.502162   -1.952063
 ---------------------------------------------------------------------
                    Distance matrix (angstroms):
                    1          2          3          4          5
     1  C    0.000000
     2  C    1.510177   0.000000
     3  F    3.328259   2.559494   0.000000
     4  F    2.389093   1.317866   2.860961   0.000000
     5  S    2.839601   1.676067   2.502371   2.579978   0.000000
     6  O    3.783587   2.655170   1.729601   3.222836   1.490093
     7  O    3.891799   2.652433   3.722566   3.232828   1.412578
     8  O    3.021049   2.589599   3.275990   3.815015   1.552341
     9  F    1.323245   2.380277   3.388034   3.482043   3.091732
    10  F    1.341236   2.377489   4.602345   3.133654   3.563023
    11  F    1.324201   2.372603   3.640810   2.655420   3.898841
    12  H    3.699850   3.323901   4.214060   4.527049   2.221657
                    6          7          8          9         10
     6  O    0.000000
     7  O    2.367456   0.000000
     8  O    2.366476   2.357266   0.000000
     9  F    3.820869   4.295816   2.659833   0.000000
    10  F    4.786382   4.268592   3.556910   2.112031   0.000000
    11  F    4.575708   4.995032   4.236761   2.107765   2.115914
    12  H    3.107000   2.495609   0.969541   3.338989   3.944626
                   11         12
    11  F    0.000000
    12  H    4.983515   0.000000
 Symmetry turned off by external request.
 Stoichiometry    C2HF5O3S
 Rotational constants (GHZ):           1.4554537           0.7832826           0.7209798
 Leave Link  202 at Sat May 24 08:10:54 2025, MaxMem=  3758096384 cpu:               0.1 elap:               0.0
 (Enter /apps/easybuild-2022/easybuild/software/Compiler/NVHPC/22.11-CUDA-11.7.0/Gaussian/g16c01-CUDA-11.7.0/g16/l301.exe)
 Standard basis: VSTO-6G (5D, 7F)
 Ernie: Thresh=  0.10000D-02 Tol=  0.10000D-05 Strict=F.
  NNHCO=     0 NNPyr=     0 NCTC=     0               EPep=         0.000000000
    EC=       384.503635109  ECS=         2.563818318   EG=         0.744491567
   EHC=         0.000000000  EAt=      -139.813231795  AtH=         1.168761636
 EPDDG=         0.000000000  ECC=       387.811944994 EAtT=       140.981993432
    45 basis functions,   270 primitive gaussians,    45 cartesian basis functions
    34 alpha electrons       34 beta electrons
       nuclear repulsion energy       529.5372371165 Hartrees.



 Warning!  S  atom    5 may be hypervalent but has no d functions.



 IExCor=    0 DFT=F Ex=HF Corr=None ExCW=0 ScaHFX=  1.000000
 ScaDFX=  1.000000  1.000000  1.000000  1.000000 ScalE2=  1.000000  1.000000
 IRadAn=      5 IRanWt=     -1 IRanGd=            0 ICorTp=0 IEmpDi=  4
 Integral buffers will be    131072 words long.
 Regular integral format.
 Two-electron integral symmetry is turned off.
 Leave Link  301 at Sat May 24 08:10:54 2025, MaxMem=  3758096384 cpu:               0.1 elap:               0.0
 (Enter /apps/easybuild-2022/easybuild/software/Compiler/NVHPC/22.11-CUDA-11.7.0/Gaussian/g16c01-CUDA-11.7.0/g16/l302.exe)
 Do NDO integrals.
 NPDir=0 NMtPBC=     1 NCelOv=     1 NCel=       1 NClECP=     1 NCelD=      1
         NCelK=      1 NCelE2=     1 NClLst=     1 CellRange=     0.0.
 One-electron integrals computed using PRISM.
 NBasis=    45 RedAO= F EigKep=  0.00D+00  NBF=    45
 NBsUse=    45 1.00D-04 EigRej=  0.00D+00 NBFU=    45
 Leave Link  302 at Sat May 24 08:10:54 2025, MaxMem=  3758096384 cpu:               0.1 elap:               0.0
 (Enter /apps/easybuild-2022/easybuild/software/Compiler/NVHPC/22.11-CUDA-11.7.0/Gaussian/g16c01-CUDA-11.7.0/g16/l303.exe)
 DipDrv:  MaxL=1.
 Leave Link  303 at Sat May 24 08:10:54 2025, MaxMem=  3758096384 cpu:               0.1 elap:               0.0
 (Enter /apps/easybuild-2022/easybuild/software/Compiler/NVHPC/22.11-CUDA-11.7.0/Gaussian/g16c01-CUDA-11.7.0/g16/l401.exe)
 Simple Huckel Guess.
 JPrj=0 DoOrth=F DoCkMO=F.
 Leave Link  401 at Sat May 24 08:10:54 2025, MaxMem=  3758096384 cpu:               0.1 elap:               0.0
 (Enter /apps/easybuild-2022/easybuild/software/Compiler/NVHPC/22.11-CUDA-11.7.0/Gaussian/g16c01-CUDA-11.7.0/g16/l502.exe)
 Keep J ints in memory in canonical form, NReq=865860.
 FoFCou: FMM=F IPFlag=           0 FMFlag=           0 FMFlg1=           0
         NFxFlg=           0 DoJE=F BraDBF=F KetDBF=F FulRan=T
         wScrn=  0.000000 ICntrl=       600 IOpCl=  2 I1Cent=           0 NGrid=           0
         NMat0=    1 NMatS0=    111 NMatT0=    0 NMatD0=    1 NMtDS0=    0 NMtDT0=    0
 Symmetry not used in FoFCou.
 Two-electron integral symmetry not used.
 Closed shell SCF:
 Using DIIS extrapolation, IDIIS=  1040.
 Overlap will be assumed to be unity.
 NGot=  3758096384 LenX=  3758025843 LenY=  3758023377
 Requested convergence on RMS density matrix=1.00D-08 within  32 cycles.
 Requested convergence on MAX density matrix=1.00D-06.
 Requested convergence on             energy=1.00D-06.
 No special actions if energy rises.

 Cycle   1  Pass 1  IDiag  1:
 E=  1.92968866676449    
 DIIS: error= 9.88D-02 at cycle   1 NSaved=   1.
 NSaved= 1 IEnMin= 1 EnMin=  1.92968866676449     IErMin= 1 ErrMin= 9.88D-02
 ErrMax= 9.88D-02  0.00D+00 EMaxC= 1.00D-01 BMatC= 3.98D-01 BMatP= 3.98D-01
 IDIUse=3 WtCom= 1.23D-02 WtEn= 9.88D-01
 Coeff-Com:  0.100D+01
 Coeff-En:   0.100D+01
 Coeff:      0.100D+01
 GapD=    2.000 DampG=2.000 DampE=0.500 DampFc=1.0000 IDamp=-1.
 RMSDP=5.75D-02 MaxDP=9.81D-01              OVMax= 0.00D+00

 Cycle   2  Pass 1  IDiag  1:
 E=  5.99641970854555     Delta-E=        4.066731041781 Rises=F Damp=F
 DIIS: error= 1.44D-01 at cycle   2 NSaved=   2.
 NSaved= 2 IEnMin= 1 EnMin=  1.92968866676449     IErMin= 1 ErrMin= 9.88D-02
 ErrMax= 1.44D-01  0.00D+00 EMaxC= 1.00D-01 BMatC= 7.26D-01 BMatP= 3.98D-01
 IDIUse=2 WtCom= 0.00D+00 WtEn= 1.00D+00
 Coeff-En:   0.854D+00 0.146D+00
 Coeff:      0.854D+00 0.146D+00
 RMSDP=5.04D-02 MaxDP=9.79D-01 DE= 4.07D+00 OVMax= 0.00D+00

 Cycle   3  Pass 1  IDiag  1:
 E= 0.617601090352196     Delta-E=       -5.378818618193 Rises=F Damp=F
 DIIS: error= 2.83D-02 at cycle   3 NSaved=   3.
 NSaved= 3 IEnMin= 3 EnMin= 0.617601090352196     IErMin= 3 ErrMin= 2.83D-02
 ErrMax= 2.83D-02  0.00D+00 EMaxC= 1.00D-01 BMatC= 3.14D-02 BMatP= 3.98D-01
 IDIUse=3 WtCom= 7.17D-01 WtEn= 2.83D-01
 Coeff-Com: -0.250D+00 0.398D-01 0.121D+01
 Coeff-En:   0.000D+00 0.000D+00 0.100D+01
 Coeff:     -0.179D+00 0.285D-01 0.115D+01
 RMSDP=9.60D-03 MaxDP=1.76D-01 DE=-5.38D+00 OVMax= 0.00D+00

 Cycle   4  Pass 1  IDiag  1:
 E= 0.500126386578472     Delta-E=       -0.117474703774 Rises=F Damp=F
 DIIS: error= 7.52D-03 at cycle   4 NSaved=   4.
 NSaved= 4 IEnMin= 4 EnMin= 0.500126386578472     IErMin= 4 ErrMin= 7.52D-03
 ErrMax= 7.52D-03  0.00D+00 EMaxC= 1.00D-01 BMatC= 1.97D-03 BMatP= 3.14D-02
 IDIUse=3 WtCom= 9.25D-01 WtEn= 7.52D-02
 Coeff-Com:  0.761D-01-0.158D-01-0.378D+00 0.132D+01
 Coeff-En:   0.000D+00 0.000D+00 0.000D+00 0.100D+01
 Coeff:      0.704D-01-0.146D-01-0.350D+00 0.129D+01
 RMSDP=6.08D-03 MaxDP=1.25D-01 DE=-1.17D-01 OVMax= 0.00D+00

 Cycle   5  Pass 1  IDiag  3:
 E= 0.484043332244482     Delta-E=       -0.016083054334 Rises=F Damp=F
 DIIS: error= 5.74D-03 at cycle   5 NSaved=   5.
 NSaved= 5 IEnMin= 5 EnMin= 0.484043332244482     IErMin= 5 ErrMin= 5.74D-03
 ErrMax= 5.74D-03  0.00D+00 EMaxC= 1.00D-01 BMatC= 1.45D-03 BMatP= 1.97D-03
 IDIUse=3 WtCom= 9.43D-01 WtEn= 5.74D-02
 Coeff-Com:  0.268D-02-0.255D-01 0.349D-01 0.556D-01 0.932D+00
 Coeff-En:   0.000D+00 0.000D+00 0.000D+00 0.000D+00 0.100D+01
 Coeff:      0.253D-02-0.240D-01 0.329D-01 0.524D-01 0.936D+00
 Gap=     0.211 Goal=   None    Shift=    0.000
 RMSDP=2.36D-03 MaxDP=3.49D-02 DE=-1.61D-02 OVMax= 5.75D-02

 Cycle   6  Pass 1  IDiag  3:
 E= 0.478962854408223     Delta-E=       -0.005080477836 Rises=F Damp=F
 DIIS: error= 6.13D-03 at cycle   6 NSaved=   6.
 NSaved= 6 IEnMin= 6 EnMin= 0.478962854408223     IErMin= 5 ErrMin= 5.74D-03
 ErrMax= 6.13D-03  0.00D+00 EMaxC= 1.00D-01 BMatC= 9.97D-04 BMatP= 1.45D-03
 IDIUse=3 WtCom= 9.43D-01 WtEn= 5.74D-02
 Coeff-Com:  0.281D-01-0.377D-02-0.161D+00 0.866D+00-0.254D+01 0.281D+01
 Coeff-En:   0.000D+00 0.000D+00 0.000D+00 0.000D+00 0.000D+00 0.100D+01
 Coeff:      0.265D-01-0.356D-02-0.152D+00 0.817D+00-0.240D+01 0.271D+01
 Gap=     0.199 Goal=   None    Shift=    0.000
 RMSDP=2.97D-03 MaxDP=2.82D-02 DE=-5.08D-03 OVMax= 6.01D-02

 Cycle   7  Pass 1  IDiag  3:
 E= 0.472341806965005     Delta-E=       -0.006621047443 Rises=F Damp=F
 DIIS: error= 2.31D-03 at cycle   7 NSaved=   7.
 NSaved= 7 IEnMin= 7 EnMin= 0.472341806965005     IErMin= 7 ErrMin= 2.31D-03
 ErrMax= 2.31D-03  0.00D+00 EMaxC= 1.00D-01 BMatC= 2.26D-04 BMatP= 9.97D-04
 IDIUse=3 WtCom= 9.77D-01 WtEn= 2.31D-02
 Coeff-Com:  0.138D-01 0.203D-02-0.695D-01 0.688D-01 0.148D+00-0.102D+01
 Coeff-Com:  0.186D+01
 Coeff-En:   0.000D+00 0.000D+00 0.000D+00 0.000D+00 0.000D+00 0.000D+00
 Coeff-En:   0.100D+01
 Coeff:      0.135D-01 0.199D-02-0.679D-01 0.672D-01 0.145D+00-0.996D+00
 Coeff:      0.184D+01
 Gap=     0.205 Goal=   None    Shift=    0.000
 RMSDP=2.70D-03 MaxDP=2.79D-02 DE=-6.62D-03 OVMax= 5.31D-02

 Cycle   8  Pass 1  IDiag  3:
 E= 0.469441406535793     Delta-E=       -0.002900400429 Rises=F Damp=F
 DIIS: error= 1.38D-03 at cycle   8 NSaved=   8.
 NSaved= 8 IEnMin= 8 EnMin= 0.469441406535793     IErMin= 8 ErrMin= 1.38D-03
 ErrMax= 1.38D-03  0.00D+00 EMaxC= 1.00D-01 BMatC= 4.49D-05 BMatP= 2.26D-04
 IDIUse=3 WtCom= 9.86D-01 WtEn= 1.38D-02
 Coeff-Com: -0.413D-03-0.756D-03 0.605D-02-0.630D-01 0.361D+00-0.114D+00
 Coeff-Com: -0.877D+00 0.169D+01
 Coeff-En:   0.000D+00 0.000D+00 0.000D+00 0.000D+00 0.000D+00 0.000D+00
 Coeff-En:   0.000D+00 0.100D+01
 Coeff:     -0.408D-03-0.746D-03 0.597D-02-0.621D-01 0.356D+00-0.112D+00
 Coeff:     -0.865D+00 0.168D+01
 Gap=     0.205 Goal=   None    Shift=    0.000
 RMSDP=1.35D-03 MaxDP=1.67D-02 DE=-2.90D-03 OVMax= 2.71D-02

 Cycle   9  Pass 1  IDiag  3:
 E= 0.468603451752074     Delta-E=       -0.000837954784 Rises=F Damp=F
 DIIS: error= 8.70D-04 at cycle   9 NSaved=   9.
 NSaved= 9 IEnMin= 9 EnMin= 0.468603451752074     IErMin= 9 ErrMin= 8.70D-04
 ErrMax= 8.70D-04  0.00D+00 EMaxC= 1.00D-01 BMatC= 2.07D-05 BMatP= 4.49D-05
 IDIUse=3 WtCom= 9.91D-01 WtEn= 8.70D-03
 Coeff-Com:  0.304D-02-0.519D-03-0.120D-01 0.446D-01-0.148D+00 0.102D-01
 Coeff-Com:  0.233D+00-0.113D+01 0.200D+01
 Coeff-En:   0.000D+00 0.000D+00 0.000D+00 0.000D+00 0.000D+00 0.000D+00
 Coeff-En:   0.000D+00 0.000D+00 0.100D+01
 Coeff:      0.302D-02-0.514D-03-0.119D-01 0.443D-01-0.147D+00 0.101D-01
 Coeff:      0.231D+00-0.112D+01 0.199D+01
 Gap=     0.204 Goal=   None    Shift=    0.000
 RMSDP=1.56D-03 MaxDP=1.87D-02 DE=-8.38D-04 OVMax= 3.30D-02

 Cycle  10  Pass 1  IDiag  3:
 E= 0.468054250296632     Delta-E=       -0.000549201455 Rises=F Damp=F
 DIIS: error= 6.43D-04 at cycle  10 NSaved=  10.
 NSaved=10 IEnMin=10 EnMin= 0.468054250296632     IErMin=10 ErrMin= 6.43D-04
 ErrMax= 6.43D-04  0.00D+00 EMaxC= 1.00D-01 BMatC= 9.19D-06 BMatP= 2.07D-05
 IDIUse=3 WtCom= 9.94D-01 WtEn= 6.43D-03
 Coeff-Com:  0.737D-03-0.928D-03-0.372D-02-0.873D-02 0.149D+00-0.281D+00
 Coeff-Com:  0.229D+00-0.440D-01-0.569D+00 0.153D+01
 Coeff-En:   0.000D+00 0.000D+00 0.000D+00 0.000D+00 0.000D+00 0.000D+00
 Coeff-En:   0.000D+00 0.000D+00 0.000D+00 0.100D+01
 Coeff:      0.732D-03-0.922D-03-0.370D-02-0.868D-02 0.148D+00-0.279D+00
 Coeff:      0.228D+00-0.437D-01-0.565D+00 0.152D+01
 Gap=     0.204 Goal=   None    Shift=    0.000
 RMSDP=8.04D-04 MaxDP=1.03D-02 DE=-5.49D-04 OVMax= 1.52D-02

 Cycle  11  Pass 1  IDiag  3:
 E= 0.467892588626455     Delta-E=       -0.000161661670 Rises=F Damp=F
 DIIS: error= 3.77D-04 at cycle  11 NSaved=  11.
 NSaved=11 IEnMin=11 EnMin= 0.467892588626455     IErMin=11 ErrMin= 3.77D-04
 ErrMax= 3.77D-04  0.00D+00 EMaxC= 1.00D-01 BMatC= 4.48D-06 BMatP= 9.19D-06
 IDIUse=3 WtCom= 9.96D-01 WtEn= 3.77D-03
 Coeff-Com:  0.957D-03-0.387D-03-0.379D-02-0.212D-02 0.453D-01-0.498D-01
 Coeff-Com: -0.187D-01 0.549D-01 0.173D+00-0.104D+01 0.185D+01
 Coeff-En:   0.000D+00 0.000D+00 0.000D+00 0.000D+00 0.000D+00 0.000D+00
 Coeff-En:   0.000D+00 0.000D+00 0.000D+00 0.000D+00 0.100D+01
 Coeff:      0.953D-03-0.386D-03-0.377D-02-0.211D-02 0.451D-01-0.496D-01
 Coeff:     -0.186D-01 0.547D-01 0.172D+00-0.104D+01 0.184D+01
 Gap=     0.203 Goal=   None    Shift=    0.000
 RMSDP=4.66D-04 MaxDP=5.60D-03 DE=-1.62D-04 OVMax= 9.57D-03

 Cycle  12  Pass 1  IDiag  3:
 E= 0.467816336427290     Delta-E=       -0.000076252199 Rises=F Damp=F
 DIIS: error= 3.06D-04 at cycle  12 NSaved=  12.
 NSaved=12 IEnMin=12 EnMin= 0.467816336427290     IErMin=12 ErrMin= 3.06D-04
 ErrMax= 3.06D-04  0.00D+00 EMaxC= 1.00D-01 BMatC= 2.17D-06 BMatP= 4.48D-06
 IDIUse=3 WtCom= 9.97D-01 WtEn= 3.06D-03
 Coeff-Com:  0.320D-04-0.931D-04-0.432D-03-0.723D-02 0.144D-01-0.396D-02
 Coeff-Com:  0.150D-01 0.813D-02-0.748D-01 0.385D+00-0.159D+01 0.225D+01
 Coeff-En:   0.000D+00 0.000D+00 0.000D+00 0.000D+00 0.000D+00 0.000D+00
 Coeff-En:   0.000D+00 0.000D+00 0.000D+00 0.000D+00 0.000D+00 0.100D+01
 Coeff:      0.319D-04-0.928D-04-0.431D-03-0.720D-02 0.144D-01-0.395D-02
 Coeff:      0.150D-01 0.810D-02-0.746D-01 0.384D+00-0.158D+01 0.225D+01
 Gap=     0.203 Goal=   None    Shift=    0.000
 RMSDP=4.34D-04 MaxDP=5.77D-03 DE=-7.63D-05 OVMax= 1.22D-02

 Cycle  13  Pass 1  IDiag  3:
 E= 0.467756823919103     Delta-E=       -0.000059512508 Rises=F Damp=F
 DIIS: error= 2.28D-04 at cycle  13 NSaved=  13.
 NSaved=13 IEnMin=13 EnMin= 0.467756823919103     IErMin=13 ErrMin= 2.28D-04
 ErrMax= 2.28D-04  0.00D+00 EMaxC= 1.00D-01 BMatC= 1.13D-06 BMatP= 2.17D-06
 IDIUse=3 WtCom= 9.98D-01 WtEn= 2.28D-03
 Coeff-Com: -0.210D-03-0.446D-04 0.130D-02-0.132D-01 0.338D-01-0.491D-01
 Coeff-Com:  0.738D-01-0.893D-01 0.490D-01-0.603D-02 0.308D+00-0.141D+01
 Coeff-Com:  0.210D+01
 Coeff-En:   0.000D+00 0.000D+00 0.000D+00 0.000D+00 0.000D+00 0.000D+00
 Coeff-En:   0.000D+00 0.000D+00 0.000D+00 0.000D+00 0.000D+00 0.000D+00
 Coeff-En:   0.100D+01
 Coeff:     -0.209D-03-0.445D-04 0.130D-02-0.132D-01 0.337D-01-0.490D-01
 Coeff:      0.736D-01-0.890D-01 0.489D-01-0.602D-02 0.308D+00-0.141D+01
 Coeff:      0.210D+01
 Gap=     0.204 Goal=   None    Shift=    0.000
 RMSDP=4.11D-04 MaxDP=5.69D-03 DE=-5.95D-05 OVMax= 1.23D-02

 Cycle  14  Pass 1  IDiag  3:
 E= 0.467720061594036     Delta-E=       -0.000036762325 Rises=F Damp=F
 DIIS: error= 1.35D-04 at cycle  14 NSaved=  14.
 NSaved=14 IEnMin=14 EnMin= 0.467720061594036     IErMin=14 ErrMin= 1.35D-04
 ErrMax= 1.35D-04  0.00D+00 EMaxC= 1.00D-01 BMatC= 5.52D-07 BMatP= 1.13D-06
 IDIUse=3 WtCom= 9.99D-01 WtEn= 1.35D-03
 Coeff-Com: -0.153D-03-0.671D-04 0.970D-03-0.103D-01 0.365D-01-0.501D-01
 Coeff-Com:  0.394D-01-0.156D-02-0.652D-01 0.103D+00-0.285D+00 0.726D+00
 Coeff-Com: -0.137D+01 0.188D+01
 Coeff-En:   0.000D+00 0.000D+00 0.000D+00 0.000D+00 0.000D+00 0.000D+00
 Coeff-En:   0.000D+00 0.000D+00 0.000D+00 0.000D+00 0.000D+00 0.000D+00
 Coeff-En:   0.000D+00 0.100D+01
 Coeff:     -0.153D-03-0.670D-04 0.968D-03-0.102D-01 0.364D-01-0.501D-01
 Coeff:      0.394D-01-0.156D-02-0.651D-01 0.103D+00-0.284D+00 0.726D+00
 Coeff:     -0.137D+01 0.188D+01
 Gap=     0.204 Goal=   None    Shift=    0.000
 RMSDP=2.52D-04 MaxDP=3.52D-03 DE=-3.68D-05 OVMax= 7.51D-03

 Cycle  15  Pass 1  IDiag  3:
 E= 0.467707067635615     Delta-E=       -0.000012993958 Rises=F Damp=F
 DIIS: error= 7.00D-05 at cycle  15 NSaved=  15.
 NSaved=15 IEnMin=15 EnMin= 0.467707067635615     IErMin=15 ErrMin= 7.00D-05
 ErrMax= 7.00D-05  0.00D+00 EMaxC= 1.00D-01 BMatC= 2.26D-07 BMatP= 5.52D-07
 IDIUse=1 WtCom= 1.00D+00 WtEn= 0.00D+00
 Coeff-Com: -0.312D-04-0.219D-04 0.181D-03-0.379D-02 0.140D-01-0.222D-01
 Coeff-Com:  0.195D-01-0.226D-01 0.228D-01-0.194D-01 0.122D-01-0.150D+00
 Coeff-Com:  0.413D+00-0.118D+01 0.191D+01
 Coeff:     -0.312D-04-0.219D-04 0.181D-03-0.379D-02 0.140D-01-0.222D-01
 Coeff:      0.195D-01-0.226D-01 0.228D-01-0.194D-01 0.122D-01-0.150D+00
 Coeff:      0.413D+00-0.118D+01 0.191D+01
 Gap=     0.205 Goal=   None    Shift=    0.000
 RMSDP=1.92D-04 MaxDP=2.62D-03 DE=-1.30D-05 OVMax= 5.50D-03

 Cycle  16  Pass 1  IDiag  3:
 E= 0.467702052481286     Delta-E=       -0.000005015154 Rises=F Damp=F
 DIIS: error= 3.63D-05 at cycle  16 NSaved=  16.
 NSaved=16 IEnMin=16 EnMin= 0.467702052481286     IErMin=16 ErrMin= 3.63D-05
 ErrMax= 3.63D-05  0.00D+00 EMaxC= 1.00D-01 BMatC= 8.43D-08 BMatP= 2.26D-07
 IDIUse=1 WtCom= 1.00D+00 WtEn= 0.00D+00
 Coeff-Com:  0.227D-05-0.111D-05 0.249D-05-0.136D-02 0.291D-02-0.853D-02
 Coeff-Com:  0.202D-01-0.294D-01 0.203D-01 0.125D-01-0.643D-01 0.595D-01
 Coeff-Com:  0.919D-01-0.131D+00-0.575D+00 0.160D+01
 Coeff:      0.227D-05-0.111D-05 0.249D-05-0.136D-02 0.291D-02-0.853D-02
 Coeff:      0.202D-01-0.294D-01 0.203D-01 0.125D-01-0.643D-01 0.595D-01
 Coeff:      0.919D-01-0.131D+00-0.575D+00 0.160D+01
 Gap=     0.204 Goal=   None    Shift=    0.000
 RMSDP=8.60D-05 MaxDP=1.14D-03 DE=-5.02D-06 OVMax= 2.27D-03

 Cycle  17  Pass 1  IDiag  3:
 E= 0.467700997825091     Delta-E=       -0.000001054656 Rises=F Damp=F
 DIIS: error= 2.55D-05 at cycle  17 NSaved=  17.
 NSaved=17 IEnMin=17 EnMin= 0.467700997825091     IErMin=17 ErrMin= 2.55D-05
 ErrMax= 2.55D-05  0.00D+00 EMaxC= 1.00D-01 BMatC= 2.46D-08 BMatP= 8.43D-08
 IDIUse=1 WtCom= 1.00D+00 WtEn= 0.00D+00
 Coeff-Com: -0.186D-04 0.898D-05 0.655D-04-0.262D-03-0.204D-02 0.207D-02
 Coeff-Com:  0.163D-02-0.735D-02 0.499D-02 0.129D-01-0.180D-01-0.258D-01
 Coeff-Com:  0.461D-01 0.321D-01 0.696D-01-0.794D+00 0.168D+01
 Coeff:     -0.186D-04 0.898D-05 0.655D-04-0.262D-03-0.204D-02 0.207D-02
 Coeff:      0.163D-02-0.735D-02 0.499D-02 0.129D-01-0.180D-01-0.258D-01
 Coeff:      0.461D-01 0.321D-01 0.696D-01-0.794D+00 0.168D+01
 Gap=     0.204 Goal=   None    Shift=    0.000
 RMSDP=3.36D-05 MaxDP=3.69D-04 DE=-1.05D-06 OVMax= 6.01D-04

 Cycle  18  Pass 1  IDiag  3:
 E= 0.467700760409002     Delta-E=       -0.000000237416 Rises=F Damp=F
 DIIS: error= 1.27D-05 at cycle  18 NSaved=  18.
 NSaved=18 IEnMin=18 EnMin= 0.467700760409002     IErMin=18 ErrMin= 1.27D-05
 ErrMax= 1.27D-05  0.00D+00 EMaxC= 1.00D-01 BMatC= 6.57D-09 BMatP= 2.46D-08
 IDIUse=1 WtCom= 1.00D+00 WtEn= 0.00D+00
 Coeff-Com: -0.257D-04-0.327D-05 0.165D-03-0.109D-02 0.390D-02-0.567D-02
 Coeff-Com:  0.564D-02-0.394D-02 0.347D-02-0.915D-02 0.178D-01-0.149D-01
 Coeff-Com:  0.645D-02-0.210D-01 0.532D-01 0.230D+00-0.116D+01 0.190D+01
 Coeff:     -0.257D-04-0.327D-05 0.165D-03-0.109D-02 0.390D-02-0.567D-02
 Coeff:      0.564D-02-0.394D-02 0.347D-02-0.915D-02 0.178D-01-0.149D-01
 Coeff:      0.645D-02-0.210D-01 0.532D-01 0.230D+00-0.116D+01 0.190D+01
 Gap=     0.204 Goal=   None    Shift=    0.000
 RMSDP=1.38D-05 MaxDP=1.57D-04 DE=-2.37D-07 OVMax= 2.35D-04

 Cycle  19  Pass 1  IDiag  3:
 E= 0.467700686759940     Delta-E=       -0.000000073649 Rises=F Damp=F
 DIIS: error= 3.44D-06 at cycle  19 NSaved=  19.
 NSaved=19 IEnMin=19 EnMin= 0.467700686759940     IErMin=19 ErrMin= 3.44D-06
 ErrMax= 3.44D-06  0.00D+00 EMaxC= 1.00D-01 BMatC= 9.36D-10 BMatP= 6.57D-09
 IDIUse=1 WtCom= 1.00D+00 WtEn= 0.00D+00
 Coeff-Com:  0.118D-04 0.344D-05-0.503D-04 0.301D-03-0.894D-03 0.187D-02
 Coeff-Com: -0.399D-02 0.425D-02-0.402D-02 0.646D-02-0.107D-01 0.769D-02
 Coeff-Com: -0.946D-02 0.190D-01-0.309D-01-0.445D-01 0.475D+00-0.111D+01
 Coeff-Com:  0.170D+01
 Coeff:      0.118D-04 0.344D-05-0.503D-04 0.301D-03-0.894D-03 0.187D-02
 Coeff:     -0.399D-02 0.425D-02-0.402D-02 0.646D-02-0.107D-01 0.769D-02
 Coeff:     -0.946D-02 0.190D-01-0.309D-01-0.445D-01 0.475D+00-0.111D+01
 Coeff:      0.170D+01
 Gap=     0.204 Goal=   None    Shift=    0.000
 RMSDP=6.32D-06 MaxDP=7.52D-05 DE=-7.36D-08 OVMax= 1.04D-04

 Cycle  20  Pass 1  IDiag  3:
 E= 0.467700676144091     Delta-E=       -0.000000010616 Rises=F Damp=F
 DIIS: error= 1.21D-06 at cycle  20 NSaved=  20.
 NSaved=20 IEnMin=20 EnMin= 0.467700676144091     IErMin=20 ErrMin= 1.21D-06
 ErrMax= 1.21D-06  0.00D+00 EMaxC= 1.00D-01 BMatC= 1.13D-10 BMatP= 9.36D-10
 IDIUse=1 WtCom= 1.00D+00 WtEn= 0.00D+00
 Coeff-Com: -0.483D-05-0.168D-05 0.181D-04-0.195D-03 0.672D-03-0.136D-02
 Coeff-Com:  0.241D-02-0.246D-02 0.215D-02-0.295D-02 0.381D-02-0.222D-02
 Coeff-Com:  0.403D-02-0.637D-02 0.777D-02 0.300D-03-0.872D-01 0.291D+00
 Coeff-Com: -0.708D+00 0.150D+01
 Coeff:     -0.483D-05-0.168D-05 0.181D-04-0.195D-03 0.672D-03-0.136D-02
 Coeff:      0.241D-02-0.246D-02 0.215D-02-0.295D-02 0.381D-02-0.222D-02
 Coeff:      0.403D-02-0.637D-02 0.777D-02 0.300D-03-0.872D-01 0.291D+00
 Coeff:     -0.708D+00 0.150D+01
 Gap=     0.204 Goal=   None    Shift=    0.000
 RMSDP=1.66D-06 MaxDP=1.70D-05 DE=-1.06D-08 OVMax= 3.66D-05

 Cycle  21  Pass 1  IDiag  3:
 E= 0.467700675272567     Delta-E=       -0.000000000872 Rises=F Damp=F
 DIIS: error= 4.93D-07 at cycle  21 NSaved=  20.
 NSaved=20 IEnMin=20 EnMin= 0.467700675272567     IErMin=20 ErrMin= 4.93D-07
 ErrMax= 4.93D-07  0.00D+00 EMaxC= 1.00D-01 BMatC= 1.66D-11 BMatP= 1.13D-10
 IDIUse=1 WtCom= 1.00D+00 WtEn= 0.00D+00
 Coeff-Com:  0.426D-05-0.161D-04 0.838D-04-0.221D-03 0.440D-03-0.769D-03
 Coeff-Com:  0.941D-03-0.106D-02 0.101D-02-0.333D-03-0.215D-03-0.108D-02
 Coeff-Com:  0.829D-03-0.875D-03 0.783D-02-0.244D-01 0.304D-01 0.353D-01
 Coeff-Com: -0.436D+00 0.139D+01
 Coeff:      0.426D-05-0.161D-04 0.838D-04-0.221D-03 0.440D-03-0.769D-03
 Coeff:      0.941D-03-0.106D-02 0.101D-02-0.333D-03-0.215D-03-0.108D-02
 Coeff:      0.829D-03-0.875D-03 0.783D-02-0.244D-01 0.304D-01 0.353D-01
 Coeff:     -0.436D+00 0.139D+01
 Gap=     0.204 Goal=   None    Shift=    0.000
 RMSDP=8.22D-07 MaxDP=9.17D-06 DE=-8.72D-10 OVMax= 1.43D-05

 Cycle  22  Pass 1  IDiag  3:
 E= 0.467700675122501     Delta-E=       -0.000000000150 Rises=F Damp=F
 DIIS: error= 1.67D-07 at cycle  22 NSaved=  20.
 NSaved=20 IEnMin=20 EnMin= 0.467700675122501     IErMin=20 ErrMin= 1.67D-07
 ErrMax= 1.67D-07  0.00D+00 EMaxC= 1.00D-01 BMatC= 2.05D-12 BMatP= 1.66D-11
 IDIUse=1 WtCom= 1.00D+00 WtEn= 0.00D+00
 Coeff-Com: -0.118D-05 0.201D-05-0.271D-04 0.134D-04 0.264D-05-0.122D-03
 Coeff-Com:  0.339D-03-0.236D-03-0.335D-03-0.499D-04 0.911D-03-0.501D-03
 Coeff-Com:  0.345D-03-0.409D-02 0.204D-01-0.503D-01 0.747D-01-0.146D-01
 Coeff-Com: -0.469D+00 0.144D+01
 Coeff:     -0.118D-05 0.201D-05-0.271D-04 0.134D-04 0.264D-05-0.122D-03
 Coeff:      0.339D-03-0.236D-03-0.335D-03-0.499D-04 0.911D-03-0.501D-03
 Coeff:      0.345D-03-0.409D-02 0.204D-01-0.503D-01 0.747D-01-0.146D-01
 Coeff:     -0.469D+00 0.144D+01
 Gap=     0.204 Goal=   None    Shift=    0.000
 RMSDP=2.65D-07 MaxDP=3.11D-06 DE=-1.50D-10 OVMax= 6.23D-06

 Cycle  23  Pass 1  IDiag  3:
 E= 0.467700675098854     Delta-E=       -0.000000000024 Rises=F Damp=F
 DIIS: error= 8.90D-08 at cycle  23 NSaved=  20.
 NSaved=20 IEnMin=20 EnMin= 0.467700675098854     IErMin=20 ErrMin= 8.90D-08
 ErrMax= 8.90D-08  0.00D+00 EMaxC= 1.00D-01 BMatC= 3.63D-13 BMatP= 2.05D-12
 IDIUse=1 WtCom= 1.00D+00 WtEn= 0.00D+00
 Coeff-Com: -0.452D-05 0.291D-04-0.452D-04 0.552D-04-0.237D-04-0.971D-04
 Coeff-Com:  0.194D-03-0.204D-04 0.197D-04-0.189D-03 0.125D-03 0.763D-04
 Coeff-Com:  0.662D-03-0.426D-02 0.141D-01-0.297D-01 0.872D-02 0.170D+00
 Coeff-Com: -0.788D+00 0.163D+01
 Coeff:     -0.452D-05 0.291D-04-0.452D-04 0.552D-04-0.237D-04-0.971D-04
 Coeff:      0.194D-03-0.204D-04 0.197D-04-0.189D-03 0.125D-03 0.763D-04
 Coeff:      0.662D-03-0.426D-02 0.141D-01-0.297D-01 0.872D-02 0.170D+00
 Coeff:     -0.788D+00 0.163D+01
 Gap=     0.204 Goal=   None    Shift=    0.000
 RMSDP=1.69D-07 MaxDP=2.50D-06 DE=-2.36D-11 OVMax= 4.11D-06

 Cycle  24  Pass 1  IDiag  3:
 E= 0.467700675094761     Delta-E=       -0.000000000004 Rises=F Damp=F
 DIIS: error= 4.19D-08 at cycle  24 NSaved=  20.
 NSaved=20 IEnMin=20 EnMin= 0.467700675094761     IErMin=20 ErrMin= 4.19D-08
 ErrMax= 4.19D-08  0.00D+00 EMaxC= 1.00D-01 BMatC= 9.69D-14 BMatP= 3.63D-13
 IDIUse=1 WtCom= 1.00D+00 WtEn= 0.00D+00
 Coeff-Com: -0.109D-04 0.201D-04-0.230D-04 0.161D-04 0.374D-04-0.132D-03
 Coeff-Com:  0.993D-04-0.555D-04 0.105D-04 0.752D-04 0.854D-04-0.464D-04
 Coeff-Com: -0.334D-03 0.134D-02-0.127D-02 0.130D-01-0.723D-01 0.256D+00
 Coeff-Com: -0.790D+00 0.159D+01
 Coeff:     -0.109D-04 0.201D-04-0.230D-04 0.161D-04 0.374D-04-0.132D-03
 Coeff:      0.993D-04-0.555D-04 0.105D-04 0.752D-04 0.854D-04-0.464D-04
 Coeff:     -0.334D-03 0.134D-02-0.127D-02 0.130D-01-0.723D-01 0.256D+00
 Coeff:     -0.790D+00 0.159D+01
 Gap=     0.204 Goal=   None    Shift=    0.000
 RMSDP=7.59D-08 MaxDP=1.10D-06 DE=-4.09D-12 OVMax= 1.69D-06

 Cycle  25  Pass 1  IDiag  3:
 E= 0.467700675089077     Delta-E=       -0.000000000006 Rises=F Damp=F
 DIIS: error= 2.22D-08 at cycle  25 NSaved=  20.
 NSaved=20 IEnMin=20 EnMin= 0.467700675089077     IErMin=20 ErrMin= 2.22D-08
 ErrMax= 2.22D-08  0.00D+00 EMaxC= 1.00D-01 BMatC= 2.18D-14 BMatP= 9.69D-14
 IDIUse=1 WtCom= 1.00D+00 WtEn= 0.00D+00
 Large coefficients: NSaved= 20 BigCof=    0.00 CofMax=   10.00 Det=-6.71D-15
 Inversion failed.  Reducing to 19 matrices.
 Large coefficients: NSaved= 19 BigCof=    0.00 CofMax=   10.00 Det=-7.19D-15
 Inversion failed.  Reducing to 18 matrices.
 Large coefficients: NSaved= 18 BigCof=    0.00 CofMax=   10.00 Det=-7.22D-15
 Inversion failed.  Reducing to 17 matrices.
 Large coefficients: NSaved= 17 BigCof=    0.00 CofMax=   10.00 Det=-7.39D-15
 Inversion failed.  Reducing to 16 matrices.
 Large coefficients: NSaved= 16 BigCof=    0.00 CofMax=   10.00 Det=-7.90D-15
 Inversion failed.  Reducing to 15 matrices.
 Coeff-Com: -0.214D-04 0.148D-04 0.304D-04-0.363D-04-0.743D-04-0.161D-03
 Coeff-Com:  0.115D-02-0.307D-02 0.607D-02-0.959D-02 0.193D-01-0.343D-01
 Coeff-Com:  0.127D+00-0.789D+00 0.168D+01
 Coeff:     -0.214D-04 0.148D-04 0.304D-04-0.363D-04-0.743D-04-0.161D-03
 Coeff:      0.115D-02-0.307D-02 0.607D-02-0.959D-02 0.193D-01-0.343D-01
 Coeff:      0.127D+00-0.789D+00 0.168D+01
 Gap=     0.204 Goal=   None    Shift=    0.000
 RMSDP=4.06D-08 MaxDP=5.17D-07 DE=-5.68D-12 OVMax= 1.02D-06

 Cycle  26  Pass 1  IDiag  3:
 E= 0.467700675089986     Delta-E=        0.000000000001 Rises=F Damp=F
 DIIS: error= 9.38D-09 at cycle  26 NSaved=  16.
 NSaved=16 IEnMin=15 EnMin= 0.467700675089077     IErMin=16 ErrMin= 9.38D-09
 ErrMax= 9.38D-09  0.00D+00 EMaxC= 1.00D-01 BMatC= 4.97D-15 BMatP= 2.18D-14
 IDIUse=1 WtCom= 1.00D+00 WtEn= 0.00D+00
 Large coefficients: NSaved= 16 BigCof=    0.00 CofMax=   10.00 Det=-1.26D-15
 Inversion failed.  Reducing to 15 matrices.
 Coeff-Com:  0.395D-04-0.756D-04 0.401D-04 0.319D-04 0.873D-04-0.614D-03
 Coeff-Com:  0.149D-02-0.317D-02 0.500D-02-0.333D-02-0.521D-02 0.228D-02
 Coeff-Com:  0.232D+00-0.101D+01 0.179D+01
 Coeff:      0.395D-04-0.756D-04 0.401D-04 0.319D-04 0.873D-04-0.614D-03
 Coeff:      0.149D-02-0.317D-02 0.500D-02-0.333D-02-0.521D-02 0.228D-02
 Coeff:      0.232D+00-0.101D+01 0.179D+01
 Gap=     0.204 Goal=   None    Shift=    0.000
 RMSDP=1.98D-08 MaxDP=2.35D-07 DE= 9.09D-13 OVMax= 4.89D-07

 Cycle  27  Pass 1  IDiag  3:
 E= 0.467700675092715     Delta-E=        0.000000000003 Rises=F Damp=F
 DIIS: error= 3.77D-09 at cycle  27 NSaved=  16.
 NSaved=16 IEnMin=14 EnMin= 0.467700675089077     IErMin=16 ErrMin= 3.77D-09
 ErrMax= 3.77D-09  0.00D+00 EMaxC= 1.00D-01 BMatC= 8.73D-16 BMatP= 4.97D-15
 IDIUse=1 WtCom= 1.00D+00 WtEn= 0.00D+00
 Large coefficients: NSaved= 16 BigCof=    0.00 CofMax=   10.00 Det=-2.10D-16
 Inversion failed.  Reducing to 15 matrices.
 Coeff-Com: -0.181D-05-0.904D-05 0.103D-04-0.256D-04 0.118D-03-0.243D-03
 Coeff-Com:  0.595D-03-0.163D-02 0.422D-02-0.799D-02 0.141D-01-0.921D-01
 Coeff-Com:  0.434D+00-0.107D+01 0.172D+01
 Coeff:     -0.181D-05-0.904D-05 0.103D-04-0.256D-04 0.118D-03-0.243D-03
 Coeff:      0.595D-03-0.163D-02 0.422D-02-0.799D-02 0.141D-01-0.921D-01
 Coeff:      0.434D+00-0.107D+01 0.172D+01
 Gap=     0.204 Goal=   None    Shift=    0.000
 RMSDP=4.89D-09 MaxDP=5.25D-08 DE= 2.73D-12 OVMax= 7.47D-08

 Cycle  28  Pass 2  IDiag  1:
 SCF Done:  E(RAM1) =  0.467700675093     A.U. after   28 cycles
            NFock= 27  Conv=0.49D-08     -V/T= 1.0020
 KE=-2.361831537753D+02 PE=-7.610730642099D+02 EE= 4.681866815438D+02
 Leave Link  502 at Sat May 24 08:10:54 2025, MaxMem=  3758096384 cpu:               0.4 elap:               0.1
 (Enter /apps/easybuild-2022/easybuild/software/Compiler/NVHPC/22.11-CUDA-11.7.0/Gaussian/g16c01-CUDA-11.7.0/g16/l508.exe)
 QCSCF skips out because SCF is already converged.
 Leave Link  508 at Sat May 24 08:10:54 2025, MaxMem=  3758096384 cpu:               0.1 elap:               0.0
 (Enter /apps/easybuild-2022/easybuild/software/Compiler/NVHPC/22.11-CUDA-11.7.0/Gaussian/g16c01-CUDA-11.7.0/g16/l701.exe)
 ... and contract with generalized density number  0.
 Compute integral first derivatives.
 Leave Link  701 at Sat May 24 08:10:55 2025, MaxMem=  3758096384 cpu:               0.1 elap:               0.0
 (Enter /apps/easybuild-2022/easybuild/software/Compiler/NVHPC/22.11-CUDA-11.7.0/Gaussian/g16c01-CUDA-11.7.0/g16/l702.exe)
 L702 exits ... SP integral derivatives will be done elsewhere.
 Leave Link  702 at Sat May 24 08:10:55 2025, MaxMem=  3758096384 cpu:               0.1 elap:               0.0
 (Enter /apps/easybuild-2022/easybuild/software/Compiler/NVHPC/22.11-CUDA-11.7.0/Gaussian/g16c01-CUDA-11.7.0/g16/l703.exe)
 Integral derivatives from FoFJK, PRISM(SPDF).
 Compute integral first derivatives, UseDBF=F ICtDFT=           0.
 Calling FoFJK, ICntrl=      2127 FMM=F ISym2X=0 I1Cent= 0 IOpClX= 0 NMat=1 NMatS=1 NMatT=0.
 FoFJK:  IHMeth= 8 ICntrl=    2127 DoSepK=F KAlg= 0 I1Cent=           0 FoldK=F
 IRaf=         0 NMat=       1 IRICut=       1 DoRegI=T DoRafI=F ISym2E= 0 IDoP0=3 IntGTp=3.
 FoFCou: FMM=F IPFlag=           0 FMFlag=      100000 FMFlg1=         800
         NFxFlg=           0 DoJE=F BraDBF=F KetDBF=F FulRan=T
         wScrn=  0.000000 ICntrl=      2127 IOpCl=  0 I1Cent=           0 NGrid=           0
         NMat0=    1 NMatS0=      1 NMatT0=    0 NMatD0=    1 NMtDS0=    0 NMtDT0=    0
 Symmetry not used in FoFCou.
 Leave Link  703 at Sat May 24 08:10:55 2025, MaxMem=  3758096384 cpu:               0.1 elap:               0.0
 (Enter /apps/easybuild-2022/easybuild/software/Compiler/NVHPC/22.11-CUDA-11.7.0/Gaussian/g16c01-CUDA-11.7.0/g16/l716.exe)
 Dipole        =-6.23057565D-02 9.66803098D-01-4.30379193D-01
 -------------------------------------------------------------------
 Center     Atomic                   Forces (Hartrees/Bohr)
 Number     Number              X              Y              Z
 -------------------------------------------------------------------
      1        6           0.019477689    0.028518941    0.042707655
      2        6           0.005732719    0.061409365   -0.017994523
      3        9           0.032992009    0.052187200    0.001306461
      4        9          -0.002751819   -0.017866984    0.035961560
      5       16           0.074176684   -0.047405624    0.030130845
      6        8          -0.089410747   -0.026618570    0.017898810
      7        8          -0.021488483   -0.015111423   -0.012461295
      8        8           0.003314115    0.010839267   -0.036452994
      9        9          -0.033377926    0.027689377   -0.059405304
     10        9           0.045679296   -0.012924316   -0.015890914
     11        9          -0.031579052   -0.058966901    0.012974140
     12        1          -0.002764486   -0.001750332    0.001225557
 -------------------------------------------------------------------
 Cartesian Forces:  Max     0.089410747 RMS     0.035407226
 Z-matrix is all fixed cartesians, so copy forces.
 Force constants in Cartesian coordinates: 
                1             2             3             4             5 
      1  0.942941D+00
      2  0.985338D-02  0.946287D+00
      3  0.104790D-01 -0.984746D-01  0.908592D+00
      4 -0.107697D+00 -0.486806D-02 -0.414343D-02  0.209826D+00
      5 -0.687494D-02 -0.225411D+00 -0.693167D-01  0.816063D-02  0.812688D+00
      6 -0.740775D-02 -0.788996D-01 -0.250583D+00 -0.159852D-01 -0.127718D+00
      7  0.000000D+00  0.000000D+00  0.000000D+00 -0.352414D-03 -0.509807D-04
      8  0.000000D+00  0.000000D+00  0.000000D+00  0.279841D-03  0.404822D-04
      9  0.000000D+00  0.000000D+00  0.000000D+00 -0.141746D-02 -0.205051D-03
     10  0.759871D-02  0.123365D-02 -0.126301D-02 -0.430779D-01 -0.138692D-01
     11  0.180755D-02  0.245583D-01 -0.195461D-01 -0.123090D-01 -0.212865D+00
     12  0.127927D-02  0.122144D-01 -0.973577D-02  0.233649D-01  0.203061D+00
     13  0.125237D-01 -0.114342D-02  0.437921D-03 -0.104795D+00  0.122931D-01
     14  0.447399D-03 -0.920879D-03  0.713640D-03  0.618268D-02 -0.388970D+00
     15  0.147700D-02 -0.216109D-01  0.170853D-01 -0.595366D-02  0.449667D-02
     16  0.114110D-02  0.324446D-04 -0.684642D-04  0.101519D-01  0.298044D-03
     17  0.165072D-03  0.469347D-05 -0.990412D-05  0.239992D-01  0.344537D-03
     18  0.316815D-02  0.900793D-04 -0.190085D-03 -0.171306D-02  0.427495D-03
     19  0.184404D-02  0.524311D-04 -0.110640D-03  0.118422D-01  0.581012D-03
     20 -0.738478D-04 -0.209970D-05  0.443077D-05 -0.220728D-01 -0.120878D-02
     21 -0.319231D-02 -0.907665D-04  0.191535D-03  0.579022D-02  0.437245D-03
     22 -0.308515D-02 -0.877195D-04  0.185105D-03 -0.197410D-02 -0.133507D-03
     23 -0.995432D-04 -0.283029D-05  0.597246D-05  0.664247D-02  0.128303D-02
     24 -0.103437D-03 -0.294101D-05  0.620610D-05  0.164531D-02  0.324070D-03
     25 -0.183453D+00  0.936491D-01 -0.194417D+00  0.405823D-02 -0.361979D-02
     26  0.900349D-01 -0.157724D+00  0.150911D+00 -0.140443D-01  0.210071D-01
     27 -0.198637D+00  0.160786D+00 -0.430727D+00 -0.889823D-02  0.119293D-01
     28 -0.481478D+00  0.116103D+00  0.139249D+00  0.143953D-01 -0.371043D-03
     29  0.123291D+00 -0.111959D+00 -0.495955D-01  0.194327D-01  0.113712D-03
     30  0.147670D+00 -0.496330D-01 -0.131171D+00  0.248569D-01 -0.115207D-02
     31 -0.190335D+00 -0.214825D+00  0.496519D-01  0.394969D-02  0.346821D-02
     32 -0.218551D+00 -0.474831D+00  0.853081D-01 -0.575962D-02 -0.684041D-02
     33  0.452670D-01  0.756209D-01 -0.103468D+00 -0.161989D-01 -0.222408D-01
     34  0.000000D+00  0.000000D+00  0.000000D+00  0.367344D-02  0.118524D-03
     35  0.000000D+00  0.000000D+00  0.000000D+00 -0.564363D-02 -0.182093D-03
     36  0.000000D+00  0.000000D+00  0.000000D+00 -0.134742D-02 -0.434748D-04
                6             7             8             9            10 
      6  0.884005D+00
      7 -0.978446D-03  0.736000D-01
      8  0.776953D-03  0.690203D-01  0.115310D+00
      9 -0.393544D-02 -0.170574D-02  0.324917D-02  0.129980D-01
     10  0.272356D-01  0.000000D+00  0.000000D+00  0.000000D+00  0.247841D-01
     11  0.207070D+00  0.000000D+00  0.000000D+00  0.000000D+00  0.123702D-01
     12 -0.520818D+00  0.000000D+00  0.000000D+00  0.000000D+00 -0.242612D-01
     13 -0.566467D-02 -0.879879D-02  0.647913D-02  0.392456D-02  0.105853D-01
     14  0.651261D-02 -0.189582D-01  0.139827D-01  0.671124D-02  0.251523D-03
     15 -0.142422D+00 -0.959932D-03  0.676961D-03  0.274353D-02 -0.184181D-02
     16 -0.379790D-03 -0.649162D-01 -0.754082D-01 -0.268095D-02 -0.120384D-02
     17 -0.968415D-02 -0.501678D-01 -0.129209D+00 -0.103855D-01 -0.174150D-03
     18  0.117239D-01  0.246488D-02 -0.376669D-02 -0.165492D-01 -0.334236D-02
     19  0.525146D-02 -0.172160D-04  0.136707D-04 -0.692453D-04 -0.194544D-02
     20 -0.128589D-01 -0.744573D-03  0.591242D-03 -0.299477D-02  0.779086D-04
     21  0.630536D-02  0.936973D-03 -0.744021D-03  0.376863D-02  0.336786D-02
     22 -0.176985D-02  0.484526D-03 -0.384747D-03  0.194883D-02  0.325480D-02
     23  0.263033D-01  0.901248D-03 -0.715653D-03  0.362495D-02  0.105017D-03
     24  0.666817D-02  0.242265D-03 -0.192375D-03  0.974425D-03  0.109125D-03
     25  0.271906D-02  0.000000D+00  0.000000D+00  0.000000D+00  0.107016D-02
     26 -0.161358D-01  0.000000D+00  0.000000D+00  0.000000D+00  0.445268D-03
     27 -0.912851D-02  0.000000D+00  0.000000D+00  0.000000D+00 -0.393239D-03
     28 -0.244772D-03  0.000000D+00  0.000000D+00  0.000000D+00 -0.126184D-04
     29 -0.817889D-03  0.000000D+00  0.000000D+00  0.000000D+00 -0.936638D-03
     30 -0.170626D-04  0.000000D+00  0.000000D+00  0.000000D+00  0.743366D-03
     31 -0.289871D-02  0.000000D+00  0.000000D+00  0.000000D+00 -0.105336D-02
     32  0.564114D-02  0.000000D+00  0.000000D+00  0.000000D+00  0.496448D-03
     33  0.182469D-01  0.000000D+00  0.000000D+00  0.000000D+00 -0.354312D-03
     34  0.123161D-03  0.000000D+00  0.000000D+00  0.000000D+00  0.000000D+00
     35 -0.189217D-03  0.000000D+00  0.000000D+00  0.000000D+00  0.000000D+00
     36 -0.451754D-04  0.000000D+00  0.000000D+00  0.000000D+00  0.000000D+00
               11            12            13            14            15 
     11  0.187205D+00
     12 -0.215835D+00  0.516631D+00
     13 -0.187205D-02 -0.390204D-03  0.147165D+01
     14  0.110208D-02  0.558072D-03  0.177152D+00  0.108559D+01
     15  0.283062D-01  0.139132D-01  0.149274D+00  0.178224D+00  0.108477D+01
     16 -0.405082D-04 -0.810160D-04 -0.624854D+00  0.251092D+00  0.185673D+00
     17 -0.585997D-05 -0.117199D-04  0.230688D+00 -0.228875D+00 -0.932994D-01
     18 -0.112467D-03 -0.224933D-03  0.176713D+00 -0.948188D-01 -0.132066D+00
     19 -0.654622D-04 -0.130924D-03 -0.679610D+00 -0.402263D+00 -0.337399D+00
     20  0.262155D-05  0.524307D-05 -0.410021D+00 -0.373128D+00 -0.233924D+00
     21  0.113325D-03  0.226649D-03 -0.334490D+00 -0.227153D+00 -0.262662D+00
     22  0.109521D-03  0.219041D-03 -0.919265D-01 -0.144966D-01  0.919439D-02
     23  0.353373D-05  0.706741D-05 -0.808176D-02 -0.118747D+00  0.134724D+00
     24  0.367196D-05  0.734388D-05 -0.108523D-01  0.113284D+00 -0.585969D+00
     25 -0.731973D-04  0.179817D-04 -0.941564D-03 -0.267713D-04  0.564926D-04
     26 -0.304556D-04  0.748174D-05 -0.391761D-03 -0.111389D-04  0.235052D-04
     27  0.268968D-04 -0.660750D-05  0.345984D-03  0.983730D-05 -0.207586D-04
     28  0.000000D+00  0.000000D+00  0.111021D-04  0.000000D+00  0.000000D+00
     29  0.640644D-04 -0.157381D-04  0.824084D-03  0.234310D-04 -0.494439D-04
     30 -0.508449D-04  0.124906D-04 -0.654037D-03 -0.185961D-04  0.392413D-04
     31  0.720476D-04 -0.176993D-04  0.926776D-03  0.263508D-04 -0.556053D-04
     32 -0.339561D-04  0.834170D-05 -0.436791D-03 -0.124192D-04  0.262068D-04
     33  0.242343D-04 -0.595342D-05  0.311735D-03  0.886350D-05 -0.187037D-04
     34  0.000000D+00  0.000000D+00  0.152251D-01  0.592237D-03  0.536235D-03
     35  0.000000D+00  0.000000D+00 -0.548994D-02  0.997078D-02  0.240582D-02
     36  0.000000D+00  0.000000D+00  0.210444D-01  0.159685D-01  0.460764D-02
               16            17            18            19            20 
     16  0.685657D+00
     17 -0.182999D+00  0.339008D+00
     18 -0.188099D+00  0.102187D+00  0.135444D+00
     19 -0.107842D-01 -0.148968D-01 -0.122430D-01  0.671470D+00
     20  0.105083D-01  0.135313D-01  0.132360D-01  0.414186D+00  0.350247D+00
     21  0.640366D-02  0.100439D-01  0.567988D-02  0.343909D+00  0.233782D+00
     22  0.667651D-02 -0.314012D-02  0.239855D-01  0.989592D-02  0.483584D-02
     23 -0.635311D-02 -0.136613D-03 -0.186772D-01 -0.174829D-02  0.150420D-01
     24 -0.145253D-02 -0.114288D-03 -0.415999D-02 -0.195889D-03  0.396123D-02
     25  0.000000D+00  0.000000D+00  0.000000D+00  0.000000D+00  0.000000D+00
     26  0.000000D+00  0.000000D+00  0.000000D+00  0.000000D+00  0.000000D+00
     27  0.000000D+00  0.000000D+00  0.000000D+00  0.000000D+00  0.000000D+00
     28  0.000000D+00  0.000000D+00  0.000000D+00  0.000000D+00  0.000000D+00
     29  0.000000D+00  0.000000D+00  0.000000D+00  0.000000D+00  0.000000D+00
     30  0.000000D+00  0.000000D+00  0.000000D+00  0.000000D+00  0.000000D+00
     31  0.000000D+00  0.000000D+00  0.000000D+00  0.000000D+00  0.000000D+00
     32  0.000000D+00  0.000000D+00  0.000000D+00  0.000000D+00  0.000000D+00
     33  0.000000D+00  0.000000D+00  0.000000D+00  0.000000D+00  0.000000D+00
     34 -0.186802D-02 -0.347463D-02 -0.934019D-03 -0.269491D-02  0.330388D-02
     35  0.286991D-02  0.533821D-02  0.143497D-02  0.414028D-02 -0.507587D-02
     36  0.685190D-03  0.127450D-02  0.342598D-03  0.988492D-03 -0.121186D-02
               21            22            23            24            25 
     21  0.251248D+00
     22 -0.235002D-01  0.396598D+00
     23 -0.151981D-01  0.214090D+00  0.312282D+00
     24 -0.447314D-02 -0.123655D+00 -0.221101D+00  0.709591D+00
     25  0.000000D+00  0.000000D+00  0.000000D+00  0.000000D+00  0.171547D+00
     26  0.000000D+00  0.000000D+00  0.000000D+00  0.000000D+00 -0.966056D-01
     27  0.000000D+00  0.000000D+00  0.000000D+00  0.000000D+00  0.202250D+00
     28  0.000000D+00  0.000000D+00  0.000000D+00  0.000000D+00 -0.734636D-02
     29  0.000000D+00  0.000000D+00  0.000000D+00  0.000000D+00  0.106414D-01
     30  0.000000D+00  0.000000D+00  0.000000D+00  0.000000D+00 -0.297909D-01
     31  0.000000D+00  0.000000D+00  0.000000D+00  0.000000D+00  0.150654D-01
     32  0.000000D+00  0.000000D+00  0.000000D+00  0.000000D+00 -0.396512D-02
     33  0.000000D+00  0.000000D+00  0.000000D+00  0.000000D+00  0.191645D-01
     34  0.775031D-03 -0.319924D+00 -0.205456D+00  0.134263D+00  0.000000D+00
     35 -0.119071D-02 -0.200793D+00 -0.209009D+00  0.103837D+00  0.000000D+00
     36 -0.284281D-03  0.113392D+00  0.903103D-01 -0.122646D+00  0.000000D+00
               26            27            28            29            30 
     26  0.143571D+00
     27 -0.165784D+00  0.419312D+00
     28  0.162639D-02  0.490423D-02  0.482169D+00
     29 -0.196640D-02 -0.692056D-02 -0.122188D+00  0.944210D-01
     30  0.627127D-02  0.197350D-01 -0.146620D+00  0.468826D-01  0.112423D+00
     31  0.189351D-01  0.427654D-03 -0.773801D-02 -0.310646D-01  0.379433D-02
     32 -0.484578D-02 -0.476579D-04  0.482892D-02  0.193036D-01 -0.229934D-02
     33  0.247070D-01  0.835823D-03  0.271185D-02  0.105166D-01 -0.102167D-02
     34  0.000000D+00  0.000000D+00  0.000000D+00  0.000000D+00  0.000000D+00
     35  0.000000D+00  0.000000D+00  0.000000D+00  0.000000D+00  0.000000D+00
     36  0.000000D+00  0.000000D+00  0.000000D+00  0.000000D+00  0.000000D+00
               31            32            33            34            35 
     31  0.179184D+00
     32  0.223388D+00  0.467260D+00
     33 -0.509018D-01 -0.886368D-01  0.854319D-01
     34  0.000000D+00  0.000000D+00  0.000000D+00  0.305589D+00
     35  0.000000D+00  0.000000D+00  0.000000D+00  0.204916D+00  0.198958D+00
     36  0.000000D+00  0.000000D+00  0.000000D+00 -0.134763D+00 -0.106298D+00
               36 
     36  0.118025D+00
 Leave Link  716 at Sat May 24 08:10:55 2025, MaxMem=  3758096384 cpu:               0.1 elap:               0.0
 (Enter /apps/easybuild-2022/easybuild/software/Compiler/NVHPC/22.11-CUDA-11.7.0/Gaussian/g16c01-CUDA-11.7.0/g16/l103.exe)

 GradGradGradGradGradGradGradGradGradGradGradGradGradGradGradGradGradGrad
 Berny optimization.
 Search for a local minimum.
 Step number   1 out of a maximum of    2
 All quantities printed in internal units (Hartrees-Bohrs-Radians)
 Second derivative matrix not updated -- first step.
 ITU=  0
     Eigenvalues ---    0.00235   0.00533   0.00906   0.01334   0.01823
     Eigenvalues ---    0.03963   0.04342   0.05475   0.05705   0.06367
     Eigenvalues ---    0.07911   0.09115   0.12329   0.12997   0.13583
     Eigenvalues ---    0.16302   0.19572   0.24646   0.27324   0.34332
     Eigenvalues ---    0.42463   0.72967   0.92545   1.20924   1.39245
     Eigenvalues ---    1.44845   1.51210   1.67517   1.82295   2.61194
 Quadratic step=7.262D-01 exceeds max=3.000D-01 adjusted using Lamda=-7.106D-02.
 Angle between NR and scaled steps=  49.19 degrees.
 Angle between quadratic step and forces=  38.06 degrees.
 Linear search not attempted -- first point.
 B after Tr=    -0.000559    0.002093   -0.000868
         Rot=    1.000000   -0.000018    0.000107    0.000366 Ang=  -0.04 deg.
 Variable       Old X    -DE/DX   Delta X   Delta X   Delta X     New X
                                 (Linear)    (Quad)   (Total)
    X1        3.75084   0.01948   0.00000   0.01972   0.01820   3.76905
    Y1       -1.97062   0.02852   0.00000   0.00121   0.00063  -1.96999
    Z1       -2.25486   0.04271   0.00000  -0.00827  -0.00841  -2.26326
    X2        3.83454   0.00573   0.00000   0.03474   0.03406   3.86860
    Y2       -0.19797   0.06141   0.00000   0.04083   0.04009  -0.15788
    Z2       -0.01991  -0.01799   0.00000   0.02395   0.02391   0.00400
    X3       -0.66800   0.03299   0.00000   0.07412   0.07459  -0.59341
    Y3        1.43912   0.05219   0.00000   0.16064   0.16314   1.60226
    Z3        0.64434   0.00131   0.00000   0.00863   0.00770   0.65204
    X4        3.72160  -0.00275   0.00000   0.00225   0.00026   3.72186
    Y4       -1.30132  -0.01787   0.00000  -0.00081  -0.00152  -1.30284
    Z4        2.20989   0.03596   0.00000   0.06605   0.06593   2.27582
    X5        3.73682   0.07418   0.00000  -0.00093   0.00068   3.73750
    Y5        2.96517  -0.04741   0.00000  -0.03741  -0.03805   2.92712
    Z5       -0.14952   0.03013   0.00000   0.02111   0.02115  -0.12837
    X6        1.27973  -0.08941   0.00000  -0.10219  -0.09998   1.17975
    Y6        4.06364  -0.02662   0.00000  -0.07569  -0.07449   3.98915
    Z6        0.67823   0.01790   0.00000   0.02687   0.02640   0.70463
    X7        5.73573  -0.02149   0.00000  -0.03744  -0.03506   5.70068
    Y7        4.33220  -0.01511   0.00000  -0.01624  -0.01835   4.31384
    Z7        0.97352  -0.01246   0.00000   0.00500   0.00551   0.97903
    X8        3.80869   0.00331   0.00000   0.00061   0.00339   3.81208
    Y8        3.69037   0.01084   0.00000  -0.00912  -0.00970   3.68067
    Z8       -2.99106  -0.03645   0.00000  -0.02856  -0.02848  -3.01954
    X9        2.61533  -0.03338   0.00000  -0.04188  -0.04223   2.57310
    Y9       -1.02165   0.02769   0.00000   0.03717   0.03754  -0.98410
    Z9       -4.27052  -0.05941   0.00000  -0.09053  -0.09088  -4.36141
   X10        6.05656   0.04568   0.00000   0.08708   0.08523   6.14180
   Y10       -2.64378  -0.01292   0.00000  -0.02033  -0.02262  -2.66640
   Z10       -3.06390  -0.01589   0.00000  -0.03664  -0.03629  -3.10019
   X11        2.57368  -0.03158   0.00000  -0.02927  -0.03254   2.54114
   Y11       -4.12616  -0.05897   0.00000  -0.08318  -0.08289  -4.20905
   Z11       -1.77546   0.01297   0.00000   0.02073   0.02025  -1.75521
   X12        5.14750  -0.00276   0.00000  -0.01030  -0.00660   5.14090
   Y12        4.72840  -0.00175   0.00000   0.00775   0.00622   4.73462
   Z12       -3.68886   0.00123   0.00000  -0.00718  -0.00678  -3.69564
         Item               Value     Threshold  Converged?
 Maximum Force            0.089411     0.000450     NO 
 RMS     Force            0.035407     0.000300     NO 
 Maximum Displacement     0.163140     0.001800     NO 
 RMS     Displacement     0.049997     0.001200     NO 
 Predicted change in Energy=-2.830087D-02
 GradGradGradGradGradGradGradGradGradGradGradGradGradGradGradGradGradGrad

 Leave Link  103 at Sat May 24 08:10:55 2025, MaxMem=  3758096384 cpu:               0.1 elap:               0.0
 (Enter /apps/easybuild-2022/easybuild/software/Compiler/NVHPC/22.11-CUDA-11.7.0/Gaussian/g16c01-CUDA-11.7.0/g16/l9999.exe)
 Unable to Open any file for archive entry.
 1\1\GINC-SPARTAN-BM167\Force\RAM1\ZDO\C2H1F5O3S1\AKHALILOV\24-May-2025
 \0\\#P am1 Symm(None) scf(xqc) pop(None) force\\Gaussian input prepare
 d by ASE\\0,1\C,1.9848604247,-1.0428073902,-1.1932186581\C,2.029148660
 4,-0.1047621818,-0.0105337576\F,-0.35348946,0.7615471656,0.3409695922\
 F,1.9693867023,-0.6886283237,1.1694241845\S,1.9774406316,1.569102499,-
 0.0791243135\O,0.6772031307,2.1503844614,0.3589051802\O,3.0352182268,2
 .2925002187,0.5151649871\O,2.01547307,1.9528604701,-1.5828019643\F,1.3
 839720797,-0.5406320604,-2.2598633236\F,3.204995302,-1.3990285407,-1.6
 213444444\F,1.3619335129,-2.183470827,-0.9395338544\H,2.7239397189,2.5
 021615089,-1.952062628\\Version=ES64L-G16RevC.01\HF=0.4677007\RMSD=4.8
 90e-09\RMSF=3.541e-02\Dipole=-0.0623058,0.9668031,-0.4303792\PG=Unknow
 n\\@
 The archive entry for this job was punched.


 LET US LEARN TO DREAM, GENTLEMEN, THEN PERHAPS WE SHALL
 DISCOVER THE TRUTH;  BUT LET US BEWARE OF PUBLISHING
 OUR DREAMS ABROAD BEFORE THEY HAVE BEEN SCRUTINIZED
 BY OUR VIGILANT INTELLECT ... LET US ALWAYS ALLOW
 THE FRUIT TO HANG UNTIL IT IS RIPE.  UNRIPE FRUIT
 BRINGS EVEN THE GROWER BUT LITTLE PROFIT; IT DAMAGES
 THE HEALTH OF THOSE WHO CONSUME IT; IT ENDANGERS
 PARTICULARLY THE YOUTH WHO CANNOT YET DISTINGUISH
 BETWEEN RIPE AND UNRIPE FRUIT.

                                  -- KEKULE, 1890
 Job cpu time:       0 days  0 hours  0 minutes  1.8 seconds.
 Elapsed time:       0 days  0 hours  0 minutes  0.6 seconds.
 File lengths (MBytes):  RWF=      6 Int=      0 D2E=      0 Chk=      2 Scr=      1
 Normal termination of Gaussian 16 at Sat May 24 08:10:55 2025.
done
