 Entering Gaussian System, Link 0=g16
 Initial command:
 /apps/easybuild-2022/easybuild/software/Compiler/NVHPC/22.11-CUDA-11.7.0/Gaussian/g16c01-CUDA-11.7.0/g16/l1.exe "/tmp/Gau-192983.inp" -scrdir="/tmp/"
 Entering Link 1 = /apps/easybuild-2022/easybuild/software/Compiler/NVHPC/22.11-CUDA-11.7.0/Gaussian/g16c01-CUDA-11.7.0/g16/l1.exe PID=    192994.
  
 Copyright (c) 1988-2019, Gaussian, Inc.  All Rights Reserved.
  
 This is part of the Gaussian(R) 16 program.  It is based on
 the Gaussian(R) 09 system (copyright 2009, Gaussian, Inc.),
 the Gaussian(R) 03 system (copyright 2003, Gaussian, Inc.),
 the Gaussian(R) 98 system (copyright 1998, Gaussian, Inc.),
 the Gaussian(R) 94 system (copyright 1995, Gaussian, Inc.),
 the Gaussian 92(TM) system (copyright 1992, Gaussian, Inc.),
 the Gaussian 90(TM) system (copyright 1990, Gaussian, Inc.),
 the Gaussian 88(TM) system (copyright 1988, Gaussian, Inc.),
 the Gaussian 86(TM) system (copyright 1986, Carnegie Mellon
 University), and the Gaussian 82(TM) system (copyright 1983,
 Carnegie Mellon University). Gaussian is a federally registered
 trademark of Gaussian, Inc.
  
 This software contains proprietary and confidential information,
 including trade secrets, belonging to Gaussian, Inc.
  
 This software is provided under written license and may be
 used, copied, transmitted, or stored only in accord with that
 written license.
  
 The following legend is applicable only to US Government
 contracts under FAR:
  
                    RESTRICTED RIGHTS LEGEND
  
 Use, reproduction and disclosure by the US Government is
 subject to restrictions as set forth in subparagraphs (a)
 and (c) of the Commercial Computer Software - Restricted
 Rights clause in FAR 52.227-19.
  
 Gaussian, Inc.
 340 Quinnipiac St., Bldg. 40, Wallingford CT 06492
  
  
 ---------------------------------------------------------------
 Warning -- This program may not be used in any manner that
 competes with the business of Gaussian, Inc. or will provide
 assistance to any competitor of Gaussian, Inc.  The licensee
 of this program is prohibited from giving any competitor of
 Gaussian, Inc. access to this program.  By using this program,
 the user acknowledges that Gaussian, Inc. is engaged in the
 business of creating and licensing software in the field of
 computational chemistry and represents and warrants to the
 licensee that it is not a competitor of Gaussian, Inc. and that
 it will not use this program in any manner prohibited above.
 ---------------------------------------------------------------
  

 Cite this work as:
 Gaussian 16, Revision C.01,
 M. J. Frisch, G. W. Trucks, H. B. Schlegel, G. E. Scuseria, 
 M. A. Robb, J. R. Cheeseman, G. Scalmani, V. Barone, 
 G. A. Petersson, H. Nakatsuji, X. Li, M. Caricato, A. V. Marenich, 
 J. Bloino, B. G. Janesko, R. Gomperts, B. Mennucci, H. P. Hratchian, 
 J. V. Ortiz, A. F. Izmaylov, J. L. Sonnenberg, D. Williams-Young, 
 F. Ding, F. Lipparini, F. Egidi, J. Goings, B. Peng, A. Petrone, 
 T. Henderson, D. Ranasinghe, V. G. Zakrzewski, J. Gao, N. Rega, 
 G. Zheng, W. Liang, M. Hada, M. Ehara, K. Toyota, R. Fukuda, 
 J. Hasegawa, M. Ishida, T. Nakajima, Y. Honda, O. Kitao, H. Nakai, 
 T. Vreven, K. Throssell, J. A. Montgomery, Jr., J. E. Peralta, 
 F. Ogliaro, M. J. Bearpark, J. J. Heyd, E. N. Brothers, K. N. Kudin, 
 V. N. Staroverov, T. A. Keith, R. Kobayashi, J. Normand, 
 K. Raghavachari, A. P. Rendell, J. C. Burant, S. S. Iyengar, 
 J. Tomasi, M. Cossi, J. M. Millam, M. Klene, C. Adamo, R. Cammi, 
 J. W. Ochterski, R. L. Martin, K. Morokuma, O. Farkas, 
 J. B. Foresman, and D. J. Fox, Gaussian, Inc., Wallingford CT, 2019.
 
 ******************************************
 Gaussian 16:  ES64L-G16RevC.01  3-Jul-2019
                24-May-2025 
 ******************************************
 %mem=28GB
 %nprocshared=8
 Will use up to    8 processors via shared memory.
 ----------------------------------------------------------------------
 #P M062X/Def2TZVPP Symm(None) scf(xqc) pop(None) opt(NoFreeze,TS,CalcA
 ll,NoEigentest,MaxCycle=999)
 ----------------------------------------------------------------------
 1/5=1,6=999,10=4,11=1,18=20,26=3,29=2000,38=1/1,3;
 2/9=110,12=2,15=3,17=6,18=5,40=1/2;
 3/5=44,7=202,11=2,25=1,30=1,71=2,74=-55,140=1/1,2,3;
 4//1;
 5/5=2,8=3,13=1,38=5/2,8;
 8/6=4,10=90,11=11/1;
 11/6=1,8=1,9=11,15=111,16=1,31=1/1,2,10;
 10/6=1,31=1/2;
 7/10=1,25=1,30=1/1,2,3,16;
 1/5=1,6=999,10=4,11=1,18=20,26=3/3(3);
 2/9=110,15=3/2;
 7/8=1,9=1,25=1,30=1,44=-1/16;
 99//99;
 2/9=110,15=3/2;
 3/5=44,7=202,11=2,25=1,30=1,71=2,74=-55,140=1/1,2,3;
 4/5=5,16=3,69=1/1;
 5/5=2,8=3,13=1,38=5/2,8;
 8/6=4,10=90,11=11/1;
 11/6=1,8=1,9=11,15=111,16=1,31=1/1,2,10;
 10/6=1,31=1/2;
 7/10=1,25=1,30=1/1,2,3,16;
 1/5=1,6=999,10=4,11=1,18=20,26=3/3(-8);
 2/9=110,15=3/2;
 7/8=1,9=1,25=1,30=1,44=-1/16;
 99//99;
 Leave Link    1 at Sat May 24 07:27:22 2025, MaxMem=  3758096384 cpu:               0.0 elap:               0.0
 (Enter /apps/easybuild-2022/easybuild/software/Compiler/NVHPC/22.11-CUDA-11.7.0/Gaussian/g16c01-CUDA-11.7.0/g16/l101.exe)
 ------------------------------
 Gaussian input prepared by ASE
 ------------------------------
 Symbolic Z-matrix:
 Charge =  0 Multiplicity = 1
 C                    -0.17453  -1.00562  -1.1753 
 C                     0.        0.        0. 
 F                    -0.59075   1.15942  -0.28301 
 F                    -0.62345  -0.41975   1.078 
 S                     1.85215   0.        0. 
 O                     2.57465  -0.17421   1.21583 
 O                     1.93301  -0.22719  -1.43855 
 O                     1.90314   1.62211   0. 
 F                    -0.6866   -2.13572  -1.03095 
 F                     1.45688  -1.88003  -0.01167 
 F                    -0.03876  -0.73327  -2.39704 
 H                     2.24725   2.10118   0.76242 
 
 ITRead=  0  0  0  0  0  0  0  0  0  0  0  0
 MicOpt= -1 -1 -1 -1 -1 -1 -1 -1 -1 -1 -1 -1
 NAtoms=     12 NQM=       12 NQMF=       0 NMMI=      0 NMMIF=      0
                NMic=       0 NMicF=      0.
                    Isotopes and Nuclear Properties:
 (Nuclear quadrupole moments (NQMom) in fm**2, nuclear magnetic moments (NMagM)
  in nuclear magnetons)

  Atom         1           2           3           4           5           6           7           8           9          10
 IAtWgt=          12          12          19          19          32          16          16          16          19          19
 AtmWgt=  12.0000000  12.0000000  18.9984032  18.9984032  31.9720718  15.9949146  15.9949146  15.9949146  18.9984032  18.9984032
 NucSpn=           0           0           1           1           0           0           0           0           1           1
 AtZEff=  -0.0000000  -0.0000000  -0.0000000  -0.0000000  -0.0000000  -0.0000000  -0.0000000  -0.0000000  -0.0000000  -0.0000000
 NQMom=    0.0000000   0.0000000   0.0000000   0.0000000   0.0000000   0.0000000   0.0000000   0.0000000   0.0000000   0.0000000
 NMagM=    0.0000000   0.0000000   2.6288670   2.6288670   0.0000000   0.0000000   0.0000000   0.0000000   2.6288670   2.6288670
 AtZNuc=   6.0000000   6.0000000   9.0000000   9.0000000  16.0000000   8.0000000   8.0000000   8.0000000   9.0000000   9.0000000

  Atom        11          12
 IAtWgt=          19           1
 AtmWgt=  18.9984032   1.0078250
 NucSpn=           1           1
 AtZEff=  -0.0000000  -0.0000000
 NQMom=    0.0000000   0.0000000
 NMagM=    2.6288670   2.7928460
 AtZNuc=   9.0000000   1.0000000
 Leave Link  101 at Sat May 24 07:27:22 2025, MaxMem=  3758096384 cpu:               0.3 elap:               0.2
 (Enter /apps/easybuild-2022/easybuild/software/Compiler/NVHPC/22.11-CUDA-11.7.0/Gaussian/g16c01-CUDA-11.7.0/g16/l103.exe)

 GradGradGradGradGradGradGradGradGradGradGradGradGradGradGradGradGradGrad
 Berny optimization.
 Initialization pass.
                           ----------------------------
                           !    Initial Parameters    !
                           ! (Angstroms and Degrees)  !
 --------------------------                            --------------------------
 ! Name  Definition              Value          Derivative Info.                !
 --------------------------------------------------------------------------------
 ! R1    R(1,2)                  1.5566         calculate D2E/DX2 analytically  !
 ! R2    R(1,9)                  1.2491         calculate D2E/DX2 analytically  !
 ! R3    R(1,11)                 1.2591         calculate D2E/DX2 analytically  !
 ! R4    R(2,3)                  1.3317         calculate D2E/DX2 analytically  !
 ! R5    R(2,4)                  1.3141         calculate D2E/DX2 analytically  !
 ! R6    R(2,5)                  1.8521         calculate D2E/DX2 analytically  !
 ! R7    R(5,6)                  1.425          calculate D2E/DX2 analytically  !
 ! R8    R(5,7)                  1.4586         calculate D2E/DX2 analytically  !
 ! R9    R(5,8)                  1.6229         calculate D2E/DX2 analytically  !
 ! R10   R(5,10)                 1.9212         calculate D2E/DX2 analytically  !
 ! R11   R(8,12)                 0.9639         calculate D2E/DX2 analytically  !
 ! A1    A(2,1,9)              122.9021         calculate D2E/DX2 analytically  !
 ! A2    A(2,1,11)             125.5077         calculate D2E/DX2 analytically  !
 ! A3    A(9,1,11)             110.6131         calculate D2E/DX2 analytically  !
 ! A4    A(1,2,3)              110.6261         calculate D2E/DX2 analytically  !
 ! A5    A(1,2,4)              111.0888         calculate D2E/DX2 analytically  !
 ! A6    A(1,2,5)               96.4375         calculate D2E/DX2 analytically  !
 ! A7    A(3,2,4)              104.0028         calculate D2E/DX2 analytically  !
 ! A8    A(3,2,5)              116.335          calculate D2E/DX2 analytically  !
 ! A9    A(4,2,5)              118.3216         calculate D2E/DX2 analytically  !
 ! A10   A(2,5,6)              120.4658         calculate D2E/DX2 analytically  !
 ! A11   A(2,5,7)               93.1778         calculate D2E/DX2 analytically  !
 ! A12   A(2,5,8)               91.8005         calculate D2E/DX2 analytically  !
 ! A13   A(2,5,10)              78.127          calculate D2E/DX2 analytically  !
 ! A14   A(6,5,7)              142.5918         calculate D2E/DX2 analytically  !
 ! A15   A(6,5,8)               96.1001         calculate D2E/DX2 analytically  !
 ! A16   A(6,5,10)              89.4191         calculate D2E/DX2 analytically  !
 ! A17   A(7,5,8)               98.8552         calculate D2E/DX2 analytically  !
 ! A18   A(7,5,10)              81.5465         calculate D2E/DX2 analytically  !
 ! A19   A(5,8,12)             120.5276         calculate D2E/DX2 analytically  !
 ! A20   L(8,5,10,2,-1)        169.9274         calculate D2E/DX2 analytically  !
 ! A21   L(8,5,10,2,-2)        179.6443         calculate D2E/DX2 analytically  !
 ! D1    D(9,1,2,3)           -123.9699         calculate D2E/DX2 analytically  !
 ! D2    D(9,1,2,4)             -8.9928         calculate D2E/DX2 analytically  !
 ! D3    D(9,1,2,5)            114.7327         calculate D2E/DX2 analytically  !
 ! D4    D(11,1,2,3)            43.6429         calculate D2E/DX2 analytically  !
 ! D5    D(11,1,2,4)           158.62           calculate D2E/DX2 analytically  !
 ! D6    D(11,1,2,5)           -77.6545         calculate D2E/DX2 analytically  !
 ! D7    D(1,2,5,6)           -131.2943         calculate D2E/DX2 analytically  !
 ! D8    D(1,2,5,7)             31.5768         calculate D2E/DX2 analytically  !
 ! D9    D(1,2,5,8)            130.5513         calculate D2E/DX2 analytically  !
 ! D10   D(1,2,5,10)           -49.093          calculate D2E/DX2 analytically  !
 ! D11   D(3,2,5,6)            111.8717         calculate D2E/DX2 analytically  !
 ! D12   D(3,2,5,7)            -85.2572         calculate D2E/DX2 analytically  !
 ! D13   D(3,2,5,8)             13.7173         calculate D2E/DX2 analytically  !
 ! D14   D(3,2,5,10)          -165.927          calculate D2E/DX2 analytically  !
 ! D15   D(4,2,5,6)            -13.1208         calculate D2E/DX2 analytically  !
 ! D16   D(4,2,5,7)            149.7503         calculate D2E/DX2 analytically  !
 ! D17   D(4,2,5,8)           -111.2751         calculate D2E/DX2 analytically  !
 ! D18   D(4,2,5,10)            69.0805         calculate D2E/DX2 analytically  !
 ! D19   D(2,5,8,12)           113.3341         calculate D2E/DX2 analytically  !
 ! D20   D(6,5,8,12)            -7.5646         calculate D2E/DX2 analytically  !
 ! D21   D(7,5,8,12)          -153.167          calculate D2E/DX2 analytically  !
 --------------------------------------------------------------------------------
 Trust Radius=3.00D-01 FncErr=1.00D-07 GrdErr=1.00D-06 EigMax=2.50D+02 EigMin=1.00D-04
 Number of steps in this run=    100 maximum allowed number of steps=    100.
 Search for a saddle point of order  1.
 GradGradGradGradGradGradGradGradGradGradGradGradGradGradGradGradGradGrad

 Leave Link  103 at Sat May 24 07:27:22 2025, MaxMem=  3758096384 cpu:               0.1 elap:               0.0
 (Enter /apps/easybuild-2022/easybuild/software/Compiler/NVHPC/22.11-CUDA-11.7.0/Gaussian/g16c01-CUDA-11.7.0/g16/l202.exe)
                          Input orientation:                          
 ---------------------------------------------------------------------
 Center     Atomic      Atomic             Coordinates (Angstroms)
 Number     Number       Type             X           Y           Z
 ---------------------------------------------------------------------
      1          6           0       -0.174527   -1.005621   -1.175298
      2          6           0        0.000000    0.000000    0.000000
      3          9           0       -0.590754    1.159422   -0.283009
      4          9           0       -0.623455   -0.419754    1.077996
      5         16           0        1.852148    0.000000    0.000000
      6          8           0        2.574653   -0.174215    1.215830
      7          8           0        1.933007   -0.227188   -1.438546
      8          8           0        1.903137    1.622112    0.000000
      9          9           0       -0.686604   -2.135717   -1.030948
     10          9           0        1.456881   -1.880028   -0.011670
     11          9           0       -0.038763   -0.733266   -2.397042
     12          1           0        2.247245    2.101177    0.762416
 ---------------------------------------------------------------------
                    Distance matrix (angstroms):
                    1          2          3          4          5
     1  C    0.000000
     2  C    1.556618   0.000000
     3  F    2.378411   1.331670   0.000000
     4  F    2.371098   1.314140   2.084994   0.000000
     5  S    2.549512   1.852148   2.718846   2.732558   0.000000
     6  O    3.737207   2.852618   3.747653   3.210480   1.424994
     7  O    2.262069   2.420236   3.102792   3.592430   1.458618
     8  O    3.550070   2.500636   2.552189   3.422712   1.622913
     9  F    1.249070   2.468920   3.380317   2.719589   3.474104
    10  F    2.186346   2.378475   3.674873   2.765424   1.921165
    11  F    1.259075   2.506989   2.890692   3.537802   3.139910
    12  H    4.389979   3.169596   3.167658   3.833484   2.269874
                    6          7          8          9         10
     6  O    0.000000
     7  O    2.731341   0.000000
     8  O    2.270675   2.343121   0.000000
     9  F    4.419422   3.266646   4.678770   0.000000
    10  F    2.380329   2.234849   3.530477   2.387222   0.000000
    11  F    4.493921   2.250046   3.881314   2.062227   3.040068
    12  H    2.343115   3.219358   0.963946   5.456638   4.132055
                   11         12
    11  F    0.000000
    12  H    4.821004   0.000000
 Symmetry turned off by external request.
 Stoichiometry    C2HF5O3S
 Rotational constants (GHZ):           1.4425289           0.9591942           0.8963773
 Leave Link  202 at Sat May 24 07:27:22 2025, MaxMem=  3758096384 cpu:               0.1 elap:               0.0
 (Enter /apps/easybuild-2022/easybuild/software/Compiler/NVHPC/22.11-CUDA-11.7.0/Gaussian/g16c01-CUDA-11.7.0/g16/l301.exe)
 Standard basis: def2TZVPP (5D, 7F)
 Ernie: Thresh=  0.10000D-02 Tol=  0.10000D-05 Strict=F.
   366 basis functions,   596 primitive gaussians,   423 cartesian basis functions
    49 alpha electrons       49 beta electrons
       nuclear repulsion energy       947.6429530224 Hartrees.
 IExCor= 4336 DFT=T Ex+Corr=M062X ExCW=0 ScaHFX=  0.540000
 ScaDFX=  1.000000  1.000000  1.000000  1.000000 ScalE2=  1.000000  1.000000
 IRadAn=      5 IRanWt=     -1 IRanGd=            0 ICorTp=0 IEmpDi=  4
 NAtoms=   12 NActive=   12 NUniq=   12 SFac= 1.00D+00 NAtFMM=   60 NAOKFM=F Big=F
 Integral buffers will be    131072 words long.
 Raffenetti 2 integral format.
 Two-electron integral symmetry is turned off.
 Leave Link  301 at Sat May 24 07:27:22 2025, MaxMem=  3758096384 cpu:               0.1 elap:               0.0
 (Enter /apps/easybuild-2022/easybuild/software/Compiler/NVHPC/22.11-CUDA-11.7.0/Gaussian/g16c01-CUDA-11.7.0/g16/l302.exe)
 NPDir=0 NMtPBC=     1 NCelOv=     1 NCel=       1 NClECP=     1 NCelD=      1
         NCelK=      1 NCelE2=     1 NClLst=     1 CellRange=     0.0.
 One-electron integrals computed using PRISM.
   1 Symmetry operations used in ECPInt.
 ECPInt:  NShTT=    8515 NPrTT=   27988 LenC2=    8054 LenP2D=   19645.
 LDataN:  DoStor=T MaxTD1= 6 Len=  172
 NBasis=   366 RedAO= T EigKep=  3.60D-04  NBF=   366
 NBsUse=   366 1.00D-06 EigRej= -1.00D+00 NBFU=   366
 Precomputing XC quadrature grid using
 IXCGrd= 4 IRadAn=           5 IRanWt=          -1 IRanGd=           0 AccXCQ= 0.00D+00.
 Generated NRdTot=       0 NPtTot=           0 NUsed=           0 NTot=          32
 NSgBfM=   420   419   420   420   420 MxSgAt=    12 MxSgA2=    12.
 Leave Link  302 at Sat May 24 07:27:22 2025, MaxMem=  3758096384 cpu:               0.9 elap:               0.2
 (Enter /apps/easybuild-2022/easybuild/software/Compiler/NVHPC/22.11-CUDA-11.7.0/Gaussian/g16c01-CUDA-11.7.0/g16/l303.exe)
 DipDrv:  MaxL=1.
 Leave Link  303 at Sat May 24 07:27:22 2025, MaxMem=  3758096384 cpu:               0.1 elap:               0.0
 (Enter /apps/easybuild-2022/easybuild/software/Compiler/NVHPC/22.11-CUDA-11.7.0/Gaussian/g16c01-CUDA-11.7.0/g16/l401.exe)
 ExpMin= 9.52D-02 ExpMax= 6.07D+04 ExpMxC= 2.07D+03 IAcc=3 IRadAn=         5 AccDes= 0.00D+00
 Harris functional with IExCor= 1009 and IRadAn=       5 diagonalized for initial guess.
 HarFok:  IExCor= 1009 AccDes= 0.00D+00 IRadAn=         5 IDoV= 1 UseB2=F ITyADJ=14
 ICtDFT=  3500011 ScaDFX=  1.000000  1.000000  1.000000  1.000000
 FoFCou: FMM=F IPFlag=           0 FMFlag=      100000 FMFlg1=           0
         NFxFlg=           0 DoJE=T BraDBF=F KetDBF=T FulRan=T
         wScrn=  0.000000 ICntrl=       500 IOpCl=  0 I1Cent=   200000004 NGrid=           0
         NMat0=    1 NMatS0=      1 NMatT0=    0 NMatD0=    1 NMtDS0=    0 NMtDT0=    0
 Symmetry not used in FoFCou.
 Harris En= -1199.23905099541    
 JPrj=0 DoOrth=F DoCkMO=F.
 Leave Link  401 at Sat May 24 07:27:23 2025, MaxMem=  3758096384 cpu:               4.4 elap:               0.7
 (Enter /apps/easybuild-2022/easybuild/software/Compiler/NVHPC/22.11-CUDA-11.7.0/Gaussian/g16c01-CUDA-11.7.0/g16/l502.exe)
 Keep R1 ints in memory in canonical form, NReq=2293447020.
 FoFCou: FMM=F IPFlag=           0 FMFlag=           0 FMFlg1=           0
         NFxFlg=           0 DoJE=F BraDBF=F KetDBF=F FulRan=T
         wScrn=  0.000000 ICntrl=       600 IOpCl=  0 I1Cent=           0 NGrid=           0
         NMat0=    1 NMatS0=  67161 NMatT0=    0 NMatD0=    1 NMtDS0=    0 NMtDT0=    0
 Symmetry not used in FoFCou.
 Two-electron integral symmetry not used.
 Closed shell SCF:
 Using DIIS extrapolation, IDIIS=  1040.
 NGot=  3758096384 LenX=  1502398648 LenY=  1502219278
 Requested convergence on RMS density matrix=1.00D-08 within  32 cycles.
 Requested convergence on MAX density matrix=1.00D-06.
 Requested convergence on             energy=1.00D-06.
 No special actions if energy rises.
 Integral accuracy reduced to 1.0D-05 until final iterations.

 Cycle   1  Pass 0  IDiag  1:
 E= -1199.34861101875    
 DIIS: error= 1.87D-02 at cycle   1 NSaved=   1.
 NSaved= 1 IEnMin= 1 EnMin= -1199.34861101875     IErMin= 1 ErrMin= 1.87D-02
 ErrMax= 1.87D-02  0.00D+00 EMaxC= 1.00D-01 BMatC= 7.12D-01 BMatP= 7.12D-01
 IDIUse=3 WtCom= 8.13D-01 WtEn= 1.87D-01
 Coeff-Com:  0.100D+01
 Coeff-En:   0.100D+01
 Coeff:      0.100D+01
 Gap=     0.222 Goal=   None    Shift=    0.000
 GapD=    0.222 DampG=1.000 DampE=0.500 DampFc=0.5000 IDamp=-1.
 Damping current iteration by 5.00D-01
 RMSDP=3.58D-03 MaxDP=2.68D-01              OVMax= 3.63D-01

 Cycle   2  Pass 0  IDiag  1:
 E= -1199.43221951785     Delta-E=       -0.083608499100 Rises=F Damp=T
 DIIS: error= 7.14D-03 at cycle   2 NSaved=   2.
 NSaved= 2 IEnMin= 2 EnMin= -1199.43221951785     IErMin= 2 ErrMin= 7.14D-03
 ErrMax= 7.14D-03  0.00D+00 EMaxC= 1.00D-01 BMatC= 8.40D-02 BMatP= 7.12D-01
 IDIUse=3 WtCom= 9.29D-01 WtEn= 7.14D-02
 Coeff-Com:  0.160D+00 0.840D+00
 Coeff-En:   0.385D+00 0.615D+00
 Coeff:      0.176D+00 0.824D+00
 Gap=     0.214 Goal=   None    Shift=    0.000
 RMSDP=9.61D-04 MaxDP=7.75D-02 DE=-8.36D-02 OVMax= 2.83D-01

 Cycle   3  Pass 0  IDiag  1:
 E= -1199.72469341215     Delta-E=       -0.292473894303 Rises=F Damp=F
 DIIS: error= 3.98D-03 at cycle   3 NSaved=   3.
 NSaved= 3 IEnMin= 3 EnMin= -1199.72469341215     IErMin= 3 ErrMin= 3.98D-03
 ErrMax= 3.98D-03  0.00D+00 EMaxC= 1.00D-01 BMatC= 2.48D-02 BMatP= 8.40D-02
 IDIUse=3 WtCom= 9.60D-01 WtEn= 3.98D-02
 Coeff-Com: -0.329D-01 0.303D+00 0.730D+00
 Coeff-En:   0.000D+00 0.000D+00 0.100D+01
 Coeff:     -0.315D-01 0.291D+00 0.741D+00
 Gap=     0.253 Goal=   None    Shift=    0.000
 RMSDP=4.95D-04 MaxDP=2.29D-02 DE=-2.92D-01 OVMax= 4.15D-02

 Cycle   4  Pass 0  IDiag  1:
 E= -1199.73896753047     Delta-E=       -0.014274118322 Rises=F Damp=F
 DIIS: error= 2.24D-03 at cycle   4 NSaved=   4.
 NSaved= 4 IEnMin= 4 EnMin= -1199.73896753047     IErMin= 4 ErrMin= 2.24D-03
 ErrMax= 2.24D-03  0.00D+00 EMaxC= 1.00D-01 BMatC= 7.27D-03 BMatP= 2.48D-02
 IDIUse=3 WtCom= 9.78D-01 WtEn= 2.24D-02
 Coeff-Com: -0.427D-01 0.936D-01 0.400D+00 0.549D+00
 Coeff-En:   0.000D+00 0.000D+00 0.108D+00 0.892D+00
 Coeff:     -0.418D-01 0.915D-01 0.394D+00 0.556D+00
 Gap=     0.251 Goal=   None    Shift=    0.000
 RMSDP=1.76D-04 MaxDP=7.54D-03 DE=-1.43D-02 OVMax= 1.78D-02

 Cycle   5  Pass 0  IDiag  1:
 E= -1199.74356764240     Delta-E=       -0.004600111928 Rises=F Damp=F
 DIIS: error= 5.46D-04 at cycle   5 NSaved=   5.
 NSaved= 5 IEnMin= 5 EnMin= -1199.74356764240     IErMin= 5 ErrMin= 5.46D-04
 ErrMax= 5.46D-04  0.00D+00 EMaxC= 1.00D-01 BMatC= 4.47D-04 BMatP= 7.27D-03
 IDIUse=3 WtCom= 9.95D-01 WtEn= 5.46D-03
 Coeff-Com: -0.154D-01 0.201D-01 0.874D-01 0.238D+00 0.670D+00
 Coeff-En:   0.000D+00 0.000D+00 0.000D+00 0.000D+00 0.100D+01
 Coeff:     -0.153D-01 0.199D-01 0.870D-01 0.236D+00 0.672D+00
 Gap=     0.253 Goal=   None    Shift=    0.000
 RMSDP=5.04D-05 MaxDP=1.88D-03 DE=-4.60D-03 OVMax= 7.98D-03

 Cycle   6  Pass 0  IDiag  1:
 E= -1199.74390461590     Delta-E=       -0.000336973499 Rises=F Damp=F
 DIIS: error= 1.82D-04 at cycle   6 NSaved=   6.
 NSaved= 6 IEnMin= 6 EnMin= -1199.74390461590     IErMin= 6 ErrMin= 1.82D-04
 ErrMax= 1.82D-04  0.00D+00 EMaxC= 1.00D-01 BMatC= 4.97D-05 BMatP= 4.47D-04
 IDIUse=3 WtCom= 9.98D-01 WtEn= 1.82D-03
 Coeff-Com: -0.173D-02-0.833D-03-0.173D-01 0.265D-01 0.269D+00 0.724D+00
 Coeff-En:   0.000D+00 0.000D+00 0.000D+00 0.000D+00 0.000D+00 0.100D+01
 Coeff:     -0.173D-02-0.832D-03-0.172D-01 0.265D-01 0.269D+00 0.725D+00
 Gap=     0.254 Goal=   None    Shift=    0.000
 RMSDP=2.38D-05 MaxDP=7.82D-04 DE=-3.37D-04 OVMax= 4.67D-03

 Cycle   7  Pass 0  IDiag  1:
 E= -1199.74396082370     Delta-E=       -0.000056207800 Rises=F Damp=F
 DIIS: error= 1.07D-04 at cycle   7 NSaved=   7.
 NSaved= 7 IEnMin= 7 EnMin= -1199.74396082370     IErMin= 7 ErrMin= 1.07D-04
 ErrMax= 1.07D-04  0.00D+00 EMaxC= 1.00D-01 BMatC= 9.22D-06 BMatP= 4.97D-05
 IDIUse=3 WtCom= 9.99D-01 WtEn= 1.07D-03
 Coeff-Com:  0.182D-02-0.390D-02-0.261D-01-0.332D-01 0.290D-02 0.333D+00
 Coeff-Com:  0.726D+00
 Coeff-En:   0.000D+00 0.000D+00 0.000D+00 0.000D+00 0.000D+00 0.000D+00
 Coeff-En:   0.100D+01
 Coeff:      0.181D-02-0.390D-02-0.261D-01-0.332D-01 0.290D-02 0.332D+00
 Coeff:      0.726D+00
 Gap=     0.253 Goal=   None    Shift=    0.000
 RMSDP=1.22D-05 MaxDP=4.26D-04 DE=-5.62D-05 OVMax= 2.99D-03

 Cycle   8  Pass 0  IDiag  1:
 E= -1199.74397469670     Delta-E=       -0.000013873001 Rises=F Damp=F
 DIIS: error= 2.53D-05 at cycle   8 NSaved=   8.
 NSaved= 8 IEnMin= 8 EnMin= -1199.74397469670     IErMin= 8 ErrMin= 2.53D-05
 ErrMax= 2.53D-05  0.00D+00 EMaxC= 1.00D-01 BMatC= 9.28D-07 BMatP= 9.22D-06
 IDIUse=1 WtCom= 1.00D+00 WtEn= 0.00D+00
 Coeff-Com:  0.570D-03-0.585D-03-0.431D-02-0.124D-01-0.353D-01-0.125D-01
 Coeff-Com:  0.221D+00 0.843D+00
 Coeff:      0.570D-03-0.585D-03-0.431D-02-0.124D-01-0.353D-01-0.125D-01
 Coeff:      0.221D+00 0.843D+00
 Gap=     0.253 Goal=   None    Shift=    0.000
 RMSDP=4.97D-06 MaxDP=1.97D-04 DE=-1.39D-05 OVMax= 1.36D-03

 Initial convergence to 1.0D-05 achieved.  Increase integral accuracy.
 Cycle   9  Pass 1  IDiag  1:
 E= -1199.74402120722     Delta-E=       -0.000046510519 Rises=F Damp=F
 DIIS: error= 2.48D-05 at cycle   1 NSaved=   1.
 NSaved= 1 IEnMin= 1 EnMin= -1199.74402120722     IErMin= 1 ErrMin= 2.48D-05
 ErrMax= 2.48D-05  0.00D+00 EMaxC= 1.00D-01 BMatC= 8.41D-07 BMatP= 8.41D-07
 IDIUse=1 WtCom= 1.00D+00 WtEn= 0.00D+00
 Coeff-Com:  0.100D+01
 Coeff:      0.100D+01
 Gap=     0.253 Goal=   None    Shift=    0.000
 RMSDP=4.97D-06 MaxDP=1.97D-04 DE=-4.65D-05 OVMax= 4.11D-04

 Cycle  10  Pass 1  IDiag  1:
 E= -1199.74402197252     Delta-E=       -0.000000765303 Rises=F Damp=F
 DIIS: error= 1.07D-05 at cycle   2 NSaved=   2.
 NSaved= 2 IEnMin= 2 EnMin= -1199.74402197252     IErMin= 2 ErrMin= 1.07D-05
 ErrMax= 1.07D-05  0.00D+00 EMaxC= 1.00D-01 BMatC= 1.55D-07 BMatP= 8.41D-07
 IDIUse=1 WtCom= 1.00D+00 WtEn= 0.00D+00
 Coeff-Com:  0.182D+00 0.818D+00
 Coeff:      0.182D+00 0.818D+00
 Gap=     0.253 Goal=   None    Shift=    0.000
 RMSDP=1.55D-06 MaxDP=9.82D-05 DE=-7.65D-07 OVMax= 1.62D-04

 Cycle  11  Pass 1  IDiag  1:
 E= -1199.74402205643     Delta-E=       -0.000000083914 Rises=F Damp=F
 DIIS: error= 7.80D-06 at cycle   3 NSaved=   3.
 NSaved= 3 IEnMin= 3 EnMin= -1199.74402205643     IErMin= 3 ErrMin= 7.80D-06
 ErrMax= 7.80D-06  0.00D+00 EMaxC= 1.00D-01 BMatC= 1.09D-07 BMatP= 1.55D-07
 IDIUse=1 WtCom= 1.00D+00 WtEn= 0.00D+00
 Coeff-Com: -0.453D-01 0.459D+00 0.586D+00
 Coeff:     -0.453D-01 0.459D+00 0.586D+00
 Gap=     0.253 Goal=   None    Shift=    0.000
 RMSDP=7.33D-07 MaxDP=4.35D-05 DE=-8.39D-08 OVMax= 9.79D-05

 Cycle  12  Pass 1  IDiag  1:
 E= -1199.74402214134     Delta-E=       -0.000000084902 Rises=F Damp=F
 DIIS: error= 1.61D-06 at cycle   4 NSaved=   4.
 NSaved= 4 IEnMin= 4 EnMin= -1199.74402214134     IErMin= 4 ErrMin= 1.61D-06
 ErrMax= 1.61D-06  0.00D+00 EMaxC= 1.00D-01 BMatC= 3.61D-09 BMatP= 1.09D-07
 IDIUse=1 WtCom= 1.00D+00 WtEn= 0.00D+00
 Coeff-Com: -0.235D-01 0.100D+00 0.183D+00 0.740D+00
 Coeff:     -0.235D-01 0.100D+00 0.183D+00 0.740D+00
 Gap=     0.253 Goal=   None    Shift=    0.000
 RMSDP=2.86D-07 MaxDP=1.39D-05 DE=-8.49D-08 OVMax= 5.01D-05

 Cycle  13  Pass 1  IDiag  1:
 E= -1199.74402214859     Delta-E=       -0.000000007258 Rises=F Damp=F
 DIIS: error= 8.57D-07 at cycle   5 NSaved=   5.
 NSaved= 5 IEnMin= 5 EnMin= -1199.74402214859     IErMin= 5 ErrMin= 8.57D-07
 ErrMax= 8.57D-07  0.00D+00 EMaxC= 1.00D-01 BMatC= 1.09D-09 BMatP= 3.61D-09
 IDIUse=1 WtCom= 1.00D+00 WtEn= 0.00D+00
 Coeff-Com:  0.594D-02-0.114D+00-0.119D+00 0.310D+00 0.918D+00
 Coeff:      0.594D-02-0.114D+00-0.119D+00 0.310D+00 0.918D+00
 Gap=     0.253 Goal=   None    Shift=    0.000
 RMSDP=2.28D-07 MaxDP=1.05D-05 DE=-7.26D-09 OVMax= 5.16D-05

 Cycle  14  Pass 1  IDiag  1:
 E= -1199.74402215200     Delta-E=       -0.000000003402 Rises=F Damp=F
 DIIS: error= 3.99D-07 at cycle   6 NSaved=   6.
 NSaved= 6 IEnMin= 6 EnMin= -1199.74402215200     IErMin= 6 ErrMin= 3.99D-07
 ErrMax= 3.99D-07  0.00D+00 EMaxC= 1.00D-01 BMatC= 2.25D-10 BMatP= 1.09D-09
 IDIUse=1 WtCom= 1.00D+00 WtEn= 0.00D+00
 Coeff-Com:  0.533D-02-0.646D-01-0.758D-01 0.317D-01 0.430D+00 0.673D+00
 Coeff:      0.533D-02-0.646D-01-0.758D-01 0.317D-01 0.430D+00 0.673D+00
 Gap=     0.253 Goal=   None    Shift=    0.000
 RMSDP=6.57D-08 MaxDP=2.94D-06 DE=-3.40D-09 OVMax= 1.42D-05

 Cycle  15  Pass 1  IDiag  1:
 E= -1199.74402215248     Delta-E=       -0.000000000479 Rises=F Damp=F
 DIIS: error= 1.55D-07 at cycle   7 NSaved=   7.
 NSaved= 7 IEnMin= 7 EnMin= -1199.74402215248     IErMin= 7 ErrMin= 1.55D-07
 ErrMax= 1.55D-07  0.00D+00 EMaxC= 1.00D-01 BMatC= 3.26D-11 BMatP= 2.25D-10
 IDIUse=1 WtCom= 1.00D+00 WtEn= 0.00D+00
 Coeff-Com:  0.102D-02-0.348D-02-0.641D-02-0.584D-01-0.576D-02 0.290D+00
 Coeff-Com:  0.783D+00
 Coeff:      0.102D-02-0.348D-02-0.641D-02-0.584D-01-0.576D-02 0.290D+00
 Coeff:      0.783D+00
 Gap=     0.253 Goal=   None    Shift=    0.000
 RMSDP=3.06D-08 MaxDP=1.46D-06 DE=-4.79D-10 OVMax= 6.85D-06

 Cycle  16  Pass 1  IDiag  1:
 E= -1199.74402215246     Delta-E=        0.000000000019 Rises=F Damp=F
 DIIS: error= 4.38D-08 at cycle   8 NSaved=   8.
 NSaved= 8 IEnMin= 7 EnMin= -1199.74402215248     IErMin= 8 ErrMin= 4.38D-08
 ErrMax= 4.38D-08  0.00D+00 EMaxC= 1.00D-01 BMatC= 2.97D-12 BMatP= 3.26D-11
 IDIUse=1 WtCom= 1.00D+00 WtEn= 0.00D+00
 Coeff-Com: -0.229D-03 0.615D-02 0.648D-02-0.235D-01-0.467D-01 0.254D-01
 Coeff-Com:  0.258D+00 0.774D+00
 Coeff:     -0.229D-03 0.615D-02 0.648D-02-0.235D-01-0.467D-01 0.254D-01
 Coeff:      0.258D+00 0.774D+00
 Gap=     0.253 Goal=   None    Shift=    0.000
 RMSDP=8.80D-09 MaxDP=3.67D-07 DE= 1.91D-11 OVMax= 1.81D-06

 SCF Done:  E(RM062X) =  -1199.74402215     A.U. after   16 cycles
            NFock= 16  Conv=0.88D-08     -V/T= 2.0028
 KE= 1.196351463296D+03 PE=-4.741583591345D+03 EE= 1.397845152874D+03
 Leave Link  502 at Sat May 24 07:28:11 2025, MaxMem=  3758096384 cpu:             177.1 elap:              48.0
 (Enter /apps/easybuild-2022/easybuild/software/Compiler/NVHPC/22.11-CUDA-11.7.0/Gaussian/g16c01-CUDA-11.7.0/g16/l508.exe)
 QCSCF skips out because SCF is already converged.
 Leave Link  508 at Sat May 24 07:28:11 2025, MaxMem=  3758096384 cpu:               0.1 elap:               0.0
 (Enter /apps/easybuild-2022/easybuild/software/Compiler/NVHPC/22.11-CUDA-11.7.0/Gaussian/g16c01-CUDA-11.7.0/g16/l801.exe)
 DoSCS=F DFT=T ScalE2(SS,OS)=  1.000000  1.000000
 Range of M.O.s used for correlation:     1   366
 NBasis=   366 NAE=    49 NBE=    49 NFC=     0 NFV=     0
 NROrb=    366 NOA=    49 NOB=    49 NVA=   317 NVB=   317

 **** Warning!!: The largest alpha MO coefficient is  0.15415063D+02

 Leave Link  801 at Sat May 24 07:28:11 2025, MaxMem=  3758096384 cpu:               0.1 elap:               0.0
 (Enter /apps/easybuild-2022/easybuild/software/Compiler/NVHPC/22.11-CUDA-11.7.0/Gaussian/g16c01-CUDA-11.7.0/g16/l1101.exe)
 Using compressed storage, NAtomX=    12.
 Will process     13 centers per pass.
   1 Symmetry operations used in ECPInt.
 ECPInt:  NShTT=    8515 NPrTT=   27988 LenC2=    8054 LenP2D=   19645.
 LDataN:  DoStor=T MaxTD1= 7 Len=  274
 Leave Link 1101 at Sat May 24 07:28:11 2025, MaxMem=  3758096384 cpu:               1.1 elap:               0.2
 (Enter /apps/easybuild-2022/easybuild/software/Compiler/NVHPC/22.11-CUDA-11.7.0/Gaussian/g16c01-CUDA-11.7.0/g16/l1102.exe)
 Symmetrizing basis deriv contribution to polar:
 IMax=3 JMax=2 DiffMx= 0.00D+00
 Leave Link 1102 at Sat May 24 07:28:11 2025, MaxMem=  3758096384 cpu:               0.1 elap:               0.0
 (Enter /apps/easybuild-2022/easybuild/software/Compiler/NVHPC/22.11-CUDA-11.7.0/Gaussian/g16c01-CUDA-11.7.0/g16/l1110.exe)
 Forming Gx(P) for the SCF density, NAtomX=    12.
 Integral derivatives from FoFJK, PRISM(SPDF).
 Do as many integral derivatives as possible in FoFJK.
 G2DrvN: MDV=    3758094988.
 G2DrvN: will do    13 centers at a time, making    1 passes.
 Calling FoFCou, ICntrl=  3107 FMM=F I1Cent=   0 AccDes= 0.00D+00.
 FoFJK:  IHMeth= 1 ICntrl=    3107 DoSepK=F KAlg= 0 I1Cent=           0 FoldK=F
 IRaf=         0 NMat=       1 IRICut=       1 DoRegI=T DoRafI=F ISym2E= 0 IDoP0=0 IntGTp=1.
 FoFCou: FMM=F IPFlag=           0 FMFlag=      100000 FMFlg1=           0
         NFxFlg=           0 DoJE=F BraDBF=F KetDBF=F FulRan=T
         wScrn=  0.000000 ICntrl=      3107 IOpCl=  0 I1Cent=           0 NGrid=           0
         NMat0=    1 NMatS0=      1 NMatT0=    0 NMatD0=    1 NMtDS0=    0 NMtDT0=    0
 Symmetry not used in FoFCou.
 End of G2Drv F.D. properties file   721 does not exist.
 End of G2Drv F.D. properties file   722 does not exist.
 End of G2Drv F.D. properties file   788 does not exist.
 Leave Link 1110 at Sat May 24 07:29:10 2025, MaxMem=  3758096384 cpu:             469.8 elap:              59.2
 (Enter /apps/easybuild-2022/easybuild/software/Compiler/NVHPC/22.11-CUDA-11.7.0/Gaussian/g16c01-CUDA-11.7.0/g16/l1002.exe)
 Minotr:  Closed shell wavefunction.
          IDoAtm=111111111111
          Direct CPHF calculation.
          Differentiating once with respect to electric field.
                with respect to dipole field.
          Differentiating once with respect to nuclear coordinates.
          Requested convergence is 1.0D-08 RMS, and 1.0D-07 maximum.
          Secondary convergence is 1.0D-12 RMS, and 1.0D-12 maximum.
          NewPWx=T KeepS1=F KeepF1=F KeepIn=T MapXYZ=F SortEE=F KeepMc=T.
         3605 words used for storage of precomputed grid.
 Keep R1 ints in memory in canonical form, NReq=2293452935.
 FoFCou: FMM=F IPFlag=           0 FMFlag=           0 FMFlg1=           0
         NFxFlg=           0 DoJE=F BraDBF=F KetDBF=F FulRan=T
         wScrn=  0.000000 ICntrl=       600 IOpCl=  0 I1Cent=           0 NGrid=           0
         NMat0=    1 NMatS0=  67161 NMatT0=    0 NMatD0=    1 NMtDS0=    0 NMtDT0=    0
 Symmetry not used in FoFCou.
 Two-electron integral symmetry not used.
          MDV=    3758096384 using IRadAn=       1.
          Solving linear equations simultaneously, MaxMat=       0.
          There are    39 degrees of freedom in the 1st order CPHF.  IDoFFX=6 NUNeed=     3.
     36 vectors produced by pass  0 Test12= 3.98D-14 2.56D-09 XBig12= 2.79D+01 1.71D+00.
 AX will form    36 AO Fock derivatives at one time.
     36 vectors produced by pass  1 Test12= 3.98D-14 2.56D-09 XBig12= 5.77D+00 3.53D-01.
     36 vectors produced by pass  2 Test12= 3.98D-14 2.56D-09 XBig12= 1.68D-01 7.88D-02.
     36 vectors produced by pass  3 Test12= 3.98D-14 2.56D-09 XBig12= 5.07D-03 1.15D-02.
     36 vectors produced by pass  4 Test12= 3.98D-14 2.56D-09 XBig12= 7.94D-05 1.28D-03.
     36 vectors produced by pass  5 Test12= 3.98D-14 2.56D-09 XBig12= 8.98D-07 1.04D-04.
     36 vectors produced by pass  6 Test12= 3.98D-14 2.56D-09 XBig12= 6.01D-09 9.82D-06.
     26 vectors produced by pass  7 Test12= 3.98D-14 2.56D-09 XBig12= 4.09D-11 7.52D-07.
      5 vectors produced by pass  8 Test12= 3.98D-14 2.56D-09 XBig12= 2.09D-13 4.68D-08.
      2 vectors produced by pass  9 Test12= 3.98D-14 2.56D-09 XBig12= 1.06D-15 4.06D-09.
 InvSVY:  IOpt=1 It=  1 EMax= 2.66D-15
 Solved reduced A of dimension   285 with    39 vectors.
 FullF1:  Do perturbations      1 to       3.
 Isotropic polarizability for W=    0.000000       58.83 Bohr**3.
 End of Minotr F.D. properties file   721 does not exist.
 End of Minotr F.D. properties file   722 does not exist.
 End of Minotr F.D. properties file   788 does not exist.
 Leave Link 1002 at Sat May 24 07:30:54 2025, MaxMem=  3758096384 cpu:             811.2 elap:             103.2
 (Enter /apps/easybuild-2022/easybuild/software/Compiler/NVHPC/22.11-CUDA-11.7.0/Gaussian/g16c01-CUDA-11.7.0/g16/l701.exe)
 ... and contract with generalized density number  0.
 Compute integral second derivatives.
   1 Symmetry operations used in ECPInt.
 ECPInt:  NShTT=    8515 NPrTT=   27988 LenC2=    8054 LenP2D=   19645.
 LDataN:  DoStor=T MaxTD1= 8 Len=  415
 Leave Link  701 at Sat May 24 07:30:54 2025, MaxMem=  3758096384 cpu:               1.2 elap:               0.2
 (Enter /apps/easybuild-2022/easybuild/software/Compiler/NVHPC/22.11-CUDA-11.7.0/Gaussian/g16c01-CUDA-11.7.0/g16/l702.exe)
 L702 exits ... SP integral derivatives will be done elsewhere.
 Leave Link  702 at Sat May 24 07:30:54 2025, MaxMem=  3758096384 cpu:               0.1 elap:               0.0
 (Enter /apps/easybuild-2022/easybuild/software/Compiler/NVHPC/22.11-CUDA-11.7.0/Gaussian/g16c01-CUDA-11.7.0/g16/l703.exe)
 Integral derivatives from FoFJK, PRISM(SPDF).
 Compute integral second derivatives, UseDBF=F ICtDFT=           0.
 Calling FoFJK, ICntrl=    100127 FMM=F ISym2X=0 I1Cent= 0 IOpClX= 0 NMat=1 NMatS=1 NMatT=0.
 FoFJK:  IHMeth= 1 ICntrl=  100127 DoSepK=F KAlg= 0 I1Cent=           0 FoldK=F
 IRaf=         0 NMat=       1 IRICut=       1 DoRegI=T DoRafI=F ISym2E= 0 IDoP0=0 IntGTp=1.
 FoFCou: FMM=F IPFlag=           0 FMFlag=      100000 FMFlg1=         800
         NFxFlg=           0 DoJE=F BraDBF=F KetDBF=F FulRan=T
         wScrn=  0.000000 ICntrl=    100127 IOpCl=  0 I1Cent=           0 NGrid=           0
         NMat0=    1 NMatS0=      1 NMatT0=    0 NMatD0=    1 NMtDS0=    0 NMtDT0=    0
 Symmetry not used in FoFCou.
 Leave Link  703 at Sat May 24 07:32:58 2025, MaxMem=  3758096384 cpu:             977.3 elap:             123.8
 (Enter /apps/easybuild-2022/easybuild/software/Compiler/NVHPC/22.11-CUDA-11.7.0/Gaussian/g16c01-CUDA-11.7.0/g16/l716.exe)
 Dipole        =-1.82598880D+00 4.91339543D-01-5.53031236D-01
 Polarizability= 6.01679979D+01 4.83838342D+00 5.87347262D+01
                 7.45353555D+00 2.83336667D+00 5.75880067D+01
 -------------------------------------------------------------------
 Center     Atomic                   Forces (Hartrees/Bohr)
 Number     Number              X              Y              Z
 -------------------------------------------------------------------
      1        6           0.014072586   -0.024894610   -0.012783564
      2        6          -0.009150804    0.004095161    0.009830805
      3        9           0.008535700   -0.001570349   -0.016886426
      4        9           0.003138784   -0.018357833    0.006916976
      5       16          -0.006708951    0.027697916   -0.001475627
      6        8           0.008789473   -0.022317187   -0.000960116
      7        8           0.041889770    0.022216256    0.018592649
      8        8          -0.008557278    0.015027872   -0.026698691
      9        9          -0.013572004    0.001565181    0.007493365
     10        9          -0.020291163    0.007917830    0.003889127
     11        9          -0.019698171    0.005570135    0.007869937
     12        1           0.001552058   -0.016950372    0.004211566
 -------------------------------------------------------------------
 Cartesian Forces:  Max     0.041889770 RMS     0.015321376
 Force constants in Cartesian coordinates: 
                1             2             3             4             5 
      1  0.195426D+00
      2  0.192793D+00  0.687294D+00
      3 -0.820737D-01  0.218730D-01  0.695305D+00
      4 -0.619632D-01  0.877971D-02  0.101884D-01  0.477731D+00
      5 -0.120141D-01 -0.912126D-01 -0.570219D-01 -0.295746D-01  0.500658D+00
      6 -0.133593D-01 -0.628280D-01 -0.100776D+00 -0.999972D-01 -0.499160D-01
      7 -0.274760D-02  0.590554D-02 -0.512458D-02 -0.126325D+00  0.101221D+00
      8  0.168486D-01 -0.443520D-01  0.465333D-02  0.114470D+00 -0.256360D+00
      9  0.632663D-02 -0.122942D-01  0.713230D-02 -0.185023D-01  0.267896D-01
     10 -0.289427D-02 -0.619829D-02  0.743648D-02 -0.149724D+00 -0.424007D-01
     11  0.500151D-02  0.489999D-02 -0.559984D-02 -0.483790D-01 -0.915260D-01
     12  0.194843D-01  0.135230D-01 -0.491082D-01  0.130256D+00  0.680517D-01
     13  0.107974D-01 -0.196117D-01 -0.411055D-01 -0.157932D+00  0.314815D-02
     14 -0.725473D-01  0.393639D-01 -0.525384D-01 -0.100621D-01  0.172047D-02
     15 -0.858435D-01 -0.324519D-01  0.209921D-01 -0.631650D-02 -0.421567D-02
     16 -0.957116D-02  0.115774D-02  0.725072D-02  0.101554D-01 -0.725228D-03
     17  0.880191D-02 -0.742529D-02  0.772265D-02 -0.182282D-03 -0.366675D-02
     18  0.723459D-02  0.271273D-02  0.364375D-03  0.911252D-02  0.535185D-03
     19  0.216739D-01  0.163719D-01 -0.280180D-02 -0.106763D-02 -0.245556D-03
     20  0.249725D-01 -0.268154D-02  0.253870D-02 -0.343127D-02 -0.133241D-02
     21  0.254669D-01  0.145184D-01 -0.274706D-01 -0.452936D-02 -0.178804D-02
     22 -0.902999D-02  0.242631D-02  0.280819D-02 -0.456855D-02 -0.153879D-01
     23  0.347553D-02  0.473709D-02  0.666844D-02  0.466034D-02 -0.295778D-01
     24  0.653337D-02  0.416003D-02 -0.221062D-02 -0.172742D-02 -0.478646D-02
     25 -0.107270D+00 -0.175443D+00  0.260790D-01  0.674705D-02 -0.697699D-02
     26 -0.145740D+00 -0.455258D+00  0.168695D-01 -0.319839D-01 -0.110433D-01
     27  0.132825D-01  0.196772D-01 -0.919576D-01 -0.707033D-02 -0.900606D-02
     28  0.205878D-01 -0.216775D-01  0.365879D-01 -0.662878D-02  0.845591D-02
     29  0.221898D-03 -0.325655D-01  0.320762D-02 -0.407660D-02 -0.303215D-01
     30  0.304572D-01 -0.166688D-01  0.151992D-01 -0.603542D-02 -0.205390D-03
     31 -0.534029D-01 -0.464107D-02  0.401969D-01  0.140467D-01 -0.123439D-02
     32 -0.214242D-01 -0.101828D+00  0.531949D-01  0.273106D-03  0.143092D-01
     33  0.712488D-01  0.491804D-01 -0.466322D+00 -0.589504D-02  0.277742D-01
     34 -0.160600D-02  0.137611D-03  0.557922D-03 -0.470796D-03 -0.426575D-02
     35 -0.389097D-03 -0.972007D-03 -0.156808D-02 -0.493476D-03 -0.164738D-02
     36  0.124224D-02 -0.140188D-02 -0.114864D-02  0.516512D-03  0.378874D-02
                6             7             8             9            10 
      6  0.508317D+00
      7 -0.161767D-01  0.124130D+00
      8  0.386599D-01 -0.126002D+00  0.365742D+00
      9 -0.789432D-01  0.202551D-01 -0.895624D-01  0.980748D-01
     10  0.124267D+00  0.208154D-01  0.158277D-02 -0.818518D-02  0.135836D+00
     11  0.641492D-01 -0.113855D-01 -0.527452D-01  0.721506D-01  0.475856D-01
     12 -0.261407D+00  0.147556D-02  0.534032D-01 -0.356568D-01 -0.157058D+00
     13 -0.980690D-02  0.370890D-02 -0.658798D-02  0.244168D-02  0.937479D-02
     14 -0.936014D-03  0.248923D-01 -0.248140D-01  0.176901D-02 -0.872234D-02
     15 -0.348795D-01 -0.924153D-02  0.674383D-02 -0.197001D-02  0.316998D-01
     16 -0.153162D-01 -0.648306D-02  0.515009D-02 -0.134868D-02 -0.196855D-03
     17  0.444516D-03 -0.700655D-03  0.393536D-02  0.198577D-03  0.427183D-03
     18 -0.553449D-02 -0.277397D-02  0.611291D-03  0.210876D-03 -0.476613D-02
     19  0.332135D-01 -0.180493D-02  0.230727D-02 -0.749522D-03 -0.122769D-01
     20 -0.529094D-02 -0.157169D-02  0.361472D-02  0.847122D-03  0.338102D-02
     21 -0.291198D-01  0.581114D-02 -0.384734D-02  0.427322D-02  0.923505D-02
     22 -0.317069D-02 -0.882917D-02 -0.852900D-02 -0.138125D-02 -0.309967D-02
     23 -0.595337D-02 -0.318763D-02  0.965008D-02  0.561697D-03 -0.679299D-02
     24  0.320822D-02 -0.138022D-02  0.105417D-03  0.131939D-02 -0.370357D-02
     25  0.636033D-02  0.509955D-03 -0.251261D-02 -0.134944D-02  0.185954D-02
     26  0.175834D-01  0.289654D-02 -0.421994D-02 -0.154564D-02  0.584443D-02
     27  0.130041D-01  0.749028D-03 -0.585921D-02 -0.170985D-02 -0.767012D-03
     28 -0.612494D-02 -0.249045D-02  0.544959D-02  0.294395D-02  0.756550D-03
     29  0.559456D-02  0.729098D-02 -0.161364D-02  0.581242D-03  0.506412D-02
     30 -0.786336D-02  0.253977D-02  0.765190D-03  0.322326D-02 -0.576115D-04
     31  0.172551D-02 -0.853991D-04 -0.268551D-02 -0.863815D-03  0.222635D-03
     32 -0.299032D-02 -0.445077D-03  0.115465D-02  0.800914D-03  0.741918D-03
     33 -0.744678D-02  0.360855D-02 -0.521114D-02  0.406355D-02  0.647017D-03
     34 -0.161472D-02 -0.398425D-03  0.508479D-03  0.412873D-03 -0.673309D-03
     35  0.148310D-02  0.108587D-02  0.722431D-05 -0.296559D-03 -0.512743D-03
     36  0.144051D-02  0.257888D-03 -0.462067D-03 -0.175214D-04  0.125233D-02
               11            12            13            14            15 
     11  0.132581D+00
     12 -0.130900D+00  0.353766D+00
     13  0.380542D-02 -0.233630D-02  0.613936D+00
     14 -0.464895D-02  0.471983D-02 -0.392573D-01  0.347043D+00
     15  0.508857D-02 -0.138084D-01  0.252677D+00  0.297611D-01  0.113281D+01
     16 -0.969223D-03  0.248721D-02 -0.235891D+00  0.523163D-01 -0.251148D+00
     17  0.968003D-03 -0.565640D-03  0.412371D-01 -0.859907D-01  0.616271D-01
     18 -0.152327D-02  0.565232D-02 -0.245595D+00  0.793342D-01 -0.488139D+00
     19  0.109474D-03  0.564402D-02 -0.117400D+00  0.199668D-03  0.663222D-01
     20  0.275963D-02  0.173100D-04  0.461891D-02 -0.889753D-01 -0.524039D-01
     21  0.239216D-02  0.951724D-03  0.449600D-01 -0.912012D-01 -0.486566D+00
     22 -0.101557D-02  0.276160D-02 -0.669962D-01 -0.216442D-01 -0.156593D-01
     23  0.412201D-04  0.435773D-02 -0.315298D-02 -0.177807D+00  0.172963D-01
     24 -0.918774D-03  0.236392D-02 -0.146867D-01 -0.100312D-01 -0.799858D-01
     25  0.169102D-02 -0.273611D-02 -0.113123D-02  0.222552D-01 -0.387337D-03
     26  0.470720D-02 -0.165586D-02  0.657812D-02 -0.592623D-03 -0.364343D-03
     27 -0.844317D-05  0.199719D-02  0.438235D-02  0.181989D-02 -0.608648D-02
     28  0.331350D-02  0.281265D-04 -0.355177D-01  0.555577D-01 -0.114050D-01
     29  0.363854D-02 -0.445702D-02  0.210068D-01  0.130177D-01 -0.788810D-03
     30 -0.261749D-02  0.330096D-02  0.448518D-02  0.292857D-01 -0.536043D-01
     31  0.179370D-03 -0.694285D-03 -0.179681D-01 -0.189073D-02  0.247557D-01
     32 -0.555156D-03 -0.661955D-02  0.214500D-02 -0.514322D-02 -0.217228D-02
     33 -0.239635D-02 -0.693885D-02 -0.121237D-02  0.707448D-02  0.906099D-02
     34  0.633513D-04  0.688167D-03 -0.498179D-02 -0.109717D-02  0.454623D-02
     35 -0.120595D-03  0.125378D-03 -0.139296D-01 -0.131737D-01 -0.281199D-01
     36  0.183747D-03 -0.111357D-02  0.579715D-02  0.942667D-03  0.217913D-02
               16            17            18            19            20 
     16  0.214501D+00
     17 -0.500221D-01  0.146422D+00
     18  0.290287D+00 -0.959652D-01  0.499860D+00
     19  0.209552D-01 -0.821779D-03 -0.122102D-01  0.104378D+00
     20 -0.631687D-03  0.125698D-01  0.236525D-02  0.116556D-01  0.140167D+00
     21  0.585108D-02 -0.594741D-03  0.974919D-02 -0.691814D-01  0.611984D-01
     22  0.116004D-01  0.349613D-01 -0.193878D-01  0.137787D-01 -0.221213D-02
     23  0.126425D-01 -0.499190D-01  0.300122D-01 -0.550559D-02 -0.282115D-01
     24 -0.180359D-01  0.563524D-01 -0.109299D-01 -0.697229D-02 -0.483190D-01
     25 -0.113457D-03 -0.454142D-02 -0.157647D-02  0.949907D-03 -0.248111D-02
     26 -0.242491D-02 -0.267500D-03 -0.173603D-02 -0.283685D-02 -0.606849D-03
     27 -0.168069D-02 -0.587603D-03 -0.201615D-03  0.663683D-03  0.266813D-03
     28 -0.519741D-02 -0.318723D-01 -0.153548D-01  0.185497D-01 -0.212814D-01
     29 -0.162922D-01 -0.242783D-01 -0.179092D-01 -0.102796D-01 -0.396227D-01
     30 -0.159841D-01 -0.314358D-01 -0.535704D-02  0.190348D-01  0.537233D-01
     31  0.345913D-02  0.310636D-03 -0.289112D-02 -0.503902D-01 -0.193143D-01
     32 -0.644248D-03  0.810414D-03 -0.491948D-03 -0.109044D-01  0.587435D-02
     33 -0.142222D-02 -0.168012D-02 -0.135518D-02 -0.324600D-01 -0.141135D-01
     34 -0.321790D-02  0.240230D-02 -0.207852D-02  0.265376D-02  0.629557D-02
     35  0.442918D-03  0.684160D-02  0.205479D-02 -0.501696D-04 -0.355515D-02
     36 -0.941000D-03  0.448385D-02 -0.431901D-02 -0.503001D-03 -0.829488D-03
               21            22            23            24            25 
     21  0.566715D+00
     22 -0.488284D-02  0.124626D+00
     23 -0.155674D-01  0.951252D-01  0.425347D+00
     24 -0.199225D-01  0.199659D+00  0.173816D+00  0.443180D+00
     25  0.226807D-02  0.637728D-03 -0.114035D-02  0.121020D-03  0.128418D+00
     26 -0.659738D-03 -0.191300D-02 -0.405759D-02 -0.101700D-02  0.205960D+00
     27  0.415793D-02 -0.120520D-02 -0.103220D-02  0.600393D-03 -0.290921D-01
     28  0.224062D-01  0.514247D-02 -0.645600D-03  0.219314D-02 -0.394714D-01
     29  0.441594D-01 -0.349097D-02 -0.624714D-02 -0.122166D-02 -0.742694D-02
     30 -0.150735D-01  0.653207D-03 -0.139538D-02  0.606206D-02 -0.267895D-01
     31 -0.418992D-01  0.238090D-02 -0.158443D-02 -0.226281D-02  0.874082D-02
     32 -0.671064D-02 -0.859014D-03 -0.132024D-03  0.479146D-03 -0.296232D-01
     33 -0.996772D-02 -0.616991D-03 -0.486298D-02 -0.890059D-03  0.271651D-01
     34  0.449436D-02 -0.656426D-01 -0.938940D-01 -0.159738D+00  0.122905D-03
     35 -0.189917D-02 -0.774610D-01 -0.143823D+00 -0.168619D+00  0.239859D-03
     36  0.227287D-02 -0.159578D+00 -0.203901D+00 -0.342795D+00 -0.625402D-04
               26            27            28            29            30 
     26  0.499188D+00
     27 -0.839837D-01  0.118610D+00
     28 -0.634182D-02 -0.157225D-01  0.387569D-01
     29  0.122448D-01 -0.291949D-02  0.619341D-02  0.101846D+00
     30 -0.691972D-02 -0.236729D-02 -0.100784D-01 -0.280383D-01  0.574773D-01
     31 -0.299810D-01  0.365010D-01  0.550681D-02  0.180476D-02  0.242639D-02
     32 -0.406463D-01  0.815389D-01  0.182346D-02  0.298066D-02  0.231856D-02
     33  0.626561D-01 -0.362165D-01 -0.476626D-02  0.431964D-03 -0.123208D-02
     34 -0.570098D-04 -0.406480D-04  0.548716D-05 -0.157226D-04 -0.651527D-03
     35  0.551970D-03  0.939158D-04  0.102494D-02  0.920810D-03  0.118810D-02
     36  0.773063D-03  0.169304D-03 -0.707428D-03  0.135966D-02  0.234741D-03
               31            32            33            34            35 
     31  0.867880D-01
     32  0.590718D-01  0.123142D+00
     33 -0.566197D-01 -0.119546D+00  0.516876D+00
     34  0.701579D-03 -0.155178D-03  0.323101D-03  0.735071D-01
     35 -0.350561D-04  0.333239D-04  0.693318D-03  0.900776D-01  0.154937D+00
     36 -0.374568D-03  0.198719D-03  0.367952D-03  0.153101D+00  0.194864D+00
               36 
     36  0.342729D+00
 FormGI is forming the generalized inverse of G from B-inverse, IUseBI=4.
 Leave Link  716 at Sat May 24 07:32:58 2025, MaxMem=  3758096384 cpu:               0.1 elap:               0.0
 (Enter /apps/easybuild-2022/easybuild/software/Compiler/NVHPC/22.11-CUDA-11.7.0/Gaussian/g16c01-CUDA-11.7.0/g16/l103.exe)

 GradGradGradGradGradGradGradGradGradGradGradGradGradGradGradGradGradGrad
 Berny optimization.
 Red2BG is reusing G-inverse.
 Internal  Forces:  Max     0.067317707 RMS     0.020048848
 Search for a saddle point.
 Step number   1 out of a maximum of  100
 All quantities printed in internal units (Hartrees-Bohrs-Radians)
 Swapping is turned off.
 Second derivative matrix not updated -- analytic derivatives used.
 ITU=  0
     Eigenvalues ---   -0.13030   0.00247   0.00398   0.00574   0.03514
     Eigenvalues ---    0.05394   0.06927   0.07249   0.08047   0.09339
     Eigenvalues ---    0.11130   0.13504   0.14149   0.15394   0.18129
     Eigenvalues ---    0.20953   0.24223   0.25491   0.28432   0.30330
     Eigenvalues ---    0.33671   0.39885   0.45173   0.51568   0.53459
     Eigenvalues ---    0.54882   0.59871   0.70138   0.71476   1.27552
 Eigenvectors required to have negative eigenvalues:
                          D10       D7        D3        A13       R10
   1                   -0.31569  -0.29165  -0.27083   0.25208  -0.24916
                          D2        D9        D1        D6        A11
   1                   -0.22822  -0.21719  -0.20963  -0.20831  -0.18790
 RFO step:  Lambda0=1.581208266D-02 Lambda=-4.74238963D-02.
 Linear search not attempted -- option 19 set.
 Maximum step size (   0.300) exceeded in Quadratic search.
    -- Step size scaled by   0.784
 Iteration  1 RMS(Cart)=  0.11593682 RMS(Int)=  0.00780343
 Iteration  2 RMS(Cart)=  0.00819786 RMS(Int)=  0.00069343
 Iteration  3 RMS(Cart)=  0.00003815 RMS(Int)=  0.00069237
 Iteration  4 RMS(Cart)=  0.00000002 RMS(Int)=  0.00069237
 ITry= 1 IFail=0 DXMaxC= 4.14D-01 DCOld= 1.00D+10 DXMaxT= 3.00D-01 DXLimC= 3.00D+00 Rises=F
 Variable       Old X    -DE/DX   Delta X   Delta X   Delta X     New X
                                 (Linear)    (Quad)   (Total)
    R1        2.94158   0.01168   0.00000  -0.02826  -0.02826   2.91332
    R2        2.36040   0.00501   0.00000  -0.01194  -0.01194   2.34846
    R3        2.37931  -0.00855   0.00000  -0.01526  -0.01526   2.36404
    R4        2.51649  -0.00157   0.00000   0.00372   0.00372   2.52021
    R5        2.48336   0.01005   0.00000   0.00386   0.00386   2.48722
    R6        3.50005   0.01667   0.00000   0.00723   0.00723   3.50728
    R7        2.69285   0.00636   0.00000   0.00469   0.00469   2.69754
    R8        2.75639  -0.01947   0.00000  -0.00644  -0.00644   2.74995
    R9        3.06686  -0.00214   0.00000   0.00724   0.00724   3.07410
   R10        3.63048  -0.00360   0.00000  -0.07567  -0.07567   3.55481
   R11        1.82159  -0.00454   0.00000  -0.00218  -0.00218   1.81941
    A1        2.14505  -0.01367   0.00000   0.05108   0.05053   2.19558
    A2        2.19052   0.00152   0.00000  -0.10438  -0.10493   2.08559
    A3        1.93056   0.00860   0.00000   0.04310   0.04253   1.97309
    A4        1.93079  -0.02293   0.00000  -0.08554  -0.08536   1.84543
    A5        1.93887  -0.03438   0.00000   0.02483   0.02553   1.96439
    A6        1.68315   0.06732   0.00000   0.03131   0.03141   1.71456
    A7        1.81519   0.02456   0.00000   0.04832   0.04881   1.86400
    A8        2.03043  -0.01577   0.00000   0.00704   0.00723   2.03766
    A9        2.06510  -0.02353   0.00000  -0.03702  -0.03735   2.02775
   A10        2.10252  -0.01908   0.00000   0.02495   0.02442   2.12695
   A11        1.62626   0.05207   0.00000   0.06835   0.06797   1.69423
   A12        1.60222   0.01640   0.00000   0.00639   0.00588   1.60810
   A13        1.36357  -0.04412   0.00000  -0.07171  -0.07054   1.29303
   A14        2.48870  -0.03203   0.00000  -0.09778  -0.09763   2.39106
   A15        1.67726   0.00800   0.00000   0.02952   0.02962   1.70688
   A16        1.56066   0.00772   0.00000  -0.01293  -0.01050   1.55016
   A17        1.72535  -0.01660   0.00000  -0.01105  -0.01078   1.71457
   A18        1.42326   0.02419   0.00000   0.05448   0.05761   1.48087
   A19        2.10360  -0.03085   0.00000  -0.15595  -0.15595   1.94765
   A20        2.96579  -0.02772   0.00000  -0.06533  -0.06466   2.90113
   A21        3.13539  -0.00428   0.00000   0.02628   0.02603   3.16142
    D1       -2.16368   0.01208   0.00000  -0.06874  -0.06867  -2.23236
    D2       -0.15695   0.00796   0.00000  -0.04612  -0.04662  -0.20358
    D3        2.00246   0.00387   0.00000  -0.06175  -0.06142   1.94104
    D4        0.76171  -0.00925   0.00000  -0.12719  -0.12705   0.63466
    D5        2.76844  -0.01336   0.00000  -0.10458  -0.10500   2.66344
    D6       -1.35533  -0.01745   0.00000  -0.12020  -0.11980  -1.47513
    D7       -2.29152   0.01719   0.00000  -0.07630  -0.07548  -2.36700
    D8        0.55112   0.01378   0.00000  -0.10953  -0.11028   0.44084
    D9        2.27855   0.00026   0.00000  -0.11744  -0.11725   2.16130
   D10       -0.85683   0.00454   0.00000  -0.14372  -0.14328  -1.00012
   D11        1.95253   0.00896   0.00000   0.00263   0.00325   1.95578
   D12       -1.48802   0.00555   0.00000  -0.03059  -0.03155  -1.51957
   D13        0.23941  -0.00797   0.00000  -0.03851  -0.03852   0.20090
   D14       -2.89597  -0.00369   0.00000  -0.06478  -0.06455  -2.96052
   D15       -0.22900   0.01102   0.00000  -0.04065  -0.04015  -0.26915
   D16        2.61364   0.00761   0.00000  -0.07387  -0.07495   2.53869
   D17       -1.94212  -0.00591   0.00000  -0.08179  -0.08192  -2.02403
   D18        1.20568  -0.00163   0.00000  -0.10806  -0.10795   1.09773
   D19        1.97805  -0.02347   0.00000  -0.00635  -0.00613   1.97192
   D20       -0.13203  -0.00734   0.00000  -0.03545  -0.03530  -0.16732
   D21       -2.67327   0.03118   0.00000   0.06343   0.06306  -2.61021
         Item               Value     Threshold  Converged?
 Maximum Force            0.067318     0.000450     NO 
 RMS     Force            0.020049     0.000300     NO 
 Maximum Displacement     0.413540     0.001800     NO 
 RMS     Displacement     0.116020     0.001200     NO 
 Predicted change in Energy=-1.842254D-02
 Lowest energy point so far.  Saving SCF results.
 GradGradGradGradGradGradGradGradGradGradGradGradGradGradGradGradGradGrad

 Leave Link  103 at Sat May 24 07:32:58 2025, MaxMem=  3758096384 cpu:               0.1 elap:               0.0
 (Enter /apps/easybuild-2022/easybuild/software/Compiler/NVHPC/22.11-CUDA-11.7.0/Gaussian/g16c01-CUDA-11.7.0/g16/l202.exe)
                          Input orientation:                          
 ---------------------------------------------------------------------
 Center     Atomic      Atomic             Coordinates (Angstroms)
 Number     Number       Type             X           Y           Z
 ---------------------------------------------------------------------
      1          6           0       -0.187405   -0.985287   -1.198310
      2          6           0        0.005019   -0.042334    0.006071
      3          9           0       -0.618361    1.091022   -0.318717
      4          9           0       -0.572823   -0.494684    1.098688
      5         16           0        1.860501   -0.001336    0.017899
      6          8           0        2.609215   -0.120442    1.227414
      7          8           0        2.055607   -0.314593   -1.389739
      8          8           0        1.886082    1.621025   -0.098642
      9          9           0       -0.627295   -2.146546   -1.149312
     10          9           0        1.383556   -1.813715    0.180475
     11          9           0       -0.175728   -0.514430   -2.357254
     12          1           0        2.234600    2.028244    0.701155
 ---------------------------------------------------------------------
                    Distance matrix (angstroms):
                    1          2          3          4          5
     1  C    0.000000
     2  C    1.541662   0.000000
     3  F    2.295750   1.333637   0.000000
     4  F    2.380218   1.316181   2.127340   0.000000
     5  S    2.577061   1.855972   2.729709   2.707870   0.000000
     6  O    3.801733   2.877432   3.778282   3.206555   1.427475
     7  O    2.348952   2.495460   3.205144   3.623995   1.455212
     8  O    3.507347   2.513190   2.569352   3.457750   1.626743
     9  F    1.242750   2.482426   3.342427   2.790183   3.486178
    10  F    2.248390   2.251349   3.562915   2.531872   1.881123
    11  F    1.250998   2.416785   2.632306   3.478737   3.170307
    12  H    4.307603   3.121132   3.171421   3.795368   2.173932
                    6          7          8          9         10
     6  O    0.000000
     7  O    2.682101   0.000000
     8  O    2.305224   2.332872   0.000000
     9  F    4.497657   3.257578   4.649254   0.000000
    10  F    2.337840   2.272573   3.482511   2.433646   0.000000
    11  F    4.556422   2.440262   3.729954   2.080106   3.249551
    12  H    2.243688   3.145276   0.962791   5.389206   3.969386
                   11         12
    11  F    0.000000
    12  H    4.650670   0.000000
 Symmetry turned off by external request.
 Stoichiometry    C2HF5O3S
 Rotational constants (GHZ):           1.4609850           0.9454173           0.9060392
 Leave Link  202 at Sat May 24 07:32:58 2025, MaxMem=  3758096384 cpu:               0.1 elap:               0.0
 (Enter /apps/easybuild-2022/easybuild/software/Compiler/NVHPC/22.11-CUDA-11.7.0/Gaussian/g16c01-CUDA-11.7.0/g16/l301.exe)
 Standard basis: def2TZVPP (5D, 7F)
 Ernie: Thresh=  0.10000D-02 Tol=  0.10000D-05 Strict=F.
   366 basis functions,   596 primitive gaussians,   423 cartesian basis functions
    49 alpha electrons       49 beta electrons
       nuclear repulsion energy       948.6090974570 Hartrees.
 IExCor= 4336 DFT=T Ex+Corr=M062X ExCW=0 ScaHFX=  0.540000
 ScaDFX=  1.000000  1.000000  1.000000  1.000000 ScalE2=  1.000000  1.000000
 IRadAn=      5 IRanWt=     -1 IRanGd=            0 ICorTp=0 IEmpDi=  4
 NAtoms=   12 NActive=   12 NUniq=   12 SFac= 1.00D+00 NAtFMM=   60 NAOKFM=F Big=F
 Integral buffers will be    131072 words long.
 Raffenetti 2 integral format.
 Two-electron integral symmetry is turned off.
 Leave Link  301 at Sat May 24 07:32:58 2025, MaxMem=  3758096384 cpu:               0.1 elap:               0.0
 (Enter /apps/easybuild-2022/easybuild/software/Compiler/NVHPC/22.11-CUDA-11.7.0/Gaussian/g16c01-CUDA-11.7.0/g16/l302.exe)
 NPDir=0 NMtPBC=     1 NCelOv=     1 NCel=       1 NClECP=     1 NCelD=      1
         NCelK=      1 NCelE2=     1 NClLst=     1 CellRange=     0.0.
 One-electron integrals computed using PRISM.
   1 Symmetry operations used in ECPInt.
 ECPInt:  NShTT=    8515 NPrTT=   27988 LenC2=    8064 LenP2D=   19648.
 LDataN:  DoStor=T MaxTD1= 6 Len=  172
 NBasis=   366 RedAO= T EigKep=  3.40D-04  NBF=   366
 NBsUse=   366 1.00D-06 EigRej= -1.00D+00 NBFU=   366
 Precomputing XC quadrature grid using
 IXCGrd= 4 IRadAn=           5 IRanWt=          -1 IRanGd=           0 AccXCQ= 0.00D+00.
 Generated NRdTot=       0 NPtTot=           0 NUsed=           0 NTot=          32
 NSgBfM=   420   420   420   420   420 MxSgAt=    12 MxSgA2=    12.
 Leave Link  302 at Sat May 24 07:32:58 2025, MaxMem=  3758096384 cpu:               1.1 elap:               0.2
 (Enter /apps/easybuild-2022/easybuild/software/Compiler/NVHPC/22.11-CUDA-11.7.0/Gaussian/g16c01-CUDA-11.7.0/g16/l303.exe)
 DipDrv:  MaxL=1.
 Leave Link  303 at Sat May 24 07:32:58 2025, MaxMem=  3758096384 cpu:               0.1 elap:               0.0
 (Enter /apps/easybuild-2022/easybuild/software/Compiler/NVHPC/22.11-CUDA-11.7.0/Gaussian/g16c01-CUDA-11.7.0/g16/l401.exe)
 Initial guess from the checkpoint file:  "/tmp/Gau-192994.chk"
 B after Tr=    -0.001796    0.007034    0.012814
         Rot=    0.999997   -0.001908    0.000994   -0.001211 Ang=  -0.28 deg.
 Guess basis will be translated and rotated to current coordinates.
 JPrj=2 DoOrth=T DoCkMO=T.
 Generating alternative initial guess.
 ExpMin= 9.52D-02 ExpMax= 6.07D+04 ExpMxC= 2.07D+03 IAcc=3 IRadAn=         5 AccDes= 0.00D+00
 Harris functional with IExCor= 1009 and IRadAn=       5 diagonalized for initial guess.
 HarFok:  IExCor= 1009 AccDes= 0.00D+00 IRadAn=         5 IDoV= 1 UseB2=F ITyADJ=14
 ICtDFT=  3500011 ScaDFX=  1.000000  1.000000  1.000000  1.000000
 FoFCou: FMM=F IPFlag=           0 FMFlag=      100000 FMFlg1=           0
         NFxFlg=           0 DoJE=T BraDBF=F KetDBF=T FulRan=T
         wScrn=  0.000000 ICntrl=       500 IOpCl=  0 I1Cent=   200000004 NGrid=           0
         NMat0=    1 NMatS0=      1 NMatT0=    0 NMatD0=    1 NMtDS0=    0 NMtDT0=    0
 Symmetry not used in FoFCou.
 Harris En= -1199.25519944008    
 Leave Link  401 at Sat May 24 07:32:59 2025, MaxMem=  3758096384 cpu:               4.8 elap:               0.8
 (Enter /apps/easybuild-2022/easybuild/software/Compiler/NVHPC/22.11-CUDA-11.7.0/Gaussian/g16c01-CUDA-11.7.0/g16/l502.exe)
 Keep R1 ints in memory in canonical form, NReq=2293447020.
 FoFCou: FMM=F IPFlag=           0 FMFlag=           0 FMFlg1=           0
         NFxFlg=           0 DoJE=F BraDBF=F KetDBF=F FulRan=T
         wScrn=  0.000000 ICntrl=       600 IOpCl=  0 I1Cent=           0 NGrid=           0
         NMat0=    1 NMatS0=  67161 NMatT0=    0 NMatD0=    1 NMtDS0=    0 NMtDT0=    0
 Symmetry not used in FoFCou.
 Two-electron integral symmetry not used.
 Closed shell SCF:
 Using DIIS extrapolation, IDIIS=  1040.
 NGot=  3758096384 LenX=  1502398648 LenY=  1502219278
 Requested convergence on RMS density matrix=1.00D-08 within  32 cycles.
 Requested convergence on MAX density matrix=1.00D-06.
 Requested convergence on             energy=1.00D-06.
 No special actions if energy rises.
 Integral accuracy reduced to 1.0D-05 until final iterations.

 Cycle   1  Pass 0  IDiag  1:
 E= -1199.71544344152    
 DIIS: error= 5.32D-03 at cycle   1 NSaved=   1.
 NSaved= 1 IEnMin= 1 EnMin= -1199.71544344152     IErMin= 1 ErrMin= 5.32D-03
 ErrMax= 5.32D-03  0.00D+00 EMaxC= 1.00D-01 BMatC= 3.50D-02 BMatP= 3.50D-02
 IDIUse=3 WtCom= 9.47D-01 WtEn= 5.32D-02
 Coeff-Com:  0.100D+01
 Coeff-En:   0.100D+01
 Coeff:      0.100D+01
 Gap=     1.112 Goal=   None    Shift=    0.000
 GapD=    1.112 DampG=2.000 DampE=1.000 DampFc=2.0000 IDamp=-1.
 RMSDP=5.73D-04 MaxDP=1.68D-02              OVMax= 4.58D-02

 Cycle   2  Pass 0  IDiag  1:
 E= -1199.75854231791     Delta-E=       -0.043098876394 Rises=F Damp=F
 DIIS: error= 1.65D-03 at cycle   2 NSaved=   2.
 NSaved= 2 IEnMin= 2 EnMin= -1199.75854231791     IErMin= 2 ErrMin= 1.65D-03
 ErrMax= 1.65D-03  0.00D+00 EMaxC= 1.00D-01 BMatC= 1.29D-03 BMatP= 3.50D-02
 IDIUse=3 WtCom= 9.83D-01 WtEn= 1.65D-02
 Coeff-Com: -0.118D+00 0.112D+01
 Coeff-En:   0.000D+00 0.100D+01
 Coeff:     -0.116D+00 0.112D+01
 Gap=     0.248 Goal=   None    Shift=    0.000
 RMSDP=1.51D-04 MaxDP=4.11D-03 DE=-4.31D-02 OVMax= 1.78D-02

 Cycle   3  Pass 0  IDiag  1:
 E= -1199.76058720557     Delta-E=       -0.002044887654 Rises=F Damp=F
 DIIS: error= 6.26D-04 at cycle   3 NSaved=   3.
 NSaved= 3 IEnMin= 3 EnMin= -1199.76058720557     IErMin= 3 ErrMin= 6.26D-04
 ErrMax= 6.26D-04  0.00D+00 EMaxC= 1.00D-01 BMatC= 7.29D-04 BMatP= 1.29D-03
 IDIUse=3 WtCom= 9.94D-01 WtEn= 6.26D-03
 Coeff-Com: -0.786D-01 0.529D+00 0.550D+00
 Coeff-En:   0.000D+00 0.000D+00 0.100D+01
 Coeff:     -0.781D-01 0.525D+00 0.553D+00
 Gap=     0.243 Goal=   None    Shift=    0.000
 RMSDP=6.11D-05 MaxDP=3.45D-03 DE=-2.04D-03 OVMax= 3.80D-03

 Cycle   4  Pass 0  IDiag  1:
 E= -1199.76105220813     Delta-E=       -0.000465002560 Rises=F Damp=F
 DIIS: error= 2.19D-04 at cycle   4 NSaved=   4.
 NSaved= 4 IEnMin= 4 EnMin= -1199.76105220813     IErMin= 4 ErrMin= 2.19D-04
 ErrMax= 2.19D-04  0.00D+00 EMaxC= 1.00D-01 BMatC= 6.59D-05 BMatP= 7.29D-04
 IDIUse=3 WtCom= 9.98D-01 WtEn= 2.19D-03
 Coeff-Com: -0.313D-02-0.432D-01 0.204D+00 0.842D+00
 Coeff-En:   0.000D+00 0.000D+00 0.000D+00 0.100D+01
 Coeff:     -0.312D-02-0.431D-01 0.203D+00 0.843D+00
 Gap=     0.244 Goal=   None    Shift=    0.000
 RMSDP=2.25D-05 MaxDP=8.49D-04 DE=-4.65D-04 OVMax= 3.69D-03

 Cycle   5  Pass 0  IDiag  1:
 E= -1199.76111912117     Delta-E=       -0.000066913044 Rises=F Damp=F
 DIIS: error= 7.12D-05 at cycle   5 NSaved=   5.
 NSaved= 5 IEnMin= 5 EnMin= -1199.76111912117     IErMin= 5 ErrMin= 7.12D-05
 ErrMax= 7.12D-05  0.00D+00 EMaxC= 1.00D-01 BMatC= 6.08D-06 BMatP= 6.59D-05
 IDIUse=1 WtCom= 1.00D+00 WtEn= 0.00D+00
 Coeff-Com:  0.411D-02-0.530D-01 0.400D-01 0.320D+00 0.689D+00
 Coeff:      0.411D-02-0.530D-01 0.400D-01 0.320D+00 0.689D+00
 Gap=     0.244 Goal=   None    Shift=    0.000
 RMSDP=8.06D-06 MaxDP=3.09D-04 DE=-6.69D-05 OVMax= 1.00D-03

 Initial convergence to 1.0D-05 achieved.  Increase integral accuracy.
 Cycle   6  Pass 1  IDiag  1:
 E= -1199.76106275935     Delta-E=        0.000056361822 Rises=F Damp=F
 DIIS: error= 3.06D-05 at cycle   1 NSaved=   1.
 NSaved= 1 IEnMin= 1 EnMin= -1199.76106275935     IErMin= 1 ErrMin= 3.06D-05
 ErrMax= 3.06D-05  0.00D+00 EMaxC= 1.00D-01 BMatC= 1.94D-06 BMatP= 1.94D-06
 IDIUse=1 WtCom= 1.00D+00 WtEn= 0.00D+00
 Coeff-Com:  0.100D+01
 Coeff:      0.100D+01
 Gap=     0.244 Goal=   None    Shift=    0.000
 RMSDP=8.06D-06 MaxDP=3.09D-04 DE= 5.64D-05 OVMax= 8.04D-04

 Cycle   7  Pass 1  IDiag  1:
 E= -1199.76106388180     Delta-E=       -0.000001122456 Rises=F Damp=F
 DIIS: error= 4.44D-05 at cycle   2 NSaved=   2.
 NSaved= 2 IEnMin= 2 EnMin= -1199.76106388180     IErMin= 1 ErrMin= 3.06D-05
 ErrMax= 4.44D-05  0.00D+00 EMaxC= 1.00D-01 BMatC= 2.24D-06 BMatP= 1.94D-06
 IDIUse=1 WtCom= 1.00D+00 WtEn= 0.00D+00
 Coeff-Com:  0.522D+00 0.478D+00
 Coeff:      0.522D+00 0.478D+00
 Gap=     0.244 Goal=   None    Shift=    0.000
 RMSDP=2.94D-06 MaxDP=1.11D-04 DE=-1.12D-06 OVMax= 3.08D-04

 Cycle   8  Pass 1  IDiag  1:
 E= -1199.76106536924     Delta-E=       -0.000001487439 Rises=F Damp=F
 DIIS: error= 1.02D-05 at cycle   3 NSaved=   3.
 NSaved= 3 IEnMin= 3 EnMin= -1199.76106536924     IErMin= 3 ErrMin= 1.02D-05
 ErrMax= 1.02D-05  0.00D+00 EMaxC= 1.00D-01 BMatC= 1.09D-07 BMatP= 1.94D-06
 IDIUse=1 WtCom= 1.00D+00 WtEn= 0.00D+00
 Coeff-Com: -0.604D-01 0.124D+00 0.936D+00
 Coeff:     -0.604D-01 0.124D+00 0.936D+00
 Gap=     0.244 Goal=   None    Shift=    0.000
 RMSDP=1.54D-06 MaxDP=5.72D-05 DE=-1.49D-06 OVMax= 2.96D-04

 Cycle   9  Pass 1  IDiag  1:
 E= -1199.76106558596     Delta-E=       -0.000000216714 Rises=F Damp=F
 DIIS: error= 5.03D-06 at cycle   4 NSaved=   4.
 NSaved= 4 IEnMin= 4 EnMin= -1199.76106558596     IErMin= 4 ErrMin= 5.03D-06
 ErrMax= 5.03D-06  0.00D+00 EMaxC= 1.00D-01 BMatC= 3.11D-08 BMatP= 1.09D-07
 IDIUse=1 WtCom= 1.00D+00 WtEn= 0.00D+00
 Coeff-Com: -0.712D-01 0.129D-01 0.450D+00 0.609D+00
 Coeff:     -0.712D-01 0.129D-01 0.450D+00 0.609D+00
 Gap=     0.244 Goal=   None    Shift=    0.000
 RMSDP=5.24D-07 MaxDP=1.84D-05 DE=-2.17D-07 OVMax= 9.57D-05

 Cycle  10  Pass 1  IDiag  1:
 E= -1199.76106562908     Delta-E=       -0.000000043126 Rises=F Damp=F
 DIIS: error= 2.85D-06 at cycle   5 NSaved=   5.
 NSaved= 5 IEnMin= 5 EnMin= -1199.76106562908     IErMin= 5 ErrMin= 2.85D-06
 ErrMax= 2.85D-06  0.00D+00 EMaxC= 1.00D-01 BMatC= 3.75D-09 BMatP= 3.11D-08
 IDIUse=1 WtCom= 1.00D+00 WtEn= 0.00D+00
 Coeff-Com:  0.294D-02-0.476D-01-0.208D+00 0.124D+00 0.113D+01
 Coeff:      0.294D-02-0.476D-01-0.208D+00 0.124D+00 0.113D+01
 Gap=     0.244 Goal=   None    Shift=    0.000
 RMSDP=5.37D-07 MaxDP=2.33D-05 DE=-4.31D-08 OVMax= 1.22D-04

 Cycle  11  Pass 1  IDiag  1:
 E= -1199.76106564501     Delta-E=       -0.000000015924 Rises=F Damp=F
 DIIS: error= 5.61D-07 at cycle   6 NSaved=   6.
 NSaved= 6 IEnMin= 6 EnMin= -1199.76106564501     IErMin= 6 ErrMin= 5.61D-07
 ErrMax= 5.61D-07  0.00D+00 EMaxC= 1.00D-01 BMatC= 5.03D-10 BMatP= 3.75D-09
 IDIUse=1 WtCom= 1.00D+00 WtEn= 0.00D+00
 Coeff-Com:  0.692D-02-0.209D-01-0.116D+00-0.608D-02 0.453D+00 0.684D+00
 Coeff:      0.692D-02-0.209D-01-0.116D+00-0.608D-02 0.453D+00 0.684D+00
 Gap=     0.244 Goal=   None    Shift=    0.000
 RMSDP=1.01D-07 MaxDP=4.21D-06 DE=-1.59D-08 OVMax= 2.34D-05

 Cycle  12  Pass 1  IDiag  1:
 E= -1199.76106564571     Delta-E=       -0.000000000700 Rises=F Damp=F
 DIIS: error= 2.05D-07 at cycle   7 NSaved=   7.
 NSaved= 7 IEnMin= 7 EnMin= -1199.76106564571     IErMin= 7 ErrMin= 2.05D-07
 ErrMax= 2.05D-07  0.00D+00 EMaxC= 1.00D-01 BMatC= 5.90D-11 BMatP= 5.03D-10
 IDIUse=1 WtCom= 1.00D+00 WtEn= 0.00D+00
 Coeff-Com:  0.182D-02-0.142D-02-0.115D-01-0.204D-01 0.714D-02 0.232D+00
 Coeff-Com:  0.792D+00
 Coeff:      0.182D-02-0.142D-02-0.115D-01-0.204D-01 0.714D-02 0.232D+00
 Coeff:      0.792D+00
 Gap=     0.244 Goal=   None    Shift=    0.000
 RMSDP=3.93D-08 MaxDP=1.77D-06 DE=-7.00D-10 OVMax= 8.78D-06

 Cycle  13  Pass 1  IDiag  1:
 E= -1199.76106564585     Delta-E=       -0.000000000139 Rises=F Damp=F
 DIIS: error= 8.52D-08 at cycle   8 NSaved=   8.
 NSaved= 8 IEnMin= 8 EnMin= -1199.76106564585     IErMin= 8 ErrMin= 8.52D-08
 ErrMax= 8.52D-08  0.00D+00 EMaxC= 1.00D-01 BMatC= 1.02D-11 BMatP= 5.90D-11
 IDIUse=1 WtCom= 1.00D+00 WtEn= 0.00D+00
 Coeff-Com: -0.582D-03 0.301D-02 0.168D-01-0.613D-02-0.735D-01-0.434D-01
 Coeff-Com:  0.274D+00 0.830D+00
 Coeff:     -0.582D-03 0.301D-02 0.168D-01-0.613D-02-0.735D-01-0.434D-01
 Coeff:      0.274D+00 0.830D+00
 Gap=     0.244 Goal=   None    Shift=    0.000
 RMSDP=1.83D-08 MaxDP=8.44D-07 DE=-1.39D-10 OVMax= 4.10D-06

 Cycle  14  Pass 1  IDiag  1:
 E= -1199.76106564594     Delta-E=       -0.000000000095 Rises=F Damp=F
 DIIS: error= 3.59D-08 at cycle   9 NSaved=   9.
 NSaved= 9 IEnMin= 9 EnMin= -1199.76106564594     IErMin= 9 ErrMin= 3.59D-08
 ErrMax= 3.59D-08  0.00D+00 EMaxC= 1.00D-01 BMatC= 2.04D-12 BMatP= 1.02D-11
 IDIUse=1 WtCom= 1.00D+00 WtEn= 0.00D+00
 Coeff-Com: -0.521D-03 0.150D-02 0.895D-02 0.338D-03-0.324D-01-0.587D-01
 Coeff-Com: -0.125D-01 0.352D+00 0.741D+00
 Coeff:     -0.521D-03 0.150D-02 0.895D-02 0.338D-03-0.324D-01-0.587D-01
 Coeff:     -0.125D-01 0.352D+00 0.741D+00
 Gap=     0.244 Goal=   None    Shift=    0.000
 RMSDP=6.87D-09 MaxDP=3.61D-07 DE=-9.46D-11 OVMax= 1.53D-06

 SCF Done:  E(RM062X) =  -1199.76106565     A.U. after   14 cycles
            NFock= 14  Conv=0.69D-08     -V/T= 2.0028
 KE= 1.196368268047D+03 PE=-4.743384063643D+03 EE= 1.398645632492D+03
 Leave Link  502 at Sat May 24 07:33:42 2025, MaxMem=  3758096384 cpu:             176.2 elap:              43.1
 (Enter /apps/easybuild-2022/easybuild/software/Compiler/NVHPC/22.11-CUDA-11.7.0/Gaussian/g16c01-CUDA-11.7.0/g16/l508.exe)
 QCSCF skips out because SCF is already converged.
 Leave Link  508 at Sat May 24 07:33:42 2025, MaxMem=  3758096384 cpu:               0.1 elap:               0.0
 (Enter /apps/easybuild-2022/easybuild/software/Compiler/NVHPC/22.11-CUDA-11.7.0/Gaussian/g16c01-CUDA-11.7.0/g16/l801.exe)
 DoSCS=F DFT=T ScalE2(SS,OS)=  1.000000  1.000000
 Range of M.O.s used for correlation:     1   366
 NBasis=   366 NAE=    49 NBE=    49 NFC=     0 NFV=     0
 NROrb=    366 NOA=    49 NOB=    49 NVA=   317 NVB=   317

 **** Warning!!: The largest alpha MO coefficient is  0.15752069D+02

 Leave Link  801 at Sat May 24 07:33:42 2025, MaxMem=  3758096384 cpu:               0.1 elap:               0.0
 (Enter /apps/easybuild-2022/easybuild/software/Compiler/NVHPC/22.11-CUDA-11.7.0/Gaussian/g16c01-CUDA-11.7.0/g16/l1101.exe)
 Using compressed storage, NAtomX=    12.
 Will process     13 centers per pass.
   1 Symmetry operations used in ECPInt.
 ECPInt:  NShTT=    8515 NPrTT=   27988 LenC2=    8064 LenP2D=   19648.
 LDataN:  DoStor=T MaxTD1= 7 Len=  274
 Leave Link 1101 at Sat May 24 07:33:43 2025, MaxMem=  3758096384 cpu:               1.2 elap:               0.3
 (Enter /apps/easybuild-2022/easybuild/software/Compiler/NVHPC/22.11-CUDA-11.7.0/Gaussian/g16c01-CUDA-11.7.0/g16/l1102.exe)
 Symmetrizing basis deriv contribution to polar:
 IMax=3 JMax=2 DiffMx= 0.00D+00
 Leave Link 1102 at Sat May 24 07:33:43 2025, MaxMem=  3758096384 cpu:               0.1 elap:               0.0
 (Enter /apps/easybuild-2022/easybuild/software/Compiler/NVHPC/22.11-CUDA-11.7.0/Gaussian/g16c01-CUDA-11.7.0/g16/l1110.exe)
 Forming Gx(P) for the SCF density, NAtomX=    12.
 Integral derivatives from FoFJK, PRISM(SPDF).
 Do as many integral derivatives as possible in FoFJK.
 G2DrvN: MDV=    3758094988.
 G2DrvN: will do    13 centers at a time, making    1 passes.
 Calling FoFCou, ICntrl=  3107 FMM=F I1Cent=   0 AccDes= 0.00D+00.
 FoFJK:  IHMeth= 1 ICntrl=    3107 DoSepK=F KAlg= 0 I1Cent=           0 FoldK=F
 IRaf=         0 NMat=       1 IRICut=       1 DoRegI=T DoRafI=F ISym2E= 0 IDoP0=0 IntGTp=1.
 FoFCou: FMM=F IPFlag=           0 FMFlag=      100000 FMFlg1=           0
         NFxFlg=           0 DoJE=F BraDBF=F KetDBF=F FulRan=T
         wScrn=  0.000000 ICntrl=      3107 IOpCl=  0 I1Cent=           0 NGrid=           0
         NMat0=    1 NMatS0=      1 NMatT0=    0 NMatD0=    1 NMtDS0=    0 NMtDT0=    0
 Symmetry not used in FoFCou.
 End of G2Drv F.D. properties file   721 does not exist.
 End of G2Drv F.D. properties file   722 does not exist.
 End of G2Drv F.D. properties file   788 does not exist.
 Leave Link 1110 at Sat May 24 07:34:43 2025, MaxMem=  3758096384 cpu:             470.3 elap:              59.9
 (Enter /apps/easybuild-2022/easybuild/software/Compiler/NVHPC/22.11-CUDA-11.7.0/Gaussian/g16c01-CUDA-11.7.0/g16/l1002.exe)
 Minotr:  Closed shell wavefunction.
          IDoAtm=111111111111
          Direct CPHF calculation.
          Differentiating once with respect to electric field.
                with respect to dipole field.
          Differentiating once with respect to nuclear coordinates.
          Requested convergence is 1.0D-08 RMS, and 1.0D-07 maximum.
          Secondary convergence is 1.0D-12 RMS, and 1.0D-12 maximum.
          NewPWx=T KeepS1=F KeepF1=F KeepIn=T MapXYZ=F SortEE=F KeepMc=T.
         3598 words used for storage of precomputed grid.
 Keep R1 ints in memory in canonical form, NReq=2293452928.
 FoFCou: FMM=F IPFlag=           0 FMFlag=           0 FMFlg1=           0
         NFxFlg=           0 DoJE=F BraDBF=F KetDBF=F FulRan=T
         wScrn=  0.000000 ICntrl=       600 IOpCl=  0 I1Cent=           0 NGrid=           0
         NMat0=    1 NMatS0=  67161 NMatT0=    0 NMatD0=    1 NMtDS0=    0 NMtDT0=    0
 Symmetry not used in FoFCou.
 Two-electron integral symmetry not used.
          MDV=    3758096384 using IRadAn=       1.
          Solving linear equations simultaneously, MaxMat=       0.
          There are    39 degrees of freedom in the 1st order CPHF.  IDoFFX=6 NUNeed=     3.
     36 vectors produced by pass  0 Test12= 3.98D-14 2.56D-09 XBig12= 2.92D+01 1.75D+00.
 AX will form    36 AO Fock derivatives at one time.
     36 vectors produced by pass  1 Test12= 3.98D-14 2.56D-09 XBig12= 5.29D+00 3.21D-01.
     36 vectors produced by pass  2 Test12= 3.98D-14 2.56D-09 XBig12= 1.51D-01 6.84D-02.
     36 vectors produced by pass  3 Test12= 3.98D-14 2.56D-09 XBig12= 5.06D-03 9.77D-03.
     36 vectors produced by pass  4 Test12= 3.98D-14 2.56D-09 XBig12= 8.88D-05 9.88D-04.
     36 vectors produced by pass  5 Test12= 3.98D-14 2.56D-09 XBig12= 9.16D-07 1.18D-04.
     36 vectors produced by pass  6 Test12= 3.98D-14 2.56D-09 XBig12= 6.31D-09 1.04D-05.
     25 vectors produced by pass  7 Test12= 3.98D-14 2.56D-09 XBig12= 3.96D-11 6.37D-07.
      6 vectors produced by pass  8 Test12= 3.98D-14 2.56D-09 XBig12= 2.27D-13 5.30D-08.
      2 vectors produced by pass  9 Test12= 3.98D-14 2.56D-09 XBig12= 1.27D-15 3.73D-09.
 InvSVY:  IOpt=1 It=  1 EMax= 2.66D-15
 Solved reduced A of dimension   285 with    39 vectors.
 FullF1:  Do perturbations      1 to       3.
 Isotropic polarizability for W=    0.000000       58.63 Bohr**3.
 End of Minotr F.D. properties file   721 does not exist.
 End of Minotr F.D. properties file   722 does not exist.
 End of Minotr F.D. properties file   788 does not exist.
 Leave Link 1002 at Sat May 24 07:36:19 2025, MaxMem=  3758096384 cpu:             756.5 elap:              96.2
 (Enter /apps/easybuild-2022/easybuild/software/Compiler/NVHPC/22.11-CUDA-11.7.0/Gaussian/g16c01-CUDA-11.7.0/g16/l701.exe)
 ... and contract with generalized density number  0.
 Compute integral second derivatives.
   1 Symmetry operations used in ECPInt.
 ECPInt:  NShTT=    8515 NPrTT=   27988 LenC2=    8064 LenP2D=   19648.
 LDataN:  DoStor=T MaxTD1= 8 Len=  415
 Leave Link  701 at Sat May 24 07:36:19 2025, MaxMem=  3758096384 cpu:               0.9 elap:               0.2
 (Enter /apps/easybuild-2022/easybuild/software/Compiler/NVHPC/22.11-CUDA-11.7.0/Gaussian/g16c01-CUDA-11.7.0/g16/l702.exe)
 L702 exits ... SP integral derivatives will be done elsewhere.
 Leave Link  702 at Sat May 24 07:36:19 2025, MaxMem=  3758096384 cpu:               0.1 elap:               0.0
 (Enter /apps/easybuild-2022/easybuild/software/Compiler/NVHPC/22.11-CUDA-11.7.0/Gaussian/g16c01-CUDA-11.7.0/g16/l703.exe)
 Integral derivatives from FoFJK, PRISM(SPDF).
 Compute integral second derivatives, UseDBF=F ICtDFT=           0.
 Calling FoFJK, ICntrl=    100127 FMM=F ISym2X=0 I1Cent= 0 IOpClX= 0 NMat=1 NMatS=1 NMatT=0.
 FoFJK:  IHMeth= 1 ICntrl=  100127 DoSepK=F KAlg= 0 I1Cent=           0 FoldK=F
 IRaf=         0 NMat=       1 IRICut=       1 DoRegI=T DoRafI=F ISym2E= 0 IDoP0=0 IntGTp=1.
 FoFCou: FMM=F IPFlag=           0 FMFlag=      100000 FMFlg1=         800
         NFxFlg=           0 DoJE=F BraDBF=F KetDBF=F FulRan=T
         wScrn=  0.000000 ICntrl=    100127 IOpCl=  0 I1Cent=           0 NGrid=           0
         NMat0=    1 NMatS0=      1 NMatT0=    0 NMatD0=    1 NMtDS0=    0 NMtDT0=    0
 Symmetry not used in FoFCou.
[...]
     19  0.432428D-03  0.545389D-02 -0.126159D+00  0.153533D-01  0.104039D+00
     20  0.411483D-02  0.157367D-02  0.540459D-02 -0.103520D+00 -0.789283D-01
     21  0.344163D-02  0.352008D-02  0.500677D-01 -0.121981D+00 -0.460425D+00
     22 -0.209714D-02  0.257278D-02 -0.801708D-01 -0.191777D-01 -0.187071D-01
     23 -0.888581D-03  0.440979D-02  0.888679D-03 -0.187209D+00  0.275993D-01
     24 -0.900781D-03  0.183826D-02 -0.180749D-01  0.167773D-03 -0.804075D-01
     25  0.125363D-02 -0.353119D-02 -0.106122D-02  0.144251D-01  0.178054D-02
     26  0.460956D-02 -0.147754D-02 -0.482464D-04 -0.301802D-02  0.903251D-02
     27  0.108061D-02  0.153781D-02  0.680755D-02  0.211715D-02 -0.101998D-01
     28  0.123110D-01  0.121153D-02 -0.273382D-01  0.529105D-01 -0.208098D-01
     29  0.168585D-02 -0.655059D-02  0.342737D-01  0.627463D-02 -0.106508D-01
     30 -0.783104D-02  0.410104D-02  0.272647D-02  0.174225D-01 -0.566026D-01
     31 -0.503145D-04 -0.205103D-02 -0.173507D-01  0.529130D-03  0.274000D-01
     32 -0.181267D-03 -0.507052D-02  0.683689D-02 -0.443950D-02 -0.987379D-02
     33 -0.201624D-02 -0.760646D-02 -0.321901D-02  0.827336D-02  0.113930D-01
     34 -0.868982D-04  0.490044D-03  0.278273D-02 -0.599078D-02  0.786731D-03
     35 -0.232940D-03  0.346952D-04 -0.261918D-01 -0.245736D-01 -0.360056D-01
     36  0.423066D-03 -0.111162D-02  0.404123D-02 -0.557021D-02  0.463262D-02
               16            17            18            19            20 
     16  0.277407D+00
     17 -0.444048D-01  0.134008D+00
     18  0.310215D+00 -0.768746D-01  0.448405D+00
     19  0.192522D-01 -0.322037D-02 -0.229787D-01  0.832933D-01
     20  0.312255D-02  0.133243D-01  0.134828D-02 -0.208159D-01  0.133397D+00
     21  0.112805D-01 -0.413860D-02 -0.376218D-02 -0.113737D+00  0.941252D-01
     22  0.709205D-02  0.330672D-01 -0.186389D-01  0.186068D-01  0.818188D-03
     23  0.102390D-01 -0.346416D-01  0.219367D-01 -0.614912D-02 -0.297265D-01
     24 -0.146834D-01  0.439609D-01 -0.469366D-02 -0.492600D-02 -0.478608D-01
     25 -0.886469D-03 -0.321589D-02 -0.736522D-03 -0.761763D-03 -0.308660D-02
     26 -0.118100D-02  0.507492D-03 -0.220947D-02 -0.689744D-02 -0.339054D-02
     27 -0.243381D-02 -0.112755D-02  0.131934D-03  0.122767D-02  0.186431D-02
     28 -0.147807D-01 -0.379161D-01 -0.142582D-01  0.118625D-01 -0.181081D-01
     29 -0.227558D-01 -0.255684D-01 -0.142228D-01 -0.859639D-02 -0.159989D-01
     30 -0.173002D-01 -0.267067D-01  0.244848D-02  0.203164D-01  0.438199D-01
     31  0.279623D-02 -0.409430D-04 -0.340196D-02 -0.295123D-01 -0.116243D-01
     32 -0.922882D-03  0.699777D-03  0.819571D-03  0.314889D-02  0.885257D-02
     33 -0.119186D-02 -0.156533D-02 -0.208479D-02 -0.186280D-01 -0.100058D-01
     34 -0.486852D-02  0.406492D-02 -0.253098D-02  0.327000D-03  0.707571D-02
     35  0.138888D-02  0.698749D-02  0.217802D-02  0.130381D-02 -0.540351D-02
     36 -0.194151D-02  0.565347D-02 -0.617739D-02 -0.242003D-03 -0.749428D-03
               21            22            23            24            25 
     21  0.542795D+00
     22  0.331789D-03  0.211516D+00
     23 -0.162000D-01  0.940703D-01  0.365833D+00
     24 -0.160096D-01  0.250592D+00  0.111076D+00  0.414533D+00
     25 -0.162824D-02  0.638096D-03 -0.134001D-02 -0.369537D-03  0.888679D-01
     26 -0.648329D-02 -0.109438D-02 -0.385889D-02 -0.142588D-02  0.162135D+00
     27  0.628742D-02 -0.172968D-02 -0.161931D-02  0.101575D-02  0.114371D-01
     28  0.278942D-01  0.489511D-02  0.104185D-03  0.300544D-02 -0.247780D-01
     29  0.346166D-01 -0.685464D-02 -0.684357D-02  0.811922D-03 -0.868805D-02
     30 -0.138775D-01  0.111828D-02 -0.366157D-03  0.611430D-02 -0.278332D-01
     31 -0.325399D-01  0.229935D-02 -0.172835D-02 -0.228355D-02  0.189681D-01
     32  0.586003D-02 -0.137581D-02  0.146740D-02  0.133903D-02 -0.118810D-01
     33 -0.103121D-01 -0.524136D-03 -0.540708D-02 -0.117907D-02  0.853370D-02
     34  0.464828D-02 -0.140705D+00 -0.987248D-01 -0.214610D+00  0.229076D-03
     35 -0.180040D-02 -0.746025D-01 -0.905023D-01 -0.107673D+00  0.259401D-03
     36  0.140358D-02 -0.215837D+00 -0.144809D+00 -0.325339D+00 -0.499188D-04
               26            27            28            29            30 
     26  0.550387D+00
     27 -0.461305D-01  0.105930D+00
     28 -0.227961D-02 -0.193226D-01  0.683037D-01
     29  0.129009D-01 -0.586448D-02 -0.108603D-01  0.108890D+00
     30 -0.754915D-02 -0.111665D-01  0.497236D-02 -0.226696D-01  0.604061D-01
     31 -0.173688D-01  0.178900D-01  0.545276D-02  0.200773D-02  0.272515D-02
     32 -0.657562D-01  0.776523D-01 -0.601191D-03  0.276470D-02  0.497568D-03
     33  0.589907D-01 -0.154868D-01 -0.439042D-02  0.201820D-02 -0.260436D-02
     34  0.202187D-03 -0.717791D-04 -0.127310D-03 -0.542776D-04 -0.532827D-03
     35  0.446927D-03  0.148181D-03  0.163933D-02  0.534794D-03  0.128765D-02
     36  0.674599D-03  0.267733D-03 -0.886040D-03  0.142135D-02 -0.263019D-03
               31            32            33            34            35 
     31  0.498162D-01
     32  0.914641D-02  0.185905D+00
     33  0.386668D-01 -0.188538D+00  0.479993D+00
     34  0.407848D-03 -0.193578D-03  0.249839D-03  0.144952D+00
     35  0.916300D-04 -0.111357D-03  0.443070D-03  0.965627D-01  0.115651D+00
     36 -0.133065D-03  0.233801D-04  0.525257D-03  0.211964D+00  0.140847D+00
               36 
     36  0.326186D+00
 Red2BG is reusing G-inverse.
 Leave Link  716 at Sat May 24 07:54:33 2025, MaxMem=  3758096384 cpu:               0.1 elap:               0.0
 (Enter /apps/easybuild-2022/easybuild/software/Compiler/NVHPC/22.11-CUDA-11.7.0/Gaussian/g16c01-CUDA-11.7.0/g16/l9999.exe)

 ----------------------------------------------------------------------

 Electric dipole moment (input orientation):
 (Debye = 10**-18 statcoulomb cm , SI units = C m)
                  (au)            (Debye)         (10**-30 SI)
   Tot        0.189914D+01      0.482714D+01      0.161016D+02
   x         -0.168687D+01     -0.428760D+01     -0.143019D+02
   y          0.522952D+00      0.132921D+01      0.443377D+01
   z         -0.698374D+00     -0.177509D+01     -0.592107D+01

 Dipole polarizability, Alpha (input orientation).
 (esu units = cm**3 , SI units = C**2 m**2 J**-1)
 Alpha(0;0):
               (au)            (10**-24 esu)      (10**-40 SI)
   iso        0.591679D+02      0.876778D+01      0.975548D+01
   aniso      0.190161D+02      0.281790D+01      0.313534D+01
   xx         0.629641D+02      0.933031D+01      0.103814D+02
   yx         0.633288D+01      0.938436D+00      0.104415D+01
   yy         0.588047D+02      0.871396D+01      0.969559D+01
   zx         0.809131D+01      0.119901D+01      0.133408D+01
   zy         0.134138D+01      0.198772D+00      0.221163D+00
   zz         0.557350D+02      0.825908D+01      0.918946D+01

 ----------------------------------------------------------------------

 Dipole orientation:
     6          1.59720193          2.45009114          0.52401988
     6         -0.06141957          0.08040981         -0.01131361
     9          0.44995177         -1.54922231          1.83685036
     9         -2.48793360          0.60425422          0.05714925
    16          1.40485690         -0.71066616         -3.08960845
     8          0.13002076         -1.28154882         -5.39181398
     8          3.80128215          0.56786782         -2.62117431
     8          2.16332176         -3.54076449         -2.18343843
     9          0.80218255          4.67144013          0.58882140
     9          0.01296409          2.63655066         -3.28912675
     9          3.58732324          2.18261382          1.79996998
     1          1.41323114         -4.71164109         -3.36013108

 Electric dipole moment (dipole orientation):
 (Debye = 10**-18 statcoulomb cm , SI units = C m)
                  (au)            (Debye)         (10**-30 SI)
   Tot        0.189914D+01      0.482714D+01      0.161016D+02
   x          0.000000D+00      0.000000D+00      0.000000D+00
   y          0.000000D+00      0.000000D+00      0.000000D+00
   z          0.189914D+01      0.482714D+01      0.161016D+02

 Dipole polarizability, Alpha (dipole orientation).
 (esu units = cm**3 , SI units = C**2 m**2 J**-1)
 Alpha(0;0):
               (au)            (10**-24 esu)      (10**-40 SI)
   iso        0.591679D+02      0.876778D+01      0.975548D+01
   aniso      0.190161D+02      0.281790D+01      0.313534D+01
   xx         0.515775D+02      0.764299D+01      0.850397D+01
   yx        -0.239768D+01     -0.355299D+00     -0.395324D+00
   yy         0.623390D+02      0.923769D+01      0.102783D+02
   zx         0.187424D+01      0.277734D+00      0.309021D+00
   zy         0.822648D+01      0.121904D+01      0.135636D+01
   zz         0.635874D+02      0.942267D+01      0.104841D+02

 ----------------------------------------------------------------------
 Unable to Open any file for archive entry.
 1\1\GINC-SPARTAN-BM181\Freq\RM062X\def2TZVPP\C2H1F5O3S1\AKHALILOV\24-M
 ay-2025\0\\#P M062X/Def2TZVPP Symm(None) scf(xqc) pop(None) opt(NoFree
 ze,TS,CalcAll,NoEigentest,MaxCycle=999)\\Gaussian input prepared by AS
 E\\0,1\C,-0.1204935029,-0.9971540888,-1.2097206782\C,-0.0160452303,-0.
 0476527956,0.0193536715\F,-0.6160135667,1.084600655,-0.3431873045\F,-0
 .6411693821,-0.5291366584,1.0702336432\S,1.8340512601,0.0379580577,0.0
 444523873\O,2.6847038178,-0.1327961947,1.1748479292\O,2.0295206135,-0.
 3060732464,-1.3593967084\O,1.8457807101,1.65637281,-0.0759962389\F,-0.
 5391885372,-2.1732648182,-1.1723324163\F,1.2993947312,-1.7959048435,0.
 2497681992\F,-0.2492660889,-0.4892071396,-2.3544556367\H,2.3416928739,
 1.9991811863,0.6761622368\\Version=ES64L-G16RevC.01\HF=-1199.7640963\R
 MSD=4.886e-09\RMSF=3.663e-06\ZeroPoint=0.0509937\Thermal=0.0607838\ETo
 t=-1199.7033125\HTot=-1199.7023684\GTot=-1199.7481778\Dipole=-1.686872
 7,0.5229523,-0.6983745\DipoleDeriv=1.7939317,0.5373347,0.5686132,0.639
 7278,1.6504239,-0.1993208,0.744876,-0.2436477,1.6850264,0.8524764,-0.3
 344133,-0.305757,-0.3929606,1.0292234,-0.196191,-0.487983,-0.2086857,0
 .9151961,-0.5332898,0.3650506,-0.0752148,0.4044164,-0.6743263,0.142844
 7,-0.0516027,0.1193004,-0.2583929,-0.5090462,-0.0863679,0.3421382,-0.0
 912362,-0.2660654,0.1489273,0.4016879,0.1600305,-0.5893801,1.597945,0.
 2543487,0.2711546,0.5264001,3.037815,0.1833651,0.6751641,0.2263818,2.0
 809604,-0.7705235,0.0003675,-0.279739,-0.0629167,-0.6980655,-0.0219461
 ,-0.4051493,0.0199831,-0.8305631,-0.9614803,-0.2156354,-0.0282652,-0.2
 726193,-0.7488589,-0.1936451,-0.1199315,-0.2646258,-1.0627239,-0.53274
 2,-0.1450261,-0.0095029,-0.2972167,-1.4185289,-0.0920768,-0.0583283,-0
 .0881253,-0.4669478,-0.3493737,-0.2894368,-0.1559883,-0.5960579,-0.834
 3023,-0.129852,-0.1052724,-0.0932043,-0.2440439,-0.6135545,-0.038813,-
 0.1244721,-0.0311496,-1.2260899,0.131894,-0.1306201,0.1658243,-0.60001
 83,-0.2889849,-0.102287,-0.1865553,0.127082,-0.2267297,0.1861021,-0.47
 21263,0.1264961,-0.9052737,0.3146416,0.0548781,-0.0164113,0.0465309,0.
 3755045,0.0398988,0.0092855,0.0802726,0.2761606\Polar=62.9640748,6.332
 8821,58.8047431,8.0913137,1.3413775,55.7350123\PG=Unknown\NImag=1\\0.1
 4940216,0.11590907,0.75091957,0.02051513,-0.01193661,0.67840734,-0.043
 85267,-0.00232593,0.01979973,0.48151392,-0.01651878,-0.07492424,-0.071
 44907,-0.01389972,0.49448204,-0.00623250,-0.06298652,-0.11181761,-0.08
 529465,-0.05987332,0.52139866,-0.00600131,0.01335299,-0.00719059,-0.13
 188777,0.09892214,-0.02086066,0.13311244,0.02035547,-0.05261399,0.0041
 3020,0.11348506,-0.24456427,0.04302239,-0.13342569,0.35050171,0.002001
 62,-0.01066158,0.00181190,-0.02553121,0.03690436,-0.08259591,0.0285593
 2,-0.08456666,0.09897888,-0.00620351,-0.00528017,0.00755747,-0.1482655
 2,-0.04712460,0.12082374,0.01870126,0.00078820,-0.00955459,0.14742637,
 0.00361249,0.00496970,-0.00207420,-0.05618438,-0.10070953,0.07412801,-
 0.01118569,-0.04046723,0.05798114,0.04798617,0.13449921,0.01995590,0.0
 1383182,-0.04460592,0.12537076,0.07582018,-0.25199355,0.00094884,0.041
 66927,-0.02883628,-0.15555781,-0.12898804,0.33186469,0.02477715,-0.005
 01576,-0.03936984,-0.16967941,-0.01019544,-0.02206320,0.00269965,-0.00
 226894,0.00345914,0.00824098,0.00511591,0.00252202,0.66845882,-0.05812
 168,0.02590327,-0.05178867,-0.01738180,0.01717739,-0.00739901,0.025546
 90,-0.02611535,0.00443188,-0.00752074,-0.00888605,0.00543136,-0.054759
 79,0.39749801,-0.11377887,-0.04958857,0.01533259,0.01554460,-0.0019182
 7,-0.03303154,-0.01364760,0.00558558,-0.00389742,0.02772995,0.00585553
 ,-0.01326963,0.27099093,0.08585691,1.06388187,-0.00920863,-0.00233634,
 0.00689764,0.01632517,-0.00041555,-0.01018431,-0.00638923,0.00418564,-
 0.00194360,-0.00153918,-0.00110718,0.00261427,-0.28520032,0.05418751,-
 0.28132880,0.27740736,0.00567929,-0.00634034,0.00700244,0.00090000,-0.
 00542464,0.00154669,-0.00105833,0.00405271,-0.00010201,0.00018475,0.00
 148646,-0.00068410,0.04596021,-0.08909136,0.05303539,-0.04440478,0.134
 00810,0.01081814,0.00581639,0.00124795,0.00494881,-0.00132159,-0.00297
 478,-0.00130726,0.00059111,0.00030434,-0.00424139,-0.00109968,0.004561
 59,-0.25788806,0.06303803,-0.43740673,0.31021504,-0.07687456,0.4484052
 5,0.04212473,0.02311311,0.00253468,-0.00831599,-0.00137347,0.02714549,
 -0.00138232,0.00370115,-0.00020601,-0.00933546,0.00043243,0.00545389,-
 0.12615869,0.01535328,0.10403947,0.01925222,-0.00322037,-0.02297869,0.
 08329333,0.04220047,0.00140196,0.00283342,-0.00785382,-0.00811439,-0.0
 0970677,-0.00067595,0.00506367,0.00168623,0.00354314,0.00411483,0.0015
 7367,0.00540459,-0.10352018,-0.07892825,0.00312255,0.01332433,0.001348
 28,-0.02081587,0.13339662,0.05292923,0.02113615,-0.02758326,-0.0139737
 3,-0.00704139,-0.02753571,0.00691664,-0.00153484,0.00549942,0.00781038
 ,0.00344163,0.00352008,0.05006767,-0.12198109,-0.46042473,0.01128053,-
 0.00413860,-0.00376218,-0.11373690,0.09412517,0.54279459,-0.01091489,0
 .00034864,0.00290865,-0.00155423,-0.01489083,-0.00103295,-0.00761040,-
 0.00821132,-0.00105328,-0.00409251,-0.00209714,0.00257278,-0.08017084,
 -0.01917771,-0.01870708,0.00709205,0.03306723,-0.01863893,0.01860679,0
 .00081819,0.00033179,0.21151646,0.00556328,0.00334478,0.00868420,0.008
 60354,-0.02607924,-0.00498763,-0.00519254,0.00910507,-0.00031717,-0.00
 633414,-0.00088858,0.00440979,0.00088868,-0.18720922,0.02759929,0.0102
 3899,-0.03464160,0.02193673,-0.00614912,-0.02972649,-0.01619997,0.0940
 7028,0.36583267,0.00989394,0.00443474,-0.00168093,-0.00539783,-0.00255
 194,0.00437342,-0.00060710,-0.00137806,0.00143507,-0.00253866,-0.00090
 078,0.00183826,-0.01807489,0.00016777,-0.08040755,-0.01468338,0.043960
 87,-0.00469366,-0.00492600,-0.04786078,-0.01600960,0.25059178,0.111076
 18,0.41453322,-0.08853231,-0.14537791,0.00750691,0.00388760,-0.0021899
 8,0.00515987,0.00100420,-0.00229396,-0.00026949,0.00242477,0.00125363,
 -0.00353119,-0.00106122,0.01442515,0.00178054,-0.00088647,-0.00321589,
 -0.00073652,-0.00076176,-0.00308660,-0.00162824,0.00063810,-0.00134001
 ,-0.00036954,0.08886792,-0.11370597,-0.47645951,-0.01542596,-0.0277380
 1,-0.01327959,0.01355281,0.00256344,-0.00308958,-0.00154875,0.00541260
 ,0.00460956,-0.00147754,-0.00004825,-0.00301802,0.00903251,-0.00118100
 ,0.00050749,-0.00220947,-0.00689744,-0.00339054,-0.00648329,-0.0010943
 8,-0.00385889,-0.00142588,0.16213522,0.55038744,-0.00379456,-0.0128343
 8,-0.09045634,-0.01229151,-0.00884084,0.01309268,0.00203235,-0.0064454
 9,-0.00095369,0.00024925,0.00108061,0.00153781,0.00680755,0.00211715,-
 0.01019983,-0.00243381,-0.00112755,0.00013193,0.00122767,0.00186431,0.
 00628742,-0.00172968,-0.00161931,0.00101575,0.01143710,-0.04613055,0.1
 0592983,-0.00410830,-0.00938228,0.02657621,-0.00823587,0.00478197,-0.0
 0615491,-0.00360179,0.00740059,0.00216229,-0.00754396,0.01231098,0.001
 21153,-0.02733817,0.05291055,-0.02080984,-0.01478069,-0.03791609,-0.01
 425820,0.01186247,-0.01810809,0.02789421,0.00489511,0.00010418,0.00300
 544,-0.02477800,-0.00227961,-0.01932262,0.06830374,0.00178723,-0.03785
 670,0.00580876,-0.00097385,-0.04298759,0.01325177,0.01188450,-0.003795
 48,0.00202969,0.00883021,0.00168585,-0.00655059,0.03427373,0.00627463,
 -0.01065076,-0.02275584,-0.02556841,-0.01422283,-0.00859639,-0.0159988
 6,0.03461661,-0.00685464,-0.00684357,0.00081192,-0.00868805,0.01290091
 ,-0.00586448,-0.01086035,0.10888971,0.01654008,-0.00700769,0.01942339,
 -0.00792026,0.00673376,-0.01224145,0.00111873,0.00236892,0.00426213,0.
 00406905,-0.00783104,0.00410104,0.00272647,0.01742252,-0.05660261,-0.0
 1730021,-0.02670670,0.00244848,0.02031641,0.04381995,-0.01387747,0.001
 11828,-0.00036616,0.00611430,-0.02783323,-0.00754915,-0.01116654,0.004
 97236,-0.02266963,0.06040612,-0.04588464,0.01703269,-0.04809797,0.0106
 0551,0.00550984,-0.00029548,0.00179975,-0.00350474,0.00212094,0.000601
 82,-0.00005031,-0.00205103,-0.01735067,0.00052913,0.02739996,0.0027962
 3,-0.00004094,-0.00340196,-0.02951233,-0.01162431,-0.03253987,0.002299
 35,-0.00172835,-0.00228355,0.01896812,-0.01736877,0.01789003,0.0054527
 6,0.00200773,0.00272515,0.04981625,-0.00611990,-0.13764927,0.12550615,
 0.00425527,0.00656961,-0.00272282,-0.00246634,0.00187809,-0.00549338,0
 .00017322,-0.00018127,-0.00507052,0.00683689,-0.00443950,-0.00987379,-
 0.00092288,0.00069978,0.00081957,0.00314889,0.00885257,0.00586003,-0.0
 0137581,0.00146740,0.00133903,-0.01188098,-0.06575621,0.07765234,-0.00
 060119,0.00276470,0.00049757,0.00914641,0.18590544,-0.00961921,0.11106
 946,-0.43878022,-0.01595534,0.03002605,-0.01785136,0.00370230,-0.00328
 878,0.00399374,0.00237532,-0.00201624,-0.00760646,-0.00321901,0.008273
 36,0.01139298,-0.00119186,-0.00156533,-0.00208479,-0.01862801,-0.01000
 579,-0.01031214,-0.00052414,-0.00540708,-0.00117907,0.00853370,0.05899
 066,-0.01548676,-0.00439042,0.00201820,-0.00260436,0.03866683,-0.18853
 757,0.47999319,-0.00159778,-0.00003810,0.00036199,-0.00054075,-0.00260
 557,-0.00101044,-0.00044450,-0.00021147,0.00025486,-0.00041505,-0.0000
 8690,0.00049004,0.00278273,-0.00599078,0.00078673,-0.00486852,0.004064
 92,-0.00253098,0.00032700,0.00707571,0.00464828,-0.14070500,-0.0987247
 9,-0.21461021,0.00022908,0.00020219,-0.00007178,-0.00012731,-0.0000542
 8,-0.00053283,0.00040785,-0.00019358,0.00024984,0.14495227,-0.00064096
 ,-0.00069521,-0.00129066,-0.00088636,-0.00214553,0.00217439,0.00173456
 ,0.00004465,-0.00034376,-0.00065863,-0.00023294,0.00003470,-0.02619183
 ,-0.02457362,-0.03600556,0.00138888,0.00698749,0.00217802,0.00130381,-
 0.00540351,-0.00180040,-0.07460250,-0.09050234,-0.10767307,0.00025940,
 0.00044693,0.00014818,0.00163933,0.00053479,0.00128765,0.00009163,-0.0
 0011136,0.00044307,0.09656266,0.11565064,0.00077110,-0.00127322,-0.001
 29888,0.00070061,0.00351207,0.00117716,0.00033502,-0.00015365,-0.00000
 219,0.00127729,0.00042307,-0.00111162,0.00404123,-0.00557021,0.0046326
 2,-0.00194151,0.00565347,-0.00617739,-0.00024200,-0.00074943,0.0014035
 8,-0.21583722,-0.14480886,-0.32533922,-0.00004992,0.00067460,0.0002677
 3,-0.00088604,0.00142135,-0.00026302,-0.00013306,0.00002338,0.00052526
 ,0.21196450,0.14084744,0.32618597\\-0.00000475,-0.00000076,-0.00000054
 ,0.00000019,-0.00000155,0.00000284,-0.00000164,-0.00000541,0.00000580,
 0.00000457,-0.00000443,0.00000318,0.00000071,-0.00000063,-0.00000730,0
 .00000441,0.00000263,-0.00000525,-0.00000435,0.00000800,-0.00000021,-0
 .00000250,0.00000471,-0.00000030,0.00000201,0.00000204,0.00000046,0.00
 000500,-0.00000129,-0.00000327,-0.00000406,-0.00000112,0.00000642,0.00
 000040,-0.00000220,-0.00000184\\\@
 The archive entry for this job was punched.


 MARY HAD A LITTLE LAMB
      HIS FEET WERE BLACK AS SOOT,
           AND EVERYWHERE THAT MARY WENT
                HIS SOOTY FOOT HE PUT.

                    -- NONAME
 Job cpu time:       0 days  3 hours 20 minutes 32.2 seconds.
 Elapsed time:       0 days  0 hours 27 minutes 10.5 seconds.
 File lengths (MBytes):  RWF=    173 Int=      0 D2E=      0 Chk=     11 Scr=      1
 Normal termination of Gaussian 16 at Sat May 24 07:54:33 2025.
done
