12
energy = 0
C 1.80111529 -0.65522265 -1.27729052
C 1.97203920 0.18089612 0.01635477
F -0.56699663 0.09966247 0.36703010
F 1.89115231 -0.44765356 1.09267006
S 2.15956057 2.00385455 0.02045767
O 2.93499921 2.20966755 1.18979219
O 2.74140472 2.24767363 -1.25108152
O 0.70892398 2.08714600 0.14226455
F 1.01152247 -0.08714257 -2.14944993
F 2.98135307 -0.83367029 -1.86618156
F 1.32490712 -1.85801615 -1.05080409
H -0.75760030 1.01242989 0.38833229
