 Entering Gaussian System, Link 0=g16
 Initial command:
 /apps/easybuild-2022/easybuild/software/Compiler/NVHPC/22.11-CUDA-11.7.0/Gaussian/g16c01-CUDA-11.7.0/g16/l1.exe "/tmp/Gau-201479.inp" -scrdir="/tmp/"
 Entering Link 1 = /apps/easybuild-2022/easybuild/software/Compiler/NVHPC/22.11-CUDA-11.7.0/Gaussian/g16c01-CUDA-11.7.0/g16/l1.exe PID=    201480.
  
 Copyright (c) 1988-2019, Gaussian, Inc.  All Rights Reserved.
  
 This is part of the Gaussian(R) 16 program.  It is based on
 the Gaussian(R) 09 system (copyright 2009, Gaussian, Inc.),
 the Gaussian(R) 03 system (copyright 2003, Gaussian, Inc.),
 the Gaussian(R) 98 system (copyright 1998, Gaussian, Inc.),
 the Gaussian(R) 94 system (copyright 1995, Gaussian, Inc.),
 the Gaussian 92(TM) system (copyright 1992, Gaussian, Inc.),
 the Gaussian 90(TM) system (copyright 1990, Gaussian, Inc.),
 the Gaussian 88(TM) system (copyright 1988, Gaussian, Inc.),
 the Gaussian 86(TM) system (copyright 1986, Carnegie Mellon
 University), and the Gaussian 82(TM) system (copyright 1983,
 Carnegie Mellon University). Gaussian is a federally registered
 trademark of Gaussian, Inc.
  
 This software contains proprietary and confidential information,
 including trade secrets, belonging to Gaussian, Inc.
  
 This software is provided under written license and may be
 used, copied, transmitted, or stored only in accord with that
 written license.
  
 The following legend is applicable only to US Government
 contracts under FAR:
  
                    RESTRICTED RIGHTS LEGEND
  
 Use, reproduction and disclosure by the US Government is
 subject to restrictions as set forth in subparagraphs (a)
 and (c) of the Commercial Computer Software - Restricted
 Rights clause in FAR 52.227-19.
  
 Gaussian, Inc.
 340 Quinnipiac St., Bldg. 40, Wallingford CT 06492
  
  
 ---------------------------------------------------------------
 Warning -- This program may not be used in any manner that
 competes with the business of Gaussian, Inc. or will provide
 assistance to any competitor of Gaussian, Inc.  The licensee
 of this program is prohibited from giving any competitor of
 Gaussian, Inc. access to this program.  By using this program,
 the user acknowledges that Gaussian, Inc. is engaged in the
 business of creating and licensing software in the field of
 computational chemistry and represents and warrants to the
 licensee that it is not a competitor of Gaussian, Inc. and that
 it will not use this program in any manner prohibited above.
 ---------------------------------------------------------------
  

 Cite this work as:
 Gaussian 16, Revision C.01,
 M. J. Frisch, G. W. Trucks, H. B. Schlegel, G. E. Scuseria, 
 M. A. Robb, J. R. Cheeseman, G. Scalmani, V. Barone, 
 G. A. Petersson, H. Nakatsuji, X. Li, M. Caricato, A. V. Marenich, 
 J. Bloino, B. G. Janesko, R. Gomperts, B. Mennucci, H. P. Hratchian, 
 J. V. Ortiz, A. F. Izmaylov, J. L. Sonnenberg, D. Williams-Young, 
 F. Ding, F. Lipparini, F. Egidi, J. Goings, B. Peng, A. Petrone, 
 T. Henderson, D. Ranasinghe, V. G. Zakrzewski, J. Gao, N. Rega, 
 G. Zheng, W. Liang, M. Hada, M. Ehara, K. Toyota, R. Fukuda, 
 J. Hasegawa, M. Ishida, T. Nakajima, Y. Honda, O. Kitao, H. Nakai, 
 T. Vreven, K. Throssell, J. A. Montgomery, Jr., J. E. Peralta, 
 F. Ogliaro, M. J. Bearpark, J. J. Heyd, E. N. Brothers, K. N. Kudin, 
 V. N. Staroverov, T. A. Keith, R. Kobayashi, J. Normand, 
 K. Raghavachari, A. P. Rendell, J. C. Burant, S. S. Iyengar, 
 J. Tomasi, M. Cossi, J. M. Millam, M. Klene, C. Adamo, R. Cammi, 
 J. W. Ochterski, R. L. Martin, K. Morokuma, O. Farkas, 
 J. B. Foresman, and D. J. Fox, Gaussian, Inc., Wallingford CT, 2019.
 
 ******************************************
 Gaussian 16:  ES64L-G16RevC.01  3-Jul-2019
                24-May-2025 
 ******************************************
 %mem=28GB
 %nprocshared=8
 Will use up to    8 processors via shared memory.
 ------------------------------------------
 #P am1 Symm(None) scf(xqc) pop(None) force
 ------------------------------------------
 1/10=7,30=1,38=1/1,3;
 2/12=2,15=3,17=6,18=5,40=1/2;
 3/5=2,25=1,41=700000,71=1/1,2,3;
 4/35=1/1;
 5/5=2,8=3,13=1,35=1,38=5/2,8;
 7/29=1,30=1/1,2,3,16;
 1/10=7,30=1/3;
 99//99;
 Leave Link    1 at Sat May 24 07:26:21 2025, MaxMem=  3758096384 cpu:               0.1 elap:               0.0
 (Enter /apps/easybuild-2022/easybuild/software/Compiler/NVHPC/22.11-CUDA-11.7.0/Gaussian/g16c01-CUDA-11.7.0/g16/l101.exe)
 ------------------------------
 Gaussian input prepared by ASE
 ------------------------------
 Symbolic Z-matrix:
 Charge =  0 Multiplicity = 1
 C                    -0.69377  -1.23983   0.1475 
 C                    -0.04619   0.15292   0.40036 
 F                    -0.66633   1.08223  -0.32432 
 F                    -0.24504   0.53876   1.64075 
 S                     1.68097  -0.24233  -0.13922 
 O                     2.96627  -0.19447   0.47423 
 O                     1.08484  -1.00504  -1.23031 
 O                     1.76773   1.25258  -0.76498 
 F                    -1.13135  -1.96108   1.06863 
 F                     1.21886  -1.59352   1.14593 
 F                    -1.01127  -1.72328  -0.97087 
 H                     2.52322   1.81266  -0.55348 
 
 ITRead=  0  0  0  0  0  0  0  0  0  0  0  0
 MicOpt= -1 -1 -1 -1 -1 -1 -1 -1 -1 -1 -1 -1
 NAtoms=     12 NQM=       12 NQMF=       0 NMMI=      0 NMMIF=      0
                NMic=       0 NMicF=      0.
                    Isotopes and Nuclear Properties:
 (Nuclear quadrupole moments (NQMom) in fm**2, nuclear magnetic moments (NMagM)
  in nuclear magnetons)

  Atom         1           2           3           4           5           6           7           8           9          10
 IAtWgt=          12          12          19          19          32          16          16          16          19          19
 AtmWgt=  12.0000000  12.0000000  18.9984032  18.9984032  31.9720718  15.9949146  15.9949146  15.9949146  18.9984032  18.9984032
 NucSpn=           0           0           1           1           0           0           0           0           1           1
 AtZEff=  -0.0000000  -0.0000000  -0.0000000  -0.0000000  -0.0000000  -0.0000000  -0.0000000  -0.0000000  -0.0000000  -0.0000000
 NQMom=    0.0000000   0.0000000   0.0000000   0.0000000   0.0000000   0.0000000   0.0000000   0.0000000   0.0000000   0.0000000
 NMagM=    0.0000000   0.0000000   2.6288670   2.6288670   0.0000000   0.0000000   0.0000000   0.0000000   2.6288670   2.6288670
 AtZNuc=   6.0000000   6.0000000   9.0000000   9.0000000  16.0000000   8.0000000   8.0000000   8.0000000   9.0000000   9.0000000

  Atom        11          12
 IAtWgt=          19           1
 AtmWgt=  18.9984032   1.0078250
 NucSpn=           1           1
 AtZEff=  -0.0000000  -0.0000000
 NQMom=    0.0000000   0.0000000
 NMagM=    2.6288670   2.7928460
 AtZNuc=   9.0000000   1.0000000
 Leave Link  101 at Sat May 24 07:26:21 2025, MaxMem=  3758096384 cpu:               0.1 elap:               0.1
 (Enter /apps/easybuild-2022/easybuild/software/Compiler/NVHPC/22.11-CUDA-11.7.0/Gaussian/g16c01-CUDA-11.7.0/g16/l103.exe)

 GradGradGradGradGradGradGradGradGradGradGradGradGradGradGradGradGradGrad
 Berny optimization.
 Initialization pass.
 Trust Radius=3.00D-01 FncErr=1.00D-07 GrdErr=1.00D-07 EigMax=2.50D+02 EigMin=1.00D-04
 Number of steps in this run=      2 maximum allowed number of steps=      2.
 GradGradGradGradGradGradGradGradGradGradGradGradGradGradGradGradGradGrad

 Leave Link  103 at Sat May 24 07:26:21 2025, MaxMem=  3758096384 cpu:               0.1 elap:               0.0
 (Enter /apps/easybuild-2022/easybuild/software/Compiler/NVHPC/22.11-CUDA-11.7.0/Gaussian/g16c01-CUDA-11.7.0/g16/l202.exe)
                          Input orientation:                          
 ---------------------------------------------------------------------
 Center     Atomic      Atomic             Coordinates (Angstroms)
 Number     Number       Type             X           Y           Z
 ---------------------------------------------------------------------
      1          6           0       -0.693771   -1.239826    0.147497
      2          6           0       -0.046188    0.152924    0.400362
      3          9           0       -0.666333    1.082227   -0.324318
      4          9           0       -0.245035    0.538759    1.640747
      5         16           0        1.680970   -0.242330   -0.139224
      6          8           0        2.966266   -0.194470    0.474231
      7          8           0        1.084844   -1.005039   -1.230314
      8          8           0        1.767729    1.252578   -0.764980
      9          9           0       -1.131351   -1.961083    1.068630
     10          9           0        1.218858   -1.593522    1.145925
     11          9           0       -1.011274   -1.723279   -0.970866
     12          1           0        2.523222    1.812661   -0.553484
 ---------------------------------------------------------------------
                    Distance matrix (angstroms):
                    1          2          3          4          5
     1  C    0.000000
     2  C    1.556618   0.000000
     3  F    2.369661   1.331670   0.000000
     4  F    2.365275   1.314140   2.081904   0.000000
     5  S    2.591640   1.852148   2.701580   2.736401   0.000000
     6  O    3.820392   3.033318   3.932354   3.494401   1.424994
     7  O    2.262069   2.297654   2.871259   3.520636   1.458618
     8  O    3.619900   2.420239   2.479488   3.216874   1.622913
     9  F    1.249070   2.468439   3.379095   2.713316   3.510295
    10  F    2.186346   2.281727   3.588201   2.633335   1.921165
    11  F    1.259075   2.516306   2.899633   3.538991   3.183239
    12  H    4.489777   3.204124   3.280138   3.755093   2.259201
                    6          7          8          9         10
     6  O    0.000000
     7  O    2.665004   0.000000
     8  O    2.250796   2.404101   0.000000
     9  F    4.501633   3.333270   4.700469   0.000000
    10  F    2.337083   2.451690   3.471758   2.380033   0.000000
    11  F    4.499599   2.230895   4.076883   2.056822   3.077520
    12  H    2.298057   3.235191   0.963946   5.498027   4.023859
                   11         12
    11  F    0.000000
    12  H    5.016945   0.000000
 Symmetry turned off by external request.
 Stoichiometry    C2HF5O3S
 Rotational constants (GHZ):           1.4833164           0.9460304           0.8776146
 Leave Link  202 at Sat May 24 07:26:21 2025, MaxMem=  3758096384 cpu:               0.1 elap:               0.0
 (Enter /apps/easybuild-2022/easybuild/software/Compiler/NVHPC/22.11-CUDA-11.7.0/Gaussian/g16c01-CUDA-11.7.0/g16/l301.exe)
 Standard basis: VSTO-6G (5D, 7F)
 Ernie: Thresh=  0.10000D-02 Tol=  0.10000D-05 Strict=F.
  NNHCO=     0 NNPyr=     0 NCTC=     0               EPep=         0.000000000
    EC=       402.353981292  ECS=         2.713599059   EG=         0.768431883
   EHC=         0.000000000  EAt=      -139.813231795  AtH=         1.168761636
 EPDDG=         0.000000000  ECC=       405.836012234 EAtT=       140.981993432
    45 basis functions,   270 primitive gaussians,    45 cartesian basis functions
    34 alpha electrons       34 beta electrons
       nuclear repulsion energy       547.5563514922 Hartrees.



 Warning!  S  atom    5 may be hypervalent but has no d functions.



 IExCor=    0 DFT=F Ex=HF Corr=None ExCW=0 ScaHFX=  1.000000
 ScaDFX=  1.000000  1.000000  1.000000  1.000000 ScalE2=  1.000000  1.000000
 IRadAn=      5 IRanWt=     -1 IRanGd=            0 ICorTp=0 IEmpDi=  4
 Integral buffers will be    131072 words long.
 Regular integral format.
 Two-electron integral symmetry is turned off.
 Leave Link  301 at Sat May 24 07:26:21 2025, MaxMem=  3758096384 cpu:               0.1 elap:               0.0
 (Enter /apps/easybuild-2022/easybuild/software/Compiler/NVHPC/22.11-CUDA-11.7.0/Gaussian/g16c01-CUDA-11.7.0/g16/l302.exe)
 Do NDO integrals.
 NPDir=0 NMtPBC=     1 NCelOv=     1 NCel=       1 NClECP=     1 NCelD=      1
         NCelK=      1 NCelE2=     1 NClLst=     1 CellRange=     0.0.
 One-electron integrals computed using PRISM.
 NBasis=    45 RedAO= F EigKep=  0.00D+00  NBF=    45
 NBsUse=    45 1.00D-04 EigRej=  0.00D+00 NBFU=    45
 Leave Link  302 at Sat May 24 07:26:21 2025, MaxMem=  3758096384 cpu:               0.1 elap:               0.1
 (Enter /apps/easybuild-2022/easybuild/software/Compiler/NVHPC/22.11-CUDA-11.7.0/Gaussian/g16c01-CUDA-11.7.0/g16/l303.exe)
 DipDrv:  MaxL=1.
 Leave Link  303 at Sat May 24 07:26:21 2025, MaxMem=  3758096384 cpu:               0.1 elap:               0.0
 (Enter /apps/easybuild-2022/easybuild/software/Compiler/NVHPC/22.11-CUDA-11.7.0/Gaussian/g16c01-CUDA-11.7.0/g16/l401.exe)
 Simple Huckel Guess.
 JPrj=0 DoOrth=F DoCkMO=F.
 Leave Link  401 at Sat May 24 07:26:21 2025, MaxMem=  3758096384 cpu:               0.1 elap:               0.0
 (Enter /apps/easybuild-2022/easybuild/software/Compiler/NVHPC/22.11-CUDA-11.7.0/Gaussian/g16c01-CUDA-11.7.0/g16/l502.exe)
 Keep J ints in memory in canonical form, NReq=865884.
 FoFCou: FMM=F IPFlag=           0 FMFlag=           0 FMFlg1=           0
         NFxFlg=           0 DoJE=F BraDBF=F KetDBF=F FulRan=T
         wScrn=  0.000000 ICntrl=       600 IOpCl=  2 I1Cent=           0 NGrid=           0
         NMat0=    1 NMatS0=    111 NMatT0=    0 NMatD0=    1 NMtDS0=    0 NMtDT0=    0
 Symmetry not used in FoFCou.
 Two-electron integral symmetry not used.
 Closed shell SCF:
 Using DIIS extrapolation, IDIIS=  1040.
 Overlap will be assumed to be unity.
 NGot=  3758096384 LenX=  3758025819 LenY=  3758023353
 Requested convergence on RMS density matrix=1.00D-08 within  32 cycles.
 Requested convergence on MAX density matrix=1.00D-06.
 Requested convergence on             energy=1.00D-06.
 No special actions if energy rises.

 Cycle   1  Pass 1  IDiag  1:
 E=  1.53682527443584    
 DIIS: error= 9.96D-02 at cycle   1 NSaved=   1.
 NSaved= 1 IEnMin= 1 EnMin=  1.53682527443584     IErMin= 1 ErrMin= 9.96D-02
 ErrMax= 9.96D-02  0.00D+00 EMaxC= 1.00D-01 BMatC= 4.00D-01 BMatP= 4.00D-01
 IDIUse=3 WtCom= 4.09D-03 WtEn= 9.96D-01
 Coeff-Com:  0.100D+01
 Coeff-En:   0.100D+01
 Coeff:      0.100D+01
 GapD=    2.000 DampG=2.000 DampE=0.500 DampFc=1.0000 IDamp=-1.
 RMSDP=2.19D-02 MaxDP=1.64D-01              OVMax= 0.00D+00

 Cycle   2  Pass 1  IDiag  1:
 E= 0.474084159144923     Delta-E=       -1.062741115291 Rises=F Damp=F
 DIIS: error= 2.12D-02 at cycle   2 NSaved=   2.
 NSaved= 2 IEnMin= 2 EnMin= 0.474084159144923     IErMin= 2 ErrMin= 2.12D-02
 ErrMax= 2.12D-02  0.00D+00 EMaxC= 1.00D-01 BMatC= 3.24D-02 BMatP= 4.00D-01
 IDIUse=3 WtCom= 7.88D-01 WtEn= 2.12D-01
 Coeff-Com: -0.338D+00 0.134D+01
 Coeff-En:   0.000D+00 0.100D+01
 Coeff:     -0.266D+00 0.127D+01
 RMSDP=7.95D-03 MaxDP=5.99D-02 DE=-1.06D+00 OVMax= 0.00D+00

 Cycle   3  Pass 1  IDiag  1:
 E= 0.378710063581252     Delta-E=       -0.095374095564 Rises=F Damp=F
 DIIS: error= 3.65D-03 at cycle   3 NSaved=   3.
 NSaved= 3 IEnMin= 3 EnMin= 0.378710063581252     IErMin= 3 ErrMin= 3.65D-03
 ErrMax= 3.65D-03  0.00D+00 EMaxC= 1.00D-01 BMatC= 1.01D-03 BMatP= 3.24D-02
 IDIUse=3 WtCom= 9.63D-01 WtEn= 3.65D-02
 Coeff-Com:  0.825D-01-0.371D+00 0.129D+01
 Coeff-En:   0.000D+00 0.000D+00 0.100D+01
 Coeff:      0.794D-01-0.358D+00 0.128D+01
 RMSDP=2.21D-03 MaxDP=1.31D-02 DE=-9.54D-02 OVMax= 0.00D+00

 Cycle   4  Pass 1  IDiag  3:
 E= 0.372859360444750     Delta-E=       -0.005850703137 Rises=F Damp=F
 DIIS: error= 1.02D-03 at cycle   4 NSaved=   4.
 NSaved= 4 IEnMin= 4 EnMin= 0.372859360444750     IErMin= 4 ErrMin= 1.02D-03
 ErrMax= 1.02D-03  0.00D+00 EMaxC= 1.00D-01 BMatC= 1.47D-04 BMatP= 1.01D-03
 IDIUse=3 WtCom= 9.90D-01 WtEn= 1.02D-02
 Coeff-Com:  0.485D-03-0.372D-02-0.422D+00 0.143D+01
 Coeff-En:   0.000D+00 0.000D+00 0.000D+00 0.100D+01
 Coeff:      0.480D-03-0.368D-02-0.418D+00 0.142D+01
 Gap=     0.342 Goal=   None    Shift=    0.000
 RMSDP=1.28D-03 MaxDP=9.17D-03 DE=-5.85D-03 OVMax= 3.03D-02

 Cycle   5  Pass 1  IDiag  3:
 E= 0.371636305194556     Delta-E=       -0.001223055250 Rises=F Damp=F
 DIIS: error= 4.35D-04 at cycle   5 NSaved=   5.
 NSaved= 5 IEnMin= 5 EnMin= 0.371636305194556     IErMin= 5 ErrMin= 4.35D-04
 ErrMax= 4.35D-04  0.00D+00 EMaxC= 1.00D-01 BMatC= 1.74D-05 BMatP= 1.47D-04
 IDIUse=3 WtCom= 9.96D-01 WtEn= 4.35D-03
 Coeff-Com: -0.662D-02 0.317D-01 0.231D-01-0.455D+00 0.141D+01
 Coeff-En:   0.000D+00 0.000D+00 0.000D+00 0.000D+00 0.100D+01
 Coeff:     -0.659D-02 0.316D-01 0.230D-01-0.453D+00 0.140D+01
 Gap=     0.342 Goal=   None    Shift=    0.000
 RMSDP=5.02D-04 MaxDP=4.07D-03 DE=-1.22D-03 OVMax= 1.24D-02

 Cycle   6  Pass 1  IDiag  3:
 E= 0.371458502859127     Delta-E=       -0.000177802335 Rises=F Damp=F
 DIIS: error= 2.01D-04 at cycle   6 NSaved=   6.
 NSaved= 6 IEnMin= 6 EnMin= 0.371458502859127     IErMin= 6 ErrMin= 2.01D-04
 ErrMax= 2.01D-04  0.00D+00 EMaxC= 1.00D-01 BMatC= 3.74D-06 BMatP= 1.74D-05
 IDIUse=3 WtCom= 9.98D-01 WtEn= 2.01D-03
 Coeff-Com:  0.262D-02-0.126D-01 0.302D-01 0.109D+00-0.985D+00 0.186D+01
 Coeff-En:   0.000D+00 0.000D+00 0.000D+00 0.000D+00 0.000D+00 0.100D+01
 Coeff:      0.262D-02-0.126D-01 0.301D-01 0.109D+00-0.983D+00 0.185D+01
 Gap=     0.342 Goal=   None    Shift=    0.000
 RMSDP=3.14D-04 MaxDP=2.50D-03 DE=-1.78D-04 OVMax= 6.99D-03

 Cycle   7  Pass 1  IDiag  3:
 E= 0.371414491639371     Delta-E=       -0.000044011220 Rises=F Damp=F
 DIIS: error= 5.90D-05 at cycle   7 NSaved=   7.
 NSaved= 7 IEnMin= 7 EnMin= 0.371414491639371     IErMin= 7 ErrMin= 5.90D-05
 ErrMax= 5.90D-05  0.00D+00 EMaxC= 1.00D-01 BMatC= 2.94D-07 BMatP= 3.74D-06
 IDIUse=1 WtCom= 1.00D+00 WtEn= 0.00D+00
 Coeff-Com: -0.695D-03 0.216D-02-0.119D-01 0.390D-02 0.191D+00-0.626D+00
 Coeff-Com:  0.144D+01
 Coeff:     -0.695D-03 0.216D-02-0.119D-01 0.390D-02 0.191D+00-0.626D+00
 Coeff:      0.144D+01
 Gap=     0.342 Goal=   None    Shift=    0.000
 RMSDP=7.92D-05 MaxDP=7.27D-04 DE=-4.40D-05 OVMax= 1.47D-03

 Cycle   8  Pass 1  IDiag  3:
 E= 0.371411546464742     Delta-E=       -0.000002945175 Rises=F Damp=F
 DIIS: error= 1.77D-05 at cycle   8 NSaved=   8.
 NSaved= 8 IEnMin= 8 EnMin= 0.371411546464742     IErMin= 8 ErrMin= 1.77D-05
 ErrMax= 1.77D-05  0.00D+00 EMaxC= 1.00D-01 BMatC= 2.63D-08 BMatP= 2.94D-07
 IDIUse=1 WtCom= 1.00D+00 WtEn= 0.00D+00
 Coeff-Com:  0.408D-04 0.311D-03 0.480D-03-0.324D-02-0.470D-02 0.791D-01
 Coeff-Com: -0.502D+00 0.143D+01
 Coeff:      0.408D-04 0.311D-03 0.480D-03-0.324D-02-0.470D-02 0.791D-01
 Coeff:     -0.502D+00 0.143D+01
 Gap=     0.342 Goal=   None    Shift=    0.000
 RMSDP=2.10D-05 MaxDP=1.99D-04 DE=-2.95D-06 OVMax= 2.65D-04

 Cycle   9  Pass 1  IDiag  3:
 E= 0.371411297801046     Delta-E=       -0.000000248664 Rises=F Damp=F
 DIIS: error= 8.51D-06 at cycle   9 NSaved=   9.
 NSaved= 9 IEnMin= 9 EnMin= 0.371411297801046     IErMin= 9 ErrMin= 8.51D-06
 ErrMax= 8.51D-06  0.00D+00 EMaxC= 1.00D-01 BMatC= 3.25D-09 BMatP= 2.63D-08
 IDIUse=1 WtCom= 1.00D+00 WtEn= 0.00D+00
 Coeff-Com: -0.308D-05-0.251D-03 0.272D-03 0.146D-02-0.713D-02-0.832D-02
 Coeff-Com:  0.197D+00-0.872D+00 0.169D+01
 Coeff:     -0.308D-05-0.251D-03 0.272D-03 0.146D-02-0.713D-02-0.832D-02
 Coeff:      0.197D+00-0.872D+00 0.169D+01
 Gap=     0.342 Goal=   None    Shift=    0.000
 RMSDP=7.73D-06 MaxDP=7.09D-05 DE=-2.49D-07 OVMax= 9.44D-05

 Cycle  10  Pass 1  IDiag  3:
 E= 0.371411264183962     Delta-E=       -0.000000033617 Rises=F Damp=F
 DIIS: error= 3.28D-06 at cycle  10 NSaved=  10.
 NSaved=10 IEnMin=10 EnMin= 0.371411264183962     IErMin=10 ErrMin= 3.28D-06
 ErrMax= 3.28D-06  0.00D+00 EMaxC= 1.00D-01 BMatC= 3.47D-10 BMatP= 3.25D-09
 IDIUse=1 WtCom= 1.00D+00 WtEn= 0.00D+00
 Coeff-Com: -0.198D-05 0.121D-03-0.135D-03-0.780D-03 0.476D-02-0.266D-02
 Coeff-Com: -0.639D-01 0.343D+00-0.945D+00 0.167D+01
 Coeff:     -0.198D-05 0.121D-03-0.135D-03-0.780D-03 0.476D-02-0.266D-02
 Coeff:     -0.639D-01 0.343D+00-0.945D+00 0.167D+01
 Gap=     0.342 Goal=   None    Shift=    0.000
 RMSDP=2.80D-06 MaxDP=2.96D-05 DE=-3.36D-08 OVMax= 3.40D-05

 Cycle  11  Pass 1  IDiag  3:
 E= 0.371411260428431     Delta-E=       -0.000000003756 Rises=F Damp=F
 DIIS: error= 8.30D-07 at cycle  11 NSaved=  11.
 NSaved=11 IEnMin=11 EnMin= 0.371411260428431     IErMin=11 ErrMin= 8.30D-07
 ErrMax= 8.30D-07  0.00D+00 EMaxC= 1.00D-01 BMatC= 2.80D-11 BMatP= 3.47D-10
 IDIUse=1 WtCom= 1.00D+00 WtEn= 0.00D+00
 Coeff-Com:  0.409D-05-0.400D-04 0.406D-04 0.284D-03-0.197D-02 0.323D-02
 Coeff-Com:  0.675D-02-0.575D-01 0.229D+00-0.700D+00 0.152D+01
 Coeff:      0.409D-05-0.400D-04 0.406D-04 0.284D-03-0.197D-02 0.323D-02
 Coeff:      0.675D-02-0.575D-01 0.229D+00-0.700D+00 0.152D+01
 Gap=     0.342 Goal=   None    Shift=    0.000
 RMSDP=7.27D-07 MaxDP=7.98D-06 DE=-3.76D-09 OVMax= 1.00D-05

 Cycle  12  Pass 1  IDiag  3:
 E= 0.371411260152058     Delta-E=       -0.000000000276 Rises=F Damp=F
 DIIS: error= 1.82D-07 at cycle  12 NSaved=  12.
 NSaved=12 IEnMin=12 EnMin= 0.371411260152058     IErMin=12 ErrMin= 1.82D-07
 ErrMax= 1.82D-07  0.00D+00 EMaxC= 1.00D-01 BMatC= 2.32D-12 BMatP= 2.80D-11
 IDIUse=1 WtCom= 1.00D+00 WtEn= 0.00D+00
 Coeff-Com: -0.166D-05 0.133D-04-0.714D-05-0.102D-03 0.630D-03-0.112D-02
 Coeff-Com: -0.134D-02 0.138D-01-0.668D-01 0.259D+00-0.794D+00 0.159D+01
 Coeff:     -0.166D-05 0.133D-04-0.714D-05-0.102D-03 0.630D-03-0.112D-02
 Coeff:     -0.134D-02 0.138D-01-0.668D-01 0.259D+00-0.794D+00 0.159D+01
 Gap=     0.342 Goal=   None    Shift=    0.000
 RMSDP=1.89D-07 MaxDP=1.79D-06 DE=-2.76D-10 OVMax= 2.49D-06

 Cycle  13  Pass 1  IDiag  3:
 E= 0.371411260134209     Delta-E=       -0.000000000018 Rises=F Damp=F
 DIIS: error= 5.21D-08 at cycle  13 NSaved=  13.
 NSaved=13 IEnMin=13 EnMin= 0.371411260134209     IErMin=13 ErrMin= 5.21D-08
 ErrMax= 5.21D-08  0.00D+00 EMaxC= 1.00D-01 BMatC= 2.09D-13 BMatP= 2.32D-12
 IDIUse=1 WtCom= 1.00D+00 WtEn= 0.00D+00
 Coeff-Com:  0.528D-06-0.334D-05-0.117D-05 0.282D-04-0.143D-03 0.259D-03
 Coeff-Com:  0.230D-03-0.261D-02 0.154D-01-0.728D-01 0.273D+00-0.813D+00
 Coeff-Com:  0.160D+01
 Coeff:      0.528D-06-0.334D-05-0.117D-05 0.282D-04-0.143D-03 0.259D-03
 Coeff:      0.230D-03-0.261D-02 0.154D-01-0.728D-01 0.273D+00-0.813D+00
 Coeff:      0.160D+01
 Gap=     0.342 Goal=   None    Shift=    0.000
 RMSDP=5.93D-08 MaxDP=4.57D-07 DE=-1.78D-11 OVMax= 6.28D-07

 Cycle  14  Pass 1  IDiag  3:
 E= 0.371411260132959     Delta-E=       -0.000000000001 Rises=F Damp=F
 DIIS: error= 1.16D-08 at cycle  14 NSaved=  14.
 NSaved=14 IEnMin=14 EnMin= 0.371411260132959     IErMin=14 ErrMin= 1.16D-08
 ErrMax= 1.16D-08  0.00D+00 EMaxC= 1.00D-01 BMatC= 1.52D-14 BMatP= 2.09D-13
 IDIUse=1 WtCom= 1.00D+00 WtEn= 0.00D+00
 Coeff-Com: -0.122D-06 0.747D-06 0.144D-05-0.712D-05 0.207D-04-0.213D-04
 Coeff-Com: -0.176D-03 0.957D-03-0.448D-02 0.208D-01-0.831D-01 0.284D+00
 Coeff-Com: -0.775D+00 0.156D+01
 Coeff:     -0.122D-06 0.747D-06 0.144D-05-0.712D-05 0.207D-04-0.213D-04
 Coeff:     -0.176D-03 0.957D-03-0.448D-02 0.208D-01-0.831D-01 0.284D+00
 Coeff:     -0.775D+00 0.156D+01
 Gap=     0.342 Goal=   None    Shift=    0.000
 RMSDP=1.59D-08 MaxDP=1.12D-07 DE=-1.25D-12 OVMax= 2.22D-07

 Cycle  15  Pass 1  IDiag  3:
 E= 0.371411260132845     Delta-E=       -0.000000000000 Rises=F Damp=F
 DIIS: error= 4.31D-09 at cycle  15 NSaved=  15.
 NSaved=15 IEnMin=15 EnMin= 0.371411260132845     IErMin=15 ErrMin= 4.31D-09
 ErrMax= 4.31D-09  0.00D+00 EMaxC= 1.00D-01 BMatC= 1.25D-15 BMatP= 1.52D-14
 IDIUse=1 WtCom= 1.00D+00 WtEn= 0.00D+00
 Coeff-Com:  0.396D-07-0.205D-06-0.631D-06 0.177D-05 0.150D-05-0.167D-04
 Coeff-Com:  0.100D-03-0.364D-03 0.118D-02-0.481D-02 0.203D-01-0.773D-01
 Coeff-Com:  0.254D+00-0.754D+00 0.156D+01
 Coeff:      0.396D-07-0.205D-06-0.631D-06 0.177D-05 0.150D-05-0.167D-04
 Coeff:      0.100D-03-0.364D-03 0.118D-02-0.481D-02 0.203D-01-0.773D-01
 Coeff:      0.254D+00-0.754D+00 0.156D+01
 Gap=     0.342 Goal=   None    Shift=    0.000
 RMSDP=4.32D-09 MaxDP=4.88D-08 DE=-1.14D-13 OVMax= 6.61D-08

 Cycle  16  Pass 2  IDiag  1:
 SCF Done:  E(RAM1) =  0.371411260133     A.U. after   16 cycles
            NFock= 15  Conv=0.43D-08     -V/T= 1.0016
 KE=-2.376321169012D+02 PE=-7.954084849028D+02 EE= 4.858556615720D+02
 Leave Link  502 at Sat May 24 07:26:21 2025, MaxMem=  3758096384 cpu:               0.1 elap:               0.0
 (Enter /apps/easybuild-2022/easybuild/software/Compiler/NVHPC/22.11-CUDA-11.7.0/Gaussian/g16c01-CUDA-11.7.0/g16/l508.exe)
 QCSCF skips out because SCF is already converged.
 Leave Link  508 at Sat May 24 07:26:21 2025, MaxMem=  3758096384 cpu:               0.1 elap:               0.0
 (Enter /apps/easybuild-2022/easybuild/software/Compiler/NVHPC/22.11-CUDA-11.7.0/Gaussian/g16c01-CUDA-11.7.0/g16/l701.exe)
 ... and contract with generalized density number  0.
 Compute integral first derivatives.
 Leave Link  701 at Sat May 24 07:26:21 2025, MaxMem=  3758096384 cpu:               0.1 elap:               0.0
 (Enter /apps/easybuild-2022/easybuild/software/Compiler/NVHPC/22.11-CUDA-11.7.0/Gaussian/g16c01-CUDA-11.7.0/g16/l702.exe)
 L702 exits ... SP integral derivatives will be done elsewhere.
 Leave Link  702 at Sat May 24 07:26:21 2025, MaxMem=  3758096384 cpu:               0.1 elap:               0.0
 (Enter /apps/easybuild-2022/easybuild/software/Compiler/NVHPC/22.11-CUDA-11.7.0/Gaussian/g16c01-CUDA-11.7.0/g16/l703.exe)
 Integral derivatives from FoFJK, PRISM(SPDF).
 Compute integral first derivatives, UseDBF=F ICtDFT=           0.
 Calling FoFJK, ICntrl=      2127 FMM=F ISym2X=0 I1Cent= 0 IOpClX= 0 NMat=1 NMatS=1 NMatT=0.
 FoFJK:  IHMeth= 8 ICntrl=    2127 DoSepK=F KAlg= 0 I1Cent=           0 FoldK=F
 IRaf=         0 NMat=       1 IRICut=       1 DoRegI=T DoRafI=F ISym2E= 0 IDoP0=3 IntGTp=3.
 FoFCou: FMM=F IPFlag=           0 FMFlag=      100000 FMFlg1=         800
         NFxFlg=           0 DoJE=F BraDBF=F KetDBF=F FulRan=T
         wScrn=  0.000000 ICntrl=      2127 IOpCl=  0 I1Cent=           0 NGrid=           0
         NMat0=    1 NMatS0=      1 NMatT0=    0 NMatD0=    1 NMtDS0=    0 NMtDT0=    0
 Symmetry not used in FoFCou.
 Leave Link  703 at Sat May 24 07:26:21 2025, MaxMem=  3758096384 cpu:               0.1 elap:               0.0
 (Enter /apps/easybuild-2022/easybuild/software/Compiler/NVHPC/22.11-CUDA-11.7.0/Gaussian/g16c01-CUDA-11.7.0/g16/l716.exe)
 Dipole        =-1.63045850D+00 5.26127692D-02-4.28246249D-03
 -------------------------------------------------------------------
 Center     Atomic                   Forces (Hartrees/Bohr)
 Number     Number              X              Y              Z
 -------------------------------------------------------------------
      1        6           0.006749320    0.039329305    0.002273202
      2        6          -0.008674579    0.006744759   -0.011393209
      3        9          -0.026117146    0.039135660   -0.030517825
      4        9          -0.011803720    0.022905340    0.073636549
      5       16           0.050827382   -0.091979513    0.029532120
      6        8          -0.036109253   -0.001344401   -0.017234263
      7        8           0.047465895    0.005150368    0.012020546
      8        8           0.005054303    0.021689631   -0.006738130
      9        9          -0.031801757   -0.052418141    0.066944739
     10        9           0.025579023    0.039924320   -0.056814242
     11        9          -0.017203771   -0.026196513   -0.060599291
     12        1          -0.003965697   -0.002940815   -0.001110197
 -------------------------------------------------------------------
 Cartesian Forces:  Max     0.091979513 RMS     0.035730538
 Z-matrix is all fixed cartesians, so copy forces.
 Force constants in Cartesian coordinates: 
                1             2             3             4             5 
      1  0.329939D+00
      2  0.374222D+00  0.779295D+00
      3 -0.228842D-01 -0.498396D-01  0.130094D+01
      4 -0.112822D+00 -0.665125D-01 -0.527663D-02  0.597598D+00
      5 -0.826202D-01 -0.232354D+00 -0.149723D-01 -0.153065D+00  0.771934D+00
      6 -0.925114D-02 -0.173389D-01 -0.160594D+00  0.211881D-01 -0.106728D-01
      7  0.135921D-01 -0.867381D-02  0.129652D-01 -0.190733D+00  0.177667D+00
      8  0.152358D-01 -0.983416D-02  0.151468D-01  0.170858D+00 -0.325320D+00
      9  0.790635D-02 -0.518835D-02  0.832874D-02 -0.123539D+00  0.188827D+00
     10  0.574754D-02  0.244023D-03 -0.160634D-01 -0.967685D-01  0.334146D-01
     11  0.906632D-02  0.802195D-03 -0.276371D-01  0.303586D-01 -0.128829D+00
     12 -0.189878D-02 -0.210412D-03  0.602167D-02  0.767040D-01 -0.151827D+00
     13 -0.594189D-02  0.235090D-02  0.226862D-02 -0.210172D+00  0.230682D-01
     14 -0.200124D-01  0.793625D-02  0.753940D-02  0.254824D-01 -0.953398D-01
     15 -0.436002D-02  0.171156D-02  0.173889D-02  0.276376D-01 -0.103650D-01
     16 -0.110637D-04  0.133493D-04 -0.451924D-04 -0.384996D-02 -0.223298D-02
     17 -0.895258D-04  0.108020D-03 -0.365689D-03  0.343436D-02  0.649234D-02
     18  0.301650D-04 -0.363966D-04  0.123216D-03  0.779840D-02  0.417197D-02
     19  0.000000D+00  0.000000D+00  0.195947D-05  0.855030D-02  0.128826D-01
     20  0.536934D-04 -0.647856D-04  0.219323D-03 -0.210511D-02 -0.739250D-03
     21 -0.377956D-04  0.456036D-04 -0.154385D-03 -0.319998D-02 -0.652173D-02
     22  0.206900D-04 -0.249643D-04  0.845132D-04 -0.687469D-03 -0.186860D-01
     23  0.202974D-04 -0.244905D-04  0.829095D-04  0.135885D-03  0.381199D-02
     24  0.513585D-04 -0.619683D-04  0.209785D-03  0.229309D-03  0.651595D-02
     25 -0.138297D+00 -0.191158D+00  0.194159D+00  0.409289D-02 -0.369410D-02
     26 -0.187525D+00 -0.340998D+00  0.304616D+00 -0.672070D-02 -0.129162D-02
     27  0.184519D+00  0.296637D+00 -0.505063D+00 -0.331807D-02 -0.276622D-02
     28 -0.186601D-04  0.225150D-04 -0.762214D-04  0.470327D-04  0.143425D-01
     29 -0.297209D-04  0.358608D-04 -0.121402D-03  0.749016D-03 -0.560178D-02
     30 -0.379580D-04  0.457995D-04 -0.155048D-03  0.804419D-03 -0.732393D-03
     31 -0.922099D-01 -0.110483D+00 -0.165133D+00  0.546159D-02 -0.373050D-03
     32 -0.108321D+00 -0.204902D+00 -0.234668D+00 -0.314371D-02  0.671945D-02
     33 -0.154037D+00 -0.225765D+00 -0.651394D+00 -0.191566D-03 -0.279882D-02
     34  0.000000D+00  0.000000D+00  0.000000D+00 -0.717379D-03 -0.703766D-03
     35  0.000000D+00  0.000000D+00  0.000000D+00  0.528480D-03  0.518451D-03
     36  0.000000D+00  0.000000D+00  0.000000D+00  0.116306D-02  0.114099D-02
                6             7             8             9            10 
      6  0.103742D+01
      7 -0.131162D+00  0.172832D+00
      8  0.192242D+00 -0.176654D+00  0.317588D+00
      9 -0.232364D+00  0.131425D+00 -0.199610D+00  0.222691D+00
     10  0.875180D-01  0.594209D-02 -0.948689D-02 -0.172506D-01  0.754881D-01
     11 -0.154122D+00 -0.814893D-02  0.153833D-01  0.267005D-01 -0.306590D-01
     12 -0.572173D+00  0.348740D-02 -0.630601D-02 -0.110709D-01 -0.800220D-01
     13  0.271793D-01 -0.163694D-02  0.950931D-05  0.141301D-02  0.957881D-02
     14 -0.109716D-01  0.157239D-01  0.200291D-02 -0.108872D-01  0.651743D-02
     15 -0.130325D+00 -0.167576D-01 -0.143672D-02  0.124979D-01  0.258866D-01
     16 -0.106876D-01  0.218017D-04  0.438943D-04  0.376316D-04 -0.852321D-05
     17  0.623727D-02  0.176415D-03  0.355185D-03  0.304508D-03 -0.689683D-04
     18  0.219058D-01 -0.594416D-04 -0.119677D-03 -0.102602D-03  0.232383D-04
     19  0.179319D-01  0.000000D+00 -0.190319D-05 -0.163165D-05  0.000000D+00
     20 -0.619671D-02 -0.105806D-03 -0.213023D-03 -0.182630D-03  0.413640D-04
     21 -0.546554D-02  0.744782D-04  0.149950D-03  0.128556D-03 -0.291168D-04
     22  0.114872D-01 -0.407708D-04 -0.820857D-04 -0.703741D-04  0.159391D-04
     23 -0.235738D-02 -0.399971D-04 -0.805280D-04 -0.690386D-04  0.156366D-04
     24 -0.403903D-02 -0.101204D-03 -0.203760D-03 -0.174688D-03  0.395652D-04
     25  0.986483D-02  0.281187D-03 -0.706143D-04 -0.331179D-03 -0.381492D-03
     26  0.243257D-01 -0.135703D-03  0.340790D-04  0.159829D-03  0.184111D-03
     27  0.237335D-01  0.273199D-04 -0.686083D-05 -0.321771D-04 -0.370655D-04
     28 -0.103555D-01  0.367707D-04  0.740320D-04  0.634695D-04 -0.143752D-04
     29  0.650090D-02  0.585666D-04  0.117915D-03  0.101091D-03 -0.228962D-04
     30  0.311135D-02  0.747981D-04  0.150594D-03  0.129108D-03 -0.292418D-04
     31 -0.119323D-01 -0.294881D-03  0.740533D-04  0.347308D-03  0.400071D-03
     32 -0.289589D-01  0.132293D-03 -0.332228D-04 -0.155814D-03 -0.179486D-03
     33  0.159061D-01  0.265282D-04 -0.666201D-05 -0.312446D-04 -0.359914D-04
     34 -0.178073D-02  0.000000D+00  0.000000D+00  0.000000D+00  0.000000D+00
     35  0.131184D-02  0.000000D+00  0.000000D+00  0.000000D+00  0.000000D+00
     36  0.288703D-02  0.000000D+00  0.000000D+00  0.000000D+00  0.000000D+00
               11            12            13            14            15 
     11  0.111843D+00
     12  0.157552D+00  0.572307D+00
     13 -0.559754D-03  0.170971D-02  0.153618D+01
     14  0.105485D-02  0.716694D-03  0.205463D+00  0.104983D+01
     15 -0.256440D-02  0.494760D-02  0.583390D+00  0.184841D+00  0.123341D+01
     16 -0.614910D-04  0.177611D-04 -0.897308D+00 -0.223317D-01 -0.372299D+00
     17 -0.497574D-03  0.143720D-03 -0.216377D-01 -0.102518D+00 -0.286619D-01
     18  0.167654D-03 -0.484251D-04 -0.381730D+00 -0.294954D-01 -0.298042D+00
     19  0.266615D-05  0.000000D+00 -0.242479D+00 -0.174347D+00 -0.264860D+00
     20  0.298422D-03 -0.861963D-04 -0.168270D+00 -0.322269D+00 -0.326926D+00
     21 -0.210064D-03  0.606749D-04 -0.253592D+00 -0.323921D+00 -0.548680D+00
     22  0.114993D-03 -0.332146D-04 -0.132019D+00 -0.119162D-01 -0.109920D-01
     23  0.112811D-03 -0.325843D-04  0.591358D-02 -0.413144D+00  0.143815D+00
     24  0.285445D-03 -0.824479D-04  0.476986D-02  0.125443D+00 -0.158663D+00
     25  0.199767D-03 -0.123297D-03  0.687399D-04 -0.829404D-04  0.280784D-03
     26 -0.964090D-04  0.595041D-04 -0.331743D-04  0.400276D-04 -0.135508D-03
     27  0.194092D-04 -0.119795D-04  0.667871D-05 -0.805842D-05  0.272807D-04
     28 -0.103711D-03  0.299558D-04 -0.763694D-01 -0.260318D-01  0.261113D-01
     29 -0.165185D-03  0.477122D-04 -0.203056D-01 -0.124606D+00  0.502346D-01
     30 -0.210966D-03  0.609356D-04  0.177076D-01  0.541246D-01 -0.122782D+00
     31 -0.209496D-03  0.129302D-03 -0.720876D-04  0.869797D-04 -0.294458D-03
     32  0.939869D-04 -0.580092D-04  0.323409D-04 -0.390220D-04  0.132104D-03
     33  0.188467D-04 -0.116323D-04  0.648517D-05 -0.782490D-05  0.264902D-04
     34  0.000000D+00  0.000000D+00  0.201739D-01  0.144813D-02  0.625659D-02
     35  0.000000D+00  0.000000D+00 -0.260308D-01 -0.294506D-02 -0.106448D-01
     36  0.000000D+00  0.000000D+00 -0.312926D-02  0.262621D-02  0.584007D-02
               16            17            18            19            20 
     16  0.893406D+00
     17  0.306739D-01  0.767883D-01
     18  0.389202D+00  0.140243D-01  0.263770D+00
     19  0.991605D-02 -0.206484D-01 -0.191649D-01  0.214951D+00
     20 -0.446407D-02  0.149990D-01  0.818283D-02  0.179558D+00  0.305710D+00
     21 -0.229717D-02  0.796594D-03  0.475083D-02  0.260741D+00  0.332649D+00
     22  0.544975D-02  0.239533D-01 -0.132869D-01  0.130289D-02 -0.105710D-01
     23 -0.115306D-02  0.492193D-02  0.203188D-02  0.195795D-02 -0.848372D-02
     24 -0.199903D-02  0.150794D-01  0.301188D-02  0.485813D-02 -0.217330D-01
     25  0.000000D+00  0.000000D+00  0.000000D+00  0.000000D+00  0.000000D+00
     26  0.000000D+00  0.000000D+00  0.000000D+00  0.000000D+00  0.000000D+00
     27  0.000000D+00  0.000000D+00  0.000000D+00  0.000000D+00  0.000000D+00
     28 -0.651979D-02 -0.167857D-01  0.149697D-01  0.533589D-02  0.640091D-02
     29 -0.129524D-02  0.821848D-04  0.270734D-02  0.238171D-02  0.103669D-01
     30 -0.370617D-02 -0.594937D-02  0.822923D-02  0.442277D-02  0.132012D-01
     31  0.000000D+00  0.000000D+00  0.000000D+00  0.000000D+00  0.000000D+00
     32  0.000000D+00  0.000000D+00  0.000000D+00  0.000000D+00  0.000000D+00
     33  0.000000D+00  0.000000D+00  0.000000D+00  0.000000D+00  0.000000D+00
     34 -0.109591D-02  0.992334D-03  0.221871D-02  0.242320D-02 -0.537534D-03
     35  0.807337D-03 -0.731034D-03 -0.163448D-02 -0.178513D-02  0.395992D-03
     36  0.177676D-02 -0.160883D-02 -0.359710D-02 -0.392864D-02  0.871483D-03
               21            22            23            24            25 
     21  0.546929D+00
     22  0.667767D-02  0.471610D+00
     23  0.486067D-02  0.228642D+00  0.618944D+00
     24  0.125378D-01  0.973110D-01 -0.886216D-01  0.211108D+00
     25  0.000000D+00  0.000000D+00  0.000000D+00  0.000000D+00  0.120165D+00
     26  0.000000D+00  0.000000D+00  0.000000D+00  0.000000D+00  0.184583D+00
     27  0.000000D+00  0.000000D+00  0.000000D+00  0.000000D+00 -0.195436D+00
     28 -0.738976D-02  0.222452D-01 -0.617298D-02 -0.116628D-01  0.000000D+00
     29 -0.854807D-02 -0.586355D-02  0.661269D-02  0.149845D-01  0.000000D+00
     30 -0.116445D-01  0.183402D-02  0.473284D-02  0.115609D-01  0.000000D+00
     31  0.000000D+00  0.000000D+00  0.000000D+00  0.000000D+00  0.140701D-01
     32  0.000000D+00  0.000000D+00  0.000000D+00  0.000000D+00  0.102232D-01
     33  0.000000D+00  0.000000D+00  0.000000D+00  0.000000D+00 -0.841384D-02
     34 -0.948180D-03 -0.367898D+00 -0.229319D+00 -0.934962D-01  0.000000D+00
     35  0.698507D-03 -0.205566D+00 -0.212671D+00 -0.516884D-01  0.000000D+00
     36  0.153725D-02 -0.930119D-01 -0.644428D-01 -0.754689D-01  0.000000D+00
               26            27            28            29            30 
     26  0.319639D+00
     27 -0.316485D+00  0.495163D+00
     28  0.000000D+00  0.000000D+00  0.596111D-01
     29  0.000000D+00  0.000000D+00  0.250469D-01  0.112627D+00
     30  0.000000D+00  0.000000D+00 -0.187487D-01 -0.670726D-01  0.107727D+00
     31  0.964805D-02  0.142384D-01  0.000000D+00  0.000000D+00  0.000000D+00
     32  0.226728D-01  0.226095D-01  0.000000D+00  0.000000D+00  0.000000D+00
     33 -0.125402D-01 -0.138161D-01  0.000000D+00  0.000000D+00  0.000000D+00
     34  0.000000D+00  0.000000D+00 -0.435375D-02 -0.719119D-03 -0.232159D-02
     35  0.000000D+00  0.000000D+00  0.320733D-02  0.529762D-03  0.171027D-02
     36  0.000000D+00  0.000000D+00  0.705857D-02  0.116588D-02  0.376390D-02
               31            32            33            34            35 
     31  0.726451D-01
     32  0.101256D+00  0.175489D+00
     33  0.162645D+00  0.241099D+00  0.649321D+00
     34  0.000000D+00  0.000000D+00  0.000000D+00  0.351468D+00
     35  0.000000D+00  0.000000D+00  0.000000D+00  0.228839D+00  0.214902D+00
     36  0.000000D+00  0.000000D+00  0.000000D+00  0.900714D-01  0.602471D-01
               36 
     36  0.650377D-01
 Leave Link  716 at Sat May 24 07:26:21 2025, MaxMem=  3758096384 cpu:               0.1 elap:               0.0
 (Enter /apps/easybuild-2022/easybuild/software/Compiler/NVHPC/22.11-CUDA-11.7.0/Gaussian/g16c01-CUDA-11.7.0/g16/l103.exe)

 GradGradGradGradGradGradGradGradGradGradGradGradGradGradGradGradGradGrad
 Berny optimization.
 Search for a local minimum.
 Step number   1 out of a maximum of    2
 All quantities printed in internal units (Hartrees-Bohrs-Radians)
 Second derivative matrix not updated -- first step.
 ITU=  0
     Eigenvalues ---    0.00122   0.00208   0.00913   0.01871   0.02987
     Eigenvalues ---    0.04285   0.04723   0.04956   0.05673   0.07195
     Eigenvalues ---    0.07497   0.09578   0.12421   0.12507   0.14267
     Eigenvalues ---    0.16515   0.18864   0.20118   0.27218   0.29231
     Eigenvalues ---    0.45945   0.60897   0.97228   1.23947   1.31241
     Eigenvalues ---    1.53076   1.57747   1.63813   2.06160   2.97189
 Quadratic step=5.097D+00 exceeds max=3.000D-01 adjusted using Lamda=-2.826D-01.
 Angle between NR and scaled steps=  70.50 degrees.
 Angle between quadratic step and forces=  35.75 degrees.
 Linear search not attempted -- first point.
 B after Tr=     0.001171   -0.000354   -0.000577
         Rot=    1.000000   -0.000092   -0.000116   -0.000121 Ang=  -0.02 deg.
 Variable       Old X    -DE/DX   Delta X   Delta X   Delta X     New X
                                 (Linear)    (Quad)   (Total)
    X1       -1.31104   0.00675   0.00000  -0.06736  -0.06555  -1.37659
    Y1       -2.34293   0.03933   0.00000   0.00047  -0.00028  -2.34321
    Z1        0.27873   0.00227   0.00000   0.01617   0.01548   0.29421
    X2       -0.08728  -0.00867   0.00000  -0.04285  -0.04157  -0.12886
    Y2        0.28898   0.00674   0.00000   0.04415   0.04362   0.33261
    Z2        0.75657  -0.01139   0.00000   0.02158   0.02110   0.77767
    X3       -1.25919  -0.02612   0.00000  -0.04311  -0.04261  -1.30179
    Y3        2.04511   0.03914   0.00000   0.06948   0.06893   2.11404
    Z3       -0.61287  -0.03052   0.00000  -0.04087  -0.04075  -0.65362
    X4       -0.46305  -0.01180   0.00000  -0.02747  -0.02581  -0.48886
    Y4        1.01811   0.02291   0.00000   0.04443   0.04337   1.06148
    Z4        3.10056   0.07364   0.00000   0.10142   0.10115   3.20171
    X5        3.17657   0.05083   0.00000   0.04345   0.04469   3.22126
    Y5       -0.45794  -0.09198   0.00000  -0.06306  -0.06259  -0.52053
    Z5       -0.26310   0.02953   0.00000   0.01278   0.01136  -0.25174
    X6        5.60543  -0.03611   0.00000   0.00189   0.00337   5.60880
    Y6       -0.36750  -0.00134   0.00000  -0.01186  -0.01102  -0.37852
    Z6        0.89617  -0.01723   0.00000   0.00691   0.00496   0.90113
    X7        2.05006   0.04747   0.00000   0.11790   0.11900   2.16905
    Y7       -1.89925   0.00515   0.00000  -0.03452  -0.03392  -1.93317
    Z7       -2.32496   0.01202   0.00000  -0.01145  -0.01289  -2.33785
    X8        3.34052   0.00505   0.00000   0.01473   0.01499   3.35552
    Y8        2.36703   0.02169   0.00000  -0.01199  -0.01127   2.35576
    Z8       -1.44560  -0.00674   0.00000   0.00128   0.00035  -1.44525
    X9       -2.13794  -0.03180   0.00000  -0.04561  -0.04304  -2.18098
    Y9       -3.70591  -0.05242   0.00000  -0.06251  -0.06378  -3.76969
    Z9        2.01942   0.06694   0.00000   0.07544   0.07467   2.09409
   X10        2.30331   0.02558   0.00000   0.06087   0.06323   2.36654
   Y10       -3.01132   0.03992   0.00000   0.05796   0.05780  -2.95352
   Z10        2.16549  -0.05681   0.00000  -0.12138  -0.12306   2.04243
   X11       -1.91103  -0.01720   0.00000  -0.02482  -0.02329  -1.93432
   Y11       -3.25652  -0.02620   0.00000  -0.03021  -0.03069  -3.28721
   Z11       -1.83467  -0.06060   0.00000  -0.05278  -0.05351  -1.88818
   X12        4.76820  -0.00397   0.00000  -0.00350  -0.00341   4.76479
   Y12        3.42543  -0.00294   0.00000  -0.00117  -0.00018   3.42525
   Z12       -1.04593  -0.00111   0.00000   0.00219   0.00114  -1.04480
         Item               Value     Threshold  Converged?
 Maximum Force            0.091980     0.000450     NO 
 RMS     Force            0.035731     0.000300     NO 
 Maximum Displacement     0.123055     0.001800     NO 
 RMS     Displacement     0.049997     0.001200     NO 
 Predicted change in Energy=-3.882244D-02
 GradGradGradGradGradGradGradGradGradGradGradGradGradGradGradGradGradGrad

 Leave Link  103 at Sat May 24 07:26:21 2025, MaxMem=  3758096384 cpu:               0.1 elap:               0.0
 (Enter /apps/easybuild-2022/easybuild/software/Compiler/NVHPC/22.11-CUDA-11.7.0/Gaussian/g16c01-CUDA-11.7.0/g16/l9999.exe)
 Unable to Open any file for archive entry.
 1\1\GINC-SPARTAN-BM171\Force\RAM1\ZDO\C2H1F5O3S1\AKHALILOV\24-May-2025
 \0\\#P am1 Symm(None) scf(xqc) pop(None) force\\Gaussian input prepare
 d by ASE\\0,1\C,-0.6937707492,-1.2398263607,0.1474965654\C,-0.04618762
 06,0.152923942,0.4003619183\F,-0.6663326092,1.0822266589,-0.3243175918
 \F,-0.2450352435,0.5387591994,1.6407466934\S,1.680969502,-0.2423299802
 ,-0.1392242982\O,2.9662664436,-0.194470134,0.4742313827\O,1.0848441757
 ,-1.0050390048,-1.2303136567\O,1.7677291374,1.2525781106,-0.7649797482
 \F,-1.1313511021,-1.961083219,1.068630397\F,1.2188577825,-1.5935218463
 ,1.1459254778\F,-1.0112742539,-1.7232785679,-0.9708660021\H,2.52322153
 75,1.8126612019,-0.5534841377\\Version=ES64L-G16RevC.01\HF=0.3714113\R
 MSD=4.322e-09\RMSF=3.573e-02\Dipole=-1.6304585,0.0526128,-0.0042825\PG
 =Unknown\\@
 The archive entry for this job was punched.


 KNOWING HOW CONTENTED, FREE, AND JOYFUL IS LIFE IN
 THE REALMS OF SCIENCE, ONE FERVENTLY WISHES THAT
 MANY WOULD ENTER HER PORTALS.
   --  DMITRI IVANOVICH MENDELEEV
 "FIRST PRINCIPLES OF CHEMISTRY", LONGMANS, GREEN,
 AND CO.  LONDON, 1891
 Job cpu time:       0 days  0 hours  0 minutes  1.5 seconds.
 Elapsed time:       0 days  0 hours  0 minutes  0.6 seconds.
 File lengths (MBytes):  RWF=      6 Int=      0 D2E=      0 Chk=      2 Scr=      1
 Normal termination of Gaussian 16 at Sat May 24 07:26:21 2025.
done
