 Entering Gaussian System, Link 0=g16
 Initial command:
 /apps/easybuild-2022/easybuild/software/Compiler/NVHPC/22.11-CUDA-11.7.0/Gaussian/g16c01-CUDA-11.7.0/g16/l1.exe "/tmp/Gau-140196.inp" -scrdir="/tmp/"
 Entering Link 1 = /apps/easybuild-2022/easybuild/software/Compiler/NVHPC/22.11-CUDA-11.7.0/Gaussian/g16c01-CUDA-11.7.0/g16/l1.exe PID=    140199.
  
 Copyright (c) 1988-2019, Gaussian, Inc.  All Rights Reserved.
  
 This is part of the Gaussian(R) 16 program.  It is based on
 the Gaussian(R) 09 system (copyright 2009, Gaussian, Inc.),
 the Gaussian(R) 03 system (copyright 2003, Gaussian, Inc.),
 the Gaussian(R) 98 system (copyright 1998, Gaussian, Inc.),
 the Gaussian(R) 94 system (copyright 1995, Gaussian, Inc.),
 the Gaussian 92(TM) system (copyright 1992, Gaussian, Inc.),
 the Gaussian 90(TM) system (copyright 1990, Gaussian, Inc.),
 the Gaussian 88(TM) system (copyright 1988, Gaussian, Inc.),
 the Gaussian 86(TM) system (copyright 1986, Carnegie Mellon
 University), and the Gaussian 82(TM) system (copyright 1983,
 Carnegie Mellon University). Gaussian is a federally registered
 trademark of Gaussian, Inc.
  
 This software contains proprietary and confidential information,
 including trade secrets, belonging to Gaussian, Inc.
  
 This software is provided under written license and may be
 used, copied, transmitted, or stored only in accord with that
 written license.
  
 The following legend is applicable only to US Government
 contracts under FAR:
  
                    RESTRICTED RIGHTS LEGEND
  
 Use, reproduction and disclosure by the US Government is
 subject to restrictions as set forth in subparagraphs (a)
 and (c) of the Commercial Computer Software - Restricted
 Rights clause in FAR 52.227-19.
  
 Gaussian, Inc.
 340 Quinnipiac St., Bldg. 40, Wallingford CT 06492
  
  
 ---------------------------------------------------------------
 Warning -- This program may not be used in any manner that
 competes with the business of Gaussian, Inc. or will provide
 assistance to any competitor of Gaussian, Inc.  The licensee
 of this program is prohibited from giving any competitor of
 Gaussian, Inc. access to this program.  By using this program,
 the user acknowledges that Gaussian, Inc. is engaged in the
 business of creating and licensing software in the field of
 computational chemistry and represents and warrants to the
 licensee that it is not a competitor of Gaussian, Inc. and that
 it will not use this program in any manner prohibited above.
 ---------------------------------------------------------------
  

 Cite this work as:
 Gaussian 16, Revision C.01,
 M. J. Frisch, G. W. Trucks, H. B. Schlegel, G. E. Scuseria, 
 M. A. Robb, J. R. Cheeseman, G. Scalmani, V. Barone, 
 G. A. Petersson, H. Nakatsuji, X. Li, M. Caricato, A. V. Marenich, 
 J. Bloino, B. G. Janesko, R. Gomperts, B. Mennucci, H. P. Hratchian, 
 J. V. Ortiz, A. F. Izmaylov, J. L. Sonnenberg, D. Williams-Young, 
 F. Ding, F. Lipparini, F. Egidi, J. Goings, B. Peng, A. Petrone, 
 T. Henderson, D. Ranasinghe, V. G. Zakrzewski, J. Gao, N. Rega, 
 G. Zheng, W. Liang, M. Hada, M. Ehara, K. Toyota, R. Fukuda, 
 J. Hasegawa, M. Ishida, T. Nakajima, Y. Honda, O. Kitao, H. Nakai, 
 T. Vreven, K. Throssell, J. A. Montgomery, Jr., J. E. Peralta, 
 F. Ogliaro, M. J. Bearpark, J. J. Heyd, E. N. Brothers, K. N. Kudin, 
 V. N. Staroverov, T. A. Keith, R. Kobayashi, J. Normand, 
 K. Raghavachari, A. P. Rendell, J. C. Burant, S. S. Iyengar, 
 J. Tomasi, M. Cossi, J. M. Millam, M. Klene, C. Adamo, R. Cammi, 
 J. W. Ochterski, R. L. Martin, K. Morokuma, O. Farkas, 
 J. B. Foresman, and D. J. Fox, Gaussian, Inc., Wallingford CT, 2019.
 
 ******************************************
 Gaussian 16:  ES64L-G16RevC.01  3-Jul-2019
                24-May-2025 
 ******************************************
 %mem=28GB
 %nprocshared=8
 Will use up to    8 processors via shared memory.
 ----------------------------------------------------------------------
 #P M062X/Def2TZVPP Symm(None) scf(xqc) pop(None) opt(NoFreeze,TS,CalcA
 ll,NoEigentest,MaxCycle=999)
 ----------------------------------------------------------------------
 1/5=1,6=999,10=4,11=1,18=20,26=3,29=2000,38=1/1,3;
 2/9=110,12=2,15=3,17=6,18=5,40=1/2;
 3/5=44,7=202,11=2,25=1,30=1,71=2,74=-55,140=1/1,2,3;
 4//1;
 5/5=2,8=3,13=1,38=5/2,8;
 8/6=4,10=90,11=11/1;
 11/6=1,8=1,9=11,15=111,16=1,31=1/1,2,10;
 10/6=1,31=1/2;
 7/10=1,25=1,30=1/1,2,3,16;
 1/5=1,6=999,10=4,11=1,18=20,26=3/3(3);
 2/9=110,15=3/2;
 7/8=1,9=1,25=1,30=1,44=-1/16;
 99//99;
 2/9=110,15=3/2;
 3/5=44,7=202,11=2,25=1,30=1,71=2,74=-55,140=1/1,2,3;
 4/5=5,16=3,69=1/1;
 5/5=2,8=3,13=1,38=5/2,8;
 8/6=4,10=90,11=11/1;
 11/6=1,8=1,9=11,15=111,16=1,31=1/1,2,10;
 10/6=1,31=1/2;
 7/10=1,25=1,30=1/1,2,3,16;
 1/5=1,6=999,10=4,11=1,18=20,26=3/3(-8);
 2/9=110,15=3/2;
 7/8=1,9=1,25=1,30=1,44=-1/16;
 99//99;
 Leave Link    1 at Sat May 24 08:11:24 2025, MaxMem=  3758096384 cpu:               0.0 elap:               0.0
 (Enter /apps/easybuild-2022/easybuild/software/Compiler/NVHPC/22.11-CUDA-11.7.0/Gaussian/g16c01-CUDA-11.7.0/g16/l101.exe)
 ------------------------------
 Gaussian input prepared by ASE
 ------------------------------
 Symbolic Z-matrix:
 Charge =  0 Multiplicity = 1
 C                     1.98486  -1.04281  -1.19322 
 C                     2.02915  -0.10476  -0.01053 
 F                    -0.35349   0.76155   0.34097 
 F                     1.96939  -0.68863   1.16942 
 S                     1.97744   1.5691   -0.07912 
 O                     0.6772    2.15038   0.35891 
 O                     3.03522   2.2925    0.51516 
 O                     2.01547   1.95286  -1.5828 
 F                     1.38397  -0.54063  -2.25986 
 F                     3.205    -1.39903  -1.62134 
 F                     1.36193  -2.18347  -0.93953 
 H                     2.72394   2.50216  -1.95206 
 
 Add virtual bond connecting atoms O6         and F3         Dist= 3.27D+00.
 ITRead=  0  0  0  0  0  0  0  0  0  0  0  0
 MicOpt= -1 -1 -1 -1 -1 -1 -1 -1 -1 -1 -1 -1
 NAtoms=     12 NQM=       12 NQMF=       0 NMMI=      0 NMMIF=      0
                NMic=       0 NMicF=      0.
                    Isotopes and Nuclear Properties:
 (Nuclear quadrupole moments (NQMom) in fm**2, nuclear magnetic moments (NMagM)
  in nuclear magnetons)

  Atom         1           2           3           4           5           6           7           8           9          10
 IAtWgt=          12          12          19          19          32          16          16          16          19          19
 AtmWgt=  12.0000000  12.0000000  18.9984032  18.9984032  31.9720718  15.9949146  15.9949146  15.9949146  18.9984032  18.9984032
 NucSpn=           0           0           1           1           0           0           0           0           1           1
 AtZEff=  -0.0000000  -0.0000000  -0.0000000  -0.0000000  -0.0000000  -0.0000000  -0.0000000  -0.0000000  -0.0000000  -0.0000000
 NQMom=    0.0000000   0.0000000   0.0000000   0.0000000   0.0000000   0.0000000   0.0000000   0.0000000   0.0000000   0.0000000
 NMagM=    0.0000000   0.0000000   2.6288670   2.6288670   0.0000000   0.0000000   0.0000000   0.0000000   2.6288670   2.6288670
 AtZNuc=   6.0000000   6.0000000   9.0000000   9.0000000  16.0000000   8.0000000   8.0000000   8.0000000   9.0000000   9.0000000

  Atom        11          12
 IAtWgt=          19           1
 AtmWgt=  18.9984032   1.0078250
 NucSpn=           1           1
 AtZEff=  -0.0000000  -0.0000000
 NQMom=    0.0000000   0.0000000
 NMagM=    2.6288670   2.7928460
 AtZNuc=   9.0000000   1.0000000
 Leave Link  101 at Sat May 24 08:11:24 2025, MaxMem=  3758096384 cpu:               0.3 elap:               0.2
 (Enter /apps/easybuild-2022/easybuild/software/Compiler/NVHPC/22.11-CUDA-11.7.0/Gaussian/g16c01-CUDA-11.7.0/g16/l103.exe)

 GradGradGradGradGradGradGradGradGradGradGradGradGradGradGradGradGradGrad
 Berny optimization.
 Initialization pass.
                           ----------------------------
                           !    Initial Parameters    !
                           ! (Angstroms and Degrees)  !
 --------------------------                            --------------------------
 ! Name  Definition              Value          Derivative Info.                !
 --------------------------------------------------------------------------------
 ! R1    R(1,2)                  1.5102         calculate D2E/DX2 analytically  !
 ! R2    R(1,9)                  1.3232         calculate D2E/DX2 analytically  !
 ! R3    R(1,10)                 1.3412         calculate D2E/DX2 analytically  !
 ! R4    R(1,11)                 1.3242         calculate D2E/DX2 analytically  !
 ! R5    R(2,4)                  1.3179         calculate D2E/DX2 analytically  !
 ! R6    R(2,5)                  1.6761         calculate D2E/DX2 analytically  !
 ! R7    R(3,6)                  1.7296         calculate D2E/DX2 analytically  !
 ! R8    R(5,6)                  1.4901         calculate D2E/DX2 analytically  !
 ! R9    R(5,7)                  1.4126         calculate D2E/DX2 analytically  !
 ! R10   R(5,8)                  1.5523         calculate D2E/DX2 analytically  !
 ! R11   R(8,12)                 0.9695         calculate D2E/DX2 analytically  !
 ! A1    A(2,1,9)              114.1337         calculate D2E/DX2 analytically  !
 ! A2    A(2,1,10)             112.8472         calculate D2E/DX2 analytically  !
 ! A3    A(2,1,11)             113.5045         calculate D2E/DX2 analytically  !
 ! A4    A(9,1,10)             104.8678         calculate D2E/DX2 analytically  !
 ! A5    A(9,1,11)             105.5281         calculate D2E/DX2 analytically  !
 ! A6    A(10,1,11)            105.0887         calculate D2E/DX2 analytically  !
 ! A7    A(1,2,4)              115.1296         calculate D2E/DX2 analytically  !
 ! A8    A(1,2,5)              125.9713         calculate D2E/DX2 analytically  !
 ! A9    A(4,2,5)              118.5352         calculate D2E/DX2 analytically  !
 ! A10   A(2,5,6)              113.8583         calculate D2E/DX2 analytically  !
 ! A11   A(2,5,7)              118.107          calculate D2E/DX2 analytically  !
 ! A12   A(2,5,8)              106.605          calculate D2E/DX2 analytically  !
 ! A13   A(6,5,7)              109.267          calculate D2E/DX2 analytically  !
 ! A14   A(6,5,8)              102.104          calculate D2E/DX2 analytically  !
 ! A15   A(7,5,8)              105.223          calculate D2E/DX2 analytically  !
 ! A16   A(3,6,5)              101.7533         calculate D2E/DX2 analytically  !
 ! A17   A(5,8,12)             121.7952         calculate D2E/DX2 analytically  !
 ! D1    D(9,1,2,4)            147.3474         calculate D2E/DX2 analytically  !
 ! D2    D(9,1,2,5)            -25.5834         calculate D2E/DX2 analytically  !
 ! D3    D(10,1,2,4)           -93.0572         calculate D2E/DX2 analytically  !
 ! D4    D(10,1,2,5)            94.0119         calculate D2E/DX2 analytically  !
 ! D5    D(11,1,2,4)            26.3671         calculate D2E/DX2 analytically  !
 ! D6    D(11,1,2,5)          -146.5637         calculate D2E/DX2 analytically  !
 ! D7    D(1,2,5,6)            106.4303         calculate D2E/DX2 analytically  !
 ! D8    D(1,2,5,7)           -123.3846         calculate D2E/DX2 analytically  !
 ! D9    D(1,2,5,8)             -5.3559         calculate D2E/DX2 analytically  !
 ! D10   D(4,2,5,6)            -66.2835         calculate D2E/DX2 analytically  !
 ! D11   D(4,2,5,7)             63.9016         calculate D2E/DX2 analytically  !
 ! D12   D(4,2,5,8)           -178.0697         calculate D2E/DX2 analytically  !
 ! D13   D(2,5,6,3)            -14.8402         calculate D2E/DX2 analytically  !
 ! D14   D(7,5,6,3)           -149.2911         calculate D2E/DX2 analytically  !
 ! D15   D(8,5,6,3)             99.6429         calculate D2E/DX2 analytically  !
 ! D16   D(2,5,8,12)          -120.0846         calculate D2E/DX2 analytically  !
 ! D17   D(6,5,8,12)           120.2044         calculate D2E/DX2 analytically  !
 ! D18   D(7,5,8,12)             6.1185         calculate D2E/DX2 analytically  !
 --------------------------------------------------------------------------------
 Trust Radius=3.00D-01 FncErr=1.00D-07 GrdErr=1.00D-06 EigMax=2.50D+02 EigMin=1.00D-04
 Number of steps in this run=    100 maximum allowed number of steps=    100.
 Search for a saddle point of order  1.
 GradGradGradGradGradGradGradGradGradGradGradGradGradGradGradGradGradGrad

 Leave Link  103 at Sat May 24 08:11:24 2025, MaxMem=  3758096384 cpu:               0.1 elap:               0.0
 (Enter /apps/easybuild-2022/easybuild/software/Compiler/NVHPC/22.11-CUDA-11.7.0/Gaussian/g16c01-CUDA-11.7.0/g16/l202.exe)
                          Input orientation:                          
 ---------------------------------------------------------------------
 Center     Atomic      Atomic             Coordinates (Angstroms)
 Number     Number       Type             X           Y           Z
 ---------------------------------------------------------------------
      1          6           0        1.984860   -1.042807   -1.193219
      2          6           0        2.029149   -0.104762   -0.010534
      3          9           0       -0.353489    0.761547    0.340970
      4          9           0        1.969387   -0.688628    1.169424
      5         16           0        1.977441    1.569102   -0.079124
      6          8           0        0.677203    2.150384    0.358905
      7          8           0        3.035218    2.292500    0.515165
      8          8           0        2.015473    1.952860   -1.582802
      9          9           0        1.383972   -0.540632   -2.259863
     10          9           0        3.204995   -1.399029   -1.621344
     11          9           0        1.361934   -2.183471   -0.939534
     12          1           0        2.723940    2.502162   -1.952063
 ---------------------------------------------------------------------
                    Distance matrix (angstroms):
                    1          2          3          4          5
     1  C    0.000000
     2  C    1.510177   0.000000
     3  F    3.328259   2.559494   0.000000
     4  F    2.389093   1.317866   2.860961   0.000000
     5  S    2.839601   1.676067   2.502371   2.579978   0.000000
     6  O    3.783587   2.655170   1.729601   3.222836   1.490093
     7  O    3.891799   2.652433   3.722566   3.232828   1.412578
     8  O    3.021049   2.589599   3.275990   3.815015   1.552341
     9  F    1.323245   2.380277   3.388034   3.482043   3.091732
    10  F    1.341236   2.377489   4.602345   3.133654   3.563023
    11  F    1.324201   2.372603   3.640810   2.655420   3.898841
    12  H    3.699850   3.323901   4.214060   4.527049   2.221657
                    6          7          8          9         10
     6  O    0.000000
     7  O    2.367456   0.000000
     8  O    2.366476   2.357266   0.000000
     9  F    3.820869   4.295816   2.659833   0.000000
    10  F    4.786382   4.268592   3.556910   2.112031   0.000000
    11  F    4.575708   4.995032   4.236761   2.107765   2.115914
    12  H    3.107000   2.495609   0.969541   3.338989   3.944626
                   11         12
    11  F    0.000000
    12  H    4.983515   0.000000
 Symmetry turned off by external request.
 Stoichiometry    C2HF5O3S
 Rotational constants (GHZ):           1.4554537           0.7832826           0.7209798
 Leave Link  202 at Sat May 24 08:11:24 2025, MaxMem=  3758096384 cpu:               0.1 elap:               0.0
 (Enter /apps/easybuild-2022/easybuild/software/Compiler/NVHPC/22.11-CUDA-11.7.0/Gaussian/g16c01-CUDA-11.7.0/g16/l301.exe)
 Standard basis: def2TZVPP (5D, 7F)
 Ernie: Thresh=  0.10000D-02 Tol=  0.10000D-05 Strict=F.
   366 basis functions,   596 primitive gaussians,   423 cartesian basis functions
    49 alpha electrons       49 beta electrons
       nuclear repulsion energy       904.7069137431 Hartrees.
 IExCor= 4336 DFT=T Ex+Corr=M062X ExCW=0 ScaHFX=  0.540000
 ScaDFX=  1.000000  1.000000  1.000000  1.000000 ScalE2=  1.000000  1.000000
 IRadAn=      5 IRanWt=     -1 IRanGd=            0 ICorTp=0 IEmpDi=  4
 NAtoms=   12 NActive=   12 NUniq=   12 SFac= 1.00D+00 NAtFMM=   60 NAOKFM=F Big=F
 Integral buffers will be    131072 words long.
 Raffenetti 2 integral format.
 Two-electron integral symmetry is turned off.
 Leave Link  301 at Sat May 24 08:11:24 2025, MaxMem=  3758096384 cpu:               0.1 elap:               0.0
 (Enter /apps/easybuild-2022/easybuild/software/Compiler/NVHPC/22.11-CUDA-11.7.0/Gaussian/g16c01-CUDA-11.7.0/g16/l302.exe)
 NPDir=0 NMtPBC=     1 NCelOv=     1 NCel=       1 NClECP=     1 NCelD=      1
         NCelK=      1 NCelE2=     1 NClLst=     1 CellRange=     0.0.
 One-electron integrals computed using PRISM.
   1 Symmetry operations used in ECPInt.
 ECPInt:  NShTT=    8515 NPrTT=   27988 LenC2=    7934 LenP2D=   19104.
 LDataN:  DoStor=T MaxTD1= 6 Len=  172
 NBasis=   366 RedAO= T EigKep=  3.85D-04  NBF=   366
 NBsUse=   366 1.00D-06 EigRej= -1.00D+00 NBFU=   366
 Precomputing XC quadrature grid using
 IXCGrd= 4 IRadAn=           5 IRanWt=          -1 IRanGd=           0 AccXCQ= 0.00D+00.
 Generated NRdTot=       0 NPtTot=           0 NUsed=           0 NTot=          32
 NSgBfM=   420   420   420   420   420 MxSgAt=    12 MxSgA2=    12.
 Leave Link  302 at Sat May 24 08:11:24 2025, MaxMem=  3758096384 cpu:               0.9 elap:               0.3
 (Enter /apps/easybuild-2022/easybuild/software/Compiler/NVHPC/22.11-CUDA-11.7.0/Gaussian/g16c01-CUDA-11.7.0/g16/l303.exe)
 DipDrv:  MaxL=1.
 Leave Link  303 at Sat May 24 08:11:25 2025, MaxMem=  3758096384 cpu:               0.1 elap:               0.0
 (Enter /apps/easybuild-2022/easybuild/software/Compiler/NVHPC/22.11-CUDA-11.7.0/Gaussian/g16c01-CUDA-11.7.0/g16/l401.exe)
 ExpMin= 9.52D-02 ExpMax= 6.07D+04 ExpMxC= 2.07D+03 IAcc=3 IRadAn=         5 AccDes= 0.00D+00
 Harris functional with IExCor= 1009 and IRadAn=       5 diagonalized for initial guess.
 HarFok:  IExCor= 1009 AccDes= 0.00D+00 IRadAn=         5 IDoV= 1 UseB2=F ITyADJ=14
 ICtDFT=  3500011 ScaDFX=  1.000000  1.000000  1.000000  1.000000
 FoFCou: FMM=F IPFlag=           0 FMFlag=      100000 FMFlg1=           0
         NFxFlg=           0 DoJE=T BraDBF=F KetDBF=T FulRan=T
         wScrn=  0.000000 ICntrl=       500 IOpCl=  0 I1Cent=   200000004 NGrid=           0
         NMat0=    1 NMatS0=      1 NMatT0=    0 NMatD0=    1 NMtDS0=    0 NMtDT0=    0
 Symmetry not used in FoFCou.
 Harris En= -1199.16630790831    
 JPrj=0 DoOrth=F DoCkMO=F.
 Leave Link  401 at Sat May 24 08:11:25 2025, MaxMem=  3758096384 cpu:               3.5 elap:               0.5
 (Enter /apps/easybuild-2022/easybuild/software/Compiler/NVHPC/22.11-CUDA-11.7.0/Gaussian/g16c01-CUDA-11.7.0/g16/l502.exe)
 Keep R1 ints in memory in canonical form, NReq=2293446996.
 FoFCou: FMM=F IPFlag=           0 FMFlag=           0 FMFlg1=           0
         NFxFlg=           0 DoJE=F BraDBF=F KetDBF=F FulRan=T
         wScrn=  0.000000 ICntrl=       600 IOpCl=  0 I1Cent=           0 NGrid=           0
         NMat0=    1 NMatS0=  67161 NMatT0=    0 NMatD0=    1 NMtDS0=    0 NMtDT0=    0
 Symmetry not used in FoFCou.
 Two-electron integral symmetry not used.
 Closed shell SCF:
 Using DIIS extrapolation, IDIIS=  1040.
 NGot=  3758096384 LenX=  1502398672 LenY=  1502219302
 Requested convergence on RMS density matrix=1.00D-08 within  32 cycles.
 Requested convergence on MAX density matrix=1.00D-06.
 Requested convergence on             energy=1.00D-06.
 No special actions if energy rises.
 Integral accuracy reduced to 1.0D-05 until final iterations.

 Cycle   1  Pass 0  IDiag  1:
 E= -1198.91207141186    
 DIIS: error= 2.53D-02 at cycle   1 NSaved=   1.
 NSaved= 1 IEnMin= 1 EnMin= -1198.91207141186     IErMin= 1 ErrMin= 2.53D-02
 ErrMax= 2.53D-02  0.00D+00 EMaxC= 1.00D-01 BMatC= 9.44D-01 BMatP= 9.44D-01
 IDIUse=3 WtCom= 7.47D-01 WtEn= 2.53D-01
 Coeff-Com:  0.100D+01
 Coeff-En:   0.100D+01
 Coeff:      0.100D+01
 Gap=    -0.446 Goal=   None    Shift=    0.000
 GapD=   -0.446 DampG=0.250 DampE=0.500 DampFc=0.2500 IDamp=-1.
 Damping current iteration by 2.50D-01
 RMSDP=1.17D-02 MaxDP=1.58D+00              OVMax= 8.66D-01

 Cycle   2  Pass 0  IDiag  1:
 E= -1198.67217170441     Delta-E=        0.239899707451 Rises=F Damp=T
 DIIS: error= 1.19D-02 at cycle   2 NSaved=   2.
 NSaved= 2 IEnMin= 1 EnMin= -1198.91207141186     IErMin= 2 ErrMin= 1.19D-02
 ErrMax= 1.19D-02  0.00D+00 EMaxC= 1.00D-01 BMatC= 2.13D-01 BMatP= 9.44D-01
 IDIUse=3 WtCom= 8.81D-01 WtEn= 1.19D-01
 Coeff-Com:  0.106D+00 0.894D+00
 Coeff-En:   0.622D+00 0.378D+00
 Coeff:      0.167D+00 0.833D+00
 Gap=     0.160 Goal=   None    Shift=    0.000
 RMSDP=2.92D-03 MaxDP=3.95D-01 DE= 2.40D-01 OVMax= 8.95D-01

 Cycle   3  Pass 0  IDiag  1:
 E= -1199.12893876650     Delta-E=       -0.456767062089 Rises=F Damp=F
 DIIS: error= 3.13D-02 at cycle   3 NSaved=   3.
 NSaved= 3 IEnMin= 3 EnMin= -1199.12893876650     IErMin= 2 ErrMin= 1.19D-02
 ErrMax= 3.13D-02  0.00D+00 EMaxC= 1.00D-01 BMatC= 5.52D-01 BMatP= 2.13D-01
 IDIUse=2 WtCom= 0.00D+00 WtEn= 1.00D+00
 EnCoef did     2 forward-backward iterations
 Coeff-En:   0.779D-01 0.257D+00 0.665D+00
 Coeff:      0.779D-01 0.257D+00 0.665D+00
 Gap=     0.097 Goal=   None    Shift=    0.000
 RMSDP=3.69D-03 MaxDP=3.10D-01 DE=-4.57D-01 OVMax= 8.68D-01

 Cycle   4  Pass 0  IDiag  1:
 E= -1198.36847054704     Delta-E=        0.760468219457 Rises=F Damp=F
 DIIS: error= 4.84D-02 at cycle   4 NSaved=   4.
 NSaved= 4 IEnMin= 3 EnMin= -1199.12893876650     IErMin= 2 ErrMin= 1.19D-02
 ErrMax= 4.84D-02  0.00D+00 EMaxC= 1.00D-01 BMatC= 1.51D+00 BMatP= 2.13D-01
 IDIUse=2 WtCom= 0.00D+00 WtEn= 1.00D+00
 EnCoef did     6 forward-backward iterations
 Coeff-En:   0.714D-01 0.000D+00 0.588D+00 0.340D+00
 Coeff:      0.714D-01 0.000D+00 0.588D+00 0.340D+00
 Gap=     0.358 Goal=   None    Shift=    0.000
 RMSDP=2.54D-03 MaxDP=2.93D-01 DE= 7.60D-01 OVMax= 4.96D-01

 Cycle   5  Pass 0  IDiag  1:
 E= -1199.59835021041     Delta-E=       -1.229879663369 Rises=F Damp=F
 DIIS: error= 7.65D-03 at cycle   5 NSaved=   5.
 NSaved= 5 IEnMin= 5 EnMin= -1199.59835021041     IErMin= 5 ErrMin= 7.65D-03
 ErrMax= 7.65D-03  0.00D+00 EMaxC= 1.00D-01 BMatC= 7.52D-02 BMatP= 2.13D-01
 IDIUse=3 WtCom= 9.23D-01 WtEn= 7.65D-02
 Coeff-Com: -0.497D-01 0.133D+00 0.235D+00-0.723D-01 0.754D+00
 Coeff-En:   0.000D+00 0.000D+00 0.982D-01 0.000D+00 0.902D+00
 Coeff:     -0.459D-01 0.123D+00 0.224D+00-0.667D-01 0.765D+00
 Gap=     0.113 Goal=   None    Shift=    0.000
 RMSDP=6.89D-04 MaxDP=3.08D-02 DE=-1.23D+00 OVMax= 1.84D-01

 Cycle   6  Pass 0  IDiag  1:
 E= -1199.64243886084     Delta-E=       -0.044088650431 Rises=F Damp=F
 DIIS: error= 2.67D-03 at cycle   6 NSaved=   6.
 NSaved= 6 IEnMin= 6 EnMin= -1199.64243886084     IErMin= 6 ErrMin= 2.67D-03
 ErrMax= 2.67D-03  0.00D+00 EMaxC= 1.00D-01 BMatC= 9.50D-03 BMatP= 7.52D-02
 IDIUse=3 WtCom= 9.73D-01 WtEn= 2.67D-02
 Coeff-Com: -0.497D-01 0.684D-01 0.612D-01-0.441D-01 0.365D+00 0.599D+00
 Coeff-En:   0.000D+00 0.000D+00 0.000D+00 0.000D+00 0.191D+00 0.809D+00
 Coeff:     -0.483D-01 0.665D-01 0.596D-01-0.429D-01 0.360D+00 0.605D+00
 Gap=     0.141 Goal=   None    Shift=    0.000
 RMSDP=3.30D-04 MaxDP=1.87D-02 DE=-4.41D-02 OVMax= 1.17D-01

 Cycle   7  Pass 0  IDiag  1:
 E= -1199.65363193237     Delta-E=       -0.011193071532 Rises=F Damp=F
 DIIS: error= 1.62D-03 at cycle   7 NSaved=   7.
 NSaved= 7 IEnMin= 7 EnMin= -1199.65363193237     IErMin= 7 ErrMin= 1.62D-03
 ErrMax= 1.62D-03  0.00D+00 EMaxC= 1.00D-01 BMatC= 3.64D-03 BMatP= 9.50D-03
 IDIUse=3 WtCom= 9.84D-01 WtEn= 1.62D-02
 Coeff-Com: -0.158D-01 0.264D-01 0.764D-02-0.211D-01 0.115D+00 0.429D+00
 Coeff-Com:  0.459D+00
 Coeff-En:   0.000D+00 0.000D+00 0.000D+00 0.000D+00 0.000D+00 0.101D+00
 Coeff-En:   0.899D+00
 Coeff:     -0.156D-01 0.260D-01 0.752D-02-0.207D-01 0.113D+00 0.424D+00
 Coeff:      0.466D+00
 Gap=     0.148 Goal=   None    Shift=    0.000
 RMSDP=1.11D-04 MaxDP=5.74D-03 DE=-1.12D-02 OVMax= 2.38D-02

 Cycle   8  Pass 0  IDiag  1:
 E= -1199.65551711161     Delta-E=       -0.001885179235 Rises=F Damp=F
 DIIS: error= 1.62D-03 at cycle   8 NSaved=   8.
 NSaved= 8 IEnMin= 8 EnMin= -1199.65551711161     IErMin= 8 ErrMin= 1.62D-03
 ErrMax= 1.62D-03  0.00D+00 EMaxC= 1.00D-01 BMatC= 2.15D-03 BMatP= 3.64D-03
 IDIUse=3 WtCom= 9.84D-01 WtEn= 1.62D-02
 Coeff-Com:  0.233D-01-0.187D-01-0.947D-02-0.678D-02-0.956D-01 0.502D-01
 Coeff-Com:  0.102D+00 0.955D+00
 Coeff-En:   0.000D+00 0.000D+00 0.000D+00 0.000D+00 0.000D+00 0.000D+00
 Coeff-En:   0.000D+00 0.100D+01
 Coeff:      0.229D-01-0.184D-01-0.932D-02-0.667D-02-0.941D-01 0.494D-01
 Coeff:      0.101D+00 0.956D+00
 Gap=     0.152 Goal=   None    Shift=    0.000
 RMSDP=1.35D-04 MaxDP=4.89D-03 DE=-1.89D-03 OVMax= 3.80D-02

 Cycle   9  Pass 0  IDiag  1:
 E= -1199.65561357357     Delta-E=       -0.000096461963 Rises=F Damp=F
 DIIS: error= 1.93D-03 at cycle   9 NSaved=   9.
 NSaved= 9 IEnMin= 9 EnMin= -1199.65561357357     IErMin= 8 ErrMin= 1.62D-03
 ErrMax= 1.93D-03  0.00D+00 EMaxC= 1.00D-01 BMatC= 2.53D-03 BMatP= 2.15D-03
 IDIUse=3 WtCom= 9.84D-01 WtEn= 1.62D-02
 Coeff-Com:  0.198D-01-0.145D-01-0.603D-02-0.731D-02-0.824D-01 0.960D-01
 Coeff-Com:  0.141D+00 0.190D+00 0.664D+00
 Coeff-En:   0.000D+00 0.000D+00 0.000D+00 0.000D+00 0.000D+00 0.000D+00
 Coeff-En:   0.000D+00 0.000D+00 0.100D+01
 Coeff:      0.194D-01-0.142D-01-0.593D-02-0.719D-02-0.811D-01 0.944D-01
 Coeff:      0.138D+00 0.186D+00 0.670D+00
 Gap=     0.150 Goal=   None    Shift=    0.000
 RMSDP=4.28D-05 MaxDP=1.66D-03 DE=-9.65D-05 OVMax= 4.42D-03

 Failed to achieve initial convergence to 1.0D-08 in 10 cycles.
 Switch to full accuracy anyway.
 Cycle  10  Pass 1  IDiag  1:
 E= -1199.65680900580     Delta-E=       -0.001195432234 Rises=F Damp=F
 DIIS: error= 1.32D-03 at cycle   1 NSaved=   1.
 NSaved= 1 IEnMin= 1 EnMin= -1199.65680900580     IErMin= 1 ErrMin= 1.32D-03
 ErrMax= 1.32D-03  0.00D+00 EMaxC= 1.00D-01 BMatC= 1.17D-03 BMatP= 1.17D-03
 IDIUse=3 WtCom= 9.87D-01 WtEn= 1.32D-02
 Coeff-Com:  0.100D+01
 Coeff-En:   0.100D+01
 Coeff:      0.100D+01
 Gap=     0.139 Goal=   None    Shift=    0.000
 RMSDP=4.28D-05 MaxDP=1.66D-03 DE=-1.20D-03 OVMax= 8.04D-02

 Cycle  11  Pass 1  IDiag  1:
 E= -1199.64926159000     Delta-E=        0.007547415808 Rises=F Damp=F
 DIIS: error= 3.93D-03 at cycle   2 NSaved=   2.
 NSaved= 2 IEnMin= 1 EnMin= -1199.65680900580     IErMin= 1 ErrMin= 1.32D-03
 ErrMax= 3.93D-03  0.00D+00 EMaxC= 1.00D-01 BMatC= 1.02D-02 BMatP= 1.17D-03
 IDIUse=3 WtCom= 1.38D-01 WtEn= 8.62D-01
 Coeff-Com:  0.749D+00 0.251D+00
 Coeff-En:   0.836D+00 0.164D+00
 Coeff:      0.824D+00 0.176D+00
 Gap=     0.145 Goal=   None    Shift=    0.000
 RMSDP=1.41D-04 MaxDP=8.35D-03 DE= 7.55D-03 OVMax= 4.89D-02

 Cycle  12  Pass 1  IDiag  1:
 E= -1199.65717361198     Delta-E=       -0.007912021987 Rises=F Damp=F
 DIIS: error= 1.14D-03 at cycle   3 NSaved=   3.
 NSaved= 3 IEnMin= 3 EnMin= -1199.65717361198     IErMin= 3 ErrMin= 1.14D-03
 ErrMax= 1.14D-03  0.00D+00 EMaxC= 1.00D-01 BMatC= 7.35D-04 BMatP= 1.17D-03
 IDIUse=3 WtCom= 9.89D-01 WtEn= 1.14D-02
 Coeff-Com:  0.416D+00-0.213D-01 0.606D+00
 Coeff-En:   0.418D+00 0.000D+00 0.582D+00
 Coeff:      0.416D+00-0.210D-01 0.605D+00
 Gap=     0.148 Goal=   None    Shift=    0.000
 RMSDP=5.76D-05 MaxDP=3.52D-03 DE=-7.91D-03 OVMax= 2.02D-02

 Cycle  13  Pass 1  IDiag  1:
 E= -1199.65780643760     Delta-E=       -0.000632825613 Rises=F Damp=F
 DIIS: error= 2.05D-04 at cycle   4 NSaved=   4.
 NSaved= 4 IEnMin= 4 EnMin= -1199.65780643760     IErMin= 4 ErrMin= 2.05D-04
 ErrMax= 2.05D-04  0.00D+00 EMaxC= 1.00D-01 BMatC= 1.46D-05 BMatP= 7.35D-04
 IDIUse=3 WtCom= 9.98D-01 WtEn= 2.05D-03
 Coeff-Com:  0.398D-01-0.300D-01 0.249D+00 0.741D+00
 Coeff-En:   0.000D+00 0.000D+00 0.000D+00 0.100D+01
 Coeff:      0.397D-01-0.300D-01 0.248D+00 0.742D+00
 Gap=     0.148 Goal=   None    Shift=    0.000
 RMSDP=1.14D-05 MaxDP=4.37D-04 DE=-6.33D-04 OVMax= 3.02D-03

 Cycle  14  Pass 1  IDiag  1:
 E= -1199.65781776072     Delta-E=       -0.000011323126 Rises=F Damp=F
 DIIS: error= 9.74D-05 at cycle   5 NSaved=   5.
 NSaved= 5 IEnMin= 5 EnMin= -1199.65781776072     IErMin= 5 ErrMin= 9.74D-05
 ErrMax= 9.74D-05  0.00D+00 EMaxC= 1.00D-01 BMatC= 1.32D-05 BMatP= 1.46D-05
 IDIUse=1 WtCom= 1.00D+00 WtEn= 0.00D+00
 Coeff-Com: -0.179D+00 0.258D-01-0.174D+00 0.531D+00 0.795D+00
 Coeff:     -0.179D+00 0.258D-01-0.174D+00 0.531D+00 0.795D+00
 Gap=     0.148 Goal=   None    Shift=    0.000
 RMSDP=1.18D-05 MaxDP=3.73D-04 DE=-1.13D-05 OVMax= 2.21D-03

 Cycle  15  Pass 1  IDiag  1:
 E= -1199.65783032799     Delta-E=       -0.000012567264 Rises=F Damp=F
 DIIS: error= 8.35D-05 at cycle   6 NSaved=   6.
 NSaved= 6 IEnMin= 6 EnMin= -1199.65783032799     IErMin= 6 ErrMin= 8.35D-05
 ErrMax= 8.35D-05  0.00D+00 EMaxC= 1.00D-01 BMatC= 4.35D-06 BMatP= 1.32D-05
 IDIUse=1 WtCom= 1.00D+00 WtEn= 0.00D+00
 Coeff-Com: -0.975D-01 0.415D-01-0.178D+00 0.335D-02 0.274D+00 0.957D+00
 Coeff:     -0.975D-01 0.415D-01-0.178D+00 0.335D-02 0.274D+00 0.957D+00
 Gap=     0.147 Goal=   None    Shift=    0.000
 RMSDP=7.62D-06 MaxDP=3.24D-04 DE=-1.26D-05 OVMax= 1.41D-03

 Cycle  16  Pass 1  IDiag  1:
 E= -1199.65783528436     Delta-E=       -0.000004956370 Rises=F Damp=F
 DIIS: error= 1.74D-05 at cycle   7 NSaved=   7.
 NSaved= 7 IEnMin= 7 EnMin= -1199.65783528436     IErMin= 7 ErrMin= 1.74D-05
 ErrMax= 1.74D-05  0.00D+00 EMaxC= 1.00D-01 BMatC= 1.39D-07 BMatP= 4.35D-06
 IDIUse=1 WtCom= 1.00D+00 WtEn= 0.00D+00
 Coeff-Com: -0.389D-02 0.777D-02-0.193D-01-0.708D-01-0.470D-01 0.246D+00
 Coeff-Com:  0.887D+00
 Coeff:     -0.389D-02 0.777D-02-0.193D-01-0.708D-01-0.470D-01 0.246D+00
 Coeff:      0.887D+00
 Gap=     0.147 Goal=   None    Shift=    0.000
 RMSDP=1.91D-06 MaxDP=1.08D-04 DE=-4.96D-06 OVMax= 4.34D-04

 Cycle  17  Pass 1  IDiag  1:
 E= -1199.65783553705     Delta-E=       -0.000000252691 Rises=F Damp=F
 DIIS: error= 5.45D-06 at cycle   8 NSaved=   8.
 NSaved= 8 IEnMin= 8 EnMin= -1199.65783553705     IErMin= 8 ErrMin= 5.45D-06
 ErrMax= 5.45D-06  0.00D+00 EMaxC= 1.00D-01 BMatC= 3.38D-08 BMatP= 1.39D-07
 IDIUse=1 WtCom= 1.00D+00 WtEn= 0.00D+00
 Coeff-Com:  0.154D-01-0.462D-02 0.231D-01-0.214D-01-0.544D-01-0.593D-01
 Coeff-Com:  0.293D+00 0.808D+00
 Coeff:      0.154D-01-0.462D-02 0.231D-01-0.214D-01-0.544D-01-0.593D-01
 Coeff:      0.293D+00 0.808D+00
 Gap=     0.147 Goal=   None    Shift=    0.000
 RMSDP=5.31D-07 MaxDP=2.77D-05 DE=-2.53D-07 OVMax= 1.20D-04

 Cycle  18  Pass 1  IDiag  1:
 E= -1199.65783558783     Delta-E=       -0.000000050782 Rises=F Damp=F
 DIIS: error= 3.85D-06 at cycle   9 NSaved=   9.
 NSaved= 9 IEnMin= 9 EnMin= -1199.65783558783     IErMin= 9 ErrMin= 3.85D-06
 ErrMax= 3.85D-06  0.00D+00 EMaxC= 1.00D-01 BMatC= 1.27D-08 BMatP= 3.38D-08
 IDIUse=1 WtCom= 1.00D+00 WtEn= 0.00D+00
 Coeff-Com:  0.102D-01-0.520D-02 0.171D-01 0.119D-01-0.136D-01-0.115D+00
 Coeff-Com: -0.173D+00 0.412D+00 0.856D+00
 Coeff:      0.102D-01-0.520D-02 0.171D-01 0.119D-01-0.136D-01-0.115D+00
 Coeff:     -0.173D+00 0.412D+00 0.856D+00
 Gap=     0.147 Goal=   None    Shift=    0.000
 RMSDP=4.42D-07 MaxDP=2.92D-05 DE=-5.08D-08 OVMax= 9.57D-05

 Cycle  19  Pass 1  IDiag  1:
 E= -1199.65783561057     Delta-E=       -0.000000022741 Rises=F Damp=F
 DIIS: error= 1.21D-06 at cycle  10 NSaved=  10.
 NSaved=10 IEnMin=10 EnMin= -1199.65783561057     IErMin=10 ErrMin= 1.21D-06
 ErrMax= 1.21D-06  0.00D+00 EMaxC= 1.00D-01 BMatC= 1.75D-09 BMatP= 1.27D-08
 IDIUse=1 WtCom= 1.00D+00 WtEn= 0.00D+00
 Coeff-Com:  0.246D-02-0.106D-02 0.221D-02 0.596D-02 0.985D-04-0.330D-01
 Coeff-Com: -0.130D+00-0.302D-01 0.401D+00 0.782D+00
 Coeff:      0.246D-02-0.106D-02 0.221D-02 0.596D-02 0.985D-04-0.330D-01
 Coeff:     -0.130D+00-0.302D-01 0.401D+00 0.782D+00
 Gap=     0.147 Goal=   None    Shift=    0.000
 RMSDP=2.03D-07 MaxDP=1.30D-05 DE=-2.27D-08 OVMax= 5.25D-05

 Cycle  20  Pass 1  IDiag  1:
 E= -1199.65783561377     Delta-E=       -0.000000003202 Rises=F Damp=F
 DIIS: error= 4.22D-07 at cycle  11 NSaved=  11.
 NSaved=11 IEnMin=11 EnMin= -1199.65783561377     IErMin=11 ErrMin= 4.22D-07
 ErrMax= 4.22D-07  0.00D+00 EMaxC= 1.00D-01 BMatC= 2.58D-10 BMatP= 1.75D-09
 IDIUse=1 WtCom= 1.00D+00 WtEn= 0.00D+00
 Coeff-Com: -0.237D-03 0.384D-03-0.167D-02-0.296D-04 0.759D-03 0.650D-02
 Coeff-Com: -0.255D-01-0.873D-01 0.474D-01 0.350D+00 0.710D+00
 Coeff:     -0.237D-03 0.384D-03-0.167D-02-0.296D-04 0.759D-03 0.650D-02
 Coeff:     -0.255D-01-0.873D-01 0.474D-01 0.350D+00 0.710D+00
 Gap=     0.147 Goal=   None    Shift=    0.000
 RMSDP=5.26D-08 MaxDP=2.83D-06 DE=-3.20D-09 OVMax= 1.02D-05

 Cycle  21  Pass 1  IDiag  1:
 E= -1199.65783561421     Delta-E=       -0.000000000442 Rises=F Damp=F
 DIIS: error= 1.44D-07 at cycle  12 NSaved=  12.
 NSaved=12 IEnMin=12 EnMin= -1199.65783561421     IErMin=12 ErrMin= 1.44D-07
 ErrMax= 1.44D-07  0.00D+00 EMaxC= 1.00D-01 BMatC= 1.74D-11 BMatP= 2.58D-10
 IDIUse=1 WtCom= 1.00D+00 WtEn= 0.00D+00
 Coeff-Com: -0.211D-03 0.159D-03-0.527D-03-0.421D-03-0.219D-03 0.477D-02
 Coeff-Com:  0.473D-02-0.191D-01-0.229D-01 0.192D-01 0.156D+00 0.859D+00
 Coeff:     -0.211D-03 0.159D-03-0.527D-03-0.421D-03-0.219D-03 0.477D-02
 Coeff:      0.473D-02-0.191D-01-0.229D-01 0.192D-01 0.156D+00 0.859D+00
 Gap=     0.147 Goal=   None    Shift=    0.000
 RMSDP=1.35D-08 MaxDP=4.45D-07 DE=-4.42D-10 OVMax= 2.84D-06

 Cycle  22  Pass 1  IDiag  1:
 E= -1199.65783561413     Delta-E=        0.000000000087 Rises=F Damp=F
 DIIS: error= 6.33D-08 at cycle  13 NSaved=  13.
 NSaved=13 IEnMin=12 EnMin= -1199.65783561421     IErMin=13 ErrMin= 6.33D-08
 ErrMax= 6.33D-08  0.00D+00 EMaxC= 1.00D-01 BMatC= 3.46D-12 BMatP= 1.74D-11
 IDIUse=1 WtCom= 1.00D+00 WtEn= 0.00D+00
 Coeff-Com: -0.663D-04 0.172D-05 0.659D-05-0.901D-04-0.159D-03 0.103D-02
 Coeff-Com:  0.503D-02 0.394D-02-0.144D-01-0.391D-01-0.396D-01 0.277D+00
 Coeff-Com:  0.806D+00
 Coeff:     -0.663D-04 0.172D-05 0.659D-05-0.901D-04-0.159D-03 0.103D-02
 Coeff:      0.503D-02 0.394D-02-0.144D-01-0.391D-01-0.396D-01 0.277D+00
 Coeff:      0.806D+00
 Gap=     0.147 Goal=   None    Shift=    0.000
 RMSDP=5.83D-09 MaxDP=2.19D-07 DE= 8.69D-11 OVMax= 1.31D-06

 SCF Done:  E(RM062X) =  -1199.65783561     A.U. after   22 cycles
            NFock= 22  Conv=0.58D-08     -V/T= 2.0029
 KE= 1.196226900790D+03 PE=-4.655458546840D+03 EE= 1.354866896693D+03
 Leave Link  502 at Sat May 24 08:12:27 2025, MaxMem=  3758096384 cpu:             207.4 elap:              62.2
 (Enter /apps/easybuild-2022/easybuild/software/Compiler/NVHPC/22.11-CUDA-11.7.0/Gaussian/g16c01-CUDA-11.7.0/g16/l508.exe)
 QCSCF skips out because SCF is already converged.
 Leave Link  508 at Sat May 24 08:12:27 2025, MaxMem=  3758096384 cpu:               0.0 elap:               0.0
 (Enter /apps/easybuild-2022/easybuild/software/Compiler/NVHPC/22.11-CUDA-11.7.0/Gaussian/g16c01-CUDA-11.7.0/g16/l801.exe)
 DoSCS=F DFT=T ScalE2(SS,OS)=  1.000000  1.000000
 Range of M.O.s used for correlation:     1   366
 NBasis=   366 NAE=    49 NBE=    49 NFC=     0 NFV=     0
 NROrb=    366 NOA=    49 NOB=    49 NVA=   317 NVB=   317

 **** Warning!!: The largest alpha MO coefficient is  0.19197254D+02

 Leave Link  801 at Sat May 24 08:12:27 2025, MaxMem=  3758096384 cpu:               0.1 elap:               0.0
 (Enter /apps/easybuild-2022/easybuild/software/Compiler/NVHPC/22.11-CUDA-11.7.0/Gaussian/g16c01-CUDA-11.7.0/g16/l1101.exe)
 Using compressed storage, NAtomX=    12.
 Will process     13 centers per pass.
   1 Symmetry operations used in ECPInt.
 ECPInt:  NShTT=    8515 NPrTT=   27988 LenC2=    7934 LenP2D=   19104.
 LDataN:  DoStor=T MaxTD1= 7 Len=  274
 Leave Link 1101 at Sat May 24 08:12:28 2025, MaxMem=  3758096384 cpu:               1.6 elap:               0.5
 (Enter /apps/easybuild-2022/easybuild/software/Compiler/NVHPC/22.11-CUDA-11.7.0/Gaussian/g16c01-CUDA-11.7.0/g16/l1102.exe)
 Symmetrizing basis deriv contribution to polar:
 IMax=3 JMax=2 DiffMx= 0.00D+00
 Leave Link 1102 at Sat May 24 08:12:28 2025, MaxMem=  3758096384 cpu:               0.1 elap:               0.1
 (Enter /apps/easybuild-2022/easybuild/software/Compiler/NVHPC/22.11-CUDA-11.7.0/Gaussian/g16c01-CUDA-11.7.0/g16/l1110.exe)
 Forming Gx(P) for the SCF density, NAtomX=    12.
 Integral derivatives from FoFJK, PRISM(SPDF).
 Do as many integral derivatives as possible in FoFJK.
 G2DrvN: MDV=    3758095012.
 G2DrvN: will do    13 centers at a time, making    1 passes.
 Calling FoFCou, ICntrl=  3107 FMM=F I1Cent=   0 AccDes= 0.00D+00.
 FoFJK:  IHMeth= 1 ICntrl=    3107 DoSepK=F KAlg= 0 I1Cent=           0 FoldK=F
 IRaf=         0 NMat=       1 IRICut=       1 DoRegI=T DoRafI=F ISym2E= 0 IDoP0=0 IntGTp=1.
 FoFCou: FMM=F IPFlag=           0 FMFlag=      100000 FMFlg1=           0
         NFxFlg=           0 DoJE=F BraDBF=F KetDBF=F FulRan=T
         wScrn=  0.000000 ICntrl=      3107 IOpCl=  0 I1Cent=           0 NGrid=           0
         NMat0=    1 NMatS0=      1 NMatT0=    0 NMatD0=    1 NMtDS0=    0 NMtDT0=    0
 Symmetry not used in FoFCou.
 End of G2Drv F.D. properties file   721 does not exist.
 End of G2Drv F.D. properties file   722 does not exist.
 End of G2Drv F.D. properties file   788 does not exist.
 Leave Link 1110 at Sat May 24 08:13:19 2025, MaxMem=  3758096384 cpu:             400.2 elap:              51.1
 (Enter /apps/easybuild-2022/easybuild/software/Compiler/NVHPC/22.11-CUDA-11.7.0/Gaussian/g16c01-CUDA-11.7.0/g16/l1002.exe)
 Minotr:  Closed shell wavefunction.
          IDoAtm=111111111111
          Direct CPHF calculation.
          Differentiating once with respect to electric field.
                with respect to dipole field.
          Differentiating once with respect to nuclear coordinates.
          Requested convergence is 1.0D-08 RMS, and 1.0D-07 maximum.
          Secondary convergence is 1.0D-12 RMS, and 1.0D-12 maximum.
          NewPWx=T KeepS1=F KeepF1=F KeepIn=T MapXYZ=F SortEE=F KeepMc=T.
         3598 words used for storage of precomputed grid.
 Keep R1 ints in memory in canonical form, NReq=2293452904.
 FoFCou: FMM=F IPFlag=           0 FMFlag=           0 FMFlg1=           0
         NFxFlg=           0 DoJE=F BraDBF=F KetDBF=F FulRan=T
         wScrn=  0.000000 ICntrl=       600 IOpCl=  0 I1Cent=           0 NGrid=           0
         NMat0=    1 NMatS0=  67161 NMatT0=    0 NMatD0=    1 NMtDS0=    0 NMtDT0=    0
 Symmetry not used in FoFCou.
 Two-electron integral symmetry not used.
          MDV=    3758096384 using IRadAn=       1.
          Solving linear equations simultaneously, MaxMat=       0.
          There are    39 degrees of freedom in the 1st order CPHF.  IDoFFX=6 NUNeed=     3.
     36 vectors produced by pass  0 Test12= 3.98D-14 2.56D-09 XBig12= 1.45D+02 1.07D+01.
 AX will form    36 AO Fock derivatives at one time.
     36 vectors produced by pass  1 Test12= 3.98D-14 2.56D-09 XBig12= 5.09D+01 1.56D+00.
     36 vectors produced by pass  2 Test12= 3.98D-14 2.56D-09 XBig12= 5.88D+00 4.35D-01.
     36 vectors produced by pass  3 Test12= 3.98D-14 2.56D-09 XBig12= 1.42D-01 5.01D-02.
     36 vectors produced by pass  4 Test12= 3.98D-14 2.56D-09 XBig12= 1.71D-03 6.22D-03.
     36 vectors produced by pass  5 Test12= 3.98D-14 2.56D-09 XBig12= 1.88D-05 7.46D-04.
     36 vectors produced by pass  6 Test12= 3.98D-14 2.56D-09 XBig12= 1.39D-07 4.61D-05.
     20 vectors produced by pass  7 Test12= 3.98D-14 2.56D-09 XBig12= 8.40D-10 2.78D-06.
      6 vectors produced by pass  8 Test12= 3.98D-14 2.56D-09 XBig12= 4.54D-12 2.15D-07.
      2 vectors produced by pass  9 Test12= 3.98D-14 2.56D-09 XBig12= 2.18D-14 1.85D-08.
 InvSVY:  IOpt=1 It=  1 EMax= 6.22D-15
 Solved reduced A of dimension   280 with    39 vectors.
 FullF1:  Do perturbations      1 to       3.
 Isotropic polarizability for W=    0.000000       70.98 Bohr**3.
 End of Minotr F.D. properties file   721 does not exist.
 End of Minotr F.D. properties file   722 does not exist.
 End of Minotr F.D. properties file   788 does not exist.
 Leave Link 1002 at Sat May 24 08:14:53 2025, MaxMem=  3758096384 cpu:             735.6 elap:              93.6
 (Enter /apps/easybuild-2022/easybuild/software/Compiler/NVHPC/22.11-CUDA-11.7.0/Gaussian/g16c01-CUDA-11.7.0/g16/l701.exe)
 ... and contract with generalized density number  0.
 Compute integral second derivatives.
   1 Symmetry operations used in ECPInt.
 ECPInt:  NShTT=    8515 NPrTT=   27988 LenC2=    7934 LenP2D=   19104.
 LDataN:  DoStor=T MaxTD1= 8 Len=  415
 Leave Link  701 at Sat May 24 08:14:53 2025, MaxMem=  3758096384 cpu:               1.1 elap:               0.3
 (Enter /apps/easybuild-2022/easybuild/software/Compiler/NVHPC/22.11-CUDA-11.7.0/Gaussian/g16c01-CUDA-11.7.0/g16/l702.exe)
 L702 exits ... SP integral derivatives will be done elsewhere.
 Leave Link  702 at Sat May 24 08:14:53 2025, MaxMem=  3758096384 cpu:               0.1 elap:               0.0
 (Enter /apps/easybuild-2022/easybuild/software/Compiler/NVHPC/22.11-CUDA-11.7.0/Gaussian/g16c01-CUDA-11.7.0/g16/l703.exe)
 Integral derivatives from FoFJK, PRISM(SPDF).
 Compute integral second derivatives, UseDBF=F ICtDFT=           0.
 Calling FoFJK, ICntrl=    100127 FMM=F ISym2X=0 I1Cent= 0 IOpClX= 0 NMat=1 NMatS=1 NMatT=0.
 FoFJK:  IHMeth= 1 ICntrl=  100127 DoSepK=F KAlg= 0 I1Cent=           0 FoldK=F
 IRaf=         0 NMat=       1 IRICut=       1 DoRegI=T DoRafI=F ISym2E= 0 IDoP0=0 IntGTp=1.
 FoFCou: FMM=F IPFlag=           0 FMFlag=      100000 FMFlg1=         800
         NFxFlg=           0 DoJE=F BraDBF=F KetDBF=F FulRan=T
         wScrn=  0.000000 ICntrl=    100127 IOpCl=  0 I1Cent=           0 NGrid=           0
         NMat0=    1 NMatS0=      1 NMatT0=    0 NMatD0=    1 NMtDS0=    0 NMtDT0=    0
 Symmetry not used in FoFCou.
 Leave Link  703 at Sat May 24 08:16:44 2025, MaxMem=  3758096384 cpu:             870.6 elap:             111.0
 (Enter /apps/easybuild-2022/easybuild/software/Compiler/NVHPC/22.11-CUDA-11.7.0/Gaussian/g16c01-CUDA-11.7.0/g16/l716.exe)
 Dipole        = 9.76874718D-01 7.07500370D-01-7.36106699D-01
 Polarizability= 8.01833595D+01-8.80626886D+00 7.99805605D+01
                -7.20172327D+00 5.22629894D+00 5.27893786D+01
 -------------------------------------------------------------------
 Center     Atomic                   Forces (Hartrees/Bohr)
 Number     Number              X              Y              Z
 -------------------------------------------------------------------
      1        6          -0.002618354   -0.012338889   -0.024916814
      2        6           0.000831615    0.000245926   -0.010191762
      3        9           0.002518023    0.009511345   -0.001700569
      4        9           0.001358687    0.006300343    0.001444287
      5       16           0.025678587    0.028425520   -0.028265486
      6        8          -0.017725905   -0.018592864    0.013546403
      7        8           0.004164832   -0.006690939    0.022793450
      8        8          -0.018710741   -0.022421941   -0.016071431
      9        9          -0.005965301    0.015245391   -0.001448989
     10        9           0.009186446    0.005711649    0.009602097
     11        9          -0.003359282   -0.000244651    0.019380567
     12        1           0.004641393   -0.005150891    0.015828245
 -------------------------------------------------------------------
 Cartesian Forces:  Max     0.028425520 RMS     0.013939658
 Force constants in Cartesian coordinates: 
                1             2             3             4             5 
      1  0.504897D+00
      2  0.146924D-01  0.577197D+00
      3  0.182609D-01 -0.341768D-02  0.593446D+00
      4 -0.441817D-01  0.525107D-02  0.274265D-03  0.789488D-01
      5 -0.178089D-01 -0.128236D+00 -0.567108D-01  0.430375D-02  0.536579D+00
      6 -0.489927D-02 -0.706191D-01 -0.134553D+00 -0.191290D-01 -0.189002D-01
      7 -0.283103D-02 -0.178643D-01 -0.187193D-01 -0.202248D-01 -0.226820D-01
      8 -0.784268D-02 -0.301662D-01 -0.305210D-01 -0.185019D-01 -0.596599D-01
      9 -0.629911D-03 -0.350240D-04 -0.200873D-02  0.103237D-02 -0.317741D-02
     10  0.435260D-02 -0.277702D-02 -0.107991D-02 -0.128327D-01 -0.124304D-01
     11  0.191073D-02  0.719163D-02 -0.456586D-02 -0.513573D-02 -0.124650D+00
     12 -0.449380D-02  0.232106D-01 -0.463578D-01  0.157820D-01  0.119357D+00
     13 -0.281004D-02 -0.325358D-01 -0.294818D-01 -0.365841D-01 -0.642420D-01
     14  0.166532D-01  0.119764D-01  0.839055D-02  0.150477D-01 -0.167717D+00
     15  0.476114D-02 -0.805969D-02  0.477871D-01  0.777353D-02  0.166257D-01
     16  0.426115D-02  0.379706D-01  0.378956D-01  0.256231D-01  0.688742D-01
     17  0.945578D-02  0.156457D-01  0.223618D-01  0.161489D-01  0.159976D-01
     18 -0.336566D-02 -0.675453D-02 -0.956125D-02 -0.248404D-02 -0.155645D-01
     19  0.723079D-04  0.779476D-02  0.906139D-02  0.753079D-02  0.231261D-01
     20 -0.823557D-02 -0.488555D-02  0.509665D-02 -0.144043D-01 -0.302235D-01
     21 -0.728125D-03  0.111565D-02 -0.508547D-02 -0.535873D-02 -0.536900D-02
     22 -0.414347D-02  0.353087D-02  0.479742D-02 -0.185552D-03  0.103606D-01
     23 -0.126975D-02  0.201281D-02 -0.199606D-02 -0.128803D-02 -0.222978D-02
     24  0.172174D-02 -0.115904D-02 -0.181636D-01 -0.362462D-03 -0.751697D-02
     25 -0.118548D+00  0.325161D-01 -0.902081D-01  0.401841D-02  0.707173D-02
     26  0.326982D-01 -0.101767D+00  0.565367D-01 -0.381303D-02  0.132822D-01
     27 -0.918211D-01  0.627250D-01 -0.245842D+00 -0.153903D-01  0.149050D-01
     28 -0.220871D+00  0.472843D-01  0.574602D-01 -0.603683D-02  0.162382D-01
     29  0.574454D-01 -0.908078D-01 -0.216133D-01  0.200246D-01 -0.848112D-02
     30  0.686713D-01 -0.218561D-01 -0.991225D-01  0.247883D-01 -0.219771D-01
     31 -0.121766D+00 -0.946359D-01  0.131220D-01  0.391711D-02 -0.117167D-01
     32 -0.964601D-01 -0.256855D+00  0.256032D-01 -0.166754D-01 -0.463756D-01
     33  0.134342D-01  0.232731D-01 -0.825116D-01 -0.694276D-02 -0.206091D-01
     34  0.156774D-02 -0.122712D-02 -0.138264D-02  0.742910D-05 -0.109456D-02
     35 -0.123861D-02 -0.130646D-02  0.835769D-03 -0.957581D-03  0.171371D-02
     36 -0.911334D-03  0.157681D-02  0.197291D-02  0.168771D-04 -0.106295D-02
                6             7             8             9            10 
      6  0.591178D+00
      7  0.307619D-01  0.521086D-01
      8  0.543242D-01 -0.566209D-02 -0.379872D-01
      9 -0.116521D-03 -0.749543D-02 -0.592808D-02  0.775502D-02
     10  0.240664D-01  0.621368D-03  0.994594D-02 -0.252741D-02  0.115970D-01
     11  0.143354D+00  0.114244D-01  0.199190D-01  0.114691D-02  0.876196D-02
     12 -0.335967D+00 -0.243999D-01 -0.427206D-01 -0.628108D-03 -0.153201D-01
     13  0.502936D-01 -0.100243D+00 -0.129577D+00 -0.472928D-03  0.174540D-02
     14 -0.651626D-01  0.736856D-01  0.167592D+00  0.962887D-02 -0.252005D-02
     15 -0.940469D-01  0.280097D-01  0.481342D-01 -0.105540D-02 -0.253281D-02
     16 -0.629801D-01  0.457094D-01  0.105241D+00  0.740980D-02 -0.803986D-02
     17 -0.378492D-01 -0.282525D-01 -0.357899D-01 -0.113433D-03 -0.583652D-02
     18  0.206053D-01 -0.165676D-01 -0.343769D-01 -0.574515D-02  0.535285D-02
     19 -0.180749D-01  0.142048D-01  0.284666D-01 -0.670329D-03 -0.166968D-02
     20 -0.111242D-01 -0.151166D-01 -0.306344D-01 -0.901769D-03  0.214318D-02
     21  0.871440D-02 -0.410994D-02 -0.816948D-02  0.149822D-02 -0.120339D-02
     22  0.142576D-02  0.736366D-02  0.120553D-01  0.174732D-02  0.578812D-02
     23  0.289669D-01 -0.656035D-02 -0.110550D-01  0.221913D-03 -0.164293D-02
     24 -0.347688D-02 -0.149189D-02 -0.372845D-02 -0.543822D-03 -0.110857D-02
     25 -0.104511D-01  0.215517D-02  0.383309D-02  0.978441D-03 -0.137723D-03
     26 -0.660244D-02  0.336598D-03  0.624951D-03 -0.419920D-03 -0.674260D-03
     27 -0.385513D-01  0.811579D-02  0.129499D-01  0.802418D-03 -0.402358D-02
     28  0.132244D-01 -0.925523D-03 -0.161849D-02  0.373641D-03 -0.892490D-03
     29 -0.188971D-01  0.468398D-02  0.819052D-02  0.143817D-04  0.109789D-02
     30 -0.143228D-01  0.489284D-02  0.869806D-02  0.115184D-03 -0.175926D-02
     31  0.619869D-03  0.186066D-02  0.342027D-02  0.140775D-03 -0.228009D-03
     32 -0.548892D-03  0.603936D-02  0.898543D-02  0.149274D-03  0.282542D-02
     33  0.233969D-02  0.191962D-02  0.260843D-02  0.378365D-03  0.220969D-03
     34 -0.485770D-02  0.200196D-03  0.239521D-03  0.113664D-03 -0.304019D-03
     35  0.305877D-02 -0.320592D-04 -0.192947D-04 -0.585715D-03  0.110675D-02
     36 -0.180337D-02 -0.915876D-03 -0.127038D-02 -0.451478D-03 -0.852341D-04
               11            12            13            14            15 
     11  0.139114D+00
     12 -0.166199D+00  0.393834D+00
     13  0.175445D-01 -0.448832D-01  0.778467D+00
     14 -0.337652D-01  0.606206D-01  0.333645D+00  0.460180D+00
     15  0.315638D-01 -0.475421D-02  0.136102D+00  0.131065D-01  0.655557D+00
     16 -0.236984D-01  0.535928D-01 -0.180444D+00 -0.972862D-01  0.344684D-01
     17 -0.921467D-02  0.215060D-01  0.182431D+00 -0.169415D+00 -0.538418D-01
     18  0.105054D-02 -0.821595D-02  0.661584D-01  0.108035D-01 -0.715090D-01
     19 -0.625950D-02  0.123683D-01 -0.400003D+00 -0.290871D+00 -0.221198D+00
     20  0.403912D-02 -0.703747D-02 -0.292325D+00 -0.184475D+00 -0.126138D+00
     21 -0.307431D-02  0.203174D-02 -0.213174D+00 -0.107249D+00 -0.198244D+00
     22 -0.522184D-02  0.466002D-02 -0.580007D-01 -0.517494D-01  0.174245D-01
     23 -0.603145D-02 -0.158710D-02 -0.281308D-01 -0.678566D-01  0.760944D-01
     24  0.621470D-02 -0.303040D-02 -0.149491D-01  0.575934D-01 -0.278301D+00
     25 -0.245621D-02 -0.383802D-03  0.124683D-02 -0.345699D-02 -0.357634D-02
     26 -0.310382D-03 -0.482877D-02  0.140087D-02 -0.261157D-02  0.747140D-02
     27 -0.599523D-02 -0.442124D-02  0.124048D-01 -0.719469D-02 -0.160742D-01
     28 -0.354085D-03  0.308904D-02 -0.687055D-02 -0.275883D-02  0.350494D-02
     29 -0.465368D-05 -0.278410D-02  0.101960D-01 -0.465207D-02 -0.485012D-02
     30  0.795751D-04  0.236112D-02  0.130705D-01 -0.370927D-02 -0.106410D-01
     31  0.879334D-03  0.608455D-03  0.884896D-03 -0.252988D-02 -0.196722D-02
     32  0.443858D-02  0.965821D-03  0.202300D-02 -0.162471D-03 -0.629463D-02
     33 -0.334772D-02  0.457020D-02  0.557037D-03  0.990111D-03 -0.748966D-02
     34  0.260484D-02 -0.619949D-03  0.261031D-02  0.121402D-01 -0.277008D-02
     35 -0.726278D-03 -0.503364D-03 -0.430992D-03 -0.909399D-02  0.618782D-02
     36 -0.227184D-03  0.577661D-03  0.243750D-01  0.221815D-01 -0.212293D-01
               16            17            18            19            20 
     16  0.227689D+00
     17 -0.141245D+00  0.158841D+00
     18 -0.908033D-01  0.655519D-01  0.912503D-01
     19 -0.765827D-01 -0.261708D-01 -0.402585D-02  0.458401D+00
     20  0.503355D-01  0.199517D-01 -0.143414D-01  0.274557D+00  0.216588D+00
     21  0.244182D-01 -0.451788D-02  0.842812D-02  0.243232D+00  0.156284D+00
     22 -0.343180D-01 -0.339537D-02  0.440739D-01  0.391537D-03  0.295602D-02
     23  0.148328D-01  0.150115D-01 -0.246884D-02 -0.258933D-02  0.131134D-01
     24  0.235331D-01  0.352668D-02 -0.295547D-01 -0.112899D-01  0.260522D-02
     25 -0.414028D-02 -0.237117D-02  0.755328D-03 -0.274847D-03  0.481953D-03
     26 -0.225427D-03 -0.424570D-04 -0.373671D-03 -0.845905D-03  0.811141D-03
     27 -0.170849D-01 -0.743861D-02  0.403155D-02 -0.273392D-02  0.356798D-03
     28  0.240821D-02  0.289674D-02 -0.858001D-03  0.220181D-02  0.101408D-02
     29 -0.998411D-02 -0.592541D-02  0.232898D-02 -0.265867D-02  0.113410D-02
     30 -0.105780D-01 -0.765325D-02  0.310091D-02 -0.318144D-02  0.942743D-03
     31 -0.297335D-02 -0.220870D-02  0.637955D-03 -0.649461D-03 -0.829228D-05
     32 -0.102015D-01 -0.467397D-02  0.153980D-02 -0.238884D-02 -0.338725D-02
     33 -0.343507D-02 -0.163209D-02  0.826516D-03 -0.846270D-03 -0.203154D-02
     34  0.807040D-03 -0.145282D-02  0.112606D-02 -0.362335D-02 -0.139763D-02
     35  0.538654D-02 -0.386279D-03 -0.739478D-02 -0.216055D-02 -0.203218D-02
     36  0.356355D-02  0.999015D-04 -0.365660D-02 -0.264125D-02 -0.371138D-02
               21            22            23            24            25 
     21  0.215960D+00
     22 -0.414392D-01  0.362541D+00
     23 -0.227865D-01  0.250385D+00  0.220294D+00
     24 -0.427519D-01 -0.136270D+00 -0.170126D+00  0.439433D+00
     25  0.659472D-03  0.523477D-03 -0.205956D-02  0.294535D-03  0.166614D+00
     26 -0.152223D-02 -0.278777D-02 -0.985063D-02 -0.538523D-02 -0.727899D-01
     27  0.223455D-02 -0.227761D-02 -0.140254D-02  0.717727D-02  0.135333D+00
     28  0.205511D-03  0.155456D-02  0.111396D-02 -0.168559D-02 -0.708382D-01
     29  0.222660D-04 -0.989449D-03 -0.199597D-03  0.148679D-02  0.425567D-01
     30  0.812874D-03 -0.141608D-02 -0.268351D-03  0.380109D-02 -0.422139D-01
     31  0.766937D-04  0.147070D-03 -0.632968D-04 -0.559051D-04  0.195128D-01
     32 -0.710855D-04 -0.950789D-03 -0.543761D-03  0.160882D-02 -0.339634D-02
     33  0.924008D-03 -0.640012D-03  0.272874D-03  0.308104D-02  0.880120D-02
     34 -0.257801D-02 -0.281662D+00 -0.222728D+00  0.141664D+00 -0.131458D-03
     35 -0.466287D-02 -0.214193D+00 -0.152665D+00  0.114880D+00  0.705556D-04
     36  0.547671D-02  0.107914D+00  0.950793D-01 -0.776708D-01  0.115681D-04
               26            27            28            29            30 
     26  0.156834D+00
     27 -0.129283D+00  0.309441D+00
     28  0.388592D-01 -0.228425D-01  0.373068D+00
     29 -0.353440D-02  0.973173D-02 -0.732082D-01  0.995691D-01
     30  0.185228D-01  0.100179D-01 -0.847452D-01  0.163585D-01  0.100592D+00
     31  0.751931D-02 -0.333839D-04 -0.719187D-01 -0.494593D-01  0.319104D-01
     32 -0.533334D-01  0.512383D-01 -0.297657D-01  0.442606D-02  0.110442D-01
     33  0.667497D-01 -0.280109D-01  0.316981D-01  0.185672D-01  0.390190D-02
     34  0.322173D-03  0.354099D-03 -0.878784D-03  0.295088D-03  0.560597D-03
     35 -0.102740D-03 -0.592839D-03  0.298886D-03  0.285235D-03 -0.181880D-03
     36 -0.865506D-03 -0.805768D-03  0.575466D-03 -0.365195D-03 -0.616645D-03
               31            32            33            34            35 
     31  0.171326D+00
     32  0.148529D+00  0.346982D+00
     33 -0.450353D-01 -0.846436D-01  0.102327D+00
     34 -0.113054D-03  0.421966D-03  0.268322D-03  0.281520D+00
     35  0.274193D-03  0.499624D-03 -0.197350D-03  0.211876D+00  0.163833D+00
     36 -0.242529D-04 -0.591327D-03 -0.336629D-03 -0.131878D+00 -0.110844D+00
               36 
     36  0.985433D-01
 FormGI is forming the generalized inverse of G from B-inverse, IUseBI=4.
 Leave Link  716 at Sat May 24 08:16:44 2025, MaxMem=  3758096384 cpu:               0.1 elap:               0.0
 (Enter /apps/easybuild-2022/easybuild/software/Compiler/NVHPC/22.11-CUDA-11.7.0/Gaussian/g16c01-CUDA-11.7.0/g16/l103.exe)

 GradGradGradGradGradGradGradGradGradGradGradGradGradGradGradGradGradGrad
 Berny optimization.
 Red2BG is reusing G-inverse.
 Internal  Forces:  Max     0.029238446 RMS     0.011763388
 Search for a saddle point.
 Step number   1 out of a maximum of  100
 All quantities printed in internal units (Hartrees-Bohrs-Radians)
 Swapping is turned off.
 Second derivative matrix not updated -- analytic derivatives used.
 ITU=  0
     Eigenvalues ---   -0.22673  -0.00218  -0.00176   0.00129   0.00568
     Eigenvalues ---    0.02045   0.07323   0.08660   0.10471   0.12544
     Eigenvalues ---    0.12981   0.14144   0.16164   0.17332   0.18730
     Eigenvalues ---    0.23479   0.23860   0.24757   0.26744   0.31524
     Eigenvalues ---    0.34893   0.39359   0.40640   0.42020   0.44025
     Eigenvalues ---    0.49456   0.51487   0.53081   0.62201   0.79058
 Eigenvectors required to have negative eigenvalues:
                          R7        R8        A13       A16       R6
   1                    0.74321  -0.31595   0.27409  -0.24014   0.21488
                          A10       D17       D18       A11       R5
   1                   -0.19670   0.17555  -0.16323  -0.12305  -0.11554
 Eigenvalue     2 is  -2.18D-03 should be greater than     0.000000 Eigenvector:
                          D7        D3        D9        D1        D5
   1                   -0.36033  -0.33573  -0.33287  -0.33099  -0.32423
                          D8        D13       D14       D15       D10
   1                   -0.30956   0.22274   0.20476   0.20137  -0.18852
 Eigenvalue     3 is  -1.76D-03 should be greater than     0.000000 Eigenvector:
                          D2        D4        D6        D7        D8
   1                   -0.40277  -0.39515  -0.38917   0.26886   0.26319
                          D9        D1        D3        D5        D16
   1                    0.25797  -0.25015  -0.24252  -0.23654  -0.15501
 RFO step:  Lambda0=1.441979603D-04 Lambda=-2.53818453D-02.
 Linear search not attempted -- option 19 set.
 Maximum step size (   0.300) exceeded in Quadratic search.
    -- Step size scaled by   0.938
 Iteration  1 RMS(Cart)=  0.16234695 RMS(Int)=  0.04692637
 Iteration  2 RMS(Cart)=  0.08567760 RMS(Int)=  0.00296974
 Iteration  3 RMS(Cart)=  0.00319880 RMS(Int)=  0.00174942
 Iteration  4 RMS(Cart)=  0.00000527 RMS(Int)=  0.00174942
 Iteration  5 RMS(Cart)=  0.00000001 RMS(Int)=  0.00174942
 ITry= 1 IFail=0 DXMaxC= 5.99D-01 DCOld= 1.00D+10 DXMaxT= 3.00D-01 DXLimC= 3.00D+00 Rises=F
 Variable       Old X    -DE/DX   Delta X   Delta X   Delta X     New X
                                 (Linear)    (Quad)   (Total)
    R1        2.85382  -0.00717   0.00000   0.00083   0.00083   2.85465
    R2        2.50057   0.00966   0.00000   0.00313   0.00313   2.50370
    R3        2.53457   0.00377   0.00000  -0.00588  -0.00588   2.52869
    R4        2.50238   0.00551   0.00000  -0.00086  -0.00086   2.50152
    R5        2.49041  -0.00156   0.00000  -0.00176  -0.00176   2.48865
    R6        3.16731  -0.01517   0.00000  -0.01970  -0.01970   3.14761
    R7        3.26847  -0.00913   0.00000  -0.03043  -0.03043   3.23804
    R8        2.81587   0.01321   0.00000   0.01281   0.01281   2.82868
    R9        2.66939   0.00928   0.00000   0.00073   0.00073   2.67012
   R10        2.93350  -0.00692   0.00000  -0.00020  -0.00020   2.93330
   R11        1.83217  -0.00555   0.00000  -0.00103  -0.00103   1.83114
    A1        1.99201  -0.01118   0.00000  -0.02122  -0.02163   1.97037
    A2        1.96956  -0.01512   0.00000  -0.03625  -0.03710   1.93246
    A3        1.98103  -0.02391   0.00000  -0.06366  -0.06469   1.91634
    A4        1.83029   0.01706   0.00000   0.04087   0.04063   1.87091
    A5        1.84181   0.02157   0.00000   0.05470   0.05416   1.89597
    A6        1.83414   0.01841   0.00000   0.04197   0.04054   1.87468
    A7        2.00939   0.00514   0.00000   0.01740   0.01147   2.02086
    A8        2.19861   0.00480   0.00000   0.00625   0.00118   2.19979
    A9        2.06883  -0.01000   0.00000  -0.04354  -0.04808   2.02075
   A10        1.98720  -0.00822   0.00000  -0.01346  -0.01365   1.97355
   A11        2.06136  -0.00716   0.00000  -0.07604  -0.07530   1.98605
   A12        1.86061  -0.02127   0.00000  -0.05099  -0.05078   1.80983
   A13        1.90707   0.00259   0.00000   0.04102   0.03812   1.94519
   A14        1.78205   0.01593   0.00000   0.02214   0.02065   1.80270
   A15        1.83649   0.02362   0.00000   0.09794   0.09592   1.93241
   A16        1.77593   0.00959   0.00000   0.02281   0.02281   1.79874
   A17        2.12573  -0.02924   0.00000  -0.21316  -0.21316   1.91257
    D1        2.57170  -0.00132   0.00000  -0.12801  -0.12912   2.44258
    D2       -0.44651  -0.00004   0.00000   0.06734   0.06868  -0.37784
    D3       -1.62416   0.00156   0.00000  -0.11704  -0.11875  -1.74290
    D4        1.64082   0.00284   0.00000   0.07831   0.07905   1.71987
    D5        0.46019  -0.00287   0.00000  -0.13511  -0.13596   0.32423
    D6       -2.55802  -0.00159   0.00000   0.06024   0.06183  -2.49619
    D7        1.85756   0.00267   0.00000  -0.38955  -0.38811   1.46945
    D8       -2.15347  -0.00956   0.00000  -0.41948  -0.41782  -2.57129
    D9       -0.09348   0.00028   0.00000  -0.37909  -0.37717  -0.47064
   D10       -1.15687   0.00298   0.00000  -0.19221  -0.19412  -1.35099
   D11        1.11529  -0.00925   0.00000  -0.22214  -0.22383   0.89146
   D12       -3.10790   0.00060   0.00000  -0.18175  -0.18318   2.99211
   D13       -0.25901  -0.00167   0.00000   0.10880   0.10854  -0.15047
   D14       -2.60562   0.01368   0.00000   0.19059   0.19174  -2.41388
   D15        1.73910  -0.02101   0.00000   0.05580   0.05491   1.79401
   D16       -2.09587   0.00060   0.00000   0.15571   0.15660  -1.93927
   D17        2.09796   0.01128   0.00000   0.18179   0.18352   2.28148
   D18        0.10679  -0.00625   0.00000   0.09319   0.09057   0.19736
         Item               Value     Threshold  Converged?
 Maximum Force            0.029238     0.000450     NO 
 RMS     Force            0.011763     0.000300     NO 
 Maximum Displacement     0.598868     0.001800     NO 
 RMS     Displacement     0.232263     0.001200     NO 
 Predicted change in Energy=-1.619549D-02
 Lowest energy point so far.  Saving SCF results.
 GradGradGradGradGradGradGradGradGradGradGradGradGradGradGradGradGradGrad

 Leave Link  103 at Sat May 24 08:16:44 2025, MaxMem=  3758096384 cpu:               0.1 elap:               0.0
 (Enter /apps/easybuild-2022/easybuild/software/Compiler/NVHPC/22.11-CUDA-11.7.0/Gaussian/g16c01-CUDA-11.7.0/g16/l202.exe)
                          Input orientation:                          
 ---------------------------------------------------------------------
 Center     Atomic      Atomic             Coordinates (Angstroms)
 Number     Number       Type             X           Y           Z
 ---------------------------------------------------------------------
      1          6           0        1.894185   -1.013957   -1.196324
      2          6           0        2.161465   -0.049298   -0.064972
      3          9           0       -0.305963    0.559987    0.165560
      4          9           0        2.216575   -0.579671    1.139182
      5         16           0        1.966559    1.603983   -0.120145
      6          8           0        0.560227    2.038368    0.152178
      7          8           0        2.890588    2.313875    0.679042
      8          8           0        2.161583    1.947141   -1.621361
      9          9           0        1.067065   -0.523199   -2.107582
     10          9           0        3.031436   -1.332940   -1.825197
     11          9           0        1.378577   -2.135086   -0.717236
     12          1           0        2.987787    2.440023   -1.737163
 ---------------------------------------------------------------------
                    Distance matrix (angstroms):
                    1          2          3          4          5
     1  C    0.000000
     2  C    1.510617   0.000000
     3  F    3.028643   2.551974   0.000000
     4  F    2.397317   1.316937   2.934274   0.000000
     5  S    2.831433   1.665644   2.517124   2.533132   0.000000
     6  O    3.593688   2.639975   1.713498   3.251430   1.496871
     7  O    3.947694   2.582589   3.682082   3.006432   1.412967
     8  O    3.003375   2.531425   3.347547   3.742780   1.552237
     9  F    1.324901   2.365280   2.868044   3.444713   3.046950
    10  F    1.338123   2.345843   4.322560   3.165274   3.559028
    11  F    1.323748   2.321395   3.298549   2.562782   3.831825
    12  H    3.663120   3.110586   4.243074   4.241071   2.087251
                    6          7          8          9         10
     6  O    0.000000
     7  O    2.405010   0.000000
     8  O    2.391256   2.440860   0.000000
     9  F    3.453263   4.374872   2.745353   0.000000
    10  F    4.624133   4.426095   3.399577   2.143403   0.000000
    11  F    4.340887   4.901942   4.253836   2.151344   2.145451
    12  H    3.102255   2.421448   0.968997   3.550643   3.774242
                   11         12
    11  F    0.000000
    12  H    4.955949   0.000000
 Symmetry turned off by external request.
 Stoichiometry    C2HF5O3S
 Rotational constants (GHZ):           1.4641793           0.8057499           0.7698522
 Leave Link  202 at Sat May 24 08:16:44 2025, MaxMem=  3758096384 cpu:               0.1 elap:               0.0
 (Enter /apps/easybuild-2022/easybuild/software/Compiler/NVHPC/22.11-CUDA-11.7.0/Gaussian/g16c01-CUDA-11.7.0/g16/l301.exe)
 Standard basis: def2TZVPP (5D, 7F)
 Ernie: Thresh=  0.10000D-02 Tol=  0.10000D-05 Strict=F.
   366 basis functions,   596 primitive gaussians,   423 cartesian basis functions
    49 alpha electrons       49 beta electrons
       nuclear repulsion energy       913.4713009142 Hartrees.
 IExCor= 4336 DFT=T Ex+Corr=M062X ExCW=0 ScaHFX=  0.540000
 ScaDFX=  1.000000  1.000000  1.000000  1.000000 ScalE2=  1.000000  1.000000
 IRadAn=      5 IRanWt=     -1 IRanGd=            0 ICorTp=0 IEmpDi=  4
 NAtoms=   12 NActive=   12 NUniq=   12 SFac= 1.00D+00 NAtFMM=   60 NAOKFM=F Big=F
 Integral buffers will be    131072 words long.
 Raffenetti 2 integral format.
 Two-electron integral symmetry is turned off.
 Leave Link  301 at Sat May 24 08:16:44 2025, MaxMem=  3758096384 cpu:               0.1 elap:               0.0
 (Enter /apps/easybuild-2022/easybuild/software/Compiler/NVHPC/22.11-CUDA-11.7.0/Gaussian/g16c01-CUDA-11.7.0/g16/l302.exe)
 NPDir=0 NMtPBC=     1 NCelOv=     1 NCel=       1 NClECP=     1 NCelD=      1
         NCelK=      1 NCelE2=     1 NClLst=     1 CellRange=     0.0.
 One-electron integrals computed using PRISM.
   1 Symmetry operations used in ECPInt.
 ECPInt:  NShTT=    8515 NPrTT=   27988 LenC2=    7981 LenP2D=   19275.
 LDataN:  DoStor=T MaxTD1= 6 Len=  172
 NBasis=   366 RedAO= T EigKep=  3.78D-04  NBF=   366
 NBsUse=   366 1.00D-06 EigRej= -1.00D+00 NBFU=   366
 Precomputing XC quadrature grid using
 IXCGrd= 4 IRadAn=           5 IRanWt=          -1 IRanGd=           0 AccXCQ= 0.00D+00.
 Generated NRdTot=       0 NPtTot=           0 NUsed=           0 NTot=          32
 NSgBfM=   420   420   420   420   420 MxSgAt=    12 MxSgA2=    12.
 Leave Link  302 at Sat May 24 08:16:44 2025, MaxMem=  3758096384 cpu:               0.9 elap:               0.2
 (Enter /apps/easybuild-2022/easybuild/software/Compiler/NVHPC/22.11-CUDA-11.7.0/Gaussian/g16c01-CUDA-11.7.0/g16/l303.exe)
 DipDrv:  MaxL=1.
 Leave Link  303 at Sat May 24 08:16:44 2025, MaxMem=  3758096384 cpu:               0.1 elap:               0.1
 (Enter /apps/easybuild-2022/easybuild/software/Compiler/NVHPC/22.11-CUDA-11.7.0/Gaussian/g16c01-CUDA-11.7.0/g16/l401.exe)
 Initial guess from the checkpoint file:  "/tmp/Gau-140199.chk"
 B after Tr=     0.004937   -0.047665    0.086841
         Rot=    0.999782    0.005940   -0.016989   -0.010629 Ang=   2.40 deg.
 Guess basis will be translated and rotated to current coordinates.
 JPrj=2 DoOrth=T DoCkMO=T.
 Generating alternative initial guess.
 ExpMin= 9.52D-02 ExpMax= 6.07D+04 ExpMxC= 2.07D+03 IAcc=3 IRadAn=         5 AccDes= 0.00D+00
 Harris functional with IExCor= 1009 and IRadAn=       5 diagonalized for initial guess.
 HarFok:  IExCor= 1009 AccDes= 0.00D+00 IRadAn=         5 IDoV= 1 UseB2=F ITyADJ=14
 ICtDFT=  3500011 ScaDFX=  1.000000  1.000000  1.000000  1.000000
 FoFCou: FMM=F IPFlag=           0 FMFlag=      100000 FMFlg1=           0
         NFxFlg=           0 DoJE=T BraDBF=F KetDBF=T FulRan=T
         wScrn=  0.000000 ICntrl=       500 IOpCl=  0 I1Cent=   200000004 NGrid=           0
         NMat0=    1 NMatS0=      1 NMatT0=    0 NMatD0=    1 NMtDS0=    0 NMtDT0=    0
 Symmetry not used in FoFCou.
 Harris En= -1199.16768792239    
 Leave Link  401 at Sat May 24 08:16:45 2025, MaxMem=  3758096384 cpu:               4.0 elap:               0.6
 (Enter /apps/easybuild-2022/easybuild/software/Compiler/NVHPC/22.11-CUDA-11.7.0/Gaussian/g16c01-CUDA-11.7.0/g16/l502.exe)
 Keep R1 ints in memory in canonical form, NReq=2293446996.
 FoFCou: FMM=F IPFlag=           0 FMFlag=           0 FMFlg1=           0
         NFxFlg=           0 DoJE=F BraDBF=F KetDBF=F FulRan=T
         wScrn=  0.000000 ICntrl=       600 IOpCl=  0 I1Cent=           0 NGrid=           0
         NMat0=    1 NMatS0=  67161 NMatT0=    0 NMatD0=    1 NMtDS0=    0 NMtDT0=    0
 Symmetry not used in FoFCou.
 Two-electron integral symmetry not used.
 Closed shell SCF:
 Using DIIS extrapolation, IDIIS=  1040.
 NGot=  3758096384 LenX=  1502398672 LenY=  1502219302
 Requested convergence on RMS density matrix=1.00D-08 within  32 cycles.
 Requested convergence on MAX density matrix=1.00D-06.
 Requested convergence on             energy=1.00D-06.
 No special actions if energy rises.
 Integral accuracy reduced to 1.0D-05 until final iterations.

 Cycle   1  Pass 0  IDiag  1:
 E= -1199.55727613098    
 DIIS: error= 9.55D-03 at cycle   1 NSaved=   1.
 NSaved= 1 IEnMin= 1 EnMin= -1199.55727613098     IErMin= 1 ErrMin= 9.55D-03
 ErrMax= 9.55D-03  0.00D+00 EMaxC= 1.00D-01 BMatC= 9.74D-02 BMatP= 9.74D-02
 IDIUse=3 WtCom= 9.05D-01 WtEn= 9.55D-02
 Coeff-Com:  0.100D+01
 Coeff-En:   0.100D+01
 Coeff:      0.100D+01
 Gap=     0.947 Goal=   None    Shift=    0.000
 GapD=    0.947 DampG=2.000 DampE=1.000 DampFc=2.0000 IDamp=-1.
 RMSDP=9.36D-04 MaxDP=3.32D-02              OVMax= 5.77D-02

 Cycle   2  Pass 0  IDiag  1:
 E= -1199.66670014558     Delta-E=       -0.109424014597 Rises=F Damp=F
 DIIS: error= 1.72D-03 at cycle   2 NSaved=   2.
 NSaved= 2 IEnMin= 2 EnMin= -1199.66670014558     IErMin= 2 ErrMin= 1.72D-03
 ErrMax= 1.72D-03  0.00D+00 EMaxC= 1.00D-01 BMatC= 3.34D-03 BMatP= 9.74D-02
 IDIUse=3 WtCom= 9.83D-01 WtEn= 1.72D-02
 Coeff-Com: -0.983D-01 0.110D+01
 Coeff-En:   0.000D+00 0.100D+01
 Coeff:     -0.966D-01 0.110D+01
 Gap=     0.142 Goal=   None    Shift=    0.000
 RMSDP=2.46D-04 MaxDP=1.57D-02 DE=-1.09D-01 OVMax= 4.02D-02

 Cycle   3  Pass 0  IDiag  1:
 E= -1199.66977867006     Delta-E=       -0.003078524483 Rises=F Damp=F
 DIIS: error= 1.68D-03 at cycle   3 NSaved=   3.
 NSaved= 3 IEnMin= 3 EnMin= -1199.66977867006     IErMin= 3 ErrMin= 1.68D-03
 ErrMax= 1.68D-03  0.00D+00 EMaxC= 1.00D-01 BMatC= 3.66D-03 BMatP= 3.34D-03
 IDIUse=3 WtCom= 9.83D-01 WtEn= 1.68D-02
 Coeff-Com: -0.795D-01 0.623D+00 0.457D+00
 Coeff-En:   0.000D+00 0.000D+00 0.100D+01
 Coeff:     -0.782D-01 0.612D+00 0.466D+00
 Gap=     0.150 Goal=   None    Shift=    0.000
 RMSDP=1.47D-04 MaxDP=8.29D-03 DE=-3.08D-03 OVMax= 4.00D-02

 Cycle   4  Pass 0  IDiag  1:
 E= -1199.67159740479     Delta-E=       -0.001818734726 Rises=F Damp=F
 DIIS: error= 7.71D-04 at cycle   4 NSaved=   4.
 NSaved= 4 IEnMin= 4 EnMin= -1199.67159740479     IErMin= 4 ErrMin= 7.71D-04
 ErrMax= 7.71D-04  0.00D+00 EMaxC= 1.00D-01 BMatC= 8.94D-04 BMatP= 3.34D-03
 IDIUse=3 WtCom= 9.92D-01 WtEn= 7.71D-03
 Coeff-Com: -0.346D-01 0.212D+00 0.318D+00 0.504D+00
 Coeff-En:   0.000D+00 0.000D+00 0.253D+00 0.747D+00
 Coeff:     -0.343D-01 0.211D+00 0.318D+00 0.506D+00
 Gap=     0.146 Goal=   None    Shift=    0.000
 RMSDP=1.02D-04 MaxDP=6.24D-03 DE=-1.82D-03 OVMax= 3.40D-02

 Cycle   5  Pass 0  IDiag  1:
 E= -1199.67211701585     Delta-E=       -0.000519611064 Rises=F Damp=F
 DIIS: error= 5.82D-04 at cycle   5 NSaved=   5.
 NSaved= 5 IEnMin= 5 EnMin= -1199.67211701585     IErMin= 5 ErrMin= 5.82D-04
 ErrMax= 5.82D-04  0.00D+00 EMaxC= 1.00D-01 BMatC= 4.37D-04 BMatP= 8.94D-04
 IDIUse=3 WtCom= 9.94D-01 WtEn= 5.82D-03
 Coeff-Com: -0.265D-05-0.473D-01 0.905D-01 0.454D+00 0.503D+00
 Coeff-En:   0.000D+00 0.000D+00 0.000D+00 0.326D+00 0.674D+00
 Coeff:     -0.264D-05-0.470D-01 0.900D-01 0.453D+00 0.504D+00
 Gap=     0.147 Goal=   None    Shift=    0.000
 RMSDP=3.92D-05 MaxDP=2.30D-03 DE=-5.20D-04 OVMax= 9.73D-03

 Cycle   6  Pass 0  IDiag  1:
 E= -1199.67247142372     Delta-E=       -0.000354407869 Rises=F Damp=F
 DIIS: error= 1.18D-04 at cycle   6 NSaved=   6.
 NSaved= 6 IEnMin= 6 EnMin= -1199.67247142372     IErMin= 6 ErrMin= 1.18D-04
 ErrMax= 1.18D-04  0.00D+00 EMaxC= 1.00D-01 BMatC= 1.83D-05 BMatP= 4.37D-04
 IDIUse=3 WtCom= 9.99D-01 WtEn= 1.18D-03
 Coeff-Com:  0.324D-02-0.461D-01 0.126D-01 0.221D+00 0.240D+00 0.570D+00
 Coeff-En:   0.000D+00 0.000D+00 0.000D+00 0.000D+00 0.000D+00 0.100D+01
 Coeff:      0.323D-02-0.460D-01 0.126D-01 0.220D+00 0.239D+00 0.571D+00
 Gap=     0.148 Goal=   None    Shift=    0.000
 RMSDP=9.90D-06 MaxDP=3.28D-04 DE=-3.54D-04 OVMax= 1.41D-03

 Initial convergence to 1.0D-05 achieved.  Increase integral accuracy.
 Cycle   7  Pass 1  IDiag  1:
 E= -1199.67251283720     Delta-E=       -0.000041413478 Rises=F Damp=F
 DIIS: error= 6.44D-05 at cycle   1 NSaved=   1.
 NSaved= 1 IEnMin= 1 EnMin= -1199.67251283720     IErMin= 1 ErrMin= 6.44D-05
 ErrMax= 6.44D-05  0.00D+00 EMaxC= 1.00D-01 BMatC= 4.71D-06 BMatP= 4.71D-06
 IDIUse=1 WtCom= 1.00D+00 WtEn= 0.00D+00
 Coeff-Com:  0.100D+01
 Coeff:      0.100D+01
 Gap=     0.148 Goal=   None    Shift=    0.000
 RMSDP=9.90D-06 MaxDP=3.28D-04 DE=-4.14D-05 OVMax= 2.35D-03

 Cycle   8  Pass 1  IDiag  1:
 E= -1199.67250645462     Delta-E=        0.000006382581 Rises=F Damp=F
 DIIS: error= 1.32D-04 at cycle   2 NSaved=   2.
 NSaved= 2 IEnMin= 1 EnMin= -1199.67251283720     IErMin= 1 ErrMin= 6.44D-05
 ErrMax= 1.32D-04  0.00D+00 EMaxC= 1.00D-01 BMatC= 1.67D-05 BMatP= 4.71D-06
 IDIUse=3 WtCom= 4.65D-01 WtEn= 5.35D-01
 Coeff-Com:  0.672D+00 0.328D+00
 Coeff-En:   0.689D+00 0.311D+00
 Coeff:      0.681D+00 0.319D+00
 Gap=     0.148 Goal=   None    Shift=    0.000
 RMSDP=1.05D-05 MaxDP=5.91D-04 DE= 6.38D-06 OVMax= 3.47D-03

 Cycle   9  Pass 1  IDiag  1:
 E= -1199.67252001240     Delta-E=       -0.000013557787 Rises=F Damp=F
 DIIS: error= 3.72D-05 at cycle   3 NSaved=   3.
 NSaved= 3 IEnMin= 3 EnMin= -1199.67252001240     IErMin= 3 ErrMin= 3.72D-05
 ErrMax= 3.72D-05  0.00D+00 EMaxC= 1.00D-01 BMatC= 1.92D-06 BMatP= 4.71D-06
 IDIUse=1 WtCom= 1.00D+00 WtEn= 0.00D+00
 Coeff-Com:  0.628D-01 0.240D+00 0.698D+00
 Coeff:      0.628D-01 0.240D+00 0.698D+00
 Gap=     0.148 Goal=   None    Shift=    0.000
 RMSDP=3.44D-06 MaxDP=1.37D-04 DE=-1.36D-05 OVMax= 5.33D-04

 Cycle  10  Pass 1  IDiag  1:
 E= -1199.67252214417     Delta-E=       -0.000002131761 Rises=F Damp=F
 DIIS: error= 2.19D-05 at cycle   4 NSaved=   4.
 NSaved= 4 IEnMin= 4 EnMin= -1199.67252214417     IErMin= 4 ErrMin= 2.19D-05
 ErrMax= 2.19D-05  0.00D+00 EMaxC= 1.00D-01 BMatC= 4.31D-07 BMatP= 1.92D-06
 IDIUse=1 WtCom= 1.00D+00 WtEn= 0.00D+00
 Coeff-Com: -0.212D+00 0.946D-01 0.327D+00 0.791D+00
 Coeff:     -0.212D+00 0.946D-01 0.327D+00 0.791D+00
 Gap=     0.148 Goal=   None    Shift=    0.000
 RMSDP=2.99D-06 MaxDP=1.30D-04 DE=-2.13D-06 OVMax= 6.25D-04

 Cycle  11  Pass 1  IDiag  1:
 E= -1199.67252292601     Delta-E=       -0.000000781845 Rises=F Damp=F
 DIIS: error= 1.25D-05 at cycle   5 NSaved=   5.
 NSaved= 5 IEnMin= 5 EnMin= -1199.67252292601     IErMin= 5 ErrMin= 1.25D-05
 ErrMax= 1.25D-05  0.00D+00 EMaxC= 1.00D-01 BMatC= 2.05D-07 BMatP= 4.31D-07
 IDIUse=1 WtCom= 1.00D+00 WtEn= 0.00D+00
 Coeff-Com: -0.118D+00 0.236D-01-0.103D+00 0.493D+00 0.705D+00
 Coeff:     -0.118D+00 0.236D-01-0.103D+00 0.493D+00 0.705D+00
 Gap=     0.148 Goal=   None    Shift=    0.000
 RMSDP=1.54D-06 MaxDP=7.32D-05 DE=-7.82D-07 OVMax= 2.57D-04

 Cycle  12  Pass 1  IDiag  1:
 E= -1199.67252320975     Delta-E=       -0.000000283736 Rises=F Damp=F
 DIIS: error= 7.38D-06 at cycle   6 NSaved=   6.
 NSaved= 6 IEnMin= 6 EnMin= -1199.67252320975     IErMin= 6 ErrMin= 7.38D-06
 ErrMax= 7.38D-06  0.00D+00 EMaxC= 1.00D-01 BMatC= 4.57D-08 BMatP= 2.05D-07
 IDIUse=1 WtCom= 1.00D+00 WtEn= 0.00D+00
 Coeff-Com:  0.155D-01-0.117D-01-0.269D+00 0.349D-01 0.418D+00 0.812D+00
 Coeff:      0.155D-01-0.117D-01-0.269D+00 0.349D-01 0.418D+00 0.812D+00
 Gap=     0.148 Goal=   None    Shift=    0.000
 RMSDP=1.17D-06 MaxDP=5.68D-05 DE=-2.84D-07 OVMax= 2.39D-04

 Cycle  13  Pass 1  IDiag  1:
 E= -1199.67252329541     Delta-E=       -0.000000085664 Rises=F Damp=F
 DIIS: error= 2.07D-06 at cycle   7 NSaved=   7.
 NSaved= 7 IEnMin= 7 EnMin= -1199.67252329541     IErMin= 7 ErrMin= 2.07D-06
 ErrMax= 2.07D-06  0.00D+00 EMaxC= 1.00D-01 BMatC= 5.02D-09 BMatP= 4.57D-08
 IDIUse=1 WtCom= 1.00D+00 WtEn= 0.00D+00
 Coeff-Com:  0.217D-01-0.612D-02-0.136D+00-0.280D-01 0.134D+00 0.433D+00
 Coeff-Com:  0.581D+00
 Coeff:      0.217D-01-0.612D-02-0.136D+00-0.280D-01 0.134D+00 0.433D+00
 Coeff:      0.581D+00
 Gap=     0.148 Goal=   None    Shift=    0.000
 RMSDP=2.36D-07 MaxDP=1.06D-05 DE=-8.57D-08 OVMax= 4.44D-05

 Cycle  14  Pass 1  IDiag  1:
 E= -1199.67252330282     Delta-E=       -0.000000007406 Rises=F Damp=F
 DIIS: error= 7.63D-07 at cycle   8 NSaved=   8.
 NSaved= 8 IEnMin= 8 EnMin= -1199.67252330282     IErMin= 8 ErrMin= 7.63D-07
 ErrMax= 7.63D-07  0.00D+00 EMaxC= 1.00D-01 BMatC= 7.33D-10 BMatP= 5.02D-09
 IDIUse=1 WtCom= 1.00D+00 WtEn= 0.00D+00
 Coeff-Com:  0.153D-03 0.412D-02 0.676D-01-0.204D-01-0.144D+00-0.183D+00
 Coeff-Com:  0.201D+00 0.107D+01
 Coeff:      0.153D-03 0.412D-02 0.676D-01-0.204D-01-0.144D+00-0.183D+00
 Coeff:      0.201D+00 0.107D+01
 Gap=     0.148 Goal=   None    Shift=    0.000
 RMSDP=2.14D-07 MaxDP=8.84D-06 DE=-7.41D-09 OVMax= 5.30D-05

 Cycle  15  Pass 1  IDiag  1:
 E= -1199.67252330605     Delta-E=       -0.000000003228 Rises=F Damp=F
 DIIS: error= 4.08D-07 at cycle   9 NSaved=   9.
 NSaved= 9 IEnMin= 9 EnMin= -1199.67252330605     IErMin= 9 ErrMin= 4.08D-07
 ErrMax= 4.08D-07  0.00D+00 EMaxC= 1.00D-01 BMatC= 1.33D-10 BMatP= 7.33D-10
 IDIUse=1 WtCom= 1.00D+00 WtEn= 0.00D+00
 Coeff-Com: -0.315D-02 0.233D-02 0.436D-01-0.168D-02-0.724D-01-0.125D+00
 Coeff-Com: -0.483D-01 0.401D+00 0.804D+00
 Coeff:     -0.315D-02 0.233D-02 0.436D-01-0.168D-02-0.724D-01-0.125D+00
 Coeff:     -0.483D-01 0.401D+00 0.804D+00
 Gap=     0.148 Goal=   None    Shift=    0.000
 RMSDP=6.58D-08 MaxDP=2.45D-06 DE=-3.23D-09 OVMax= 1.50D-05

 Cycle  16  Pass 1  IDiag  1:
 E= -1199.67252330617     Delta-E=       -0.000000000122 Rises=F Damp=F
 DIIS: error= 1.54D-07 at cycle  10 NSaved=  10.
 NSaved=10 IEnMin=10 EnMin= -1199.67252330617     IErMin=10 ErrMin= 1.54D-07
 ErrMax= 1.54D-07  0.00D+00 EMaxC= 1.00D-01 BMatC= 2.17D-11 BMatP= 1.33D-10
 IDIUse=1 WtCom= 1.00D+00 WtEn= 0.00D+00
 Coeff-Com: -0.136D-02 0.319D-03 0.848D-02 0.211D-02-0.997D-02-0.252D-01
 Coeff-Com: -0.575D-01 0.212D-01 0.336D+00 0.726D+00
 Coeff:     -0.136D-02 0.319D-03 0.848D-02 0.211D-02-0.997D-02-0.252D-01
 Coeff:     -0.575D-01 0.212D-01 0.336D+00 0.726D+00
 Gap=     0.148 Goal=   None    Shift=    0.000
 RMSDP=1.98D-08 MaxDP=6.63D-07 DE=-1.22D-10 OVMax= 4.63D-06

 Cycle  17  Pass 1  IDiag  1:
 E= -1199.67252330624     Delta-E=       -0.000000000072 Rises=F Damp=F
 DIIS: error= 5.75D-08 at cycle  11 NSaved=  11.
 NSaved=11 IEnMin=11 EnMin= -1199.67252330624     IErMin=11 ErrMin= 5.75D-08
 ErrMax= 5.75D-08  0.00D+00 EMaxC= 1.00D-01 BMatC= 3.35D-12 BMatP= 2.17D-11
 IDIUse=1 WtCom= 1.00D+00 WtEn= 0.00D+00
 Coeff-Com:  0.288D-03-0.439D-03-0.600D-02 0.554D-03 0.123D-01 0.177D-01
 Coeff-Com: -0.656D-02-0.754D-01-0.724D-01 0.212D+00 0.918D+00
 Coeff:      0.288D-03-0.439D-03-0.600D-02 0.554D-03 0.123D-01 0.177D-01
 Coeff:     -0.656D-02-0.754D-01-0.724D-01 0.212D+00 0.918D+00
 Gap=     0.148 Goal=   None    Shift=    0.000
 RMSDP=8.81D-09 MaxDP=3.07D-07 DE=-7.19D-11 OVMax= 1.59D-06

 SCF Done:  E(RM062X) =  -1199.67252331     A.U. after   17 cycles
            NFock= 17  Conv=0.88D-08     -V/T= 2.0028
 KE= 1.196293692616D+03 PE=-4.673073161726D+03 EE= 1.363635644889D+03
 Leave Link  502 at Sat May 24 08:17:31 2025, MaxMem=  3758096384 cpu:             178.5 elap:              46.0
 (Enter /apps/easybuild-2022/easybuild/software/Compiler/NVHPC/22.11-CUDA-11.7.0/Gaussian/g16c01-CUDA-11.7.0/g16/l508.exe)
 QCSCF skips out because SCF is already converged.
 Leave Link  508 at Sat May 24 08:17:31 2025, MaxMem=  3758096384 cpu:               0.1 elap:               0.0
 (Enter /apps/easybuild-2022/easybuild/software/Compiler/NVHPC/22.11-CUDA-11.7.0/Gaussian/g16c01-CUDA-11.7.0/g16/l801.exe)
 DoSCS=F DFT=T ScalE2(SS,OS)=  1.000000  1.000000
 Range of M.O.s used for correlation:     1   366
 NBasis=   366 NAE=    49 NBE=    49 NFC=     0 NFV=     0
[...]
     18 -0.132516D-02 -0.328615D-02  0.594871D-01  0.739174D-02 -0.720304D-01
     19 -0.566967D-02  0.144695D-01 -0.302091D+00 -0.249460D+00 -0.260884D+00
     20  0.428544D-02 -0.816691D-02 -0.243584D+00 -0.189831D+00 -0.172201D+00
     21 -0.148625D-02  0.496239D-02 -0.265759D+00 -0.160210D+00 -0.304125D+00
     22 -0.269184D-02  0.510885D-02 -0.524154D-01 -0.424952D-01  0.140618D-01
     23 -0.794797D-02 -0.103768D-02 -0.229368D-01 -0.696492D-01  0.847311D-01
     24  0.679449D-02 -0.272060D-02 -0.983140D-02  0.756187D-01 -0.294640D+00
     25 -0.391513D-02 -0.906903D-03  0.515770D-02 -0.627891D-02 -0.527703D-02
     26 -0.219738D-03 -0.539261D-02  0.461355D-03 -0.152185D-02  0.830699D-02
     27 -0.735903D-02 -0.436841D-02  0.119453D-01 -0.551839D-02 -0.134902D-01
     28 -0.162240D-02  0.435427D-02 -0.418309D-03 -0.523991D-02  0.788449D-03
     29  0.963191D-03 -0.200287D-02  0.117054D-01 -0.321772D-02 -0.628922D-02
     30  0.464753D-03  0.361838D-02  0.876921D-02 -0.145523D-02 -0.938186D-02
     31 -0.924156D-05  0.305077D-02  0.296022D-02 -0.483445D-02 -0.393783D-02
     32  0.367486D-02  0.581198D-03  0.340412D-02 -0.363697D-04 -0.452850D-02
     33 -0.326019D-02  0.445238D-02  0.155031D-04  0.160798D-02 -0.524616D-02
     34  0.169316D-02 -0.117810D-02 -0.203073D-02 -0.829514D-03  0.694446D-02
     35 -0.600164D-03  0.400053D-03 -0.476239D-02 -0.613398D-02  0.734403D-02
     36 -0.287694D-03 -0.180247D-03  0.359670D-01  0.154826D-01 -0.221506D-01
               16            17            18            19            20 
     16  0.276603D+00
     17 -0.115745D+00  0.123903D+00
     18 -0.848600D-01  0.397562D-01  0.805689D-01
     19 -0.723911D-01 -0.351014D-01 -0.136508D-01  0.357155D+00
     20  0.387606D-01  0.219165D-01 -0.695724D-02  0.227977D+00  0.214007D+00
     21  0.240059D-01  0.160100D-02  0.685519D-02  0.278165D+00  0.199509D+00
     22 -0.529632D-01 -0.187400D-01  0.474424D-01  0.368329D-02  0.831379D-02
     23  0.209985D-01  0.144133D-01 -0.376163D-02  0.279951D-02  0.122755D-01
     24  0.145780D-01  0.548689D-02 -0.167153D-01  0.340292D-03  0.908324D-02
     25 -0.826354D-02 -0.569966D-02  0.457185D-03 -0.119224D-02  0.613656D-03
     26  0.990266D-03  0.768488D-03 -0.394340D-03 -0.403406D-03  0.780240D-03
     27 -0.142611D-01 -0.908357D-02  0.238490D-02 -0.249104D-02  0.153240D-03
     28 -0.268184D-02 -0.444380D-03 -0.490202D-04  0.957277D-03  0.195811D-02
     29 -0.890762D-02 -0.811129D-02  0.145169D-02 -0.383454D-02 -0.240465D-03
     30 -0.610688D-02 -0.659970D-02  0.152132D-02 -0.324633D-02 -0.121549D-02
     31 -0.930468D-02 -0.589362D-02  0.389187D-03 -0.129962D-02 -0.989387D-03
     32 -0.135353D-01 -0.801632D-02  0.453003D-03 -0.166024D-02 -0.296183D-02
     33 -0.257881D-02 -0.127042D-02  0.350648D-03 -0.437022D-04 -0.148975D-02
     34  0.342278D-02 -0.452019D-03 -0.799787D-03 -0.230964D-02 -0.134335D-03
     35 -0.364645D-02  0.608810D-03 -0.118359D-03 -0.218229D-02 -0.130240D-02
     36  0.794779D-02  0.338392D-02 -0.519651D-02 -0.293879D-02 -0.248707D-02
               21            22            23            24            25 
     21  0.313802D+00
     22 -0.199390D-01  0.553400D+00
     23 -0.173792D-01  0.698106D-01  0.908208D-01
     24 -0.231026D-01 -0.137780D+00 -0.112916D+00  0.404209D+00
     25  0.731800D-03 -0.259720D-03 -0.115018D-02  0.875362D-03  0.162118D+00
     26 -0.121118D-02 -0.225862D-02 -0.679239D-02 -0.574218D-02 -0.755315D-01
     27  0.126215D-02 -0.205508D-02 -0.677429D-03  0.632219D-02  0.132151D+00
     28  0.805279D-03  0.604412D-03  0.127828D-02 -0.755288D-03 -0.513568D-01
     29 -0.375317D-03 -0.134987D-02 -0.237084D-03  0.164324D-02  0.409341D-01
     30  0.109779D-03 -0.111477D-02 -0.280168D-03  0.307565D-02 -0.324058D-01
     31 -0.307208D-03 -0.677583D-03  0.365311D-03  0.708190D-03  0.181153D-01
     32 -0.171650D-02 -0.129315D-02 -0.375709D-04  0.205221D-02 -0.741862D-02
     33  0.180455D-03 -0.402913D-03  0.294441D-03  0.288333D-02  0.141598D-01
     34 -0.444280D-02 -0.466403D+00 -0.615556D-01  0.134522D+00 -0.119750D-03
     35 -0.113575D-02 -0.522793D-01 -0.120101D-01  0.235512D-01  0.605413D-04
     36  0.341539D-02  0.950239D-01  0.206644D-01 -0.576675D-01  0.648755D-04
               26            27            28            29            30 
     26  0.151394D+00
     27 -0.126297D+00  0.302220D+00
     28  0.423656D-01 -0.164844D-01  0.318516D+00
     29 -0.133193D-01  0.941666D-02 -0.117797D+00  0.137833D+00
     30  0.213487D-01  0.140954D-01 -0.955138D-01  0.423595D-01  0.110894D+00
     31  0.385261D-02  0.269203D-02 -0.681348D-01 -0.292120D-01  0.390676D-01
     32 -0.344318D-01  0.420418D-01 -0.104754D-01  0.163066D-01  0.524458D-02
     33  0.555626D-01 -0.314879D-01  0.398538D-01  0.147015D-01 -0.446127D-02
     34  0.514539D-03  0.448598D-04 -0.864539D-03  0.552728D-03  0.578715D-03
     35  0.172687D-03 -0.100181D-02  0.311805D-03  0.291723D-04 -0.456587D-03
     36 -0.242096D-03 -0.780449D-03  0.542433D-03 -0.361020D-03 -0.640370D-03
               31            32            33            34            35 
     31  0.205017D+00
     32  0.150591D+00  0.274234D+00
     33 -0.798603D-01 -0.986622D-01  0.125415D+00
     34  0.365230D-04  0.636328D-03  0.153514D-03  0.466817D+00
     35  0.126643D-03  0.154948D-03 -0.406003D-03  0.603740D-01  0.154021D-01
     36  0.220244D-04 -0.399152D-03 -0.399700D-03 -0.132960D+00 -0.304473D-01
               36 
     36  0.819671D-01
 Red2BG is reusing G-inverse.
 Leave Link  716 at Sat May 24 08:37:29 2025, MaxMem=  3758096384 cpu:               0.1 elap:               0.0
 (Enter /apps/easybuild-2022/easybuild/software/Compiler/NVHPC/22.11-CUDA-11.7.0/Gaussian/g16c01-CUDA-11.7.0/g16/l9999.exe)

 ----------------------------------------------------------------------

 Electric dipole moment (input orientation):
 (Debye = 10**-18 statcoulomb cm , SI units = C m)
                  (au)            (Debye)         (10**-30 SI)
   Tot        0.163040D+01      0.414407D+01      0.138231D+02
   x          0.126243D+01      0.320879D+01      0.107034D+02
   y          0.607329D+00      0.154368D+01      0.514915D+01
   z         -0.834043D+00     -0.211993D+01     -0.707131D+01

 Dipole polarizability, Alpha (input orientation).
 (esu units = cm**3 , SI units = C**2 m**2 J**-1)
 Alpha(0;0):
               (au)            (10**-24 esu)      (10**-40 SI)
   iso        0.697607D+02      0.103375D+02      0.115020D+02
   aniso      0.320137D+02      0.474395D+01      0.527835D+01
   xx         0.830309D+02      0.123039D+02      0.136899D+02
   yx        -0.778832D+01     -0.115411D+01     -0.128412D+01
   yy         0.735993D+02      0.109063D+02      0.121349D+02
   zx        -0.374041D+01     -0.554272D+00     -0.616710D+00
   zy         0.502046D+01      0.743955D+00      0.827762D+00
   zz         0.526518D+02      0.780220D+01      0.868112D+01

 ----------------------------------------------------------------------

 Dipole orientation:
     6          0.74945028          3.22204385          3.22399497
     6          2.36748722          0.87618288          3.37641247
     9         -0.39229378         -0.93587804         -0.15872725
     9          4.56131074          1.07623350          2.21487495
    16          1.49044103         -2.08681228          4.07171552
     8          0.26765979         -3.39059899          1.89595024
     8          3.52491226         -3.49090012          5.07922939
     8         -0.74018453         -1.77404361          5.95104265
     9         -1.65332291          2.75733498          3.73743065
     9          1.59234157          4.90740809          4.91897789
     9          0.92901881          4.29813263          0.97194832
     1         -0.11582289         -1.45946050          7.64456852

 Electric dipole moment (dipole orientation):
 (Debye = 10**-18 statcoulomb cm , SI units = C m)
                  (au)            (Debye)         (10**-30 SI)
   Tot        0.163040D+01      0.414407D+01      0.138231D+02
   x          0.000000D+00      0.000000D+00      0.000000D+00
   y          0.000000D+00      0.000000D+00      0.000000D+00
   z          0.163040D+01      0.414407D+01      0.138231D+02

 Dipole polarizability, Alpha (dipole orientation).
 (esu units = cm**3 , SI units = C**2 m**2 J**-1)
 Alpha(0;0):
               (au)            (10**-24 esu)      (10**-40 SI)
   iso        0.697607D+02      0.103375D+02      0.115020D+02
   aniso      0.320137D+02      0.474395D+01      0.527835D+01
   xx         0.612885D+02      0.908202D+01      0.101051D+02
   yx         0.879343D+01      0.130305D+01      0.144984D+01
   yy         0.776642D+02      0.115086D+02      0.128051D+02
   zx         0.129539D+02      0.191957D+01      0.213581D+01
   zy         0.540506D+01      0.800948D+00      0.891175D+00
   zz         0.703293D+02      0.104217D+02      0.115957D+02

 ----------------------------------------------------------------------
 Unable to Open any file for archive entry.
 1\1\GINC-SPARTAN-BM179\Freq\RM062X\def2TZVPP\C2H1F5O3S1\AKHALILOV\24-M
 ay-2025\0\\#P M062X/Def2TZVPP Symm(None) scf(xqc) pop(None) opt(NoFree
 ze,TS,CalcAll,NoEigentest,MaxCycle=999)\\Gaussian input prepared by AS
 E\\0,1\C,1.8856540542,-0.9886777416,-1.2007921189\C,2.2278394752,0.005
 4039072,-0.1166529084\F,-0.2847913425,0.4581069006,0.0667072293\F,2.47
 25515538,-0.5412261347,1.0572563052\S,1.9335205959,1.6550375063,-0.080
 1759073\O,0.5199469278,1.9762229772,0.2647847298\O,2.8541346517,2.3230
 094638,0.7574756114\O,2.022952221,2.1004132197,-1.5645598538\F,1.28194
 696,-0.4215076243,-2.2327045262\F,3.0194675626,-1.5496610899,-1.646477
 8207\F,1.1288793298,-1.9679005068,-0.7296948073\H,2.9479800106,2.22000
 61225,-1.829184933\\Version=ES64L-G16RevC.01\HF=-1199.6742809\RMSD=8.0
 55e-09\RMSF=7.947e-06\ZeroPoint=0.048355\Thermal=0.0592163\ETot=-1199.
 6150646\HTot=-1199.6141204\GTot=-1199.6637251\Dipole=1.2624337,0.60732
 86,-0.8340433\DipoleDeriv=1.2675115,0.1121788,-0.0379973,-0.5387838,2.
 1240347,0.1230266,-0.560656,0.585334,1.6318864,-0.2856687,-0.0960651,0
 .1844036,-0.8188969,0.5758275,-0.1910003,1.0961779,-0.9750082,0.306066
 8,-1.0171924,0.322374,0.1235,-1.8848122,0.6567983,0.2952714,-0.2485618
 ,0.0711556,-0.2020136,-0.1344741,0.1029471,-0.1163763,0.3806431,-0.587
 9852,0.1945257,-0.854194,0.7262527,-0.5606018,-0.0402178,1.4611487,0.3
 262012,1.9599043,0.618636,-0.2531485,0.416443,-0.6175313,1.9721241,1.5
 391902,-1.2116339,-0.2364815,1.2563155,-0.7890765,-0.2222261,-0.032373
 4,0.2038972,-0.2392442,-0.3106206,-0.483385,-0.283762,-0.5395432,-0.50
 72262,-0.1346621,-0.2770411,-0.1361916,-0.6703743,-0.1634452,-0.235820
 5,0.1508602,-0.2925665,-0.4741893,0.2902315,0.1909636,0.4352071,-1.131
 1481,-0.2479732,0.0497109,-0.2192382,0.0709595,-0.4126669,0.0975174,-0
 .0344981,0.0169052,-0.7029706,-0.6492558,0.2510718,0.1661793,0.3836598
 ,-0.6429351,-0.1982059,0.3100644,-0.2987744,-0.4318283,-0.2996924,-0.3
 603421,0.0858855,-0.0731827,-0.9051055,0.0472637,0.1146861,0.0259924,-
 0.3597667,0.3418384,0.0878154,-0.1431746,0.096303,0.3438882,-0.0485934
 ,-0.1210106,-0.0372387,0.3878705\Polar=83.0308841,-7.7883249,73.599319
 ,-3.74041,5.0204593,52.6518462\PG=Unknown\NImag=1\\0.51977274,0.012552
 74,0.57071863,0.02976979,-0.01484343,0.59585264,-0.05132335,-0.0144155
 0,-0.02447087,0.12259900,-0.03931990,-0.13613577,-0.06106082,-0.030391
 94,0.55783318,-0.02401214,-0.07281478,-0.12152363,0.10796751,-0.000082
 69,0.56473919,-0.00730425,-0.01265865,-0.01313996,-0.01424697,-0.01747
 151,0.02294556,0.04719976,-0.02250171,-0.03374903,-0.03112014,-0.01409
 071,-0.06632772,0.05967280,0.01232690,-0.02817816,-0.00422248,-0.00215
 342,-0.00630033,-0.00077497,-0.00777561,0.00502518,-0.00258908,-0.0047
 4964,0.00473449,-0.00269690,0.00282348,-0.01376739,-0.02927578,0.01801
 057,-0.05875587,-0.00284090,-0.00405154,-0.00148906,0.03038494,0.00138
 267,0.00818489,-0.00550606,0.03326545,-0.11996936,0.12967269,0.0070491
 8,0.02160826,0.00246142,-0.03473025,0.13883373,-0.01779831,0.02350344,
 -0.04392713,-0.06771300,0.10743547,-0.32775561,-0.01641116,-0.04619382
 ,-0.00441202,0.08382831,-0.15472275,0.38176319,-0.01262603,-0.04142780
 ,-0.02611819,-0.03666757,-0.05841659,0.05722192,-0.08114554,-0.1612643
 2,-0.01803943,-0.01182529,0.02749266,-0.05885723,0.69677058,0.02532328
 ,0.01120859,0.00576242,0.02754755,-0.17614338,-0.05729731,0.03633446,0
 .15182715,0.01899666,0.01813059,-0.03504019,0.05438545,0.32499622,0.47
 739177,0.01650904,-0.00596952,0.04011211,0.00069161,0.00416447,-0.0815
 0544,0.01345554,0.04512070,0.00225980,-0.00915397,0.03455377,-0.008146
 19,0.20519902,0.04523484,0.76834394,0.01668147,0.03624566,0.03534059,0
 .01501614,0.07682315,-0.06359897,0.03300001,0.11345462,0.01587740,0.00
 654972,-0.02224459,0.05205297,-0.20566883,-0.12319412,0.02160314,0.276
 60308,0.01736143,0.02299244,0.02478858,0.02107671,0.03224879,-0.047083
 98,-0.02267463,-0.02809657,-0.00172237,0.00198007,-0.01377296,0.031211
 05,0.16433219,-0.15885427,-0.04046757,-0.11574473,0.12390306,-0.003129
 84,-0.00281216,-0.00442314,0.00066879,-0.00774556,0.01317543,-0.008923
 16,-0.02593814,-0.00320498,0.00296802,-0.00132516,-0.00328615,0.059487
 08,0.00739174,-0.07203036,-0.08486005,0.03975617,0.08056894,0.00622588
 ,0.00911380,0.00729329,0.00089820,0.02677333,-0.01810602,0.00950085,0.
 03164758,0.00109241,0.00086301,-0.00566967,0.01446954,-0.30209082,-0.2
 4945998,-0.26088428,-0.07239111,-0.03510136,-0.01365084,0.35715492,-0.
 00242126,-0.00439504,0.00716126,-0.01989369,-0.02935567,-0.01979417,-0
 .00950541,-0.02517899,-0.00359457,-0.00109534,0.00428544,-0.00816691,-
 0.24358404,-0.18983055,-0.17220109,0.03876065,0.02191648,-0.00695724,0
 .22797727,0.21400726,-0.00207245,0.00149585,-0.00050175,-0.00911026,-0
 .00845404,-0.00349100,-0.00350195,-0.01063768,0.00063283,0.00142396,-0
 .00148625,0.00496239,-0.26575871,-0.16020952,-0.30412514,0.02400585,0.
 00160100,0.00685519,0.27816546,0.19950856,0.31380231,-0.00090078,0.004
 92324,0.00487351,0.00043021,0.01726917,-0.00949962,0.00862535,0.020791
 16,0.00428102,0.00687607,-0.00269184,0.00510885,-0.05241538,-0.0424952
 1,0.01406184,-0.05296320,-0.01874000,0.04744244,0.00368329,0.00831379,
 -0.01993898,0.55339994,-0.00217372,0.00117191,-0.00287422,0.00131520,-
 0.00674088,0.03433730,-0.00597207,-0.01526637,-0.00110132,-0.00277901,
 -0.00794797,-0.00103768,-0.02293680,-0.06964922,0.08473111,0.02099845,
 0.01441333,-0.00376163,0.00279951,0.01227552,-0.01737918,0.06981061,0.
 09082079,-0.00098073,0.00003622,-0.01698852,-0.00101200,-0.00445333,-0
 .00476690,-0.00002020,-0.00115511,0.00011075,-0.00064374,0.00679449,-0
 .00272060,-0.00983140,0.07561873,-0.29463988,0.01457802,0.00548689,-0.
 01671529,0.00034029,0.00908324,-0.02310261,-0.13778019,-0.11291561,0.4
 0420942,-0.12537493,0.03792155,-0.09409720,-0.00168975,0.01196898,-0.0
 1945728,0.00242559,0.00849514,0.00370467,0.00044042,-0.00391513,-0.000
 90690,0.00515770,-0.00627891,-0.00527703,-0.00826354,-0.00569966,0.000
 45718,-0.00119224,0.00061366,0.00073180,-0.00025972,-0.00115018,0.0008
 7536,0.16211777,0.03513949,-0.10918198,0.06191371,-0.00414861,0.012514
 69,-0.00623853,0.00038204,-0.00016336,-0.00161364,-0.00136384,-0.00021
 974,-0.00539261,0.00046135,-0.00152185,0.00830699,0.00099027,0.0007684
 9,-0.00039434,-0.00040341,0.00078024,-0.00121118,-0.00225862,-0.006792
 39,-0.00574218,-0.07553146,0.15139428,-0.09365616,0.06527382,-0.239972
 26,-0.01985901,0.02103730,-0.03682601,0.00589110,0.01201473,0.00064028
 ,-0.00391711,-0.00735903,-0.00436841,0.01194528,-0.00551839,-0.0134901
 9,-0.01426106,-0.00908357,0.00238490,-0.00249104,0.00015324,0.00126215
 ,-0.00205508,-0.00067743,0.00632219,0.13215055,-0.12629737,0.30222031,
 -0.19498484,0.06904872,0.05835126,-0.00303127,0.01779174,0.00720449,0.
 00083808,0.00282490,0.00090243,0.00055627,-0.00162240,0.00435427,-0.00
 041831,-0.00523991,0.00078845,-0.00268184,-0.00044438,-0.00004902,0.00
 095728,0.00195811,0.00080528,0.00060441,0.00127828,-0.00075529,-0.0513
 5681,0.04236563,-0.01648437,0.31851635,0.08075697,-0.11769226,-0.03814
 827,0.02496592,-0.02128064,-0.02301591,0.00329185,0.00896713,0.0006200
 7,-0.00110591,0.00096319,-0.00200287,0.01170540,-0.00321772,-0.0062892
 2,-0.00890762,-0.00811129,0.00145169,-0.00383454,-0.00024046,-0.000375
 32,-0.00134987,-0.00023708,0.00164324,0.04093409,-0.01331928,0.0094166
 6,-0.11779704,0.13783264,0.06545759,-0.03893126,-0.10756491,0.02325866
 ,-0.02676281,-0.01200776,0.00239762,0.00628376,0.00074159,-0.00114189,
 0.00046475,0.00361838,0.00876921,-0.00145523,-0.00938186,-0.00610688,-
 0.00659970,0.00152132,-0.00324633,-0.00121549,0.00010978,-0.00111477,-
 0.00028017,0.00307565,-0.03240579,0.02134868,0.01409539,-0.09551376,0.
 04235947,0.11089406,-0.14876813,-0.10224876,0.03707797,-0.00283633,-0.
 02331519,-0.00059233,0.00349243,0.01156702,0.00168992,0.00139972,-0.00
 000924,0.00305077,0.00296022,-0.00483445,-0.00393783,-0.00930468,-0.00
 589362,0.00038919,-0.00129962,-0.00098939,-0.00030721,-0.00067758,0.00
 036531,0.00070819,0.01811525,0.00385261,0.00269203,-0.06813476,-0.0292
 1197,0.03906762,0.20501697,-0.10484438,-0.21212039,0.05144949,-0.02587
 064,-0.04782987,0.00276892,0.00741095,0.01106334,0.00071508,0.00305532
 ,0.00367486,0.00058120,0.00340412,-0.00003637,-0.00452850,-0.01353528,
 -0.00801632,0.00045300,-0.00166024,-0.00296183,-0.00171650,-0.00129315
 ,-0.00003757,0.00205221,-0.00741862,-0.03443179,0.04204185,-0.01047544
 ,0.01630660,0.00524458,0.15059103,0.27423439,0.03470519,0.04654837,-0.
 09696333,-0.00860174,-0.01423752,0.00455705,0.00161721,0.00061119,0.00
 071917,0.00098250,-0.00326019,0.00445238,0.00001550,0.00160798,-0.0052
 4616,-0.00257881,-0.00127042,0.00035065,-0.00004370,-0.00148975,0.0001
 8046,-0.00040291,0.00029444,0.00288333,0.01415976,0.05556258,-0.031487
 91,0.03985383,0.01470149,-0.00446127,-0.07986035,-0.09866216,0.1254153
 2,0.00129912,-0.00187848,-0.00111279,0.00012747,0.00027820,-0.00131726
 ,0.00045558,0.00080095,-0.00043283,-0.00043129,0.00169316,-0.00117810,
 -0.00203073,-0.00082951,0.00694446,0.00342278,-0.00045202,-0.00079979,
 -0.00230964,-0.00013433,-0.00444280,-0.46640261,-0.06155557,0.13452169
 ,-0.00011975,0.00051454,0.00004486,-0.00086454,0.00055273,0.00057871,0
 .00003652,0.00063633,0.00015351,0.46681708,-0.00125561,-0.00100200,0.0
 0247747,0.00064026,0.00118663,-0.00012434,0.00148690,0.00349431,-0.000
 08266,0.00112585,-0.00060016,0.00040005,-0.00476239,-0.00613398,0.0073
 4403,-0.00364645,0.00060881,-0.00011836,-0.00218229,-0.00130240,-0.001
 13575,-0.05227928,-0.01201008,0.02355123,0.00006054,0.00017269,-0.0010
 0181,0.00031180,0.00002917,-0.00045659,0.00012664,0.00015495,-0.000406
 00,0.06037402,0.01540207,-0.00056952,0.00066689,0.00220025,-0.00104471
 ,-0.00206486,0.00037949,-0.00172152,-0.00390867,-0.00094676,-0.0003337
 5,-0.00028769,-0.00018025,0.03596696,0.01548264,-0.02215063,0.00794779
 ,0.00338392,-0.00519651,-0.00293879,-0.00248707,0.00341539,0.09502389,
 0.02066439,-0.05766753,0.00006488,-0.00024210,-0.00078045,0.00054243,-
 0.00036102,-0.00064037,0.00002202,-0.00039915,-0.00039970,-0.13295967,
 -0.03044728,0.08196706\\-0.00000786,0.00000305,-0.00001070,0.00001029,
 -0.00000486,0.00000530,-0.00001150,-0.00000793,-0.00000726,-0.00001539
 ,-0.00000390,-0.00000548,-0.00001034,0.00001583,0.00000475,0.00001688,
 0.00001143,-0.00000345,0.00000072,-0.00001136,0.00000320,0.00000693,-0
 .00000004,0.00000317,0.00001021,0.00000357,-0.00000185,-0.00000323,-0.
 00000217,0.00000467,-0.00000712,0.00000070,0.,0.00001043,-0.00000430,0
 .00000766\\\@
 The archive entry for this job was punched.


 GROWING OLD ISN'T SO BAD -- WHEN YOU CONSIDER THE ALTERNATIVE.

                     -- MAURICE CHEVALIER
 Job cpu time:       0 days  3 hours  7 minutes 55.4 seconds.
 Elapsed time:       0 days  0 hours 26 minutes  4.8 seconds.
 File lengths (MBytes):  RWF=    173 Int=      0 D2E=      0 Chk=     11 Scr=      1
 Normal termination of Gaussian 16 at Sat May 24 08:37:30 2025.
done
