12
energy = 0
C -0.50714663 -0.92214038 -0.14423237
C 0.11066039 0.15641236 0.79283576
F -0.38798354 1.34770390 0.46799357
F -0.22889866 0.08298226 2.06022334
S 1.73100752 -0.31733840 0.03093938
O 2.83139000 0.39091076 0.59498564
O 1.59814175 -1.67007569 -0.49822501
O 1.38634266 0.55795976 -1.29152294
F -1.08938850 -1.94807574 0.26640932
F 0.96909795 -1.45635655 1.37741928
F -0.64566231 -0.81485303 -1.39105721
H 1.68037637 1.47247073 -1.37156176
12
energy = 0
C -0.67578369 -1.19199520 0.12767763
C -0.02646965 0.18096034 0.46891446
F -0.63830256 1.16520409 -0.18703407
F -0.20214504 0.48542640 1.73516964
S 1.68192943 -0.24953811 -0.10248237
O 2.80963348 0.01595161 0.72721965
O 1.19508052 -1.14822214 -1.14311276
O 1.78759386 1.11273973 -0.97820003
F -1.13345208 -1.96132351 0.99879712
F 1.24489751 -1.75585830 1.00696760
F -1.01055751 -1.57666401 -1.02350687
H 2.41551272 1.80291911 -0.73620299
12
energy = 0
C -0.69377075 -1.23982636 0.14749657
C -0.04618762 0.15292394 0.40036192
F -0.66633261 1.08222666 -0.32431759
F -0.24503524 0.53875920 1.64074669
S 1.68096950 -0.24232998 -0.13922430
O 2.96626644 -0.19447013 0.47423138
O 1.08484418 -1.00503900 -1.23031366
O 1.76772914 1.25257811 -0.76497975
F -1.13135110 -1.96108322 1.06863040
F 1.21885778 -1.59352185 1.14592548
F -1.01127425 -1.72327857 -0.97086600
H 2.52322154 1.81266120 -0.55348414
