 Entering Gaussian System, Link 0=g16
 Initial command:
 /apps/easybuild-2022/easybuild/software/Compiler/NVHPC/22.11-CUDA-11.7.0/Gaussian/g16c01-CUDA-11.7.0/g16/l1.exe "/tmp/Gau-7564.inp" -scrdir="/tmp/"
 Entering Link 1 = /apps/easybuild-2022/easybuild/software/Compiler/NVHPC/22.11-CUDA-11.7.0/Gaussian/g16c01-CUDA-11.7.0/g16/l1.exe PID=      7565.
  
 Copyright (c) 1988-2019, Gaussian, Inc.  All Rights Reserved.
  
 This is part of the Gaussian(R) 16 program.  It is based on
 the Gaussian(R) 09 system (copyright 2009, Gaussian, Inc.),
 the Gaussian(R) 03 system (copyright 2003, Gaussian, Inc.),
 the Gaussian(R) 98 system (copyright 1998, Gaussian, Inc.),
 the Gaussian(R) 94 system (copyright 1995, Gaussian, Inc.),
 the Gaussian 92(TM) system (copyright 1992, Gaussian, Inc.),
 the Gaussian 90(TM) system (copyright 1990, Gaussian, Inc.),
 the Gaussian 88(TM) system (copyright 1988, Gaussian, Inc.),
 the Gaussian 86(TM) system (copyright 1986, Carnegie Mellon
 University), and the Gaussian 82(TM) system (copyright 1983,
 Carnegie Mellon University). Gaussian is a federally registered
 trademark of Gaussian, Inc.
  
 This software contains proprietary and confidential information,
 including trade secrets, belonging to Gaussian, Inc.
  
 This software is provided under written license and may be
 used, copied, transmitted, or stored only in accord with that
 written license.
  
 The following legend is applicable only to US Government
 contracts under FAR:
  
                    RESTRICTED RIGHTS LEGEND
  
 Use, reproduction and disclosure by the US Government is
 subject to restrictions as set forth in subparagraphs (a)
 and (c) of the Commercial Computer Software - Restricted
 Rights clause in FAR 52.227-19.
  
 Gaussian, Inc.
 340 Quinnipiac St., Bldg. 40, Wallingford CT 06492
  
  
 ---------------------------------------------------------------
 Warning -- This program may not be used in any manner that
 competes with the business of Gaussian, Inc. or will provide
 assistance to any competitor of Gaussian, Inc.  The licensee
 of this program is prohibited from giving any competitor of
 Gaussian, Inc. access to this program.  By using this program,
 the user acknowledges that Gaussian, Inc. is engaged in the
 business of creating and licensing software in the field of
 computational chemistry and represents and warrants to the
 licensee that it is not a competitor of Gaussian, Inc. and that
 it will not use this program in any manner prohibited above.
 ---------------------------------------------------------------
  

 Cite this work as:
 Gaussian 16, Revision C.01,
 M. J. Frisch, G. W. Trucks, H. B. Schlegel, G. E. Scuseria, 
 M. A. Robb, J. R. Cheeseman, G. Scalmani, V. Barone, 
 G. A. Petersson, H. Nakatsuji, X. Li, M. Caricato, A. V. Marenich, 
 J. Bloino, B. G. Janesko, R. Gomperts, B. Mennucci, H. P. Hratchian, 
 J. V. Ortiz, A. F. Izmaylov, J. L. Sonnenberg, D. Williams-Young, 
 F. Ding, F. Lipparini, F. Egidi, J. Goings, B. Peng, A. Petrone, 
 T. Henderson, D. Ranasinghe, V. G. Zakrzewski, J. Gao, N. Rega, 
 G. Zheng, W. Liang, M. Hada, M. Ehara, K. Toyota, R. Fukuda, 
 J. Hasegawa, M. Ishida, T. Nakajima, Y. Honda, O. Kitao, H. Nakai, 
 T. Vreven, K. Throssell, J. A. Montgomery, Jr., J. E. Peralta, 
 F. Ogliaro, M. J. Bearpark, J. J. Heyd, E. N. Brothers, K. N. Kudin, 
 V. N. Staroverov, T. A. Keith, R. Kobayashi, J. Normand, 
 K. Raghavachari, A. P. Rendell, J. C. Burant, S. S. Iyengar, 
 J. Tomasi, M. Cossi, J. M. Millam, M. Klene, C. Adamo, R. Cammi, 
 J. W. Ochterski, R. L. Martin, K. Morokuma, O. Farkas, 
 J. B. Foresman, and D. J. Fox, Gaussian, Inc., Wallingford CT, 2019.
 
 ******************************************
 Gaussian 16:  ES64L-G16RevC.01  3-Jul-2019
                24-May-2025 
 ******************************************
 %mem=28GB
 %nprocshared=8
 Will use up to    8 processors via shared memory.
 ----------------------------------------------------------------------
 #P M062X/Def2TZVPP Symm(None) scf(xqc) pop(None) freq opt(CalcFC, Tigh
 t)
 ----------------------------------------------------------------------
 1/7=10,10=4,18=20,19=15,26=3,38=1/1,3;
 2/9=110,12=2,15=3,17=6,18=5,40=1/2;
 3/5=44,7=202,11=2,25=1,30=1,71=2,74=-55,140=1/1,2,3;
 4//1;
 5/5=2,8=3,13=1,38=5/2,8;
 8/6=4,10=90,11=11/1;
 11/6=1,8=1,9=11,15=111,16=1,31=1/1,2,10;
 10/6=1,13=1,31=1/2;
 7/10=1,25=1,30=1/1,2,3,16;
 1/7=10,10=4,18=20,19=15,26=3/3(2);
 2/9=110,15=3/2;
 99//99;
 2/9=110,15=3/2;
 3/5=44,7=202,11=2,25=1,30=1,71=1,74=-55/1,2,3;
 4/5=5,16=3,69=1/1;
 5/5=2,8=3,13=1,38=5/2,8;
 7/30=1/1,2,3,16;
 1/7=10,18=20,19=15,26=3/3(-5);
 2/9=110,15=3/2;
 99/9=1/99;
 Leave Link    1 at Sat May 24 08:08:55 2025, MaxMem=  3758096384 cpu:               0.0 elap:               0.0
 (Enter /apps/easybuild-2022/easybuild/software/Compiler/NVHPC/22.11-CUDA-11.7.0/Gaussian/g16c01-CUDA-11.7.0/g16/l101.exe)
 ------------------------------
 Gaussian input prepared by ASE
 ------------------------------
 Symbolic Z-matrix:
 Charge =  0 Multiplicity = 1
 C                     2.54706   0.08539  -2.62814 
 C                     2.51318  -0.52898  -1.26566 
 F                    -0.38154   0.54431  -1.22828 
 F                     2.73558  -1.85857  -1.28702 
 S                     1.65752   0.        0. 
 O                     0.        0.        0. 
 O                     1.86982  -0.67224   1.22528 
 O                     1.77927   1.54814   0. 
 F                     2.42184   1.41847  -2.5763 
 F                     3.71364  -0.19399  -3.20763 
 F                     1.59299  -0.37465  -3.43985 
 H                     2.66302   1.82601  -0.28461 
 
 ITRead=  0  0  0  0  0  0  0  0  0  0  0  0
 MicOpt= -1 -1 -1 -1 -1 -1 -1 -1 -1 -1 -1 -1
 NAtoms=     12 NQM=       12 NQMF=       0 NMMI=      0 NMMIF=      0
                NMic=       0 NMicF=      0.
                    Isotopes and Nuclear Properties:
 (Nuclear quadrupole moments (NQMom) in fm**2, nuclear magnetic moments (NMagM)
  in nuclear magnetons)

  Atom         1           2           3           4           5           6           7           8           9          10
 IAtWgt=          12          12          19          19          32          16          16          16          19          19
 AtmWgt=  12.0000000  12.0000000  18.9984032  18.9984032  31.9720718  15.9949146  15.9949146  15.9949146  18.9984032  18.9984032
 NucSpn=           0           0           1           1           0           0           0           0           1           1
 AtZEff=  -0.0000000  -0.0000000  -0.0000000  -0.0000000  -0.0000000  -0.0000000  -0.0000000  -0.0000000  -0.0000000  -0.0000000
 NQMom=    0.0000000   0.0000000   0.0000000   0.0000000   0.0000000   0.0000000   0.0000000   0.0000000   0.0000000   0.0000000
 NMagM=    0.0000000   0.0000000   2.6288670   2.6288670   0.0000000   0.0000000   0.0000000   0.0000000   2.6288670   2.6288670
 AtZNuc=   6.0000000   6.0000000   9.0000000   9.0000000  16.0000000   8.0000000   8.0000000   8.0000000   9.0000000   9.0000000

  Atom        11          12
 IAtWgt=          19           1
 AtmWgt=  18.9984032   1.0078250
 NucSpn=           1           1
 AtZEff=  -0.0000000  -0.0000000
 NQMom=    0.0000000   0.0000000
 NMagM=    2.6288670   2.7928460
 AtZNuc=   9.0000000   1.0000000
 Leave Link  101 at Sat May 24 08:08:55 2025, MaxMem=  3758096384 cpu:               0.3 elap:               0.2
 (Enter /apps/easybuild-2022/easybuild/software/Compiler/NVHPC/22.11-CUDA-11.7.0/Gaussian/g16c01-CUDA-11.7.0/g16/l103.exe)

 GradGradGradGradGradGradGradGradGradGradGradGradGradGradGradGradGradGrad
 Berny optimization.
 Initialization pass.
                           ----------------------------
                           !    Initial Parameters    !
                           ! (Angstroms and Degrees)  !
 --------------------------                            --------------------------
 ! Name  Definition              Value          Derivative Info.                !
 --------------------------------------------------------------------------------
 ! R1    R(1,2)                  1.495          calculate D2E/DX2 analytically  !
 ! R2    R(1,9)                  1.34           calculate D2E/DX2 analytically  !
 ! R3    R(1,10)                 1.3322         calculate D2E/DX2 analytically  !
 ! R4    R(1,11)                 1.3345         calculate D2E/DX2 analytically  !
 ! R5    R(2,4)                  1.3482         calculate D2E/DX2 analytically  !
 ! R6    R(2,5)                  1.6167         calculate D2E/DX2 analytically  !
 ! R7    R(3,6)                  1.3966         calculate D2E/DX2 analytically  !
 ! R8    R(5,6)                  1.6575         calculate D2E/DX2 analytically  !
 ! R9    R(5,7)                  1.4136         calculate D2E/DX2 analytically  !
 ! R10   R(5,8)                  1.5529         calculate D2E/DX2 analytically  !
 ! R11   R(8,12)                 0.9691         calculate D2E/DX2 analytically  !
 ! A1    A(2,1,9)              111.8063         calculate D2E/DX2 analytically  !
 ! A2    A(2,1,10)             109.2748         calculate D2E/DX2 analytically  !
 ! A3    A(2,1,11)             113.3587         calculate D2E/DX2 analytically  !
 ! A4    A(9,1,10)             107.8963         calculate D2E/DX2 analytically  !
 ! A5    A(9,1,11)             107.4389         calculate D2E/DX2 analytically  !
 ! A6    A(10,1,11)            106.8094         calculate D2E/DX2 analytically  !
 ! A7    A(1,2,4)              112.7742         calculate D2E/DX2 analytically  !
 ! A8    A(1,2,5)              126.228          calculate D2E/DX2 analytically  !
 ! A9    A(4,2,5)              114.984          calculate D2E/DX2 analytically  !
 ! A10   A(2,5,6)              121.9546         calculate D2E/DX2 analytically  !
 ! A11   A(2,5,7)              116.3258         calculate D2E/DX2 analytically  !
 ! A12   A(2,5,8)              106.5402         calculate D2E/DX2 analytically  !
 ! A13   A(6,5,7)               98.6375         calculate D2E/DX2 analytically  !
 ! A14   A(6,5,8)               94.4966         calculate D2E/DX2 analytically  !
 ! A15   A(7,5,8)              117.5361         calculate D2E/DX2 analytically  !
 ! A16   A(3,6,5)              105.8544         calculate D2E/DX2 analytically  !
 ! A17   A(5,8,12)             110.936          calculate D2E/DX2 analytically  !
 ! D1    D(9,1,2,4)           -175.4375         calculate D2E/DX2 analytically  !
 ! D2    D(9,1,2,5)             33.4645         calculate D2E/DX2 analytically  !
 ! D3    D(10,1,2,4)           -56.0609         calculate D2E/DX2 analytically  !
 ! D4    D(10,1,2,5)           152.8412         calculate D2E/DX2 analytically  !
 ! D5    D(11,1,2,4)            62.9347         calculate D2E/DX2 analytically  !
 ! D6    D(11,1,2,5)           -88.1633         calculate D2E/DX2 analytically  !
 ! D7    D(1,2,5,6)             64.92           calculate D2E/DX2 analytically  !
 ! D8    D(1,2,5,7)           -174.6742         calculate D2E/DX2 analytically  !
 ! D9    D(1,2,5,8)            -41.4378         calculate D2E/DX2 analytically  !
 ! D10   D(4,2,5,6)            -85.6317         calculate D2E/DX2 analytically  !
 ! D11   D(4,2,5,7)             34.7741         calculate D2E/DX2 analytically  !
 ! D12   D(4,2,5,8)            168.0105         calculate D2E/DX2 analytically  !
 ! D13   D(2,5,6,3)            -46.5828         calculate D2E/DX2 analytically  !
 ! D14   D(7,5,6,3)           -175.1497         calculate D2E/DX2 analytically  !
 ! D15   D(8,5,6,3)             66.0995         calculate D2E/DX2 analytically  !
 ! D16   D(2,5,8,12)           -36.4229         calculate D2E/DX2 analytically  !
 ! D17   D(6,5,8,12)          -161.6734         calculate D2E/DX2 analytically  !
 ! D18   D(7,5,8,12)            96.152          calculate D2E/DX2 analytically  !
 --------------------------------------------------------------------------------
 Trust Radius=3.00D-01 FncErr=1.00D-07 GrdErr=1.00D-06 EigMax=2.50D+02 EigMin=1.00D-04
 Number of steps in this run=     56 maximum allowed number of steps=    100.
 GradGradGradGradGradGradGradGradGradGradGradGradGradGradGradGradGradGrad

 Leave Link  103 at Sat May 24 08:08:55 2025, MaxMem=  3758096384 cpu:               0.0 elap:               0.0
 (Enter /apps/easybuild-2022/easybuild/software/Compiler/NVHPC/22.11-CUDA-11.7.0/Gaussian/g16c01-CUDA-11.7.0/g16/l202.exe)
                          Input orientation:                          
 ---------------------------------------------------------------------
 Center     Atomic      Atomic             Coordinates (Angstroms)
 Number     Number       Type             X           Y           Z
 ---------------------------------------------------------------------
      1          6           0        2.547065    0.085387   -2.628141
      2          6           0        2.513182   -0.528980   -1.265663
      3          9           0       -0.381544    0.544311   -1.228279
      4          9           0        2.735583   -1.858567   -1.287016
      5         16           0        1.657522    0.000000    0.000000
      6          8           0        0.000000    0.000000    0.000000
      7          8           0        1.869820   -0.672236    1.225283
      8          8           0        1.779270    1.548142    0.000000
      9          9           0        2.421842    1.418471   -2.576300
     10          9           0        3.713644   -0.193985   -3.207627
     11          9           0        1.592988   -0.374651   -3.439851
     12          1           0        2.663022    1.826009   -0.284611
 ---------------------------------------------------------------------
                    Distance matrix (angstroms):
                    1          2          3          4          5
     1  C    0.000000
     2  C    1.494972   0.000000
     3  F    3.278258   3.087522   0.000000
     4  F    2.369200   1.348228   3.936210   0.000000
     5  S    2.775914   1.616749   2.441871   2.504575   0.000000
     6  O    3.660868   2.863181   1.396610   3.548816   1.657522
     7  O    3.985163   2.576673   3.545221   2.910080   1.413608
     8  O    3.104237   2.540662   2.680572   3.765183   1.552922
     9  F    1.339956   2.349186   3.231144   3.535486   3.038678
    10  F    1.332202   2.307500   4.607978   2.723267   3.814989
    11  F    1.334455   2.365939   3.103920   2.853459   3.460795
    12  H    2.921531   2.555560   3.435497   3.819185   2.103887
                    6          7          8          9         10
     6  O    0.000000
     7  O    2.334405   0.000000
     8  O    2.358505   2.537635   0.000000
     9  F    3.809816   4.373535   2.658389   0.000000
    10  F    4.910973   4.824842   4.131063   2.160404   0.000000
    11  F    3.809271   4.682805   3.945175   2.155924   2.140969
    12  H    3.241450   3.024925   0.969139   2.340105   3.705160
                   11         12
    11  F    0.000000
    12  H    3.992920   0.000000
 Symmetry turned off by external request.
 Stoichiometry    C2HF5O3S
 Rotational constants (GHZ):           1.4706116           0.8186397           0.7129142
 Leave Link  202 at Sat May 24 08:08:55 2025, MaxMem=  3758096384 cpu:               0.0 elap:               0.0
 (Enter /apps/easybuild-2022/easybuild/software/Compiler/NVHPC/22.11-CUDA-11.7.0/Gaussian/g16c01-CUDA-11.7.0/g16/l301.exe)
 Standard basis: def2TZVPP (5D, 7F)
 Ernie: Thresh=  0.10000D-02 Tol=  0.10000D-05 Strict=F.
   366 basis functions,   596 primitive gaussians,   423 cartesian basis functions
    49 alpha electrons       49 beta electrons
       nuclear repulsion energy       910.4200086369 Hartrees.
 IExCor= 4336 DFT=T Ex+Corr=M062X ExCW=0 ScaHFX=  0.540000
 ScaDFX=  1.000000  1.000000  1.000000  1.000000 ScalE2=  1.000000  1.000000
 IRadAn=      5 IRanWt=     -1 IRanGd=            0 ICorTp=0 IEmpDi=  4
 NAtoms=   12 NActive=   12 NUniq=   12 SFac= 1.00D+00 NAtFMM=   60 NAOKFM=F Big=F
 Integral buffers will be    131072 words long.
 Raffenetti 2 integral format.
 Two-electron integral symmetry is turned off.
 Leave Link  301 at Sat May 24 08:08:55 2025, MaxMem=  3758096384 cpu:               0.0 elap:               0.0
 (Enter /apps/easybuild-2022/easybuild/software/Compiler/NVHPC/22.11-CUDA-11.7.0/Gaussian/g16c01-CUDA-11.7.0/g16/l302.exe)
 NPDir=0 NMtPBC=     1 NCelOv=     1 NCel=       1 NClECP=     1 NCelD=      1
         NCelK=      1 NCelE2=     1 NClLst=     1 CellRange=     0.0.
 One-electron integrals computed using PRISM.
   1 Symmetry operations used in ECPInt.
 ECPInt:  NShTT=    8515 NPrTT=   27988 LenC2=    7962 LenP2D=   19246.
 LDataN:  DoStor=T MaxTD1= 6 Len=  172
 NBasis=   366 RedAO= T EigKep=  3.84D-04  NBF=   366
 NBsUse=   366 1.00D-06 EigRej= -1.00D+00 NBFU=   366
 Precomputing XC quadrature grid using
 IXCGrd= 4 IRadAn=           5 IRanWt=          -1 IRanGd=           0 AccXCQ= 0.00D+00.
 Generated NRdTot=       0 NPtTot=           0 NUsed=           0 NTot=          32
 NSgBfM=   419   419   419   419   419 MxSgAt=    12 MxSgA2=    12.
 Leave Link  302 at Sat May 24 08:08:55 2025, MaxMem=  3758096384 cpu:               0.7 elap:               0.2
 (Enter /apps/easybuild-2022/easybuild/software/Compiler/NVHPC/22.11-CUDA-11.7.0/Gaussian/g16c01-CUDA-11.7.0/g16/l303.exe)
 DipDrv:  MaxL=1.
 Leave Link  303 at Sat May 24 08:08:55 2025, MaxMem=  3758096384 cpu:               0.1 elap:               0.0
 (Enter /apps/easybuild-2022/easybuild/software/Compiler/NVHPC/22.11-CUDA-11.7.0/Gaussian/g16c01-CUDA-11.7.0/g16/l401.exe)
 ExpMin= 9.52D-02 ExpMax= 6.07D+04 ExpMxC= 2.07D+03 IAcc=3 IRadAn=         5 AccDes= 0.00D+00
 Harris functional with IExCor= 1009 and IRadAn=       5 diagonalized for initial guess.
 HarFok:  IExCor= 1009 AccDes= 0.00D+00 IRadAn=         5 IDoV= 1 UseB2=F ITyADJ=14
 ICtDFT=  3500011 ScaDFX=  1.000000  1.000000  1.000000  1.000000
 FoFCou: FMM=F IPFlag=           0 FMFlag=      100000 FMFlg1=           0
         NFxFlg=           0 DoJE=T BraDBF=F KetDBF=T FulRan=T
         wScrn=  0.000000 ICntrl=       500 IOpCl=  0 I1Cent=   200000004 NGrid=           0
         NMat0=    1 NMatS0=      1 NMatT0=    0 NMatD0=    1 NMtDS0=    0 NMtDT0=    0
 Symmetry not used in FoFCou.
 Harris En= -1199.13187906155    
 JPrj=0 DoOrth=F DoCkMO=F.
 Leave Link  401 at Sat May 24 08:08:56 2025, MaxMem=  3758096384 cpu:               4.2 elap:               0.6
 (Enter /apps/easybuild-2022/easybuild/software/Compiler/NVHPC/22.11-CUDA-11.7.0/Gaussian/g16c01-CUDA-11.7.0/g16/l502.exe)
 Keep R1 ints in memory in canonical form, NReq=2293446996.
 FoFCou: FMM=F IPFlag=           0 FMFlag=           0 FMFlg1=           0
         NFxFlg=           0 DoJE=F BraDBF=F KetDBF=F FulRan=T
         wScrn=  0.000000 ICntrl=       600 IOpCl=  0 I1Cent=           0 NGrid=           0
         NMat0=    1 NMatS0=  67161 NMatT0=    0 NMatD0=    1 NMtDS0=    0 NMtDT0=    0
 Symmetry not used in FoFCou.
 Two-electron integral symmetry not used.
 Closed shell SCF:
 Using DIIS extrapolation, IDIIS=  1040.
 NGot=  3758096384 LenX=  1502398672 LenY=  1502219302
 Requested convergence on RMS density matrix=1.00D-08 within  32 cycles.
 Requested convergence on MAX density matrix=1.00D-06.
 Requested convergence on             energy=1.00D-06.
 No special actions if energy rises.
 Integral accuracy reduced to 1.0D-05 until final iterations.

 Cycle   1  Pass 0  IDiag  1:
 E= -1199.46058182535    
 DIIS: error= 2.01D-02 at cycle   1 NSaved=   1.
 NSaved= 1 IEnMin= 1 EnMin= -1199.46058182535     IErMin= 1 ErrMin= 2.01D-02
 ErrMax= 2.01D-02  0.00D+00 EMaxC= 1.00D-01 BMatC= 5.12D-01 BMatP= 5.12D-01
 IDIUse=3 WtCom= 7.99D-01 WtEn= 2.01D-01
 Coeff-Com:  0.100D+01
 Coeff-En:   0.100D+01
 Coeff:      0.100D+01
 Gap=     0.272 Goal=   None    Shift=    0.000
 GapD=    0.272 DampG=1.000 DampE=0.500 DampFc=0.5000 IDamp=-1.
 Damping current iteration by 5.00D-01
 RMSDP=2.23D-03 MaxDP=2.61D-01              OVMax= 2.20D-01

 Cycle   2  Pass 0  IDiag  1:
 E= -1199.54959405769     Delta-E=       -0.089012232349 Rises=F Damp=T
 DIIS: error= 5.58D-03 at cycle   2 NSaved=   2.
 NSaved= 2 IEnMin= 2 EnMin= -1199.54959405769     IErMin= 2 ErrMin= 5.58D-03
 ErrMax= 5.58D-03  0.00D+00 EMaxC= 1.00D-01 BMatC= 5.59D-02 BMatP= 5.12D-01
 IDIUse=3 WtCom= 9.44D-01 WtEn= 5.58D-02
 Coeff-Com:  0.735D-01 0.926D+00
 Coeff-En:   0.263D+00 0.737D+00
 Coeff:      0.841D-01 0.916D+00
 Gap=     0.339 Goal=   None    Shift=    0.000
 RMSDP=6.68D-04 MaxDP=4.99D-02 DE=-8.90D-02 OVMax= 1.32D-01

 Cycle   3  Pass 0  IDiag  1:
 E= -1199.70101486251     Delta-E=       -0.151420804812 Rises=F Damp=F
 DIIS: error= 6.39D-03 at cycle   3 NSaved=   3.
 NSaved= 3 IEnMin= 3 EnMin= -1199.70101486251     IErMin= 2 ErrMin= 5.58D-03
 ErrMax= 6.39D-03  0.00D+00 EMaxC= 1.00D-01 BMatC= 2.51D-02 BMatP= 5.59D-02
 IDIUse=3 WtCom= 9.36D-01 WtEn= 6.39D-02
 Coeff-Com: -0.774D-01 0.379D+00 0.699D+00
 Coeff-En:   0.000D+00 0.000D+00 0.100D+01
 Coeff:     -0.725D-01 0.354D+00 0.718D+00
 Gap=     0.320 Goal=   None    Shift=    0.000
 RMSDP=3.39D-04 MaxDP=1.94D-02 DE=-1.51D-01 OVMax= 4.28D-02

 Cycle   4  Pass 0  IDiag  1:
 E= -1199.71529898270     Delta-E=       -0.014284120195 Rises=F Damp=F
 DIIS: error= 2.56D-03 at cycle   4 NSaved=   4.
 NSaved= 4 IEnMin= 4 EnMin= -1199.71529898270     IErMin= 4 ErrMin= 2.56D-03
 ErrMax= 2.56D-03  0.00D+00 EMaxC= 1.00D-01 BMatC= 5.27D-03 BMatP= 2.51D-02
 IDIUse=3 WtCom= 9.74D-01 WtEn= 2.56D-02
 Coeff-Com: -0.465D-01 0.103D+00 0.383D+00 0.560D+00
 Coeff-En:   0.000D+00 0.000D+00 0.132D+00 0.868D+00
 Coeff:     -0.453D-01 0.101D+00 0.377D+00 0.568D+00
 Gap=     0.316 Goal=   None    Shift=    0.000
 RMSDP=1.13D-04 MaxDP=6.19D-03 DE=-1.43D-02 OVMax= 1.22D-02

 Cycle   5  Pass 0  IDiag  1:
 E= -1199.71875134613     Delta-E=       -0.003452363426 Rises=F Damp=F
 DIIS: error= 2.95D-04 at cycle   5 NSaved=   5.
 NSaved= 5 IEnMin= 5 EnMin= -1199.71875134613     IErMin= 5 ErrMin= 2.95D-04
 ErrMax= 2.95D-04  0.00D+00 EMaxC= 1.00D-01 BMatC= 1.12D-04 BMatP= 5.27D-03
 IDIUse=3 WtCom= 9.97D-01 WtEn= 2.95D-03
 Coeff-Com: -0.120D-01 0.192D-01 0.937D-01 0.206D+00 0.693D+00
 Coeff-En:   0.000D+00 0.000D+00 0.000D+00 0.000D+00 0.100D+01
 Coeff:     -0.120D-01 0.192D-01 0.934D-01 0.205D+00 0.694D+00
 Gap=     0.316 Goal=   None    Shift=    0.000
 RMSDP=2.33D-05 MaxDP=1.03D-03 DE=-3.45D-03 OVMax= 2.14D-03

 Cycle   6  Pass 0  IDiag  1:
 E= -1199.71882454614     Delta-E=       -0.000073200009 Rises=F Damp=F
 DIIS: error= 1.05D-04 at cycle   6 NSaved=   6.
 NSaved= 6 IEnMin= 6 EnMin= -1199.71882454614     IErMin= 6 ErrMin= 1.05D-04
 ErrMax= 1.05D-04  0.00D+00 EMaxC= 1.00D-01 BMatC= 1.36D-05 BMatP= 1.12D-04
 IDIUse=3 WtCom= 9.99D-01 WtEn= 1.05D-03
 Coeff-Com: -0.213D-02 0.135D-02 0.107D-01 0.452D-01 0.308D+00 0.637D+00
 Coeff-En:   0.000D+00 0.000D+00 0.000D+00 0.000D+00 0.000D+00 0.100D+01
 Coeff:     -0.213D-02 0.135D-02 0.107D-01 0.452D-01 0.308D+00 0.637D+00
 Gap=     0.316 Goal=   None    Shift=    0.000
 RMSDP=8.08D-06 MaxDP=3.56D-04 DE=-7.32D-05 OVMax= 1.14D-03

 Initial convergence to 1.0D-05 achieved.  Increase integral accuracy.
 Cycle   7  Pass 1  IDiag  1:
 E= -1199.71883915257     Delta-E=       -0.000014606433 Rises=F Damp=F
 DIIS: error= 3.48D-05 at cycle   1 NSaved=   1.
 NSaved= 1 IEnMin= 1 EnMin= -1199.71883915257     IErMin= 1 ErrMin= 3.48D-05
 ErrMax= 3.48D-05  0.00D+00 EMaxC= 1.00D-01 BMatC= 1.81D-06 BMatP= 1.81D-06
 IDIUse=1 WtCom= 1.00D+00 WtEn= 0.00D+00
 Coeff-Com:  0.100D+01
 Coeff:      0.100D+01
 Gap=     0.316 Goal=   None    Shift=    0.000
 RMSDP=8.08D-06 MaxDP=3.56D-04 DE=-1.46D-05 OVMax= 9.43D-04

 Cycle   8  Pass 1  IDiag  1:
 E= -1199.71883959429     Delta-E=       -0.000000441719 Rises=F Damp=F
 DIIS: error= 4.26D-05 at cycle   2 NSaved=   2.
 NSaved= 2 IEnMin= 2 EnMin= -1199.71883959429     IErMin= 1 ErrMin= 3.48D-05
 ErrMax= 4.26D-05  0.00D+00 EMaxC= 1.00D-01 BMatC= 1.87D-06 BMatP= 1.81D-06
 IDIUse=1 WtCom= 1.00D+00 WtEn= 0.00D+00
 Coeff-Com:  0.505D+00 0.495D+00
 Coeff:      0.505D+00 0.495D+00
 Gap=     0.316 Goal=   None    Shift=    0.000
 RMSDP=2.81D-06 MaxDP=1.57D-04 DE=-4.42D-07 OVMax= 4.33D-04

 Cycle   9  Pass 1  IDiag  1:
 E= -1199.71884089747     Delta-E=       -0.000001303180 Rises=F Damp=F
 DIIS: error= 1.69D-05 at cycle   3 NSaved=   3.
 NSaved= 3 IEnMin= 3 EnMin= -1199.71884089747     IErMin= 3 ErrMin= 1.69D-05
 ErrMax= 1.69D-05  0.00D+00 EMaxC= 1.00D-01 BMatC= 1.38D-07 BMatP= 1.81D-06
 IDIUse=1 WtCom= 1.00D+00 WtEn= 0.00D+00
 Coeff-Com:  0.413D-01 0.201D+00 0.758D+00
 Coeff:      0.413D-01 0.201D+00 0.758D+00
 Gap=     0.316 Goal=   None    Shift=    0.000
 RMSDP=1.26D-06 MaxDP=8.16D-05 DE=-1.30D-06 OVMax= 1.39D-04

 Cycle  10  Pass 1  IDiag  1:
 E= -1199.71884099198     Delta-E=       -0.000000094515 Rises=F Damp=F
 DIIS: error= 7.23D-06 at cycle   4 NSaved=   4.
 NSaved= 4 IEnMin= 4 EnMin= -1199.71884099198     IErMin= 4 ErrMin= 7.23D-06
 ErrMax= 7.23D-06  0.00D+00 EMaxC= 1.00D-01 BMatC= 3.74D-08 BMatP= 1.38D-07
 IDIUse=1 WtCom= 1.00D+00 WtEn= 0.00D+00
 Coeff-Com: -0.413D-01 0.461D-01 0.420D+00 0.575D+00
 Coeff:     -0.413D-01 0.461D-01 0.420D+00 0.575D+00
 Gap=     0.316 Goal=   None    Shift=    0.000
 RMSDP=4.55D-07 MaxDP=3.02D-05 DE=-9.45D-08 OVMax= 5.67D-05

 Cycle  11  Pass 1  IDiag  1:
 E= -1199.71884101855     Delta-E=       -0.000000026569 Rises=F Damp=F
 DIIS: error= 8.23D-07 at cycle   5 NSaved=   5.
 NSaved= 5 IEnMin= 5 EnMin= -1199.71884101855     IErMin= 5 ErrMin= 8.23D-07
 ErrMax= 8.23D-07  0.00D+00 EMaxC= 1.00D-01 BMatC= 1.01D-09 BMatP= 3.74D-08
 IDIUse=1 WtCom= 1.00D+00 WtEn= 0.00D+00
 Coeff-Com: -0.995D-02-0.148D-01 0.690D-02 0.971D-01 0.921D+00
 Coeff:     -0.995D-02-0.148D-01 0.690D-02 0.971D-01 0.921D+00
 Gap=     0.316 Goal=   None    Shift=    0.000
 RMSDP=2.22D-07 MaxDP=1.61D-05 DE=-2.66D-08 OVMax= 3.63D-05

 Cycle  12  Pass 1  IDiag  1:
 E= -1199.71884102046     Delta-E=       -0.000000001904 Rises=F Damp=F
 DIIS: error= 6.61D-07 at cycle   6 NSaved=   6.
 NSaved= 6 IEnMin= 6 EnMin= -1199.71884102046     IErMin= 6 ErrMin= 6.61D-07
 ErrMax= 6.61D-07  0.00D+00 EMaxC= 1.00D-01 BMatC= 4.03D-10 BMatP= 1.01D-09
 IDIUse=1 WtCom= 1.00D+00 WtEn= 0.00D+00
 Coeff-Com:  0.167D-02-0.159D-01-0.629D-01-0.468D-01 0.455D+00 0.669D+00
 Coeff:      0.167D-02-0.159D-01-0.629D-01-0.468D-01 0.455D+00 0.669D+00
 Gap=     0.316 Goal=   None    Shift=    0.000
 RMSDP=7.01D-08 MaxDP=3.08D-06 DE=-1.90D-09 OVMax= 1.38D-05

 Cycle  13  Pass 1  IDiag  1:
 E= -1199.71884102082     Delta-E=       -0.000000000358 Rises=F Damp=F
 DIIS: error= 1.96D-07 at cycle   7 NSaved=   7.
 NSaved= 7 IEnMin= 7 EnMin= -1199.71884102082     IErMin= 7 ErrMin= 1.96D-07
 ErrMax= 1.96D-07  0.00D+00 EMaxC= 1.00D-01 BMatC= 3.61D-11 BMatP= 4.03D-10
 IDIUse=1 WtCom= 1.00D+00 WtEn= 0.00D+00
 Coeff-Com:  0.221D-02-0.523D-02-0.294D-01-0.356D-01 0.729D-01 0.263D+00
 Coeff-Com:  0.732D+00
 Coeff:      0.221D-02-0.523D-02-0.294D-01-0.356D-01 0.729D-01 0.263D+00
 Coeff:      0.732D+00
 Gap=     0.316 Goal=   None    Shift=    0.000
 RMSDP=2.42D-08 MaxDP=7.02D-07 DE=-3.58D-10 OVMax= 5.66D-06

 Cycle  14  Pass 1  IDiag  1:
 E= -1199.71884102080     Delta-E=        0.000000000012 Rises=F Damp=F
 DIIS: error= 5.06D-08 at cycle   8 NSaved=   8.
 NSaved= 8 IEnMin= 7 EnMin= -1199.71884102082     IErMin= 8 ErrMin= 5.06D-08
 ErrMax= 5.06D-08  0.00D+00 EMaxC= 1.00D-01 BMatC= 2.90D-12 BMatP= 3.61D-11
 IDIUse=1 WtCom= 1.00D+00 WtEn= 0.00D+00
 Coeff-Com:  0.244D-03 0.645D-03 0.909D-03-0.153D-02-0.323D-01-0.299D-01
 Coeff-Com:  0.136D+00 0.926D+00
 Coeff:      0.244D-03 0.645D-03 0.909D-03-0.153D-02-0.323D-01-0.299D-01
 Coeff:      0.136D+00 0.926D+00
 Gap=     0.316 Goal=   None    Shift=    0.000
 RMSDP=9.48D-09 MaxDP=2.38D-07 DE= 1.23D-11 OVMax= 2.17D-06

 SCF Done:  E(RM062X) =  -1199.71884102     A.U. after   14 cycles
            NFock= 14  Conv=0.95D-08     -V/T= 2.0028
 KE= 1.196320214615D+03 PE=-4.666836162034D+03 EE= 1.360377097762D+03
 Leave Link  502 at Sat May 24 08:09:36 2025, MaxMem=  3758096384 cpu:             160.6 elap:              39.8
 (Enter /apps/easybuild-2022/easybuild/software/Compiler/NVHPC/22.11-CUDA-11.7.0/Gaussian/g16c01-CUDA-11.7.0/g16/l508.exe)
 QCSCF skips out because SCF is already converged.
 Leave Link  508 at Sat May 24 08:09:36 2025, MaxMem=  3758096384 cpu:               0.0 elap:               0.0
 (Enter /apps/easybuild-2022/easybuild/software/Compiler/NVHPC/22.11-CUDA-11.7.0/Gaussian/g16c01-CUDA-11.7.0/g16/l801.exe)
 DoSCS=F DFT=T ScalE2(SS,OS)=  1.000000  1.000000
 Range of M.O.s used for correlation:     1   366
 NBasis=   366 NAE=    49 NBE=    49 NFC=     0 NFV=     0
 NROrb=    366 NOA=    49 NOB=    49 NVA=   317 NVB=   317

 **** Warning!!: The largest alpha MO coefficient is  0.18957581D+02

 Leave Link  801 at Sat May 24 08:09:36 2025, MaxMem=  3758096384 cpu:               0.0 elap:               0.0
 (Enter /apps/easybuild-2022/easybuild/software/Compiler/NVHPC/22.11-CUDA-11.7.0/Gaussian/g16c01-CUDA-11.7.0/g16/l1101.exe)
 Using compressed storage, NAtomX=    12.
 Will process     13 centers per pass.
   1 Symmetry operations used in ECPInt.
 ECPInt:  NShTT=    8515 NPrTT=   27988 LenC2=    7962 LenP2D=   19246.
 LDataN:  DoStor=T MaxTD1= 7 Len=  274
 Leave Link 1101 at Sat May 24 08:09:36 2025, MaxMem=  3758096384 cpu:               1.1 elap:               0.2
 (Enter /apps/easybuild-2022/easybuild/software/Compiler/NVHPC/22.11-CUDA-11.7.0/Gaussian/g16c01-CUDA-11.7.0/g16/l1102.exe)
 Symmetrizing basis deriv contribution to polar:
 IMax=3 JMax=2 DiffMx= 0.00D+00
 Leave Link 1102 at Sat May 24 08:09:36 2025, MaxMem=  3758096384 cpu:               0.1 elap:               0.0
 (Enter /apps/easybuild-2022/easybuild/software/Compiler/NVHPC/22.11-CUDA-11.7.0/Gaussian/g16c01-CUDA-11.7.0/g16/l1110.exe)
 Forming Gx(P) for the SCF density, NAtomX=    12.
 Integral derivatives from FoFJK, PRISM(SPDF).
 Do as many integral derivatives as possible in FoFJK.
 G2DrvN: MDV=    3758095012.
 G2DrvN: will do    13 centers at a time, making    1 passes.
 Calling FoFCou, ICntrl=  3107 FMM=F I1Cent=   0 AccDes= 0.00D+00.
 FoFJK:  IHMeth= 1 ICntrl=    3107 DoSepK=F KAlg= 0 I1Cent=           0 FoldK=F
 IRaf=         0 NMat=       1 IRICut=       1 DoRegI=T DoRafI=F ISym2E= 0 IDoP0=0 IntGTp=1.
 FoFCou: FMM=F IPFlag=           0 FMFlag=      100000 FMFlg1=           0
         NFxFlg=           0 DoJE=F BraDBF=F KetDBF=F FulRan=T
         wScrn=  0.000000 ICntrl=      3107 IOpCl=  0 I1Cent=           0 NGrid=           0
         NMat0=    1 NMatS0=      1 NMatT0=    0 NMatD0=    1 NMtDS0=    0 NMtDT0=    0
 Symmetry not used in FoFCou.
 End of G2Drv F.D. properties file   721 does not exist.
 End of G2Drv F.D. properties file   722 does not exist.
 End of G2Drv F.D. properties file   788 does not exist.
 Leave Link 1110 at Sat May 24 08:10:33 2025, MaxMem=  3758096384 cpu:             451.1 elap:              56.8
 (Enter /apps/easybuild-2022/easybuild/software/Compiler/NVHPC/22.11-CUDA-11.7.0/Gaussian/g16c01-CUDA-11.7.0/g16/l1002.exe)
 Minotr:  Closed shell wavefunction.
          IDoAtm=111111111111
          Direct CPHF calculation.
          Differentiating once with respect to nuclear coordinates.
          Requested convergence is 1.0D-08 RMS, and 1.0D-07 maximum.
          Secondary convergence is 1.0D-12 RMS, and 1.0D-12 maximum.
          NewPWx=T KeepS1=F KeepF1=F KeepIn=T MapXYZ=F SortEE=F KeepMc=T.
         3598 words used for storage of precomputed grid.
 Keep R1 ints in memory in canonical form, NReq=2293452904.
 FoFCou: FMM=F IPFlag=           0 FMFlag=           0 FMFlg1=           0
         NFxFlg=           0 DoJE=F BraDBF=F KetDBF=F FulRan=T
         wScrn=  0.000000 ICntrl=       600 IOpCl=  0 I1Cent=           0 NGrid=           0
         NMat0=    1 NMatS0=  67161 NMatT0=    0 NMatD0=    1 NMtDS0=    0 NMtDT0=    0
 Symmetry not used in FoFCou.
 Two-electron integral symmetry not used.
          MDV=    3758096384 using IRadAn=       1.
          Solving linear equations simultaneously, MaxMat=       0.
          There are    39 degrees of freedom in the 1st order CPHF.  IDoFFX=6 NUNeed=     0.
     33 vectors produced by pass  0 Test12= 3.98D-14 2.56D-09 XBig12= 1.42D-01 1.27D-01.
 AX will form    33 AO Fock derivatives at one time.
     33 vectors produced by pass  1 Test12= 3.98D-14 2.56D-09 XBig12= 2.58D-02 4.22D-02.
     33 vectors produced by pass  2 Test12= 3.98D-14 2.56D-09 XBig12= 1.47D-03 1.02D-02.
     33 vectors produced by pass  3 Test12= 3.98D-14 2.56D-09 XBig12= 3.12D-05 9.51D-04.
     33 vectors produced by pass  4 Test12= 3.98D-14 2.56D-09 XBig12= 4.77D-07 1.11D-04.
     33 vectors produced by pass  5 Test12= 3.98D-14 2.56D-09 XBig12= 5.56D-09 1.05D-05.
     33 vectors produced by pass  6 Test12= 3.98D-14 2.56D-09 XBig12= 5.67D-11 8.73D-07.
     20 vectors produced by pass  7 Test12= 3.98D-14 2.56D-09 XBig12= 3.26D-13 5.24D-08.
      8 vectors produced by pass  8 Test12= 3.98D-14 2.56D-09 XBig12= 1.69D-15 4.38D-09.
 InvSVY:  IOpt=1 It=  1 EMax= 1.89D-15
 Solved reduced A of dimension   259 with    33 vectors.
 End of Minotr F.D. properties file   721 does not exist.
 End of Minotr F.D. properties file   722 does not exist.
 End of Minotr F.D. properties file   788 does not exist.
 Leave Link 1002 at Sat May 24 08:11:57 2025, MaxMem=  3758096384 cpu:             660.6 elap:              83.8
 (Enter /apps/easybuild-2022/easybuild/software/Compiler/NVHPC/22.11-CUDA-11.7.0/Gaussian/g16c01-CUDA-11.7.0/g16/l701.exe)
 ... and contract with generalized density number  0.
 Compute integral second derivatives.
   1 Symmetry operations used in ECPInt.
 ECPInt:  NShTT=    8515 NPrTT=   27988 LenC2=    7962 LenP2D=   19246.
 LDataN:  DoStor=T MaxTD1= 8 Len=  415
 Leave Link  701 at Sat May 24 08:11:57 2025, MaxMem=  3758096384 cpu:               0.8 elap:               0.1
 (Enter /apps/easybuild-2022/easybuild/software/Compiler/NVHPC/22.11-CUDA-11.7.0/Gaussian/g16c01-CUDA-11.7.0/g16/l702.exe)
 L702 exits ... SP integral derivatives will be done elsewhere.
 Leave Link  702 at Sat May 24 08:11:57 2025, MaxMem=  3758096384 cpu:               0.0 elap:               0.0
 (Enter /apps/easybuild-2022/easybuild/software/Compiler/NVHPC/22.11-CUDA-11.7.0/Gaussian/g16c01-CUDA-11.7.0/g16/l703.exe)
 Integral derivatives from FoFJK, PRISM(SPDF).
 Compute integral second derivatives, UseDBF=F ICtDFT=           0.
 Calling FoFJK, ICntrl=    100127 FMM=F ISym2X=0 I1Cent= 0 IOpClX= 0 NMat=1 NMatS=1 NMatT=0.
 FoFJK:  IHMeth= 1 ICntrl=  100127 DoSepK=F KAlg= 0 I1Cent=           0 FoldK=F
 IRaf=         0 NMat=       1 IRICut=       1 DoRegI=T DoRafI=F ISym2E= 0 IDoP0=0 IntGTp=1.
 FoFCou: FMM=F IPFlag=           0 FMFlag=      100000 FMFlg1=         800
         NFxFlg=           0 DoJE=F BraDBF=F KetDBF=F FulRan=T
         wScrn=  0.000000 ICntrl=    100127 IOpCl=  0 I1Cent=           0 NGrid=           0
         NMat0=    1 NMatS0=      1 NMatT0=    0 NMatD0=    1 NMtDS0=    0 NMtDT0=    0
 Symmetry not used in FoFCou.
 Leave Link  703 at Sat May 24 08:13:59 2025, MaxMem=  3758096384 cpu:             972.4 elap:             122.3
 (Enter /apps/easybuild-2022/easybuild/software/Compiler/NVHPC/22.11-CUDA-11.7.0/Gaussian/g16c01-CUDA-11.7.0/g16/l716.exe)
 Dipole        = 3.89517952D-01 9.58235293D-01 1.33136094D-01
 Polarizability= 0.00000000D+00 0.00000000D+00 0.00000000D+00
                 0.00000000D+00 0.00000000D+00 0.00000000D+00
 -------------------------------------------------------------------
 Center     Atomic                   Forces (Hartrees/Bohr)
 Number     Number              X              Y              Z
 -------------------------------------------------------------------
      1        6          -0.000043462    0.000024145   -0.000014727
      2        6           0.000004445    0.000014028    0.000052611
      3        9          -0.000000602    0.000029044    0.000018152
      4        9          -0.000004103    0.000003665   -0.000024902
      5       16          -0.000048314   -0.000034235   -0.000005568
      6        8          -0.000002473    0.000000260   -0.000012582
      7        8           0.000010929   -0.000001998   -0.000018783
      8        8           0.000040866   -0.000011169   -0.000013179
      9        9           0.000012189   -0.000049560   -0.000021500
     10        9           0.000001738    0.000011848   -0.000024939
     11        9           0.000041931   -0.000001105    0.000023457
     12        1          -0.000013145    0.000015078    0.000041958
 -------------------------------------------------------------------
 Cartesian Forces:  Max     0.000052611 RMS     0.000024690
 Force constants in Cartesian coordinates: 
                1             2             3             4             5 
      1  0.532257D+00
      2 -0.491292D-02  0.567687D+00
      3 -0.121959D-01 -0.263145D-01  0.591098D+00
      4 -0.465724D-01  0.454278D-02  0.103768D-01  0.157924D+00
      5 -0.498108D-02 -0.890613D-01  0.762125D-01 -0.108414D+00  0.567224D+00
      6 -0.216798D-02  0.410677D-01 -0.178828D+00 -0.139651D+00  0.919912D-02
      7  0.878895D-04  0.125392D-03  0.621283D-03  0.171860D-02 -0.159929D-03
      8  0.926592D-03 -0.107444D-02  0.282444D-03 -0.138629D-02  0.324718D-03
      9 -0.358435D-02  0.187313D-02 -0.352369D-02  0.796107D-03 -0.312404D-02
     10 -0.293475D-02  0.622918D-02 -0.607069D-03 -0.269396D-01  0.537491D-01
     11  0.974830D-02 -0.421331D-01 -0.122709D-01  0.572156D-01 -0.353999D+00
     12 -0.457270D-02  0.288831D-01  0.202309D-02  0.151282D-01 -0.112668D-01
     13 -0.530140D-02 -0.196268D-01  0.250866D-01 -0.708771D-01  0.662336D-01
     14 -0.679424D-02  0.393060D-01 -0.139226D-01  0.385119D-01 -0.100869D+00
     15  0.224316D-01  0.466252D-02 -0.478076D-01  0.960594D-01 -0.966493D-01
     16 -0.659885D-02  0.540328D-02 -0.188115D-01 -0.202890D-04 -0.184052D-01
     17  0.683740D-03 -0.224317D-02  0.333830D-02  0.452959D-02  0.936220D-02
     18  0.538062D-02 -0.559528D-02  0.154846D-01  0.894571D-02  0.147778D-01
     19  0.350532D-02  0.788685D-02 -0.405000D-02 -0.225231D-02 -0.941643D-02
     20  0.406002D-02 -0.242621D-02 -0.213754D-02 -0.301666D-02  0.858921D-03
     21 -0.853752D-04 -0.987322D-02  0.122647D-01 -0.171032D-02  0.308566D-01
     22 -0.182506D-02 -0.183872D-02 -0.208493D-02 -0.593115D-02  0.134579D-01
     23 -0.183969D-02 -0.181738D-01  0.965386D-02  0.308110D-02 -0.127288D-01
     24 -0.981964D-03  0.925955D-02  0.176600D-02 -0.476829D-02 -0.210985D-01
     25 -0.743000D-01  0.164416D-01  0.165755D-02  0.735415D-02  0.354352D-02
     26  0.154784D-01 -0.279428D+00  0.200106D-01  0.563988D-02 -0.358727D-01
     27 -0.216069D-02  0.224951D-01 -0.856126D-01 -0.387415D-02  0.298968D-01
     28 -0.230493D+00  0.269366D-01  0.938665D-01 -0.149378D-01  0.885647D-02
     29  0.310131D-01 -0.818127D-01 -0.128470D-01 -0.386792D-02  0.671663D-02
     30  0.965784D-01 -0.153457D-01 -0.136446D+00  0.414332D-01 -0.900450D-02
     31 -0.170019D+00 -0.419894D-01 -0.917860D-01  0.244168D-02 -0.661278D-02
     32 -0.429540D-01 -0.925760D-01 -0.369384D-01  0.267956D-02  0.730057D-02
     33 -0.979977D-01 -0.398713D-01 -0.170804D+00 -0.238190D-01 -0.190135D-01
     34  0.219448D-02  0.802076D-03 -0.207333D-02 -0.190825D-02  0.214885D-02
     35 -0.428132D-03  0.193598D-02 -0.506667D-02  0.484456D-03  0.743476D-03
     36 -0.643897D-03 -0.112412D-01  0.386413D-03  0.108277D-02 -0.786137D-03
                6             7             8             9            10 
      6  0.588937D+00
      7  0.638947D-03  0.810894D-01
      8 -0.207060D-02 -0.441264D-01  0.638639D-01
      9  0.547876D-02  0.102996D+00 -0.125814D+00  0.289010D+00
     10  0.483741D-02  0.455253D-03 -0.803712D-04  0.464336D-03  0.350833D-01
     11 -0.404794D-02 -0.138904D-02  0.432686D-03  0.342975D-03 -0.821812D-01
     12 -0.554912D-01  0.232464D-03 -0.133578D-03  0.224321D-03 -0.150636D-01
     13  0.116632D+00 -0.119352D-01 -0.237541D-03 -0.247747D-02 -0.124651D-01
     14 -0.568795D-01  0.211682D-01 -0.121036D-01  0.158902D-01  0.278832D-01
     15 -0.257252D+00 -0.457025D-01  0.146682D-01 -0.320890D-01  0.662466D-02
     16 -0.125511D-02 -0.592067D-01  0.400967D-01 -0.918296D-01 -0.302024D-02
     17  0.722492D-03  0.225907D-01 -0.603964D-01  0.115399D+00 -0.198072D-02
     18 -0.411256D-02 -0.550297D-01  0.116047D+00 -0.268298D+00  0.174205D-02
     19  0.213758D-01 -0.126568D-01  0.590774D-02 -0.965484D-02 -0.153875D-02
     20 -0.834627D-03  0.159063D-02  0.499580D-02  0.635609D-04 -0.743964D-03
     21 -0.255855D-01 -0.343108D-02  0.102424D-02  0.319571D-02 -0.187105D-02
     22  0.129139D-02 -0.489727D-03 -0.803786D-03 -0.290792D-04  0.646271D-02
     23  0.249957D-02 -0.391247D-03  0.305618D-02 -0.304108D-02  0.602156D-03
     24  0.146880D-01 -0.106983D-02 -0.335630D-02  0.228331D-02  0.334110D-02
     25 -0.436851D-02 -0.389614D-03 -0.406812D-03  0.686813D-03  0.255604D-02
     26  0.431277D-02  0.282812D-03  0.257698D-03 -0.858556D-03 -0.119698D-02
     27  0.705765D-02  0.130234D-03 -0.797596D-04  0.518575D-03  0.896419D-03
     28  0.246705D-01 -0.414174D-04 -0.388823D-04  0.146519D-03  0.148501D-02
     29  0.280611D-02 -0.473078D-04  0.152010D-03 -0.266448D-03 -0.153300D-02
     30 -0.355912D-01 -0.162234D-03 -0.162436D-03  0.106759D-02 -0.213800D-02
     31 -0.224482D-01  0.218413D-03 -0.143977D-03  0.169218D-02  0.768725D-03
     32  0.453628D-02 -0.168428D-04  0.952118D-04 -0.377606D-04 -0.168970D-02
     33 -0.564241D-01  0.213477D-03 -0.637473D-03  0.146755D-02  0.131301D-02
     34  0.444643D-03  0.114990D-02  0.292999D-03  0.793046D-03  0.873693D-04
     35 -0.131141D-02  0.373005D-03  0.396238D-03 -0.427477D-03  0.942315D-03
     36 -0.287686D-02  0.562567D-03  0.232187D-03  0.665160D-03  0.460742D-03
               11            12            13            14            15 
     11  0.428984D+00
     12  0.704244D-02  0.546423D-01
     13 -0.392455D-02 -0.157395D-02  0.476583D+00
     14 -0.422923D-01 -0.263071D-01 -0.766014D-01  0.750793D+00
     15  0.190217D-01 -0.262196D-03 -0.614573D-01 -0.203564D+00  0.997025D+00
     16  0.156697D-01 -0.586349D-03 -0.183183D+00 -0.189914D-01  0.370206D-01
     17 -0.106733D-02  0.799247D-03  0.151295D-01 -0.399296D-01 -0.454611D-03
     18 -0.105546D-01  0.118434D-02  0.221090D-01 -0.105705D-02 -0.496591D-01
     19  0.303403D-03 -0.341129D-03 -0.944144D-01  0.442750D-01 -0.702506D-01
     20  0.941905D-02 -0.950090D-03  0.544055D-01 -0.220370D+00  0.253150D+00
     21 -0.655303D-02  0.186565D-02 -0.878706D-01  0.269534D+00 -0.563922D+00
     22  0.423332D-02  0.497710D-02 -0.807125D-01 -0.237682D-01  0.137553D-01
     23 -0.814410D-02 -0.700451D-02 -0.237505D-02 -0.325254D+00  0.895586D-04
     24 -0.438903D-02 -0.466248D-02  0.188860D-01 -0.139687D-02 -0.723335D-01
     25 -0.248783D-04  0.815099D-03 -0.295009D-02  0.314420D-02  0.613406D-03
     26 -0.361596D-02  0.751985D-02  0.573149D-02 -0.167479D-01 -0.662722D-02
     27  0.736845D-02 -0.510310D-02 -0.342427D-02 -0.432353D-02  0.271574D-02
     28 -0.303027D-02 -0.207535D-02 -0.156215D-03 -0.306267D-02 -0.186192D-02
     29  0.462151D-02  0.103973D-02  0.374904D-03 -0.416356D-02  0.172854D-02
     30  0.102121D-02  0.193979D-02 -0.113070D-02  0.942980D-02  0.539695D-02
     31  0.112670D-02  0.163392D-02 -0.114893D-01  0.253092D-02  0.462891D-02
     32  0.514754D-02 -0.130307D-02  0.108300D-02 -0.359474D-02  0.188581D-03
     33  0.354303D-02  0.402070D-02 -0.231562D-01  0.820841D-02  0.154855D-01
     34  0.225291D-02  0.142633D-02 -0.309866D-02 -0.829553D-02 -0.186161D-02
     35  0.264665D-02  0.168079D-02 -0.401926D-01 -0.247743D-01  0.137864D-01
     36 -0.524424D-03 -0.381155D-03 -0.162266D-02  0.438895D-02  0.270221D-02
               16            17            18            19            20 
     16  0.270903D+00
     17 -0.112141D-01  0.112483D+00
     18  0.591453D-01 -0.130689D+00  0.326733D+00
     19  0.311401D-03  0.129047D-01 -0.363309D-01  0.919441D-01
     20  0.119635D-02 -0.582463D-03  0.112729D-01 -0.584490D-01  0.214150D+00
     21  0.157075D-02  0.660287D-02 -0.141631D-01  0.936546D-01 -0.290417D+00
     22 -0.241149D-01 -0.421226D-01 -0.432440D-02  0.127585D-01 -0.280607D-02
     23 -0.906366D-02 -0.159143D-01  0.231902D-02 -0.338939D-02 -0.748529D-02
     24  0.415520D-02  0.900126D-02  0.327929D-02 -0.165254D-03  0.262491D-01
     25  0.151248D-02 -0.150239D-03 -0.116467D-02  0.486872D-03 -0.526844D-03
     26 -0.388863D-02  0.156658D-02  0.388776D-02 -0.158107D-02  0.159815D-02
     27  0.220176D-02  0.232689D-03 -0.161768D-02  0.428563D-03  0.108374D-02
     28 -0.616809D-03  0.389202D-03  0.554267D-03 -0.957481D-04 -0.103341D-03
     29 -0.226146D-03  0.222926D-03  0.275764D-03 -0.357604D-03  0.793336D-03
     30  0.508983D-02 -0.130697D-02 -0.439650D-02 -0.187979D-03 -0.678934D-03
     31  0.330582D-02  0.957886D-04 -0.254771D-02  0.278037D-02  0.418674D-03
     32  0.347716D-03  0.154464D-03 -0.271124D-03 -0.616131D-03  0.446239D-03
     33  0.574737D-02 -0.108691D-03 -0.492277D-02  0.575595D-02  0.182033D-02
     34  0.728117D-03 -0.855618D-03  0.152046D-02 -0.828576D-03  0.397479D-02
     35 -0.924689D-03 -0.365632D-02 -0.413269D-03  0.253199D-02 -0.139760D-02
     36 -0.244820D-02 -0.353704D-02  0.488359D-03 -0.234192D-03  0.137865D-02
               21            22            23            24            25 
     21  0.589923D+00
     22  0.802688D-03  0.516697D+00
     23 -0.445285D-02  0.149685D+00  0.434300D+00
     24  0.901828D-02 -0.157020D+00 -0.358674D-01  0.105261D+00
     25 -0.310432D-03  0.600279D-03 -0.101886D-02  0.359605D-02  0.837267D-01
     26  0.272583D-02  0.108360D-02  0.105836D-01 -0.502228D-02 -0.339261D-01
     27 -0.103768D-02  0.244395D-02  0.143653D-02 -0.120278D-01 -0.129240D-02
     28  0.282094D-02  0.206371D-03  0.654946D-03  0.119016D-02 -0.180704D-01
     29  0.634108D-03  0.293512D-03  0.191690D-02 -0.116441D-02  0.535034D-01
     30 -0.448242D-02  0.550543D-04 -0.255018D-02 -0.410777D-03  0.120947D-01
     31 -0.225925D-02  0.134453D-02 -0.804372D-03 -0.679988D-03  0.585910D-03
     32  0.303929D-03  0.498259D-03  0.228013D-02 -0.129572D-02 -0.405939D-01
     33 -0.558171D-02  0.153312D-02 -0.466607D-02 -0.160421D-03 -0.123684D-01
     34 -0.131086D-02 -0.424996D+00 -0.135141D+00  0.133517D+00 -0.111235D-02
     35 -0.385055D-03 -0.979126D-01 -0.644363D-01  0.290806D-01  0.148537D-04
     36 -0.149537D-02  0.138600D+00  0.415835D-01 -0.467009D-01  0.407666D-04
               26            27            28            29            30 
     26  0.412206D+00
     27  0.148673D-01  0.877928D-01
     28  0.405796D-01  0.153424D-01  0.353656D+00
     29 -0.362637D-01 -0.303778D-01 -0.656816D-01  0.940664D-01
     30 -0.189647D-01  0.701775D-02 -0.130798D+00  0.360325D-01  0.146482D+00
     31 -0.279752D-01 -0.123653D-01 -0.898810D-01 -0.134858D-01 -0.216507D-01
     32 -0.524785D-01 -0.437976D-01 -0.510410D-02  0.140483D-01  0.521964D-03
     33 -0.277994D-01 -0.171279D-03 -0.311510D-02  0.907975D-03  0.194674D-01
     34 -0.227752D-03  0.167355D-02 -0.105565D-02  0.145718D-04  0.816760D-03
     35 -0.180469D-02  0.119816D-02 -0.395856D-03 -0.297989D-03  0.100788D-02
     36  0.594810D-02  0.467701D-03 -0.740548D-03  0.123098D-02 -0.442655D-04
               31            32            33            34            35 
     31  0.259933D+00
     32  0.864612D-01  0.119489D+00
     33  0.145179D+00  0.763563D-01  0.198091D+00
     34  0.111690D-04 -0.950944D-04  0.714859D-03  0.428829D+00
     35  0.378190D-03 -0.311970D-03  0.126040D-02  0.135129D+00  0.909568D-01
     36  0.603524D-03  0.173670D-02 -0.467594D-03 -0.135661D+00 -0.404103D-01
               36 
     36  0.472563D-01
 FormGI is forming the generalized inverse of G from B-inverse, IUseBI=4.
 Leave Link  716 at Sat May 24 08:13:59 2025, MaxMem=  3758096384 cpu:               0.0 elap:               0.0
 (Enter /apps/easybuild-2022/easybuild/software/Compiler/NVHPC/22.11-CUDA-11.7.0/Gaussian/g16c01-CUDA-11.7.0/g16/l103.exe)

 GradGradGradGradGradGradGradGradGradGradGradGradGradGradGradGradGradGrad
 Berny optimization.
 Red2BG is reusing G-inverse.
 Internal  Forces:  Max     0.000074368 RMS     0.000029484
 Search for a local minimum.
 Step number   1 out of a maximum of   56
 All quantities printed in internal units (Hartrees-Bohrs-Radians)
 RMS Force = .29484D-04 SwitMx=.10000D-02 MixMth= 2
 Mixed Optimization -- En-DIIS/RFO-DIIS
 Second derivative matrix not updated -- analytic derivatives used.
 ITU=  0
     Eigenvalues ---    0.00274   0.00389   0.00578   0.01308   0.01582
     Eigenvalues ---    0.09262   0.09648   0.12494   0.13398   0.13429
     Eigenvalues ---    0.13637   0.16821   0.18446   0.18768   0.21358
     Eigenvalues ---    0.23671   0.26246   0.26764   0.28610   0.30859
     Eigenvalues ---    0.39674   0.39979   0.41307   0.41909   0.43889
     Eigenvalues ---    0.46973   0.50483   0.52909   0.57048   0.76927
 RFO step:  Lambda=-1.32931136D-06 EMin= 2.74277664D-03
 Linear search not attempted -- first point.
 Iteration  1 RMS(Cart)=  0.00469516 RMS(Int)=  0.00001179
 Iteration  2 RMS(Cart)=  0.00001244 RMS(Int)=  0.00000034
 Iteration  3 RMS(Cart)=  0.00000000 RMS(Int)=  0.00000034
 ITry= 1 IFail=0 DXMaxC= 1.53D-02 DCOld= 1.00D+10 DXMaxT= 3.00D-01 DXLimC= 3.00D+00 Rises=F
 Variable       Old X    -DE/DX   Delta X   Delta X   Delta X     New X
                                 (Linear)    (Quad)   (Total)
    R1        2.82509   0.00002   0.00000   0.00021   0.00021   2.82530
    R2        2.53215  -0.00005   0.00000  -0.00061  -0.00061   2.53154
    R3        2.51750   0.00001   0.00000   0.00022   0.00022   2.51772
    R4        2.52175  -0.00004   0.00000  -0.00004  -0.00004   2.52172
    R5        2.54778  -0.00001   0.00000   0.00001   0.00001   2.54780
    R6        3.05521   0.00001   0.00000   0.00026   0.00026   3.05548
    R7        2.63921  -0.00001   0.00000  -0.00002  -0.00002   2.63919
    R8        3.13226   0.00000   0.00000   0.00001   0.00001   3.13228
    R9        2.67133  -0.00001   0.00000   0.00002   0.00002   2.67136
   R10        2.93460   0.00001   0.00000   0.00012   0.00012   2.93471
   R11        1.83141  -0.00002   0.00000  -0.00011  -0.00011   1.83130
    A1        1.95139   0.00005   0.00000   0.00033   0.00033   1.95171
    A2        1.90721   0.00004   0.00000   0.00028   0.00028   1.90749
    A3        1.97848  -0.00003   0.00000  -0.00089  -0.00089   1.97759
    A4        1.88315  -0.00003   0.00000  -0.00000  -0.00000   1.88314
    A5        1.87516   0.00000   0.00000   0.00047   0.00047   1.87563
    A6        1.86418  -0.00002   0.00000  -0.00017  -0.00017   1.86401
    A7        1.96828  -0.00007   0.00000  -0.00073  -0.00073   1.96755
    A8        2.20309   0.00007   0.00000  -0.00029  -0.00029   2.20280
    A9        2.00685  -0.00000   0.00000  -0.00020  -0.00021   2.00664
   A10        2.12851   0.00003   0.00000   0.00092   0.00092   2.12943
   A11        2.03027  -0.00004   0.00000  -0.00057  -0.00057   2.02970
   A12        1.85948   0.00004   0.00000  -0.00014  -0.00014   1.85934
   A13        1.72155   0.00001   0.00000   0.00027   0.00027   1.72182
   A14        1.64928  -0.00003   0.00000  -0.00037  -0.00037   1.64891
   A15        2.05139  -0.00002   0.00000   0.00003   0.00003   2.05143
   A16        1.84751   0.00001   0.00000   0.00014   0.00014   1.84765
   A17        1.93620   0.00005   0.00000  -0.00006  -0.00006   1.93613
    D1       -3.06196  -0.00001   0.00000  -0.00540  -0.00540  -3.06736
    D2        0.58407  -0.00001   0.00000  -0.00258  -0.00258   0.58149
    D3       -0.97845   0.00000   0.00000  -0.00501  -0.00501  -0.98346
    D4        2.66758   0.00001   0.00000  -0.00219  -0.00219   2.66539
    D5        1.09842  -0.00002   0.00000  -0.00560  -0.00560   1.09282
    D6       -1.53874  -0.00002   0.00000  -0.00278  -0.00278  -1.54152
    D7        1.13307  -0.00003   0.00000  -0.00484  -0.00484   1.12822
    D8       -3.04864  -0.00002   0.00000  -0.00415  -0.00415  -3.05279
    D9       -0.72323  -0.00004   0.00000  -0.00473  -0.00473  -0.72796
   D10       -1.49456  -0.00001   0.00000  -0.00184  -0.00184  -1.49639
   D11        0.60692  -0.00000   0.00000  -0.00114  -0.00114   0.60578
   D12        2.93234  -0.00002   0.00000  -0.00172  -0.00172   2.93061
   D13       -0.81302  -0.00004   0.00000  -0.00069  -0.00069  -0.81371
   D14       -3.05694  -0.00003   0.00000  -0.00079  -0.00079  -3.05773
   D15        1.15365  -0.00000   0.00000  -0.00079  -0.00079   1.15286
   D16       -0.63570   0.00000   0.00000  -0.00600  -0.00600  -0.64170
   D17       -2.82173  -0.00003   0.00000  -0.00680  -0.00680  -2.82854
   D18        1.67817  -0.00002   0.00000  -0.00691  -0.00691   1.67125
         Item               Value     Threshold  Converged?
 Maximum Force            0.000074     0.000015     NO 
 RMS     Force            0.000029     0.000010     NO 
 Maximum Displacement     0.015281     0.000060     NO 
 RMS     Displacement     0.004695     0.000040     NO 
 Predicted change in Energy=-6.646556D-07
 Lowest energy point so far.  Saving SCF results.
 GradGradGradGradGradGradGradGradGradGradGradGradGradGradGradGradGradGrad

 Leave Link  103 at Sat May 24 08:13:59 2025, MaxMem=  3758096384 cpu:               0.1 elap:               0.0
 (Enter /apps/easybuild-2022/easybuild/software/Compiler/NVHPC/22.11-CUDA-11.7.0/Gaussian/g16c01-CUDA-11.7.0/g16/l202.exe)
                          Input orientation:                          
 ---------------------------------------------------------------------
 Center     Atomic      Atomic             Coordinates (Angstroms)
 Number     Number       Type             X           Y           Z
 ---------------------------------------------------------------------
      1          6           0        2.545996    0.084477   -2.629085
      2          6           0        2.514354   -0.528355   -1.265741
      3          9           0       -0.380535    0.549197   -1.229027
      4          9           0        2.737296   -1.857863   -1.286856
      5         16           0        1.657308    0.000067   -0.000604
      6          8           0       -0.000219    0.002212   -0.001566
      7          8           0        1.868401   -0.673651    1.224086
      8          8           0        1.780496    1.548157    0.001020
      9          9           0        2.413755    1.416645   -2.579499
     10          9           0        3.714269   -0.189716   -3.207907
     11          9           0        1.594733   -0.382522   -3.440090
     12          1           0        2.666540    1.825254   -0.276936
 ---------------------------------------------------------------------
                    Distance matrix (angstroms):
                    1          2          3          4          5
     1  C    0.000000
     2  C    1.495082   0.000000
     3  F    3.277303   3.089150   0.000000
     4  F    2.368725   1.348236   3.939309   0.000000
     5  S    2.775932   1.616888   2.442001   2.504541   0.000000
     6  O    3.659759   2.864038   1.396601   3.550470   1.657529
     7  O    3.985074   2.576354   3.545537   2.908981   1.413620
     8  O    3.105769   2.540695   2.679737   3.764979   1.552984
     9  F    1.339634   2.349278   3.222468   3.535252   3.038026
    10  F    1.332320   2.307918   4.607535   2.725367   3.814957
    11  F    1.334436   2.365325   3.107827   2.849297   3.461264
    12  H    2.928727   2.557416   3.437945   3.819725   2.103857
                    6          7          8          9         10
     6  O    0.000000
     7  O    2.334685   0.000000
     8  O    2.358156   2.537724   0.000000
     9  F    3.804423   4.374243   2.660337   0.000000
    10  F    4.910691   4.825348   4.130000   2.160238   0.000000
    11  F    3.809900   4.681259   3.950097   2.156019   2.140914
    12  H    3.242055   3.022353   0.969081   2.352160   3.707888
                   11         12
    11  F    0.000000
    12  H    4.003572   0.000000
 Symmetry turned off by external request.
 Stoichiometry    C2HF5O3S
 Rotational constants (GHZ):           1.4705346           0.8189591           0.7127360
 Leave Link  202 at Sat May 24 08:13:59 2025, MaxMem=  3758096384 cpu:               0.0 elap:               0.0
 (Enter /apps/easybuild-2022/easybuild/software/Compiler/NVHPC/22.11-CUDA-11.7.0/Gaussian/g16c01-CUDA-11.7.0/g16/l301.exe)
 Standard basis: def2TZVPP (5D, 7F)
 Ernie: Thresh=  0.10000D-02 Tol=  0.10000D-05 Strict=F.
   366 basis functions,   596 primitive gaussians,   423 cartesian basis functions
    49 alpha electrons       49 beta electrons
       nuclear repulsion energy       910.4175614704 Hartrees.
 IExCor= 4336 DFT=T Ex+Corr=M062X ExCW=0 ScaHFX=  0.540000
 ScaDFX=  1.000000  1.000000  1.000000  1.000000 ScalE2=  1.000000  1.000000
 IRadAn=      5 IRanWt=     -1 IRanGd=            0 ICorTp=0 IEmpDi=  4
 NAtoms=   12 NActive=   12 NUniq=   12 SFac= 1.00D+00 NAtFMM=   60 NAOKFM=F Big=F
 Integral buffers will be    131072 words long.
 Raffenetti 2 integral format.
 Two-electron integral symmetry is turned off.
 Leave Link  301 at Sat May 24 08:13:59 2025, MaxMem=  3758096384 cpu:               0.0 elap:               0.0
 (Enter /apps/easybuild-2022/easybuild/software/Compiler/NVHPC/22.11-CUDA-11.7.0/Gaussian/g16c01-CUDA-11.7.0/g16/l302.exe)
 NPDir=0 NMtPBC=     1 NCelOv=     1 NCel=       1 NClECP=     1 NCelD=      1
         NCelK=      1 NCelE2=     1 NClLst=     1 CellRange=     0.0.
 One-electron integrals computed using PRISM.
   1 Symmetry operations used in ECPInt.
 ECPInt:  NShTT=    8515 NPrTT=   27988 LenC2=    7962 LenP2D=   19246.
 LDataN:  DoStor=T MaxTD1= 6 Len=  172
 NBasis=   366 RedAO= T EigKep=  3.85D-04  NBF=   366
 NBsUse=   366 1.00D-06 EigRej= -1.00D+00 NBFU=   366
 Precomputing XC quadrature grid using
 IXCGrd= 4 IRadAn=           5 IRanWt=          -1 IRanGd=           0 AccXCQ= 0.00D+00.
 Generated NRdTot=       0 NPtTot=           0 NUsed=           0 NTot=          32
 NSgBfM=   419   419   419   419   419 MxSgAt=    12 MxSgA2=    12.
 Leave Link  302 at Sat May 24 08:14:00 2025, MaxMem=  3758096384 cpu:               0.7 elap:               0.2
 (Enter /apps/easybuild-2022/easybuild/software/Compiler/NVHPC/22.11-CUDA-11.7.0/Gaussian/g16c01-CUDA-11.7.0/g16/l303.exe)
 DipDrv:  MaxL=1.
 Leave Link  303 at Sat May 24 08:14:00 2025, MaxMem=  3758096384 cpu:               0.1 elap:               0.0
 (Enter /apps/easybuild-2022/easybuild/software/Compiler/NVHPC/22.11-CUDA-11.7.0/Gaussian/g16c01-CUDA-11.7.0/g16/l401.exe)
 Initial guess from the checkpoint file:  "/tmp/Gau-7565.chk"
 B after Tr=    -0.000332   -0.000286   -0.000823
         Rot=    1.000000    0.000258   -0.000048   -0.000231 Ang=   0.04 deg.
 Guess basis will be translated and rotated to current coordinates.
 JPrj=2 DoOrth=T DoCkMO=T.
 Leave Link  401 at Sat May 24 08:14:00 2025, MaxMem=  3758096384 cpu:               0.3 elap:               0.1
 (Enter /apps/easybuild-2022/easybuild/software/Compiler/NVHPC/22.11-CUDA-11.7.0/Gaussian/g16c01-CUDA-11.7.0/g16/l502.exe)
 Keep R1 ints in memory in canonical form, NReq=2293446996.
 FoFCou: FMM=F IPFlag=           0 FMFlag=           0 FMFlg1=           0
         NFxFlg=           0 DoJE=F BraDBF=F KetDBF=F FulRan=T
         wScrn=  0.000000 ICntrl=       600 IOpCl=  0 I1Cent=           0 NGrid=           0
         NMat0=    1 NMatS0=  67161 NMatT0=    0 NMatD0=    1 NMtDS0=    0 NMtDT0=    0
 Symmetry not used in FoFCou.
 Two-electron integral symmetry not used.
 Closed shell SCF:
 Using DIIS extrapolation, IDIIS=  1040.
 NGot=  3758096384 LenX=  1502398672 LenY=  1502219302
 Requested convergence on RMS density matrix=1.00D-08 within  32 cycles.
 Requested convergence on MAX density matrix=1.00D-06.
 Requested convergence on             energy=1.00D-06.
 No special actions if energy rises.

 Cycle   1  Pass 1  IDiag  1:
 E= -1199.71879405495    
 DIIS: error= 1.63D-04 at cycle   1 NSaved=   1.
 NSaved= 1 IEnMin= 1 EnMin= -1199.71879405495     IErMin= 1 ErrMin= 1.63D-04
 ErrMax= 1.63D-04  0.00D+00 EMaxC= 1.00D-01 BMatC= 3.72D-05 BMatP= 3.72D-05
 IDIUse=3 WtCom= 9.98D-01 WtEn= 1.63D-03
 Coeff-Com:  0.100D+01
 Coeff-En:   0.100D+01
 Coeff:      0.100D+01
 Gap=     0.868 Goal=   None    Shift=    0.000
 RMSDP=1.63D-05 MaxDP=6.70D-04              OVMax= 1.29D-03

 Cycle   2  Pass 1  IDiag  1:
 E= -1199.71883932081     Delta-E=       -0.000045265868 Rises=F Damp=F
 DIIS: error= 3.35D-05 at cycle   2 NSaved=   2.
 NSaved= 2 IEnMin= 2 EnMin= -1199.71883932081     IErMin= 2 ErrMin= 3.35D-05
 ErrMax= 3.35D-05  0.00D+00 EMaxC= 1.00D-01 BMatC= 1.09D-06 BMatP= 3.72D-05
 IDIUse=1 WtCom= 1.00D+00 WtEn= 0.00D+00
 Coeff-Com: -0.147D+00 0.115D+01
 Coeff:     -0.147D+00 0.115D+01
 Gap=     0.316 Goal=   None    Shift=    0.000
 RMSDP=3.93D-06 MaxDP=1.61D-04 DE=-4.53D-05 OVMax= 4.09D-04

 Cycle   3  Pass 1  IDiag  1:
 E= -1199.71884154539     Delta-E=       -0.000002224579 Rises=F Damp=F
 DIIS: error= 9.25D-06 at cycle   3 NSaved=   3.
 NSaved= 3 IEnMin= 3 EnMin= -1199.71884154539     IErMin= 3 ErrMin= 9.25D-06
 ErrMax= 9.25D-06  0.00D+00 EMaxC= 1.00D-01 BMatC= 5.70D-08 BMatP= 1.09D-06
 IDIUse=1 WtCom= 1.00D+00 WtEn= 0.00D+00
 Coeff-Com: -0.163D-01 0.383D-01 0.978D+00
 Coeff:     -0.163D-01 0.383D-01 0.978D+00
 Gap=     0.316 Goal=   None    Shift=    0.000
 RMSDP=8.35D-07 MaxDP=3.38D-05 DE=-2.22D-06 OVMax= 1.04D-04

 Cycle   4  Pass 1  IDiag  1:
 E= -1199.71884161064     Delta-E=       -0.000000065253 Rises=F Damp=F
 DIIS: error= 6.89D-06 at cycle   4 NSaved=   4.
 NSaved= 4 IEnMin= 4 EnMin= -1199.71884161064     IErMin= 4 ErrMin= 6.89D-06
 ErrMax= 6.89D-06  0.00D+00 EMaxC= 1.00D-01 BMatC= 4.07D-08 BMatP= 5.70D-08
 IDIUse=1 WtCom= 1.00D+00 WtEn= 0.00D+00
 Coeff-Com:  0.652D-02-0.101D+00 0.500D+00 0.594D+00
 Coeff:      0.652D-02-0.101D+00 0.500D+00 0.594D+00
 Gap=     0.316 Goal=   None    Shift=    0.000
 RMSDP=3.39D-07 MaxDP=1.89D-05 DE=-6.53D-08 OVMax= 3.66D-05

 Cycle   5  Pass 1  IDiag  1:
 E= -1199.71884163751     Delta-E=       -0.000000026863 Rises=F Damp=F
 DIIS: error= 1.49D-06 at cycle   5 NSaved=   5.
 NSaved= 5 IEnMin= 5 EnMin= -1199.71884163751     IErMin= 5 ErrMin= 1.49D-06
 ErrMax= 1.49D-06  0.00D+00 EMaxC= 1.00D-01 BMatC= 1.47D-09 BMatP= 4.07D-08
 IDIUse=1 WtCom= 1.00D+00 WtEn= 0.00D+00
 Coeff-Com:  0.313D-02-0.299D-01 0.302D-01 0.138D+00 0.859D+00
 Coeff:      0.313D-02-0.299D-01 0.302D-01 0.138D+00 0.859D+00
 Gap=     0.316 Goal=   None    Shift=    0.000
 RMSDP=1.22D-07 MaxDP=7.27D-06 DE=-2.69D-08 OVMax= 1.76D-05

 Cycle   6  Pass 1  IDiag  1:
 E= -1199.71884163918     Delta-E=       -0.000000001676 Rises=F Damp=F
 DIIS: error= 8.61D-07 at cycle   6 NSaved=   6.
 NSaved= 6 IEnMin= 6 EnMin= -1199.71884163918     IErMin= 6 ErrMin= 8.61D-07
 ErrMax= 8.61D-07  0.00D+00 EMaxC= 1.00D-01 BMatC= 6.35D-10 BMatP= 1.47D-09
 IDIUse=1 WtCom= 1.00D+00 WtEn= 0.00D+00
 Coeff-Com:  0.528D-03 0.110D-02-0.642D-01-0.253D-01 0.451D+00 0.637D+00
 Coeff:      0.528D-03 0.110D-02-0.642D-01-0.253D-01 0.451D+00 0.637D+00
 Gap=     0.316 Goal=   None    Shift=    0.000
 RMSDP=5.69D-08 MaxDP=4.10D-06 DE=-1.68D-09 OVMax= 7.58D-06

 Cycle   7  Pass 1  IDiag  1:
 E= -1199.71884163967     Delta-E=       -0.000000000491 Rises=F Damp=F
 DIIS: error= 2.22D-07 at cycle   7 NSaved=   7.
 NSaved= 7 IEnMin= 7 EnMin= -1199.71884163967     IErMin= 7 ErrMin= 2.22D-07
 ErrMax= 2.22D-07  0.00D+00 EMaxC= 1.00D-01 BMatC= 7.18D-11 BMatP= 6.35D-10
 IDIUse=1 WtCom= 1.00D+00 WtEn= 0.00D+00
 Coeff-Com: -0.314D-03 0.610D-02-0.354D-01-0.359D-01 0.565D-01 0.291D+00
 Coeff-Com:  0.718D+00
 Coeff:     -0.314D-03 0.610D-02-0.354D-01-0.359D-01 0.565D-01 0.291D+00
 Coeff:      0.718D+00
 Gap=     0.316 Goal=   None    Shift=    0.000
 RMSDP=1.84D-08 MaxDP=9.83D-07 DE=-4.91D-10 OVMax= 2.56D-06

 Cycle   8  Pass 1  IDiag  1:
 E= -1199.71884163982     Delta-E=       -0.000000000145 Rises=F Damp=F
 DIIS: error= 7.33D-08 at cycle   8 NSaved=   8.
 NSaved= 8 IEnMin= 8 EnMin= -1199.71884163982     IErMin= 8 ErrMin= 7.33D-08
 ErrMax= 7.33D-08  0.00D+00 EMaxC= 1.00D-01 BMatC= 5.89D-12 BMatP= 7.18D-11
 IDIUse=1 WtCom= 1.00D+00 WtEn= 0.00D+00
 Coeff-Com: -0.168D-03 0.243D-02-0.917D-02-0.122D-01-0.143D-01 0.665D-01
 Coeff-Com:  0.286D+00 0.681D+00
 Coeff:     -0.168D-03 0.243D-02-0.917D-02-0.122D-01-0.143D-01 0.665D-01
 Coeff:      0.286D+00 0.681D+00
 Gap=     0.316 Goal=   None    Shift=    0.000
 RMSDP=5.77D-09 MaxDP=3.64D-07 DE=-1.45D-10 OVMax= 7.84D-07

 SCF Done:  E(RM062X) =  -1199.71884164     A.U. after    8 cycles
            NFock=  8  Conv=0.58D-08     -V/T= 2.0028
 KE= 1.196320402451D+03 PE=-4.666836488238D+03 EE= 1.360379682677D+03
 Leave Link  502 at Sat May 24 08:14:27 2025, MaxMem=  3758096384 cpu:             127.2 elap:              27.1
 (Enter /apps/easybuild-2022/easybuild/software/Compiler/NVHPC/22.11-CUDA-11.7.0/Gaussian/g16c01-CUDA-11.7.0/g16/l508.exe)
 QCSCF skips out because SCF is already converged.
 Leave Link  508 at Sat May 24 08:14:27 2025, MaxMem=  3758096384 cpu:               0.0 elap:               0.0
 (Enter /apps/easybuild-2022/easybuild/software/Compiler/NVHPC/22.11-CUDA-11.7.0/Gaussian/g16c01-CUDA-11.7.0/g16/l701.exe)
 ... and contract with generalized density number  0.
 Compute integral first derivatives.
   1 Symmetry operations used in ECPInt.
 ECPInt:  NShTT=    8515 NPrTT=   27988 LenC2=    7962 LenP2D=   19246.
 LDataN:  DoStor=T MaxTD1= 7 Len=  274
 Leave Link  701 at Sat May 24 08:14:27 2025, MaxMem=  3758096384 cpu:               0.5 elap:               0.1
 (Enter /apps/easybuild-2022/easybuild/software/Compiler/NVHPC/22.11-CUDA-11.7.0/Gaussian/g16c01-CUDA-11.7.0/g16/l702.exe)
 L702 exits ... SP integral derivatives will be done elsewhere.
 Leave Link  702 at Sat May 24 08:14:27 2025, MaxMem=  3758096384 cpu:               0.0 elap:               0.0
 (Enter /apps/easybuild-2022/easybuild/software/Compiler/NVHPC/22.11-CUDA-11.7.0/Gaussian/g16c01-CUDA-11.7.0/g16/l703.exe)
 Integral derivatives from FoFJK, PRISM(SPDF).
 Compute integral first derivatives, UseDBF=F ICtDFT=           0.
 Calling FoFJK, ICntrl=      2127 FMM=F ISym2X=0 I1Cent= 0 IOpClX= 0 NMat=1 NMatS=1 NMatT=0.
 FoFJK:  IHMeth= 1 ICntrl=    2127 DoSepK=F KAlg= 0 I1Cent=           0 FoldK=F
 IRaf=         0 NMat=       1 IRICut=       1 DoRegI=T DoRafI=F ISym2E= 0 IDoP0=0 IntGTp=1.
 FoFCou: FMM=F IPFlag=           0 FMFlag=      100000 FMFlg1=         800
         NFxFlg=           0 DoJE=F BraDBF=F KetDBF=F FulRan=T
         wScrn=  0.000000 ICntrl=      2127 IOpCl=  0 I1Cent=           0 NGrid=           0
         NMat0=    1 NMatS0=      1 NMatT0=    0 NMatD0=    1 NMtDS0=    0 NMtDT0=    0
 Symmetry not used in FoFCou.
 Leave Link  703 at Sat May 24 08:14:40 2025, MaxMem=  3758096384 cpu:              99.5 elap:              12.6
 (Enter /apps/easybuild-2022/easybuild/software/Compiler/NVHPC/22.11-CUDA-11.7.0/Gaussian/g16c01-CUDA-11.7.0/g16/l716.exe)
 Dipole        = 3.91069333D-01 9.59506037D-01 1.38571821D-01
 -------------------------------------------------------------------
 Center     Atomic                   Forces (Hartrees/Bohr)
 Number     Number              X              Y              Z
 -------------------------------------------------------------------
      1        6           0.000001328    0.000000892    0.000000655
      2        6          -0.000002334   -0.000002595   -0.000002270
      3        9           0.000000909    0.000006071   -0.000000663
      4        9          -0.000006442   -0.000002662   -0.000006525
      5       16          -0.000002301   -0.000002203    0.000000437
      6        8          -0.000001330    0.000002200   -0.000001543
      7        8          -0.000003925   -0.000007828   -0.000002583
      8        8           0.000003083   -0.000004454    0.000007620
      9        9           0.000004796    0.000005163    0.000007014
     10        9           0.000000107    0.000001553   -0.000000190
     11        9          -0.000000399    0.000009705   -0.000001978
     12        1           0.000006510   -0.000005842    0.000000025
 -------------------------------------------------------------------
 Cartesian Forces:  Max     0.000009705 RMS     0.000004136
 Leave Link  716 at Sat May 24 08:14:40 2025, MaxMem=  3758096384 cpu:               0.0 elap:               0.0
 (Enter /apps/easybuild-2022/easybuild/software/Compiler/NVHPC/22.11-CUDA-11.7.0/Gaussian/g16c01-CUDA-11.7.0/g16/l103.exe)

 GradGradGradGradGradGradGradGradGradGradGradGradGradGradGradGradGradGrad
 Berny optimization.
 Using GEDIIS/GDIIS optimizer.
 FormGI is forming the generalized inverse of G from B-inverse, IUseBI=4.
 Internal  Forces:  Max     0.000007697 RMS     0.000002669
 Search for a local minimum.
 Step number   2 out of a maximum of   56
 All quantities printed in internal units (Hartrees-Bohrs-Radians)
 RMS Force = .26694D-05 SwitMx=.10000D-02 MixMth= 2
 Mixed Optimization -- En-DIIS/RFO-DIIS
 Swapping is turned off.
 Update second derivatives using D2CorX and points    1    2
 DE= -6.19D-07 DEPred=-6.65D-07 R= 9.31D-01
 Trust test= 9.31D-01 RLast= 1.76D-02 DXMaxT set to 3.00D-01
 ITU=  0  0
     Eigenvalues ---    0.00294   0.00388   0.00587   0.01309   0.01590
     Eigenvalues ---    0.09248   0.09649   0.12481   0.13393   0.13434
     Eigenvalues ---    0.13643   0.16820   0.18443   0.18768   0.21381
     Eigenvalues ---    0.23665   0.26244   0.26764   0.28609   0.30922
     Eigenvalues ---    0.39673   0.39962   0.41308   0.41912   0.43888
     Eigenvalues ---    0.46982   0.50518   0.52958   0.57046   0.76926
 En-DIIS/RFO-DIIS/Sim-DIIS IScMMF=       -3 using points:     2    1
 RFO step:  Lambda=-1.29586949D-08.
 NNeg= 0 NGDIIS= 2 SimSw=  2.50D-03 Rises=F DC= -6.19D-07 SmlDif=  1.00D-05
 NRisDI= 0 DoIntr=F SqrtH=F CThrHd= 10.0 CDAdj=  3.0
 RMS Error=  0.2728109297D-03 NUsed= 2 OKEnD=F EnDIS=F
 InvSVX:  RCond= 3.50D-04 Info=           0 Equed=N FErr=  9.78D-16 BErr=  2.90D-17
 DidBck=F Rises=F RFO-DIIS coefs:    0.90378    0.09622
 Iteration  1 RMS(Cart)=  0.00038805 RMS(Int)=  0.00000014
 Iteration  2 RMS(Cart)=  0.00000013 RMS(Int)=  0.00000003
 ITry= 1 IFail=0 DXMaxC= 1.71D-03 DCOld= 1.00D+10 DXMaxT= 3.00D-01 DXLimC= 3.00D+00 Rises=F
 Variable       Old X    -DE/DX   Delta X   Delta X   Delta X     New X
                                 (Linear)    (Quad)   (Total)
    R1        2.82530  -0.00000  -0.00002   0.00000  -0.00002   2.82528
    R2        2.53154   0.00000   0.00006  -0.00000   0.00006   2.53160
    R3        2.51772  -0.00000  -0.00002   0.00001  -0.00002   2.51771
    R4        2.52172  -0.00000   0.00000  -0.00001  -0.00001   2.52171
    R5        2.54780   0.00000  -0.00000  -0.00000  -0.00000   2.54779
    R6        3.05548  -0.00000  -0.00003   0.00001  -0.00001   3.05547
    R7        2.63919   0.00000   0.00000  -0.00000  -0.00000   2.63919
    R8        3.13228   0.00000  -0.00000   0.00000   0.00000   3.13228
    R9        2.67136   0.00000  -0.00000  -0.00000  -0.00000   2.67135
   R10        2.93471  -0.00000  -0.00001  -0.00000  -0.00001   2.93470
   R11        1.83130   0.00000   0.00001   0.00000   0.00001   1.83131
    A1        1.95171  -0.00001  -0.00003  -0.00000  -0.00004   1.95168
    A2        1.90749   0.00000  -0.00003   0.00003  -0.00000   1.90749
    A3        1.97759   0.00000   0.00009  -0.00002   0.00007   1.97766
    A4        1.88314   0.00000   0.00000  -0.00001  -0.00001   1.88313
    A5        1.87563   0.00000  -0.00005   0.00002  -0.00003   1.87560
    A6        1.86401  -0.00000   0.00002  -0.00001   0.00001   1.86402
    A7        1.96755   0.00000   0.00007  -0.00003   0.00004   1.96759
    A8        2.20280  -0.00001   0.00003  -0.00001   0.00001   2.20282
    A9        2.00664   0.00000   0.00002   0.00001   0.00003   2.00667
   A10        2.12943   0.00000  -0.00009   0.00004  -0.00004   2.12938
   A11        2.02970   0.00000   0.00005  -0.00003   0.00003   2.02973
   A12        1.85934  -0.00001   0.00001  -0.00001   0.00000   1.85934
   A13        1.72182  -0.00000  -0.00003   0.00000  -0.00003   1.72179
   A14        1.64891   0.00000   0.00004   0.00001   0.00004   1.64895
   A15        2.05143   0.00000  -0.00000  -0.00001  -0.00001   2.05142
   A16        1.84765   0.00000  -0.00001   0.00001  -0.00000   1.84765
   A17        1.93613  -0.00000   0.00001   0.00002   0.00003   1.93616
    D1       -3.06736   0.00000   0.00052  -0.00021   0.00031  -3.06705
    D2        0.58149  -0.00000   0.00025  -0.00013   0.00012   0.58161
    D3       -0.98346  -0.00000   0.00048  -0.00021   0.00027  -0.98318
    D4        2.66539  -0.00000   0.00021  -0.00013   0.00008   2.66547
    D5        1.09282   0.00000   0.00054  -0.00021   0.00033   1.09315
    D6       -1.54152   0.00000   0.00027  -0.00013   0.00013  -1.54138
    D7        1.12822   0.00000   0.00047  -0.00010   0.00036   1.12859
    D8       -3.05279   0.00000   0.00040  -0.00009   0.00031  -3.05248
    D9       -0.72796   0.00000   0.00046  -0.00013   0.00033  -0.72763
   D10       -1.49639   0.00000   0.00018  -0.00002   0.00016  -1.49623
   D11        0.60578   0.00000   0.00011   0.00000   0.00011   0.60589
   D12        2.93061   0.00000   0.00017  -0.00004   0.00012   2.93074
   D13       -0.81371   0.00000   0.00007  -0.00009  -0.00002  -0.81373
   D14       -3.05773   0.00000   0.00008  -0.00008  -0.00001  -3.05774
   D15        1.15286  -0.00000   0.00008  -0.00008  -0.00000   1.15286
   D16       -0.64170   0.00000   0.00058   0.00035   0.00093  -0.64077
   D17       -2.82854   0.00000   0.00065   0.00030   0.00095  -2.82758
   D18        1.67125   0.00000   0.00067   0.00030   0.00096   1.67221
         Item               Value     Threshold  Converged?
 Maximum Force            0.000008     0.000015     YES
 RMS     Force            0.000003     0.000010     YES
 Maximum Displacement     0.001710     0.000060     NO 
 RMS     Displacement     0.000388     0.000040     NO 
 Predicted change in Energy=-6.479350D-09
 Lowest energy point so far.  Saving SCF results.
 GradGradGradGradGradGradGradGradGradGradGradGradGradGradGradGradGradGrad

 Leave Link  103 at Sat May 24 08:14:40 2025, MaxMem=  3758096384 cpu:               0.0 elap:               0.0
 (Enter /apps/easybuild-2022/easybuild/software/Compiler/NVHPC/22.11-CUDA-11.7.0/Gaussian/g16c01-CUDA-11.7.0/g16/l202.exe)
                          Input orientation:                          
 ---------------------------------------------------------------------
 Center     Atomic      Atomic             Coordinates (Angstroms)
 Number     Number       Type             X           Y           Z
 ---------------------------------------------------------------------
      1          6           0        2.546099    0.084547   -2.628982
      2          6           0        2.514269   -0.528425   -1.265715
      3          9           0       -0.380630    0.548949   -1.228886
      4          9           0        2.737140   -1.857943   -1.286891
      5         16           0        1.657313    0.000035   -0.000541
      6          8           0       -0.000215    0.002053   -0.001417
      7          8           0        1.868485   -0.673599    1.224179
      8          8           0        1.780451    1.548121    0.000996
      9          9           0        2.414303    1.416782   -2.579195
     10          9           0        3.714284   -0.189931   -3.207828
     11          9           0        1.594690   -0.381969   -3.440084
     12          1           0        2.666205    1.825282   -0.277841
 ---------------------------------------------------------------------
                    Distance matrix (angstroms):
                    1          2          3          4          5
     1  C    0.000000
     2  C    1.495073   0.000000
     3  F    3.277451   3.089099   0.000000
     4  F    2.368749   1.348235   3.939160   0.000000
     5  S    2.775929   1.616883   2.441997   2.504556   0.000000
     6  O    3.659866   2.863999   1.396600   3.550372   1.657529
     7  O    3.985071   2.576371   3.545514   2.909073   1.413618
     8  O    3.105648   2.540687   2.679781   3.764994   1.552977
     9  F    1.339664   2.349266   3.223060   3.535264   3.038036
    10  F    1.332313   2.307903   4.607654   2.725266   3.814958
    11  F    1.334430   2.365365   3.107715   2.849549   3.461257
    12  H    2.927874   2.557131   3.437545   3.819602   2.103874
                    6          7          8          9         10
     6  O    0.000000
     7  O    2.334658   0.000000
     8  O    2.358199   2.537708   0.000000
     9  F    3.804772   4.374158   2.660151   0.000000
    10  F    4.910747   4.825308   4.130023   2.160245   0.000000
    11  F    3.809938   4.681384   3.949783   2.156015   2.140911
    12  H    3.241970   3.022719   0.969087   2.350862   3.707341
                   11         12
    11  F    0.000000
    12  H    4.002484   0.000000
 Symmetry turned off by external request.
 Stoichiometry    C2HF5O3S
 Rotational constants (GHZ):           1.4705421           0.8189316           0.7127427
 Leave Link  202 at Sat May 24 08:14:40 2025, MaxMem=  3758096384 cpu:               0.0 elap:               0.0
 (Enter /apps/easybuild-2022/easybuild/software/Compiler/NVHPC/22.11-CUDA-11.7.0/Gaussian/g16c01-CUDA-11.7.0/g16/l301.exe)
 Standard basis: def2TZVPP (5D, 7F)
 Ernie: Thresh=  0.10000D-02 Tol=  0.10000D-05 Strict=F.
   366 basis functions,   596 primitive gaussians,   423 cartesian basis functions
    49 alpha electrons       49 beta electrons
       nuclear repulsion energy       910.4172640524 Hartrees.
 IExCor= 4336 DFT=T Ex+Corr=M062X ExCW=0 ScaHFX=  0.540000
 ScaDFX=  1.000000  1.000000  1.000000  1.000000 ScalE2=  1.000000  1.000000
 IRadAn=      5 IRanWt=     -1 IRanGd=            0 ICorTp=0 IEmpDi=  4
 NAtoms=   12 NActive=   12 NUniq=   12 SFac= 1.00D+00 NAtFMM=   60 NAOKFM=F Big=F
 Integral buffers will be    131072 words long.
 Raffenetti 2 integral format.
 Two-electron integral symmetry is turned off.
 Leave Link  301 at Sat May 24 08:14:40 2025, MaxMem=  3758096384 cpu:               0.0 elap:               0.0
 (Enter /apps/easybuild-2022/easybuild/software/Compiler/NVHPC/22.11-CUDA-11.7.0/Gaussian/g16c01-CUDA-11.7.0/g16/l302.exe)
 NPDir=0 NMtPBC=     1 NCelOv=     1 NCel=       1 NClECP=     1 NCelD=      1
         NCelK=      1 NCelE2=     1 NClLst=     1 CellRange=     0.0.
 One-electron integrals computed using PRISM.
   1 Symmetry operations used in ECPInt.
 ECPInt:  NShTT=    8515 NPrTT=   27988 LenC2=    7962 LenP2D=   19246.
 LDataN:  DoStor=T MaxTD1= 6 Len=  172
 NBasis=   366 RedAO= T EigKep=  3.85D-04  NBF=   366
 NBsUse=   366 1.00D-06 EigRej= -1.00D+00 NBFU=   366
 Precomputing XC quadrature grid using
 IXCGrd= 4 IRadAn=           5 IRanWt=          -1 IRanGd=           0 AccXCQ= 0.00D+00.
 Generated NRdTot=       0 NPtTot=           0 NUsed=           0 NTot=          32
 NSgBfM=   419   419   419   419   419 MxSgAt=    12 MxSgA2=    12.
 Leave Link  302 at Sat May 24 08:14:40 2025, MaxMem=  3758096384 cpu:               0.7 elap:               0.2
 (Enter /apps/easybuild-2022/easybuild/software/Compiler/NVHPC/22.11-CUDA-11.7.0/Gaussian/g16c01-CUDA-11.7.0/g16/l303.exe)
 DipDrv:  MaxL=1.
 Leave Link  303 at Sat May 24 08:14:40 2025, MaxMem=  3758096384 cpu:               0.1 elap:               0.0
 (Enter /apps/easybuild-2022/easybuild/software/Compiler/NVHPC/22.11-CUDA-11.7.0/Gaussian/g16c01-CUDA-11.7.0/g16/l401.exe)
 Initial guess from the checkpoint file:  "/tmp/Gau-7565.chk"
 B after Tr=     0.000018    0.000013    0.000089
         Rot=    1.000000   -0.000028    0.000007    0.000022 Ang=  -0.00 deg.
 Guess basis will be translated and rotated to current coordinates.
 JPrj=2 DoOrth=T DoCkMO=T.
 Leave Link  401 at Sat May 24 08:14:40 2025, MaxMem=  3758096384 cpu:               0.3 elap:               0.1
 (Enter /apps/easybuild-2022/easybuild/software/Compiler/NVHPC/22.11-CUDA-11.7.0/Gaussian/g16c01-CUDA-11.7.0/g16/l502.exe)
[...]
    D7        1.12857   0.00000   0.00000  -0.00000  -0.00000   1.12856
    D8       -3.05249  -0.00000   0.00000  -0.00000  -0.00000  -3.05249
    D9       -0.72764  -0.00000   0.00000  -0.00000  -0.00000  -0.72764
   D10       -1.49624   0.00000   0.00000  -0.00000  -0.00000  -1.49624
   D11        0.60588   0.00000   0.00000   0.00000   0.00000   0.60588
   D12        2.93073   0.00000   0.00000   0.00000   0.00000   2.93073
   D13       -0.81373   0.00000   0.00000   0.00001   0.00001  -0.81372
   D14       -3.05774   0.00000   0.00000   0.00001   0.00001  -3.05773
   D15        1.15286   0.00000   0.00000   0.00001   0.00001   1.15287
   D16       -0.64085  -0.00000   0.00000  -0.00002  -0.00002  -0.64087
   D17       -2.82766  -0.00000   0.00000  -0.00002  -0.00002  -2.82767
   D18        1.67214  -0.00000   0.00000  -0.00002  -0.00002   1.67212
         Item               Value     Threshold  Converged?
 Maximum Force            0.000000     0.000015     YES
 RMS     Force            0.000000     0.000010     YES
 Maximum Displacement     0.000026     0.000060     YES
 RMS     Displacement     0.000006     0.000040     YES
 Predicted change in Energy=-3.946791D-12
 Optimization completed.
    -- Stationary point found.
                           ----------------------------
                           !   Optimized Parameters   !
                           ! (Angstroms and Degrees)  !
 --------------------------                            --------------------------
 ! Name  Definition              Value          Derivative Info.                !
 --------------------------------------------------------------------------------
 ! R1    R(1,2)                  1.4951         -DE/DX =    0.0                 !
 ! R2    R(1,9)                  1.3397         -DE/DX =    0.0                 !
 ! R3    R(1,10)                 1.3323         -DE/DX =    0.0                 !
 ! R4    R(1,11)                 1.3344         -DE/DX =    0.0                 !
 ! R5    R(2,4)                  1.3482         -DE/DX =    0.0                 !
 ! R6    R(2,5)                  1.6169         -DE/DX =    0.0                 !
 ! R7    R(3,6)                  1.3966         -DE/DX =    0.0                 !
 ! R8    R(5,6)                  1.6575         -DE/DX =    0.0                 !
 ! R9    R(5,7)                  1.4136         -DE/DX =    0.0                 !
 ! R10   R(5,8)                  1.553          -DE/DX =    0.0                 !
 ! R11   R(8,12)                 0.9691         -DE/DX =    0.0                 !
 ! A1    A(2,1,9)              111.8231         -DE/DX =    0.0                 !
 ! A2    A(2,1,10)             109.2909         -DE/DX =    0.0                 !
 ! A3    A(2,1,11)             113.3111         -DE/DX =    0.0                 !
 ! A4    A(9,1,10)             107.8955         -DE/DX =    0.0                 !
 ! A5    A(9,1,11)             107.4641         -DE/DX =    0.0                 !
 ! A6    A(10,1,11)            106.8002         -DE/DX =    0.0                 !
 ! A7    A(1,2,4)              112.7345         -DE/DX =    0.0                 !
 ! A8    A(1,2,5)              126.212          -DE/DX =    0.0                 !
 ! A9    A(4,2,5)              114.9737         -DE/DX =    0.0                 !
 ! A10   A(2,5,6)              122.0048         -DE/DX =    0.0                 !
 ! A11   A(2,5,7)              116.295          -DE/DX =    0.0                 !
 ! A12   A(2,5,8)              106.5325         -DE/DX =    0.0                 !
 ! A13   A(6,5,7)               98.6515         -DE/DX =    0.0                 !
 ! A14   A(6,5,8)               94.4779         -DE/DX =    0.0                 !
 ! A15   A(7,5,8)              117.5375         -DE/DX =    0.0                 !
 ! A16   A(3,6,5)              105.8623         -DE/DX =    0.0                 !
 ! A17   A(5,8,12)             110.9338         -DE/DX =    0.0                 !
 ! D1    D(9,1,2,4)           -175.729          -DE/DX =    0.0                 !
 ! D2    D(9,1,2,5)             33.3242         -DE/DX =    0.0                 !
 ! D3    D(10,1,2,4)           -56.3322         -DE/DX =    0.0                 !
 ! D4    D(10,1,2,5)           152.7209         -DE/DX =    0.0                 !
 ! D5    D(11,1,2,4)            62.6325         -DE/DX =    0.0                 !
 ! D6    D(11,1,2,5)           -88.3144         -DE/DX =    0.0                 !
 ! D7    D(1,2,5,6)             64.6621         -DE/DX =    0.0                 !
 ! D8    D(1,2,5,7)           -174.895          -DE/DX =    0.0                 !
 ! D9    D(1,2,5,8)            -41.6909         -DE/DX =    0.0                 !
 ! D10   D(4,2,5,6)            -85.7283         -DE/DX =    0.0                 !
 ! D11   D(4,2,5,7)             34.7145         -DE/DX =    0.0                 !
 ! D12   D(4,2,5,8)            167.9187         -DE/DX =    0.0                 !
 ! D13   D(2,5,6,3)            -46.6233         -DE/DX =    0.0                 !
 ! D14   D(7,5,6,3)           -175.1956         -DE/DX =    0.0                 !
 ! D15   D(8,5,6,3)             66.0537         -DE/DX =    0.0                 !
 ! D16   D(2,5,8,12)           -36.718          -DE/DX =    0.0                 !
 ! D17   D(6,5,8,12)          -162.0129         -DE/DX =    0.0                 !
 ! D18   D(7,5,8,12)            95.8065         -DE/DX =    0.0                 !
 --------------------------------------------------------------------------------
 GradGradGradGradGradGradGradGradGradGradGradGradGradGradGradGradGradGrad

 Leave Link  103 at Sat May 24 08:21:17 2025, MaxMem=  3758096384 cpu:               0.1 elap:               0.0
 (Enter /apps/easybuild-2022/easybuild/software/Compiler/NVHPC/22.11-CUDA-11.7.0/Gaussian/g16c01-CUDA-11.7.0/g16/l9999.exe)

 ----------------------------------------------------------------------

 Electric dipole moment (input orientation):
 (Debye = 10**-18 statcoulomb cm , SI units = C m)
                  (au)            (Debye)         (10**-30 SI)
   Tot        0.104508D+01      0.265633D+01      0.886057D+01
   x          0.390875D+00      0.993506D+00      0.331398D+01
   y          0.959364D+00      0.243846D+01      0.813383D+01
   z          0.137961D+00      0.350661D+00      0.116968D+01

 Dipole polarizability, Alpha (input orientation).
 (esu units = cm**3 , SI units = C**2 m**2 J**-1)
 Alpha(0;0):
               (au)            (10**-24 esu)      (10**-40 SI)
   iso        0.592787D+02      0.878420D+01      0.977374D+01
   aniso      0.161625D+02      0.239503D+01      0.266483D+01
   xx         0.594408D+02      0.880821D+01      0.980046D+01
   yx        -0.425444D+01     -0.630443D+00     -0.701462D+00
   yy         0.530223D+02      0.785709D+01      0.874219D+01
   zx        -0.546788D+01     -0.810256D+00     -0.901532D+00
   zy        -0.959946D+00     -0.142249D+00     -0.158274D+00
   zz         0.653731D+02      0.968730D+01      0.107786D+02

 ----------------------------------------------------------------------

 Dipole orientation:
     6          6.02652657          3.14211978          1.29036745
     6          5.36161109          0.49939771          0.54463608
     9         -0.07646244          2.61509690          0.37670877
     9          6.50772145         -0.23375440         -1.60947007
    16          2.74521538         -0.94892800          1.17129088
     8         -0.00052655          0.00359264          0.00306049
     8          2.61543754         -3.51987279          0.45748773
     8          2.06077371         -0.27447254          3.94421780
     9          5.00947594          3.77476349          3.52068968
     9          8.52771764          3.34415505          1.49547713
     9          5.29145450          4.86912127         -0.39371938
     1          3.56597498         -0.16470455          4.98152588

 Electric dipole moment (dipole orientation):
 (Debye = 10**-18 statcoulomb cm , SI units = C m)
                  (au)            (Debye)         (10**-30 SI)
   Tot        0.104508D+01      0.265633D+01      0.886057D+01
   x          0.000000D+00      0.000000D+00      0.000000D+00
   y          0.000000D+00      0.000000D+00      0.000000D+00
   z          0.104508D+01      0.265633D+01      0.886057D+01

 Dipole polarizability, Alpha (dipole orientation).
 (esu units = cm**3 , SI units = C**2 m**2 J**-1)
 Alpha(0;0):
               (au)            (10**-24 esu)      (10**-40 SI)
   iso        0.592787D+02      0.878420D+01      0.977374D+01
   aniso      0.161625D+02      0.239503D+01      0.266483D+01
   xx         0.653089D+02      0.967778D+01      0.107680D+02
   yx         0.479336D+01      0.710302D+00      0.790318D+00
   yy         0.620859D+02      0.920018D+01      0.102366D+02
   zx        -0.945815D+00     -0.140155D+00     -0.155944D+00
   zy         0.142583D+01      0.211287D+00      0.235088D+00
   zz         0.504414D+02      0.747464D+01      0.831666D+01

 ----------------------------------------------------------------------
 Unable to Open any file for archive entry.
 1\1\GINC-SPARTAN-BM153\Freq\RM062X\def2TZVPP\C2H1F5O3S1\AKHALILOV\24-M
 ay-2025\0\\#P Geom=AllCheck Guess=TCheck SCRF=Check GenChk RM062X/def2
 TZVPP Freq\\Gaussian input prepared by ASE\\0,1\C,2.5460936314,0.08454
 3475,-2.6289885891\C,2.5142751583,-0.5284202116,-1.2657171735\F,-0.380
 6244099,0.5489562496,-1.2288970391\F,2.737153603,-1.8579364244,-1.2868
 870514\S,1.6573128296,0.0000369064,-0.0005458248\O,-0.0002150896,0.002
 0571181,-0.0014272039\O,1.8684821065,-0.6735981404,1.2241741\O,1.78044
 69542,1.5481241295,0.0009925742\F,2.4142873,1.4167758767,-2.5792136427
 \F,3.7142768382,-0.1899332014,-3.2078391189\F,1.5946822125,-0.38198880
 97,-3.4400798953\H,2.6662225948,1.8252840922,-0.2777763924\\Version=ES
 64L-G16RevC.01\HF=-1199.7188416\RMSD=2.379e-09\RMSF=3.873e-06\ZeroPoin
 t=0.0506969\Thermal=0.0614536\ETot=-1199.6573881\HTot=-1199.6564439\GT
 ot=-1199.705602\Dipole=0.3908754,0.9593638,0.1379607\DipoleDeriv=1.633
 1978,0.0421721,-0.0385275,0.1770622,1.4105749,-0.1439579,-0.3396188,0.
 2131378,2.1267574,-0.3991346,-0.1970762,0.0355589,-0.4680333,0.5664687
 ,0.3318416,0.2435839,0.0016989,-0.5898913,-0.1936396,0.0335139,-0.1158
 404,0.1181749,-0.0954652,0.1384056,-0.2989342,0.143114,-0.3043935,-0.1
 0235,0.1148597,0.0531203,0.3711055,-0.87221,-0.2141668,0.0535096,-0.04
 70564,-0.2263146,2.3116011,-0.1619536,-0.2799434,-0.0584794,1.9651553,
 0.0636332,-0.5511155,-0.0970546,2.1941183,-0.9500313,0.0994228,0.27020
 55,-0.0146394,-0.1579364,-0.1792512,0.5241018,-0.2034607,-0.1367197,-0
 .6086836,0.0759405,0.0279909,0.0264183,-0.5444282,0.2548784,0.0201199,
 0.1947956,-1.0643385,-0.4558062,-0.1561123,0.0237584,-0.1680968,-1.223
 9762,-0.173274,0.0511533,0.0034828,-0.4388855,-0.2580341,0.034537,-0.0
 051522,0.00035,-0.8465756,0.0256451,0.0427556,0.0460902,-0.4229771,-0.
 7726671,0.1238907,0.3121054,0.0745253,-0.2826292,-0.03323,0.3879878,-0
 .0871728,-0.6370339,-0.5093656,-0.1689424,-0.3219794,-0.1301513,-0.335
 741,-0.10026,-0.1516246,-0.1666734,-0.8467653,0.3049132,0.159748,0.038
 7035,0.071764,0.416763,0.0297361,0.0180813,-0.0009014,0.3464436\Polar=
 59.4407701,-4.2544387,53.0222682,-5.4678793,-0.9599459,65.3731393\PG=U
 nknown\NImag=0\\0.53209442,-0.00492510,0.56835138,-0.01193223,-0.02631
 361,0.59115083,-0.04654218,0.00463855,0.01029500,0.15796001,-0.0048361
 4,-0.08883996,0.07610533,-0.10856954,0.56673147,-0.00253333,0.04095018
 ,-0.17901222,-0.13926874,0.00924267,0.58886825,0.00008919,0.00011071,0
 .00062330,0.00172333,-0.00015884,0.00065756,0.08090549,0.00093199,-0.0
 0108627,0.00028330,-0.00138568,0.00033038,-0.00208426,-0.04424507,0.06
 444096,-0.00358304,0.00188039,-0.00352017,0.00077102,-0.00311886,0.005
 46134,0.10267119,-0.12636290,0.28871408,-0.00294938,0.00626725,-0.0006
 5768,-0.02701279,0.05374482,0.00479743,0.00046365,-0.00008495,0.000465
 72,0.03520053,0.00979352,-0.04218263,-0.01225988,0.05730678,-0.3538396
 7,-0.00393688,-0.00139440,0.00043721,0.00034062,-0.08235615,0.42883343
 ,-0.00460083,0.02891709,0.00200752,0.01511001,-0.01122784,-0.05552652,
 0.00023312,-0.00013414,0.00022599,-0.01499547,0.00693998,0.05469898,-0
 .00532265,-0.01963695,0.02503307,-0.07083303,0.06624206,0.11659416,-0.
 01182404,-0.00025643,-0.00244837,-0.01251315,-0.00385587,-0.00159148,0
 .47657771,-0.00685501,0.03921951,-0.01394248,0.03850262,-0.10073725,-0
 .05676038,0.02121190,-0.01217028,0.01591838,0.02792829,-0.04227795,-0.
 02628535,-0.07632886,0.75113699,0.02250903,0.00462528,-0.04773593,0.09
 601834,-0.09661655,-0.25700008,-0.04562680,0.01475228,-0.03204751,0.00
 665165,0.01901131,-0.00026796,-0.06175840,-0.20364082,0.99600802,-0.00
 659153,0.00540207,-0.01880171,0.00004244,-0.01840956,-0.00131672,-0.05
 910005,0.04021365,-0.09156114,-0.00303936,0.01568833,-0.00058619,-0.18
 326884,-0.01889327,0.03696252,0.27083340,0.00068546,-0.00222204,0.0033
 4187,0.00450284,0.00936665,0.00076417,0.02265761,-0.06089465,0.1159058
 4,-0.00196976,-0.00108837,0.00079621,0.01531869,-0.03991566,-0.0004712
 9,-0.01144407,0.11298450,0.00536124,-0.00559195,0.01546362,0.00891328,
 0.01476932,-0.00403746,-0.05482587,0.11652688,-0.26799006,0.00175900,-
 0.01055985,0.00118533,0.02211906,-0.00108717,-0.04962539,0.05900465,-0
 .13111908,0.32629485,0.00349252,0.00790134,-0.00405108,-0.00227164,-0.
 00943563,0.02141454,-0.01263866,0.00593109,-0.00964069,-0.00153834,0.0
 0028524,-0.00033370,-0.09424675,0.04411186,-0.06979108,0.00038020,0.01
 292809,-0.03627701,0.09171373,0.00407038,-0.00240648,-0.00213937,-0.00
 301401,0.00082289,-0.00080788,0.00160748,0.00498705,0.00007658,-0.0007
 4704,0.00942499,-0.00095941,0.05425035,-0.22091685,0.25352971,0.001193
 82,-0.00063725,0.01130910,-0.05831824,0.21479389,-0.00003173,-0.009848
 74,0.01228633,-0.00172806,0.03088563,-0.02560638,-0.00342581,0.0010230
 1,0.00319802,-0.00188797,-0.00654721,0.00186420,-0.08734814,0.26991669
 ,-0.56340113,0.00160450,0.00660115,-0.01415327,0.09307153,-0.29084242,
 0.58936932,-0.00181789,-0.00179783,-0.00206289,-0.00597801,0.01347316,
 0.00132229,-0.00049264,-0.00079876,-0.00003325,0.00646736,0.00421640,0
 .00498350,-0.08082005,-0.02408021,0.01352119,-0.02422179,-0.04217279,-
 0.00440163,0.01275346,-0.00276812,0.00081157,0.51907040,-0.00181648,-0
 .01810791,0.00965051,0.00309489,-0.01271968,0.00246140,-0.00039762,0.0
 0305617,-0.00304066,0.00058598,-0.00813946,-0.00701063,-0.00253976,-0.
 32517574,-0.00008066,-0.00906133,-0.01585776,0.00228538,-0.00340481,-0
 .00752831,-0.00446256,0.14996599,0.43407934,-0.00099700,0.00920956,0.0
 0177264,-0.00474773,-0.02109630,0.01468030,-0.00106735,-0.00334121,0.0
 0226030,0.00331321,-0.00440055,-0.00467966,0.01875351,-0.00171527,-0.0
 7221220,0.00405092,0.00883813,0.00329485,-0.00014873,0.02622224,0.0090
 6762,-0.15439797,-0.03462168,0.10350812,-0.07449159,0.01752411,0.00149
 185,0.00729208,0.00371833,-0.00431714,-0.00041128,-0.00042706,0.000710
 60,0.00257151,-0.00000800,0.00077330,-0.00297576,0.00316441,0.00060172
 ,0.00152592,-0.00015203,-0.00117535,0.00049456,-0.00052978,-0.00031884
 ,0.00060514,-0.00104206,0.00352023,0.08409553,0.01657612,-0.27991883,0
 .02033927,0.00580406,-0.03578123,0.00429652,0.00027791,0.00025999,-0.0
 0086302,-0.00114390,-0.00360316,0.00753413,0.00572977,-0.01670113,-0.0
 0659493,-0.00389355,0.00155406,0.00389113,-0.00158637,0.00159026,0.002
 72204,0.00104956,0.01051992,-0.00497543,-0.03560658,0.41262927,-0.0022
 7744,0.02269240,-0.08568544,-0.00402401,0.02993627,0.00707165,0.000133
 65,-0.00007227,0.00051097,0.00086441,0.00737765,-0.00514552,-0.0034195
 8,-0.00422956,0.00273758,0.00220033,0.00022009,-0.00161965,0.00042952,
 0.00107006,-0.00104068,0.00237665,0.00141005,-0.01178890,-0.00134040,0
 .01443786,0.08771120,-0.23060080,0.02632317,0.09373560,-0.01491394,0.0
 0876110,0.02462898,-0.00004398,-0.00003849,0.00014885,0.00148387,-0.00
 304906,-0.00205982,-0.00016339,-0.00305919,-0.00186824,-0.00061600,0.0
 0039075,0.00055260,-0.00009456,-0.00010453,0.00282018,0.00021296,0.000
 66347,0.00119315,-0.01857596,0.04070116,0.01543449,0.35417793,0.030349
 49,-0.08155044,-0.01243767,-0.00394384,0.00674138,0.00288262,-0.000045
 09,0.00015366,-0.00026833,-0.00150670,0.00461587,0.00100048,0.00037323
 ,-0.00416663,0.00171728,-0.00023492,0.00022285,0.00028353,-0.00035754,
 0.00079080,0.00064331,0.00028675,0.00190877,-0.00115017,0.05366152,-0.
 03588354,-0.03022026,-0.06454522,0.09351203,0.09648951,-0.01493765,-0.
 13628748,0.04140766,-0.00886226,-0.03552477,-0.00016163,-0.00016400,0.
 00106639,-0.00213360,0.00103666,0.00193873,-0.00112003,0.00942935,0.00
 537901,0.00509219,-0.00130849,-0.00439195,-0.00018932,-0.00067846,-0.0
 0449239,0.00004984,-0.00255465,-0.00041546,0.01212792,-0.01882987,0.00
 709878,-0.13073344,0.03544691,0.14621588,-0.16955245,-0.04256067,-0.09
 159126,0.00243995,-0.00669006,-0.02243607,0.00018671,-0.00012689,0.001
 70792,0.00077634,0.00110493,0.00164380,-0.01145704,0.00252627,0.004598
 11,0.00329481,0.00009197,-0.00253679,0.00277440,0.00041963,-0.00225657
 ,0.00133400,-0.00080350,-0.00067122,0.00096102,-0.02771860,-0.01207101
 ,-0.08980329,-0.01405325,-0.02164795,0.25902720,-0.04355223,-0.0931929
 1,-0.03758877,0.00259084,0.00718595,0.00427145,-0.00000226,0.00008666,
 -0.00004242,-0.00166483,0.00518242,-0.00124606,0.00098017,-0.00356286,
 0.00025644,0.00036863,0.00015248,-0.00028867,-0.00059207,0.00045495,0.
 00027754,0.00049775,0.00225694,-0.00129256,-0.04033112,-0.05288227,-0.
 04376327,-0.00564622,0.01395203,0.00041749,0.08743258,0.12067251,-0.09
 776164,-0.04053462,-0.17079992,-0.02381552,-0.01924232,-0.05649636,0.0
 0022986,-0.00064869,0.00144632,0.00134974,0.00350100,0.00405423,-0.023
 16587,0.00818695,0.01546222,0.00574567,-0.00010802,-0.00491163,0.00575
 827,0.00182653,-0.00557631,0.00152316,-0.00466239,-0.00015925,-0.01212
 924,-0.02777154,-0.00003745,-0.00312956,0.00089966,0.01945634,0.144672
 11,0.07729153,0.19802572,0.00219233,0.00075335,-0.00208197,-0.00190620
 ,0.00216029,0.00045706,0.00114228,0.00028661,0.00079120,0.00008977,0.0
 0226830,0.00142376,-0.00315302,-0.00822883,-0.00181803,0.00076080,-0.0
 0083676,0.00150683,-0.00081892,0.00394008,-0.00131067,-0.42711294,-0.1
 3524476,0.13119899,-0.00109118,-0.00018959,0.00169338,-0.00106284,0.00
 001559,0.00081886,0.00001837,-0.00008124,0.00072303,0.43094157,-0.0004
 2201,0.00193657,-0.00503849,0.00047249,0.00073906,-0.00127962,0.000377
 69,0.00039910,-0.00042562,0.00094699,0.00263731,0.00167552,-0.04027641
 ,-0.02473216,0.01351196,-0.00092978,-0.00366481,-0.00041861,0.00253704
 ,-0.00137595,-0.00036845,-0.09787190,-0.06429229,0.02832324,0.00002826
 ,-0.00178334,0.00114099,-0.00039694,-0.00029679,0.00100497,0.00037760,
 -0.00030589,0.00126191,0.13515697,0.09073920,-0.00064255,-0.01104833,0
 .00036022,0.00106876,-0.00077510,-0.00287774,0.00055880,0.00022200,0.0
 0067432,0.00047358,-0.00050285,-0.00035533,-0.00164792,0.00420966,0.00
 270337,-0.00239502,-0.00346057,0.00049077,-0.00024225,0.00139333,-0.00
 151532,0.13630753,0.04062588,-0.04532835,0.00005536,0.00581385,0.00018
 746,-0.00072279,0.00120264,-0.00004308,0.00058894,0.00170730,-0.000463
 90,-0.13340243,-0.03938780,0.04616758\\-0.00000052,-0.00000274,-0.0000
 0013,0.00000216,0.00000169,0.00000188,-0.00000124,-0.00000717,-0.00000
 007,0.00000636,0.00000238,0.00000638,0.00000102,0.00000319,0.00000070,
 0.00000115,-0.00000222,0.00000153,0.00000394,0.00000812,0.00000281,-0.
 00000381,0.00000374,-0.00000459,-0.00000477,-0.00000300,-0.00000452,0.
 00000002,-0.00000102,0.00000020,0.00000047,-0.00000855,0.00000196,-0.0
 0000479,0.00000559,-0.00000616\\\@
 The archive entry for this job was punched.


 Money is a good servant but a bad master.
                        -- French Proverb
 Job cpu time:       0 days  0 hours 36 minutes 48.1 seconds.
 Elapsed time:       0 days  0 hours  4 minutes 40.6 seconds.
 File lengths (MBytes):  RWF=    164 Int=      0 D2E=      0 Chk=     11 Scr=      1
 Normal termination of Gaussian 16 at Sat May 24 08:21:17 2025.
done
