 Entering Gaussian System, Link 0=g16
 Initial command:
 /apps/easybuild-2022/easybuild/software/Compiler/NVHPC/22.11-CUDA-11.7.0/Gaussian/g16c01-CUDA-11.7.0/g16/l1.exe "/tmp/Gau-265094.inp" -scrdir="/tmp/"
 Entering Link 1 = /apps/easybuild-2022/easybuild/software/Compiler/NVHPC/22.11-CUDA-11.7.0/Gaussian/g16c01-CUDA-11.7.0/g16/l1.exe PID=    265095.
  
 Copyright (c) 1988-2019, Gaussian, Inc.  All Rights Reserved.
  
 This is part of the Gaussian(R) 16 program.  It is based on
 the Gaussian(R) 09 system (copyright 2009, Gaussian, Inc.),
 the Gaussian(R) 03 system (copyright 2003, Gaussian, Inc.),
 the Gaussian(R) 98 system (copyright 1998, Gaussian, Inc.),
 the Gaussian(R) 94 system (copyright 1995, Gaussian, Inc.),
 the Gaussian 92(TM) system (copyright 1992, Gaussian, Inc.),
 the Gaussian 90(TM) system (copyright 1990, Gaussian, Inc.),
 the Gaussian 88(TM) system (copyright 1988, Gaussian, Inc.),
 the Gaussian 86(TM) system (copyright 1986, Carnegie Mellon
 University), and the Gaussian 82(TM) system (copyright 1983,
 Carnegie Mellon University). Gaussian is a federally registered
 trademark of Gaussian, Inc.
  
 This software contains proprietary and confidential information,
 including trade secrets, belonging to Gaussian, Inc.
  
 This software is provided under written license and may be
 used, copied, transmitted, or stored only in accord with that
 written license.
  
 The following legend is applicable only to US Government
 contracts under FAR:
  
                    RESTRICTED RIGHTS LEGEND
  
 Use, reproduction and disclosure by the US Government is
 subject to restrictions as set forth in subparagraphs (a)
 and (c) of the Commercial Computer Software - Restricted
 Rights clause in FAR 52.227-19.
  
 Gaussian, Inc.
 340 Quinnipiac St., Bldg. 40, Wallingford CT 06492
  
  
 ---------------------------------------------------------------
 Warning -- This program may not be used in any manner that
 competes with the business of Gaussian, Inc. or will provide
 assistance to any competitor of Gaussian, Inc.  The licensee
 of this program is prohibited from giving any competitor of
 Gaussian, Inc. access to this program.  By using this program,
 the user acknowledges that Gaussian, Inc. is engaged in the
 business of creating and licensing software in the field of
 computational chemistry and represents and warrants to the
 licensee that it is not a competitor of Gaussian, Inc. and that
 it will not use this program in any manner prohibited above.
 ---------------------------------------------------------------
  

 Cite this work as:
 Gaussian 16, Revision C.01,
 M. J. Frisch, G. W. Trucks, H. B. Schlegel, G. E. Scuseria, 
 M. A. Robb, J. R. Cheeseman, G. Scalmani, V. Barone, 
 G. A. Petersson, H. Nakatsuji, X. Li, M. Caricato, A. V. Marenich, 
 J. Bloino, B. G. Janesko, R. Gomperts, B. Mennucci, H. P. Hratchian, 
 J. V. Ortiz, A. F. Izmaylov, J. L. Sonnenberg, D. Williams-Young, 
 F. Ding, F. Lipparini, F. Egidi, J. Goings, B. Peng, A. Petrone, 
 T. Henderson, D. Ranasinghe, V. G. Zakrzewski, J. Gao, N. Rega, 
 G. Zheng, W. Liang, M. Hada, M. Ehara, K. Toyota, R. Fukuda, 
 J. Hasegawa, M. Ishida, T. Nakajima, Y. Honda, O. Kitao, H. Nakai, 
 T. Vreven, K. Throssell, J. A. Montgomery, Jr., J. E. Peralta, 
 F. Ogliaro, M. J. Bearpark, J. J. Heyd, E. N. Brothers, K. N. Kudin, 
 V. N. Staroverov, T. A. Keith, R. Kobayashi, J. Normand, 
 K. Raghavachari, A. P. Rendell, J. C. Burant, S. S. Iyengar, 
 J. Tomasi, M. Cossi, J. M. Millam, M. Klene, C. Adamo, R. Cammi, 
 J. W. Ochterski, R. L. Martin, K. Morokuma, O. Farkas, 
 J. B. Foresman, and D. J. Fox, Gaussian, Inc., Wallingford CT, 2019.
 
 ******************************************
 Gaussian 16:  ES64L-G16RevC.01  3-Jul-2019
                23-May-2025 
 ******************************************
 %mem=28GB
 %nprocshared=8
 Will use up to    8 processors via shared memory.
 ----------------------------------------------------------------------
 #P M062X/Def2TZVPP Symm(None) scf(xqc) pop(None) freq opt(CalcFC, Tigh
 t)
 ----------------------------------------------------------------------
 1/7=10,10=4,18=20,19=15,26=3,38=1/1,3;
 2/9=110,12=2,15=3,17=6,18=5,40=1/2;
 3/5=44,7=202,11=2,25=1,30=1,71=2,74=-55,140=1/1,2,3;
 4//1;
 5/5=2,8=3,13=1,38=5/2,8;
 8/6=4,10=90,11=11/1;
 11/6=1,8=1,9=11,15=111,16=1,31=1/1,2,10;
 10/6=1,13=1,31=1/2;
 7/10=1,25=1,30=1/1,2,3,16;
 1/7=10,10=4,18=20,19=15,26=3/3(2);
 2/9=110,15=3/2;
 99//99;
 2/9=110,15=3/2;
 3/5=44,7=202,11=2,25=1,30=1,71=1,74=-55/1,2,3;
 4/5=5,16=3,69=1/1;
 5/5=2,8=3,13=1,38=5/2,8;
 7/30=1/1,2,3,16;
 1/7=10,18=20,19=15,26=3/3(-5);
 2/9=110,15=3/2;
 99/9=1/99;
 Leave Link    1 at Fri May 23 23:42:20 2025, MaxMem=  3758096384 cpu:               0.1 elap:               0.0
 (Enter /apps/easybuild-2022/easybuild/software/Compiler/NVHPC/22.11-CUDA-11.7.0/Gaussian/g16c01-CUDA-11.7.0/g16/l101.exe)
 ------------------------------
 Gaussian input prepared by ASE
 ------------------------------
 Symbolic Z-matrix:
 Charge =  0 Multiplicity = 1
 C                    -0.64885   0.38455  -1.34969 
 C                     0.        0.        0. 
 F                    -0.40543   0.86688   0.93527 
 F                    -0.39857  -1.22505   0.33127 
 S                     1.8447    0.        0. 
 O                     2.22779  -0.5449    1.25243 
 O                     2.27624  -0.5109   -1.24382 
 O                     2.12769   1.5448    0. 
 F                    -0.15479   1.53483  -1.78373 
 F                    -0.43751  -0.55518  -2.25072 
 F                    -1.95571   0.52061  -1.16787 
 H                     1.42547   2.01464  -0.47293 
 
 ITRead=  0  0  0  0  0  0  0  0  0  0  0  0
 MicOpt= -1 -1 -1 -1 -1 -1 -1 -1 -1 -1 -1 -1
 NAtoms=     12 NQM=       12 NQMF=       0 NMMI=      0 NMMIF=      0
                NMic=       0 NMicF=      0.
                    Isotopes and Nuclear Properties:
 (Nuclear quadrupole moments (NQMom) in fm**2, nuclear magnetic moments (NMagM)
  in nuclear magnetons)

  Atom         1           2           3           4           5           6           7           8           9          10
 IAtWgt=          12          12          19          19          32          16          16          16          19          19
 AtmWgt=  12.0000000  12.0000000  18.9984032  18.9984032  31.9720718  15.9949146  15.9949146  15.9949146  18.9984032  18.9984032
 NucSpn=           0           0           1           1           0           0           0           0           1           1
 AtZEff=  -0.0000000  -0.0000000  -0.0000000  -0.0000000  -0.0000000  -0.0000000  -0.0000000  -0.0000000  -0.0000000  -0.0000000
 NQMom=    0.0000000   0.0000000   0.0000000   0.0000000   0.0000000   0.0000000   0.0000000   0.0000000   0.0000000   0.0000000
 NMagM=    0.0000000   0.0000000   2.6288670   2.6288670   0.0000000   0.0000000   0.0000000   0.0000000   2.6288670   2.6288670
 AtZNuc=   6.0000000   6.0000000   9.0000000   9.0000000  16.0000000   8.0000000   8.0000000   8.0000000   9.0000000   9.0000000

  Atom        11          12
 IAtWgt=          19           1
 AtmWgt=  18.9984032   1.0078250
 NucSpn=           1           1
 AtZEff=  -0.0000000  -0.0000000
 NQMom=    0.0000000   0.0000000
 NMagM=    2.6288670   2.7928460
 AtZNuc=   9.0000000   1.0000000
 Leave Link  101 at Fri May 23 23:42:20 2025, MaxMem=  3758096384 cpu:               0.3 elap:               0.2
 (Enter /apps/easybuild-2022/easybuild/software/Compiler/NVHPC/22.11-CUDA-11.7.0/Gaussian/g16c01-CUDA-11.7.0/g16/l103.exe)

 GradGradGradGradGradGradGradGradGradGradGradGradGradGradGradGradGradGrad
 Berny optimization.
 Initialization pass.
                           ----------------------------
                           !    Initial Parameters    !
                           ! (Angstroms and Degrees)  !
 --------------------------                            --------------------------
 ! Name  Definition              Value          Derivative Info.                !
 --------------------------------------------------------------------------------
 ! R1    R(1,2)                  1.5461         calculate D2E/DX2 analytically  !
 ! R2    R(1,9)                  1.325          calculate D2E/DX2 analytically  !
 ! R3    R(1,10)                 1.3189         calculate D2E/DX2 analytically  !
 ! R4    R(1,11)                 1.3264         calculate D2E/DX2 analytically  !
 ! R5    R(2,3)                  1.3381         calculate D2E/DX2 analytically  !
 ! R6    R(2,4)                  1.3302         calculate D2E/DX2 analytically  !
 ! R7    R(2,5)                  1.8447         calculate D2E/DX2 analytically  !
 ! R8    R(5,6)                  1.4185         calculate D2E/DX2 analytically  !
 ! R9    R(5,7)                  1.4122         calculate D2E/DX2 analytically  !
 ! R10   R(5,8)                  1.5705         calculate D2E/DX2 analytically  !
 ! R11   R(8,12)                 0.9683         calculate D2E/DX2 analytically  !
 ! A1    A(2,1,9)              110.2057         calculate D2E/DX2 analytically  !
 ! A2    A(2,1,10)             110.6033         calculate D2E/DX2 analytically  !
 ! A3    A(2,1,11)             108.6213         calculate D2E/DX2 analytically  !
 ! A4    A(9,1,10)             109.5732         calculate D2E/DX2 analytically  !
 ! A5    A(9,1,11)             108.8579         calculate D2E/DX2 analytically  !
 ! A6    A(10,1,11)            108.941          calculate D2E/DX2 analytically  !
 ! A7    A(1,2,3)              108.7755         calculate D2E/DX2 analytically  !
 ! A8    A(1,2,4)              108.7061         calculate D2E/DX2 analytically  !
 ! A9    A(1,2,5)              114.813          calculate D2E/DX2 analytically  !
 ! A10   A(3,2,4)              109.3772         calculate D2E/DX2 analytically  !
 ! A11   A(3,2,5)              107.6367         calculate D2E/DX2 analytically  !
 ! A12   A(4,2,5)              107.4359         calculate D2E/DX2 analytically  !
 ! A13   A(2,5,6)              105.668          calculate D2E/DX2 analytically  !
 ! A14   A(2,5,7)              107.7932         calculate D2E/DX2 analytically  !
 ! A15   A(2,5,8)              100.381          calculate D2E/DX2 analytically  !
 ! A16   A(6,5,7)              123.7885         calculate D2E/DX2 analytically  !
 ! A17   A(6,5,8)              109.2188         calculate D2E/DX2 analytically  !
 ! A18   A(7,5,8)              107.5051         calculate D2E/DX2 analytically  !
 ! A19   A(5,8,12)             110.2805         calculate D2E/DX2 analytically  !
 ! D1    D(9,1,2,3)             68.0833         calculate D2E/DX2 analytically  !
 ! D2    D(9,1,2,4)           -172.8987         calculate D2E/DX2 analytically  !
 ! D3    D(9,1,2,5)            -52.5625         calculate D2E/DX2 analytically  !
 ! D4    D(10,1,2,3)          -170.6023         calculate D2E/DX2 analytically  !
 ! D5    D(10,1,2,4)           -51.5842         calculate D2E/DX2 analytically  !
 ! D6    D(10,1,2,5)            68.752          calculate D2E/DX2 analytically  !
 ! D7    D(11,1,2,3)           -51.0903         calculate D2E/DX2 analytically  !
 ! D8    D(11,1,2,4)            67.9277         calculate D2E/DX2 analytically  !
 ! D9    D(11,1,2,5)          -171.7361         calculate D2E/DX2 analytically  !
 ! D10   D(1,2,5,6)           -172.3904         calculate D2E/DX2 analytically  !
 ! D11   D(1,2,5,7)            -38.2337         calculate D2E/DX2 analytically  !
 ! D12   D(1,2,5,8)             74.097          calculate D2E/DX2 analytically  !
 ! D13   D(3,2,5,6)             66.3394         calculate D2E/DX2 analytically  !
 ! D14   D(3,2,5,7)           -159.5039         calculate D2E/DX2 analytically  !
 ! D15   D(3,2,5,8)            -47.1732         calculate D2E/DX2 analytically  !
 ! D16   D(4,2,5,6)            -51.3558         calculate D2E/DX2 analytically  !
 ! D17   D(4,2,5,7)             82.801          calculate D2E/DX2 analytically  !
 ! D18   D(4,2,5,8)           -164.8684         calculate D2E/DX2 analytically  !
 ! D19   D(2,5,8,12)           -31.38           calculate D2E/DX2 analytically  !
 ! D20   D(6,5,8,12)          -142.1504         calculate D2E/DX2 analytically  !
 ! D21   D(7,5,8,12)            81.1725         calculate D2E/DX2 analytically  !
 --------------------------------------------------------------------------------
 Trust Radius=3.00D-01 FncErr=1.00D-07 GrdErr=1.00D-06 EigMax=2.50D+02 EigMin=1.00D-04
 Number of steps in this run=     61 maximum allowed number of steps=    100.
 GradGradGradGradGradGradGradGradGradGradGradGradGradGradGradGradGradGrad

 Leave Link  103 at Fri May 23 23:42:20 2025, MaxMem=  3758096384 cpu:               0.1 elap:               0.0
 (Enter /apps/easybuild-2022/easybuild/software/Compiler/NVHPC/22.11-CUDA-11.7.0/Gaussian/g16c01-CUDA-11.7.0/g16/l202.exe)
                          Input orientation:                          
 ---------------------------------------------------------------------
 Center     Atomic      Atomic             Coordinates (Angstroms)
 Number     Number       Type             X           Y           Z
 ---------------------------------------------------------------------
      1          6           0       -0.648850    0.384547   -1.349694
      2          6           0        0.000000    0.000000    0.000000
      3          9           0       -0.405426    0.866880    0.935268
      4          9           0       -0.398569   -1.225047    0.331268
      5         16           0        1.844696    0.000000    0.000000
      6          8           0        2.227790   -0.544899    1.252427
      7          8           0        2.276242   -0.510904   -1.243819
      8          8           0        2.127691    1.544803    0.000000
      9          9           0       -0.154792    1.534833   -1.783729
     10          9           0       -0.437512   -0.555179   -2.250717
     11          9           0       -1.955706    0.520605   -1.167867
     12          1           0        1.425470    2.014644   -0.472928
 ---------------------------------------------------------------------
                    Distance matrix (angstroms):
                    1          2          3          4          5
     1  C    0.000000
     2  C    1.546142   0.000000
     3  F    2.347967   1.338124   0.000000
     4  F    2.340741   1.330164   2.177389   0.000000
     5  S    2.861350   1.844696   2.586359   2.577347   0.000000
     6  O    3.988730   2.613147   3.004586   2.865118   1.418538
     7  O    3.060916   2.643744   3.719953   3.185201   1.412211
     8  O    3.298037   2.629351   2.784059   3.763482   1.570511
     9  F    1.325004   2.358254   2.811036   3.485624   3.087936
    10  F    1.318936   2.359103   3.489095   2.667749   3.253064
    11  F    1.326441   2.336607   2.635613   2.778378   4.009738
    12  H    2.780061   2.512850   2.579255   3.803872   2.111445
                    6          7          8          9         10
     6  O    0.000000
     7  O    2.496947   0.000000
     8  O    2.438329   2.407299   0.000000
     9  F    4.384088   3.222804   2.896811   0.000000
    10  F    4.401813   2.894868   4.006984   2.160129   0.000000
    11  F    4.949219   4.356508   4.368870   2.156672   2.152856
    12  H    3.189329   2.774253   0.968258   2.108471   3.638026
                   11         12
    11  F    0.000000
    12  H    3.761310   0.000000
 Symmetry turned off by external request.
 Stoichiometry    C2HF5O3S
 Rotational constants (GHZ):           1.5939822           0.8621956           0.8067988
 Leave Link  202 at Fri May 23 23:42:20 2025, MaxMem=  3758096384 cpu:               0.1 elap:               0.0
 (Enter /apps/easybuild-2022/easybuild/software/Compiler/NVHPC/22.11-CUDA-11.7.0/Gaussian/g16c01-CUDA-11.7.0/g16/l301.exe)
 Standard basis: def2TZVPP (5D, 7F)
 Ernie: Thresh=  0.10000D-02 Tol=  0.10000D-05 Strict=F.
   366 basis functions,   596 primitive gaussians,   423 cartesian basis functions
    49 alpha electrons       49 beta electrons
       nuclear repulsion energy       934.5441298997 Hartrees.
 IExCor= 4336 DFT=T Ex+Corr=M062X ExCW=0 ScaHFX=  0.540000
 ScaDFX=  1.000000  1.000000  1.000000  1.000000 ScalE2=  1.000000  1.000000
 IRadAn=      5 IRanWt=     -1 IRanGd=            0 ICorTp=0 IEmpDi=  4
 NAtoms=   12 NActive=   12 NUniq=   12 SFac= 1.00D+00 NAtFMM=   60 NAOKFM=F Big=F
 Integral buffers will be    131072 words long.
 Raffenetti 2 integral format.
 Two-electron integral symmetry is turned off.
 Leave Link  301 at Fri May 23 23:42:20 2025, MaxMem=  3758096384 cpu:               0.1 elap:               0.0
 (Enter /apps/easybuild-2022/easybuild/software/Compiler/NVHPC/22.11-CUDA-11.7.0/Gaussian/g16c01-CUDA-11.7.0/g16/l302.exe)
 NPDir=0 NMtPBC=     1 NCelOv=     1 NCel=       1 NClECP=     1 NCelD=      1
         NCelK=      1 NCelE2=     1 NClLst=     1 CellRange=     0.0.
 One-electron integrals computed using PRISM.
   1 Symmetry operations used in ECPInt.
 ECPInt:  NShTT=    8515 NPrTT=   27988 LenC2=    8059 LenP2D=   19678.
 LDataN:  DoStor=T MaxTD1= 6 Len=  172
 NBasis=   366 RedAO= T EigKep=  4.73D-04  NBF=   366
 NBsUse=   366 1.00D-06 EigRej= -1.00D+00 NBFU=   366
 Precomputing XC quadrature grid using
 IXCGrd= 4 IRadAn=           5 IRanWt=          -1 IRanGd=           0 AccXCQ= 0.00D+00.
 Generated NRdTot=       0 NPtTot=           0 NUsed=           0 NTot=          32
 NSgBfM=   419   419   419   419   419 MxSgAt=    12 MxSgA2=    12.
 Leave Link  302 at Fri May 23 23:42:21 2025, MaxMem=  3758096384 cpu:               0.8 elap:               0.2
 (Enter /apps/easybuild-2022/easybuild/software/Compiler/NVHPC/22.11-CUDA-11.7.0/Gaussian/g16c01-CUDA-11.7.0/g16/l303.exe)
 DipDrv:  MaxL=1.
 Leave Link  303 at Fri May 23 23:42:21 2025, MaxMem=  3758096384 cpu:               0.1 elap:               0.0
 (Enter /apps/easybuild-2022/easybuild/software/Compiler/NVHPC/22.11-CUDA-11.7.0/Gaussian/g16c01-CUDA-11.7.0/g16/l401.exe)
 ExpMin= 9.52D-02 ExpMax= 6.07D+04 ExpMxC= 2.07D+03 IAcc=3 IRadAn=         5 AccDes= 0.00D+00
 Harris functional with IExCor= 1009 and IRadAn=       5 diagonalized for initial guess.
 HarFok:  IExCor= 1009 AccDes= 0.00D+00 IRadAn=         5 IDoV= 1 UseB2=F ITyADJ=14
 ICtDFT=  3500011 ScaDFX=  1.000000  1.000000  1.000000  1.000000
 FoFCou: FMM=F IPFlag=           0 FMFlag=      100000 FMFlg1=           0
         NFxFlg=           0 DoJE=T BraDBF=F KetDBF=T FulRan=T
         wScrn=  0.000000 ICntrl=       500 IOpCl=  0 I1Cent=   200000004 NGrid=           0
         NMat0=    1 NMatS0=      1 NMatT0=    0 NMatD0=    1 NMtDS0=    0 NMtDT0=    0
 Symmetry not used in FoFCou.
 Harris En= -1199.33933591206    
 JPrj=0 DoOrth=F DoCkMO=F.
 Leave Link  401 at Fri May 23 23:42:21 2025, MaxMem=  3758096384 cpu:               3.7 elap:               0.5
 (Enter /apps/easybuild-2022/easybuild/software/Compiler/NVHPC/22.11-CUDA-11.7.0/Gaussian/g16c01-CUDA-11.7.0/g16/l502.exe)
 Keep R1 ints in memory in canonical form, NReq=2293446996.
 FoFCou: FMM=F IPFlag=           0 FMFlag=           0 FMFlg1=           0
         NFxFlg=           0 DoJE=F BraDBF=F KetDBF=F FulRan=T
         wScrn=  0.000000 ICntrl=       600 IOpCl=  0 I1Cent=           0 NGrid=           0
         NMat0=    1 NMatS0=  67161 NMatT0=    0 NMatD0=    1 NMtDS0=    0 NMtDT0=    0
 Symmetry not used in FoFCou.
 Two-electron integral symmetry not used.
 Closed shell SCF:
 Using DIIS extrapolation, IDIIS=  1040.
 NGot=  3758096384 LenX=  1502398672 LenY=  1502219302
 Requested convergence on RMS density matrix=1.00D-08 within  32 cycles.
 Requested convergence on MAX density matrix=1.00D-06.
 Requested convergence on             energy=1.00D-06.
 No special actions if energy rises.
 Integral accuracy reduced to 1.0D-05 until final iterations.

 Cycle   1  Pass 0  IDiag  1:
 E= -1199.60681121533    
 DIIS: error= 2.36D-02 at cycle   1 NSaved=   1.
 NSaved= 1 IEnMin= 1 EnMin= -1199.60681121533     IErMin= 1 ErrMin= 2.36D-02
 ErrMax= 2.36D-02  0.00D+00 EMaxC= 1.00D-01 BMatC= 6.25D-01 BMatP= 6.25D-01
 IDIUse=3 WtCom= 7.64D-01 WtEn= 2.36D-01
 Coeff-Com:  0.100D+01
 Coeff-En:   0.100D+01
 Coeff:      0.100D+01
 Gap=     0.497 Goal=   None    Shift=    0.000
 GapD=    0.497 DampG=2.000 DampE=0.500 DampFc=1.0000 IDamp=-1.
 RMSDP=2.71D-03 MaxDP=2.61D-01              OVMax= 2.30D-01

 Cycle   2  Pass 0  IDiag  1:
 E= -1199.27624292246     Delta-E=        0.330568292867 Rises=F Damp=F
 DIIS: error= 3.69D-02 at cycle   2 NSaved=   2.
 NSaved= 2 IEnMin= 1 EnMin= -1199.60681121533     IErMin= 1 ErrMin= 2.36D-02
 ErrMax= 3.69D-02  0.00D+00 EMaxC= 1.00D-01 BMatC= 1.03D+00 BMatP= 6.25D-01
 IDIUse=2 WtCom= 0.00D+00 WtEn= 1.00D+00
 Coeff-En:   0.654D+00 0.346D+00
 Coeff:      0.654D+00 0.346D+00
 Gap=     0.457 Goal=   None    Shift=    0.000
 RMSDP=1.39D-03 MaxDP=1.55D-01 DE= 3.31D-01 OVMax= 1.32D-01

 Cycle   3  Pass 0  IDiag  1:
 E= -1199.92296336462     Delta-E=       -0.646720442155 Rises=F Damp=F
 DIIS: error= 3.06D-03 at cycle   3 NSaved=   3.
 NSaved= 3 IEnMin= 3 EnMin= -1199.92296336462     IErMin= 3 ErrMin= 3.06D-03
 ErrMax= 3.06D-03  0.00D+00 EMaxC= 1.00D-01 BMatC= 1.75D-02 BMatP= 6.25D-01
 IDIUse=3 WtCom= 9.69D-01 WtEn= 3.06D-02
 Coeff-Com:  0.825D-01-0.504D-01 0.968D+00
 Coeff-En:   0.000D+00 0.000D+00 0.100D+01
 Coeff:      0.800D-01-0.489D-01 0.969D+00
 Gap=     0.452 Goal=   None    Shift=    0.000
 RMSDP=2.14D-04 MaxDP=1.32D-02 DE=-6.47D-01 OVMax= 1.69D-02

 Cycle   4  Pass 0  IDiag  1:
 E= -1199.93042696792     Delta-E=       -0.007463603300 Rises=F Damp=F
 DIIS: error= 1.87D-03 at cycle   4 NSaved=   4.
 NSaved= 4 IEnMin= 4 EnMin= -1199.93042696792     IErMin= 4 ErrMin= 1.87D-03
 ErrMax= 1.87D-03  0.00D+00 EMaxC= 1.00D-01 BMatC= 3.59D-03 BMatP= 1.75D-02
 IDIUse=3 WtCom= 9.81D-01 WtEn= 1.87D-02
 Coeff-Com:  0.813D-02-0.519D-01 0.495D+00 0.549D+00
 Coeff-En:   0.000D+00 0.000D+00 0.354D-01 0.965D+00
 Coeff:      0.798D-02-0.509D-01 0.486D+00 0.557D+00
 Gap=     0.456 Goal=   None    Shift=    0.000
 RMSDP=9.05D-05 MaxDP=5.89D-03 DE=-7.46D-03 OVMax= 9.95D-03

 Cycle   5  Pass 0  IDiag  1:
 E= -1199.93266131281     Delta-E=       -0.002234344887 Rises=F Damp=F
 DIIS: error= 3.37D-04 at cycle   5 NSaved=   5.
 NSaved= 5 IEnMin= 5 EnMin= -1199.93266131281     IErMin= 5 ErrMin= 3.37D-04
 ErrMax= 3.37D-04  0.00D+00 EMaxC= 1.00D-01 BMatC= 1.47D-04 BMatP= 3.59D-03
 IDIUse=3 WtCom= 9.97D-01 WtEn= 3.37D-03
 Coeff-Com: -0.841D-03-0.176D-01 0.133D+00 0.227D+00 0.658D+00
 Coeff-En:   0.000D+00 0.000D+00 0.000D+00 0.000D+00 0.100D+01
 Coeff:     -0.839D-03-0.175D-01 0.133D+00 0.227D+00 0.659D+00
 Gap=     0.453 Goal=   None    Shift=    0.000
 RMSDP=2.62D-05 MaxDP=1.07D-03 DE=-2.23D-03 OVMax= 2.00D-03

 Cycle   6  Pass 0  IDiag  1:
 E= -1199.93275605678     Delta-E=       -0.000094743971 Rises=F Damp=F
 DIIS: error= 1.13D-04 at cycle   6 NSaved=   6.
 NSaved= 6 IEnMin= 6 EnMin= -1199.93275605678     IErMin= 6 ErrMin= 1.13D-04
 ErrMax= 1.13D-04  0.00D+00 EMaxC= 1.00D-01 BMatC= 9.70D-06 BMatP= 1.47D-04
 IDIUse=3 WtCom= 9.99D-01 WtEn= 1.13D-03
 Coeff-Com: -0.722D-03-0.401D-02 0.245D-01 0.566D-01 0.275D+00 0.649D+00
 Coeff-En:   0.000D+00 0.000D+00 0.000D+00 0.000D+00 0.000D+00 0.100D+01
 Coeff:     -0.721D-03-0.400D-02 0.244D-01 0.565D-01 0.274D+00 0.649D+00
 Gap=     0.453 Goal=   None    Shift=    0.000
 RMSDP=6.70D-06 MaxDP=2.67D-04 DE=-9.47D-05 OVMax= 6.21D-04

 Initial convergence to 1.0D-05 achieved.  Increase integral accuracy.
 Cycle   7  Pass 1  IDiag  1:
 E= -1199.93279501086     Delta-E=       -0.000038954083 Rises=F Damp=F
 DIIS: error= 3.03D-05 at cycle   1 NSaved=   1.
 NSaved= 1 IEnMin= 1 EnMin= -1199.93279501086     IErMin= 1 ErrMin= 3.03D-05
 ErrMax= 3.03D-05  0.00D+00 EMaxC= 1.00D-01 BMatC= 1.54D-06 BMatP= 1.54D-06
 IDIUse=1 WtCom= 1.00D+00 WtEn= 0.00D+00
 Coeff-Com:  0.100D+01
 Coeff:      0.100D+01
 Gap=     0.454 Goal=   None    Shift=    0.000
 RMSDP=6.70D-06 MaxDP=2.67D-04 DE=-3.90D-05 OVMax= 4.33D-04

 Cycle   8  Pass 1  IDiag  1:
 E= -1199.93279497731     Delta-E=        0.000000033547 Rises=F Damp=F
 DIIS: error= 4.91D-05 at cycle   2 NSaved=   2.
 NSaved= 2 IEnMin= 1 EnMin= -1199.93279501086     IErMin= 1 ErrMin= 3.03D-05
 ErrMax= 4.91D-05  0.00D+00 EMaxC= 1.00D-01 BMatC= 1.81D-06 BMatP= 1.54D-06
 IDIUse=1 WtCom= 1.00D+00 WtEn= 0.00D+00
 Coeff-Com:  0.524D+00 0.476D+00
 Coeff:      0.524D+00 0.476D+00
 Gap=     0.453 Goal=   None    Shift=    0.000
 RMSDP=2.38D-06 MaxDP=1.17D-04 DE= 3.35D-08 OVMax= 3.14D-04

 Cycle   9  Pass 1  IDiag  1:
 E= -1199.93279612924     Delta-E=       -0.000001151930 Rises=F Damp=F
 DIIS: error= 1.18D-05 at cycle   3 NSaved=   3.
 NSaved= 3 IEnMin= 3 EnMin= -1199.93279612924     IErMin= 3 ErrMin= 1.18D-05
 ErrMax= 1.18D-05  0.00D+00 EMaxC= 1.00D-01 BMatC= 8.41D-08 BMatP= 1.54D-06
 IDIUse=1 WtCom= 1.00D+00 WtEn= 0.00D+00
 Coeff-Com:  0.108D-01 0.168D+00 0.821D+00
 Coeff:      0.108D-01 0.168D+00 0.821D+00
 Gap=     0.453 Goal=   None    Shift=    0.000
 RMSDP=7.39D-07 MaxDP=2.64D-05 DE=-1.15D-06 OVMax= 7.27D-05

 Cycle  10  Pass 1  IDiag  1:
 E= -1199.93279618433     Delta-E=       -0.000000055087 Rises=F Damp=F
 DIIS: error= 3.55D-06 at cycle   4 NSaved=   4.
 NSaved= 4 IEnMin= 4 EnMin= -1199.93279618433     IErMin= 4 ErrMin= 3.55D-06
 ErrMax= 3.55D-06  0.00D+00 EMaxC= 1.00D-01 BMatC= 1.29D-08 BMatP= 8.41D-08
 IDIUse=1 WtCom= 1.00D+00 WtEn= 0.00D+00
 Coeff-Com: -0.307D-01 0.532D-01 0.414D+00 0.563D+00
 Coeff:     -0.307D-01 0.532D-01 0.414D+00 0.563D+00
 Gap=     0.453 Goal=   None    Shift=    0.000
 RMSDP=2.05D-07 MaxDP=9.11D-06 DE=-5.51D-08 OVMax= 1.50D-05

 Cycle  11  Pass 1  IDiag  1:
 E= -1199.93279619236     Delta-E=       -0.000000008032 Rises=F Damp=F
 DIIS: error= 5.51D-07 at cycle   5 NSaved=   5.
 NSaved= 5 IEnMin= 5 EnMin= -1199.93279619236     IErMin= 5 ErrMin= 5.51D-07
 ErrMax= 5.51D-07  0.00D+00 EMaxC= 1.00D-01 BMatC= 2.85D-10 BMatP= 1.29D-08
 IDIUse=1 WtCom= 1.00D+00 WtEn= 0.00D+00
 Coeff-Com: -0.805D-02 0.847D-03 0.393D-01 0.123D+00 0.845D+00
 Coeff:     -0.805D-02 0.847D-03 0.393D-01 0.123D+00 0.845D+00
 Gap=     0.453 Goal=   None    Shift=    0.000
 RMSDP=6.79D-08 MaxDP=3.27D-06 DE=-8.03D-09 OVMax= 5.73D-06

 Cycle  12  Pass 1  IDiag  1:
 E= -1199.93279619249     Delta-E=       -0.000000000133 Rises=F Damp=F
 DIIS: error= 2.19D-07 at cycle   6 NSaved=   6.
 NSaved= 6 IEnMin= 6 EnMin= -1199.93279619249     IErMin= 6 ErrMin= 2.19D-07
 ErrMax= 2.19D-07  0.00D+00 EMaxC= 1.00D-01 BMatC= 4.72D-11 BMatP= 2.85D-10
 IDIUse=1 WtCom= 1.00D+00 WtEn= 0.00D+00
 Coeff-Com:  0.134D-02-0.669D-02-0.410D-01-0.368D-01 0.278D+00 0.805D+00
 Coeff:      0.134D-02-0.669D-02-0.410D-01-0.368D-01 0.278D+00 0.805D+00
 Gap=     0.453 Goal=   None    Shift=    0.000
 RMSDP=2.10D-08 MaxDP=1.26D-06 DE=-1.33D-10 OVMax= 2.32D-06

 Cycle  13  Pass 1  IDiag  1:
 E= -1199.93279619254     Delta-E=       -0.000000000049 Rises=F Damp=F
 DIIS: error= 9.53D-08 at cycle   7 NSaved=   7.
 NSaved= 7 IEnMin= 7 EnMin= -1199.93279619254     IErMin= 7 ErrMin= 9.53D-08
 ErrMax= 9.53D-08  0.00D+00 EMaxC= 1.00D-01 BMatC= 7.88D-12 BMatP= 4.72D-11
 IDIUse=1 WtCom= 1.00D+00 WtEn= 0.00D+00
 Coeff-Com:  0.989D-03-0.320D-02-0.212D-01-0.237D-01 0.873D-01 0.388D+00
 Coeff-Com:  0.572D+00
 Coeff:      0.989D-03-0.320D-02-0.212D-01-0.237D-01 0.873D-01 0.388D+00
 Coeff:      0.572D+00
 Gap=     0.453 Goal=   None    Shift=    0.000
 RMSDP=5.55D-09 MaxDP=5.01D-07 DE=-4.91D-11 OVMax= 5.85D-07

 SCF Done:  E(RM062X) =  -1199.93279619     A.U. after   13 cycles
            NFock= 13  Conv=0.55D-08     -V/T= 2.0028
 KE= 1.196545309496D+03 PE=-4.714584612583D+03 EE= 1.383562376995D+03
 Leave Link  502 at Fri May 23 23:42:55 2025, MaxMem=  3758096384 cpu:             131.2 elap:              33.8
 (Enter /apps/easybuild-2022/easybuild/software/Compiler/NVHPC/22.11-CUDA-11.7.0/Gaussian/g16c01-CUDA-11.7.0/g16/l508.exe)
 QCSCF skips out because SCF is already converged.
 Leave Link  508 at Fri May 23 23:42:55 2025, MaxMem=  3758096384 cpu:               0.1 elap:               0.0
 (Enter /apps/easybuild-2022/easybuild/software/Compiler/NVHPC/22.11-CUDA-11.7.0/Gaussian/g16c01-CUDA-11.7.0/g16/l801.exe)
 DoSCS=F DFT=T ScalE2(SS,OS)=  1.000000  1.000000
 Range of M.O.s used for correlation:     1   366
 NBasis=   366 NAE=    49 NBE=    49 NFC=     0 NFV=     0
 NROrb=    366 NOA=    49 NOB=    49 NVA=   317 NVB=   317

 **** Warning!!: The largest alpha MO coefficient is  0.15673174D+02

 Leave Link  801 at Fri May 23 23:42:55 2025, MaxMem=  3758096384 cpu:               0.1 elap:               0.0
 (Enter /apps/easybuild-2022/easybuild/software/Compiler/NVHPC/22.11-CUDA-11.7.0/Gaussian/g16c01-CUDA-11.7.0/g16/l1101.exe)
 Using compressed storage, NAtomX=    12.
 Will process     13 centers per pass.
   1 Symmetry operations used in ECPInt.
 ECPInt:  NShTT=    8515 NPrTT=   27988 LenC2=    8059 LenP2D=   19678.
 LDataN:  DoStor=T MaxTD1= 7 Len=  274
 Leave Link 1101 at Fri May 23 23:42:55 2025, MaxMem=  3758096384 cpu:               1.2 elap:               0.2
 (Enter /apps/easybuild-2022/easybuild/software/Compiler/NVHPC/22.11-CUDA-11.7.0/Gaussian/g16c01-CUDA-11.7.0/g16/l1102.exe)
 Symmetrizing basis deriv contribution to polar:
 IMax=3 JMax=2 DiffMx= 0.00D+00
 Leave Link 1102 at Fri May 23 23:42:55 2025, MaxMem=  3758096384 cpu:               0.1 elap:               0.0
 (Enter /apps/easybuild-2022/easybuild/software/Compiler/NVHPC/22.11-CUDA-11.7.0/Gaussian/g16c01-CUDA-11.7.0/g16/l1110.exe)
 Forming Gx(P) for the SCF density, NAtomX=    12.
 Integral derivatives from FoFJK, PRISM(SPDF).
 Do as many integral derivatives as possible in FoFJK.
 G2DrvN: MDV=    3758095012.
 G2DrvN: will do    13 centers at a time, making    1 passes.
 Calling FoFCou, ICntrl=  3107 FMM=F I1Cent=   0 AccDes= 0.00D+00.
 FoFJK:  IHMeth= 1 ICntrl=    3107 DoSepK=F KAlg= 0 I1Cent=           0 FoldK=F
 IRaf=         0 NMat=       1 IRICut=       1 DoRegI=T DoRafI=F ISym2E= 0 IDoP0=0 IntGTp=1.
 FoFCou: FMM=F IPFlag=           0 FMFlag=      100000 FMFlg1=           0
         NFxFlg=           0 DoJE=F BraDBF=F KetDBF=F FulRan=T
         wScrn=  0.000000 ICntrl=      3107 IOpCl=  0 I1Cent=           0 NGrid=           0
         NMat0=    1 NMatS0=      1 NMatT0=    0 NMatD0=    1 NMtDS0=    0 NMtDT0=    0
 Symmetry not used in FoFCou.
 End of G2Drv F.D. properties file   721 does not exist.
 End of G2Drv F.D. properties file   722 does not exist.
 End of G2Drv F.D. properties file   788 does not exist.
 Leave Link 1110 at Fri May 23 23:43:42 2025, MaxMem=  3758096384 cpu:             371.0 elap:              46.7
 (Enter /apps/easybuild-2022/easybuild/software/Compiler/NVHPC/22.11-CUDA-11.7.0/Gaussian/g16c01-CUDA-11.7.0/g16/l1002.exe)
 Minotr:  Closed shell wavefunction.
          IDoAtm=111111111111
          Direct CPHF calculation.
          Differentiating once with respect to nuclear coordinates.
          Requested convergence is 1.0D-08 RMS, and 1.0D-07 maximum.
          Secondary convergence is 1.0D-12 RMS, and 1.0D-12 maximum.
          NewPWx=T KeepS1=F KeepF1=F KeepIn=T MapXYZ=F SortEE=F KeepMc=T.
         3598 words used for storage of precomputed grid.
 Keep R1 ints in memory in canonical form, NReq=2293452904.
 FoFCou: FMM=F IPFlag=           0 FMFlag=           0 FMFlg1=           0
         NFxFlg=           0 DoJE=F BraDBF=F KetDBF=F FulRan=T
         wScrn=  0.000000 ICntrl=       600 IOpCl=  0 I1Cent=           0 NGrid=           0
         NMat0=    1 NMatS0=  67161 NMatT0=    0 NMatD0=    1 NMtDS0=    0 NMtDT0=    0
 Symmetry not used in FoFCou.
 Two-electron integral symmetry not used.
          MDV=    3758096384 using IRadAn=       1.
          Solving linear equations simultaneously, MaxMat=       0.
          There are    39 degrees of freedom in the 1st order CPHF.  IDoFFX=6 NUNeed=     0.
     33 vectors produced by pass  0 Test12= 3.98D-14 2.56D-09 XBig12= 2.33D-01 6.83D-02.
 AX will form    33 AO Fock derivatives at one time.
     33 vectors produced by pass  1 Test12= 3.98D-14 2.56D-09 XBig12= 7.36D-02 4.36D-02.
     33 vectors produced by pass  2 Test12= 3.98D-14 2.56D-09 XBig12= 2.13D-03 5.99D-03.
     33 vectors produced by pass  3 Test12= 3.98D-14 2.56D-09 XBig12= 4.08D-05 7.21D-04.
     33 vectors produced by pass  4 Test12= 3.98D-14 2.56D-09 XBig12= 5.66D-07 7.87D-05.
     33 vectors produced by pass  5 Test12= 3.98D-14 2.56D-09 XBig12= 5.71D-09 1.29D-05.
     33 vectors produced by pass  6 Test12= 3.98D-14 2.56D-09 XBig12= 3.99D-11 6.33D-07.
     19 vectors produced by pass  7 Test12= 3.98D-14 2.56D-09 XBig12= 2.21D-13 5.58D-08.
      2 vectors produced by pass  8 Test12= 3.98D-14 2.56D-09 XBig12= 1.20D-15 3.58D-09.
 InvSVY:  IOpt=1 It=  1 EMax= 2.00D-15
 Solved reduced A of dimension   252 with    33 vectors.
 End of Minotr F.D. properties file   721 does not exist.
 End of Minotr F.D. properties file   722 does not exist.
 End of Minotr F.D. properties file   788 does not exist.
 Leave Link 1002 at Fri May 23 23:44:59 2025, MaxMem=  3758096384 cpu:             609.1 elap:              77.2
 (Enter /apps/easybuild-2022/easybuild/software/Compiler/NVHPC/22.11-CUDA-11.7.0/Gaussian/g16c01-CUDA-11.7.0/g16/l701.exe)
 ... and contract with generalized density number  0.
 Compute integral second derivatives.
   1 Symmetry operations used in ECPInt.
 ECPInt:  NShTT=    8515 NPrTT=   27988 LenC2=    8059 LenP2D=   19678.
 LDataN:  DoStor=T MaxTD1= 8 Len=  415
 Leave Link  701 at Fri May 23 23:45:00 2025, MaxMem=  3758096384 cpu:               1.0 elap:               0.2
 (Enter /apps/easybuild-2022/easybuild/software/Compiler/NVHPC/22.11-CUDA-11.7.0/Gaussian/g16c01-CUDA-11.7.0/g16/l702.exe)
 L702 exits ... SP integral derivatives will be done elsewhere.
 Leave Link  702 at Fri May 23 23:45:00 2025, MaxMem=  3758096384 cpu:               0.1 elap:               0.0
 (Enter /apps/easybuild-2022/easybuild/software/Compiler/NVHPC/22.11-CUDA-11.7.0/Gaussian/g16c01-CUDA-11.7.0/g16/l703.exe)
 Integral derivatives from FoFJK, PRISM(SPDF).
 Compute integral second derivatives, UseDBF=F ICtDFT=           0.
 Calling FoFJK, ICntrl=    100127 FMM=F ISym2X=0 I1Cent= 0 IOpClX= 0 NMat=1 NMatS=1 NMatT=0.
 FoFJK:  IHMeth= 1 ICntrl=  100127 DoSepK=F KAlg= 0 I1Cent=           0 FoldK=F
 IRaf=         0 NMat=       1 IRICut=       1 DoRegI=T DoRafI=F ISym2E= 0 IDoP0=0 IntGTp=1.
 FoFCou: FMM=F IPFlag=           0 FMFlag=      100000 FMFlg1=         800
         NFxFlg=           0 DoJE=F BraDBF=F KetDBF=F FulRan=T
         wScrn=  0.000000 ICntrl=    100127 IOpCl=  0 I1Cent=           0 NGrid=           0
         NMat0=    1 NMatS0=      1 NMatT0=    0 NMatD0=    1 NMtDS0=    0 NMtDT0=    0
 Symmetry not used in FoFCou.
 Leave Link  703 at Fri May 23 23:46:43 2025, MaxMem=  3758096384 cpu:             821.0 elap:             103.2
 (Enter /apps/easybuild-2022/easybuild/software/Compiler/NVHPC/22.11-CUDA-11.7.0/Gaussian/g16c01-CUDA-11.7.0/g16/l716.exe)
 Dipole        =-7.53712414D-01 9.39259492D-01-3.67600156D-01
 Polarizability= 0.00000000D+00 0.00000000D+00 0.00000000D+00
                 0.00000000D+00 0.00000000D+00 0.00000000D+00
 -------------------------------------------------------------------
 Center     Atomic                   Forces (Hartrees/Bohr)
 Number     Number              X              Y              Z
 -------------------------------------------------------------------
      1        6          -0.007868631   -0.015085666    0.003982365
      2        6          -0.000846997   -0.002712456    0.004323600
      3        9          -0.001508109    0.000710320   -0.001909694
      4        9           0.000199418    0.001359572   -0.001642523
      5       16           0.002228879    0.000991768    0.005245425
      6        8           0.000943704    0.005171739   -0.008922017
      7        8           0.000637661   -0.010068040   -0.005143735
      8        8          -0.004978507    0.002279026    0.010817782
      9        9           0.003890228    0.008691142   -0.002363301
     10        9           0.000154589    0.003233589    0.000642899
     11        9           0.002311295    0.001636291   -0.001329442
     12        1           0.004836470    0.003792716   -0.003701358
 -------------------------------------------------------------------
 Cartesian Forces:  Max     0.015085666 RMS     0.005075769
 Force constants in Cartesian coordinates: 
                1             2             3             4             5 
      1  0.589231D+00
      2  0.729905D-03  0.610952D+00
      3  0.136889D-01  0.144851D-02  0.620731D+00
      4 -0.894425D-01  0.107023D-01 -0.377636D-01  0.474685D+00
      5  0.198185D-01 -0.507466D-01  0.339413D-01  0.120409D-01  0.560512D+00
      6 -0.742558D-01  0.352062D-01 -0.159330D+00 -0.218999D-01 -0.127561D-01
      7  0.291226D-03 -0.123078D-02 -0.440805D-02 -0.102243D+00  0.544392D-01
      8  0.458065D-02 -0.871939D-02 -0.855981D-02  0.497531D-01 -0.146177D+00
      9  0.240177D-01 -0.387496D-01 -0.291257D-01  0.596207D-01 -0.101463D+00
     10  0.238688D-02  0.366509D-02 -0.265494D-02 -0.104167D+00 -0.855195D-01
     11 -0.170261D-01 -0.362689D-01  0.564504D-02 -0.784219D-01 -0.279178D+00
     12  0.187839D-01  0.340931D-01 -0.456621D-02  0.269903D-01  0.759892D-01
     13 -0.118619D-01  0.898565D-02 -0.344381D-01 -0.168637D+00  0.142550D-02
     14  0.107666D-01  0.262046D-01 -0.301877D-02  0.386410D-02 -0.308633D-01
     15 -0.347645D-01  0.189767D-02  0.225832D-01 -0.238377D-01  0.769448D-02
     16 -0.424540D-02 -0.354917D-02  0.135875D-01  0.248240D-02  0.129625D-01
     17 -0.346181D-03 -0.247025D-02 -0.258838D-02 -0.406849D-02 -0.295031D-02
     18  0.238424D-02 -0.183096D-02  0.353354D-02  0.113713D-01  0.861000D-02
     19  0.356709D-02 -0.402351D-02  0.518665D-02  0.168145D-01  0.125927D-01
     20 -0.166851D-02 -0.602743D-02 -0.224378D-02 -0.586789D-02  0.168057D-02
     21  0.740107D-02 -0.280168D-02 -0.130585D-01 -0.122570D-01 -0.877614D-02
     22  0.138022D-02  0.230717D-02  0.514805D-02  0.908710D-02 -0.206365D-01
     23 -0.283639D-02 -0.133205D-01  0.829241D-02  0.163211D-01 -0.171651D-01
     24  0.409409D-02  0.413183D-02 -0.453320D-02  0.278817D-02 -0.240626D-02
     25 -0.953046D-01 -0.610935D-01  0.252286D-01  0.658328D-02  0.236643D-02
     26 -0.595428D-01 -0.254248D+00  0.952233D-01 -0.165353D-01 -0.276748D-01
     27  0.244674D-01  0.929866D-01 -0.127991D+00  0.157598D-01  0.334878D-01
     28 -0.815149D-01  0.205428D-01  0.155333D-01  0.911959D-02 -0.776348D-02
     29  0.177300D-01 -0.185097D+00 -0.127300D+00  0.239882D-02 -0.100724D-01
     30  0.127068D-01 -0.117992D+00 -0.230444D+00  0.788851D-02 -0.380771D-01
     31 -0.310633D+00  0.323096D-01 -0.675060D-03 -0.559230D-01  0.441317D-02
     32  0.315652D-01 -0.801701D-01  0.161800D-02  0.156207D-01  0.213802D-02
     33  0.503101D-02 -0.227762D-03 -0.829404D-01 -0.310475D-01  0.194120D-02
     34 -0.385345D-02 -0.934554D-02  0.156666D-02  0.164051D-02 -0.613946D-02
     35 -0.377098D-02 -0.882625D-04 -0.245792D-02 -0.580741D-02  0.497069D-03
     36 -0.355490D-02 -0.816183D-02  0.514124D-02  0.238693D-02  0.181510D-02
                6             7             8             9            10 
      6  0.562628D+00
      7  0.687612D-01  0.101030D+00
      8 -0.109501D+00 -0.684105D-01  0.220478D+00
      9 -0.216252D+00 -0.804500D-01  0.164300D+00  0.250177D+00
     10  0.295246D-01  0.154457D-01  0.743776D-02 -0.555396D-02  0.961133D-01
     11  0.854844D-01 -0.309886D-02 -0.695484D-01 -0.188038D-01  0.104915D+00
     12 -0.102239D+00 -0.884939D-02 -0.336327D-01  0.148652D-01 -0.305204D-01
     13  0.134009D-01 -0.380432D-02  0.728723D-03 -0.526809D-03 -0.895560D-03
     14  0.106443D-01  0.251244D-01 -0.160529D-01 -0.166397D-01 -0.384870D-01
     15 -0.496065D-01  0.327487D-01 -0.154197D-01 -0.172075D-01  0.115615D-01
     16 -0.337238D-01 -0.965117D-03  0.151595D-02  0.266628D-02 -0.183793D-03
     17  0.102807D-01 -0.129347D-02  0.202912D-02  0.699456D-03  0.236547D-02
     18 -0.179456D-01 -0.487896D-02  0.359747D-02  0.741896D-02 -0.140599D-02
     19  0.184222D-01 -0.126838D-01  0.579447D-02  0.615635D-02 -0.433153D-02
     20 -0.644382D-02  0.160546D-02  0.853600D-03  0.364172D-03  0.554735D-02
     21 -0.264943D-02  0.479215D-02 -0.167643D-02  0.119052D-03  0.324885D-02
     22 -0.108149D-02 -0.159043D-02 -0.158596D-02 -0.769540D-04 -0.104224D-01
     23 -0.836944D-02 -0.437166D-02  0.844710D-02  0.531894D-02 -0.725858D-02
     24  0.362792D-02 -0.272022D-03  0.332049D-02  0.238969D-02 -0.342112D-03
     25 -0.131004D-02  0.852621D-03  0.669267D-04 -0.958800D-03  0.131707D-02
     26  0.268499D-02  0.786599D-03  0.541993D-02  0.481941D-02  0.351522D-02
     27 -0.141908D-02 -0.755658D-03 -0.114816D-02  0.102587D-03 -0.261524D-02
     28 -0.353697D-02  0.190586D-03 -0.670486D-03 -0.476805D-02  0.513604D-03
     29 -0.686522D-02 -0.160562D-02  0.159789D-02 -0.148472D-02  0.768286D-03
     30 -0.227813D-01 -0.368523D-02 -0.981414D-03 -0.131768D-01 -0.943337D-05
     31  0.614076D-02  0.542727D-02 -0.140565D-02 -0.128623D-02  0.512241D-02
     32 -0.140196D-02 -0.251882D-02  0.215368D-02  0.199336D-02  0.468139D-03
     33  0.226238D-02 -0.266125D-02  0.183057D-02  0.237352D-02  0.441806D-03
     34 -0.441572D-03 -0.194990D-02  0.219504D-02  0.115972D-02 -0.898681D-03
     35  0.103704D-02  0.574108D-03 -0.481004D-03 -0.354162D-03  0.258285D-02
     36  0.370455D-02 -0.341464D-03 -0.212929D-02 -0.168322D-02 -0.167458D-02
               11            12            13            14            15 
     11  0.394980D+00
     12 -0.879286D-01  0.974282D-01
     13  0.756023D-04 -0.375164D-02  0.588419D+00
     14 -0.275420D-01  0.907019D-02 -0.120972D+00  0.710052D+00
     15  0.777567D-02 -0.204040D-02 -0.829946D-02 -0.954613D-02  0.129348D+01
     16 -0.113818D-02  0.824669D-03 -0.149168D+00  0.698422D-01 -0.157737D+00
     17  0.634113D-02 -0.353916D-02  0.641202D-01 -0.170702D+00  0.200915D+00
     18 -0.521944D-02  0.368681D-02 -0.149516D+00  0.197783D+00 -0.569461D+00
     19 -0.537737D-02  0.290069D-03 -0.166598D+00  0.813106D-01  0.184799D+00
     20  0.549571D-02 -0.920825D-03  0.754933D-01 -0.165597D+00 -0.203325D+00
     21  0.452783D-02  0.105034D-02  0.175865D+00 -0.199703D+00 -0.587037D+00
     22 -0.737672D-02  0.193535D-02 -0.101923D+00 -0.294523D-01 -0.159435D-01
     23 -0.199243D-02  0.308355D-03 -0.514368D-01 -0.271128D+00 -0.945771D-02
     24  0.986112D-04  0.672094D-03 -0.145827D-01  0.465945D-02 -0.745560D-01
     25  0.207860D-02 -0.198052D-02 -0.274169D-02 -0.810079D-02  0.413209D-02
     26 -0.348885D-02  0.767847D-02 -0.639763D-02 -0.115422D-01  0.106635D-02
     27  0.745286D-02 -0.917355D-02  0.516444D-02 -0.963280D-03 -0.370621D-02
     28  0.159011D-02 -0.100263D-02 -0.155414D-02  0.172126D-02  0.589751D-02
     29  0.622686D-02  0.128830D-02  0.272690D-02 -0.578992D-02 -0.433195D-02
     30  0.218023D-02  0.163136D-03  0.793726D-02 -0.143759D-02 -0.601537D-02
     31  0.290007D-02 -0.214085D-02  0.986783D-02  0.163938D-02 -0.294647D-02
     32  0.332147D-02 -0.170821D-02 -0.307040D-02 -0.344001D-02  0.150073D-02
     33 -0.145028D-03  0.736088D-03  0.712899D-02  0.218086D-02 -0.690856D-02
     34  0.879986D-03 -0.578796D-03  0.889675D-02  0.274327D-02  0.438932D-02
     35  0.165339D-02 -0.698156D-03  0.283206D-01 -0.335989D-01  0.212302D-01
     36 -0.106780D-02 -0.582375D-03  0.161809D-02  0.697009D-02  0.475025D-03
               16            17            18            19            20 
     16  0.115022D+00
     17 -0.763240D-01  0.172158D+00
     18  0.164599D+00 -0.227086D+00  0.590825D+00
     19  0.245311D-01  0.415085D-03 -0.148170D-01  0.125577D+00
     20 -0.926862D-03  0.166572D-01  0.186223D-01 -0.859015D-01  0.170936D+00
     21  0.157676D-01 -0.168460D-01 -0.178652D-01 -0.194866D+00  0.233428D+00
     22  0.154701D-01  0.199782D-01 -0.618542D-02  0.191494D-01  0.141655D-01
     23 -0.253348D-02 -0.207071D-01  0.478670D-02 -0.472771D-02 -0.307782D-01
     24  0.245837D-02  0.344249D-01  0.609725D-03  0.187747D-02 -0.384193D-01
     25  0.129167D-02  0.116548D-02 -0.683205D-03  0.140412D-03  0.192367D-02
     26  0.204954D-02  0.148503D-02  0.246516D-03  0.217200D-02  0.192399D-02
     27 -0.164731D-02  0.386694D-03 -0.127559D-03 -0.133643D-02  0.321839D-03
     28  0.817310D-03 -0.105053D-03 -0.973228D-03 -0.354678D-02 -0.113673D-02
     29 -0.112124D-02  0.101785D-02  0.143757D-03  0.192588D-03  0.243001D-02
     30 -0.303976D-02  0.870254D-03 -0.279768D-03 -0.293030D-02  0.136409D-02
     31 -0.457561D-02  0.138445D-02 -0.325101D-02 -0.179543D-02  0.236331D-03
     32  0.148984D-02  0.140634D-03  0.718493D-03  0.660767D-03  0.632812D-03
     33 -0.351023D-02  0.531939D-03 -0.787592D-03 -0.103039D-02  0.339184D-03
     34 -0.476203D-03 -0.729173D-02  0.335652D-02 -0.823357D-03 -0.347009D-02
     35 -0.226712D-02 -0.299906D-02 -0.371891D-03 -0.310810D-02  0.179343D-02
     36 -0.245343D-03  0.195075D-02  0.393268D-03 -0.175228D-02 -0.308678D-02
               21            22            23            24            25 
     21  0.610843D+00
     22  0.632182D-02  0.349642D+00
     23 -0.101337D-01 -0.123340D+00  0.468406D+00
     24  0.333727D-02  0.197072D+00 -0.105601D+00  0.185007D+00
     25 -0.104657D-02 -0.244957D-02  0.377199D-02 -0.411456D-02  0.130813D+00
     26  0.198773D-03 -0.474637D-03  0.852449D-02 -0.284215D-02  0.118878D+00
     27  0.254667D-02 -0.326882D-02 -0.194815D-02 -0.120933D-03 -0.466043D-01
     28 -0.440682D-02  0.258278D-03 -0.724811D-03 -0.436701D-03  0.116178D-01
     29  0.304918D-02 -0.113226D-02  0.265808D-02 -0.319832D-03 -0.112802D-01
     30  0.408346D-02 -0.152464D-02 -0.258036D-03  0.828358D-03 -0.436212D-02
     31  0.713754D-03 -0.151249D-02 -0.219756D-02 -0.284893D-03 -0.522316D-01
     32 -0.135264D-03  0.134152D-03  0.225292D-02 -0.611149D-03 -0.518707D-01
     33  0.285799D-02 -0.991984D-03 -0.230060D-02  0.120142D-02  0.303381D-01
     34 -0.153430D-02 -0.277090D+00  0.179334D+00 -0.188257D+00  0.111239D-03
     35 -0.113156D-02  0.147413D+00 -0.135198D+00  0.103564D+00  0.209405D-02
     36 -0.422715D-02 -0.181404D+00  0.119362D+00 -0.118464D+00  0.136139D-02
               26            27            28            29            30 
     26  0.360875D+00
     27 -0.110826D+00  0.118171D+00
     28 -0.139905D-01 -0.724258D-02  0.943966D-01
     29 -0.777976D-01 -0.313972D-01 -0.433714D-01  0.275147D+00
     30 -0.137079D-01  0.187774D-01 -0.468286D-01  0.189530D+00  0.257187D+00
     31 -0.358351D-01  0.202381D-01 -0.302163D-01  0.325741D-01  0.330423D-01
     32 -0.270864D-02  0.987492D-02  0.436397D-01 -0.101678D-01 -0.219322D-01
     33  0.102422D-01  0.678695D-02  0.477783D-01 -0.237941D-01 -0.784025D-02
     34  0.537450D-02 -0.215937D-02 -0.816305D-04  0.212005D-02  0.805238D-03
     35 -0.768250D-03  0.177194D-02  0.268667D-03 -0.153079D-03  0.441982D-03
     36  0.521591D-02 -0.384603D-02 -0.135532D-04  0.148182D-02 -0.501260D-03
               31            32            33            34            35 
     31  0.435897D+00
     32 -0.371207D-01  0.861446D-01
     33 -0.508107D-01  0.907906D-02  0.834426D-01
     34  0.573454D-03  0.100214D-02 -0.666159D-03  0.273951D+00
     35  0.110193D-02 -0.297536D-03  0.322498D-03 -0.167402D+00  0.169640D+00
     36  0.126029D-02  0.100417D-02 -0.118418D-02  0.182359D+00 -0.123354D+00
               36 
     36  0.120774D+00
 FormGI is forming the generalized inverse of G from B-inverse, IUseBI=4.
 Leave Link  716 at Fri May 23 23:46:43 2025, MaxMem=  3758096384 cpu:               0.1 elap:               0.0
 (Enter /apps/easybuild-2022/easybuild/software/Compiler/NVHPC/22.11-CUDA-11.7.0/Gaussian/g16c01-CUDA-11.7.0/g16/l103.exe)

 GradGradGradGradGradGradGradGradGradGradGradGradGradGradGradGradGradGrad
 Berny optimization.
 Red2BG is reusing G-inverse.
 Internal  Forces:  Max     0.009770271 RMS     0.003680953
 Search for a local minimum.
 Step number   1 out of a maximum of   61
 All quantities printed in internal units (Hartrees-Bohrs-Radians)
 RMS Force = .36810D-02 SwitMx=.10000D-02 MixMth= 1
 Mixed Optimization -- RFO/linear search
 Second derivative matrix not updated -- analytic derivatives used.
 ITU=  0
     Eigenvalues ---   -0.00367   0.00296   0.00500   0.05009   0.08708
     Eigenvalues ---    0.09531   0.10290   0.11692   0.12598   0.13195
     Eigenvalues ---    0.14750   0.15116   0.17089   0.19506   0.22212
     Eigenvalues ---    0.23138   0.24590   0.25748   0.26949   0.34142
     Eigenvalues ---    0.39040   0.40239   0.41367   0.41759   0.44356
     Eigenvalues ---    0.51072   0.52410   0.59053   0.74531   0.78417
 Eigenvalue     1 is  -3.67D-03 should be greater than     0.000000 Eigenvector:
                          D21       D19       D20       A19       D16
   1                    0.57872   0.56859   0.56597   0.04737   0.04194
                          D1        D2        D7        D8        D13
   1                   -0.04125  -0.04023  -0.03945  -0.03844   0.03811
 RFO step:  Lambda=-8.37814878D-03 EMin=-3.66931032D-03
 Linear search not attempted -- first point.
 Iteration  1 RMS(Cart)=  0.04906905 RMS(Int)=  0.09114845
 Iteration  2 RMS(Cart)=  0.04289249 RMS(Int)=  0.04288479
 Iteration  3 RMS(Cart)=  0.03804863 RMS(Int)=  0.00355312
 Iteration  4 RMS(Cart)=  0.00340705 RMS(Int)=  0.00017633
 Iteration  5 RMS(Cart)=  0.00001973 RMS(Int)=  0.00017589
 Iteration  6 RMS(Cart)=  0.00000000 RMS(Int)=  0.00017589
 ITry= 1 IFail=0 DXMaxC= 5.55D-01 DCOld= 1.00D+10 DXMaxT= 3.00D-01 DXLimC= 3.00D+00 Rises=F
 Variable       Old X    -DE/DX   Delta X   Delta X   Delta X     New X
                                 (Linear)    (Quad)   (Total)
    R1        2.92179  -0.00056   0.00000  -0.00188  -0.00188   2.91991
    R2        2.50390   0.00977   0.00000   0.03938   0.03938   2.54328
    R3        2.49243  -0.00272   0.00000  -0.01060  -0.01060   2.48183
    R4        2.50661  -0.00229   0.00000  -0.01271  -0.01271   2.49390
    R5        2.52869  -0.00042   0.00000  -0.01239  -0.01239   2.51630
    R6        2.51365  -0.00172   0.00000   0.00059   0.00059   2.51424
    R7        3.48597   0.00367   0.00000   0.00868   0.00868   3.49465
    R8        2.68065  -0.00961   0.00000  -0.01445  -0.01445   2.66620
    R9        2.66869   0.00837   0.00000   0.01091   0.01091   2.67961
   R10        2.96784   0.00595   0.00000  -0.00683  -0.00683   2.96101
   R11        1.82974   0.00014   0.00000   0.00577   0.00577   1.83552
    A1        1.92345  -0.00287   0.00000  -0.02370  -0.02358   1.89987
    A2        1.93039   0.00241   0.00000   0.02087   0.02060   1.95099
    A3        1.89580   0.00268   0.00000   0.02016   0.01988   1.91568
    A4        1.91241  -0.00055   0.00000  -0.01351  -0.01340   1.89901
    A5        1.89993  -0.00101   0.00000  -0.01164  -0.01152   1.88841
    A6        1.90138  -0.00066   0.00000   0.00797   0.00735   1.90873
    A7        1.89849  -0.00200   0.00000  -0.00777  -0.00765   1.89084
    A8        1.89728  -0.00019   0.00000  -0.00117  -0.00120   1.89608
    A9        2.00386  -0.00086   0.00000  -0.01807  -0.01808   1.98578
   A10        1.90899   0.00050   0.00000   0.00597   0.00586   1.91486
   A11        1.87861   0.00223   0.00000   0.02010   0.02002   1.89863
   A12        1.87511   0.00042   0.00000   0.00212   0.00199   1.87710
   A13        1.84425   0.00191   0.00000   0.01817   0.01825   1.86250
   A14        1.88135  -0.00303   0.00000  -0.02652  -0.02679   1.85456
   A15        1.75198   0.00483   0.00000   0.01329   0.01326   1.76524
   A16        2.16052  -0.00232   0.00000  -0.00393  -0.00369   2.15683
   A17        1.90623  -0.00608   0.00000  -0.05290  -0.05276   1.85347
   A18        1.87632   0.00616   0.00000   0.05470   0.05499   1.93131
   A19        1.92476   0.00888   0.00000   0.00595   0.00595   1.93071
    D1        1.18828   0.00036   0.00000   0.02402   0.02406   1.21233
    D2       -3.01765  -0.00030   0.00000   0.02605   0.02602  -2.99163
    D3       -0.91739  -0.00046   0.00000   0.01594   0.01593  -0.90146
    D4       -2.97757  -0.00065   0.00000   0.00509   0.00493  -2.97264
    D5       -0.90031  -0.00131   0.00000   0.00712   0.00690  -0.89341
    D6        1.19995  -0.00147   0.00000  -0.00299  -0.00320   1.19675
    D7       -0.89169   0.00166   0.00000   0.03993   0.04016  -0.85154
    D8        1.18556   0.00100   0.00000   0.04196   0.04213   1.22769
    D9       -2.99736   0.00084   0.00000   0.03185   0.03203  -2.96533
   D10       -3.00878  -0.00058   0.00000  -0.03790  -0.03794  -3.04672
   D11       -0.66730  -0.00426   0.00000  -0.04843  -0.04840  -0.71570
   D12        1.29324   0.00356   0.00000   0.00864   0.00850   1.30174
   D13        1.15784   0.00091   0.00000  -0.03091  -0.03082   1.12702
   D14       -2.78387  -0.00278   0.00000  -0.04144  -0.04128  -2.82515
   D15       -0.82333   0.00505   0.00000   0.01563   0.01562  -0.80771
   D16       -0.89633  -0.00106   0.00000  -0.04950  -0.04952  -0.94585
   D17        1.44515  -0.00475   0.00000  -0.06003  -0.05998   1.38517
   D18       -2.87750   0.00308   0.00000  -0.00295  -0.00308  -2.88058
   D19       -0.54768  -0.00251   0.00000  -0.56890  -0.56930  -1.11698
   D20       -2.48099  -0.00476   0.00000  -0.57756  -0.57765  -3.05865
   D21        1.41673  -0.00179   0.00000  -0.57449  -0.57399   0.84273
         Item               Value     Threshold  Converged?
 Maximum Force            0.009770     0.000015     NO 
 RMS     Force            0.003681     0.000010     NO 
 Maximum Displacement     0.554728     0.000060     NO 
 RMS     Displacement     0.119122     0.000040     NO 
 Predicted change in Energy=-8.435101D-03
 Lowest energy point so far.  Saving SCF results.
 GradGradGradGradGradGradGradGradGradGradGradGradGradGradGradGradGradGrad

 Leave Link  103 at Fri May 23 23:46:43 2025, MaxMem=  3758096384 cpu:               0.1 elap:               0.0
 (Enter /apps/easybuild-2022/easybuild/software/Compiler/NVHPC/22.11-CUDA-11.7.0/Gaussian/g16c01-CUDA-11.7.0/g16/l202.exe)
                          Input orientation:                          
 ---------------------------------------------------------------------
 Center     Atomic      Atomic             Coordinates (Angstroms)
 Number     Number       Type             X           Y           Z
 ---------------------------------------------------------------------
      1          6           0       -0.673480    0.372115   -1.322612
      2          6           0       -0.033315   -0.036179    0.023110
      3          9           0       -0.491012    0.780828    0.969729
      4          9           0       -0.388541   -1.287996    0.300484
      5         16           0        1.814734    0.031526    0.020614
      6          8           0        2.241382   -0.485572    1.262062
      7          8           0        2.229439   -0.490794   -1.230740
      8          8           0        2.061130    1.577661    0.083247
      9          9           0       -0.169378    1.561225   -1.701026
     10          9           0       -0.431025   -0.509770   -2.265121
     11          9           0       -1.977920    0.506007   -1.173766
     12          1           0        1.719020    2.011232   -0.715770
 ---------------------------------------------------------------------
                    Distance matrix (angstroms):
                    1          2          3          4          5
     1  C    0.000000
     2  C    1.545148   0.000000
     3  F    2.335630   1.331568   0.000000
     4  F    2.339145   1.330477   2.176792   0.000000
     5  S    2.848063   1.849290   2.603601   2.583386   0.000000
     6  O    3.989059   2.628917   3.025757   2.912905   1.410891
     7  O    3.029850   2.626570   3.722894   3.135920   1.417987
     8  O    3.302707   2.644768   2.816775   3.776251   1.566898
     9  F    1.345845   2.354327   2.800964   3.488859   3.039856
    10  F    1.313328   2.370330   3.483317   2.681375   3.249772
    11  F    1.319714   2.346905   2.623164   2.813891   4.004485
    12  H    2.962941   2.794371   3.039579   4.044686   2.114393
                    6          7          8          9         10
     6  O    0.000000
     7  O    2.492837   0.000000
     8  O    2.383071   2.456297   0.000000
     9  F    4.333709   3.191594   2.856408   0.000000
    10  F    4.425310   2.854535   4.010366   2.162333   0.000000
    11  F    4.971820   4.324202   4.363765   2.159239   2.148429
    12  H    3.227802   2.604967   0.971314   2.176989   3.657681
                   11         12
    11  F    0.000000
    12  H    4.017814   0.000000
 Symmetry turned off by external request.
 Stoichiometry    C2HF5O3S
 Rotational constants (GHZ):           1.5914011           0.8631265           0.8088893
 Leave Link  202 at Fri May 23 23:46:43 2025, MaxMem=  3758096384 cpu:               0.1 elap:               0.0
 (Enter /apps/easybuild-2022/easybuild/software/Compiler/NVHPC/22.11-CUDA-11.7.0/Gaussian/g16c01-CUDA-11.7.0/g16/l301.exe)
 Standard basis: def2TZVPP (5D, 7F)
 Ernie: Thresh=  0.10000D-02 Tol=  0.10000D-05 Strict=F.
   366 basis functions,   596 primitive gaussians,   423 cartesian basis functions
    49 alpha electrons       49 beta electrons
       nuclear repulsion energy       934.4153117095 Hartrees.
 IExCor= 4336 DFT=T Ex+Corr=M062X ExCW=0 ScaHFX=  0.540000
 ScaDFX=  1.000000  1.000000  1.000000  1.000000 ScalE2=  1.000000  1.000000
 IRadAn=      5 IRanWt=     -1 IRanGd=            0 ICorTp=0 IEmpDi=  4
 NAtoms=   12 NActive=   12 NUniq=   12 SFac= 1.00D+00 NAtFMM=   60 NAOKFM=F Big=F
 Integral buffers will be    131072 words long.
 Raffenetti 2 integral format.
 Two-electron integral symmetry is turned off.
 Leave Link  301 at Fri May 23 23:46:43 2025, MaxMem=  3758096384 cpu:               0.1 elap:               0.0
 (Enter /apps/easybuild-2022/easybuild/software/Compiler/NVHPC/22.11-CUDA-11.7.0/Gaussian/g16c01-CUDA-11.7.0/g16/l302.exe)
 NPDir=0 NMtPBC=     1 NCelOv=     1 NCel=       1 NClECP=     1 NCelD=      1
         NCelK=      1 NCelE2=     1 NClLst=     1 CellRange=     0.0.
 One-electron integrals computed using PRISM.
   1 Symmetry operations used in ECPInt.
 ECPInt:  NShTT=    8515 NPrTT=   27988 LenC2=    8059 LenP2D=   19656.
 LDataN:  DoStor=T MaxTD1= 6 Len=  172
 NBasis=   366 RedAO= T EigKep=  5.32D-04  NBF=   366
 NBsUse=   366 1.00D-06 EigRej= -1.00D+00 NBFU=   366
 Precomputing XC quadrature grid using
 IXCGrd= 4 IRadAn=           5 IRanWt=          -1 IRanGd=           0 AccXCQ= 0.00D+00.
 Generated NRdTot=       0 NPtTot=           0 NUsed=           0 NTot=          32
 NSgBfM=   419   419   419   419   419 MxSgAt=    12 MxSgA2=    12.
 Leave Link  302 at Fri May 23 23:46:43 2025, MaxMem=  3758096384 cpu:               0.9 elap:               0.2
 (Enter /apps/easybuild-2022/easybuild/software/Compiler/NVHPC/22.11-CUDA-11.7.0/Gaussian/g16c01-CUDA-11.7.0/g16/l303.exe)
 DipDrv:  MaxL=1.
 Leave Link  303 at Fri May 23 23:46:43 2025, MaxMem=  3758096384 cpu:               0.1 elap:               0.0
 (Enter /apps/easybuild-2022/easybuild/software/Compiler/NVHPC/22.11-CUDA-11.7.0/Gaussian/g16c01-CUDA-11.7.0/g16/l401.exe)
 Initial guess from the checkpoint file:  "/tmp/Gau-265095.chk"
 B after Tr=    -0.042017   -0.036831    0.018578
         Rot=    0.999853   -0.012717    0.003691   -0.010877 Ang=  -1.96 deg.
 Guess basis will be translated and rotated to current coordinates.
 JPrj=2 DoOrth=T DoCkMO=T.
 Generating alternative initial guess.
 ExpMin= 9.52D-02 ExpMax= 6.07D+04 ExpMxC= 2.07D+03 IAcc=3 IRadAn=         5 AccDes= 0.00D+00
 Harris functional with IExCor= 1009 and IRadAn=       5 diagonalized for initial guess.
 HarFok:  IExCor= 1009 AccDes= 0.00D+00 IRadAn=         5 IDoV= 1 UseB2=F ITyADJ=14
 ICtDFT=  3500011 ScaDFX=  1.000000  1.000000  1.000000  1.000000
 FoFCou: FMM=F IPFlag=           0 FMFlag=      100000 FMFlg1=           0
         NFxFlg=           0 DoJE=T BraDBF=F KetDBF=T FulRan=T
         wScrn=  0.000000 ICntrl=       500 IOpCl=  0 I1Cent=   200000004 NGrid=           0
         NMat0=    1 NMatS0=      1 NMatT0=    0 NMatD0=    1 NMtDS0=    0 NMtDT0=    0
 Symmetry not used in FoFCou.
 Harris En= -1199.34185870729    
 Leave Link  401 at Fri May 23 23:46:44 2025, MaxMem=  3758096384 cpu:               3.9 elap:               0.6
 (Enter /apps/easybuild-2022/easybuild/software/Compiler/NVHPC/22.11-CUDA-11.7.0/Gaussian/g16c01-CUDA-11.7.0/g16/l502.exe)
 Keep R1 ints in memory in canonical form, NReq=2293446996.
 FoFCou: FMM=F IPFlag=           0 FMFlag=           0 FMFlg1=           0
         NFxFlg=           0 DoJE=F BraDBF=F KetDBF=F FulRan=T
         wScrn=  0.000000 ICntrl=       600 IOpCl=  0 I1Cent=           0 NGrid=           0
         NMat0=    1 NMatS0=  67161 NMatT0=    0 NMatD0=    1 NMtDS0=    0 NMtDT0=    0
 Symmetry not used in FoFCou.
 Two-electron integral symmetry not used.
 Closed shell SCF:
 Using DIIS extrapolation, IDIIS=  1040.
 NGot=  3758096384 LenX=  1502398672 LenY=  1502219302
 Requested convergence on RMS density matrix=1.00D-08 within  32 cycles.
 Requested convergence on MAX density matrix=1.00D-06.
 Requested convergence on             energy=1.00D-06.
 No special actions if energy rises.
 Integral accuracy reduced to 1.0D-05 until final iterations.

 Cycle   1  Pass 0  IDiag  1:
 E= -1199.89771817403    
 DIIS: error= 1.08D-02 at cycle   1 NSaved=   1.
 NSaved= 1 IEnMin= 1 EnMin= -1199.89771817403     IErMin= 1 ErrMin= 1.08D-02
 ErrMax= 1.08D-02  0.00D+00 EMaxC= 1.00D-01 BMatC= 3.82D-02 BMatP= 3.82D-02
 IDIUse=3 WtCom= 8.92D-01 WtEn= 1.08D-01
 Coeff-Com:  0.100D+01
 Coeff-En:   0.100D+01
 Coeff:      0.100D+01
 Recover alternate guess density for next cycle.
 RMSDP=1.58D-03 MaxDP=9.32D-02              OVMax= 0.00D+00

 Cycle   2  Pass 0  IDiag  1:
 E= -1199.61850797630     Delta-E=        0.279210197731 Rises=F Damp=F
 Switch densities from cycles 1 and 2 for lowest energy.
 DIIS: error= 2.90D-02 at cycle   2 NSaved=   2.
 NSaved= 2 IEnMin= 1 EnMin= -1199.89771817403     IErMin= 1 ErrMin= 1.08D-02
 ErrMax= 2.90D-02  0.00D+00 EMaxC= 1.00D+00 BMatC= 6.19D-01 BMatP= 3.82D-02
 IDIUse=1 WtCom= 1.00D+00 WtEn= 0.00D+00
 Coeff-Com:  0.949D+00 0.510D-01
 Coeff:      0.949D+00 0.510D-01
 Gap=     0.474 Goal=   None    Shift=    0.000
 RMSDP=5.98D-04 MaxDP=4.29D-02 DE= 2.79D-01 OVMax= 1.01D-01

 Cycle   3  Pass 0  IDiag  1:
 E= -1199.93578330821     Delta-E=       -0.317275331909 Rises=F Damp=F
 DIIS: error= 1.66D-03 at cycle   3 NSaved=   3.
 NSaved= 3 IEnMin= 3 EnMin= -1199.93578330821     IErMin= 3 ErrMin= 1.66D-03
 ErrMax= 1.66D-03  0.00D+00 EMaxC= 1.00D+00 BMatC= 3.81D-03 BMatP= 3.82D-02
 IDIUse=1 WtCom= 1.00D+00 WtEn= 0.00D+00
 Coeff-Com: -0.427D-01 0.586D-01 0.984D+00
 Coeff:     -0.427D-01 0.586D-01 0.984D+00
 Gap=     0.457 Goal=   None    Shift=    0.000
 RMSDP=1.48D-04 MaxDP=9.45D-03 DE=-3.17D-01 OVMax= 1.36D-02

 Cycle   4  Pass 0  IDiag  1:
 E= -1199.93867454118     Delta-E=       -0.002891232968 Rises=F Damp=F
 DIIS: error= 8.95D-04 at cycle   4 NSaved=   4.
 NSaved= 4 IEnMin= 4 EnMin= -1199.93867454118     IErMin= 4 ErrMin= 8.95D-04
 ErrMax= 8.95D-04  0.00D+00 EMaxC= 1.00D+00 BMatC= 6.09D-04 BMatP= 3.81D-03
 IDIUse=1 WtCom= 1.00D+00 WtEn= 0.00D+00
 Coeff-Com: -0.444D-01 0.984D-02 0.333D+00 0.701D+00
 Coeff:     -0.444D-01 0.984D-02 0.333D+00 0.701D+00
 Gap=     0.458 Goal=   None    Shift=    0.000
 RMSDP=5.23D-05 MaxDP=3.48D-03 DE=-2.89D-03 OVMax= 5.45D-03

 Cycle   5  Pass 0  IDiag  1:
 E= -1199.93902722763     Delta-E=       -0.000352686451 Rises=F Damp=F
 DIIS: error= 3.64D-04 at cycle   5 NSaved=   5.
 NSaved= 5 IEnMin= 5 EnMin= -1199.93902722763     IErMin= 5 ErrMin= 3.64D-04
 ErrMax= 3.64D-04  0.00D+00 EMaxC= 1.00D+00 BMatC= 1.27D-04 BMatP= 6.09D-04
 IDIUse=1 WtCom= 1.00D+00 WtEn= 0.00D+00
 Coeff-Com: -0.145D-01-0.285D-02 0.602D-01 0.355D+00 0.602D+00
 Coeff:     -0.145D-01-0.285D-02 0.602D-01 0.355D+00 0.602D+00
 Gap=     0.457 Goal=   None    Shift=    0.000
 RMSDP=2.05D-05 MaxDP=1.05D-03 DE=-3.53D-04 OVMax= 2.08D-03

 Cycle   6  Pass 0  IDiag  1:
 E= -1199.93911383424     Delta-E=       -0.000086606617 Rises=F Damp=F
 DIIS: error= 7.64D-05 at cycle   6 NSaved=   6.
 NSaved= 6 IEnMin= 6 EnMin= -1199.93911383424     IErMin= 6 ErrMin= 7.64D-05
 ErrMax= 7.64D-05  0.00D+00 EMaxC= 1.00D+00 BMatC= 6.34D-06 BMatP= 1.27D-04
 IDIUse=1 WtCom= 1.00D+00 WtEn= 0.00D+00
 Coeff-Com: -0.300D-03-0.116D-02-0.224D-01 0.312D-01 0.183D+00 0.810D+00
 Coeff:     -0.300D-03-0.116D-02-0.224D-01 0.312D-01 0.183D+00 0.810D+00
 Gap=     0.457 Goal=   None    Shift=    0.000
 RMSDP=6.30D-06 MaxDP=3.44D-04 DE=-8.66D-05 OVMax= 7.53D-04

 Initial convergence to 1.0D-05 achieved.  Increase integral accuracy.
 Cycle   7  Pass 1  IDiag  1:
 E= -1199.93913264940     Delta-E=       -0.000018815154 Rises=F Damp=F
 DIIS: error= 3.72D-05 at cycle   1 NSaved=   1.
 NSaved= 1 IEnMin= 1 EnMin= -1199.93913264940     IErMin= 1 ErrMin= 3.72D-05
 ErrMax= 3.72D-05  0.00D+00 EMaxC= 1.00D+00 BMatC= 1.80D-06 BMatP= 1.80D-06
 IDIUse=1 WtCom= 1.00D+00 WtEn= 0.00D+00
 Coeff-Com:  0.100D+01
 Coeff:      0.100D+01
 Gap=     0.457 Goal=   None    Shift=    0.000
 RMSDP=6.30D-06 MaxDP=3.44D-04 DE=-1.88D-05 OVMax= 4.45D-04

 Cycle   8  Pass 1  IDiag  1:
 E= -1199.93913272551     Delta-E=       -0.000000076110 Rises=F Damp=F
 DIIS: error= 4.48D-05 at cycle   2 NSaved=   2.
 NSaved= 2 IEnMin= 2 EnMin= -1199.93913272551     IErMin= 1 ErrMin= 3.72D-05
 ErrMax= 4.48D-05  0.00D+00 EMaxC= 1.00D+00 BMatC= 2.11D-06 BMatP= 1.80D-06
 IDIUse=1 WtCom= 1.00D+00 WtEn= 0.00D+00
 Coeff-Com:  0.523D+00 0.477D+00
 Coeff:      0.523D+00 0.477D+00
 Gap=     0.457 Goal=   None    Shift=    0.000
 RMSDP=2.44D-06 MaxDP=1.35D-04 DE=-7.61D-08 OVMax= 3.14D-04

 Cycle   9  Pass 1  IDiag  1:
 E= -1199.93913404692     Delta-E=       -0.000001321408 Rises=F Damp=F
 DIIS: error= 1.00D-05 at cycle   3 NSaved=   3.
 NSaved= 3 IEnMin= 3 EnMin= -1199.93913404692     IErMin= 3 ErrMin= 1.00D-05
 ErrMax= 1.00D-05  0.00D+00 EMaxC= 1.00D+00 BMatC= 8.62D-08 BMatP= 1.80D-06
 IDIUse=1 WtCom= 1.00D+00 WtEn= 0.00D+00
 Coeff-Com:  0.191D-01 0.157D+00 0.824D+00
 Coeff:      0.191D-01 0.157D+00 0.824D+00
 Gap=     0.457 Goal=   None    Shift=    0.000
 RMSDP=8.37D-07 MaxDP=3.05D-05 DE=-1.32D-06 OVMax= 8.18D-05

 Cycle  10  Pass 1  IDiag  1:
 E= -1199.93913410421     Delta-E=       -0.000000057297 Rises=F Damp=F
 DIIS: error= 4.51D-06 at cycle   4 NSaved=   4.
 NSaved= 4 IEnMin= 4 EnMin= -1199.93913410421     IErMin= 4 ErrMin= 4.51D-06
 ErrMax= 4.51D-06  0.00D+00 EMaxC= 1.00D+00 BMatC= 1.92D-08 BMatP= 8.62D-08
 IDIUse=1 WtCom= 1.00D+00 WtEn= 0.00D+00
 Coeff-Com: -0.365D-01 0.390D-01 0.426D+00 0.572D+00
 Coeff:     -0.365D-01 0.390D-01 0.426D+00 0.572D+00
 Gap=     0.457 Goal=   None    Shift=    0.000
 RMSDP=2.44D-07 MaxDP=9.39D-06 DE=-5.73D-08 OVMax= 2.29D-05

 Cycle  11  Pass 1  IDiag  1:
 E= -1199.93913411750     Delta-E=       -0.000000013283 Rises=F Damp=F
 DIIS: error= 8.02D-07 at cycle   5 NSaved=   5.
 NSaved= 5 IEnMin= 5 EnMin= -1199.93913411750     IErMin= 5 ErrMin= 8.02D-07
 ErrMax= 8.02D-07  0.00D+00 EMaxC= 1.00D+00 BMatC= 4.52D-10 BMatP= 1.92D-08
 IDIUse=1 WtCom= 1.00D+00 WtEn= 0.00D+00
 Coeff-Com: -0.759D-02-0.517D-02 0.851D-02 0.102D+00 0.902D+00
 Coeff:     -0.759D-02-0.517D-02 0.851D-02 0.102D+00 0.902D+00
 Gap=     0.457 Goal=   None    Shift=    0.000
 RMSDP=8.02D-08 MaxDP=4.51D-06 DE=-1.33D-08 OVMax= 7.75D-06

 Cycle  12  Pass 1  IDiag  1:
 E= -1199.93913411796     Delta-E=       -0.000000000463 Rises=F Damp=F
 DIIS: error= 3.40D-07 at cycle   6 NSaved=   6.
 NSaved= 6 IEnMin= 6 EnMin= -1199.93913411796     IErMin= 6 ErrMin= 3.40D-07
 ErrMax= 3.40D-07  0.00D+00 EMaxC= 1.00D+00 BMatC= 1.22D-10 BMatP= 4.52D-10
 IDIUse=1 WtCom= 1.00D+00 WtEn= 0.00D+00
 Coeff-Com:  0.223D-02-0.818D-02-0.616D-01-0.432D-01 0.388D+00 0.723D+00
 Coeff:      0.223D-02-0.818D-02-0.616D-01-0.432D-01 0.388D+00 0.723D+00
 Gap=     0.457 Goal=   None    Shift=    0.000
 RMSDP=2.72D-08 MaxDP=1.85D-06 DE=-4.63D-10 OVMax= 2.93D-06

 Cycle  13  Pass 1  IDiag  1:
 E= -1199.93913411801     Delta-E=       -0.000000000055 Rises=F Damp=F
 DIIS: error= 6.35D-08 at cycle   7 NSaved=   7.
 NSaved= 7 IEnMin= 7 EnMin= -1199.93913411801     IErMin= 7 ErrMin= 6.35D-08
 ErrMax= 6.35D-08  0.00D+00 EMaxC= 1.00D+00 BMatC= 2.90D-12 BMatP= 1.22D-10
 IDIUse=1 WtCom= 1.00D+00 WtEn= 0.00D+00
 Coeff-Com:  0.887D-03-0.179D-02-0.153D-01-0.151D-01 0.548D-01 0.187D+00
 Coeff-Com:  0.790D+00
 Coeff:      0.887D-03-0.179D-02-0.153D-01-0.151D-01 0.548D-01 0.187D+00
 Coeff:      0.790D+00
 Gap=     0.457 Goal=   None    Shift=    0.000
 RMSDP=5.22D-09 MaxDP=2.22D-07 DE=-5.55D-11 OVMax= 4.14D-07

 SCF Done:  E(RM062X) =  -1199.93913412     A.U. after   13 cycles
            NFock= 13  Conv=0.52D-08     -V/T= 2.0028
 KE= 1.196530335190D+03 PE=-4.714535218196D+03 EE= 1.383650437179D+03
 Leave Link  502 at Fri May 23 23:47:17 2025, MaxMem=  3758096384 cpu:             129.3 elap:              33.5
 (Enter /apps/easybuild-2022/easybuild/software/Compiler/NVHPC/22.11-CUDA-11.7.0/Gaussian/g16c01-CUDA-11.7.0/g16/l508.exe)
 QCSCF skips out because SCF is already converged.
 Leave Link  508 at Fri May 23 23:47:17 2025, MaxMem=  3758096384 cpu:               0.1 elap:               0.0
 (Enter /apps/easybuild-2022/easybuild/software/Compiler/NVHPC/22.11-CUDA-11.7.0/Gaussian/g16c01-CUDA-11.7.0/g16/l701.exe)
 ... and contract with generalized density number  0.
 Compute integral first derivatives.
   1 Symmetry operations used in ECPInt.
 ECPInt:  NShTT=    8515 NPrTT=   27988 LenC2=    8059 LenP2D=   19656.
 LDataN:  DoStor=T MaxTD1= 7 Len=  274
 Leave Link  701 at Fri May 23 23:47:17 2025, MaxMem=  3758096384 cpu:               0.4 elap:               0.1
 (Enter /apps/easybuild-2022/easybuild/software/Compiler/NVHPC/22.11-CUDA-11.7.0/Gaussian/g16c01-CUDA-11.7.0/g16/l702.exe)
 L702 exits ... SP integral derivatives will be done elsewhere.
 Leave Link  702 at Fri May 23 23:47:17 2025, MaxMem=  3758096384 cpu:               0.1 elap:               0.0
 (Enter /apps/easybuild-2022/easybuild/software/Compiler/NVHPC/22.11-CUDA-11.7.0/Gaussian/g16c01-CUDA-11.7.0/g16/l703.exe)
 Integral derivatives from FoFJK, PRISM(SPDF).
 Compute integral first derivatives, UseDBF=F ICtDFT=           0.
 Calling FoFJK, ICntrl=      2127 FMM=F ISym2X=0 I1Cent= 0 IOpClX= 0 NMat=1 NMatS=1 NMatT=0.
 FoFJK:  IHMeth= 1 ICntrl=    2127 DoSepK=F KAlg= 0 I1Cent=           0 FoldK=F
 IRaf=         0 NMat=       1 IRICut=       1 DoRegI=T DoRafI=F ISym2E= 0 IDoP0=0 IntGTp=1.
 FoFCou: FMM=F IPFlag=           0 FMFlag=      100000 FMFlg1=         800
         NFxFlg=           0 DoJE=F BraDBF=F KetDBF=F FulRan=T
         wScrn=  0.000000 ICntrl=      2127 IOpCl=  0 I1Cent=           0 NGrid=           0
         NMat0=    1 NMatS0=      1 NMatT0=    0 NMatD0=    1 NMtDS0=    0 NMtDT0=    0
 Symmetry not used in FoFCou.
 Leave Link  703 at Fri May 23 23:47:28 2025, MaxMem=  3758096384 cpu:              82.7 elap:              10.4
 (Enter /apps/easybuild-2022/easybuild/software/Compiler/NVHPC/22.11-CUDA-11.7.0/Gaussian/g16c01-CUDA-11.7.0/g16/l716.exe)
 Dipole        =-5.47234498D-01 9.12688201D-01-5.22964022D-01
 -------------------------------------------------------------------
 Center     Atomic                   Forces (Hartrees/Bohr)
 Number     Number              X              Y              Z
 -------------------------------------------------------------------
      1        6           0.001267976    0.002899957   -0.000954538
      2        6           0.000155331   -0.000938136    0.000308202
      3        9          -0.000465995    0.000461150    0.001047066
      4        9           0.000328813   -0.000135818   -0.000149675
      5       16           0.000062773   -0.000985013    0.001040894
      6        8           0.000574448   -0.001625900    0.000460099
      7        8          -0.000038159    0.000624190   -0.000472727
      8        8          -0.004565558    0.002310380   -0.002024955
      9        9          -0.000614028   -0.001756842    0.000302448
     10        9          -0.000029687   -0.000899671   -0.000283877
     11        9          -0.000748871    0.000079630    0.000473514
     12        1           0.004072956   -0.000033927    0.000253548
 -------------------------------------------------------------------
 Cartesian Forces:  Max     0.004565558 RMS     0.001410621
 Leave Link  716 at Fri May 23 23:47:28 2025, MaxMem=  3758096384 cpu:               0.1 elap:               0.0
 (Enter /apps/easybuild-2022/easybuild/software/Compiler/NVHPC/22.11-CUDA-11.7.0/Gaussian/g16c01-CUDA-11.7.0/g16/l103.exe)

 GradGradGradGradGradGradGradGradGradGradGradGradGradGradGradGradGradGrad
 Berny optimization.
 Using GEDIIS/GDIIS optimizer.
 FormGI is forming the generalized inverse of G from B-inverse, IUseBI=4.
 Internal  Forces:  Max     0.002500139 RMS     0.000923540
 Search for a local minimum.
 Step number   2 out of a maximum of   61
 All quantities printed in internal units (Hartrees-Bohrs-Radians)
 RMS Force = .92354D-03 SwitMx=.10000D-02 MixMth= 2
 Mixed Optimization -- En-DIIS/RFO-DIIS
 Update second derivatives using D2CorX and points    1    2
 DE= -6.34D-03 DEPred=-8.44D-03 R= 7.51D-01
 TightC=F SS=  1.41D+00  RLast= 1.01D+00 DXNew= 5.0454D-01 3.0272D+00
 Trust test= 7.51D-01 RLast= 1.01D+00 DXMaxT set to 5.05D-01
 ITU=  1  0
 Use linear search instead of GDIIS.
     Eigenvalues ---    0.00293   0.00393   0.00513   0.05012   0.08746
     Eigenvalues ---    0.09561   0.10744   0.11697   0.12622   0.14314
     Eigenvalues ---    0.15172   0.16429   0.19111   0.21834   0.23099
     Eigenvalues ---    0.23771   0.24711   0.26772   0.28758   0.34664
     Eigenvalues ---    0.39567   0.40773   0.41756   0.42619   0.51071
     Eigenvalues ---    0.52440   0.56570   0.60038   0.76648   1.23443
 RFO step:  Lambda=-3.30964972D-04 EMin= 2.92954806D-03
 Quartic linear search produced a step of  0.22692.
 Iteration  1 RMS(Cart)=  0.04286968 RMS(Int)=  0.00368972
 Iteration  2 RMS(Cart)=  0.00361439 RMS(Int)=  0.00004664
 Iteration  3 RMS(Cart)=  0.00002461 RMS(Int)=  0.00004402
 Iteration  4 RMS(Cart)=  0.00000000 RMS(Int)=  0.00004402
 ITry= 1 IFail=0 DXMaxC= 2.48D-01 DCOld= 1.00D+10 DXMaxT= 5.05D-01 DXLimC= 3.00D+00 Rises=F
 Variable       Old X    -DE/DX   Delta X   Delta X   Delta X     New X
                                 (Linear)    (Quad)   (Total)
    R1        2.91991   0.00054  -0.00043   0.00211   0.00169   2.92159
    R2        2.54328  -0.00187   0.00894  -0.00554   0.00339   2.54667
    R3        2.48183   0.00080  -0.00241   0.00247   0.00006   2.48189
    R4        2.49390   0.00080  -0.00288   0.00260  -0.00028   2.49362
    R5        2.51630   0.00119  -0.00281   0.00261  -0.00020   2.51609
    R6        2.51424   0.00001   0.00013  -0.00130  -0.00117   2.51307
    R7        3.49465   0.00012   0.00197   0.00106   0.00303   3.49768
    R8        2.66620   0.00117  -0.00328  -0.00007  -0.00335   2.66284
    R9        2.67961   0.00018   0.00248   0.00193   0.00440   2.68401
   R10        2.96101   0.00210  -0.00155   0.00495   0.00340   2.96441
   R11        1.83552  -0.00166   0.00131  -0.00447  -0.00315   1.83236
    A1        1.89987   0.00051  -0.00535   0.00402  -0.00130   1.89857
    A2        1.95099  -0.00049   0.00468  -0.00416   0.00045   1.95145
    A3        1.91568  -0.00066   0.00451  -0.00215   0.00230   1.91798
    A4        1.89901   0.00013  -0.00304   0.00181  -0.00121   1.89781
    A5        1.88841   0.00018  -0.00261   0.00132  -0.00126   1.88715
    A6        1.90873   0.00035   0.00167  -0.00062   0.00091   1.90964
    A7        1.89084   0.00002  -0.00174   0.00144  -0.00026   1.89058
    A8        1.89608  -0.00017  -0.00027   0.00114   0.00085   1.89693
    A9        1.98578   0.00066  -0.00410  -0.00171  -0.00582   1.97997
   A10        1.91486   0.00009   0.00133  -0.00015   0.00115   1.91601
   A11        1.89863  -0.00029   0.00454  -0.00005   0.00447   1.90310
   A12        1.87710  -0.00032   0.00045  -0.00065  -0.00023   1.87687
   A13        1.86250  -0.00114   0.00414  -0.00415   0.00001   1.86252
   A14        1.85456   0.00093  -0.00608   0.00486  -0.00130   1.85325
   A15        1.76524   0.00062   0.00301   0.00252   0.00551   1.77075
   A16        2.15683  -0.00020  -0.00084  -0.00260  -0.00338   2.15345
   A17        1.85347   0.00122  -0.01197   0.00505  -0.00689   1.84658
   A18        1.93131  -0.00129   0.01248  -0.00473   0.00781   1.93912
   A19        1.93071   0.00236   0.00135   0.01721   0.01856   1.94927
    D1        1.21233   0.00018   0.00546   0.02705   0.03252   1.24485
    D2       -2.99163   0.00021   0.00591   0.02833   0.03423  -2.95739
    D3       -0.90146   0.00011   0.00361   0.02721   0.03082  -0.87064
    D4       -2.97264   0.00038   0.00112   0.02935   0.03044  -2.94220
    D5       -0.89341   0.00040   0.00157   0.03063   0.03215  -0.86126
    D6        1.19675   0.00031  -0.00073   0.02951   0.02874   1.22549
    D7       -0.85154   0.00005   0.00911   0.02432   0.03349  -0.81805
    D8        1.22769   0.00007   0.00956   0.02560   0.03520   1.26289
    D9       -2.96533  -0.00003   0.00727   0.02448   0.03178  -2.93355
   D10       -3.04672   0.00061  -0.00861   0.02672   0.01810  -3.02862
   D11       -0.71570   0.00022  -0.01098   0.02397   0.01299  -0.70271
   D12        1.30174  -0.00060   0.00193   0.02156   0.02345   1.32518
   D13        1.12702   0.00036  -0.00699   0.02605   0.01909   1.14611
   D14       -2.82515  -0.00003  -0.00937   0.02330   0.01398  -2.81117
   D15       -0.80771  -0.00085   0.00354   0.02089   0.02443  -0.78327
   D16       -0.94585   0.00059  -0.01124   0.02663   0.01539  -0.93046
   D17        1.38517   0.00020  -0.01361   0.02388   0.01028   1.39545
   D18       -2.88058  -0.00063  -0.00070   0.02146   0.02074  -2.85984
   D19       -1.11698  -0.00250  -0.12919  -0.05781  -0.18711  -1.30410
   D20       -3.05865  -0.00190  -0.13108  -0.05590  -0.18701   3.03753
   D21        0.84273  -0.00162  -0.13025  -0.05283  -0.18295   0.65979
         Item               Value     Threshold  Converged?
 Maximum Force            0.002500     0.000015     NO 
 RMS     Force            0.000924     0.000010     NO 
 Maximum Displacement     0.248335     0.000060     NO 
 RMS     Displacement     0.043659     0.000040     NO 
 Predicted change in Energy=-8.979970D-04
 Lowest energy point so far.  Saving SCF results.
 GradGradGradGradGradGradGradGradGradGradGradGradGradGradGradGradGradGrad

 Leave Link  103 at Fri May 23 23:47:28 2025, MaxMem=  3758096384 cpu:               0.1 elap:               0.0
 (Enter /apps/easybuild-2022/easybuild/software/Compiler/NVHPC/22.11-CUDA-11.7.0/Gaussian/g16c01-CUDA-11.7.0/g16/l202.exe)
                          Input orientation:                          
 ---------------------------------------------------------------------
 Center     Atomic      Atomic             Coordinates (Angstroms)
 Number     Number       Type             X           Y           Z
 ---------------------------------------------------------------------
      1          6           0       -0.687261    0.357362   -1.321841
      2          6           0       -0.045835   -0.045041    0.026079
      3          9           0       -0.517290    0.764513    0.972196
      4          9           0       -0.383196   -1.301875    0.300088
      5         16           0        1.802742    0.047234    0.018562
      6          8           0        2.240159   -0.486666    1.247068
      7          8           0        2.218970   -0.453544   -1.243687
      8          8           0        2.037854    1.595052    0.117561
      9          9           0       -0.165317    1.535616   -1.716084
     10          9           0       -0.461611   -0.537714   -2.256098
     11          9           0       -1.988615    0.514938   -1.170514
     12          1           0        1.850433    2.040408   -0.723118
 ---------------------------------------------------------------------
[...]
   D17        1.40011   0.00000   0.00000  -0.00001  -0.00001   1.40010
   D18       -2.88613  -0.00000   0.00000  -0.00001  -0.00001  -2.88614
   D19       -1.55975   0.00000   0.00000   0.00002   0.00002  -1.55973
   D20        2.79088  -0.00000   0.00000   0.00002   0.00002   2.79090
   D21        0.40477   0.00000   0.00000   0.00002   0.00002   0.40479
         Item               Value     Threshold  Converged?
 Maximum Force            0.000001     0.000015     YES
 RMS     Force            0.000000     0.000010     YES
 Maximum Displacement     0.000028     0.000060     YES
 RMS     Displacement     0.000010     0.000040     YES
 Predicted change in Energy=-1.241659D-11
 Optimization completed.
    -- Stationary point found.
                           ----------------------------
                           !   Optimized Parameters   !
                           ! (Angstroms and Degrees)  !
 --------------------------                            --------------------------
 ! Name  Definition              Value          Derivative Info.                !
 --------------------------------------------------------------------------------
 ! R1    R(1,2)                  1.5472         -DE/DX =    0.0                 !
 ! R2    R(1,9)                  1.3362         -DE/DX =    0.0                 !
 ! R3    R(1,10)                 1.3171         -DE/DX =    0.0                 !
 ! R4    R(1,11)                 1.3224         -DE/DX =    0.0                 !
 ! R5    R(2,3)                  1.3317         -DE/DX =    0.0                 !
 ! R6    R(2,4)                  1.331          -DE/DX =    0.0                 !
 ! R7    R(2,5)                  1.8461         -DE/DX =    0.0                 !
 ! R8    R(5,6)                  1.4112         -DE/DX =    0.0                 !
 ! R9    R(5,7)                  1.4197         -DE/DX =    0.0                 !
 ! R10   R(5,8)                  1.5696         -DE/DX =    0.0                 !
 ! R11   R(8,12)                 0.9685         -DE/DX =    0.0                 !
 ! A1    A(2,1,9)              109.6964         -DE/DX =    0.0                 !
 ! A2    A(2,1,10)             111.0563         -DE/DX =    0.0                 !
 ! A3    A(2,1,11)             109.3667         -DE/DX =    0.0                 !
 ! A4    A(9,1,10)             108.9956         -DE/DX =    0.0                 !
 ! A5    A(9,1,11)             108.489          -DE/DX =    0.0                 !
 ! A6    A(10,1,11)            109.1922         -DE/DX =    0.0                 !
 ! A7    A(1,2,3)              108.7942         -DE/DX =    0.0                 !
 ! A8    A(1,2,4)              108.5742         -DE/DX =    0.0                 !
 ! A9    A(1,2,5)              113.8011         -DE/DX =    0.0                 !
 ! A10   A(3,2,4)              109.6341         -DE/DX =    0.0                 !
 ! A11   A(3,2,5)              108.6055         -DE/DX =    0.0                 !
 ! A12   A(4,2,5)              107.3771         -DE/DX =    0.0                 !
 ! A13   A(2,5,6)              106.0534         -DE/DX =    0.0                 !
 ! A14   A(2,5,7)              107.0364         -DE/DX =    0.0                 !
 ! A15   A(2,5,8)              100.7676         -DE/DX =    0.0                 !
 ! A16   A(6,5,7)              123.7983         -DE/DX =    0.0                 !
 ! A17   A(6,5,8)              107.2735         -DE/DX =    0.0                 !
 ! A18   A(7,5,8)              109.4833         -DE/DX =    0.0                 !
 ! A19   A(5,8,12)             110.288          -DE/DX =    0.0                 !
 ! D1    D(9,1,2,3)             71.8801         -DE/DX =    0.0                 !
 ! D2    D(9,1,2,4)           -168.8583         -DE/DX =    0.0                 !
 ! D3    D(9,1,2,5)            -49.3484         -DE/DX =    0.0                 !
 ! D4    D(10,1,2,3)          -167.5707         -DE/DX =    0.0                 !
 ! D5    D(10,1,2,4)           -48.3091         -DE/DX =    0.0                 !
 ! D6    D(10,1,2,5)            71.2009         -DE/DX =    0.0                 !
 ! D7    D(11,1,2,3)           -46.9926         -DE/DX =    0.0                 !
 ! D8    D(11,1,2,4)            72.269          -DE/DX =    0.0                 !
 ! D9    D(11,1,2,5)          -168.221          -DE/DX =    0.0                 !
 ! D10   D(1,2,5,6)           -173.8809         -DE/DX =    0.0                 !
 ! D11   D(1,2,5,7)            -39.9664         -DE/DX =    0.0                 !
 ! D12   D(1,2,5,8)             74.4501         -DE/DX =    0.0                 !
 ! D13   D(3,2,5,6)             64.7855         -DE/DX =    0.0                 !
 ! D14   D(3,2,5,7)           -161.3            -DE/DX =    0.0                 !
 ! D15   D(3,2,5,8)            -46.8835         -DE/DX =    0.0                 !
 ! D16   D(4,2,5,6)            -53.6941         -DE/DX =    0.0                 !
 ! D17   D(4,2,5,7)             80.2204         -DE/DX =    0.0                 !
 ! D18   D(4,2,5,8)           -165.3631         -DE/DX =    0.0                 !
 ! D19   D(2,5,8,12)           -89.367          -DE/DX =    0.0                 !
 ! D20   D(6,5,8,12)           159.9057         -DE/DX =    0.0                 !
 ! D21   D(7,5,8,12)            23.1915         -DE/DX =    0.0                 !
 --------------------------------------------------------------------------------
 GradGradGradGradGradGradGradGradGradGradGradGradGradGradGradGradGradGrad

 Leave Link  103 at Fri May 23 23:56:49 2025, MaxMem=  3758096384 cpu:               0.1 elap:               0.0
 (Enter /apps/easybuild-2022/easybuild/software/Compiler/NVHPC/22.11-CUDA-11.7.0/Gaussian/g16c01-CUDA-11.7.0/g16/l9999.exe)

 ----------------------------------------------------------------------

 Electric dipole moment (input orientation):
 (Debye = 10**-18 statcoulomb cm , SI units = C m)
                  (au)            (Debye)         (10**-30 SI)
   Tot        0.110912D+01      0.281911D+01      0.940354D+01
   x         -0.293975D+00     -0.747209D+00     -0.249242D+01
   y          0.918537D+00      0.233469D+01      0.778769D+01
   z         -0.547744D+00     -0.139223D+01     -0.464396D+01

 Dipole polarizability, Alpha (input orientation).
 (esu units = cm**3 , SI units = C**2 m**2 J**-1)
 Alpha(0;0):
               (au)            (10**-24 esu)      (10**-40 SI)
   iso        0.534524D+02      0.792082D+01      0.881310D+01
   aniso      0.602295D+01      0.892509D+00      0.993050D+00
   xx         0.562049D+02      0.832871D+01      0.926694D+01
   yx         0.176669D+00      0.261796D-01      0.291287D-01
   yy         0.507979D+02      0.752747D+01      0.837544D+01
   zx         0.188233D+01      0.278932D+00      0.310354D+00
   zy        -0.109603D+01     -0.162416D+00     -0.180712D+00
   zz         0.533543D+02      0.790629D+01      0.879693D+01

 ----------------------------------------------------------------------

 Dipole orientation:
     6         -0.50140341          1.88495233          2.15187515
     6         -0.12266922          0.02820044         -0.07468447
     9         -1.24741482         -2.15182745          0.48727884
     9         -1.17832927          1.01820099         -2.13191790
    16          3.22469477         -0.60713521         -0.82422022
     8          3.21528401         -2.09552063         -3.03695317
     8          4.53666833          1.72214233         -0.59793008
     8          3.96954174         -2.38520074          1.43009993
     9          0.91955512          1.16539695          4.11111397
     9          0.13034268          4.20261442          1.50084279
     9         -2.89848334          1.85442312          2.85782186
     1          4.57816364         -1.39578315          2.84438278

 Electric dipole moment (dipole orientation):
 (Debye = 10**-18 statcoulomb cm , SI units = C m)
                  (au)            (Debye)         (10**-30 SI)
   Tot        0.110912D+01      0.281911D+01      0.940354D+01
   x          0.000000D+00      0.000000D+00      0.000000D+00
   y          0.000000D+00      0.000000D+00      0.000000D+00
   z          0.110912D+01      0.281911D+01      0.940354D+01

 Dipole polarizability, Alpha (dipole orientation).
 (esu units = cm**3 , SI units = C**2 m**2 J**-1)
 Alpha(0;0):
               (au)            (10**-24 esu)      (10**-40 SI)
   iso        0.534524D+02      0.792082D+01      0.881310D+01
   aniso      0.602295D+01      0.892509D+00      0.993050D+00
   xx         0.550719D+02      0.816081D+01      0.908012D+01
   yx        -0.172689D+01     -0.255898D+00     -0.284725D+00
   yy         0.521722D+02      0.773113D+01      0.860204D+01
   zx        -0.133209D+01     -0.197396D+00     -0.219633D+00
   zy         0.226870D+01      0.336187D+00      0.374058D+00
   zz         0.531130D+02      0.787053D+01      0.875714D+01

 ----------------------------------------------------------------------
 Unable to Open any file for archive entry.
 1\1\GINC-SPARTAN-BM191\Freq\RM062X\def2TZVPP\C2H1F5O3S1\AKHALILOV\23-M
 ay-2025\0\\#P Geom=AllCheck Guess=TCheck SCRF=Check GenChk RM062X/def2
 TZVPP Freq\\Gaussian input prepared by ASE\\0,1\C,-0.7012417555,0.3645
 493986,-1.3181081746\C,-0.0535786367,-0.0503401475,0.0243644454\F,-0.5
 300859127,0.7324518794,0.9906478675\F,-0.3743728338,-1.3173591086,0.27
 61947464\S,1.7889990575,0.0633067241,0.0291801034\O,2.2103416144,-0.48
 11387463,1.2610449968\O,2.2377588777,-0.4021964665,-1.234770485\O,1.98
 66873576,1.6180913476,0.1148047712\F,-0.2035150967,1.5396199383,-1.714
 0869498\F,-0.4715591651,-0.5350048643,-2.252284696\F,-2.0067099549,0.4
 962759301,-1.1530057285\H,2.0183099147,2.0020274027,-0.7737707769\\Ver
 sion=ES64L-G16RevC.01\HF=-1199.9405671\RMSD=1.908e-09\RMSF=3.463e-06\Z
 eroPoint=0.0533284\Thermal=0.0634978\ETot=-1199.8770692\HTot=-1199.876
 125\GTot=-1199.9235252\Dipole=-0.2939745,0.9185375,-0.5477437\DipoleDe
 riv=1.641957,0.0413717,-0.0796215,-0.0373152,1.5154453,0.0661359,0.196
 3478,0.0946455,1.3743334,0.8354568,0.0761498,-0.2061868,0.1231169,1.09
 24941,0.1219834,-0.3488579,0.1042428,0.7413124,-0.4800696,0.1474094,0.
 1961372,0.164877,-0.4118421,-0.2074099,0.233664,-0.2681024,-0.5789116,
 -0.3940363,-0.2218186,0.0311491,-0.2358049,-0.7778185,0.0912199,0.0460
 225,0.1629858,-0.2715079,1.8610867,-0.068773,0.1155779,0.0432025,2.189
 4088,-0.071735,-0.0155721,-0.0233513,2.1138164,-0.7481845,0.0828069,-0
 .2018512,0.1082709,-0.5693847,0.1557326,-0.2833805,0.2158207,-0.943953
 3,-0.7507615,0.0918883,0.1620865,0.0790427,-0.6114572,-0.0965451,0.261
 7252,-0.2046453,-0.9587745,-0.5895592,-0.1441979,-0.0031378,-0.2748755
 ,-1.3084212,0.0600673,0.0187859,0.1131048,-0.4278437,-0.4227488,-0.153
 2636,-0.0090251,-0.1871859,-0.7308531,0.1514739,0.00769,0.2139137,-0.3
 794317,-0.3008205,0.0454589,-0.0026499,0.0567476,-0.5082157,-0.2401138
 ,-0.0064538,-0.3074264,-0.6272624,-1.0234228,0.0646178,0.0024191,0.122
 6531,-0.2683948,0.0162981,-0.0841001,0.0118022,-0.3287825,0.3711027,0.
 0383503,-0.0048974,0.0372709,0.3890393,-0.0471073,-0.025871,-0.1129902
 ,0.2870053\Polar=56.2049235,0.1766688,50.7978565,1.8823295,-1.0960342,
 53.354273\PG=Unknown\NImag=0\\0.59857578,-0.01445958,0.58846662,0.0144
 6257,0.01219272,0.62387576,-0.08950177,0.01001807,-0.03883115,0.472110
 89,0.02108786,-0.05190351,0.03838907,0.00046563,0.56247480,-0.07333640
 ,0.03634749,-0.15802376,-0.02570593,-0.00700765,0.56981211,-0.00032186
 ,0.00057200,-0.00332654,-0.11267366,0.05599916,0.08341084,0.11252298,0
 .00393088,-0.00534409,-0.00800960,0.05245475,-0.13485490,-0.10584659,-
 0.07548807,0.20049691,0.02644367,-0.03645764,-0.03189062,0.07265513,-0
 .09669094,-0.23130134,-0.09963233,0.16042772,0.27091202,0.00363798,0.0
 0575713,-0.00253738,-0.09423320,-0.07454477,0.01932879,0.01476189,0.01
 379708,-0.00320665,0.08287058,-0.01598210,-0.03938369,0.00315725,-0.06
 743329,-0.29567466,0.07504458,0.00329910,-0.06567083,-0.02382539,0.086
 57782,0.41501565,0.01595086,0.03327896,-0.00245877,0.01781876,0.064809
 06,-0.09297522,-0.00623088,-0.03861881,0.01151265,-0.02067887,-0.07029
 908,0.08767067,-0.01365871,0.00797024,-0.03364058,-0.16797582,-0.00915
 562,0.01073970,-0.00470730,0.00204635,0.00068890,0.00090513,0.00141110
 ,-0.00366911,0.58517717,0.01051621,0.02630995,-0.00529087,-0.00404472,
 -0.02808093,0.01261251,0.02333967,-0.01171329,-0.01525553,-0.03542607,
 -0.02944217,0.00648097,-0.09754467,0.69999055,-0.03592713,-0.00110744,
 0.02245012,-0.02463416,0.00632872,-0.05173125,0.03484204,-0.01210263,-
 0.01773451,0.00916369,0.00656990,-0.00086881,0.00583704,-0.05218782,1.
 31040204,-0.00436320,-0.00459631,0.01375997,0.00330967,0.01458969,-0.0
 3470255,-0.00099549,0.00120830,0.00286333,-0.00046211,-0.00218376,0.00
 120874,-0.15967014,0.07875664,-0.18082384,0.12648828,-0.00042195,-0.00
 222006,-0.00203732,-0.00463318,-0.00227777,0.00837463,-0.00138342,0.00
 164023,0.00062823,0.00249037,0.00678973,-0.00299977,0.07509236,-0.1746
 1410,0.21098254,-0.08519234,0.17902323,0.00246594,-0.00188776,0.003387
 76,0.01212424,0.00979701,-0.01686443,-0.00549654,0.00307858,0.00775048
 ,-0.00134158,-0.00528582,0.00322301,-0.17255380,0.21073834,-0.58497819
 ,0.18808810,-0.24126446,0.60632635,0.00373803,-0.00384946,0.00520421,0
 .01655571,0.01372317,0.01983865,-0.01353130,0.00435390,0.00627108,-0.0
 0388143,-0.00571000,-0.00017468,-0.16821605,0.06735004,0.18300518,0.02
 367949,0.00042562,-0.01526955,0.13179831,-0.00159727,-0.00625514,-0.00
 146099,-0.00509115,0.00186212,-0.00545189,0.00084495,0.00109770,0.0006
 5322,0.00455670,0.00541711,-0.00049553,0.06405389,-0.15395629,-0.17332
 744,-0.00092555,0.01632882,0.01884511,-0.07673493,0.14624634,0.0077020
 6,-0.00151036,-0.01331072,-0.01285614,-0.01009586,-0.00374321,0.005447
 48,-0.00140687,-0.00008978,0.00297720,0.00493427,0.00132305,0.17373546
 ,-0.16900751,-0.56826963,0.01648530,-0.01605911,-0.01718384,-0.1923162
 6,0.20205654,0.59456096,0.00211449,0.00285307,0.00487602,0.01067889,-0
 .01807207,-0.00165667,-0.00164796,-0.00084724,0.00093669,-0.00911484,-
 0.00723473,0.00126346,-0.07791875,-0.03775923,-0.00070665,0.01259175,0
 .00930536,-0.00232342,0.01809031,0.01404822,0.00288196,0.05600169,-0.0
 0223657,-0.01259195,0.00781599,0.01817769,-0.01640501,-0.00762623,-0.0
 0505308,0.00661335,0.00482986,-0.00797419,-0.00336285,0.00009036,-0.03
 461284,-0.27916168,-0.02621922,-0.00403405,-0.02168363,0.00532361,-0.0
 0323243,-0.02236717,-0.00864867,0.04924853,0.43606492,0.00398546,0.003
 60098,-0.00430132,0.00371687,-0.00077049,0.00614594,-0.00146763,0.0022
 4414,0.00201911,-0.00000340,0.00026795,0.00045972,-0.00037248,0.001349
 13,-0.09711671,0.00098593,0.04570862,-0.00429570,-0.00176224,-0.037414
 47,0.00168105,-0.01416672,-0.15581718,0.53287833,-0.09391353,-0.052904
 29,0.02097490,0.00602727,0.00201436,-0.00117102,0.00091007,-0.00007041
 ,-0.00110993,0.00108781,0.00206892,-0.00172875,-0.00229643,-0.00642239
 ,0.00489559,0.00126509,0.00092688,-0.00085910,-0.00016251,0.00206298,-
 0.00173965,-0.00437130,0.00307099,-0.00392096,0.13054161,-0.05113448,-
 0.23963955,0.08203131,-0.01668758,-0.02858636,0.00217437,0.00058374,0.
 00463459,0.00538661,0.00367585,-0.00389933,0.00759939,-0.00519426,-0.0
 1106847,0.00140404,0.00202012,0.00132944,0.00021541,0.00224273,0.00189
 970,-0.00005251,-0.00093927,0.00745605,-0.00234529,0.11112247,0.348740
 82,0.01848791,0.07683032,-0.11862005,0.01525206,0.03242753,0.00025924,
 -0.00072932,-0.00130477,-0.00020457,-0.00297575,0.00775913,-0.00871442
 ,0.00519888,0.00047222,-0.00346910,-0.00167104,0.00017805,-0.00013949,
 -0.00140985,0.00003263,0.00249882,-0.00471782,-0.00194307,-0.00081479,
 -0.03793464,-0.09046603,0.10700248,-0.08202664,0.02244950,0.01941507,0
 .00929026,-0.00678728,-0.00343964,0.00038128,-0.00046556,-0.00463403,0
 .00037258,0.00136658,-0.00097783,-0.00163083,0.00148954,0.00607530,0.0
 0083403,-0.00008375,-0.00094123,-0.00351232,-0.00122702,-0.00446495,0.
 00023192,-0.00071528,-0.00057642,0.01201178,-0.01305069,-0.00750604,0.
 09566429,0.02007655,-0.17821311,-0.12854159,0.00278193,-0.00880929,-0.
 00579356,-0.00152047,0.00156379,-0.00104053,0.00059608,0.00640567,0.00
 188196,0.00266700,-0.00509670,-0.00377890,-0.00099569,0.00087904,0.000
 07240,0.00005560,0.00223023,0.00267899,-0.00119026,0.00235758,-0.00018
 063,-0.01001917,-0.07668266,-0.03397825,-0.04578140,0.26382077,0.01631
 456,-0.11815666,-0.24113666,0.00907901,-0.03720526,-0.02365948,-0.0032
 2996,-0.00039483,-0.01332642,-0.00009035,0.00222189,0.00039524,0.00825
 755,-0.00052990,-0.00634154,-0.00331548,0.00073276,-0.00036265,-0.0030
 8157,0.00110247,0.00432410,-0.00160112,-0.00048197,0.00081608,-0.00475
 755,-0.01728691,0.01682211,-0.05218700,0.19133936,0.27143495,-0.320798
 73,0.03314376,-0.00213417,-0.05375824,0.00301883,0.00665715,0.00570782
 ,-0.00123369,-0.00108765,0.00466533,0.00362671,-0.00237443,0.00946665,
 0.00263695,-0.00274845,-0.00469356,0.00111704,-0.00316151,-0.00180237,
 0.00005937,0.00060020,-0.00160686,-0.00224225,0.00003207,-0.05274309,-
 0.03667881,0.01921380,-0.03164799,0.03182565,0.03414715,0.44624387,0.0
 3248090,-0.07985440,0.00210457,0.01647564,0.00284461,-0.00175758,-0.00
 255965,0.00177887,0.00176335,-0.00021711,0.00335963,-0.00163212,-0.003
 06737,-0.00378012,0.00190160,0.00168449,0.00016110,0.00071993,0.000677
 55,0.00070852,-0.00030801,0.00008266,0.00222936,-0.00064602,-0.0530054
 8,-0.00360110,0.00944827,0.04244180,-0.00814868,-0.02132520,-0.0358456
 0,0.08447907,0.00446664,-0.00011169,-0.08280514,-0.03048421,0.00096182
 ,0.00225208,-0.00319254,0.00195963,0.00243876,0.00089809,0.00038331,0.
 00051471,0.00678330,0.00291129,-0.00697423,-0.00360012,0.00038781,-0.0
 0075808,-0.00105909,0.00013128,0.00290541,-0.00083785,-0.00223611,0.00
 118765,0.02772193,0.00945218,0.00763052,0.04921312,-0.02308064,-0.0084
 7645,-0.04929474,0.00918647,0.08271471,-0.00348185,-0.00695414,0.00177
 707,0.00017002,-0.00233894,0.00003708,-0.00040647,0.00031369,-0.000188
 22,-0.00060972,0.00019366,-0.00040726,0.00052509,-0.00289197,0.0010213
 9,0.00201618,0.00235700,-0.00073154,-0.00275588,-0.00005019,0.00154736
 ,-0.00504934,-0.01039650,0.01354953,0.00164323,0.00404018,-0.00120820,
 0.00003163,0.00150418,0.00046477,0.00096717,0.00085218,-0.00061453,0.0
 0694996,-0.00226045,0.00062892,-0.00035053,-0.00248379,-0.00058911,-0.
 00107008,0.00136607,-0.00024232,-0.00041895,0.00071111,0.00044574,-0.0
 0009541,-0.00366617,-0.02938677,0.04153666,-0.00033153,-0.00535604,-0.
 00035235,0.00069821,0.00678805,-0.00258091,-0.00949504,-0.09914897,0.1
 4400326,0.00115515,-0.00058313,0.00054399,0.00036356,-0.00030665,-0.00
 001576,0.00057205,-0.00017685,0.00005463,0.01337084,0.12792711,-0.0010
 1614,-0.00301890,0.00283339,0.00186553,-0.00094302,-0.00017069,-0.0003
 9462,-0.00002597,-0.00008575,-0.00153380,-0.00092798,-0.00008181,-0.00
 100486,0.00770716,0.00463184,0.00072167,-0.00463198,0.00389478,0.00075
 413,-0.00467092,-0.00469621,0.01605213,0.18491263,-0.43865938,-0.00037
 082,0.00188742,-0.00225076,0.00002364,0.00042138,-0.00048928,0.0001505
 8,0.00054473,-0.00062995,-0.01524745,-0.18125455,0.43570383\\0.0000002
 9,-0.00000485,-0.00000032,0.00000054,0.00000115,0.00000114,-0.00000129
 ,0.00000377,-0.00000181,0.00000199,0.00000134,0.00000547,0.00000073,0.
 00000319,0.00000113,0.00000022,0.00000863,0.00000391,0.00000128,-0.000
 00042,0.00000339,-0.00000263,0.00000467,-0.00000361,-0.00000124,-0.000
 00521,-0.00000502,0.00000202,-0.00000764,0.00000258,0.00000017,-0.0000
 0594,-0.00000178,-0.00000209,0.00000133,-0.00000507\\\@
 The archive entry for this job was punched.


 I KNOW YOU BELIEVE YOU UNDERSTAND WHAT YOU THINK I SAID,
 BUT I AM NOT SURE YOU REALIZE THAT WHAT YOU HEARD IS NOT WHAT I MEANT.
 Job cpu time:       0 days  0 hours 30 minutes 48.0 seconds.
 Elapsed time:       0 days  0 hours  3 minutes 55.2 seconds.
 File lengths (MBytes):  RWF=    164 Int=      0 D2E=      0 Chk=     11 Scr=      1
 Normal termination of Gaussian 16 at Fri May 23 23:56:49 2025.
done
