 Entering Gaussian System, Link 0=g16
 Initial command:
 /apps/easybuild-2022/easybuild/software/Compiler/NVHPC/22.11-CUDA-11.7.0/Gaussian/g16c01-CUDA-11.7.0/g16/l1.exe "/tmp/Gau-204159.inp" -scrdir="/tmp/"
 Entering Link 1 = /apps/easybuild-2022/easybuild/software/Compiler/NVHPC/22.11-CUDA-11.7.0/Gaussian/g16c01-CUDA-11.7.0/g16/l1.exe PID=    204162.
  
 Copyright (c) 1988-2019, Gaussian, Inc.  All Rights Reserved.
  
 This is part of the Gaussian(R) 16 program.  It is based on
 the Gaussian(R) 09 system (copyright 2009, Gaussian, Inc.),
 the Gaussian(R) 03 system (copyright 2003, Gaussian, Inc.),
 the Gaussian(R) 98 system (copyright 1998, Gaussian, Inc.),
 the Gaussian(R) 94 system (copyright 1995, Gaussian, Inc.),
 the Gaussian 92(TM) system (copyright 1992, Gaussian, Inc.),
 the Gaussian 90(TM) system (copyright 1990, Gaussian, Inc.),
 the Gaussian 88(TM) system (copyright 1988, Gaussian, Inc.),
 the Gaussian 86(TM) system (copyright 1986, Carnegie Mellon
 University), and the Gaussian 82(TM) system (copyright 1983,
 Carnegie Mellon University). Gaussian is a federally registered
 trademark of Gaussian, Inc.
  
 This software contains proprietary and confidential information,
 including trade secrets, belonging to Gaussian, Inc.
  
 This software is provided under written license and may be
 used, copied, transmitted, or stored only in accord with that
 written license.
  
 The following legend is applicable only to US Government
 contracts under FAR:
  
                    RESTRICTED RIGHTS LEGEND
  
 Use, reproduction and disclosure by the US Government is
 subject to restrictions as set forth in subparagraphs (a)
 and (c) of the Commercial Computer Software - Restricted
 Rights clause in FAR 52.227-19.
  
 Gaussian, Inc.
 340 Quinnipiac St., Bldg. 40, Wallingford CT 06492
  
  
 ---------------------------------------------------------------
 Warning -- This program may not be used in any manner that
 competes with the business of Gaussian, Inc. or will provide
 assistance to any competitor of Gaussian, Inc.  The licensee
 of this program is prohibited from giving any competitor of
 Gaussian, Inc. access to this program.  By using this program,
 the user acknowledges that Gaussian, Inc. is engaged in the
 business of creating and licensing software in the field of
 computational chemistry and represents and warrants to the
 licensee that it is not a competitor of Gaussian, Inc. and that
 it will not use this program in any manner prohibited above.
 ---------------------------------------------------------------
  

 Cite this work as:
 Gaussian 16, Revision C.01,
 M. J. Frisch, G. W. Trucks, H. B. Schlegel, G. E. Scuseria, 
 M. A. Robb, J. R. Cheeseman, G. Scalmani, V. Barone, 
 G. A. Petersson, H. Nakatsuji, X. Li, M. Caricato, A. V. Marenich, 
 J. Bloino, B. G. Janesko, R. Gomperts, B. Mennucci, H. P. Hratchian, 
 J. V. Ortiz, A. F. Izmaylov, J. L. Sonnenberg, D. Williams-Young, 
 F. Ding, F. Lipparini, F. Egidi, J. Goings, B. Peng, A. Petrone, 
 T. Henderson, D. Ranasinghe, V. G. Zakrzewski, J. Gao, N. Rega, 
 G. Zheng, W. Liang, M. Hada, M. Ehara, K. Toyota, R. Fukuda, 
 J. Hasegawa, M. Ishida, T. Nakajima, Y. Honda, O. Kitao, H. Nakai, 
 T. Vreven, K. Throssell, J. A. Montgomery, Jr., J. E. Peralta, 
 F. Ogliaro, M. J. Bearpark, J. J. Heyd, E. N. Brothers, K. N. Kudin, 
 V. N. Staroverov, T. A. Keith, R. Kobayashi, J. Normand, 
 K. Raghavachari, A. P. Rendell, J. C. Burant, S. S. Iyengar, 
 J. Tomasi, M. Cossi, J. M. Millam, M. Klene, C. Adamo, R. Cammi, 
 J. W. Ochterski, R. L. Martin, K. Morokuma, O. Farkas, 
 J. B. Foresman, and D. J. Fox, Gaussian, Inc., Wallingford CT, 2019.
 
 ******************************************
 Gaussian 16:  ES64L-G16RevC.01  3-Jul-2019
                24-May-2025 
 ******************************************
 %mem=28GB
 %nprocshared=8
 Will use up to    8 processors via shared memory.
 ----------------------------------------------------------------------
 #P M062X/Def2TZVPP Symm(None) scf(xqc) pop(None) freq opt(CalcFC, Tigh
 t)
 ----------------------------------------------------------------------
 1/7=10,10=4,18=20,19=15,26=3,38=1/1,3;
 2/9=110,12=2,15=3,17=6,18=5,40=1/2;
 3/5=44,7=202,11=2,25=1,30=1,71=2,74=-55,140=1/1,2,3;
 4//1;
 5/5=2,8=3,13=1,38=5/2,8;
 8/6=4,10=90,11=11/1;
 11/6=1,8=1,9=11,15=111,16=1,31=1/1,2,10;
 10/6=1,13=1,31=1/2;
 7/10=1,25=1,30=1/1,2,3,16;
 1/7=10,10=4,18=20,19=15,26=3/3(2);
 2/9=110,15=3/2;
 99//99;
 2/9=110,15=3/2;
 3/5=44,7=202,11=2,25=1,30=1,71=1,74=-55/1,2,3;
 4/5=5,16=3,69=1/1;
 5/5=2,8=3,13=1,38=5/2,8;
 7/30=1/1,2,3,16;
 1/7=10,18=20,19=15,26=3/3(-5);
 2/9=110,15=3/2;
 99/9=1/99;
 Leave Link    1 at Sat May 24 08:09:01 2025, MaxMem=  3758096384 cpu:               0.1 elap:               0.0
 (Enter /apps/easybuild-2022/easybuild/software/Compiler/NVHPC/22.11-CUDA-11.7.0/Gaussian/g16c01-CUDA-11.7.0/g16/l101.exe)
 ------------------------------
 Gaussian input prepared by ASE
 ------------------------------
 Symbolic Z-matrix:
 Charge =  0 Multiplicity = 1
 C                     2.54706   0.08539  -2.62814 
 C                     2.51318  -0.52898  -1.26566 
 F                    -0.38154  -1.33588   0.14275 
 F                     2.73558  -1.85857  -1.28702 
 S                     1.65752   0.        0. 
 O                     0.        0.        0. 
 O                     1.86982  -0.67224   1.22528 
 O                     1.77927   1.54814   0. 
 F                     2.42184   1.41847  -2.5763 
 F                     3.71364  -0.19399  -3.20763 
 F                     1.59299  -0.37465  -3.43985 
 H                     1.62384   1.90773   0.88644 
 
 ITRead=  0  0  0  0  0  0  0  0  0  0  0  0
 MicOpt= -1 -1 -1 -1 -1 -1 -1 -1 -1 -1 -1 -1
 NAtoms=     12 NQM=       12 NQMF=       0 NMMI=      0 NMMIF=      0
                NMic=       0 NMicF=      0.
                    Isotopes and Nuclear Properties:
 (Nuclear quadrupole moments (NQMom) in fm**2, nuclear magnetic moments (NMagM)
  in nuclear magnetons)

  Atom         1           2           3           4           5           6           7           8           9          10
 IAtWgt=          12          12          19          19          32          16          16          16          19          19
 AtmWgt=  12.0000000  12.0000000  18.9984032  18.9984032  31.9720718  15.9949146  15.9949146  15.9949146  18.9984032  18.9984032
 NucSpn=           0           0           1           1           0           0           0           0           1           1
 AtZEff=  -0.0000000  -0.0000000  -0.0000000  -0.0000000  -0.0000000  -0.0000000  -0.0000000  -0.0000000  -0.0000000  -0.0000000
 NQMom=    0.0000000   0.0000000   0.0000000   0.0000000   0.0000000   0.0000000   0.0000000   0.0000000   0.0000000   0.0000000
 NMagM=    0.0000000   0.0000000   2.6288670   2.6288670   0.0000000   0.0000000   0.0000000   0.0000000   2.6288670   2.6288670
 AtZNuc=   6.0000000   6.0000000   9.0000000   9.0000000  16.0000000   8.0000000   8.0000000   8.0000000   9.0000000   9.0000000

  Atom        11          12
 IAtWgt=          19           1
 AtmWgt=  18.9984032   1.0078250
 NucSpn=           1           1
 AtZEff=  -0.0000000  -0.0000000
 NQMom=    0.0000000   0.0000000
 NMagM=    2.6288670   2.7928460
 AtZNuc=   9.0000000   1.0000000
 Leave Link  101 at Sat May 24 08:09:02 2025, MaxMem=  3758096384 cpu:               0.3 elap:               0.2
 (Enter /apps/easybuild-2022/easybuild/software/Compiler/NVHPC/22.11-CUDA-11.7.0/Gaussian/g16c01-CUDA-11.7.0/g16/l103.exe)

 GradGradGradGradGradGradGradGradGradGradGradGradGradGradGradGradGradGrad
 Berny optimization.
 Initialization pass.
                           ----------------------------
                           !    Initial Parameters    !
                           ! (Angstroms and Degrees)  !
 --------------------------                            --------------------------
 ! Name  Definition              Value          Derivative Info.                !
 --------------------------------------------------------------------------------
 ! R1    R(1,2)                  1.495          calculate D2E/DX2 analytically  !
 ! R2    R(1,9)                  1.34           calculate D2E/DX2 analytically  !
 ! R3    R(1,10)                 1.3322         calculate D2E/DX2 analytically  !
 ! R4    R(1,11)                 1.3345         calculate D2E/DX2 analytically  !
 ! R5    R(2,4)                  1.3482         calculate D2E/DX2 analytically  !
 ! R6    R(2,5)                  1.6167         calculate D2E/DX2 analytically  !
 ! R7    R(3,6)                  1.3966         calculate D2E/DX2 analytically  !
 ! R8    R(5,6)                  1.6575         calculate D2E/DX2 analytically  !
 ! R9    R(5,7)                  1.4136         calculate D2E/DX2 analytically  !
 ! R10   R(5,8)                  1.5529         calculate D2E/DX2 analytically  !
 ! R11   R(8,12)                 0.9691         calculate D2E/DX2 analytically  !
 ! A1    A(2,1,9)              111.8063         calculate D2E/DX2 analytically  !
 ! A2    A(2,1,10)             109.2748         calculate D2E/DX2 analytically  !
 ! A3    A(2,1,11)             113.3587         calculate D2E/DX2 analytically  !
 ! A4    A(9,1,10)             107.8963         calculate D2E/DX2 analytically  !
 ! A5    A(9,1,11)             107.4389         calculate D2E/DX2 analytically  !
 ! A6    A(10,1,11)            106.8094         calculate D2E/DX2 analytically  !
 ! A7    A(1,2,4)              112.7742         calculate D2E/DX2 analytically  !
 ! A8    A(1,2,5)              126.228          calculate D2E/DX2 analytically  !
 ! A9    A(4,2,5)              114.984          calculate D2E/DX2 analytically  !
 ! A10   A(2,5,6)              121.9546         calculate D2E/DX2 analytically  !
 ! A11   A(2,5,7)              116.3258         calculate D2E/DX2 analytically  !
 ! A12   A(2,5,8)              106.5402         calculate D2E/DX2 analytically  !
 ! A13   A(6,5,7)               98.6375         calculate D2E/DX2 analytically  !
 ! A14   A(6,5,8)               94.4966         calculate D2E/DX2 analytically  !
 ! A15   A(7,5,8)              117.5361         calculate D2E/DX2 analytically  !
 ! A16   A(3,6,5)              105.8544         calculate D2E/DX2 analytically  !
 ! A17   A(5,8,12)             110.936          calculate D2E/DX2 analytically  !
 ! D1    D(9,1,2,4)           -175.4375         calculate D2E/DX2 analytically  !
 ! D2    D(9,1,2,5)             33.4645         calculate D2E/DX2 analytically  !
 ! D3    D(10,1,2,4)           -56.0609         calculate D2E/DX2 analytically  !
 ! D4    D(10,1,2,5)           152.8412         calculate D2E/DX2 analytically  !
 ! D5    D(11,1,2,4)            62.9347         calculate D2E/DX2 analytically  !
 ! D6    D(11,1,2,5)           -88.1633         calculate D2E/DX2 analytically  !
 ! D7    D(1,2,5,6)             64.92           calculate D2E/DX2 analytically  !
 ! D8    D(1,2,5,7)           -174.6742         calculate D2E/DX2 analytically  !
 ! D9    D(1,2,5,8)            -41.4378         calculate D2E/DX2 analytically  !
 ! D10   D(4,2,5,6)            -85.6317         calculate D2E/DX2 analytically  !
 ! D11   D(4,2,5,7)             34.7741         calculate D2E/DX2 analytically  !
 ! D12   D(4,2,5,8)            168.0105         calculate D2E/DX2 analytically  !
 ! D13   D(2,5,6,3)             73.4172         calculate D2E/DX2 analytically  !
 ! D14   D(7,5,6,3)            -55.1497         calculate D2E/DX2 analytically  !
 ! D15   D(8,5,6,3)           -173.9005         calculate D2E/DX2 analytically  !
 ! D16   D(2,5,8,12)          -156.4229         calculate D2E/DX2 analytically  !
 ! D17   D(6,5,8,12)            78.3266         calculate D2E/DX2 analytically  !
 ! D18   D(7,5,8,12)           -23.848          calculate D2E/DX2 analytically  !
 --------------------------------------------------------------------------------
 Trust Radius=3.00D-01 FncErr=1.00D-07 GrdErr=1.00D-06 EigMax=2.50D+02 EigMin=1.00D-04
 Number of steps in this run=     56 maximum allowed number of steps=    100.
 GradGradGradGradGradGradGradGradGradGradGradGradGradGradGradGradGradGrad

 Leave Link  103 at Sat May 24 08:09:02 2025, MaxMem=  3758096384 cpu:               0.0 elap:               0.0
 (Enter /apps/easybuild-2022/easybuild/software/Compiler/NVHPC/22.11-CUDA-11.7.0/Gaussian/g16c01-CUDA-11.7.0/g16/l202.exe)
                          Input orientation:                          
 ---------------------------------------------------------------------
 Center     Atomic      Atomic             Coordinates (Angstroms)
 Number     Number       Type             X           Y           Z
 ---------------------------------------------------------------------
      1          6           0        2.547065    0.085387   -2.628141
      2          6           0        2.513182   -0.528980   -1.265663
      3          9           0       -0.381544   -1.335876    0.142753
      4          9           0        2.735583   -1.858567   -1.287016
      5         16           0        1.657522    0.000000    0.000000
      6          8           0        0.000000    0.000000    0.000000
      7          8           0        1.869820   -0.672236    1.225283
      8          8           0        1.779270    1.548142    0.000000
      9          9           0        2.421842    1.418471   -2.576300
     10          9           0        3.713644   -0.193985   -3.207627
     11          9           0        1.592988   -0.374651   -3.439851
     12          1           0        1.623840    1.907732    0.886435
 ---------------------------------------------------------------------
                    Distance matrix (angstroms):
                    1          2          3          4          5
     1  C    0.000000
     2  C    1.494972   0.000000
     3  F    4.274879   3.318759   0.000000
     4  F    2.369200   1.348228   3.468995   0.000000
     5  S    2.775914   1.616749   2.441871   2.504575   0.000000
     6  O    3.660868   2.863181   1.396610   3.548816   1.657522
     7  O    3.985163   2.576673   2.584750   2.910080   1.413608
     8  O    3.104237   2.540662   3.606530   3.765183   1.552922
     9  F    1.339956   2.349186   4.778980   3.535486   3.038678
    10  F    1.332202   2.307500   5.412904   2.723267   3.814989
    11  F    1.334455   2.365939   4.202116   2.853459   3.460795
    12  H    4.065160   3.370463   3.885308   4.488303   2.103887
                    6          7          8          9         10
     6  O    0.000000
     7  O    2.334405   0.000000
     8  O    2.358505   2.537635   0.000000
     9  F    3.809816   4.373535   2.658389   0.000000
    10  F    4.910973   4.824842   4.131063   2.160404   0.000000
    11  F    3.809271   4.682805   3.945175   2.155924   2.140969
    12  H    2.657454   2.613724   0.969139   3.587021   5.054290
                   11         12
    11  F    0.000000
    12  H    4.891521   0.000000
 Symmetry turned off by external request.
 Stoichiometry    C2HF5O3S
 Rotational constants (GHZ):           1.5789888           0.7115258           0.6669326
 Leave Link  202 at Sat May 24 08:09:02 2025, MaxMem=  3758096384 cpu:               0.1 elap:               0.0
 (Enter /apps/easybuild-2022/easybuild/software/Compiler/NVHPC/22.11-CUDA-11.7.0/Gaussian/g16c01-CUDA-11.7.0/g16/l301.exe)
 Standard basis: def2TZVPP (5D, 7F)
 Ernie: Thresh=  0.10000D-02 Tol=  0.10000D-05 Strict=F.
   366 basis functions,   596 primitive gaussians,   423 cartesian basis functions
    49 alpha electrons       49 beta electrons
       nuclear repulsion energy       898.5500055001 Hartrees.
 IExCor= 4336 DFT=T Ex+Corr=M062X ExCW=0 ScaHFX=  0.540000
 ScaDFX=  1.000000  1.000000  1.000000  1.000000 ScalE2=  1.000000  1.000000
 IRadAn=      5 IRanWt=     -1 IRanGd=            0 ICorTp=0 IEmpDi=  4
 NAtoms=   12 NActive=   12 NUniq=   12 SFac= 1.00D+00 NAtFMM=   60 NAOKFM=F Big=F
 Integral buffers will be    131072 words long.
 Raffenetti 2 integral format.
 Two-electron integral symmetry is turned off.
 Leave Link  301 at Sat May 24 08:09:02 2025, MaxMem=  3758096384 cpu:               0.1 elap:               0.0
 (Enter /apps/easybuild-2022/easybuild/software/Compiler/NVHPC/22.11-CUDA-11.7.0/Gaussian/g16c01-CUDA-11.7.0/g16/l302.exe)
 NPDir=0 NMtPBC=     1 NCelOv=     1 NCel=       1 NClECP=     1 NCelD=      1
         NCelK=      1 NCelE2=     1 NClLst=     1 CellRange=     0.0.
 One-electron integrals computed using PRISM.
   1 Symmetry operations used in ECPInt.
 ECPInt:  NShTT=    8515 NPrTT=   27988 LenC2=    7866 LenP2D=   18934.
 LDataN:  DoStor=T MaxTD1= 6 Len=  172
 NBasis=   366 RedAO= T EigKep=  3.89D-04  NBF=   366
 NBsUse=   366 1.00D-06 EigRej= -1.00D+00 NBFU=   366
 Precomputing XC quadrature grid using
 IXCGrd= 4 IRadAn=           5 IRanWt=          -1 IRanGd=           0 AccXCQ= 0.00D+00.
 Generated NRdTot=       0 NPtTot=           0 NUsed=           0 NTot=          32
 NSgBfM=   419   419   419   419   419 MxSgAt=    12 MxSgA2=    12.
 Leave Link  302 at Sat May 24 08:09:02 2025, MaxMem=  3758096384 cpu:               1.0 elap:               0.3
 (Enter /apps/easybuild-2022/easybuild/software/Compiler/NVHPC/22.11-CUDA-11.7.0/Gaussian/g16c01-CUDA-11.7.0/g16/l303.exe)
 DipDrv:  MaxL=1.
 Leave Link  303 at Sat May 24 08:09:02 2025, MaxMem=  3758096384 cpu:               0.1 elap:               0.1
 (Enter /apps/easybuild-2022/easybuild/software/Compiler/NVHPC/22.11-CUDA-11.7.0/Gaussian/g16c01-CUDA-11.7.0/g16/l401.exe)
 ExpMin= 9.52D-02 ExpMax= 6.07D+04 ExpMxC= 2.07D+03 IAcc=3 IRadAn=         5 AccDes= 0.00D+00
 Harris functional with IExCor= 1009 and IRadAn=       5 diagonalized for initial guess.
 HarFok:  IExCor= 1009 AccDes= 0.00D+00 IRadAn=         5 IDoV= 1 UseB2=F ITyADJ=14
 ICtDFT=  3500011 ScaDFX=  1.000000  1.000000  1.000000  1.000000
 FoFCou: FMM=F IPFlag=           0 FMFlag=      100000 FMFlg1=           0
         NFxFlg=           0 DoJE=T BraDBF=F KetDBF=T FulRan=T
         wScrn=  0.000000 ICntrl=       500 IOpCl=  0 I1Cent=   200000004 NGrid=           0
         NMat0=    1 NMatS0=      1 NMatT0=    0 NMatD0=    1 NMtDS0=    0 NMtDT0=    0
 Symmetry not used in FoFCou.
 Harris En= -1199.12446184338    
 JPrj=0 DoOrth=F DoCkMO=F.
 Leave Link  401 at Sat May 24 08:09:03 2025, MaxMem=  3758096384 cpu:               4.8 elap:               1.0
 (Enter /apps/easybuild-2022/easybuild/software/Compiler/NVHPC/22.11-CUDA-11.7.0/Gaussian/g16c01-CUDA-11.7.0/g16/l502.exe)
 Keep R1 ints in memory in canonical form, NReq=2293446996.
 FoFCou: FMM=F IPFlag=           0 FMFlag=           0 FMFlg1=           0
         NFxFlg=           0 DoJE=F BraDBF=F KetDBF=F FulRan=T
         wScrn=  0.000000 ICntrl=       600 IOpCl=  0 I1Cent=           0 NGrid=           0
         NMat0=    1 NMatS0=  67161 NMatT0=    0 NMatD0=    1 NMtDS0=    0 NMtDT0=    0
 Symmetry not used in FoFCou.
 Two-electron integral symmetry not used.
 Closed shell SCF:
 Using DIIS extrapolation, IDIIS=  1040.
 NGot=  3758096384 LenX=  1502398672 LenY=  1502219302
 Requested convergence on RMS density matrix=1.00D-08 within  32 cycles.
 Requested convergence on MAX density matrix=1.00D-06.
 Requested convergence on             energy=1.00D-06.
 No special actions if energy rises.
 Integral accuracy reduced to 1.0D-05 until final iterations.

 Cycle   1  Pass 0  IDiag  1:
 E= -1199.43901608669    
 DIIS: error= 1.91D-02 at cycle   1 NSaved=   1.
 NSaved= 1 IEnMin= 1 EnMin= -1199.43901608669     IErMin= 1 ErrMin= 1.91D-02
 ErrMax= 1.91D-02  0.00D+00 EMaxC= 1.00D-01 BMatC= 5.18D-01 BMatP= 5.18D-01
 IDIUse=3 WtCom= 8.09D-01 WtEn= 1.91D-01
 Coeff-Com:  0.100D+01
 Coeff-En:   0.100D+01
 Coeff:      0.100D+01
 Gap=     0.240 Goal=   None    Shift=    0.000
 GapD=    0.240 DampG=1.000 DampE=0.500 DampFc=0.5000 IDamp=-1.
 Damping current iteration by 5.00D-01
 RMSDP=2.24D-03 MaxDP=2.65D-01              OVMax= 2.25D-01

 Cycle   2  Pass 0  IDiag  1:
 E= -1199.53282308995     Delta-E=       -0.093807003258 Rises=F Damp=T
 DIIS: error= 6.31D-03 at cycle   2 NSaved=   2.
 NSaved= 2 IEnMin= 2 EnMin= -1199.53282308995     IErMin= 2 ErrMin= 6.31D-03
 ErrMax= 6.31D-03  0.00D+00 EMaxC= 1.00D-01 BMatC= 5.57D-02 BMatP= 5.18D-01
 IDIUse=3 WtCom= 9.37D-01 WtEn= 6.31D-02
 Coeff-Com:  0.691D-01 0.931D+00
 Coeff-En:   0.250D+00 0.750D+00
 Coeff:      0.806D-01 0.919D+00
 Gap=     0.309 Goal=   None    Shift=    0.000
 RMSDP=6.52D-04 MaxDP=4.96D-02 DE=-9.38D-02 OVMax= 1.24D-01

 Cycle   3  Pass 0  IDiag  1:
 E= -1199.68529025257     Delta-E=       -0.152467162625 Rises=F Damp=F
 DIIS: error= 5.59D-03 at cycle   3 NSaved=   3.
 NSaved= 3 IEnMin= 3 EnMin= -1199.68529025257     IErMin= 3 ErrMin= 5.59D-03
 ErrMax= 5.59D-03  0.00D+00 EMaxC= 1.00D-01 BMatC= 2.57D-02 BMatP= 5.57D-02
 IDIUse=3 WtCom= 9.44D-01 WtEn= 5.59D-02
 Coeff-Com: -0.723D-01 0.385D+00 0.688D+00
 Coeff-En:   0.000D+00 0.000D+00 0.100D+01
 Coeff:     -0.683D-01 0.363D+00 0.705D+00
 Gap=     0.293 Goal=   None    Shift=    0.000
 RMSDP=3.46D-04 MaxDP=1.72D-02 DE=-1.52D-01 OVMax= 4.04D-02

 Cycle   4  Pass 0  IDiag  1:
 E= -1199.69881979319     Delta-E=       -0.013529540620 Rises=F Damp=F
 DIIS: error= 2.76D-03 at cycle   4 NSaved=   4.
 NSaved= 4 IEnMin= 4 EnMin= -1199.69881979319     IErMin= 4 ErrMin= 2.76D-03
 ErrMax= 2.76D-03  0.00D+00 EMaxC= 1.00D-01 BMatC= 7.03D-03 BMatP= 2.57D-02
 IDIUse=3 WtCom= 9.72D-01 WtEn= 2.76D-02
 Coeff-Com: -0.478D-01 0.109D+00 0.403D+00 0.535D+00
 Coeff-En:   0.000D+00 0.000D+00 0.188D+00 0.812D+00
 Coeff:     -0.465D-01 0.106D+00 0.397D+00 0.543D+00
 Gap=     0.289 Goal=   None    Shift=    0.000
 RMSDP=1.24D-04 MaxDP=5.88D-03 DE=-1.35D-02 OVMax= 1.20D-02

 Cycle   5  Pass 0  IDiag  1:
 E= -1199.70321803355     Delta-E=       -0.004398240355 Rises=F Damp=F
 DIIS: error= 5.17D-04 at cycle   5 NSaved=   5.
 NSaved= 5 IEnMin= 5 EnMin= -1199.70321803355     IErMin= 5 ErrMin= 5.17D-04
 ErrMax= 5.17D-04  0.00D+00 EMaxC= 1.00D-01 BMatC= 1.89D-04 BMatP= 7.03D-03
 IDIUse=3 WtCom= 9.95D-01 WtEn= 5.17D-03
 Coeff-Com: -0.158D-01 0.277D-01 0.131D+00 0.232D+00 0.625D+00
 Coeff-En:   0.000D+00 0.000D+00 0.000D+00 0.000D+00 0.100D+01
 Coeff:     -0.157D-01 0.275D-01 0.131D+00 0.231D+00 0.626D+00
 Gap=     0.287 Goal=   None    Shift=    0.000
 RMSDP=2.54D-05 MaxDP=1.52D-03 DE=-4.40D-03 OVMax= 2.68D-03

 Cycle   6  Pass 0  IDiag  1:
 E= -1199.70332440946     Delta-E=       -0.000106375910 Rises=F Damp=F
 DIIS: error= 1.76D-04 at cycle   6 NSaved=   6.
 NSaved= 6 IEnMin= 6 EnMin= -1199.70332440946     IErMin= 6 ErrMin= 1.76D-04
 ErrMax= 1.76D-04  0.00D+00 EMaxC= 1.00D-01 BMatC= 2.68D-05 BMatP= 1.89D-04
 IDIUse=3 WtCom= 9.98D-01 WtEn= 1.76D-03
 Coeff-Com: -0.316D-02 0.296D-02 0.223D-01 0.583D-01 0.317D+00 0.602D+00
 Coeff-En:   0.000D+00 0.000D+00 0.000D+00 0.000D+00 0.386D-01 0.961D+00
 Coeff:     -0.315D-02 0.296D-02 0.222D-01 0.582D-01 0.317D+00 0.603D+00
 Gap=     0.288 Goal=   None    Shift=    0.000
 RMSDP=9.83D-06 MaxDP=4.00D-04 DE=-1.06D-04 OVMax= 1.29D-03

 Initial convergence to 1.0D-05 achieved.  Increase integral accuracy.
 Cycle   7  Pass 1  IDiag  1:
 E= -1199.70337435642     Delta-E=       -0.000049946963 Rises=F Damp=F
 DIIS: error= 4.78D-05 at cycle   1 NSaved=   1.
 NSaved= 1 IEnMin= 1 EnMin= -1199.70337435642     IErMin= 1 ErrMin= 4.78D-05
 ErrMax= 4.78D-05  0.00D+00 EMaxC= 1.00D-01 BMatC= 2.61D-06 BMatP= 2.61D-06
 IDIUse=1 WtCom= 1.00D+00 WtEn= 0.00D+00
 Coeff-Com:  0.100D+01
 Coeff:      0.100D+01
 Gap=     0.288 Goal=   None    Shift=    0.000
 RMSDP=9.83D-06 MaxDP=4.00D-04 DE=-4.99D-05 OVMax= 9.61D-04

 Cycle   8  Pass 1  IDiag  1:
 E= -1199.70337425649     Delta-E=        0.000000099929 Rises=F Damp=F
 DIIS: error= 7.07D-05 at cycle   2 NSaved=   2.
 NSaved= 2 IEnMin= 1 EnMin= -1199.70337435642     IErMin= 1 ErrMin= 4.78D-05
 ErrMax= 7.07D-05  0.00D+00 EMaxC= 1.00D-01 BMatC= 3.57D-06 BMatP= 2.61D-06
 IDIUse=1 WtCom= 1.00D+00 WtEn= 0.00D+00
 Coeff-Com:  0.545D+00 0.455D+00
 Coeff:      0.545D+00 0.455D+00
 Gap=     0.288 Goal=   None    Shift=    0.000
 RMSDP=3.24D-06 MaxDP=1.72D-04 DE= 9.99D-08 OVMax= 4.22D-04

 Cycle   9  Pass 1  IDiag  1:
 E= -1199.70337665147     Delta-E=       -0.000002394982 Rises=F Damp=F
 DIIS: error= 1.56D-05 at cycle   3 NSaved=   3.
 NSaved= 3 IEnMin= 3 EnMin= -1199.70337665147     IErMin= 3 ErrMin= 1.56D-05
 ErrMax= 1.56D-05  0.00D+00 EMaxC= 1.00D-01 BMatC= 1.31D-07 BMatP= 2.61D-06
 IDIUse=1 WtCom= 1.00D+00 WtEn= 0.00D+00
 Coeff-Com:  0.462D-01 0.153D+00 0.800D+00
 Coeff:      0.462D-01 0.153D+00 0.800D+00
 Gap=     0.288 Goal=   None    Shift=    0.000
 RMSDP=1.18D-06 MaxDP=5.63D-05 DE=-2.39D-06 OVMax= 9.59D-05

 Cycle  10  Pass 1  IDiag  1:
 E= -1199.70337673532     Delta-E=       -0.000000083848 Rises=F Damp=F
 DIIS: error= 6.37D-06 at cycle   4 NSaved=   4.
 NSaved= 4 IEnMin= 4 EnMin= -1199.70337673532     IErMin= 4 ErrMin= 6.37D-06
 ErrMax= 6.37D-06  0.00D+00 EMaxC= 1.00D-01 BMatC= 3.44D-08 BMatP= 1.31D-07
 IDIUse=1 WtCom= 1.00D+00 WtEn= 0.00D+00
 Coeff-Com: -0.381D-01 0.258D-01 0.409D+00 0.603D+00
 Coeff:     -0.381D-01 0.258D-01 0.409D+00 0.603D+00
 Gap=     0.288 Goal=   None    Shift=    0.000
 RMSDP=4.82D-07 MaxDP=2.67D-05 DE=-8.38D-08 OVMax= 4.82D-05

 Cycle  11  Pass 1  IDiag  1:
 E= -1199.70337675903     Delta-E=       -0.000000023710 Rises=F Damp=F
 DIIS: error= 1.46D-06 at cycle   5 NSaved=   5.
 NSaved= 5 IEnMin= 5 EnMin= -1199.70337675903     IErMin= 5 ErrMin= 1.46D-06
 ErrMax= 1.46D-06  0.00D+00 EMaxC= 1.00D-01 BMatC= 2.52D-09 BMatP= 3.44D-08
 IDIUse=1 WtCom= 1.00D+00 WtEn= 0.00D+00
 Coeff-Com: -0.197D-01-0.536D-02 0.946D-01 0.255D+00 0.676D+00
 Coeff:     -0.197D-01-0.536D-02 0.946D-01 0.255D+00 0.676D+00
 Gap=     0.288 Goal=   None    Shift=    0.000
 RMSDP=1.45D-07 MaxDP=6.38D-06 DE=-2.37D-08 OVMax= 1.93D-05

 Cycle  12  Pass 1  IDiag  1:
 E= -1199.70337676123     Delta-E=       -0.000000002200 Rises=F Damp=F
 DIIS: error= 7.30D-07 at cycle   6 NSaved=   6.
 NSaved= 6 IEnMin= 6 EnMin= -1199.70337676123     IErMin= 6 ErrMin= 7.30D-07
 ErrMax= 7.30D-07  0.00D+00 EMaxC= 1.00D-01 BMatC= 4.50D-10 BMatP= 2.52D-09
 IDIUse=1 WtCom= 1.00D+00 WtEn= 0.00D+00
 Coeff-Com: -0.963D-03-0.845D-02-0.383D-01-0.595D-02 0.298D+00 0.755D+00
 Coeff:     -0.963D-03-0.845D-02-0.383D-01-0.595D-02 0.298D+00 0.755D+00
 Gap=     0.288 Goal=   None    Shift=    0.000
 RMSDP=7.61D-08 MaxDP=4.65D-06 DE=-2.20D-09 OVMax= 1.09D-05

 Cycle  13  Pass 1  IDiag  1:
 E= -1199.70337676179     Delta-E=       -0.000000000562 Rises=F Damp=F
 DIIS: error= 2.72D-07 at cycle   7 NSaved=   7.
 NSaved= 7 IEnMin= 7 EnMin= -1199.70337676179     IErMin= 7 ErrMin= 2.72D-07
 ErrMax= 2.72D-07  0.00D+00 EMaxC= 1.00D-01 BMatC= 7.92D-11 BMatP= 4.50D-10
 IDIUse=1 WtCom= 1.00D+00 WtEn= 0.00D+00
 Coeff-Com:  0.246D-02-0.397D-02-0.350D-01-0.401D-01 0.548D-01 0.359D+00
 Coeff-Com:  0.663D+00
 Coeff:      0.246D-02-0.397D-02-0.350D-01-0.401D-01 0.548D-01 0.359D+00
 Coeff:      0.663D+00
 Gap=     0.288 Goal=   None    Shift=    0.000
 RMSDP=2.69D-08 MaxDP=1.51D-06 DE=-5.62D-10 OVMax= 5.36D-06

 Cycle  14  Pass 1  IDiag  1:
 E= -1199.70337676175     Delta-E=        0.000000000040 Rises=F Damp=F
 DIIS: error= 6.89D-08 at cycle   8 NSaved=   8.
 NSaved= 8 IEnMin= 7 EnMin= -1199.70337676179     IErMin= 8 ErrMin= 6.89D-08
 ErrMax= 6.89D-08  0.00D+00 EMaxC= 1.00D-01 BMatC= 7.04D-12 BMatP= 7.92D-11
 IDIUse=1 WtCom= 1.00D+00 WtEn= 0.00D+00
 Coeff-Com:  0.780D-03-0.138D-03-0.475D-02-0.961D-02-0.214D-01-0.577D-03
 Coeff-Com:  0.210D+00 0.826D+00
 Coeff:      0.780D-03-0.138D-03-0.475D-02-0.961D-02-0.214D-01-0.577D-03
 Coeff:      0.210D+00 0.826D+00
 Gap=     0.288 Goal=   None    Shift=    0.000
 RMSDP=1.07D-08 MaxDP=2.78D-07 DE= 4.00D-11 OVMax= 2.27D-06

 Cycle  15  Pass 1  IDiag  1:
 E= -1199.70337676182     Delta-E=       -0.000000000065 Rises=F Damp=F
 DIIS: error= 3.28D-08 at cycle   9 NSaved=   9.
 NSaved= 9 IEnMin= 9 EnMin= -1199.70337676182     IErMin= 9 ErrMin= 3.28D-08
 ErrMax= 3.28D-08  0.00D+00 EMaxC= 1.00D-01 BMatC= 1.17D-12 BMatP= 7.04D-12
 IDIUse=1 WtCom= 1.00D+00 WtEn= 0.00D+00
 Coeff-Com: -0.224D-03 0.711D-03 0.519D-02 0.487D-02-0.182D-01-0.734D-01
 Coeff-Com: -0.581D-01 0.278D+00 0.861D+00
 Coeff:     -0.224D-03 0.711D-03 0.519D-02 0.487D-02-0.182D-01-0.734D-01
 Coeff:     -0.581D-01 0.278D+00 0.861D+00
 Gap=     0.288 Goal=   None    Shift=    0.000
 RMSDP=5.29D-09 MaxDP=1.61D-07 DE=-6.55D-11 OVMax= 1.08D-06

 SCF Done:  E(RM062X) =  -1199.70337676     A.U. after   15 cycles
            NFock= 15  Conv=0.53D-08     -V/T= 2.0028
 KE= 1.196342639720D+03 PE=-4.643593296193D+03 EE= 1.348997274212D+03
 Leave Link  502 at Sat May 24 08:09:53 2025, MaxMem=  3758096384 cpu:             178.2 elap:              50.2
 (Enter /apps/easybuild-2022/easybuild/software/Compiler/NVHPC/22.11-CUDA-11.7.0/Gaussian/g16c01-CUDA-11.7.0/g16/l508.exe)
 QCSCF skips out because SCF is already converged.
 Leave Link  508 at Sat May 24 08:09:53 2025, MaxMem=  3758096384 cpu:               0.1 elap:               0.0
 (Enter /apps/easybuild-2022/easybuild/software/Compiler/NVHPC/22.11-CUDA-11.7.0/Gaussian/g16c01-CUDA-11.7.0/g16/l801.exe)
 DoSCS=F DFT=T ScalE2(SS,OS)=  1.000000  1.000000
 Range of M.O.s used for correlation:     1   366
 NBasis=   366 NAE=    49 NBE=    49 NFC=     0 NFV=     0
 NROrb=    366 NOA=    49 NOB=    49 NVA=   317 NVB=   317

 **** Warning!!: The largest alpha MO coefficient is  0.18982208D+02

 Leave Link  801 at Sat May 24 08:09:53 2025, MaxMem=  3758096384 cpu:               0.1 elap:               0.0
 (Enter /apps/easybuild-2022/easybuild/software/Compiler/NVHPC/22.11-CUDA-11.7.0/Gaussian/g16c01-CUDA-11.7.0/g16/l1101.exe)
 Using compressed storage, NAtomX=    12.
 Will process     13 centers per pass.
   1 Symmetry operations used in ECPInt.
 ECPInt:  NShTT=    8515 NPrTT=   27988 LenC2=    7866 LenP2D=   18934.
 LDataN:  DoStor=T MaxTD1= 7 Len=  274
 Leave Link 1101 at Sat May 24 08:09:54 2025, MaxMem=  3758096384 cpu:               1.5 elap:               0.4
 (Enter /apps/easybuild-2022/easybuild/software/Compiler/NVHPC/22.11-CUDA-11.7.0/Gaussian/g16c01-CUDA-11.7.0/g16/l1102.exe)
 Symmetrizing basis deriv contribution to polar:
 IMax=3 JMax=2 DiffMx= 0.00D+00
 Leave Link 1102 at Sat May 24 08:09:54 2025, MaxMem=  3758096384 cpu:               0.1 elap:               0.0
 (Enter /apps/easybuild-2022/easybuild/software/Compiler/NVHPC/22.11-CUDA-11.7.0/Gaussian/g16c01-CUDA-11.7.0/g16/l1110.exe)
 Forming Gx(P) for the SCF density, NAtomX=    12.
 Integral derivatives from FoFJK, PRISM(SPDF).
 Do as many integral derivatives as possible in FoFJK.
 G2DrvN: MDV=    3758095012.
 G2DrvN: will do    13 centers at a time, making    1 passes.
 Calling FoFCou, ICntrl=  3107 FMM=F I1Cent=   0 AccDes= 0.00D+00.
 FoFJK:  IHMeth= 1 ICntrl=    3107 DoSepK=F KAlg= 0 I1Cent=           0 FoldK=F
 IRaf=         0 NMat=       1 IRICut=       1 DoRegI=T DoRafI=F ISym2E= 0 IDoP0=0 IntGTp=1.
 FoFCou: FMM=F IPFlag=           0 FMFlag=      100000 FMFlg1=           0
         NFxFlg=           0 DoJE=F BraDBF=F KetDBF=F FulRan=T
         wScrn=  0.000000 ICntrl=      3107 IOpCl=  0 I1Cent=           0 NGrid=           0
         NMat0=    1 NMatS0=      1 NMatT0=    0 NMatD0=    1 NMtDS0=    0 NMtDT0=    0
 Symmetry not used in FoFCou.
 End of G2Drv F.D. properties file   721 does not exist.
 End of G2Drv F.D. properties file   722 does not exist.
 End of G2Drv F.D. properties file   788 does not exist.
 Leave Link 1110 at Sat May 24 08:10:48 2025, MaxMem=  3758096384 cpu:             413.9 elap:              54.5
 (Enter /apps/easybuild-2022/easybuild/software/Compiler/NVHPC/22.11-CUDA-11.7.0/Gaussian/g16c01-CUDA-11.7.0/g16/l1002.exe)
 Minotr:  Closed shell wavefunction.
          IDoAtm=111111111111
          Direct CPHF calculation.
          Differentiating once with respect to nuclear coordinates.
          Requested convergence is 1.0D-08 RMS, and 1.0D-07 maximum.
          Secondary convergence is 1.0D-12 RMS, and 1.0D-12 maximum.
          NewPWx=T KeepS1=F KeepF1=F KeepIn=T MapXYZ=F SortEE=F KeepMc=T.
         3598 words used for storage of precomputed grid.
 Keep R1 ints in memory in canonical form, NReq=2293452904.
 FoFCou: FMM=F IPFlag=           0 FMFlag=           0 FMFlg1=           0
         NFxFlg=           0 DoJE=F BraDBF=F KetDBF=F FulRan=T
         wScrn=  0.000000 ICntrl=       600 IOpCl=  0 I1Cent=           0 NGrid=           0
         NMat0=    1 NMatS0=  67161 NMatT0=    0 NMatD0=    1 NMtDS0=    0 NMtDT0=    0
 Symmetry not used in FoFCou.
 Two-electron integral symmetry not used.
          MDV=    3758096384 using IRadAn=       1.
          Solving linear equations simultaneously, MaxMat=       0.
          There are    39 degrees of freedom in the 1st order CPHF.  IDoFFX=6 NUNeed=     0.
     33 vectors produced by pass  0 Test12= 3.98D-14 2.56D-09 XBig12= 1.36D-01 1.15D-01.
 AX will form    33 AO Fock derivatives at one time.
     33 vectors produced by pass  1 Test12= 3.98D-14 2.56D-09 XBig12= 2.69D-02 3.38D-02.
     33 vectors produced by pass  2 Test12= 3.98D-14 2.56D-09 XBig12= 1.41D-03 9.78D-03.
     33 vectors produced by pass  3 Test12= 3.98D-14 2.56D-09 XBig12= 3.12D-05 7.95D-04.
     33 vectors produced by pass  4 Test12= 3.98D-14 2.56D-09 XBig12= 4.80D-07 9.84D-05.
     33 vectors produced by pass  5 Test12= 3.98D-14 2.56D-09 XBig12= 5.88D-09 1.12D-05.
     33 vectors produced by pass  6 Test12= 3.98D-14 2.56D-09 XBig12= 5.89D-11 8.87D-07.
     21 vectors produced by pass  7 Test12= 3.98D-14 2.56D-09 XBig12= 3.44D-13 6.43D-08.
      3 vectors produced by pass  8 Test12= 3.98D-14 2.56D-09 XBig12= 1.74D-15 4.84D-09.
 InvSVY:  IOpt=1 It=  1 EMax= 1.55D-15
 Solved reduced A of dimension   255 with    33 vectors.
 End of Minotr F.D. properties file   721 does not exist.
 End of Minotr F.D. properties file   722 does not exist.
 End of Minotr F.D. properties file   788 does not exist.
 Leave Link 1002 at Sat May 24 08:12:18 2025, MaxMem=  3758096384 cpu:             683.9 elap:              90.0
 (Enter /apps/easybuild-2022/easybuild/software/Compiler/NVHPC/22.11-CUDA-11.7.0/Gaussian/g16c01-CUDA-11.7.0/g16/l701.exe)
 ... and contract with generalized density number  0.
 Compute integral second derivatives.
   1 Symmetry operations used in ECPInt.
 ECPInt:  NShTT=    8515 NPrTT=   27988 LenC2=    7866 LenP2D=   18934.
 LDataN:  DoStor=T MaxTD1= 8 Len=  415
 Leave Link  701 at Sat May 24 08:12:19 2025, MaxMem=  3758096384 cpu:               1.4 elap:               0.4
 (Enter /apps/easybuild-2022/easybuild/software/Compiler/NVHPC/22.11-CUDA-11.7.0/Gaussian/g16c01-CUDA-11.7.0/g16/l702.exe)
 L702 exits ... SP integral derivatives will be done elsewhere.
 Leave Link  702 at Sat May 24 08:12:19 2025, MaxMem=  3758096384 cpu:               0.1 elap:               0.1
 (Enter /apps/easybuild-2022/easybuild/software/Compiler/NVHPC/22.11-CUDA-11.7.0/Gaussian/g16c01-CUDA-11.7.0/g16/l703.exe)
 Integral derivatives from FoFJK, PRISM(SPDF).
 Compute integral second derivatives, UseDBF=F ICtDFT=           0.
 Calling FoFJK, ICntrl=    100127 FMM=F ISym2X=0 I1Cent= 0 IOpClX= 0 NMat=1 NMatS=1 NMatT=0.
 FoFJK:  IHMeth= 1 ICntrl=  100127 DoSepK=F KAlg= 0 I1Cent=           0 FoldK=F
 IRaf=         0 NMat=       1 IRICut=       1 DoRegI=T DoRafI=F ISym2E= 0 IDoP0=0 IntGTp=1.
 FoFCou: FMM=F IPFlag=           0 FMFlag=      100000 FMFlg1=         800
         NFxFlg=           0 DoJE=F BraDBF=F KetDBF=F FulRan=T
         wScrn=  0.000000 ICntrl=    100127 IOpCl=  0 I1Cent=           0 NGrid=           0
         NMat0=    1 NMatS0=      1 NMatT0=    0 NMatD0=    1 NMtDS0=    0 NMtDT0=    0
 Symmetry not used in FoFCou.
 Leave Link  703 at Sat May 24 08:14:13 2025, MaxMem=  3758096384 cpu:             847.8 elap:             113.6
 (Enter /apps/easybuild-2022/easybuild/software/Compiler/NVHPC/22.11-CUDA-11.7.0/Gaussian/g16c01-CUDA-11.7.0/g16/l716.exe)
 Dipole        =-2.58375411D-01 1.23638023D+00 8.24220361D-01
 Polarizability= 0.00000000D+00 0.00000000D+00 0.00000000D+00
                 0.00000000D+00 0.00000000D+00 0.00000000D+00
 -------------------------------------------------------------------
 Center     Atomic                   Forces (Hartrees/Bohr)
 Number     Number              X              Y              Z
 -------------------------------------------------------------------
      1        6           0.003430778    0.007770397    0.002767659
      2        6          -0.000156125    0.005180495   -0.002647569
      3        9           0.004682665    0.007015256   -0.002523795
      4        9          -0.000717075   -0.000323240    0.002376192
      5       16           0.008131050   -0.016948805    0.006928399
      6        8          -0.023331093    0.012669290   -0.010087518
      7        8           0.019049890   -0.003046224    0.008112158
      8        8          -0.004816987   -0.003777366   -0.006006273
      9        9          -0.001623759   -0.004915243    0.000405303
     10        9          -0.000117603   -0.001013369   -0.000266134
     11        9          -0.002029573   -0.001396841   -0.000927415
     12        1          -0.002502169   -0.001214349    0.001868992
 -------------------------------------------------------------------
 Cartesian Forces:  Max     0.023331093 RMS     0.007384682
 Force constants in Cartesian coordinates: 
                1             2             3             4             5 
      1  0.535004D+00
      2 -0.618440D-02  0.565771D+00
      3 -0.131129D-01 -0.275988D-01  0.590418D+00
      4 -0.475059D-01  0.466656D-02  0.968789D-02  0.146868D+00
      5 -0.533427D-02 -0.887417D-01  0.757653D-01 -0.108410D+00  0.564195D+00
      6 -0.303846D-02  0.405860D-01 -0.177490D+00 -0.138079D+00  0.495544D-02
      7  0.477134D-03 -0.533558D-03  0.429958D-03  0.236648D-02  0.352348D-02
      8 -0.118126D-03 -0.944240D-03 -0.184162D-02  0.714444D-03  0.115513D-02
      9 -0.496147D-03  0.122688D-03 -0.493001D-03 -0.166281D-02 -0.175383D-02
     10 -0.213386D-02  0.658753D-02 -0.266701D-03 -0.204247D-01  0.559182D-01
     11  0.995494D-02 -0.417466D-01 -0.123806D-01  0.582319D-01 -0.356184D+00
     12 -0.467141D-02  0.294577D-01  0.178117D-02  0.167931D-01 -0.103204D-01
     13 -0.767969D-02 -0.194091D-01  0.260724D-01 -0.720839D-01  0.678224D-01
     14 -0.873257D-02  0.380674D-01 -0.190605D-01  0.328926D-01 -0.101815D+00
     15  0.243457D-01  0.376256D-02 -0.473649D-01  0.961588D-01 -0.896845D-01
     16 -0.574655D-02  0.733252D-02 -0.199603D-01  0.265789D-02 -0.223770D-01
     17  0.316358D-02 -0.278927D-02  0.882293D-02  0.686493D-02  0.136455D-01
     18  0.109294D-02 -0.370100D-02  0.102959D-01  0.789174D-02  0.100810D-01
     19  0.468786D-02  0.731484D-02 -0.259683D-02 -0.199269D-03 -0.890919D-02
     20  0.490977D-02 -0.224028D-02 -0.131235D-02 -0.337739D-02  0.182153D-02
     21 -0.301058D-03 -0.108254D-01  0.140738D-01 -0.651474D-03  0.318913D-01
     22 -0.354475D-03  0.190229D-02 -0.411220D-02 -0.326443D-02  0.105122D-01
     23 -0.134545D-02 -0.125896D-01  0.956186D-02  0.424048D-02 -0.717685D-02
     24 -0.374605D-03  0.259578D-02  0.369970D-02 -0.245587D-02 -0.264534D-01
     25 -0.758453D-01  0.135945D-01  0.207143D-02  0.714372D-02  0.333954D-02
     26  0.155554D-01 -0.280077D+00  0.200407D-01  0.558334D-02 -0.360322D-01
     27 -0.121467D-02  0.201010D-01 -0.861145D-01 -0.436157D-02  0.301412D-01
     28 -0.230640D+00  0.275107D-01  0.936446D-01 -0.151293D-01  0.837907D-02
     29  0.307475D-01 -0.819501D-01 -0.126329D-01 -0.386423D-02  0.670461D-02
     30  0.963746D-01 -0.152192D-01 -0.135993D+00  0.416961D-01 -0.818307D-02
     31 -0.169840D+00 -0.422353D-01 -0.920143D-01  0.257958D-02 -0.671712D-02
     32 -0.432416D-01 -0.926951D-01 -0.374619D-01  0.276688D-02  0.742971D-02
     33 -0.989077D-01 -0.402983D-01 -0.170928D+00 -0.240973D-01 -0.190109D-01
     34 -0.422973D-03 -0.546545D-03  0.156981D-03 -0.300844D-02  0.225238D-02
     35  0.625277D-03 -0.647166D-04 -0.190218D-02 -0.309806D-03 -0.500163D-02
     36  0.303793D-03  0.101693D-02 -0.188539D-02 -0.919431D-03  0.257190D-02
                6             7             8             9            10 
      6  0.584238D+00
      7 -0.859719D-03  0.800046D-01
      8  0.586689D-03  0.106461D+00  0.342447D+00
      9  0.385825D-03 -0.461969D-02 -0.367077D-01  0.109810D-01
     10  0.476162D-02 -0.155470D-02 -0.218594D-02  0.115383D-02  0.319119D-01
     11 -0.284401D-02  0.138463D-03  0.266262D-02  0.219995D-04 -0.828641D-01
     12 -0.539882D-01  0.476639D-03  0.470778D-03  0.690375D-05 -0.154991D-01
     13  0.114639D+00 -0.856596D-02  0.498375D-02 -0.306457D-02 -0.115653D-01
     14 -0.540293D-01 -0.398767D-01 -0.290903D-01  0.476084D-03  0.310490D-01
     15 -0.257324D+00  0.490694D-03  0.373662D-02 -0.527146D-02  0.775511D-02
     16  0.146285D-02 -0.615276D-01 -0.105677D+00  0.111223D-01 -0.382149D-02
     17 -0.438370D-02 -0.617014D-01 -0.326591D+00  0.406636D-01 -0.120928D-02
     18  0.376785D-02  0.396730D-02  0.336238D-01 -0.114422D-01  0.243229D-02
     19  0.204145D-01 -0.294211D-02  0.167973D-02 -0.170417D-02 -0.235890D-02
     20  0.260663D-04 -0.408212D-02  0.674572D-02 -0.252951D-02 -0.134725D-02
     21 -0.278653D-01  0.370075D-03 -0.216044D-02  0.131682D-02 -0.221855D-02
     22  0.270611D-02 -0.742382D-02 -0.669921D-02 -0.202963D-02  0.299302D-02
     23 -0.571449D-03 -0.475221D-02  0.178672D-02 -0.798553D-03 -0.139693D-02
     24  0.135005D-01 -0.150693D-02 -0.108775D-02  0.416136D-02  0.228973D-02
     25 -0.421246D-02 -0.162949D-04 -0.762749D-04  0.452771D-04  0.266542D-02
     26  0.455539D-02  0.417441D-03  0.577003D-03 -0.129747D-03 -0.101613D-02
     27  0.713572D-02  0.183009D-03  0.411194D-03  0.125706D-04  0.746401D-03
     28  0.249253D-01  0.728247D-04 -0.255191D-03  0.000000D+00  0.147007D-02
     29  0.276777D-02  0.781840D-04  0.205809D-03 -0.200425D-04 -0.153736D-02
     30 -0.357028D-01 -0.339339D-03  0.449716D-03  0.200226D-03 -0.234969D-02
     31 -0.223244D-01  0.212735D-03  0.577523D-03  0.154211D-04  0.754154D-03
     32  0.469428D-02  0.506756D-04  0.345445D-03  0.299403D-04 -0.183270D-02
     33 -0.569341D-01  0.235426D-03  0.895683D-03  0.554846D-04  0.145992D-02
     34 -0.395487D-03 -0.110332D-02  0.595574D-03  0.124115D-02  0.206439D-02
     35  0.365685D-02  0.276983D-03  0.700090D-03  0.625064D-03 -0.165057D-03
     36  0.277116D-03  0.117258D-02  0.162312D-02  0.864724D-04 -0.264831D-03
               11            12            13            14            15 
     11  0.430212D+00
     12  0.552647D-02  0.537552D-01
     13 -0.460364D-02 -0.346598D-03  0.462442D+00
     14 -0.364162D-01 -0.239451D-01 -0.103494D+00  0.771677D+00
     15  0.191348D-01  0.351822D-03 -0.561210D-01 -0.155449D+00  0.989746D+00
     16  0.158699D-01 -0.125508D-02 -0.200720D+00  0.442245D-01 -0.109788D-01
     17 -0.596866D-02  0.440942D-03  0.908581D-02 -0.440443D-01 -0.167655D-02
     18 -0.917941D-02  0.112975D-02  0.234898D-01  0.801035D-03 -0.446719D-01
     19 -0.445614D-03 -0.705555D-03 -0.867990D-01  0.473169D-01 -0.729910D-01
     20  0.888415D-02 -0.169816D-02  0.558026D-01 -0.226328D+00  0.250693D+00
     21 -0.740973D-02  0.219789D-02 -0.875952D-01  0.265254D+00 -0.561576D+00
     22  0.512280D-02  0.363999D-02 -0.641303D-01 -0.270469D-02  0.131084D-01
     23 -0.715091D-02 -0.541577D-02 -0.237025D-01 -0.315242D+00  0.187252D-01
     24 -0.673578D-02 -0.724925D-02  0.103913D-01 -0.270355D-01 -0.103351D+00
     25 -0.584870D-04  0.828089D-03 -0.265719D-02  0.307386D-02 -0.338452D-03
     26 -0.395658D-02  0.725029D-02  0.554389D-02 -0.155718D-01 -0.639609D-02
     27  0.732647D-02 -0.539123D-02 -0.309648D-02 -0.158147D-02  0.363687D-02
     28 -0.299342D-02 -0.211351D-02  0.483704D-03 -0.354125D-02 -0.213555D-02
     29  0.454442D-02  0.964327D-03  0.289412D-03 -0.399257D-02  0.175598D-02
     30  0.892541D-03  0.199626D-02 -0.147947D-02  0.109184D-01  0.510173D-02
     31  0.116331D-02  0.162307D-02 -0.107983D-01  0.334354D-02  0.393273D-02
     32  0.511802D-02 -0.145067D-02  0.906352D-03 -0.307370D-02  0.234304D-03
     33  0.360889D-02  0.410632D-02 -0.237462D-01  0.957739D-02  0.150542D-01
     34  0.483850D-03  0.123037D-02  0.207341D-02 -0.355120D-02 -0.322658D-02
     35  0.199651D-05 -0.128044D-02  0.677509D-02 -0.341713D-01 -0.448363D-01
     36  0.203833D-02  0.130333D-02  0.856910D-03 -0.592638D-02  0.566776D-02
               16            17            18            19            20 
     16  0.296735D+00
     17  0.579097D-01  0.386170D+00
     18  0.131856D-01 -0.500214D-01  0.539469D-01
     19 -0.338237D-01  0.198052D-01 -0.489844D-01  0.109606D+00
     20  0.893054D-02 -0.147746D-02  0.158228D-01 -0.628877D-01  0.212001D+00
     21 -0.107270D-01  0.127981D-01 -0.859950D-02  0.101928D+00 -0.294148D+00
     22  0.350175D-02 -0.312397D-01 -0.908881D-03  0.107152D-01  0.223532D-02
     23 -0.140295D-02 -0.203062D-01 -0.872977D-03 -0.147693D-02 -0.800109D-02
     24  0.317514D-02 -0.207971D-02  0.206773D-02  0.252796D-03  0.297939D-01
     25  0.142154D-02 -0.354093D-03 -0.688055D-03  0.321851D-03 -0.427581D-03
     26 -0.442864D-02  0.189616D-02  0.246414D-02 -0.114533D-02  0.147728D-02
     27  0.208029D-02 -0.697074D-03 -0.814124D-03  0.256650D-03  0.664336D-03
     28 -0.109310D-02  0.803094D-03  0.669318D-03 -0.171472D-03  0.114853D-03
     29 -0.421594D-03  0.169340D-03  0.657942D-04 -0.301747D-03  0.832340D-03
     30  0.561302D-02 -0.302170D-02 -0.282551D-02 -0.573834D-03 -0.119189D-02
     31  0.335981D-02 -0.111141D-02 -0.115213D-02  0.236332D-02  0.348939D-03
     32  0.256905D-03 -0.283846D-03 -0.152871D-04 -0.600889D-03  0.316464D-03
     33  0.651302D-02 -0.218588D-02 -0.238893D-02  0.539039D-02  0.178794D-02
     34 -0.943506D-03 -0.201657D-02 -0.995610D-03 -0.139983D-02 -0.219978D-03
     35 -0.216993D-03 -0.420155D-03  0.931524D-03 -0.349299D-03  0.596808D-02
     36 -0.231072D-03  0.134040D-02 -0.465956D-03 -0.686589D-03  0.209254D-02
               21            22            23            24            25 
     21  0.583770D+00
     22  0.308860D-03  0.652603D-01
     23 -0.413786D-02  0.246840D-02  0.441846D+00
     24  0.128946D-01 -0.943906D-01  0.170532D+00  0.515806D+00
     25 -0.423043D-03  0.314857D-03 -0.273076D-03  0.274534D-02  0.842013D-01
     26  0.318857D-02 -0.639907D-03  0.683481D-02 -0.101368D-02 -0.321127D-01
     27 -0.120298D-02  0.260701D-02 -0.218530D-02 -0.906486D-02 -0.112295D-03
     28  0.289396D-02 -0.107680D-03  0.101314D-02  0.905820D-03 -0.186079D-01
     29  0.647658D-03 -0.220499D-04  0.120082D-02 -0.373394D-03  0.541368D-01
     30 -0.479785D-02  0.623293D-03 -0.254481D-02 -0.994045D-03  0.122965D-01
     31 -0.240602D-02  0.132337D-02 -0.137796D-02 -0.499521D-03  0.109222D-02
     32  0.383221D-03  0.441735D-04  0.144228D-02 -0.424701D-03 -0.405375D-01
     33 -0.623294D-02  0.252167D-02 -0.470232D-02 -0.820508D-03 -0.123940D-01
     34 -0.117843D-02 -0.882785D-02  0.280060D-01  0.794674D-01 -0.341958D-04
     35  0.451889D-02  0.190203D-01 -0.826448D-01 -0.137718D+00 -0.304915D-03
     36 -0.397777D-02  0.759259D-01 -0.177590D+00 -0.430651D+00  0.181649D-03
               26            27            28            29            30 
     26  0.412888D+00
     27  0.178127D-01  0.846873D-01
     28  0.402887D-01  0.149949D-01  0.353633D+00
     29 -0.360475D-01 -0.300469D-01 -0.657371D-01  0.941407D-01
     30 -0.192197D-01  0.720784D-02 -0.130424D+00  0.359576D-01  0.145712D+00
     31 -0.281006D-01 -0.122365D-01 -0.898319D-01 -0.133767D-01 -0.215311D-01
     32 -0.523164D-01 -0.431818D-01 -0.507657D-02  0.140870D-01  0.610276D-03
     33 -0.280439D-01  0.231804D-03 -0.304056D-02  0.959222D-03  0.195581D-01
     34  0.545988D-04  0.153264D-03 -0.777892D-04  0.881203D-05  0.938365D-04
     35  0.328337D-03  0.123561D-02 -0.506034D-03  0.105074D-03  0.551897D-03
     36 -0.508699D-03 -0.324419D-03 -0.319443D-03 -0.450707D-04  0.536664D-03
               31            32            33            34            35 
     31  0.258932D+00
     32  0.872012D-01  0.119560D+00
     33  0.146405D+00  0.766392D-01  0.197606D+00
     34 -0.147083D-03  0.630851D-04 -0.339341D-03  0.118272D-01
     35  0.284498D-03  0.705641D-04  0.772938D-03 -0.251300D-01  0.115128D+00
     36  0.188067D-03 -0.568968D-04  0.691973D-03 -0.762076D-01  0.173444D+00
               36 
     36  0.428741D+00
 FormGI is forming the generalized inverse of G from B-inverse, IUseBI=4.
 Leave Link  716 at Sat May 24 08:14:13 2025, MaxMem=  3758096384 cpu:               0.1 elap:               0.0
 (Enter /apps/easybuild-2022/easybuild/software/Compiler/NVHPC/22.11-CUDA-11.7.0/Gaussian/g16c01-CUDA-11.7.0/g16/l103.exe)

 GradGradGradGradGradGradGradGradGradGradGradGradGradGradGradGradGradGrad
 Berny optimization.
 Red2BG is reusing G-inverse.
 Internal  Forces:  Max     0.020733345 RMS     0.006793837
 Search for a local minimum.
 Step number   1 out of a maximum of   56
 All quantities printed in internal units (Hartrees-Bohrs-Radians)
 RMS Force = .67938D-02 SwitMx=.10000D-02 MixMth= 1
 Mixed Optimization -- RFO/linear search
 Second derivative matrix not updated -- analytic derivatives used.
 ITU=  0
     Eigenvalues ---   -0.00235   0.00130   0.00397   0.00503   0.00998
     Eigenvalues ---    0.07950   0.10015   0.10246   0.12865   0.13310
     Eigenvalues ---    0.13502   0.16176   0.18377   0.18928   0.22720
     Eigenvalues ---    0.23716   0.25134   0.26671   0.29490   0.32346
     Eigenvalues ---    0.39419   0.39570   0.40427   0.41067   0.42509
     Eigenvalues ---    0.45453   0.48256   0.52143   0.56955   0.77155
 Eigenvalue     1 is  -2.35D-03 should be greater than     0.000000 Eigenvector:
                          D16       D18       D17       D10       D13
   1                   -0.54752  -0.54464  -0.54273  -0.13344   0.12353
                          D11       D12       D14       D15       D7
   1                   -0.12313  -0.11474   0.11410   0.10108  -0.07432
 RFO step:  Lambda=-1.04205827D-02 EMin=-2.35194958D-03
 Linear search not attempted -- first point.
 Iteration  1 RMS(Cart)=  0.13816208 RMS(Int)=  0.07505238
 Iteration  2 RMS(Cart)=  0.05055746 RMS(Int)=  0.02255639
 Iteration  3 RMS(Cart)=  0.01914892 RMS(Int)=  0.00117614
 Iteration  4 RMS(Cart)=  0.00088086 RMS(Int)=  0.00075864
 Iteration  5 RMS(Cart)=  0.00000122 RMS(Int)=  0.00075864
 Iteration  6 RMS(Cart)=  0.00000000 RMS(Int)=  0.00075864
 ITry= 1 IFail=0 DXMaxC= 4.68D-01 DCOld= 1.00D+10 DXMaxT= 3.00D-01 DXLimC= 3.00D+00 Rises=F
 Variable       Old X    -DE/DX   Delta X   Delta X   Delta X     New X
                                 (Linear)    (Quad)   (Total)
    R1        2.82509  -0.00163   0.00000  -0.00720  -0.00720   2.81789
    R2        2.53215  -0.00472   0.00000  -0.01412  -0.01412   2.51803
    R3        2.51750   0.00023   0.00000  -0.00079  -0.00079   2.51670
    R4        2.52175   0.00249   0.00000   0.00933   0.00933   2.53108
    R5        2.54778   0.00016   0.00000  -0.00299  -0.00299   2.54479
    R6        3.05521  -0.00371   0.00000  -0.01759  -0.01759   3.03763
    R7        2.63921  -0.00825   0.00000  -0.01376  -0.01376   2.62545
    R8        3.13226   0.01865   0.00000   0.04496   0.04496   3.17722
    R9        2.67133   0.01134   0.00000   0.00346   0.00346   2.67479
   R10        2.93460  -0.00555   0.00000   0.00328   0.00328   2.93788
   R11        1.83141   0.00166   0.00000   0.00401   0.00401   1.83542
    A1        1.95139  -0.00074   0.00000  -0.00352  -0.00360   1.94779
    A2        1.90721   0.00045   0.00000   0.01159   0.01158   1.91879
    A3        1.97848  -0.00186   0.00000  -0.01585  -0.01589   1.96259
    A4        1.88315   0.00191   0.00000   0.01243   0.01238   1.89553
    A5        1.87516   0.00022   0.00000  -0.00045  -0.00055   1.87461
    A6        1.86418   0.00023   0.00000  -0.00303  -0.00300   1.86118
    A7        1.96828   0.00320   0.00000   0.02237   0.02214   1.99042
    A8        2.20309  -0.00142   0.00000  -0.00873  -0.00898   2.19411
    A9        2.00685  -0.00203   0.00000   0.00553   0.00520   2.01205
   A10        2.12851  -0.00274   0.00000  -0.02059  -0.02264   2.10587
   A11        2.03027  -0.00887   0.00000   0.00077   0.00015   2.03042
   A12        1.85948   0.00464   0.00000  -0.00768  -0.00947   1.85001
   A13        1.72155   0.02073   0.00000   0.10046   0.10026   1.82181
   A14        1.64928  -0.01559   0.00000  -0.09508  -0.09640   1.55288
   A15        2.05139   0.00103   0.00000   0.00782   0.00931   2.06070
   A16        1.84751  -0.00667   0.00000  -0.02296  -0.02296   1.82455
   A17        1.93620  -0.00392   0.00000  -0.00099  -0.00099   1.93521
    D1       -3.06196  -0.00219   0.00000  -0.04814  -0.04803  -3.10999
    D2        0.58407  -0.00123   0.00000  -0.09382  -0.09389   0.49018
    D3       -0.97845   0.00002   0.00000  -0.02725  -0.02713  -1.00557
    D4        2.66758   0.00099   0.00000  -0.07293  -0.07299   2.59459
    D5        1.09842  -0.00056   0.00000  -0.03324  -0.03320   1.06522
    D6       -1.53874   0.00041   0.00000  -0.07892  -0.07906  -1.61780
    D7        1.13307  -0.01304   0.00000  -0.24726  -0.24698   0.88609
    D8       -3.04864   0.00664   0.00000  -0.11440  -0.11454   3.12000
    D9       -0.72323   0.00481   0.00000  -0.11000  -0.11030  -0.83352
   D10       -1.49456  -0.01335   0.00000  -0.29783  -0.29744  -1.79199
   D11        0.60692   0.00634   0.00000  -0.16496  -0.16500   0.44192
   D12        2.93234   0.00450   0.00000  -0.16057  -0.16076   2.77158
   D13        1.28137   0.00229   0.00000   0.04156   0.04104   1.32241
   D14       -0.96254  -0.00275   0.00000  -0.03757  -0.03958  -1.00212
   D15       -3.03514  -0.00402   0.00000  -0.04240  -0.03986  -3.07500
   D16       -2.73009  -0.00141   0.00000  -0.50334  -0.50204   3.05105
   D17        1.36706   0.00669   0.00000  -0.43874  -0.43997   0.92708
   D18       -0.41623  -0.00865   0.00000  -0.50286  -0.50294  -0.91916
         Item               Value     Threshold  Converged?
 Maximum Force            0.020733     0.000015     NO 
 RMS     Force            0.006794     0.000010     NO 
 Maximum Displacement     0.468297     0.000060     NO 
 RMS     Displacement     0.174869     0.000040     NO 
 Predicted change in Energy=-8.642853D-03
 Lowest energy point so far.  Saving SCF results.
 GradGradGradGradGradGradGradGradGradGradGradGradGradGradGradGradGradGrad

 Leave Link  103 at Sat May 24 08:14:13 2025, MaxMem=  3758096384 cpu:               0.1 elap:               0.1
 (Enter /apps/easybuild-2022/easybuild/software/Compiler/NVHPC/22.11-CUDA-11.7.0/Gaussian/g16c01-CUDA-11.7.0/g16/l202.exe)
                          Input orientation:                          
 ---------------------------------------------------------------------
 Center     Atomic      Atomic             Coordinates (Angstroms)
 Number     Number       Type             X           Y           Z
 ---------------------------------------------------------------------
      1          6           0        2.499073    0.060206   -2.609921
      2          6           0        2.561476   -0.554017   -1.252569
      3          9           0       -0.460009   -1.088065   -0.022675
      4          9           0        2.896477   -1.858327   -1.255459
      5         16           0        1.745474   -0.057678    0.040358
      6          8           0        0.084335    0.190102   -0.037303
      7          8           0        1.934287   -0.805440    1.227230
      8          8           0        1.943950    1.482820    0.106928
      9          9           0        2.202185    1.357716   -2.548001
     10          9           0        3.671889   -0.078425   -3.225493
     11          9           0        1.583183   -0.523454   -3.393794
     12          1           0        1.410892    1.869998    0.820573
 ---------------------------------------------------------------------
                    Distance matrix (angstroms):
                    1          2          3          4          5
     1  C    0.000000
     2  C    1.491163   0.000000
     3  F    4.094939   3.305634   0.000000
     4  F    2.381861   1.346647   3.657739   0.000000
     5  S    2.757859   1.607443   2.435123   2.499256   0.000000
     6  O    3.530750   2.857764   1.389328   3.686204   1.681312
     7  O    3.973921   2.570211   2.715656   2.863236   1.415437
     8  O    3.116610   2.525524   3.522110   3.731844   1.554657
     9  F    1.332483   2.337083   4.409806   3.534917   2.985219
    10  F    1.331783   2.313359   5.324471   2.765926   3.791740
    11  F    1.339392   2.354322   3.982192   2.842376   3.469393
    12  H    4.028371   3.390813   3.600204   4.518548   2.106328
                    6          7          8          9         10
     6  O    0.000000
     7  O    2.452033   0.000000
     8  O    2.269381   2.547804   0.000000
     9  F    3.486003   4.359287   2.670390   0.000000
    10  F    4.806995   4.834723   4.065500   2.163684   0.000000
    11  F    3.744561   4.642914   4.050967   2.153446   2.142212
    12  H    2.306026   2.756317   0.971261   3.497981   5.027834
                   11         12
    11  F    0.000000
    12  H    4.849658   0.000000
 Symmetry turned off by external request.
 Stoichiometry    C2HF5O3S
 Rotational constants (GHZ):           1.5229520           0.7207270           0.7028378
 Leave Link  202 at Sat May 24 08:14:13 2025, MaxMem=  3758096384 cpu:               0.1 elap:               0.0
 (Enter /apps/easybuild-2022/easybuild/software/Compiler/NVHPC/22.11-CUDA-11.7.0/Gaussian/g16c01-CUDA-11.7.0/g16/l301.exe)
 Standard basis: def2TZVPP (5D, 7F)
 Ernie: Thresh=  0.10000D-02 Tol=  0.10000D-05 Strict=F.
   366 basis functions,   596 primitive gaussians,   423 cartesian basis functions
    49 alpha electrons       49 beta electrons
       nuclear repulsion energy       901.1130452225 Hartrees.
 IExCor= 4336 DFT=T Ex+Corr=M062X ExCW=0 ScaHFX=  0.540000
 ScaDFX=  1.000000  1.000000  1.000000  1.000000 ScalE2=  1.000000  1.000000
 IRadAn=      5 IRanWt=     -1 IRanGd=            0 ICorTp=0 IEmpDi=  4
 NAtoms=   12 NActive=   12 NUniq=   12 SFac= 1.00D+00 NAtFMM=   60 NAOKFM=F Big=F
 Integral buffers will be    131072 words long.
 Raffenetti 2 integral format.
 Two-electron integral symmetry is turned off.
 Leave Link  301 at Sat May 24 08:14:13 2025, MaxMem=  3758096384 cpu:               0.1 elap:               0.1
 (Enter /apps/easybuild-2022/easybuild/software/Compiler/NVHPC/22.11-CUDA-11.7.0/Gaussian/g16c01-CUDA-11.7.0/g16/l302.exe)
 NPDir=0 NMtPBC=     1 NCelOv=     1 NCel=       1 NClECP=     1 NCelD=      1
         NCelK=      1 NCelE2=     1 NClLst=     1 CellRange=     0.0.
 One-electron integrals computed using PRISM.
   1 Symmetry operations used in ECPInt.
 ECPInt:  NShTT=    8515 NPrTT=   27988 LenC2=    7897 LenP2D=   19023.
 LDataN:  DoStor=T MaxTD1= 6 Len=  172
 NBasis=   366 RedAO= T EigKep=  3.68D-04  NBF=   366
 NBsUse=   366 1.00D-06 EigRej= -1.00D+00 NBFU=   366
 Precomputing XC quadrature grid using
 IXCGrd= 4 IRadAn=           5 IRanWt=          -1 IRanGd=           0 AccXCQ= 0.00D+00.
 Generated NRdTot=       0 NPtTot=           0 NUsed=           0 NTot=          32
 NSgBfM=   419   419   419   419   419 MxSgAt=    12 MxSgA2=    12.
 Leave Link  302 at Sat May 24 08:14:13 2025, MaxMem=  3758096384 cpu:               1.0 elap:               0.3
 (Enter /apps/easybuild-2022/easybuild/software/Compiler/NVHPC/22.11-CUDA-11.7.0/Gaussian/g16c01-CUDA-11.7.0/g16/l303.exe)
 DipDrv:  MaxL=1.
 Leave Link  303 at Sat May 24 08:14:13 2025, MaxMem=  3758096384 cpu:               0.2 elap:               0.1
 (Enter /apps/easybuild-2022/easybuild/software/Compiler/NVHPC/22.11-CUDA-11.7.0/Gaussian/g16c01-CUDA-11.7.0/g16/l401.exe)
 Initial guess from the checkpoint file:  "/tmp/Gau-204162.chk"
 B after Tr=     0.068409    0.044343    0.055320
         Rot=    0.999940   -0.003540   -0.005943    0.008444 Ang=  -1.25 deg.
 Guess basis will be translated and rotated to current coordinates.
 JPrj=2 DoOrth=T DoCkMO=T.
 Generating alternative initial guess.
 ExpMin= 9.52D-02 ExpMax= 6.07D+04 ExpMxC= 2.07D+03 IAcc=3 IRadAn=         5 AccDes= 0.00D+00
 Harris functional with IExCor= 1009 and IRadAn=       5 diagonalized for initial guess.
 HarFok:  IExCor= 1009 AccDes= 0.00D+00 IRadAn=         5 IDoV= 1 UseB2=F ITyADJ=14
 ICtDFT=  3500011 ScaDFX=  1.000000  1.000000  1.000000  1.000000
 FoFCou: FMM=F IPFlag=           0 FMFlag=      100000 FMFlg1=           0
         NFxFlg=           0 DoJE=T BraDBF=F KetDBF=T FulRan=T
         wScrn=  0.000000 ICntrl=       500 IOpCl=  0 I1Cent=   200000004 NGrid=           0
         NMat0=    1 NMatS0=      1 NMatT0=    0 NMatD0=    1 NMtDS0=    0 NMtDT0=    0
 Symmetry not used in FoFCou.
 Harris En= -1199.12785082334    
 Leave Link  401 at Sat May 24 08:14:14 2025, MaxMem=  3758096384 cpu:               4.8 elap:               1.2
 (Enter /apps/easybuild-2022/easybuild/software/Compiler/NVHPC/22.11-CUDA-11.7.0/Gaussian/g16c01-CUDA-11.7.0/g16/l502.exe)
 Keep R1 ints in memory in canonical form, NReq=2293446996.
 FoFCou: FMM=F IPFlag=           0 FMFlag=           0 FMFlg1=           0
         NFxFlg=           0 DoJE=F BraDBF=F KetDBF=F FulRan=T
         wScrn=  0.000000 ICntrl=       600 IOpCl=  0 I1Cent=           0 NGrid=           0
         NMat0=    1 NMatS0=  67161 NMatT0=    0 NMatD0=    1 NMtDS0=    0 NMtDT0=    0
 Symmetry not used in FoFCou.
 Two-electron integral symmetry not used.
 Closed shell SCF:
 Using DIIS extrapolation, IDIIS=  1040.
 NGot=  3758096384 LenX=  1502398672 LenY=  1502219302
 Requested convergence on RMS density matrix=1.00D-08 within  32 cycles.
 Requested convergence on MAX density matrix=1.00D-06.
 Requested convergence on             energy=1.00D-06.
 No special actions if energy rises.
 Integral accuracy reduced to 1.0D-05 until final iterations.

 Cycle   1  Pass 0  IDiag  1:
 E= -1199.63459923198    
 DIIS: error= 8.70D-03 at cycle   1 NSaved=   1.
 NSaved= 1 IEnMin= 1 EnMin= -1199.63459923198     IErMin= 1 ErrMin= 8.70D-03
 ErrMax= 8.70D-03  0.00D+00 EMaxC= 1.00D-01 BMatC= 6.02D-02 BMatP= 6.02D-02
 IDIUse=3 WtCom= 9.13D-01 WtEn= 8.70D-02
 Coeff-Com:  0.100D+01
 Coeff-En:   0.100D+01
 Coeff:      0.100D+01
 Gap=     0.983 Goal=   None    Shift=    0.000
 GapD=    0.983 DampG=2.000 DampE=1.000 DampFc=2.0000 IDamp=-1.
 RMSDP=7.21D-04 MaxDP=4.77D-02              OVMax= 5.06D-02

 Cycle   2  Pass 0  IDiag  1:
 E= -1199.70660580056     Delta-E=       -0.072006568579 Rises=F Damp=F
 DIIS: error= 2.05D-03 at cycle   2 NSaved=   2.
 NSaved= 2 IEnMin= 2 EnMin= -1199.70660580056     IErMin= 2 ErrMin= 2.05D-03
 ErrMax= 2.05D-03  0.00D+00 EMaxC= 1.00D-01 BMatC= 3.26D-03 BMatP= 6.02D-02
 IDIUse=3 WtCom= 9.80D-01 WtEn= 2.05D-02
 Coeff-Com: -0.618D-01 0.106D+01
 Coeff-En:   0.000D+00 0.100D+01
 Coeff:     -0.606D-01 0.106D+01
 Gap=     0.303 Goal=   None    Shift=    0.000
 RMSDP=1.89D-04 MaxDP=9.34D-03 DE=-7.20D-02 OVMax= 1.75D-02

 Cycle   3  Pass 0  IDiag  1:
 E= -1199.70969191171     Delta-E=       -0.003086111156 Rises=F Damp=F
 DIIS: error= 1.51D-03 at cycle   3 NSaved=   3.
 NSaved= 3 IEnMin= 3 EnMin= -1199.70969191171     IErMin= 3 ErrMin= 1.51D-03
 ErrMax= 1.51D-03  0.00D+00 EMaxC= 1.00D-01 BMatC= 2.67D-03 BMatP= 3.26D-03
 IDIUse=3 WtCom= 9.85D-01 WtEn= 1.51D-02
 Coeff-Com: -0.786D-01 0.533D+00 0.546D+00
 Coeff-En:   0.000D+00 0.000D+00 0.100D+01
 Coeff:     -0.774D-01 0.525D+00 0.553D+00
 Gap=     0.306 Goal=   None    Shift=    0.000
 RMSDP=8.76D-05 MaxDP=6.00D-03 DE=-3.09D-03 OVMax= 9.10D-03

 Cycle   4  Pass 0  IDiag  1:
 E= -1199.71144515004     Delta-E=       -0.001753238324 Rises=F Damp=F
 DIIS: error= 3.24D-04 at cycle   4 NSaved=   4.
 NSaved= 4 IEnMin= 4 EnMin= -1199.71144515004     IErMin= 4 ErrMin= 3.24D-04
 ErrMax= 3.24D-04  0.00D+00 EMaxC= 1.00D-01 BMatC= 1.45D-04 BMatP= 2.67D-03
 IDIUse=3 WtCom= 9.97D-01 WtEn= 3.24D-03
 Coeff-Com: -0.111D-01-0.704D-03 0.171D+00 0.841D+00
 Coeff-En:   0.000D+00 0.000D+00 0.000D+00 0.100D+01
 Coeff:     -0.111D-01-0.702D-03 0.170D+00 0.842D+00
 Gap=     0.306 Goal=   None    Shift=    0.000
 RMSDP=3.11D-05 MaxDP=1.27D-03 DE=-1.75D-03 OVMax= 4.20D-03

 Cycle   5  Pass 0  IDiag  1:
 E= -1199.71158312865     Delta-E=       -0.000137978612 Rises=F Damp=F
 DIIS: error= 1.70D-04 at cycle   5 NSaved=   5.
 NSaved= 5 IEnMin= 5 EnMin= -1199.71158312865     IErMin= 5 ErrMin= 1.70D-04
 ErrMax= 1.70D-04  0.00D+00 EMaxC= 1.00D-01 BMatC= 2.72D-05 BMatP= 1.45D-04
 IDIUse=3 WtCom= 9.98D-01 WtEn= 1.70D-03
 Coeff-Com:  0.340D-02-0.609D-01 0.187D-01 0.395D+00 0.644D+00
 Coeff-En:   0.000D+00 0.000D+00 0.000D+00 0.000D+00 0.100D+01
 Coeff:      0.339D-02-0.608D-01 0.187D-01 0.394D+00 0.645D+00
 Gap=     0.305 Goal=   None    Shift=    0.000
 RMSDP=1.21D-05 MaxDP=5.84D-04 DE=-1.38D-04 OVMax= 1.84D-03

 Cycle   6  Pass 0  IDiag  1:
 E= -1199.71160579436     Delta-E=       -0.000022665713 Rises=F Damp=F
 DIIS: error= 5.78D-05 at cycle   6 NSaved=   6.
 NSaved= 6 IEnMin= 6 EnMin= -1199.71160579436     IErMin= 6 ErrMin= 5.78D-05
 ErrMax= 5.78D-05  0.00D+00 EMaxC= 1.00D-01 BMatC= 3.76D-06 BMatP= 2.72D-05
 IDIUse=1 WtCom= 1.00D+00 WtEn= 0.00D+00
 Coeff-Com:  0.317D-02-0.286D-01-0.184D-01 0.575D-01 0.297D+00 0.690D+00
 Coeff:      0.317D-02-0.286D-01-0.184D-01 0.575D-01 0.297D+00 0.690D+00
 Gap=     0.306 Goal=   None    Shift=    0.000
 RMSDP=5.06D-06 MaxDP=2.41D-04 DE=-2.27D-05 OVMax= 8.87D-04

 Initial convergence to 1.0D-05 achieved.  Increase integral accuracy.
 Cycle   7  Pass 1  IDiag  1:
 E= -1199.71168068253     Delta-E=       -0.000074888163 Rises=F Damp=F
 DIIS: error= 2.22D-05 at cycle   1 NSaved=   1.
 NSaved= 1 IEnMin= 1 EnMin= -1199.71168068253     IErMin= 1 ErrMin= 2.22D-05
 ErrMax= 2.22D-05  0.00D+00 EMaxC= 1.00D-01 BMatC= 1.09D-06 BMatP= 1.09D-06
 IDIUse=1 WtCom= 1.00D+00 WtEn= 0.00D+00
 Coeff-Com:  0.100D+01
 Coeff:      0.100D+01
 Gap=     0.306 Goal=   None    Shift=    0.000
 RMSDP=5.06D-06 MaxDP=2.41D-04 DE=-7.49D-05 OVMax= 5.17D-04

 Cycle   8  Pass 1  IDiag  1:
 E= -1199.71168154271     Delta-E=       -0.000000860188 Rises=F Damp=F
 DIIS: error= 2.28D-05 at cycle   2 NSaved=   2.
 NSaved= 2 IEnMin= 2 EnMin= -1199.71168154271     IErMin= 1 ErrMin= 2.22D-05
 ErrMax= 2.28D-05  0.00D+00 EMaxC= 1.00D-01 BMatC= 5.23D-07 BMatP= 1.09D-06
 IDIUse=1 WtCom= 1.00D+00 WtEn= 0.00D+00
 Coeff-Com:  0.368D+00 0.632D+00
 Coeff:      0.368D+00 0.632D+00
 Gap=     0.306 Goal=   None    Shift=    0.000
 RMSDP=1.94D-06 MaxDP=1.09D-04 DE=-8.60D-07 OVMax= 1.79D-04

 Cycle   9  Pass 1  IDiag  1:
 E= -1199.71168183448     Delta-E=       -0.000000291768 Rises=F Damp=F
 DIIS: error= 1.37D-05 at cycle   3 NSaved=   3.
 NSaved= 3 IEnMin= 3 EnMin= -1199.71168183448     IErMin= 3 ErrMin= 1.37D-05
 ErrMax= 1.37D-05  0.00D+00 EMaxC= 1.00D-01 BMatC= 1.83D-07 BMatP= 5.23D-07
 IDIUse=1 WtCom= 1.00D+00 WtEn= 0.00D+00
 Coeff-Com: -0.320D-01 0.361D+00 0.671D+00
 Coeff:     -0.320D-01 0.361D+00 0.671D+00
 Gap=     0.306 Goal=   None    Shift=    0.000
 RMSDP=1.11D-06 MaxDP=4.09D-05 DE=-2.92D-07 OVMax= 1.32D-04

 Cycle  10  Pass 1  IDiag  1:
 E= -1199.71168197794     Delta-E=       -0.000000143460 Rises=F Damp=F
 DIIS: error= 3.05D-06 at cycle   4 NSaved=   4.
 NSaved= 4 IEnMin= 4 EnMin= -1199.71168197794     IErMin= 4 ErrMin= 3.05D-06
 ErrMax= 3.05D-06  0.00D+00 EMaxC= 1.00D-01 BMatC= 1.15D-08 BMatP= 1.83D-07
 IDIUse=1 WtCom= 1.00D+00 WtEn= 0.00D+00
 Coeff-Com: -0.382D-01 0.112D+00 0.284D+00 0.642D+00
 Coeff:     -0.382D-01 0.112D+00 0.284D+00 0.642D+00
 Gap=     0.306 Goal=   None    Shift=    0.000
 RMSDP=2.99D-07 MaxDP=1.29D-05 DE=-1.43D-07 OVMax= 5.48D-05

 Cycle  11  Pass 1  IDiag  1:
 E= -1199.71168198976     Delta-E=       -0.000000011823 Rises=F Damp=F
 DIIS: error= 1.98D-06 at cycle   5 NSaved=   5.
 NSaved= 5 IEnMin= 5 EnMin= -1199.71168198976     IErMin= 5 ErrMin= 1.98D-06
 ErrMax= 1.98D-06  0.00D+00 EMaxC= 1.00D-01 BMatC= 2.27D-09 BMatP= 1.15D-08
 IDIUse=1 WtCom= 1.00D+00 WtEn= 0.00D+00
 Coeff-Com: -0.747D-02-0.368D-01-0.349D-01 0.260D+00 0.819D+00
 Coeff:     -0.747D-02-0.368D-01-0.349D-01 0.260D+00 0.819D+00
 Gap=     0.306 Goal=   None    Shift=    0.000
 RMSDP=2.07D-07 MaxDP=7.80D-06 DE=-1.18D-08 OVMax= 4.67D-05

 Cycle  12  Pass 1  IDiag  1:
 E= -1199.71168199362     Delta-E=       -0.000000003856 Rises=F Damp=F
 DIIS: error= 9.74D-07 at cycle   6 NSaved=   6.
 NSaved= 6 IEnMin= 6 EnMin= -1199.71168199362     IErMin= 6 ErrMin= 9.74D-07
 ErrMax= 9.74D-07  0.00D+00 EMaxC= 1.00D-01 BMatC= 5.38D-10 BMatP= 2.27D-09
 IDIUse=1 WtCom= 1.00D+00 WtEn= 0.00D+00
 Coeff-Com:  0.536D-02-0.468D-01-0.841D-01-0.307D-01 0.390D+00 0.766D+00
 Coeff:      0.536D-02-0.468D-01-0.841D-01-0.307D-01 0.390D+00 0.766D+00
 Gap=     0.306 Goal=   None    Shift=    0.000
 RMSDP=9.97D-08 MaxDP=3.09D-06 DE=-3.86D-09 OVMax= 2.43D-05

 Cycle  13  Pass 1  IDiag  1:
 E= -1199.71168199448     Delta-E=       -0.000000000864 Rises=F Damp=F
 DIIS: error= 2.94D-07 at cycle   7 NSaved=   7.
 NSaved= 7 IEnMin= 7 EnMin= -1199.71168199448     IErMin= 7 ErrMin= 2.94D-07
 ErrMax= 2.94D-07  0.00D+00 EMaxC= 1.00D-01 BMatC= 5.55D-11 BMatP= 5.38D-10
 IDIUse=1 WtCom= 1.00D+00 WtEn= 0.00D+00
 Coeff-Com:  0.296D-02-0.174D-01-0.335D-01-0.347D-01 0.965D-01 0.327D+00
 Coeff-Com:  0.659D+00
 Coeff:      0.296D-02-0.174D-01-0.335D-01-0.347D-01 0.965D-01 0.327D+00
 Coeff:      0.659D+00
 Gap=     0.306 Goal=   None    Shift=    0.000
 RMSDP=2.48D-08 MaxDP=9.11D-07 DE=-8.64D-10 OVMax= 4.94D-06

 Cycle  14  Pass 1  IDiag  1:
 E= -1199.71168199462     Delta-E=       -0.000000000133 Rises=F Damp=F
 DIIS: error= 1.11D-07 at cycle   8 NSaved=   8.
 NSaved= 8 IEnMin= 8 EnMin= -1199.71168199462     IErMin= 8 ErrMin= 1.11D-07
 ErrMax= 1.11D-07  0.00D+00 EMaxC= 1.00D-01 BMatC= 1.22D-11 BMatP= 5.55D-11
 IDIUse=1 WtCom= 1.00D+00 WtEn= 0.00D+00
 Coeff-Com: -0.197D-03 0.502D-02 0.835D-02-0.576D-02-0.641D-01-0.661D-01
 Coeff-Com:  0.312D+00 0.811D+00
 Coeff:     -0.197D-03 0.502D-02 0.835D-02-0.576D-02-0.641D-01-0.661D-01
 Coeff:      0.312D+00 0.811D+00
 Gap=     0.306 Goal=   None    Shift=    0.000
 RMSDP=1.31D-08 MaxDP=3.34D-07 DE=-1.33D-10 OVMax= 2.51D-06

 Cycle  15  Pass 1  IDiag  1:
 E= -1199.71168199459     Delta-E=        0.000000000030 Rises=F Damp=F
 DIIS: error= 2.60D-08 at cycle   9 NSaved=   9.
 NSaved= 9 IEnMin= 8 EnMin= -1199.71168199462     IErMin= 9 ErrMin= 2.60D-08
 ErrMax= 2.60D-08  0.00D+00 EMaxC= 1.00D-01 BMatC= 9.18D-13 BMatP= 1.22D-11
 IDIUse=1 WtCom= 1.00D+00 WtEn= 0.00D+00
 Coeff-Com: -0.340D-03 0.342D-02 0.628D-02 0.117D-02-0.321D-01-0.557D-01
 Coeff-Com:  0.530D-01 0.294D+00 0.731D+00
 Coeff:     -0.340D-03 0.342D-02 0.628D-02 0.117D-02-0.321D-01-0.557D-01
 Coeff:      0.530D-01 0.294D+00 0.731D+00
 Gap=     0.306 Goal=   None    Shift=    0.000
 RMSDP=2.87D-09 MaxDP=1.27D-07 DE= 3.05D-11 OVMax= 3.75D-07

 SCF Done:  E(RM062X) =  -1199.71168199     A.U. after   15 cycles
            NFock= 15  Conv=0.29D-08     -V/T= 2.0028
 KE= 1.196343059367D+03 PE=-4.648641721957D+03 EE= 1.351473935373D+03
 Leave Link  502 at Sat May 24 08:15:03 2025, MaxMem=  3758096384 cpu:             172.1 elap:              49.0
 (Enter /apps/easybuild-2022/easybuild/software/Compiler/NVHPC/22.11-CUDA-11.7.0/Gaussian/g16c01-CUDA-11.7.0/g16/l508.exe)
 QCSCF skips out because SCF is already converged.
 Leave Link  508 at Sat May 24 08:15:03 2025, MaxMem=  3758096384 cpu:               0.1 elap:               0.0
 (Enter /apps/easybuild-2022/easybuild/software/Compiler/NVHPC/22.11-CUDA-11.7.0/Gaussian/g16c01-CUDA-11.7.0/g16/l701.exe)
 ... and contract with generalized density number  0.
 Compute integral first derivatives.
   1 Symmetry operations used in ECPInt.
 ECPInt:  NShTT=    8515 NPrTT=   27988 LenC2=    7897 LenP2D=   19023.
 LDataN:  DoStor=T MaxTD1= 7 Len=  274
 Leave Link  701 at Sat May 24 08:15:04 2025, MaxMem=  3758096384 cpu:               0.7 elap:               0.3
 (Enter /apps/easybuild-2022/easybuild/software/Compiler/NVHPC/22.11-CUDA-11.7.0/Gaussian/g16c01-CUDA-11.7.0/g16/l702.exe)
 L702 exits ... SP integral derivatives will be done elsewhere.
 Leave Link  702 at Sat May 24 08:15:04 2025, MaxMem=  3758096384 cpu:               0.1 elap:               0.0
 (Enter /apps/easybuild-2022/easybuild/software/Compiler/NVHPC/22.11-CUDA-11.7.0/Gaussian/g16c01-CUDA-11.7.0/g16/l703.exe)
 Integral derivatives from FoFJK, PRISM(SPDF).
 Compute integral first derivatives, UseDBF=F ICtDFT=           0.
 Calling FoFJK, ICntrl=      2127 FMM=F ISym2X=0 I1Cent= 0 IOpClX= 0 NMat=1 NMatS=1 NMatT=0.
 FoFJK:  IHMeth= 1 ICntrl=    2127 DoSepK=F KAlg= 0 I1Cent=           0 FoldK=F
 IRaf=         0 NMat=       1 IRICut=       1 DoRegI=T DoRafI=F ISym2E= 0 IDoP0=0 IntGTp=1.
 FoFCou: FMM=F IPFlag=           0 FMFlag=      100000 FMFlg1=         800
         NFxFlg=           0 DoJE=F BraDBF=F KetDBF=F FulRan=T
         wScrn=  0.000000 ICntrl=      2127 IOpCl=  0 I1Cent=           0 NGrid=           0
         NMat0=    1 NMatS0=      1 NMatT0=    0 NMatD0=    1 NMtDS0=    0 NMtDT0=    0
 Symmetry not used in FoFCou.
 Leave Link  703 at Sat May 24 08:15:15 2025, MaxMem=  3758096384 cpu:              86.3 elap:              11.1
 (Enter /apps/easybuild-2022/easybuild/software/Compiler/NVHPC/22.11-CUDA-11.7.0/Gaussian/g16c01-CUDA-11.7.0/g16/l716.exe)
 Dipole        =-3.63284531D-01 1.16924423D+00 7.57863271D-01
 -------------------------------------------------------------------
 Center     Atomic                   Forces (Hartrees/Bohr)
 Number     Number              X              Y              Z
 -------------------------------------------------------------------
      1        6          -0.000660289    0.000421001   -0.000624369
      2        6          -0.000130733   -0.000615002   -0.000604292
      3        9          -0.001191338    0.000055784   -0.000708258
      4        9           0.000381471    0.000831340    0.000378378
      5       16          -0.001427229   -0.000877304    0.001646112
      6        8          -0.004314743    0.000914960   -0.002008650
      7        8           0.004334422   -0.000468594    0.001094861
      8        8           0.004926821   -0.000249937    0.002343716
      9        9          -0.000403080   -0.000226944   -0.000297584
     10        9           0.000109102    0.000305269    0.000101972
     11        9           0.000282019   -0.000414135    0.000146664
     12        1          -0.001906422    0.000323563   -0.001468550
 -------------------------------------------------------------------
 Cartesian Forces:  Max     0.004926821 RMS     0.001583715
 Leave Link  716 at Sat May 24 08:15:15 2025, MaxMem=  3758096384 cpu:               0.1 elap:               0.0
 (Enter /apps/easybuild-2022/easybuild/software/Compiler/NVHPC/22.11-CUDA-11.7.0/Gaussian/g16c01-CUDA-11.7.0/g16/l103.exe)

 GradGradGradGradGradGradGradGradGradGradGradGradGradGradGradGradGradGrad
 Berny optimization.
 Using GEDIIS/GDIIS optimizer.
 FormGI is forming the generalized inverse of G from B-inverse, IUseBI=4.
 Internal  Forces:  Max     0.005707013 RMS     0.001575893
 Search for a local minimum.
 Step number   2 out of a maximum of   56
 All quantities printed in internal units (Hartrees-Bohrs-Radians)
 RMS Force = .15759D-02 SwitMx=.10000D-02 MixMth= 1
 Mixed Optimization -- RFO/linear search
 Update second derivatives using D2CorX and points    1    2
 DE= -8.31D-03 DEPred=-8.64D-03 R= 9.61D-01
 TightC=F SS=  1.41D+00  RLast= 9.90D-01 DXNew= 5.0454D-01 2.9704D+00
 Trust test= 9.61D-01 RLast= 9.90D-01 DXMaxT set to 5.05D-01
 ITU=  1  0
 Use linear search instead of GDIIS.
     Eigenvalues ---   -0.00385   0.00133   0.00424   0.00503   0.01002
     Eigenvalues ---    0.07975   0.08869   0.10213   0.12717   0.13439
     Eigenvalues ---    0.13623   0.16146   0.18114   0.18878   0.20446
     Eigenvalues ---    0.23541   0.24008   0.26699   0.28440   0.29983
     Eigenvalues ---    0.39415   0.39598   0.40419   0.41011   0.43576
     Eigenvalues ---    0.45465   0.48239   0.52139   0.56951   0.76159
 Eigenvalue     1 is  -3.85D-03 should be greater than     0.000000 Eigenvector:
                          D17       D16       D18       D11       D12
   1                    0.55755   0.54336   0.52933   0.15224   0.13290
                          D10       D14       D15       D13       D8
   1                    0.11488  -0.11140  -0.09381  -0.09326   0.07889
 RFO step:  Lambda=-5.43937718D-03 EMin=-3.84878551D-03
 Quartic linear search produced a step of  0.37513.
 Iteration  1 RMS(Cart)=  0.15218572 RMS(Int)=  0.13148996
 Iteration  2 RMS(Cart)=  0.04209271 RMS(Int)=  0.07933005
 Iteration  3 RMS(Cart)=  0.04409282 RMS(Int)=  0.02847132
 Iteration  4 RMS(Cart)=  0.02498037 RMS(Int)=  0.00145968
 Iteration  5 RMS(Cart)=  0.00132099 RMS(Int)=  0.00035457
 Iteration  6 RMS(Cart)=  0.00000290 RMS(Int)=  0.00035456
 Iteration  7 RMS(Cart)=  0.00000000 RMS(Int)=  0.00035456
 ITry= 1 IFail=0 DXMaxC= 6.09D-01 DCOld= 1.00D+10 DXMaxT= 5.05D-01 DXLimC= 3.00D+00 Rises=F
 Variable       Old X    -DE/DX   Delta X   Delta X   Delta X     New X
                                 (Linear)    (Quad)   (Total)
    R1        2.81789   0.00068  -0.00270  -0.00295  -0.00565   2.81224
    R2        2.51803  -0.00015  -0.00530   0.01525   0.00995   2.52798
    R3        2.51670   0.00002  -0.00030   0.00085   0.00055   2.51726
    R4        2.53108  -0.00010   0.00350  -0.00994  -0.00644   2.52464
    R5        2.54479  -0.00071  -0.00112  -0.00434  -0.00547   2.53933
    R6        3.03763   0.00042  -0.00660  -0.00363  -0.01022   3.02740
    R7        2.62545   0.00041  -0.00516   0.00538   0.00021   2.62566
    R8        3.17722   0.00571   0.01686  -0.02901  -0.01214   3.16507
    R9        2.67479   0.00174   0.00130  -0.00878  -0.00748   2.66731
   R10        2.93788   0.00050   0.00123   0.00335   0.00458   2.94245
   R11        1.83542   0.00010   0.00150  -0.00143   0.00007   1.83549
    A1        1.94779   0.00061  -0.00135  -0.00957  -0.01097   1.93682
    A2        1.91879   0.00007   0.00434   0.01330   0.01766   1.93644
    A3        1.96259  -0.00070  -0.00596   0.00042  -0.00558   1.95701
    A4        1.89553  -0.00012   0.00464  -0.00813  -0.00346   1.89207
    A5        1.87461   0.00000  -0.00021   0.00315   0.00285   1.87746
    A6        1.86118   0.00013  -0.00112   0.00069  -0.00043   1.86075
    A7        1.99042  -0.00017   0.00830  -0.00093   0.00656   1.99698
    A8        2.19411  -0.00004  -0.00337   0.00483   0.00071   2.19482
    A9        2.01205   0.00022   0.00195   0.01563   0.01683   2.02889
   A10        2.10587  -0.00271  -0.00849   0.00475  -0.00452   2.10134
   A11        2.03042  -0.00105   0.00006   0.00545   0.00522   2.03564
   A12        1.85001  -0.00066  -0.00355  -0.00351  -0.00773   1.84228
   A13        1.82181   0.00412   0.03761  -0.05029  -0.01279   1.80902
   A14        1.55288   0.00154  -0.03616   0.06122   0.02458   1.57746
   A15        2.06070  -0.00094   0.00349  -0.00494  -0.00084   2.05986
   A16        1.82455   0.00302  -0.00861   0.03534   0.02673   1.85127
   A17        1.93521  -0.00004  -0.00037   0.03396   0.03359   1.96880
    D1       -3.10999  -0.00055  -0.01802  -0.06102  -0.07900   3.09420
    D2        0.49018  -0.00063  -0.03522  -0.11362  -0.14878   0.34140
    D3       -1.00557  -0.00026  -0.01018  -0.06856  -0.07875  -1.08433
    D4        2.59459  -0.00034  -0.02738  -0.12117  -0.14854   2.44605
    D5        1.06522  -0.00049  -0.01246  -0.05853  -0.07104   0.99418
    D6       -1.61780  -0.00058  -0.02966  -0.11113  -0.14082  -1.75863
    D7        0.88609  -0.00161  -0.09265  -0.07315  -0.16558   0.72052
    D8        3.12000   0.00081  -0.04297  -0.14194  -0.18486   2.93514
    D9       -0.83352  -0.00204  -0.04138  -0.14755  -0.18892  -1.02244
   D10       -1.79199  -0.00160  -0.11158  -0.12252  -0.23405  -2.02605
   D11        0.44192   0.00082  -0.06190  -0.19130  -0.25334   0.18858
   D12        2.77158  -0.00203  -0.06031  -0.19691  -0.25740   2.51418
[...]
    D9       -0.88036   0.00000   0.00000   0.00000   0.00000  -0.88035
   D10       -1.95083  -0.00000   0.00000  -0.00001  -0.00001  -1.95084
   D11        0.30742   0.00000   0.00000  -0.00000  -0.00000   0.30742
   D12        2.61921   0.00000   0.00000  -0.00000  -0.00000   2.61921
   D13        1.28158  -0.00000   0.00000  -0.00002  -0.00002   1.28156
   D14       -1.05104  -0.00000   0.00000  -0.00003  -0.00003  -1.05107
   D15       -3.11276  -0.00000   0.00000  -0.00002  -0.00002  -3.11278
   D16        2.63980  -0.00000   0.00000  -0.00002  -0.00002   2.63978
   D17        0.54654   0.00000   0.00000  -0.00002  -0.00002   0.54653
   D18       -1.34119  -0.00000   0.00000  -0.00002  -0.00002  -1.34121
         Item               Value     Threshold  Converged?
 Maximum Force            0.000001     0.000015     YES
 RMS     Force            0.000000     0.000010     YES
 Maximum Displacement     0.000058     0.000060     YES
 RMS     Displacement     0.000012     0.000040     YES
 Predicted change in Energy=-2.541065D-11
 Optimization completed.
    -- Stationary point found.
                           ----------------------------
                           !   Optimized Parameters   !
                           ! (Angstroms and Degrees)  !
 --------------------------                            --------------------------
 ! Name  Definition              Value          Derivative Info.                !
 --------------------------------------------------------------------------------
 ! R1    R(1,2)                  1.4904         -DE/DX =    0.0                 !
 ! R2    R(1,9)                  1.3352         -DE/DX =    0.0                 !
 ! R3    R(1,10)                 1.3338         -DE/DX =    0.0                 !
 ! R4    R(1,11)                 1.3356         -DE/DX =    0.0                 !
 ! R5    R(2,4)                  1.3427         -DE/DX =    0.0                 !
 ! R6    R(2,5)                  1.6027         -DE/DX =    0.0                 !
 ! R7    R(3,6)                  1.3868         -DE/DX =    0.0                 !
 ! R8    R(5,6)                  1.6932         -DE/DX =    0.0                 !
 ! R9    R(5,7)                  1.4155         -DE/DX =    0.0                 !
 ! R10   R(5,8)                  1.5562         -DE/DX =    0.0                 !
 ! R11   R(8,12)                 0.9718         -DE/DX =    0.0                 !
 ! A1    A(2,1,9)              111.2416         -DE/DX =    0.0                 !
 ! A2    A(2,1,10)             111.5244         -DE/DX =    0.0                 !
 ! A3    A(2,1,11)             111.2748         -DE/DX =    0.0                 !
 ! A4    A(9,1,10)             108.0359         -DE/DX =    0.0                 !
 ! A5    A(9,1,11)             107.9394         -DE/DX =    0.0                 !
 ! A6    A(10,1,11)            106.6181         -DE/DX =    0.0                 !
 ! A7    A(1,2,4)              114.9951         -DE/DX =    0.0                 !
 ! A8    A(1,2,5)              125.4612         -DE/DX =    0.0                 !
 ! A9    A(4,2,5)              116.5879         -DE/DX =    0.0                 !
 ! A10   A(2,5,6)              118.9172         -DE/DX =    0.0                 !
 ! A11   A(2,5,7)              116.1846         -DE/DX =    0.0                 !
 ! A12   A(2,5,8)              106.3803         -DE/DX =    0.0                 !
 ! A13   A(6,5,7)              106.5634         -DE/DX =    0.0                 !
 ! A14   A(6,5,8)               89.013          -DE/DX =    0.0                 !
 ! A15   A(7,5,8)              117.1758         -DE/DX =    0.0                 !
 ! A16   A(3,6,5)              105.0432         -DE/DX =    0.0                 !
 ! A17   A(5,8,12)             112.3271         -DE/DX =    0.0                 !
 ! D1    D(9,1,2,4)            168.851          -DE/DX =    0.0                 !
 ! D2    D(9,1,2,5)              9.0757         -DE/DX =    0.0                 !
 ! D3    D(10,1,2,4)           -70.4591         -DE/DX =    0.0                 !
 ! D4    D(10,1,2,5)           129.7656         -DE/DX =    0.0                 !
 ! D5    D(11,1,2,4)            48.4542         -DE/DX =    0.0                 !
 ! D6    D(11,1,2,5)          -111.3211         -DE/DX =    0.0                 !
 ! D7    D(1,2,5,6)             47.7152         -DE/DX =    0.0                 !
 ! D8    D(1,2,5,7)            177.1032         -DE/DX =    0.0                 !
 ! D9    D(1,2,5,8)            -50.4408         -DE/DX =    0.0                 !
 ! D10   D(4,2,5,6)           -111.7743         -DE/DX =    0.0                 !
 ! D11   D(4,2,5,7)             17.6137         -DE/DX =    0.0                 !
 ! D12   D(4,2,5,8)            150.0697         -DE/DX =    0.0                 !
 ! D13   D(2,5,6,3)             73.4293         -DE/DX =    0.0                 !
 ! D14   D(7,5,6,3)            -60.2201         -DE/DX =    0.0                 !
 ! D15   D(8,5,6,3)           -178.348          -DE/DX =    0.0                 !
 ! D16   D(2,5,8,12)           151.2494         -DE/DX =    0.0                 !
 ! D17   D(6,5,8,12)            31.3147         -DE/DX =    0.0                 !
 ! D18   D(7,5,8,12)           -76.8443         -DE/DX =    0.0                 !
 --------------------------------------------------------------------------------
 GradGradGradGradGradGradGradGradGradGradGradGradGradGradGradGradGradGrad

 Leave Link  103 at Sat May 24 08:29:36 2025, MaxMem=  3758096384 cpu:               0.1 elap:               0.0
 (Enter /apps/easybuild-2022/easybuild/software/Compiler/NVHPC/22.11-CUDA-11.7.0/Gaussian/g16c01-CUDA-11.7.0/g16/l9999.exe)

 ----------------------------------------------------------------------

 Electric dipole moment (input orientation):
 (Debye = 10**-18 statcoulomb cm , SI units = C m)
                  (au)            (Debye)         (10**-30 SI)
   Tot        0.138563D+01      0.352192D+01      0.117479D+02
   x         -0.400076D+00     -0.101689D+01     -0.339199D+01
   y          0.117250D+01      0.298021D+01      0.994090D+01
   z          0.620600D+00      0.157741D+01      0.526167D+01

 Dipole polarizability, Alpha (input orientation).
 (esu units = cm**3 , SI units = C**2 m**2 J**-1)
 Alpha(0;0):
               (au)            (10**-24 esu)      (10**-40 SI)
   iso        0.596909D+02      0.884527D+01      0.984169D+01
   aniso      0.167051D+02      0.247544D+01      0.275430D+01
   xx         0.587690D+02      0.870866D+01      0.968969D+01
   yx        -0.964301D-01     -0.142895D-01     -0.158992D-01
   yy         0.563548D+02      0.835092D+01      0.929165D+01
   zx        -0.863219D+01     -0.127916D+01     -0.142326D+01
   zy         0.185515D+01      0.274904D+00      0.305872D+00
   zz         0.639488D+02      0.947623D+01      0.105437D+02

 ----------------------------------------------------------------------

 Dipole orientation:
     6          2.96757341          4.96259759         -3.46830677
     6          3.61875739          2.22296253         -3.41710488
     9         -1.28528642         -0.84333029         -1.24492213
     9          3.87643309          1.13942819         -5.69691938
    16          3.18546083          0.35746271         -1.07078521
     8          0.34861172          0.36595083          0.40928791
     8          3.83083324         -2.20789947         -1.46763898
     8          4.35619970          1.68954359          1.27503182
     9          2.30399772          5.78742096         -1.17803426
     9          4.90692461          6.35930091         -4.26914943
     9          1.04997531          5.41878427         -5.04461085
     1          3.52025369          1.21096527          2.83857434

 Electric dipole moment (dipole orientation):
 (Debye = 10**-18 statcoulomb cm , SI units = C m)
                  (au)            (Debye)         (10**-30 SI)
   Tot        0.138563D+01      0.352192D+01      0.117479D+02
   x          0.000000D+00      0.000000D+00      0.000000D+00
   y          0.000000D+00      0.000000D+00      0.000000D+00
   z          0.138563D+01      0.352192D+01      0.117479D+02

 Dipole polarizability, Alpha (dipole orientation).
 (esu units = cm**3 , SI units = C**2 m**2 J**-1)
 Alpha(0;0):
               (au)            (10**-24 esu)      (10**-40 SI)
   iso        0.596909D+02      0.884527D+01      0.984169D+01
   aniso      0.167051D+02      0.247544D+01      0.275430D+01
   xx         0.545844D+02      0.808857D+01      0.899975D+01
   yx         0.494901D+01      0.733368D+00      0.815981D+00
   yy         0.627229D+02      0.929457D+01      0.103416D+02
   zx        -0.207757D+01     -0.307864D+00     -0.342545D+00
   zy        -0.666519D+01     -0.987679D+00     -0.109894D+01
   zz         0.617653D+02      0.915267D+01      0.101837D+02

 ----------------------------------------------------------------------
 Unable to Open any file for archive entry.
 1\1\GINC-SPARTAN-BM178\Freq\RM062X\def2TZVPP\C2H1F5O3S1\AKHALILOV\24-M
 ay-2025\0\\#P Geom=AllCheck Guess=TCheck SCRF=Check GenChk RM062X/def2
 TZVPP Freq\\Gaussian input prepared by ASE\\0,1\C,2.4530163054,0.03932
 90845,-2.5907732585\C,2.5253064035,-0.6123891606,-1.252379744\F,-0.526
 0760695,-0.897798791,-0.1138086914\F,2.9053908404,-1.900065288,-1.2681
 580954\S,1.7841411291,-0.0994185541,0.0728565477\O,0.1439979527,0.3122
 858602,-0.0135970208\O,1.9375534819,-0.9056734209,1.2261321632\O,2.128
 528244,1.411844479,0.2112314944\F,1.8458065922,1.2262434064,-2.5186874
 847\F,3.6672673694,0.2274887075,-3.1096864763\F,1.7782745286,-0.715726
 8938,-3.4616361653\H,1.4300054974,1.9093172525,0.6683805721\\Version=E
 S64L-G16RevC.01\HF=-1199.713707\RMSD=2.572e-09\RMSF=2.831e-06\ZeroPoin
 t=0.0503076\Thermal=0.0613185\ETot=-1199.6523885\HTot=-1199.6514443\GT
 ot=-1199.7016183\Dipole=-0.4000764,1.1725038,0.6206001\DipoleDeriv=1.6
 487902,0.09191,-0.0590207,0.2164009,1.4379178,-0.2230603,-0.3712188,0.
 1412487,2.2486265,-0.2077339,-0.2839356,-0.0752501,-0.4833227,0.497866
 3,0.4290806,0.1842027,0.0320518,-0.6386547,-0.2196409,-0.1220501,-0.04
 5457,-0.2859195,-0.2475419,-0.0080828,-0.0341154,-0.0148387,-0.018669,
 -0.1990338,0.1952476,0.1013611,0.4541793,-0.766492,-0.2710732,0.050706
 ,-0.0238433,-0.2233888,2.2576656,0.0233557,-0.4167387,-0.4607835,2.029
 6669,0.2870733,-0.320729,-0.0616943,2.2574651,-0.9857109,0.2004901,0.2
 963753,0.6749902,-0.0981897,-0.2001159,0.1470375,-0.0248911,-0.3965633
 ,-0.5027631,0.0325057,0.0359531,0.0985176,-0.5832321,0.2713699,0.06438
 78,0.1829641,-1.1224551,-0.4867105,-0.0454153,0.0400636,-0.1199249,-1.
 2546034,-0.2863326,-0.0668819,-0.1671096,-0.4946959,-0.3688633,0.21807
 12,0.0156082,0.1884059,-0.7284958,0.0607005,0.0332028,0.0527401,-0.420
 0133,-0.8235211,-0.0724893,0.323602,-0.1388851,-0.2822748,0.1168458,0.
 3729378,0.0436166,-0.6630342,-0.3991732,-0.1845942,-0.2413406,-0.14199
 29,-0.4499072,-0.219089,-0.0986345,-0.2476993,-0.897899,0.2866951,-0.0
 530959,0.0248438,-0.0016654,0.4452858,0.0426838,0.0391049,0.087455,0.3
 692816\Polar=58.7689529,-0.0964301,56.3548087,-8.6321866,1.8551471,63.
 948791\PG=Unknown\NImag=0\\0.53260384,-0.01632658,0.57463684,-0.004239
 25,-0.03029631,0.59357790,-0.05108554,0.00889902,-0.00119632,0.1637876
 4,0.00360592,-0.09405582,0.07923912,-0.16714986,0.57120239,-0.01563998
 ,0.04580835,-0.17977357,-0.12992389,0.00851291,0.62825192,0.00020082,-
 0.00118800,0.00041557,0.00160546,0.00287496,-0.00043596,0.14360593,-0.
 00026147,-0.00121669,-0.00165559,0.00178529,0.00247276,0.00129907,0.16
 818284,0.29902158,-0.00032554,0.00037995,-0.00077818,-0.00042302,0.000
 00811,0.00007145,0.01811783,0.02406025,0.00721993,-0.00432794,0.009217
 81,-0.00049069,-0.03854556,0.09554575,0.00654718,0.00007747,-0.0019679
 1,-0.00058021,0.05556188,0.01473111,-0.03630748,-0.01403699,0.09988362
 ,-0.34934948,-0.00203943,-0.00047909,0.00160077,0.00065409,-0.12860196
 ,0.41597766,-0.00857350,0.02589058,0.00323642,0.01476888,-0.00644885,-
 0.05600505,0.00057718,0.00054957,0.00008745,-0.01260189,0.00720385,0.0
 5657582,-0.00234458,-0.02355934,0.02360225,-0.07706976,0.06641233,0.11
 260994,-0.01454981,0.00101633,-0.00280290,-0.00961927,0.00183791,0.004
 88927,0.41447905,-0.01503572,0.04059405,-0.02013861,0.04611892,-0.1073
 3915,-0.06550732,-0.04854225,-0.02341696,-0.00384157,0.02568162,-0.028
 88078,-0.02551699,-0.10367480,0.82826346,0.02186259,0.00553379,-0.0509
 7361,0.10684362,-0.10429109,-0.29195654,-0.00477555,0.00090954,-0.0026
 0951,0.00475237,0.01843589,-0.00166796,-0.08890294,-0.16309077,0.96005
 255,-0.00556666,0.00898357,-0.01595296,0.01006680,-0.01148110,0.000389
 86,-0.11679385,-0.16498959,-0.01418493,-0.00914434,0.01255660,-0.00106
 306,-0.14013437,0.06801070,-0.00476616,0.28483116,0.00482336,-0.005989
 18,0.01242338,-0.00153823,0.01059135,-0.00250171,-0.12238103,-0.291369
 05,-0.02104058,0.00648654,-0.00955912,0.00015160,0.03506223,-0.0675774
 0,-0.00384706,0.11210264,0.37891497,-0.00071643,-0.00324510,0.00754624
 ,0.00284358,0.00033782,0.00341284,-0.01325005,-0.02516242,-0.00918199,
 0.00791147,-0.00706826,0.00082431,0.01246457,-0.00237402,-0.05090603,0
 .02815700,0.02190311,0.04595079,0.00460310,0.00790013,-0.00107171,0.00
 199841,-0.00730748,0.01692472,0.00109852,0.00148961,0.00083390,-0.0024
 7339,-0.00307009,-0.00026000,-0.07760900,0.04314067,-0.04679829,-0.009
 70736,0.01747346,-0.02843679,0.07045258,0.00535803,-0.00071511,-0.0026
 3158,-0.00007826,-0.00108565,0.00059036,0.00142395,0.00614030,-0.00049
 570,-0.00311679,0.00901424,-0.00228119,0.04693250,-0.28370564,0.283700
 14,0.00141654,-0.00557632,0.01390484,-0.05067966,0.28293371,0.00301289
 ,-0.01139184,0.01628010,-0.00602614,0.03763208,-0.02752764,0.00009761,
 -0.00227988,0.00050277,-0.00096430,-0.00880892,0.00250936,-0.04955369,
 0.29963449,-0.51022104,0.00292137,0.00583339,0.00159969,0.05386209,-0.
 32108556,0.51968991,-0.00195370,0.00280156,-0.00426190,-0.00553940,0.0
 1445701,0.00312941,-0.01496408,-0.00625572,-0.00056545,0.00432586,0.00
 695686,0.00561721,-0.09581891,-0.01936651,0.01774865,-0.00843997,-0.04
 645601,-0.00903286,0.01087921,0.00114148,-0.00380578,0.38033554,0.0007
 1063,-0.01327672,0.00921155,0.00451468,-0.00746897,-0.00115214,-0.0036
 5501,0.00270818,-0.00107108,-0.00256156,-0.00747118,-0.00605384,-0.058
 19778,-0.29572567,-0.00867989,-0.01521802,-0.01564871,-0.00050203,-0.0
 0621842,-0.01210964,-0.00709008,-0.09665027,0.48181964,-0.00253254,0.0
 0323529,0.00327067,0.00329137,-0.01853353,0.00486697,-0.00251823,-0.00
 208544,0.00410131,-0.00163219,-0.00559424,-0.00496062,0.00729039,-0.03
 191396,-0.07346178,-0.00447528,-0.00410830,0.00520585,0.00157228,0.023
 83438,0.01243433,-0.17380537,0.14173391,0.17135326,-0.11501698,0.08481
 335,-0.00638651,0.00030649,0.01482226,-0.00066276,-0.00011202,-0.00022
 452,0.00016733,0.00242221,0.00117077,-0.00228487,-0.00577113,0.0059337
 1,0.00053611,0.00274813,-0.00189311,-0.00010725,0.00082469,-0.00058731
 ,-0.00123591,0.00165371,-0.00201603,0.00049577,0.15119592,0.08683033,-
 0.25302671,0.01668375,0.01823250,-0.03211031,0.00390922,0.00063082,0.0
 0058960,-0.00021335,0.00191898,-0.00299064,0.00754145,0.00749086,-0.01
 653679,-0.00609153,-0.00485068,0.00330613,0.00171851,-0.00126009,0.001
 00117,0.00354425,-0.00187705,0.00694495,-0.00200405,-0.13973052,0.3574
 9292,-0.00618577,0.01782857,-0.08590907,-0.01334960,0.02712910,0.00930
 566,0.00031278,0.00058318,0.00002112,-0.00170325,0.00634748,-0.0056871
 5,-0.00132451,-0.00253858,0.00266367,0.00138363,-0.00080927,-0.0009309
 1,-0.00016205,0.00080981,-0.00103225,0.00025024,0.00010684,-0.00796140
 ,-0.00869337,0.01786566,0.08372730,-0.23445167,-0.03291330,0.08140983,
 -0.01224203,-0.00097612,0.02329945,0.00017975,-0.00017661,0.00000642,0
 .00140007,-0.00437055,-0.00069588,-0.00059297,-0.00451445,-0.00457353,
 -0.00109498,0.00121163,0.00102058,0.00038978,-0.00002453,0.00309532,0.
 00016770,0.00136384,0.00127428,-0.05556825,0.03249195,0.02399342,0.370
 37980,-0.03220698,-0.08268595,0.02176394,-0.01473321,0.00577063,0.0142
 3580,0.00026144,0.00010330,-0.00006742,0.00046282,0.00323110,-0.001349
 99,0.00028303,-0.00717105,-0.00070442,-0.00182520,0.00153039,0.0006150
 1,0.00020879,0.00086962,0.00230685,-0.00029210,0.00196359,-0.00010719,
 0.04784502,-0.00063210,-0.02069288,0.04592539,0.08319629,0.08696744,0.
 01982677,-0.12218691,0.04011715,0.00708669,-0.03325207,-0.00038629,0.0
 0034570,0.00019908,-0.00227111,0.00227663,0.00160969,-0.00153822,0.012
 64149,0.00822744,0.00503691,-0.00431428,-0.00219434,-0.00144451,-0.000
 83003,-0.00582650,0.00072404,-0.00290556,-0.00079556,0.01828849,-0.011
 46251,0.00747978,-0.11968985,-0.01289468,0.12899620,-0.12326524,-0.048
 80668,-0.07225352,0.00557694,-0.00744563,-0.01650149,0.00024121,0.0004
 4677,0.00006174,0.00049118,-0.00022146,0.00104973,-0.00619052,0.002905
 61,0.00109477,0.00154466,-0.00126537,-0.00040751,0.00142850,0.00015149
 ,-0.00184938,0.00097259,-0.00068080,-0.00037330,0.01753093,0.00000696,
 0.00598507,-0.06848885,-0.04595235,-0.02570129,0.17038387,-0.05220980,
 -0.12787250,-0.06923376,0.00123445,0.00310164,-0.00442312,0.00023655,0
 .00054079,0.00003608,-0.00144323,0.00557258,0.00125307,-0.00117822,-0.
 00256685,0.00236025,0.00033739,-0.00045741,-0.00022502,-0.00013506,0.0
 0066627,-0.00052525,0.00016183,0.00130360,-0.00090684,-0.01015497,-0.0
 6401314,-0.04728318,-0.03768628,-0.00597068,-0.01023480,0.10092127,0.1
 8968527,-0.07538560,-0.07283057,-0.18388285,-0.01847685,-0.02830626,-0
 .06125352,0.00024472,0.00092893,0.00029560,0.00212732,0.00256447,0.004
 61032,-0.02127785,0.00972476,0.01339530,0.00490198,-0.00347792,-0.0019
 1253,0.00507150,0.00225720,-0.00634926,0.00224666,-0.00390978,-0.00122
 580,0.00049816,-0.03256718,-0.00140469,-0.00866946,-0.00328952,0.01764
 423,0.10885988,0.12885651,0.21949037,0.00060454,0.00017847,0.00042522,
 0.00114056,-0.00335804,0.00026353,-0.00058937,0.00095498,-0.00030519,-
 0.00016818,-0.00039373,-0.00142306,0.01522129,-0.00065749,-0.00302164,
 -0.00830923,-0.00362611,-0.00044630,-0.00188503,-0.00193745,0.00044590
 ,-0.27161855,0.17860875,0.17141283,-0.00021371,0.00011595,-0.00050658,
 -0.00007836,0.00002335,-0.00010275,-0.00022528,-0.00008391,-0.00014046
 ,0.26612132,-0.00001883,-0.00008474,-0.00132889,0.00283108,-0.00172939
 ,0.00126803,0.00263483,0.00282543,0.00159121,-0.00162206,-0.00083768,-
 0.00093925,0.02757496,-0.03593723,-0.02423485,-0.00504284,0.00183435,0
 .00009755,-0.00154188,0.00256705,0.00223049,0.14537892,-0.14303908,-0.
 10355003,0.00002135,-0.00002509,0.00065329,-0.00033097,-0.00020513,0.0
 0046459,-0.00005979,0.00001043,0.00004935,-0.16982477,0.17462107,0.001
 75569,-0.00073947,-0.00040715,0.00153122,-0.00236609,0.00385957,0.0016
 0040,0.00250710,0.00007099,-0.00109470,0.00006543,-0.00113259,0.004543
 69,-0.00707892,-0.00254247,-0.00234836,-0.00021236,0.00058609,-0.00009
 114,0.00222734,-0.00205948,0.16175515,-0.11968789,-0.11282723,-0.00061
 518,0.00107579,-0.00027205,-0.00047058,0.00018450,0.00009897,0.0000353
 0,0.00032606,0.00059283,-0.16660150,0.12369851,0.11403254\\-0.00000142
 ,-0.00000144,-0.00000074,-0.00000199,-0.00000240,-0.00000021,-0.000001
 59,0.00000634,0.00000205,-0.00000599,-0.00000263,-0.00000194,0.0000007
 4,0.00000072,-0.00000042,0.00000131,0.00000519,0.00000171,-0.00000097,
 -0.00000152,-0.00000057,0.00000613,-0.00000173,0.00000011,0.00000234,0
 .00000061,0.00000039,-0.00000121,-0.00000461,-0.00000156,-0.00000437,0
 .00000143,-0.00000020,0.00000703,0.00000004,0.00000139\\\@
 The archive entry for this job was punched.


 NOTHING PUZZLES ME MORE THAN TIME AND SPACE; AND YET NOTHING TROUBLES ME LESS
                                                          -- CHARLES LAMB (1810)
 Job cpu time:       0 days  0 hours 36 minutes 22.1 seconds.
 Elapsed time:       0 days  0 hours  5 minutes  2.7 seconds.
 File lengths (MBytes):  RWF=    164 Int=      0 D2E=      0 Chk=     11 Scr=      1
 Normal termination of Gaussian 16 at Sat May 24 08:29:36 2025.
done
