12
energy = -1199.7418672300003
C -0.43427100 -2.14061700 -1.13342800
C 0.49418500 -1.73373800 0.02455400
F 0.14474500 0.03600400 0.00164200
F -0.04258600 -2.11533900 1.12985800
S 1.89530000 -0.10217000 0.08832800
O 2.30556100 -0.48021700 1.38542300
O 2.44522600 -0.41487600 -1.18145500
O 1.95211800 1.47758500 0.16647300
F -0.11440500 -1.50585400 -2.24554900
F -0.26248400 -3.44876300 -1.31060100
F -1.71398100 -1.91292400 -0.86223100
H 1.93774000 1.84215400 -0.72858200
12
energy = -1199.7419075300002
C -0.47317200 -2.23209600 -1.11538900
C 0.47711000 -1.75520400 -0.00276900
F -0.04951600 -0.03117700 0.03825700
F 0.04729400 -2.20986700 1.12172800
S 1.70848400 0.01028400 0.02232400
O 2.23168900 -0.34966600 1.28328600
O 2.21022100 -0.21883100 -1.28463900
O 1.60843600 1.58550500 0.13843100
F -0.27931300 -1.55247000 -2.23012400
F -0.18822100 -3.51477700 -1.32894300
F -1.75117200 -2.13259500 -0.76910300
H 1.50054500 1.96416000 -0.74432200
12
energy = -1199.7417148000002
C -0.46530800 -2.20087400 -1.11666300
C 0.48819100 -1.74018500 0.00002500
F 0.03400500 0.00571500 -0.00154700
F 0.02255500 -2.15201200 1.12781800
S 1.79258600 -0.02527600 -0.00249700
O 2.26060000 -0.37036700 1.29300200
O 2.32407900 -0.31369100 -1.27655600
O 1.75743600 1.55665700 -0.00620100
F -0.22518200 -1.55871000 -2.24260000
F -0.23352200 -3.50033100 -1.29329900
F -1.74266900 -2.03821000 -0.79124300
H 1.63399700 1.87659500 0.89753500
