 Entering Gaussian System, Link 0=g16
 Initial command:
 /apps/easybuild-2022/easybuild/software/Compiler/NVHPC/22.11-CUDA-11.7.0/Gaussian/g16c01-CUDA-11.7.0/g16/l1.exe "/tmp/Gau-173102.inp" -scrdir="/tmp/"
 Entering Link 1 = /apps/easybuild-2022/easybuild/software/Compiler/NVHPC/22.11-CUDA-11.7.0/Gaussian/g16c01-CUDA-11.7.0/g16/l1.exe PID=    173105.
  
 Copyright (c) 1988-2019, Gaussian, Inc.  All Rights Reserved.
  
 This is part of the Gaussian(R) 16 program.  It is based on
 the Gaussian(R) 09 system (copyright 2009, Gaussian, Inc.),
 the Gaussian(R) 03 system (copyright 2003, Gaussian, Inc.),
 the Gaussian(R) 98 system (copyright 1998, Gaussian, Inc.),
 the Gaussian(R) 94 system (copyright 1995, Gaussian, Inc.),
 the Gaussian 92(TM) system (copyright 1992, Gaussian, Inc.),
 the Gaussian 90(TM) system (copyright 1990, Gaussian, Inc.),
 the Gaussian 88(TM) system (copyright 1988, Gaussian, Inc.),
 the Gaussian 86(TM) system (copyright 1986, Carnegie Mellon
 University), and the Gaussian 82(TM) system (copyright 1983,
 Carnegie Mellon University). Gaussian is a federally registered
 trademark of Gaussian, Inc.
  
 This software contains proprietary and confidential information,
 including trade secrets, belonging to Gaussian, Inc.
  
 This software is provided under written license and may be
 used, copied, transmitted, or stored only in accord with that
 written license.
  
 The following legend is applicable only to US Government
 contracts under FAR:
  
                    RESTRICTED RIGHTS LEGEND
  
 Use, reproduction and disclosure by the US Government is
 subject to restrictions as set forth in subparagraphs (a)
 and (c) of the Commercial Computer Software - Restricted
 Rights clause in FAR 52.227-19.
  
 Gaussian, Inc.
 340 Quinnipiac St., Bldg. 40, Wallingford CT 06492
  
  
 ---------------------------------------------------------------
 Warning -- This program may not be used in any manner that
 competes with the business of Gaussian, Inc. or will provide
 assistance to any competitor of Gaussian, Inc.  The licensee
 of this program is prohibited from giving any competitor of
 Gaussian, Inc. access to this program.  By using this program,
 the user acknowledges that Gaussian, Inc. is engaged in the
 business of creating and licensing software in the field of
 computational chemistry and represents and warrants to the
 licensee that it is not a competitor of Gaussian, Inc. and that
 it will not use this program in any manner prohibited above.
 ---------------------------------------------------------------
  

 Cite this work as:
 Gaussian 16, Revision C.01,
 M. J. Frisch, G. W. Trucks, H. B. Schlegel, G. E. Scuseria, 
 M. A. Robb, J. R. Cheeseman, G. Scalmani, V. Barone, 
 G. A. Petersson, H. Nakatsuji, X. Li, M. Caricato, A. V. Marenich, 
 J. Bloino, B. G. Janesko, R. Gomperts, B. Mennucci, H. P. Hratchian, 
 J. V. Ortiz, A. F. Izmaylov, J. L. Sonnenberg, D. Williams-Young, 
 F. Ding, F. Lipparini, F. Egidi, J. Goings, B. Peng, A. Petrone, 
 T. Henderson, D. Ranasinghe, V. G. Zakrzewski, J. Gao, N. Rega, 
 G. Zheng, W. Liang, M. Hada, M. Ehara, K. Toyota, R. Fukuda, 
 J. Hasegawa, M. Ishida, T. Nakajima, Y. Honda, O. Kitao, H. Nakai, 
 T. Vreven, K. Throssell, J. A. Montgomery, Jr., J. E. Peralta, 
 F. Ogliaro, M. J. Bearpark, J. J. Heyd, E. N. Brothers, K. N. Kudin, 
 V. N. Staroverov, T. A. Keith, R. Kobayashi, J. Normand, 
 K. Raghavachari, A. P. Rendell, J. C. Burant, S. S. Iyengar, 
 J. Tomasi, M. Cossi, J. M. Millam, M. Klene, C. Adamo, R. Cammi, 
 J. W. Ochterski, R. L. Martin, K. Morokuma, O. Farkas, 
 J. B. Foresman, and D. J. Fox, Gaussian, Inc., Wallingford CT, 2019.
 
 ******************************************
 Gaussian 16:  ES64L-G16RevC.01  3-Jul-2019
                24-May-2025 
 ******************************************
 %mem=28GB
 %nprocshared=8
 Will use up to    8 processors via shared memory.
 ----------------------------------------------------------------------
 #P M062X/Def2TZVPP Symm(None) scf(xqc) pop(None) opt(NoFreeze,TS,CalcA
 ll,NoEigentest,MaxCycle=999)
 ----------------------------------------------------------------------
 1/5=1,6=999,10=4,11=1,18=20,26=3,29=2000,38=1/1,3;
 2/9=110,12=2,15=3,17=6,18=5,40=1/2;
 3/5=44,7=202,11=2,25=1,30=1,71=2,74=-55,140=1/1,2,3;
 4//1;
 5/5=2,8=3,13=1,38=5/2,8;
 8/6=4,10=90,11=11/1;
 11/6=1,8=1,9=11,15=111,16=1,31=1/1,2,10;
 10/6=1,31=1/2;
 7/10=1,25=1,30=1/1,2,3,16;
 1/5=1,6=999,10=4,11=1,18=20,26=3/3(3);
 2/9=110,15=3/2;
 7/8=1,9=1,25=1,30=1,44=-1/16;
 99//99;
 2/9=110,15=3/2;
 3/5=44,7=202,11=2,25=1,30=1,71=2,74=-55,140=1/1,2,3;
 4/5=5,16=3,69=1/1;
 5/5=2,8=3,13=1,38=5/2,8;
 8/6=4,10=90,11=11/1;
 11/6=1,8=1,9=11,15=111,16=1,31=1/1,2,10;
 10/6=1,31=1/2;
 7/10=1,25=1,30=1/1,2,3,16;
 1/5=1,6=999,10=4,11=1,18=20,26=3/3(-8);
 2/9=110,15=3/2;
 7/8=1,9=1,25=1,30=1,44=-1/16;
 99//99;
 Leave Link    1 at Sat May 24 06:01:35 2025, MaxMem=  3758096384 cpu:               0.0 elap:               0.0
 (Enter /apps/easybuild-2022/easybuild/software/Compiler/NVHPC/22.11-CUDA-11.7.0/Gaussian/g16c01-CUDA-11.7.0/g16/l101.exe)
 ------------------------------
 Gaussian input prepared by ASE
 ------------------------------
 Symbolic Z-matrix:
 Charge =  0 Multiplicity = 1
 C                    -0.21727  -1.13288   1.04528 
 C                     0.        0.        0. 
 F                    -0.6255   -0.27535  -1.12253 
 F                    -0.57371   1.12727   0.41641 
 S                     1.85233   0.        0. 
 O                     1.83238  -0.25513   1.43597 
 O                     2.73409  -0.13453  -1.11139 
 O                     1.86052   1.62299   0. 
 F                     1.38728  -1.84485  -0.25963 
 F                    -0.08702  -1.024     2.29275 
 F                    -0.73637  -2.23142   0.75601 
 H                     1.02958   2.11063  -0.03023 
 
 ITRead=  0  0  0  0  0  0  0  0  0  0  0  0
 MicOpt= -1 -1 -1 -1 -1 -1 -1 -1 -1 -1 -1 -1
 NAtoms=     12 NQM=       12 NQMF=       0 NMMI=      0 NMMIF=      0
                NMic=       0 NMicF=      0.
                    Isotopes and Nuclear Properties:
 (Nuclear quadrupole moments (NQMom) in fm**2, nuclear magnetic moments (NMagM)
  in nuclear magnetons)

  Atom         1           2           3           4           5           6           7           8           9          10
 IAtWgt=          12          12          19          19          32          16          16          16          19          19
 AtmWgt=  12.0000000  12.0000000  18.9984032  18.9984032  31.9720718  15.9949146  15.9949146  15.9949146  18.9984032  18.9984032
 NucSpn=           0           0           1           1           0           0           0           0           1           1
 AtZEff=  -0.0000000  -0.0000000  -0.0000000  -0.0000000  -0.0000000  -0.0000000  -0.0000000  -0.0000000  -0.0000000  -0.0000000
 NQMom=    0.0000000   0.0000000   0.0000000   0.0000000   0.0000000   0.0000000   0.0000000   0.0000000   0.0000000   0.0000000
 NMagM=    0.0000000   0.0000000   2.6288670   2.6288670   0.0000000   0.0000000   0.0000000   0.0000000   2.6288670   2.6288670
 AtZNuc=   6.0000000   6.0000000   9.0000000   9.0000000  16.0000000   8.0000000   8.0000000   8.0000000   9.0000000   9.0000000

  Atom        11          12
 IAtWgt=          19           1
 AtmWgt=  18.9984032   1.0078250
 NucSpn=           1           1
 AtZEff=  -0.0000000  -0.0000000
 NQMom=    0.0000000   0.0000000
 NMagM=    2.6288670   2.7928460
 AtZNuc=   9.0000000   1.0000000
 Leave Link  101 at Sat May 24 06:01:36 2025, MaxMem=  3758096384 cpu:               0.2 elap:               0.2
 (Enter /apps/easybuild-2022/easybuild/software/Compiler/NVHPC/22.11-CUDA-11.7.0/Gaussian/g16c01-CUDA-11.7.0/g16/l103.exe)

 GradGradGradGradGradGradGradGradGradGradGradGradGradGradGradGradGradGrad
 Berny optimization.
 Initialization pass.
                           ----------------------------
                           !    Initial Parameters    !
                           ! (Angstroms and Degrees)  !
 --------------------------                            --------------------------
 ! Name  Definition              Value          Derivative Info.                !
 --------------------------------------------------------------------------------
 ! R1    R(1,2)                  1.5567         calculate D2E/DX2 analytically  !
 ! R2    R(1,10)                 1.259          calculate D2E/DX2 analytically  !
 ! R3    R(1,11)                 1.249          calculate D2E/DX2 analytically  !
 ! R4    R(2,3)                  1.3142         calculate D2E/DX2 analytically  !
 ! R5    R(2,4)                  1.3316         calculate D2E/DX2 analytically  !
 ! R6    R(2,5)                  1.8523         calculate D2E/DX2 analytically  !
 ! R7    R(5,6)                  1.4586         calculate D2E/DX2 analytically  !
 ! R8    R(5,7)                  1.4251         calculate D2E/DX2 analytically  !
 ! R9    R(5,8)                  1.623          calculate D2E/DX2 analytically  !
 ! R10   R(5,9)                  1.9202         calculate D2E/DX2 analytically  !
 ! R11   R(8,12)                 0.9639         calculate D2E/DX2 analytically  !
 ! A1    A(2,1,10)             126.0134         calculate D2E/DX2 analytically  !
 ! A2    A(2,1,11)             122.8603         calculate D2E/DX2 analytically  !
 ! A3    A(10,1,11)            110.3989         calculate D2E/DX2 analytically  !
 ! A4    A(1,2,3)              110.7712         calculate D2E/DX2 analytically  !
 ! A5    A(1,2,4)              110.2402         calculate D2E/DX2 analytically  !
 ! A6    A(1,2,5)               98.0231         calculate D2E/DX2 analytically  !
 ! A7    A(3,2,4)              103.8515         calculate D2E/DX2 analytically  !
 ! A8    A(3,2,5)              118.4214         calculate D2E/DX2 analytically  !
 ! A9    A(4,2,5)              115.5201         calculate D2E/DX2 analytically  !
 ! A10   A(2,5,6)               89.2165         calculate D2E/DX2 analytically  !
 ! A11   A(2,5,7)              128.2256         calculate D2E/DX2 analytically  !
 ! A12   A(2,5,8)               90.2893         calculate D2E/DX2 analytically  !
 ! A13   A(2,5,9)               75.9842         calculate D2E/DX2 analytically  !
 ! A14   A(6,5,7)              139.4412         calculate D2E/DX2 analytically  !
 ! A15   A(6,5,8)              100.0778         calculate D2E/DX2 analytically  !
 ! A16   A(6,5,9)               87.8078         calculate D2E/DX2 analytically  !
 ! A17   A(7,5,8)               95.237          calculate D2E/DX2 analytically  !
 ! A18   A(7,5,9)               87.3469         calculate D2E/DX2 analytically  !
 ! A19   A(8,5,9)              164.1484         calculate D2E/DX2 analytically  !
 ! A20   A(5,8,12)             120.1015         calculate D2E/DX2 analytically  !
 ! D1    D(10,1,2,3)          -158.8142         calculate D2E/DX2 analytically  !
 ! D2    D(10,1,2,4)           -44.4364         calculate D2E/DX2 analytically  !
 ! D3    D(10,1,2,5)            76.6075         calculate D2E/DX2 analytically  !
 ! D4    D(11,1,2,3)            10.4594         calculate D2E/DX2 analytically  !
 ! D5    D(11,1,2,4)           124.8373         calculate D2E/DX2 analytically  !
 ! D6    D(11,1,2,5)          -114.1189         calculate D2E/DX2 analytically  !
 ! D7    D(1,2,5,6)            -37.2283         calculate D2E/DX2 analytically  !
 ! D8    D(1,2,5,7)            125.7952         calculate D2E/DX2 analytically  !
 ! D9    D(1,2,5,8)           -137.3031         calculate D2E/DX2 analytically  !
 ! D10   D(1,2,5,9)             50.7077         calculate D2E/DX2 analytically  !
 ! D11   D(3,2,5,6)           -156.1429         calculate D2E/DX2 analytically  !
 ! D12   D(3,2,5,7)              6.8805         calculate D2E/DX2 analytically  !
 ! D13   D(3,2,5,8)            103.7823         calculate D2E/DX2 analytically  !
 ! D14   D(3,2,5,9)            -68.2069         calculate D2E/DX2 analytically  !
 ! D15   D(4,2,5,6)             79.8007         calculate D2E/DX2 analytically  !
 ! D16   D(4,2,5,7)           -117.1759         calculate D2E/DX2 analytically  !
 ! D17   D(4,2,5,8)            -20.2742         calculate D2E/DX2 analytically  !
 ! D18   D(4,2,5,9)            167.7366         calculate D2E/DX2 analytically  !
 ! D19   D(2,5,8,12)            -2.0776         calculate D2E/DX2 analytically  !
 ! D20   D(6,5,8,12)           -91.3333         calculate D2E/DX2 analytically  !
 ! D21   D(7,5,8,12)           126.3718         calculate D2E/DX2 analytically  !
 ! D22   D(9,5,8,12)            27.5928         calculate D2E/DX2 analytically  !
 --------------------------------------------------------------------------------
 Trust Radius=3.00D-01 FncErr=1.00D-07 GrdErr=1.00D-06 EigMax=2.50D+02 EigMin=1.00D-04
 Number of steps in this run=    100 maximum allowed number of steps=    100.
 Search for a saddle point of order  1.
 GradGradGradGradGradGradGradGradGradGradGradGradGradGradGradGradGradGrad

 Leave Link  103 at Sat May 24 06:01:36 2025, MaxMem=  3758096384 cpu:               0.0 elap:               0.0
 (Enter /apps/easybuild-2022/easybuild/software/Compiler/NVHPC/22.11-CUDA-11.7.0/Gaussian/g16c01-CUDA-11.7.0/g16/l202.exe)
                          Input orientation:                          
 ---------------------------------------------------------------------
 Center     Atomic      Atomic             Coordinates (Angstroms)
 Number     Number       Type             X           Y           Z
 ---------------------------------------------------------------------
      1          6           0       -0.217270   -1.132881    1.045280
      2          6           0        0.000000    0.000000    0.000000
      3          9           0       -0.625502   -0.275352   -1.122533
      4          9           0       -0.573711    1.127272    0.416412
      5         16           0        1.852326    0.000000    0.000000
      6          8           0        1.832381   -0.255133    1.435965
      7          8           0        2.734094   -0.134527   -1.111387
      8          8           0        1.860522    1.622985    0.000000
      9          9           0        1.387277   -1.844845   -0.259631
     10          9           0       -0.087025   -1.024004    2.292748
     11          9           0       -0.736366   -2.231417    0.756010
     12          1           0        1.029582    2.110634   -0.030233
 ---------------------------------------------------------------------
                    Distance matrix (angstroms):
                    1          2          3          4          5
     1  C    0.000000
     2  C    1.556674   0.000000
     3  F    2.366732   1.314211   0.000000
     4  F    2.372934   1.331648   2.082880   0.000000
     5  S    2.580553   1.852326   2.734141   2.707360   0.000000
     6  O    2.263657   2.341945   3.547888   2.956317   1.458591
     7  O    3.789257   2.954411   3.362564   3.855889   1.425059
     8  O    3.606192   2.468931   3.323263   2.518853   1.623006
     9  F    2.187294   2.322800   2.694288   3.624361   1.920191
    10  F    1.258966   2.512539   3.537595   2.895771   3.172752
    11  F    1.248968   2.468402   2.714296   3.379730   3.500300
    12  H    3.637548   2.348559   3.102475   1.933143   2.265524
                    6          7          8          9         10
     6  O    0.000000
     7  O    2.704928   0.000000
     8  O    2.364343   2.255473   0.000000
     9  F    2.366505   2.337647   3.509589   0.000000
    10  F    2.238159   4.509769   4.007017   3.059736   0.000000
    11  F    3.311570   4.464102   4.708694   2.385545   2.059382
    12  H    2.896736   3.019106   0.963938   3.978239   4.058203
                   11         12
    11  F    0.000000
    12  H    4.752911   0.000000
 Symmetry turned off by external request.
 Stoichiometry    C2HF5O3S
 Rotational constants (GHZ):           1.4596122           0.9572916           0.8896881
 Leave Link  202 at Sat May 24 06:01:36 2025, MaxMem=  3758096384 cpu:               0.0 elap:               0.0
 (Enter /apps/easybuild-2022/easybuild/software/Compiler/NVHPC/22.11-CUDA-11.7.0/Gaussian/g16c01-CUDA-11.7.0/g16/l301.exe)
 Standard basis: def2TZVPP (5D, 7F)
 Ernie: Thresh=  0.10000D-02 Tol=  0.10000D-05 Strict=F.
   366 basis functions,   596 primitive gaussians,   423 cartesian basis functions
    49 alpha electrons       49 beta electrons
       nuclear repulsion energy       949.1966548115 Hartrees.
 IExCor= 4336 DFT=T Ex+Corr=M062X ExCW=0 ScaHFX=  0.540000
 ScaDFX=  1.000000  1.000000  1.000000  1.000000 ScalE2=  1.000000  1.000000
 IRadAn=      5 IRanWt=     -1 IRanGd=            0 ICorTp=0 IEmpDi=  4
 NAtoms=   12 NActive=   12 NUniq=   12 SFac= 1.00D+00 NAtFMM=   60 NAOKFM=F Big=F
 Integral buffers will be    131072 words long.
 Raffenetti 2 integral format.
 Two-electron integral symmetry is turned off.
 Leave Link  301 at Sat May 24 06:01:36 2025, MaxMem=  3758096384 cpu:               0.1 elap:               0.0
 (Enter /apps/easybuild-2022/easybuild/software/Compiler/NVHPC/22.11-CUDA-11.7.0/Gaussian/g16c01-CUDA-11.7.0/g16/l302.exe)
 NPDir=0 NMtPBC=     1 NCelOv=     1 NCel=       1 NClECP=     1 NCelD=      1
         NCelK=      1 NCelE2=     1 NClLst=     1 CellRange=     0.0.
 One-electron integrals computed using PRISM.
   1 Symmetry operations used in ECPInt.
 ECPInt:  NShTT=    8515 NPrTT=   27988 LenC2=    8079 LenP2D=   19714.
 LDataN:  DoStor=T MaxTD1= 6 Len=  172
 NBasis=   366 RedAO= T EigKep=  3.67D-04  NBF=   366
 NBsUse=   366 1.00D-06 EigRej= -1.00D+00 NBFU=   366
 Precomputing XC quadrature grid using
 IXCGrd= 4 IRadAn=           5 IRanWt=          -1 IRanGd=           0 AccXCQ= 0.00D+00.
 Generated NRdTot=       0 NPtTot=           0 NUsed=           0 NTot=          32
 NSgBfM=   420   420   420   420   420 MxSgAt=    12 MxSgA2=    12.
 Leave Link  302 at Sat May 24 06:01:36 2025, MaxMem=  3758096384 cpu:               0.7 elap:               0.2
 (Enter /apps/easybuild-2022/easybuild/software/Compiler/NVHPC/22.11-CUDA-11.7.0/Gaussian/g16c01-CUDA-11.7.0/g16/l303.exe)
 DipDrv:  MaxL=1.
 Leave Link  303 at Sat May 24 06:01:36 2025, MaxMem=  3758096384 cpu:               0.1 elap:               0.0
 (Enter /apps/easybuild-2022/easybuild/software/Compiler/NVHPC/22.11-CUDA-11.7.0/Gaussian/g16c01-CUDA-11.7.0/g16/l401.exe)
 ExpMin= 9.52D-02 ExpMax= 6.07D+04 ExpMxC= 2.07D+03 IAcc=3 IRadAn=         5 AccDes= 0.00D+00
 Harris functional with IExCor= 1009 and IRadAn=       5 diagonalized for initial guess.
 HarFok:  IExCor= 1009 AccDes= 0.00D+00 IRadAn=         5 IDoV= 1 UseB2=F ITyADJ=14
 ICtDFT=  3500011 ScaDFX=  1.000000  1.000000  1.000000  1.000000
 FoFCou: FMM=F IPFlag=           0 FMFlag=      100000 FMFlg1=           0
         NFxFlg=           0 DoJE=T BraDBF=F KetDBF=T FulRan=T
         wScrn=  0.000000 ICntrl=       500 IOpCl=  0 I1Cent=   200000004 NGrid=           0
         NMat0=    1 NMatS0=      1 NMatT0=    0 NMatD0=    1 NMtDS0=    0 NMtDT0=    0
 Symmetry not used in FoFCou.
 Harris En= -1199.23246619442    
 JPrj=0 DoOrth=F DoCkMO=F.
 Leave Link  401 at Sat May 24 06:01:37 2025, MaxMem=  3758096384 cpu:               4.5 elap:               0.6
 (Enter /apps/easybuild-2022/easybuild/software/Compiler/NVHPC/22.11-CUDA-11.7.0/Gaussian/g16c01-CUDA-11.7.0/g16/l502.exe)
 Keep R1 ints in memory in canonical form, NReq=2293447020.
 FoFCou: FMM=F IPFlag=           0 FMFlag=           0 FMFlg1=           0
         NFxFlg=           0 DoJE=F BraDBF=F KetDBF=F FulRan=T
         wScrn=  0.000000 ICntrl=       600 IOpCl=  0 I1Cent=           0 NGrid=           0
         NMat0=    1 NMatS0=  67161 NMatT0=    0 NMatD0=    1 NMtDS0=    0 NMtDT0=    0
 Symmetry not used in FoFCou.
 Two-electron integral symmetry not used.
 Closed shell SCF:
 Using DIIS extrapolation, IDIIS=  1040.
 NGot=  3758096384 LenX=  1502398648 LenY=  1502219278
 Requested convergence on RMS density matrix=1.00D-08 within  32 cycles.
 Requested convergence on MAX density matrix=1.00D-06.
 Requested convergence on             energy=1.00D-06.
 No special actions if energy rises.
 Integral accuracy reduced to 1.0D-05 until final iterations.

 Cycle   1  Pass 0  IDiag  1:
 E= -1199.32667165625    
 DIIS: error= 2.05D-02 at cycle   1 NSaved=   1.
 NSaved= 1 IEnMin= 1 EnMin= -1199.32667165625     IErMin= 1 ErrMin= 2.05D-02
 ErrMax= 2.05D-02  0.00D+00 EMaxC= 1.00D-01 BMatC= 7.20D-01 BMatP= 7.20D-01
 IDIUse=3 WtCom= 7.95D-01 WtEn= 2.05D-01
 Coeff-Com:  0.100D+01
 Coeff-En:   0.100D+01
 Coeff:      0.100D+01
 Gap=     0.203 Goal=   None    Shift=    0.000
 GapD=    0.203 DampG=1.000 DampE=0.500 DampFc=0.5000 IDamp=-1.
 Damping current iteration by 5.00D-01
 RMSDP=4.47D-03 MaxDP=2.96D-01              OVMax= 8.52D-01

 Cycle   2  Pass 0  IDiag  1:
 E= -1199.12224978290     Delta-E=        0.204421873351 Rises=F Damp=T
 DIIS: error= 1.19D-02 at cycle   2 NSaved=   2.
 NSaved= 2 IEnMin= 1 EnMin= -1199.32667165625     IErMin= 2 ErrMin= 1.19D-02
 ErrMax= 1.19D-02  0.00D+00 EMaxC= 1.00D-01 BMatC= 2.07D-01 BMatP= 7.20D-01
 IDIUse=3 WtCom= 8.81D-01 WtEn= 1.19D-01
 Coeff-Com:  0.288D+00 0.712D+00
 Coeff-En:   0.651D+00 0.349D+00
 Coeff:      0.331D+00 0.669D+00
 Gap=    -0.203 Goal=   None    Shift=    0.000
 RMSDP=1.73D-03 MaxDP=1.15D-01 DE= 2.04D-01 OVMax= 6.55D-01

 Cycle   3  Pass 0  IDiag  1:
 E= -1199.58243382013     Delta-E=       -0.460184037224 Rises=F Damp=F
 DIIS: error= 1.62D-02 at cycle   3 NSaved=   3.
 NSaved= 3 IEnMin= 3 EnMin= -1199.58243382013     IErMin= 2 ErrMin= 1.19D-02
 ErrMax= 1.62D-02  0.00D+00 EMaxC= 1.00D-01 BMatC= 1.69D-01 BMatP= 2.07D-01
 IDIUse=3 WtCom= 8.38D-01 WtEn= 1.62D-01
 Coeff-Com:  0.961D-01 0.455D+00 0.449D+00
 Coeff-En:   0.000D+00 0.211D-01 0.979D+00
 Coeff:      0.805D-01 0.385D+00 0.534D+00
 Gap=     0.278 Goal=   None    Shift=    0.000
 RMSDP=9.30D-04 MaxDP=4.82D-02 DE=-4.60D-01 OVMax= 8.76D-02

 Cycle   4  Pass 0  IDiag  1:
 E= -1199.71401319969     Delta-E=       -0.131579379562 Rises=F Damp=F
 DIIS: error= 3.54D-03 at cycle   4 NSaved=   4.
 NSaved= 4 IEnMin= 4 EnMin= -1199.71401319969     IErMin= 4 ErrMin= 3.54D-03
 ErrMax= 3.54D-03  0.00D+00 EMaxC= 1.00D-01 BMatC= 2.34D-02 BMatP= 1.69D-01
 IDIUse=3 WtCom= 9.65D-01 WtEn= 3.54D-02
 Coeff-Com: -0.442D-01 0.182D+00 0.218D+00 0.645D+00
 Coeff-En:   0.000D+00 0.000D+00 0.000D+00 0.100D+01
 Coeff:     -0.427D-01 0.175D+00 0.210D+00 0.657D+00
 Gap=     0.230 Goal=   None    Shift=    0.000
 RMSDP=3.49D-04 MaxDP=1.80D-02 DE=-1.32D-01 OVMax= 2.83D-02

 Cycle   5  Pass 0  IDiag  1:
 E= -1199.72656438655     Delta-E=       -0.012551186867 Rises=F Damp=F
 DIIS: error= 2.70D-03 at cycle   5 NSaved=   5.
 NSaved= 5 IEnMin= 5 EnMin= -1199.72656438655     IErMin= 5 ErrMin= 2.70D-03
 ErrMax= 2.70D-03  0.00D+00 EMaxC= 1.00D-01 BMatC= 6.46D-03 BMatP= 2.34D-02
 IDIUse=3 WtCom= 9.73D-01 WtEn= 2.70D-02
 Coeff-Com: -0.450D-01 0.693D-01-0.119D-01 0.304D+00 0.684D+00
 Coeff-En:   0.000D+00 0.000D+00 0.000D+00 0.269D-01 0.973D+00
 Coeff:     -0.438D-01 0.675D-01-0.115D-01 0.296D+00 0.692D+00
 Gap=     0.236 Goal=   None    Shift=    0.000
 RMSDP=1.45D-04 MaxDP=8.32D-03 DE=-1.26D-02 OVMax= 1.75D-02

 Cycle   6  Pass 0  IDiag  1:
 E= -1199.73141487687     Delta-E=       -0.004850490316 Rises=F Damp=F
 DIIS: error= 4.99D-04 at cycle   6 NSaved=   6.
 NSaved= 6 IEnMin= 6 EnMin= -1199.73141487687     IErMin= 6 ErrMin= 4.99D-04
 ErrMax= 4.99D-04  0.00D+00 EMaxC= 1.00D-01 BMatC= 4.36D-04 BMatP= 6.46D-03
 IDIUse=3 WtCom= 9.95D-01 WtEn= 4.99D-03
 Coeff-Com: -0.560D-02 0.657D-02-0.534D-01-0.350D-01 0.176D+00 0.911D+00
 Coeff-En:   0.000D+00 0.000D+00 0.000D+00 0.000D+00 0.000D+00 0.100D+01
 Coeff:     -0.558D-02 0.654D-02-0.531D-01-0.348D-01 0.176D+00 0.911D+00
 Gap=     0.235 Goal=   None    Shift=    0.000
 RMSDP=7.17D-05 MaxDP=3.47D-03 DE=-4.85D-03 OVMax= 7.84D-03

 Cycle   7  Pass 0  IDiag  1:
 E= -1199.73193895951     Delta-E=       -0.000524082638 Rises=F Damp=F
 DIIS: error= 1.22D-04 at cycle   7 NSaved=   7.
 NSaved= 7 IEnMin= 7 EnMin= -1199.73193895951     IErMin= 7 ErrMin= 1.22D-04
 ErrMax= 1.22D-04  0.00D+00 EMaxC= 1.00D-01 BMatC= 3.04D-05 BMatP= 4.36D-04
 IDIUse=3 WtCom= 9.99D-01 WtEn= 1.22D-03
 Coeff-Com:  0.182D-02-0.198D-02-0.177D-01-0.380D-01-0.494D-02 0.344D+00
 Coeff-Com:  0.716D+00
 Coeff-En:   0.000D+00 0.000D+00 0.000D+00 0.000D+00 0.000D+00 0.000D+00
 Coeff-En:   0.100D+01
 Coeff:      0.181D-02-0.197D-02-0.176D-01-0.380D-01-0.493D-02 0.344D+00
 Coeff:      0.717D+00
 Gap=     0.237 Goal=   None    Shift=    0.000
 RMSDP=1.73D-05 MaxDP=7.82D-04 DE=-5.24D-04 OVMax= 2.51D-03

 Cycle   8  Pass 0  IDiag  1:
 E= -1199.73196815866     Delta-E=       -0.000029199153 Rises=F Damp=F
 DIIS: error= 6.43D-05 at cycle   8 NSaved=   8.
 NSaved= 8 IEnMin= 8 EnMin= -1199.73196815866     IErMin= 8 ErrMin= 6.43D-05
 ErrMax= 6.43D-05  0.00D+00 EMaxC= 1.00D-01 BMatC= 6.58D-06 BMatP= 3.04D-05
 IDIUse=1 WtCom= 1.00D+00 WtEn= 0.00D+00
 Coeff-Com:  0.140D-02-0.165D-02 0.144D-02-0.793D-02-0.260D-01 0.239D-01
 Coeff-Com:  0.314D+00 0.695D+00
 Coeff:      0.140D-02-0.165D-02 0.144D-02-0.793D-02-0.260D-01 0.239D-01
 Coeff:      0.314D+00 0.695D+00
 Gap=     0.237 Goal=   None    Shift=    0.000
 RMSDP=1.03D-05 MaxDP=7.96D-04 DE=-2.92D-05 OVMax= 1.57D-03

 Cycle   9  Pass 0  IDiag  1:
 E= -1199.73197370732     Delta-E=       -0.000005548655 Rises=F Damp=F
 DIIS: error= 2.91D-05 at cycle   9 NSaved=   9.
 NSaved= 9 IEnMin= 9 EnMin= -1199.73197370732     IErMin= 9 ErrMin= 2.91D-05
 ErrMax= 2.91D-05  0.00D+00 EMaxC= 1.00D-01 BMatC= 1.62D-06 BMatP= 6.58D-06
 IDIUse=1 WtCom= 1.00D+00 WtEn= 0.00D+00
 Coeff-Com:  0.475D-03-0.609D-03 0.382D-02 0.284D-02-0.971D-02-0.349D-01
 Coeff-Com:  0.346D-01 0.335D+00 0.669D+00
 Coeff:      0.475D-03-0.609D-03 0.382D-02 0.284D-02-0.971D-02-0.349D-01
 Coeff:      0.346D-01 0.335D+00 0.669D+00
 Gap=     0.237 Goal=   None    Shift=    0.000
 RMSDP=3.53D-06 MaxDP=1.83D-04 DE=-5.55D-06 OVMax= 5.73D-04

 Initial convergence to 1.0D-05 achieved.  Increase integral accuracy.
 Cycle  10  Pass 1  IDiag  1:
 E= -1199.73195861066     Delta-E=        0.000015096658 Rises=F Damp=F
 DIIS: error= 2.13D-05 at cycle   1 NSaved=   1.
 NSaved= 1 IEnMin= 1 EnMin= -1199.73195861066     IErMin= 1 ErrMin= 2.13D-05
 ErrMax= 2.13D-05  0.00D+00 EMaxC= 1.00D-01 BMatC= 9.55D-07 BMatP= 9.55D-07
 IDIUse=1 WtCom= 1.00D+00 WtEn= 0.00D+00
 Coeff-Com:  0.100D+01
 Coeff:      0.100D+01
 Gap=     0.238 Goal=   None    Shift=    0.000
 RMSDP=3.53D-06 MaxDP=1.83D-04 DE= 1.51D-05 OVMax= 3.59D-04

 Cycle  11  Pass 1  IDiag  1:
 E= -1199.73195931817     Delta-E=       -0.000000707512 Rises=F Damp=F
 DIIS: error= 1.16D-05 at cycle   2 NSaved=   2.
 NSaved= 2 IEnMin= 2 EnMin= -1199.73195931817     IErMin= 2 ErrMin= 1.16D-05
 ErrMax= 1.16D-05  0.00D+00 EMaxC= 1.00D-01 BMatC= 2.21D-07 BMatP= 9.55D-07
 IDIUse=1 WtCom= 1.00D+00 WtEn= 0.00D+00
 Coeff-Com:  0.238D+00 0.762D+00
 Coeff:      0.238D+00 0.762D+00
 Gap=     0.237 Goal=   None    Shift=    0.000
 RMSDP=2.12D-06 MaxDP=1.75D-04 DE=-7.08D-07 OVMax= 1.53D-04

 Cycle  12  Pass 1  IDiag  1:
 E= -1199.73195941157     Delta-E=       -0.000000093399 Rises=F Damp=F
 DIIS: error= 1.03D-05 at cycle   3 NSaved=   3.
 NSaved= 3 IEnMin= 3 EnMin= -1199.73195941157     IErMin= 3 ErrMin= 1.03D-05
 ErrMax= 1.03D-05  0.00D+00 EMaxC= 1.00D-01 BMatC= 1.39D-07 BMatP= 2.21D-07
 IDIUse=1 WtCom= 1.00D+00 WtEn= 0.00D+00
 Coeff-Com: -0.325D-01 0.441D+00 0.592D+00
 Coeff:     -0.325D-01 0.441D+00 0.592D+00
 Gap=     0.237 Goal=   None    Shift=    0.000
 RMSDP=8.65D-07 MaxDP=4.64D-05 DE=-9.34D-08 OVMax= 9.55D-05

 Cycle  13  Pass 1  IDiag  1:
 E= -1199.73195950984     Delta-E=       -0.000000098274 Rises=F Damp=F
 DIIS: error= 2.17D-06 at cycle   4 NSaved=   4.
 NSaved= 4 IEnMin= 4 EnMin= -1199.73195950984     IErMin= 4 ErrMin= 2.17D-06
 ErrMax= 2.17D-06  0.00D+00 EMaxC= 1.00D-01 BMatC= 6.99D-09 BMatP= 1.39D-07
 IDIUse=1 WtCom= 1.00D+00 WtEn= 0.00D+00
 Coeff-Com: -0.270D-01 0.183D+00 0.292D+00 0.552D+00
 Coeff:     -0.270D-01 0.183D+00 0.292D+00 0.552D+00
 Gap=     0.237 Goal=   None    Shift=    0.000
 RMSDP=2.25D-07 MaxDP=1.39D-05 DE=-9.83D-08 OVMax= 2.39D-05

 Cycle  14  Pass 1  IDiag  1:
 E= -1199.73195951616     Delta-E=       -0.000000006317 Rises=F Damp=F
 DIIS: error= 6.66D-07 at cycle   5 NSaved=   5.
 NSaved= 5 IEnMin= 5 EnMin= -1199.73195951616     IErMin= 5 ErrMin= 6.66D-07
 ErrMax= 6.66D-07  0.00D+00 EMaxC= 1.00D-01 BMatC= 4.62D-10 BMatP= 6.99D-09
 IDIUse=1 WtCom= 1.00D+00 WtEn= 0.00D+00
 Coeff-Com:  0.113D-02-0.537D-01-0.621D-01 0.858D-01 0.103D+01
 Coeff:      0.113D-02-0.537D-01-0.621D-01 0.858D-01 0.103D+01
 Gap=     0.237 Goal=   None    Shift=    0.000
 RMSDP=1.53D-07 MaxDP=5.91D-06 DE=-6.32D-09 OVMax= 3.49D-05

 Cycle  15  Pass 1  IDiag  1:
 E= -1199.73195951783     Delta-E=       -0.000000001669 Rises=F Damp=F
 DIIS: error= 3.07D-07 at cycle   6 NSaved=   6.
 NSaved= 6 IEnMin= 6 EnMin= -1199.73195951783     IErMin= 6 ErrMin= 3.07D-07
 ErrMax= 3.07D-07  0.00D+00 EMaxC= 1.00D-01 BMatC= 1.77D-10 BMatP= 4.62D-10
 IDIUse=1 WtCom= 1.00D+00 WtEn= 0.00D+00
 Coeff-Com:  0.337D-02-0.469D-01-0.624D-01-0.325D-01 0.502D+00 0.637D+00
 Coeff:      0.337D-02-0.469D-01-0.624D-01-0.325D-01 0.502D+00 0.637D+00
 Gap=     0.237 Goal=   None    Shift=    0.000
 RMSDP=4.84D-08 MaxDP=2.19D-06 DE=-1.67D-09 OVMax= 9.78D-06

 Cycle  16  Pass 1  IDiag  1:
 E= -1199.73195951792     Delta-E=       -0.000000000088 Rises=F Damp=F
 DIIS: error= 1.23D-07 at cycle   7 NSaved=   7.
 NSaved= 7 IEnMin= 7 EnMin= -1199.73195951792     IErMin= 7 ErrMin= 1.23D-07
 ErrMax= 1.23D-07  0.00D+00 EMaxC= 1.00D-01 BMatC= 1.67D-11 BMatP= 1.77D-10
 IDIUse=1 WtCom= 1.00D+00 WtEn= 0.00D+00
 Coeff-Com:  0.923D-03-0.477D-02-0.777D-02-0.326D-01-0.522D-01 0.197D+00
 Coeff-Com:  0.899D+00
 Coeff:      0.923D-03-0.477D-02-0.777D-02-0.326D-01-0.522D-01 0.197D+00
 Coeff:      0.899D+00
 Gap=     0.237 Goal=   None    Shift=    0.000
 RMSDP=2.69D-08 MaxDP=1.09D-06 DE=-8.82D-11 OVMax= 5.74D-06

 Cycle  17  Pass 1  IDiag  1:
 E= -1199.73195951809     Delta-E=       -0.000000000176 Rises=F Damp=F
 DIIS: error= 3.79D-08 at cycle   8 NSaved=   8.
 NSaved= 8 IEnMin= 8 EnMin= -1199.73195951809     IErMin= 8 ErrMin= 3.79D-08
 ErrMax= 3.79D-08  0.00D+00 EMaxC= 1.00D-01 BMatC= 1.68D-12 BMatP= 1.67D-11
 IDIUse=1 WtCom= 1.00D+00 WtEn= 0.00D+00
 Coeff-Com: -0.179D-04 0.306D-02 0.385D-02-0.652D-02-0.639D-01-0.155D-02
 Coeff-Com:  0.273D+00 0.792D+00
 Coeff:     -0.179D-04 0.306D-02 0.385D-02-0.652D-02-0.639D-01-0.155D-02
 Coeff:      0.273D+00 0.792D+00
 Gap=     0.237 Goal=   None    Shift=    0.000
 RMSDP=7.57D-09 MaxDP=3.67D-07 DE=-1.76D-10 OVMax= 1.23D-06

 SCF Done:  E(RM062X) =  -1199.73195952     A.U. after   17 cycles
            NFock= 17  Conv=0.76D-08     -V/T= 2.0028
 KE= 1.196410556315D+03 PE=-4.744216670785D+03 EE= 1.398877500140D+03
 Leave Link  502 at Sat May 24 06:02:26 2025, MaxMem=  3758096384 cpu:             193.3 elap:              49.6
 (Enter /apps/easybuild-2022/easybuild/software/Compiler/NVHPC/22.11-CUDA-11.7.0/Gaussian/g16c01-CUDA-11.7.0/g16/l508.exe)
 QCSCF skips out because SCF is already converged.
 Leave Link  508 at Sat May 24 06:02:26 2025, MaxMem=  3758096384 cpu:               0.0 elap:               0.0
 (Enter /apps/easybuild-2022/easybuild/software/Compiler/NVHPC/22.11-CUDA-11.7.0/Gaussian/g16c01-CUDA-11.7.0/g16/l801.exe)
 DoSCS=F DFT=T ScalE2(SS,OS)=  1.000000  1.000000
 Range of M.O.s used for correlation:     1   366
 NBasis=   366 NAE=    49 NBE=    49 NFC=     0 NFV=     0
 NROrb=    366 NOA=    49 NOB=    49 NVA=   317 NVB=   317

 **** Warning!!: The largest alpha MO coefficient is  0.15418054D+02

 Leave Link  801 at Sat May 24 06:02:26 2025, MaxMem=  3758096384 cpu:               0.0 elap:               0.0
 (Enter /apps/easybuild-2022/easybuild/software/Compiler/NVHPC/22.11-CUDA-11.7.0/Gaussian/g16c01-CUDA-11.7.0/g16/l1101.exe)
 Using compressed storage, NAtomX=    12.
 Will process     13 centers per pass.
   1 Symmetry operations used in ECPInt.
 ECPInt:  NShTT=    8515 NPrTT=   27988 LenC2=    8079 LenP2D=   19714.
 LDataN:  DoStor=T MaxTD1= 7 Len=  274
 Leave Link 1101 at Sat May 24 06:02:26 2025, MaxMem=  3758096384 cpu:               1.0 elap:               0.2
 (Enter /apps/easybuild-2022/easybuild/software/Compiler/NVHPC/22.11-CUDA-11.7.0/Gaussian/g16c01-CUDA-11.7.0/g16/l1102.exe)
 Symmetrizing basis deriv contribution to polar:
 IMax=3 JMax=2 DiffMx= 0.00D+00
 Leave Link 1102 at Sat May 24 06:02:26 2025, MaxMem=  3758096384 cpu:               0.1 elap:               0.0
 (Enter /apps/easybuild-2022/easybuild/software/Compiler/NVHPC/22.11-CUDA-11.7.0/Gaussian/g16c01-CUDA-11.7.0/g16/l1110.exe)
 Forming Gx(P) for the SCF density, NAtomX=    12.
 Integral derivatives from FoFJK, PRISM(SPDF).
 Do as many integral derivatives as possible in FoFJK.
 G2DrvN: MDV=    3758094988.
 G2DrvN: will do    13 centers at a time, making    1 passes.
 Calling FoFCou, ICntrl=  3107 FMM=F I1Cent=   0 AccDes= 0.00D+00.
 FoFJK:  IHMeth= 1 ICntrl=    3107 DoSepK=F KAlg= 0 I1Cent=           0 FoldK=F
 IRaf=         0 NMat=       1 IRICut=       1 DoRegI=T DoRafI=F ISym2E= 0 IDoP0=0 IntGTp=1.
 FoFCou: FMM=F IPFlag=           0 FMFlag=      100000 FMFlg1=           0
         NFxFlg=           0 DoJE=F BraDBF=F KetDBF=F FulRan=T
         wScrn=  0.000000 ICntrl=      3107 IOpCl=  0 I1Cent=           0 NGrid=           0
         NMat0=    1 NMatS0=      1 NMatT0=    0 NMatD0=    1 NMtDS0=    0 NMtDT0=    0
 Symmetry not used in FoFCou.
 End of G2Drv F.D. properties file   721 does not exist.
 End of G2Drv F.D. properties file   722 does not exist.
 End of G2Drv F.D. properties file   788 does not exist.
 Leave Link 1110 at Sat May 24 06:03:30 2025, MaxMem=  3758096384 cpu:             500.8 elap:              63.0
 (Enter /apps/easybuild-2022/easybuild/software/Compiler/NVHPC/22.11-CUDA-11.7.0/Gaussian/g16c01-CUDA-11.7.0/g16/l1002.exe)
 Minotr:  Closed shell wavefunction.
          IDoAtm=111111111111
          Direct CPHF calculation.
          Differentiating once with respect to electric field.
                with respect to dipole field.
          Differentiating once with respect to nuclear coordinates.
          Requested convergence is 1.0D-08 RMS, and 1.0D-07 maximum.
          Secondary convergence is 1.0D-12 RMS, and 1.0D-12 maximum.
          NewPWx=T KeepS1=F KeepF1=F KeepIn=T MapXYZ=F SortEE=F KeepMc=T.
         3598 words used for storage of precomputed grid.
 Keep R1 ints in memory in canonical form, NReq=2293452928.
 FoFCou: FMM=F IPFlag=           0 FMFlag=           0 FMFlg1=           0
         NFxFlg=           0 DoJE=F BraDBF=F KetDBF=F FulRan=T
         wScrn=  0.000000 ICntrl=       600 IOpCl=  0 I1Cent=           0 NGrid=           0
         NMat0=    1 NMatS0=  67161 NMatT0=    0 NMatD0=    1 NMtDS0=    0 NMtDT0=    0
 Symmetry not used in FoFCou.
 Two-electron integral symmetry not used.
          MDV=    3758096384 using IRadAn=       1.
          Solving linear equations simultaneously, MaxMat=       0.
          There are    39 degrees of freedom in the 1st order CPHF.  IDoFFX=6 NUNeed=     3.
     36 vectors produced by pass  0 Test12= 3.98D-14 2.56D-09 XBig12= 2.93D+01 1.46D+00.
 AX will form    36 AO Fock derivatives at one time.
     36 vectors produced by pass  1 Test12= 3.98D-14 2.56D-09 XBig12= 5.55D+00 3.02D-01.
     36 vectors produced by pass  2 Test12= 3.98D-14 2.56D-09 XBig12= 1.65D-01 6.39D-02.
     36 vectors produced by pass  3 Test12= 3.98D-14 2.56D-09 XBig12= 4.39D-03 1.08D-02.
     36 vectors produced by pass  4 Test12= 3.98D-14 2.56D-09 XBig12= 7.76D-05 1.14D-03.
     36 vectors produced by pass  5 Test12= 3.98D-14 2.56D-09 XBig12= 8.61D-07 9.51D-05.
     36 vectors produced by pass  6 Test12= 3.98D-14 2.56D-09 XBig12= 6.06D-09 1.02D-05.
     26 vectors produced by pass  7 Test12= 3.98D-14 2.56D-09 XBig12= 3.65D-11 6.76D-07.
      6 vectors produced by pass  8 Test12= 3.98D-14 2.56D-09 XBig12= 1.86D-13 5.51D-08.
      3 vectors produced by pass  9 Test12= 3.98D-14 2.56D-09 XBig12= 1.04D-15 4.52D-09.
 InvSVY:  IOpt=1 It=  1 EMax= 3.55D-15
 Solved reduced A of dimension   287 with    39 vectors.
 FullF1:  Do perturbations      1 to       3.
 Isotropic polarizability for W=    0.000000       58.42 Bohr**3.
 End of Minotr F.D. properties file   721 does not exist.
 End of Minotr F.D. properties file   722 does not exist.
 End of Minotr F.D. properties file   788 does not exist.
 Leave Link 1002 at Sat May 24 06:05:17 2025, MaxMem=  3758096384 cpu:             844.6 elap:             107.2
 (Enter /apps/easybuild-2022/easybuild/software/Compiler/NVHPC/22.11-CUDA-11.7.0/Gaussian/g16c01-CUDA-11.7.0/g16/l701.exe)
 ... and contract with generalized density number  0.
 Compute integral second derivatives.
   1 Symmetry operations used in ECPInt.
 ECPInt:  NShTT=    8515 NPrTT=   27988 LenC2=    8079 LenP2D=   19714.
 LDataN:  DoStor=T MaxTD1= 8 Len=  415
 Leave Link  701 at Sat May 24 06:05:17 2025, MaxMem=  3758096384 cpu:               0.8 elap:               0.1
 (Enter /apps/easybuild-2022/easybuild/software/Compiler/NVHPC/22.11-CUDA-11.7.0/Gaussian/g16c01-CUDA-11.7.0/g16/l702.exe)
 L702 exits ... SP integral derivatives will be done elsewhere.
 Leave Link  702 at Sat May 24 06:05:17 2025, MaxMem=  3758096384 cpu:               0.0 elap:               0.0
 (Enter /apps/easybuild-2022/easybuild/software/Compiler/NVHPC/22.11-CUDA-11.7.0/Gaussian/g16c01-CUDA-11.7.0/g16/l703.exe)
 Integral derivatives from FoFJK, PRISM(SPDF).
 Compute integral second derivatives, UseDBF=F ICtDFT=           0.
 Calling FoFJK, ICntrl=    100127 FMM=F ISym2X=0 I1Cent= 0 IOpClX= 0 NMat=1 NMatS=1 NMatT=0.
 FoFJK:  IHMeth= 1 ICntrl=  100127 DoSepK=F KAlg= 0 I1Cent=           0 FoldK=F
 IRaf=         0 NMat=       1 IRICut=       1 DoRegI=T DoRafI=F ISym2E= 0 IDoP0=0 IntGTp=1.
 FoFCou: FMM=F IPFlag=           0 FMFlag=      100000 FMFlg1=         800
         NFxFlg=           0 DoJE=F BraDBF=F KetDBF=F FulRan=T
         wScrn=  0.000000 ICntrl=    100127 IOpCl=  0 I1Cent=           0 NGrid=           0
         NMat0=    1 NMatS0=      1 NMatT0=    0 NMatD0=    1 NMtDS0=    0 NMtDT0=    0
 Symmetry not used in FoFCou.
 Leave Link  703 at Sat May 24 06:07:41 2025, MaxMem=  3758096384 cpu:            1148.8 elap:             144.5
 (Enter /apps/easybuild-2022/easybuild/software/Compiler/NVHPC/22.11-CUDA-11.7.0/Gaussian/g16c01-CUDA-11.7.0/g16/l716.exe)
 Dipole        =-2.58957008D+00 1.94116352D-01 9.92273396D-01
 Polarizability= 6.12601498D+01 3.86955163D+00 5.83466120D+01
                -7.02666085D+00-9.34826355D-01 5.56645449D+01
 -------------------------------------------------------------------
 Center     Atomic                   Forces (Hartrees/Bohr)
 Number     Number              X              Y              Z
 -------------------------------------------------------------------
      1        6           0.015628229   -0.026122887    0.009292784
      2        6          -0.010057555   -0.010904072   -0.021036542
      3        9          -0.001878022   -0.015974211   -0.009663152
      4        9           0.000733253    0.003826119    0.019344327
      5       16          -0.019754261    0.033357790   -0.000966845
      6        8           0.049229617    0.000339257   -0.013396006
      7        8           0.003293557   -0.014299189    0.014585239
      8        8           0.008410652    0.018798232   -0.002121097
      9        9          -0.016563104    0.008788859    0.014864614
     10        9          -0.019632605    0.005135547   -0.008330303
     11        9          -0.013633208    0.003485314   -0.007663181
     12        1           0.004223447   -0.006430759    0.005090161
 -------------------------------------------------------------------
 Cartesian Forces:  Max     0.049229617 RMS     0.015613668
 Force constants in Cartesian coordinates: 
                1             2             3             4             5 
      1  0.202573D+00
      2  0.183215D+00  0.687743D+00
      3  0.104674D+00 -0.222443D-01  0.691404D+00
      4 -0.631495D-01  0.108490D-01 -0.736102D-02  0.470253D+00
      5 -0.156459D-01 -0.105972D+00  0.587408D-01 -0.350623D-01  0.505468D+00
      6  0.162844D-01  0.624810D-01 -0.844780D-01  0.970911D-01  0.454504D-01
      7 -0.206858D-02 -0.551849D-02 -0.795094D-02 -0.151966D+00 -0.257446D-01
      8  0.749766D-02  0.434090D-02  0.121535D-01 -0.320514D-01 -0.767576D-01
      9 -0.191451D-01 -0.597140D-02 -0.501198D-01 -0.136875D+00 -0.427114D-01
     10 -0.266572D-02  0.317918D-02  0.629353D-02 -0.123033D+00  0.100721D+00
     11  0.174034D-01 -0.450023D-01 -0.121389D-01  0.110723D+00 -0.247904D+00
     12 -0.417997D-02  0.696987D-02  0.668633D-02  0.335913D-01 -0.496780D-01
     13  0.760946D-02 -0.246334D-01  0.371080D-01 -0.148201D+00  0.744796D-02
     14 -0.808562D-01  0.318639D-01  0.515327D-01 -0.171347D-01  0.112238D-02
     15  0.723036D-01  0.329843D-01  0.305298D-01  0.832067D-02  0.829253D-02
     16  0.195947D-01  0.146339D-01  0.418883D-02 -0.163184D-02  0.288628D-02
     17  0.264903D-01 -0.119457D-04 -0.174793D-03 -0.247595D-02 -0.271414D-02
     18 -0.216818D-01 -0.115773D-01 -0.286834D-01 -0.102926D-02  0.444882D-02
     19 -0.572033D-02  0.385232D-03 -0.682715D-02  0.109689D-01 -0.133118D-02
     20  0.904870D-02 -0.704171D-02 -0.771507D-02  0.115319D-02 -0.410209D-02
     21 -0.691360D-02 -0.326440D-02 -0.174577D-02 -0.744787D-02  0.301059D-03
     22 -0.136244D-01  0.377009D-02 -0.376764D-02 -0.868485D-02 -0.199783D-01
     23  0.362615D-02  0.620818D-02 -0.559943D-02  0.286534D-02 -0.345176D-01
     24 -0.716475D-02 -0.155684D-02 -0.430283D-02  0.344962D-03 -0.602346D-02
     25  0.207855D-01 -0.154846D-01 -0.378002D-01 -0.709934D-02  0.765278D-02
     26  0.554920D-02 -0.341607D-01 -0.902186D-02 -0.259101D-02 -0.355586D-01
     27 -0.321932D-01  0.909562D-02  0.164399D-01  0.556041D-02 -0.370518D-02
     28 -0.540844D-01  0.458180D-03 -0.390268D-01  0.140411D-01 -0.100654D-02
     29 -0.114916D-01 -0.939443D-01 -0.455728D-02 -0.148361D-02  0.166661D-01
     30 -0.685137D-01 -0.395169D-03 -0.473137D+00  0.511913D-02 -0.245885D-01
     31 -0.110458D+00 -0.172317D+00 -0.493385D-01  0.631946D-02 -0.664502D-02
     32 -0.146436D+00 -0.441236D+00 -0.628519D-01 -0.316731D-01 -0.934151D-02
     33 -0.331886D-01 -0.665887D-01 -0.103241D+00  0.316124D-02  0.642026D-02
     34  0.120784D-02  0.146333D-02 -0.191956D-03  0.218322D-02 -0.132939D-01
     35  0.159958D-02 -0.278735D-02  0.187656D-02 -0.311841D-02 -0.638910D-02
     36 -0.281200D-03  0.673184D-04  0.648500D-03 -0.476061D-03  0.305262D-02
                6             7             8             9            10 
      6  0.506641D+00
      7 -0.128530D+00  0.138573D+00
      8 -0.394986D-01  0.274332D-01  0.103677D+00
      9 -0.271536D+00  0.164317D+00  0.976970D-01  0.380913D+00
     10  0.286708D-01  0.205163D-01 -0.130476D-01 -0.401072D-02  0.133842D+00
     11 -0.578040D-01  0.908131D-04 -0.384896D-01 -0.544043D-01 -0.116904D+00
     12 -0.861566D-01  0.776892D-02 -0.721001D-01 -0.505019D-01 -0.388174D-01
     13  0.126409D-01  0.107328D-01  0.330950D-02  0.286233D-02  0.115971D-02
     14  0.755604D-02 -0.523432D-02 -0.360267D-02 -0.477778D-02  0.227356D-01
     15 -0.229062D-01 -0.315579D-01 -0.316462D-02 -0.145860D-01  0.122128D-01
     16 -0.353793D-01 -0.133285D-01  0.950400D-03 -0.608493D-02 -0.995115D-03
     17  0.407709D-02  0.325849D-02  0.288810D-02 -0.374770D-04 -0.102291D-02
     18 -0.379890D-01 -0.112715D-01 -0.245731D-02  0.323225D-03 -0.528924D-02
     19  0.900765D-02 -0.125112D-02 -0.759417D-03 -0.287839D-02 -0.533892D-02
     20 -0.138030D-02  0.506140D-04  0.952598D-03  0.538549D-03  0.350227D-04
     21 -0.293079D-02  0.439184D-02  0.540474D-03  0.440340D-02  0.134072D-02
     22  0.446428D-02 -0.263548D-02 -0.539088D-03 -0.292256D-02 -0.621927D-02
     23  0.450961D-02 -0.744443D-02  0.108004D-02 -0.521653D-02 -0.535169D-02
     24  0.208917D-02  0.197963D-02  0.826386D-03  0.168279D-02  0.301753D-02
     25  0.573107D-02  0.399691D-03  0.448904D-02  0.819455D-03 -0.247708D-02
     26 -0.924331D-02  0.593507D-02  0.290276D-02  0.497241D-02  0.882131D-02
     27 -0.996720D-02  0.336618D-03  0.322200D-02  0.455365D-02 -0.180749D-02
     28 -0.213608D-02  0.160045D-03  0.430766D-04  0.956332D-03 -0.283061D-03
     29  0.616202D-02  0.979565D-03 -0.149233D-02  0.707936D-02  0.561018D-04
     30 -0.873492D-02 -0.408598D-03  0.286928D-02 -0.568109D-02 -0.346607D-02
     31 -0.720766D-02  0.192604D-02  0.134118D-02  0.293768D-02  0.558963D-03
     32 -0.205331D-01  0.589021D-02  0.428668D-02  0.192302D-02  0.243937D-02
     33  0.109513D-01  0.150801D-02  0.387020D-03  0.227321D-02 -0.777827D-04
     34 -0.637052D-03 -0.105864D-02  0.133337D-02  0.231603D-04 -0.150649D-01
     35 -0.177681D-02  0.303855D-03  0.214075D-03  0.908515D-03 -0.166149D-02
     36  0.501676D-02 -0.583269D-03 -0.475161D-03 -0.172470D-02  0.193338D-02
               11            12            13            14            15 
     11  0.344472D+00
     12  0.118458D+00  0.121309D+00
     13 -0.899549D-02 -0.326410D-02  0.685591D+00
     14 -0.312303D-01 -0.328300D-02 -0.522167D-01  0.347559D+00
     15 -0.913678D-02 -0.501380D-02 -0.296724D+00 -0.643265D-01  0.103967D+01
     16  0.217143D-02 -0.148333D-03 -0.113698D+00  0.209732D-02 -0.447574D-01
     17  0.492779D-02  0.118988D-03 -0.129575D-02 -0.939537D-01  0.656315D-01
     18  0.349679D-02  0.567943D-02 -0.159209D-01  0.957336D-01 -0.495793D+00
     19  0.409724D-02  0.190109D-02 -0.303899D+00  0.490110D-01  0.279842D+00
     20  0.481721D-02 -0.265610D-03  0.361347D-01 -0.708583D-01 -0.393083D-01
     21  0.556166D-03  0.429834D-03  0.263281D+00 -0.509109D-01 -0.424194D+00
     22 -0.109899D-01  0.319455D-03 -0.924528D-01 -0.416385D-02  0.235177D-02
     23  0.118676D-01  0.106445D-02 -0.178216D-01 -0.173260D+00 -0.130347D-02
     24  0.341165D-02  0.248869D-02  0.228875D-02 -0.199220D-02 -0.515009D-01
     25  0.718657D-02 -0.226015D-02 -0.364824D-01  0.574249D-01  0.181085D-01
     26 -0.214510D-02 -0.155253D-02  0.212048D-01  0.866095D-02  0.110217D-01
     27 -0.164388D-02  0.341221D-02  0.250098D-02 -0.170515D-01 -0.520277D-01
     28 -0.270951D-02  0.569350D-03 -0.163742D-01 -0.299125D-05 -0.246908D-01
     29  0.744919D-03 -0.143261D-02  0.127778D-02 -0.531648D-02 -0.811020D-05
     30  0.508068D-02  0.421108D-02 -0.650272D-03 -0.805102D-02  0.781239D-02
     31 -0.275422D-02  0.964190D-03 -0.948447D-03  0.221747D-01  0.326938D-02
     32 -0.508103D-02  0.132941D-02  0.728828D-02 -0.117776D-02 -0.300318D-05
     33  0.543168D-02 -0.914380D-03 -0.309078D-02 -0.895480D-03 -0.580655D-02
     34  0.680362D-03  0.355568D-02  0.696347D-02  0.616524D-02  0.132242D-02
     35  0.302285D-02  0.371333D-03  0.283000D-01 -0.980720D-02 -0.679284D-03
     36 -0.130680D-02 -0.162975D-02 -0.103125D-02 -0.353390D-02 -0.618424D-02
               16            17            18            19            20 
     16  0.103897D+00
     17  0.101957D-01  0.126679D+00
     18  0.429867D-01 -0.944583D-01  0.577130D+00
     19  0.204275D-01  0.362141D-03 -0.663964D-02  0.299439D+00
     20 -0.164331D-02  0.130717D-01  0.514081D-03 -0.444773D-01  0.142748D+00
     21  0.175747D-01 -0.219931D-02  0.840029D-02 -0.315310D+00  0.652918D-01
     22  0.222689D-01  0.123143D-01 -0.483300D-02 -0.466020D-02  0.483136D-01
     23 -0.342008D-02 -0.328265D-01  0.194517D-01  0.188412D-01 -0.461885D-01
     24  0.185753D-02  0.454396D-01 -0.101996D-01  0.185695D-01 -0.385993D-01
     25  0.158457D-01 -0.130406D-01 -0.159251D-01 -0.142133D-01 -0.404531D-01
     26 -0.296854D-02 -0.155489D-01 -0.270914D-01 -0.240515D-01 -0.297084D-01
     27 -0.121037D-01 -0.387344D-01 -0.133848D-01  0.165150D-01  0.260245D-01
     28 -0.507492D-01 -0.275861D-01  0.381777D-01  0.269831D-02  0.404532D-03
     29 -0.188811D-01  0.102424D-03  0.107213D-01 -0.513734D-03  0.723071D-03
     30  0.295346D-01  0.170333D-01 -0.567557D-02  0.139028D-02  0.136328D-02
     31  0.807201D-03 -0.211284D-02 -0.204228D-02 -0.104520D-02 -0.469623D-02
     32 -0.287981D-02 -0.887489D-03  0.424082D-03 -0.202839D-02 -0.617127D-04
     33 -0.847291D-03 -0.742873D-03  0.395616D-02  0.130458D-02  0.631599D-03
     34 -0.243809D-02 -0.508680D-02  0.346850D-02  0.259411D-02 -0.387031D-02
     35 -0.314218D-02 -0.172626D-02  0.793962D-03  0.464716D-03 -0.435230D-02
     36  0.317863D-02  0.404676D-02 -0.376376D-02  0.312593D-02 -0.709520D-02
               21            22            23            24            25 
     21  0.416408D+00
     22  0.281598D-01  0.495252D+00
     23 -0.232700D-01 -0.213964D+00  0.430182D+00
     24 -0.203324D-03 -0.603896D-02 -0.745332D-02  0.357649D-01
     25  0.145740D-01  0.710123D-02 -0.669413D-03 -0.126920D-02  0.505498D-01
     26  0.138457D-01 -0.386473D-02 -0.701425D-02 -0.203862D-02  0.107533D-02
     27  0.406130D-02 -0.907275D-03  0.352861D-03  0.449793D-02 -0.229386D-02
     28  0.321981D-02  0.426912D-02 -0.179239D-02  0.223584D-02  0.506474D-02
     29  0.824448D-03 -0.114440D-02 -0.928543D-03 -0.632719D-03  0.139083D-02
     30 -0.778880D-03 -0.113271D-03  0.468604D-02  0.511582D-03  0.572403D-02
     31  0.756466D-03  0.122267D-02 -0.135082D-02  0.681316D-04 -0.384418D-01
     32  0.132829D-02 -0.235079D-02 -0.424517D-02 -0.197708D-03 -0.803015D-02
     33  0.171623D-03  0.114735D-02  0.469241D-03  0.800543D-03  0.148419D-01
     34 -0.362638D-02 -0.401837D+00  0.226482D+00 -0.158890D-01 -0.103277D-02
     35 -0.304325D-02  0.192597D+00 -0.150357D+00  0.881659D-02 -0.154164D-02
     36 -0.402125D-02 -0.178600D-01  0.123088D-01  0.183711D-01 -0.250325D-03
               26            27            28            29            30 
     26  0.964624D-01
     27  0.148056D-01  0.460556D-01
     28  0.176390D-02 -0.159859D-02  0.867361D-01
     29  0.369751D-02 -0.192581D-02  0.562171D-01  0.102152D+00
     30  0.303122D-03 -0.270238D-02  0.623782D-01  0.639399D-01  0.541523D+00
     31 -0.104375D-01  0.262402D-01  0.893011D-02 -0.264202D-01 -0.316054D-01
     32  0.108614D-01  0.916264D-02 -0.251820D-01 -0.228388D-01 -0.613990D-01
     33  0.448388D-02 -0.109784D-02 -0.405507D-01 -0.801834D-01 -0.564000D-01
     34 -0.436355D-03 -0.248986D-03 -0.408658D-03  0.131901D-04  0.611074D-03
     35  0.155087D-02  0.397590D-03 -0.607279D-03  0.434874D-03 -0.841889D-03
     36 -0.484701D-03  0.159343D-03  0.465817D-03  0.129799D-04 -0.947805D-03
               31            32            33            34            35 
     31  0.131155D+00
     32  0.203208D+00  0.468524D+00
     33  0.561029D-01  0.130848D+00  0.149317D+00
     34 -0.260749D-04 -0.245161D-03 -0.310886D-03  0.408918D+00
     35  0.104996D-04  0.119689D-02 -0.261605D-03 -0.213205D+00  0.168999D+00
     36 -0.145126D-03 -0.310073D-04 -0.101360D-04  0.119234D-01 -0.656172D-02
               36 
     36 -0.591412D-02
 FormGI is forming the generalized inverse of G from B-inverse, IUseBI=4.
 Leave Link  716 at Sat May 24 06:07:41 2025, MaxMem=  3758096384 cpu:               0.0 elap:               0.0
 (Enter /apps/easybuild-2022/easybuild/software/Compiler/NVHPC/22.11-CUDA-11.7.0/Gaussian/g16c01-CUDA-11.7.0/g16/l103.exe)

 GradGradGradGradGradGradGradGradGradGradGradGradGradGradGradGradGradGrad
 Berny optimization.
 Red2BG is reusing G-inverse.
 Internal  Forces:  Max     0.062460403 RMS     0.020546109
 Search for a saddle point.
 Step number   1 out of a maximum of  100
 All quantities printed in internal units (Hartrees-Bohrs-Radians)
 Swapping is turned off.
 Second derivative matrix not updated -- analytic derivatives used.
 ITU=  0
     Eigenvalues ---   -0.10213  -0.00636   0.00409   0.00734   0.03574
     Eigenvalues ---    0.04555   0.05798   0.07311   0.07559   0.08721
     Eigenvalues ---    0.11592   0.12346   0.13854   0.15532   0.17496
     Eigenvalues ---    0.20695   0.21079   0.25552   0.29089   0.30907
     Eigenvalues ---    0.34095   0.40854   0.49385   0.52547   0.55024
     Eigenvalues ---    0.61083   0.62271   0.69776   0.71483   1.27154
 Eigenvectors required to have negative eigenvalues:
                          D8        D10       D6        D9        D4
   1                    0.30103   0.29978   0.27106   0.25574   0.24968
                          R10       D5        D7        D3        A11
   1                   -0.23600   0.22246   0.22209   0.20975   0.19059
 Eigenvalue     2 is  -6.36D-03 should be greater than     0.000000 Eigenvector:
                          D19       D20       D21       D22       D2
   1                   -0.51300  -0.51176  -0.48994  -0.46485  -0.05735
                          D1        D3        R10       A16       D7
   1                   -0.05591  -0.05231  -0.03657   0.03130  -0.03022
 RFO step:  Lambda0=1.715027672D-02 Lambda=-4.86650185D-02.
 Linear search not attempted -- option 19 set.
 Maximum step size (   0.300) exceeded in Quadratic search.
    -- Step size scaled by   0.823
 Iteration  1 RMS(Cart)=  0.16340939 RMS(Int)=  0.03321547
 Iteration  2 RMS(Cart)=  0.03627671 RMS(Int)=  0.00246956
 Iteration  3 RMS(Cart)=  0.00184340 RMS(Int)=  0.00155569
 Iteration  4 RMS(Cart)=  0.00000654 RMS(Int)=  0.00155568
 Iteration  5 RMS(Cart)=  0.00000000 RMS(Int)=  0.00155568
 ITry= 1 IFail=0 DXMaxC= 6.98D-01 DCOld= 1.00D+10 DXMaxT= 3.00D-01 DXLimC= 3.00D+00 Rises=F
 Variable       Old X    -DE/DX   Delta X   Delta X   Delta X     New X
                                 (Linear)    (Quad)   (Total)
    R1        2.94169   0.01070   0.00000  -0.04003  -0.04003   2.90166
    R2        2.37910  -0.00984   0.00000  -0.01134  -0.01134   2.36776
    R3        2.36021   0.00437   0.00000  -0.01248  -0.01248   2.34773
    R4        2.48350   0.01249   0.00000  -0.00266  -0.00266   2.48084
    R5        2.51645   0.00898   0.00000   0.03391   0.03391   2.55035
    R6        3.50039   0.02884   0.00000   0.02284   0.02284   3.52323
    R7        2.75634  -0.01393   0.00000  -0.00686  -0.00686   2.74948
    R8        2.69297  -0.00798   0.00000  -0.01507  -0.01507   2.67790
    R9        3.06704   0.01243   0.00000   0.00477   0.00477   3.07180
   R10        3.62863  -0.00644   0.00000  -0.02097  -0.02097   3.60766
   R11        1.82158  -0.00706   0.00000  -0.00552  -0.00552   1.81606
    A1        2.19935   0.00502   0.00000  -0.12963  -0.13194   2.06740
    A2        2.14432  -0.01550   0.00000   0.06355   0.06126   2.20558
    A3        1.92682   0.00750   0.00000   0.04801   0.04561   1.97243
    A4        1.93332  -0.03478   0.00000   0.03807   0.03867   1.97199
    A5        1.92405  -0.02066   0.00000  -0.09599  -0.09567   1.82838
    A6        1.71083   0.06246   0.00000   0.02628   0.02608   1.73691
    A7        1.81255   0.02050   0.00000   0.04094   0.04174   1.85429
    A8        2.06684  -0.01922   0.00000  -0.02654  -0.02720   2.03964
    A9        2.01621  -0.01289   0.00000   0.00649   0.00629   2.02249
   A10        1.55712   0.06226   0.00000   0.11140   0.10856   1.66568
   A11        2.23796  -0.02592   0.00000  -0.02935  -0.03000   2.20796
   A12        1.57585   0.03434   0.00000   0.05331   0.05315   1.62900
   A13        1.32618  -0.04234   0.00000  -0.08795  -0.08769   1.23849
   A14        2.43371  -0.03940   0.00000  -0.11147  -0.11161   2.32210
   A15        1.74669   0.00001   0.00000   0.03359   0.02947   1.77616
   A16        1.53253   0.00764   0.00000  -0.02591  -0.02090   1.51164
   A17        1.66220  -0.00955   0.00000   0.01744   0.01896   1.68116
   A18        1.52449   0.01507   0.00000   0.01696   0.01738   1.54187
   A19        2.86493  -0.00276   0.00000  -0.01899  -0.02016   2.84477
   A20        2.09617  -0.00604   0.00000  -0.06101  -0.06101   2.03516
    D1       -2.77183   0.01450   0.00000   0.18292   0.18346  -2.58837
    D2       -0.77556   0.00730   0.00000   0.19861   0.19800  -0.57756
    D3        1.33705   0.01688   0.00000   0.18241   0.18192   1.51897
    D4        0.18255  -0.00664   0.00000   0.05636   0.05727   0.23982
    D5        2.17882  -0.01385   0.00000   0.07205   0.07181   2.25063
    D6       -1.99175  -0.00427   0.00000   0.05585   0.05573  -1.93602
    D7       -0.64976  -0.00583   0.00000   0.18894   0.19170  -0.45806
    D8        2.19554  -0.01803   0.00000   0.09409   0.09429   2.28984
    D9       -2.39639  -0.00556   0.00000   0.15574   0.15521  -2.24118
   D10        0.88502  -0.01327   0.00000   0.13488   0.13190   1.01692
   D11       -2.72521   0.00219   0.00000   0.13616   0.13919  -2.58602
   D12        0.12009  -0.01001   0.00000   0.04131   0.04178   0.16187
   D13        1.81134   0.00246   0.00000   0.10296   0.10270   1.91404
   D14       -1.19044  -0.00525   0.00000   0.08210   0.07939  -1.11104
   D15        1.39278   0.00261   0.00000   0.09438   0.09728   1.49006
   D16       -2.04510  -0.00959   0.00000  -0.00047  -0.00012  -2.04523
   D17       -0.35385   0.00288   0.00000   0.06119   0.06079  -0.29306
   D18        2.92756  -0.00484   0.00000   0.04032   0.03748   2.96504
   D19       -0.03626   0.03565   0.00000   0.35650   0.35537   0.31911
   D20       -1.59407  -0.03369   0.00000   0.23378   0.23308  -1.36099
   D21        2.20560   0.01294   0.00000   0.33476   0.33536   2.54096
   D22        0.48159  -0.00713   0.00000   0.22142   0.22266   0.70424
         Item               Value     Threshold  Converged?
 Maximum Force            0.062460     0.000450     NO 
 RMS     Force            0.020546     0.000300     NO 
 Maximum Displacement     0.698098     0.001800     NO 
 RMS     Displacement     0.181458     0.001200     NO 
 Predicted change in Energy=-2.383094D-02
 Lowest energy point so far.  Saving SCF results.
 GradGradGradGradGradGradGradGradGradGradGradGradGradGradGradGradGradGrad

 Leave Link  103 at Sat May 24 06:07:41 2025, MaxMem=  3758096384 cpu:               0.1 elap:               0.0
 (Enter /apps/easybuild-2022/easybuild/software/Compiler/NVHPC/22.11-CUDA-11.7.0/Gaussian/g16c01-CUDA-11.7.0/g16/l202.exe)
                          Input orientation:                          
 ---------------------------------------------------------------------
 Center     Atomic      Atomic             Coordinates (Angstroms)
 Number     Number       Type             X           Y           Z
 ---------------------------------------------------------------------
      1          6           0       -0.221235   -1.094714    1.057618
      2          6           0       -0.004963   -0.071959   -0.067074
      3          9           0       -0.575509   -0.423132   -1.196060
      4          9           0       -0.646880    1.039283    0.350628
      5         16           0        1.857568    0.010860   -0.054479
      6          8           0        2.003276   -0.374891    1.340826
      7          8           0        2.713439   -0.087295   -1.179638
      8          8           0        1.879400    1.633127    0.046090
      9          9           0        1.316461   -1.791053   -0.378437
     10          9           0       -0.290176   -0.678854    2.237545
     11          9           0       -0.643379   -2.255772    0.926430
     12          1           0        1.068307    2.057132    0.339184
 ---------------------------------------------------------------------
                    Distance matrix (angstroms):
                    1          2          3          4          5
     1  C    0.000000
     2  C    1.535491   0.000000
     3  F    2.378149   1.312804   0.000000
     4  F    2.288001   1.349590   2.129787   0.000000
     5  S    2.603935   1.864413   2.722392   2.737522   0.000000
     6  O    2.355165   2.471228   3.617768   3.162863   1.454960
     7  O    3.825248   2.937302   3.306090   3.860393   1.417086
     8  O    3.588450   2.543806   3.434780   2.612946   1.625528
     9  F    2.216225   2.190523   2.473715   3.520944   1.909093
    10  F    1.252964   2.400195   3.454916   2.576759   3.215880
    11  F    1.242365   2.482673   2.805021   3.344988   3.514903
    12  H    3.480403   2.418674   3.348256   1.994496   2.228258
                    6          7          8          9         10
     6  O    0.000000
     7  O    2.634346   0.000000
     8  O    2.392450   2.271097   0.000000
     9  F    2.330900   2.344411   3.496017   0.000000
    10  F    2.481213   4.587895   3.854191   3.265215   0.000000
    11  F    3.273259   4.517305   4.718363   2.399920   2.080972
    12  H    2.791449   3.100298   0.961019   3.922384   3.596508
                   11         12
    11  F    0.000000
    12  H    4.677165   0.000000
 Symmetry turned off by external request.
 Stoichiometry    C2HF5O3S
 Rotational constants (GHZ):           1.4726805           0.9421007           0.8920922
 Leave Link  202 at Sat May 24 06:07:42 2025, MaxMem=  3758096384 cpu:               0.0 elap:               0.0
 (Enter /apps/easybuild-2022/easybuild/software/Compiler/NVHPC/22.11-CUDA-11.7.0/Gaussian/g16c01-CUDA-11.7.0/g16/l301.exe)
 Standard basis: def2TZVPP (5D, 7F)
 Ernie: Thresh=  0.10000D-02 Tol=  0.10000D-05 Strict=F.
   366 basis functions,   596 primitive gaussians,   423 cartesian basis functions
    49 alpha electrons       49 beta electrons
       nuclear repulsion energy       948.1139750654 Hartrees.
 IExCor= 4336 DFT=T Ex+Corr=M062X ExCW=0 ScaHFX=  0.540000
 ScaDFX=  1.000000  1.000000  1.000000  1.000000 ScalE2=  1.000000  1.000000
 IRadAn=      5 IRanWt=     -1 IRanGd=            0 ICorTp=0 IEmpDi=  4
 NAtoms=   12 NActive=   12 NUniq=   12 SFac= 1.00D+00 NAtFMM=   60 NAOKFM=F Big=F
 Integral buffers will be    131072 words long.
 Raffenetti 2 integral format.
 Two-electron integral symmetry is turned off.
 Leave Link  301 at Sat May 24 06:07:42 2025, MaxMem=  3758096384 cpu:               0.0 elap:               0.0
 (Enter /apps/easybuild-2022/easybuild/software/Compiler/NVHPC/22.11-CUDA-11.7.0/Gaussian/g16c01-CUDA-11.7.0/g16/l302.exe)
 NPDir=0 NMtPBC=     1 NCelOv=     1 NCel=       1 NClECP=     1 NCelD=      1
         NCelK=      1 NCelE2=     1 NClLst=     1 CellRange=     0.0.
 One-electron integrals computed using PRISM.
   1 Symmetry operations used in ECPInt.
 ECPInt:  NShTT=    8515 NPrTT=   27988 LenC2=    8078 LenP2D=   19716.
 LDataN:  DoStor=T MaxTD1= 6 Len=  172
 NBasis=   366 RedAO= T EigKep=  3.25D-04  NBF=   366
 NBsUse=   366 1.00D-06 EigRej= -1.00D+00 NBFU=   366
 Precomputing XC quadrature grid using
 IXCGrd= 4 IRadAn=           5 IRanWt=          -1 IRanGd=           0 AccXCQ= 0.00D+00.
 Generated NRdTot=       0 NPtTot=           0 NUsed=           0 NTot=          32
 NSgBfM=   421   421   421   421   421 MxSgAt=    12 MxSgA2=    12.
 Leave Link  302 at Sat May 24 06:07:42 2025, MaxMem=  3758096384 cpu:               0.6 elap:               0.1
 (Enter /apps/easybuild-2022/easybuild/software/Compiler/NVHPC/22.11-CUDA-11.7.0/Gaussian/g16c01-CUDA-11.7.0/g16/l303.exe)
 DipDrv:  MaxL=1.
 Leave Link  303 at Sat May 24 06:07:42 2025, MaxMem=  3758096384 cpu:               0.1 elap:               0.0
 (Enter /apps/easybuild-2022/easybuild/software/Compiler/NVHPC/22.11-CUDA-11.7.0/Gaussian/g16c01-CUDA-11.7.0/g16/l401.exe)
 Initial guess from the checkpoint file:  "/tmp/Gau-173105.chk"
 B after Tr=    -0.011884   -0.018135   -0.084023
         Rot=    0.999830    0.017963    0.000953   -0.003948 Ang=   2.11 deg.
 Guess basis will be translated and rotated to current coordinates.
 JPrj=2 DoOrth=T DoCkMO=T.
 Generating alternative initial guess.
 ExpMin= 9.52D-02 ExpMax= 6.07D+04 ExpMxC= 2.07D+03 IAcc=3 IRadAn=         5 AccDes= 0.00D+00
 Harris functional with IExCor= 1009 and IRadAn=       5 diagonalized for initial guess.
 HarFok:  IExCor= 1009 AccDes= 0.00D+00 IRadAn=         5 IDoV= 1 UseB2=F ITyADJ=14
 ICtDFT=  3500011 ScaDFX=  1.000000  1.000000  1.000000  1.000000
 FoFCou: FMM=F IPFlag=           0 FMFlag=      100000 FMFlg1=           0
         NFxFlg=           0 DoJE=T BraDBF=F KetDBF=T FulRan=T
         wScrn=  0.000000 ICntrl=       500 IOpCl=  0 I1Cent=   200000004 NGrid=           0
         NMat0=    1 NMatS0=      1 NMatT0=    0 NMatD0=    1 NMtDS0=    0 NMtDT0=    0
 Symmetry not used in FoFCou.
 Harris En= -1199.25389314396    
 Leave Link  401 at Sat May 24 06:07:42 2025, MaxMem=  3758096384 cpu:               4.1 elap:               0.6
 (Enter /apps/easybuild-2022/easybuild/software/Compiler/NVHPC/22.11-CUDA-11.7.0/Gaussian/g16c01-CUDA-11.7.0/g16/l502.exe)
 Keep R1 ints in memory in canonical form, NReq=2293447020.
 FoFCou: FMM=F IPFlag=           0 FMFlag=           0 FMFlg1=           0
         NFxFlg=           0 DoJE=F BraDBF=F KetDBF=F FulRan=T
         wScrn=  0.000000 ICntrl=       600 IOpCl=  0 I1Cent=           0 NGrid=           0
         NMat0=    1 NMatS0=  67161 NMatT0=    0 NMatD0=    1 NMtDS0=    0 NMtDT0=    0
 Symmetry not used in FoFCou.
 Two-electron integral symmetry not used.
 Closed shell SCF:
 Using DIIS extrapolation, IDIIS=  1040.
 NGot=  3758096384 LenX=  1502398648 LenY=  1502219278
 Requested convergence on RMS density matrix=1.00D-08 within  32 cycles.
 Requested convergence on MAX density matrix=1.00D-06.
 Requested convergence on             energy=1.00D-06.
 No special actions if energy rises.
 Integral accuracy reduced to 1.0D-05 until final iterations.

 Cycle   1  Pass 0  IDiag  1:
 E= -1199.64680433468    
 DIIS: error= 8.21D-03 at cycle   1 NSaved=   1.
 NSaved= 1 IEnMin= 1 EnMin= -1199.64680433468     IErMin= 1 ErrMin= 8.21D-03
 ErrMax= 8.21D-03  0.00D+00 EMaxC= 1.00D-01 BMatC= 8.49D-02 BMatP= 8.49D-02
 IDIUse=3 WtCom= 9.18D-01 WtEn= 8.21D-02
 Coeff-Com:  0.100D+01
 Coeff-En:   0.100D+01
 Coeff:      0.100D+01
 Gap=     1.047 Goal=   None    Shift=    0.000
 GapD=    1.047 DampG=2.000 DampE=1.000 DampFc=2.0000 IDamp=-1.
 RMSDP=9.30D-04 MaxDP=4.34D-02              OVMax= 6.39D-02

 Cycle   2  Pass 0  IDiag  1:
 E= -1199.74618927845     Delta-E=       -0.099384943771 Rises=F Damp=F
 DIIS: error= 2.78D-03 at cycle   2 NSaved=   2.
 NSaved= 2 IEnMin= 2 EnMin= -1199.74618927845     IErMin= 2 ErrMin= 2.78D-03
 ErrMax= 2.78D-03  0.00D+00 EMaxC= 1.00D-01 BMatC= 3.63D-03 BMatP= 8.49D-02
 IDIUse=3 WtCom= 9.72D-01 WtEn= 2.78D-02
 Coeff-Com: -0.865D-01 0.109D+01
 Coeff-En:   0.000D+00 0.100D+01
 Coeff:     -0.841D-01 0.108D+01
 Gap=     0.247 Goal=   None    Shift=    0.000
 RMSDP=2.50D-04 MaxDP=1.21D-02 DE=-9.94D-02 OVMax= 1.98D-02

 Cycle   3  Pass 0  IDiag  1:
 E= -1199.75009837325     Delta-E=       -0.003909094803 Rises=F Damp=F
 DIIS: error= 1.55D-03 at cycle   3 NSaved=   3.
 NSaved= 3 IEnMin= 3 EnMin= -1199.75009837325     IErMin= 3 ErrMin= 1.55D-03
 ErrMax= 1.55D-03  0.00D+00 EMaxC= 1.00D-01 BMatC= 2.84D-03 BMatP= 3.63D-03
 IDIUse=3 WtCom= 9.84D-01 WtEn= 1.55D-02
 Coeff-Com: -0.777D-01 0.545D+00 0.533D+00
 Coeff-En:   0.000D+00 0.000D+00 0.100D+01
 Coeff:     -0.765D-01 0.537D+00 0.540D+00
 Gap=     0.236 Goal=   None    Shift=    0.000
 RMSDP=1.08D-04 MaxDP=7.36D-03 DE=-3.91D-03 OVMax= 7.21D-03

 Cycle   4  Pass 0  IDiag  1:
 E= -1199.75187167562     Delta-E=       -0.001773302367 Rises=F Damp=F
 DIIS: error= 3.84D-04 at cycle   4 NSaved=   4.
 NSaved= 4 IEnMin= 4 EnMin= -1199.75187167562     IErMin= 4 ErrMin= 3.84D-04
 ErrMax= 3.84D-04  0.00D+00 EMaxC= 1.00D-01 BMatC= 1.52D-04 BMatP= 2.84D-03
 IDIUse=3 WtCom= 9.96D-01 WtEn= 3.84D-03
 Coeff-Com: -0.741D-02-0.156D-01 0.170D+00 0.853D+00
 Coeff-En:   0.000D+00 0.000D+00 0.000D+00 0.100D+01
 Coeff:     -0.738D-02-0.156D-01 0.169D+00 0.853D+00
 Gap=     0.237 Goal=   None    Shift=    0.000
 RMSDP=3.29D-05 MaxDP=1.59D-03 DE=-1.77D-03 OVMax= 2.78D-03

 Cycle   5  Pass 0  IDiag  1:
 E= -1199.75200880248     Delta-E=       -0.000137126862 Rises=F Damp=F
 DIIS: error= 1.03D-04 at cycle   5 NSaved=   5.
 NSaved= 5 IEnMin= 5 EnMin= -1199.75200880248     IErMin= 5 ErrMin= 1.03D-04
 ErrMax= 1.03D-04  0.00D+00 EMaxC= 1.00D-01 BMatC= 1.22D-05 BMatP= 1.52D-04
 IDIUse=3 WtCom= 9.99D-01 WtEn= 1.03D-03
 Coeff-Com:  0.257D-02-0.432D-01 0.254D-01 0.307D+00 0.709D+00
 Coeff-En:   0.000D+00 0.000D+00 0.000D+00 0.000D+00 0.100D+01
 Coeff:      0.257D-02-0.432D-01 0.253D-01 0.306D+00 0.709D+00
 Gap=     0.237 Goal=   None    Shift=    0.000
 RMSDP=1.02D-05 MaxDP=5.05D-04 DE=-1.37D-04 OVMax= 9.32D-04

 Cycle   6  Pass 0  IDiag  1:
 E= -1199.75202111846     Delta-E=       -0.000012315981 Rises=F Damp=F
 DIIS: error= 6.16D-05 at cycle   6 NSaved=   6.
 NSaved= 6 IEnMin= 6 EnMin= -1199.75202111846     IErMin= 6 ErrMin= 6.16D-05
 ErrMax= 6.16D-05  0.00D+00 EMaxC= 1.00D-01 BMatC= 2.61D-06 BMatP= 1.22D-05
 IDIUse=1 WtCom= 1.00D+00 WtEn= 0.00D+00
 Coeff-Com:  0.193D-02-0.176D-01-0.997D-02 0.329D-01 0.332D+00 0.661D+00
 Coeff:      0.193D-02-0.176D-01-0.997D-02 0.329D-01 0.332D+00 0.661D+00
 Gap=     0.237 Goal=   None    Shift=    0.000
 RMSDP=4.76D-06 MaxDP=1.66D-04 DE=-1.23D-05 OVMax= 5.59D-04

 Initial convergence to 1.0D-05 achieved.  Increase integral accuracy.
 Cycle   7  Pass 1  IDiag  1:
 E= -1199.75201817071     Delta-E=        0.000002947751 Rises=F Damp=F
 DIIS: error= 2.41D-05 at cycle   1 NSaved=   1.
 NSaved= 1 IEnMin= 1 EnMin= -1199.75201817071     IErMin= 1 ErrMin= 2.41D-05
 ErrMax= 2.41D-05  0.00D+00 EMaxC= 1.00D-01 BMatC= 1.05D-06 BMatP= 1.05D-06
 IDIUse=1 WtCom= 1.00D+00 WtEn= 0.00D+00
 Coeff-Com:  0.100D+01
 Coeff:      0.100D+01
 Gap=     0.237 Goal=   None    Shift=    0.000
 RMSDP=4.76D-06 MaxDP=1.66D-04 DE= 2.95D-06 OVMax= 3.84D-04

 Cycle   8  Pass 1  IDiag  1:
 E= -1199.75201912112     Delta-E=       -0.000000950409 Rises=F Damp=F
 DIIS: error= 1.82D-05 at cycle   2 NSaved=   2.
 NSaved= 2 IEnMin= 2 EnMin= -1199.75201912112     IErMin= 2 ErrMin= 1.82D-05
 ErrMax= 1.82D-05  0.00D+00 EMaxC= 1.00D-01 BMatC= 3.28D-07 BMatP= 1.05D-06
 IDIUse=1 WtCom= 1.00D+00 WtEn= 0.00D+00
 Coeff-Com:  0.278D+00 0.722D+00
 Coeff:      0.278D+00 0.722D+00
 Gap=     0.237 Goal=   None    Shift=    0.000
 RMSDP=1.75D-06 MaxDP=8.59D-05 DE=-9.50D-07 OVMax= 1.76D-04

 Cycle   9  Pass 1  IDiag  1:
 E= -1199.75201928438     Delta-E=       -0.000000163262 Rises=F Damp=F
 DIIS: error= 1.46D-05 at cycle   3 NSaved=   3.
 NSaved= 3 IEnMin= 3 EnMin= -1199.75201928438     IErMin= 3 ErrMin= 1.46D-05
 ErrMax= 1.46D-05  0.00D+00 EMaxC= 1.00D-01 BMatC= 1.80D-07 BMatP= 3.28D-07
 IDIUse=1 WtCom= 1.00D+00 WtEn= 0.00D+00
 Coeff-Com: -0.497D-01 0.424D+00 0.625D+00
 Coeff:     -0.497D-01 0.424D+00 0.625D+00
 Gap=     0.237 Goal=   None    Shift=    0.000
 RMSDP=9.89D-07 MaxDP=4.76D-05 DE=-1.63D-07 OVMax= 1.33D-04

 Cycle  10  Pass 1  IDiag  1:
 E= -1199.75201943538     Delta-E=       -0.000000150998 Rises=F Damp=F
 DIIS: error= 2.45D-06 at cycle   4 NSaved=   4.
 NSaved= 4 IEnMin= 4 EnMin= -1199.75201943538     IErMin= 4 ErrMin= 2.45D-06
 ErrMax= 2.45D-06  0.00D+00 EMaxC= 1.00D-01 BMatC= 7.18D-09 BMatP= 1.80D-07
 IDIUse=1 WtCom= 1.00D+00 WtEn= 0.00D+00
 Coeff-Com: -0.309D-01 0.824D-01 0.207D+00 0.742D+00
 Coeff:     -0.309D-01 0.824D-01 0.207D+00 0.742D+00
 Gap=     0.237 Goal=   None    Shift=    0.000
 RMSDP=3.52D-07 MaxDP=1.46D-05 DE=-1.51D-07 OVMax= 5.36D-05

 Cycle  11  Pass 1  IDiag  1:
 E= -1199.75201944896     Delta-E=       -0.000000013582 Rises=F Damp=F
 DIIS: error= 1.79D-06 at cycle   5 NSaved=   5.
 NSaved= 5 IEnMin= 5 EnMin= -1199.75201944896     IErMin= 5 ErrMin= 1.79D-06
 ErrMax= 1.79D-06  0.00D+00 EMaxC= 1.00D-01 BMatC= 1.66D-09 BMatP= 7.18D-09
 IDIUse=1 WtCom= 1.00D+00 WtEn= 0.00D+00
 Coeff-Com:  0.297D-02-0.997D-01-0.978D-01 0.265D+00 0.930D+00
 Coeff:      0.297D-02-0.997D-01-0.978D-01 0.265D+00 0.930D+00
 Gap=     0.237 Goal=   None    Shift=    0.000
 RMSDP=2.79D-07 MaxDP=1.31D-05 DE=-1.36D-08 OVMax= 5.79D-05

 Cycle  12  Pass 1  IDiag  1:
 E= -1199.75201945469     Delta-E=       -0.000000005729 Rises=F Damp=F
 DIIS: error= 5.40D-07 at cycle   6 NSaved=   6.
 NSaved= 6 IEnMin= 6 EnMin= -1199.75201945469     IErMin= 6 ErrMin= 5.40D-07
 ErrMax= 5.40D-07  0.00D+00 EMaxC= 1.00D-01 BMatC= 4.75D-10 BMatP= 1.66D-09
 IDIUse=1 WtCom= 1.00D+00 WtEn= 0.00D+00
 Coeff-Com:  0.659D-02-0.643D-01-0.814D-01-0.130D-01 0.461D+00 0.691D+00
 Coeff:      0.659D-02-0.643D-01-0.814D-01-0.130D-01 0.461D+00 0.691D+00
 Gap=     0.237 Goal=   None    Shift=    0.000
 RMSDP=1.03D-07 MaxDP=4.44D-06 DE=-5.73D-09 OVMax= 1.93D-05

 Cycle  13  Pass 1  IDiag  1:
 E= -1199.75201945542     Delta-E=       -0.000000000733 Rises=F Damp=F
 DIIS: error= 2.39D-07 at cycle   7 NSaved=   7.
 NSaved= 7 IEnMin= 7 EnMin= -1199.75201945542     IErMin= 7 ErrMin= 2.39D-07
 ErrMax= 2.39D-07  0.00D+00 EMaxC= 1.00D-01 BMatC= 2.83D-11 BMatP= 4.75D-10
 IDIUse=1 WtCom= 1.00D+00 WtEn= 0.00D+00
 Coeff-Com:  0.118D-02-0.296D-02-0.534D-02-0.429D-01 0.169D-02 0.169D+00
 Coeff-Com:  0.879D+00
 Coeff:      0.118D-02-0.296D-02-0.534D-02-0.429D-01 0.169D-02 0.169D+00
 Coeff:      0.879D+00
 Gap=     0.237 Goal=   None    Shift=    0.000
 RMSDP=3.49D-08 MaxDP=1.59D-06 DE=-7.33D-10 OVMax= 7.62D-06

 Cycle  14  Pass 1  IDiag  1:
 E= -1199.75201945553     Delta-E=       -0.000000000113 Rises=F Damp=F
 DIIS: error= 9.23D-08 at cycle   8 NSaved=   8.
 NSaved= 8 IEnMin= 8 EnMin= -1199.75201945553     IErMin= 8 ErrMin= 9.23D-08
 ErrMax= 9.23D-08  0.00D+00 EMaxC= 1.00D-01 BMatC= 7.47D-12 BMatP= 2.83D-11
 IDIUse=1 WtCom= 1.00D+00 WtEn= 0.00D+00
 Coeff-Com: -0.562D-03 0.878D-02 0.111D-01-0.159D-01-0.698D-01-0.472D-01
 Coeff-Com:  0.363D+00 0.751D+00
 Coeff:     -0.562D-03 0.878D-02 0.111D-01-0.159D-01-0.698D-01-0.472D-01
 Coeff:      0.363D+00 0.751D+00
 Gap=     0.237 Goal=   None    Shift=    0.000
 RMSDP=1.27D-08 MaxDP=5.70D-07 DE=-1.13D-10 OVMax= 2.47D-06

 Cycle  15  Pass 1  IDiag  1:
 E= -1199.75201945554     Delta-E=       -0.000000000002 Rises=F Damp=F
 DIIS: error= 3.36D-08 at cycle   9 NSaved=   9.
 NSaved= 9 IEnMin= 9 EnMin= -1199.75201945554     IErMin= 9 ErrMin= 3.36D-08
 ErrMax= 3.36D-08  0.00D+00 EMaxC= 1.00D-01 BMatC= 1.30D-12 BMatP= 7.47D-12
 IDIUse=1 WtCom= 1.00D+00 WtEn= 0.00D+00
 Coeff-Com: -0.390D-03 0.428D-02 0.574D-02-0.144D-02-0.323D-01-0.461D-01
 Coeff-Com:  0.502D-01 0.356D+00 0.664D+00
 Coeff:     -0.390D-03 0.428D-02 0.574D-02-0.144D-02-0.323D-01-0.461D-01
 Coeff:      0.502D-01 0.356D+00 0.664D+00
 Gap=     0.237 Goal=   None    Shift=    0.000
 RMSDP=4.24D-09 MaxDP=1.78D-07 DE=-2.27D-12 OVMax= 8.59D-07

 SCF Done:  E(RM062X) =  -1199.75201946     A.U. after   15 cycles
            NFock= 15  Conv=0.42D-08     -V/T= 2.0028
 KE= 1.196378419538D+03 PE=-4.741913864670D+03 EE= 1.397669450611D+03
 Leave Link  502 at Sat May 24 06:08:27 2025, MaxMem=  3758096384 cpu:             173.5 elap:              44.3
 (Enter /apps/easybuild-2022/easybuild/software/Compiler/NVHPC/22.11-CUDA-11.7.0/Gaussian/g16c01-CUDA-11.7.0/g16/l508.exe)
 QCSCF skips out because SCF is already converged.
 Leave Link  508 at Sat May 24 06:08:27 2025, MaxMem=  3758096384 cpu:               0.0 elap:               0.0
 (Enter /apps/easybuild-2022/easybuild/software/Compiler/NVHPC/22.11-CUDA-11.7.0/Gaussian/g16c01-CUDA-11.7.0/g16/l801.exe)
 DoSCS=F DFT=T ScalE2(SS,OS)=  1.000000  1.000000
 Range of M.O.s used for correlation:     1   366
 NBasis=   366 NAE=    49 NBE=    49 NFC=     0 NFV=     0
 NROrb=    366 NOA=    49 NOB=    49 NVA=   317 NVB=   317

 **** Warning!!: The largest alpha MO coefficient is  0.16365711D+02

 Leave Link  801 at Sat May 24 06:08:27 2025, MaxMem=  3758096384 cpu:               0.0 elap:               0.0
 (Enter /apps/easybuild-2022/easybuild/software/Compiler/NVHPC/22.11-CUDA-11.7.0/Gaussian/g16c01-CUDA-11.7.0/g16/l1101.exe)
 Using compressed storage, NAtomX=    12.
 Will process     13 centers per pass.
   1 Symmetry operations used in ECPInt.
 ECPInt:  NShTT=    8515 NPrTT=   27988 LenC2=    8078 LenP2D=   19716.
 LDataN:  DoStor=T MaxTD1= 7 Len=  274
 Leave Link 1101 at Sat May 24 06:08:27 2025, MaxMem=  3758096384 cpu:               1.0 elap:               0.2
 (Enter /apps/easybuild-2022/easybuild/software/Compiler/NVHPC/22.11-CUDA-11.7.0/Gaussian/g16c01-CUDA-11.7.0/g16/l1102.exe)
 Symmetrizing basis deriv contribution to polar:
 IMax=3 JMax=2 DiffMx= 0.00D+00
 Leave Link 1102 at Sat May 24 06:08:27 2025, MaxMem=  3758096384 cpu:               0.1 elap:               0.0
 (Enter /apps/easybuild-2022/easybuild/software/Compiler/NVHPC/22.11-CUDA-11.7.0/Gaussian/g16c01-CUDA-11.7.0/g16/l1110.exe)
 Forming Gx(P) for the SCF density, NAtomX=    12.
 Integral derivatives from FoFJK, PRISM(SPDF).
 Do as many integral derivatives as possible in FoFJK.
 G2DrvN: MDV=    3758094988.
 G2DrvN: will do    13 centers at a time, making    1 passes.
 Calling FoFCou, ICntrl=  3107 FMM=F I1Cent=   0 AccDes= 0.00D+00.
 FoFJK:  IHMeth= 1 ICntrl=    3107 DoSepK=F KAlg= 0 I1Cent=           0 FoldK=F
 IRaf=         0 NMat=       1 IRICut=       1 DoRegI=T DoRafI=F ISym2E= 0 IDoP0=0 IntGTp=1.
 FoFCou: FMM=F IPFlag=           0 FMFlag=      100000 FMFlg1=           0
         NFxFlg=           0 DoJE=F BraDBF=F KetDBF=F FulRan=T
         wScrn=  0.000000 ICntrl=      3107 IOpCl=  0 I1Cent=           0 NGrid=           0
         NMat0=    1 NMatS0=      1 NMatT0=    0 NMatD0=    1 NMtDS0=    0 NMtDT0=    0
 Symmetry not used in FoFCou.
 End of G2Drv F.D. properties file   721 does not exist.
 End of G2Drv F.D. properties file   722 does not exist.
 End of G2Drv F.D. properties file   788 does not exist.
 Leave Link 1110 at Sat May 24 06:09:25 2025, MaxMem=  3758096384 cpu:             459.3 elap:              57.8
 (Enter /apps/easybuild-2022/easybuild/software/Compiler/NVHPC/22.11-CUDA-11.7.0/Gaussian/g16c01-CUDA-11.7.0/g16/l1002.exe)
 Minotr:  Closed shell wavefunction.
          IDoAtm=111111111111
          Direct CPHF calculation.
          Differentiating once with respect to electric field.
                with respect to dipole field.
          Differentiating once with respect to nuclear coordinates.
          Requested convergence is 1.0D-08 RMS, and 1.0D-07 maximum.
          Secondary convergence is 1.0D-12 RMS, and 1.0D-12 maximum.
          NewPWx=T KeepS1=F KeepF1=F KeepIn=T MapXYZ=F SortEE=F KeepMc=T.
         3598 words used for storage of precomputed grid.
 Keep R1 ints in memory in canonical form, NReq=2293452928.
 FoFCou: FMM=F IPFlag=           0 FMFlag=           0 FMFlg1=           0
         NFxFlg=           0 DoJE=F BraDBF=F KetDBF=F FulRan=T
         wScrn=  0.000000 ICntrl=       600 IOpCl=  0 I1Cent=           0 NGrid=           0
         NMat0=    1 NMatS0=  67161 NMatT0=    0 NMatD0=    1 NMtDS0=    0 NMtDT0=    0
 Symmetry not used in FoFCou.
 Two-electron integral symmetry not used.
          MDV=    3758096384 using IRadAn=       1.
          Solving linear equations simultaneously, MaxMat=       0.
          There are    39 degrees of freedom in the 1st order CPHF.  IDoFFX=6 NUNeed=     3.
     36 vectors produced by pass  0 Test12= 3.98D-14 2.56D-09 XBig12= 3.11D+01 1.77D+00.
 AX will form    36 AO Fock derivatives at one time.
     36 vectors produced by pass  1 Test12= 3.98D-14 2.56D-09 XBig12= 5.16D+00 3.15D-01.
     36 vectors produced by pass  2 Test12= 3.98D-14 2.56D-09 XBig12= 1.57D-01 6.09D-02.
     36 vectors produced by pass  3 Test12= 3.98D-14 2.56D-09 XBig12= 4.57D-03 9.25D-03.
     36 vectors produced by pass  4 Test12= 3.98D-14 2.56D-09 XBig12= 7.89D-05 1.13D-03.
     36 vectors produced by pass  5 Test12= 3.98D-14 2.56D-09 XBig12= 7.75D-07 1.02D-04.
     36 vectors produced by pass  6 Test12= 3.98D-14 2.56D-09 XBig12= 5.83D-09 1.26D-05.
     27 vectors produced by pass  7 Test12= 3.98D-14 2.56D-09 XBig12= 3.31D-11 7.76D-07.
      5 vectors produced by pass  8 Test12= 3.98D-14 2.56D-09 XBig12= 1.64D-13 3.92D-08.
      2 vectors produced by pass  9 Test12= 3.98D-14 2.56D-09 XBig12= 8.83D-16 2.68D-09.
 InvSVY:  IOpt=1 It=  1 EMax= 2.66D-15
 Solved reduced A of dimension   286 with    39 vectors.
 FullF1:  Do perturbations      1 to       3.
 Isotropic polarizability for W=    0.000000       58.60 Bohr**3.
 End of Minotr F.D. properties file   721 does not exist.
 End of Minotr F.D. properties file   722 does not exist.
 End of Minotr F.D. properties file   788 does not exist.
[...]
     18  0.164678D-02  0.517220D-02 -0.292936D-01  0.124777D+00 -0.407728D+00
     19  0.448731D-02  0.225215D-02 -0.342350D+00  0.650893D-01  0.318469D+00
     20  0.382762D-02  0.120589D-03  0.541739D-01 -0.766730D-01 -0.552391D-01
     21 -0.385564D-03  0.457645D-03  0.298013D+00 -0.716390D-01 -0.450214D+00
     22 -0.106711D-01 -0.484799D-03 -0.715948D-01 -0.103351D-01  0.144057D-01
     23  0.102261D-01  0.160629D-02 -0.194087D-01 -0.216862D+00  0.122727D-02
     24  0.213155D-02  0.150855D-02  0.668556D-02 -0.240267D-01 -0.824924D-01
     25  0.931121D-02 -0.360020D-02 -0.224535D-01  0.551582D-01  0.243943D-01
     26 -0.408589D-02 -0.119861D-02  0.340097D-01  0.171032D-01  0.114553D-01
     27 -0.279407D-02  0.490189D-02 -0.469529D-02 -0.229000D-01 -0.563715D-01
     28 -0.262922D-02 -0.317719D-02 -0.154863D-01  0.422880D-03 -0.299188D-01
     29  0.151729D-02  0.653591D-02  0.500950D-02 -0.509139D-02  0.951725D-02
     30  0.263758D-02  0.339144D-02  0.100753D-02 -0.114230D-01  0.951878D-02
     31 -0.887385D-03 -0.863545D-03  0.849437D-03  0.178915D-01  0.153173D-02
     32 -0.243413D-02  0.120717D-02  0.359801D-03  0.210651D-02 -0.844338D-02
     33  0.538436D-02 -0.519312D-03 -0.545475D-02 -0.292196D-02 -0.108160D-01
     34  0.356981D-02  0.946740D-03 -0.204154D-02  0.227993D-02  0.676167D-03
     35  0.240467D-03  0.497909D-03  0.129732D-01 -0.176096D-01 -0.388641D-01
     36  0.132536D-02  0.176627D-03  0.304918D-02 -0.774451D-02 -0.102427D-02
               16            17            18            19            20 
     16  0.794925D-01
     17 -0.207196D-01  0.136656D+00
     18  0.805312D-01 -0.915477D-01  0.502797D+00
     19  0.197968D-01  0.427592D-02 -0.952719D-02  0.329105D+00
     20 -0.298807D-02  0.130922D-01  0.330408D-02 -0.536935D-01  0.123591D+00
     21  0.223395D-01 -0.682584D-03 -0.816818D-03 -0.344479D+00  0.810604D-01
     22  0.196044D-01  0.924128D-02 -0.358348D-02  0.104731D-02  0.315067D-01
     23 -0.697384D-02 -0.361332D-01  0.175815D-01  0.409966D-02 -0.241794D-01
     24  0.861004D-02  0.457088D-01 -0.897665D-02  0.166241D-01 -0.487003D-01
     25  0.164981D-01 -0.133398D-01 -0.270987D-01 -0.115059D-01 -0.332566D-01
     26 -0.471733D-02 -0.193976D-01 -0.381930D-01 -0.205405D-01 -0.231269D-01
     27 -0.207338D-01 -0.504226D-01 -0.123482D-01  0.130009D-01  0.228069D-01
     28 -0.424499D-01 -0.166028D-01  0.406203D-01  0.287505D-02  0.217034D-04
     29  0.191461D-02  0.117002D-01 -0.415534D-02 -0.763094D-03  0.729065D-03
     30  0.227998D-01  0.119573D-01 -0.932644D-02  0.168911D-02  0.182492D-02
     31  0.183949D-02 -0.264946D-02 -0.301970D-04 -0.108408D-02 -0.391598D-02
     32 -0.837896D-02 -0.495742D-02  0.505860D-02 -0.162808D-02 -0.169458D-03
     33 -0.116354D-02 -0.207362D-02  0.690698D-02  0.259710D-02  0.125746D-02
     34 -0.275171D-02 -0.338324D-02  0.260796D-03  0.165109D-02  0.258782D-02
     35  0.447020D-03  0.634033D-02  0.117915D-02  0.202116D-02 -0.681002D-02
     36 -0.450509D-03  0.627926D-02 -0.494993D-02 -0.186951D-02  0.256453D-02
               21            22            23            24            25 
     21  0.455919D+00
     22  0.178182D-01  0.112207D+00
     23 -0.151554D-01 -0.273234D-01  0.368072D+00
     24 -0.149852D-01 -0.163036D+00  0.135823D+00  0.538405D+00
     25  0.104753D-01  0.404153D-02  0.184357D-03 -0.214530D-02  0.684003D-01
     26  0.130220D-01 -0.601489D-02 -0.593804D-02 -0.355850D-02 -0.135174D-01
     27  0.380778D-02  0.713062D-03 -0.197878D-04  0.711599D-02 -0.173102D-02
     28  0.396514D-02  0.279336D-02 -0.307297D-02  0.291890D-02  0.656142D-02
     29 -0.740012D-03 -0.163668D-02  0.207072D-02 -0.137420D-02  0.297049D-03
     30 -0.183289D-02 -0.154882D-03  0.587381D-02  0.320751D-03  0.834672D-02
     31  0.512660D-03  0.616158D-03 -0.183616D-02  0.144201D-04 -0.364608D-01
     32  0.221229D-02 -0.353851D-03 -0.392671D-02  0.290572D-03 -0.823675D-02
     33  0.240788D-03  0.150309D-02  0.172793D-02  0.188481D-02  0.261397D-01
     34  0.195773D-02 -0.496442D-01  0.409807D-01  0.139190D+00 -0.280366D-03
     35 -0.285196D-02  0.280590D-01 -0.698446D-01 -0.954547D-01 -0.267984D-03
     36  0.457335D-02  0.140109D+00 -0.137030D+00 -0.440719D+00 -0.477624D-03
               26            27            28            29            30 
     26  0.102058D+00
     27  0.230780D-01  0.512957D-01
     28  0.210733D-02 -0.344819D-02  0.745121D-01
     29  0.332145D-02 -0.135741D-02 -0.693762D-02  0.181989D+00
     30 -0.306392D-02 -0.488944D-02 -0.772063D-01  0.165185D+00  0.413403D+00
     31 -0.138459D-01  0.400003D-01  0.217578D-01 -0.467089D-02 -0.283518D-02
     32  0.123069D-01  0.131840D-01 -0.129259D-01 -0.721439D-01 -0.566762D-01
     33  0.909259D-02 -0.145061D-01 -0.131350D-01 -0.780544D-01 -0.165834D-01
     34 -0.122644D-03 -0.605234D-03 -0.743573D-03  0.863172D-03  0.130806D-02
     35  0.803943D-03  0.190565D-02  0.970610D-03 -0.286009D-03 -0.486657D-03
     36  0.929006D-03 -0.259453D-03  0.442884D-03 -0.474958D-03 -0.145145D-02
               31            32            33            34            35 
     31  0.945566D-01
     32  0.146720D+00  0.516637D+00
     33 -0.258067D-01  0.371493D-01  0.106568D+00
     34 -0.107145D-03 -0.217962D-03  0.112226D-03  0.528414D-01
     35  0.320321D-03  0.892830D-03  0.191040D-03 -0.392689D-01  0.906625D-01
     36  0.205655D-03  0.333159D-03 -0.457218D-03 -0.141595D+00  0.134104D+00
               36 
     36  0.441911D+00
 Red2BG is reusing G-inverse.
 Leave Link  716 at Sat May 24 06:40:34 2025, MaxMem=  3758096384 cpu:               0.1 elap:               0.0
 (Enter /apps/easybuild-2022/easybuild/software/Compiler/NVHPC/22.11-CUDA-11.7.0/Gaussian/g16c01-CUDA-11.7.0/g16/l9999.exe)

 ----------------------------------------------------------------------

 Electric dipole moment (input orientation):
 (Debye = 10**-18 statcoulomb cm , SI units = C m)
                  (au)            (Debye)         (10**-30 SI)
   Tot        0.222920D+01      0.566607D+01      0.189000D+02
   x         -0.165342D+01     -0.420258D+01     -0.140183D+02
   y          0.712336D+00      0.181058D+01      0.603944D+01
   z          0.131458D+01      0.334133D+01      0.111455D+02

 Dipole polarizability, Alpha (input orientation).
 (esu units = cm**3 , SI units = C**2 m**2 J**-1)
 Alpha(0;0):
               (au)            (10**-24 esu)      (10**-40 SI)
   iso        0.588991D+02      0.872794D+01      0.971115D+01
   aniso      0.175690D+02      0.260346D+01      0.289674D+01
   xx         0.620581D+02      0.919606D+01      0.102320D+02
   yx         0.562808D+01      0.833996D+00      0.927945D+00
   yy         0.592933D+02      0.878636D+01      0.977614D+01
   zx        -0.763989D+01     -0.113212D+01     -0.125965D+01
   zy         0.121114D+01      0.179473D+00      0.199690D+00
   zz         0.553458D+02      0.820141D+01      0.912530D+01

 ----------------------------------------------------------------------

 Dipole orientation:
     6          1.04941295         -2.54334921          0.62187873
     6         -0.38330188         -0.11072205         -0.18424052
     9         -2.72370364         -0.49181985         -0.88019070
     9         -0.38283000          1.46217744          1.79672736
    16          2.01075729          0.75599842         -2.55861283
     8          4.00436590         -0.78531864         -1.34965054
     8          1.55640258          1.34471893         -5.11964185
     8          2.67491211          3.51014831         -1.48560843
     9          0.60880553         -2.68744206         -3.25207477
     9          2.46373841         -2.36755057          2.57999405
     9          0.16216574         -4.75286346          0.50235712
     1          3.63259096          3.37914159          0.06038227

 Electric dipole moment (dipole orientation):
 (Debye = 10**-18 statcoulomb cm , SI units = C m)
                  (au)            (Debye)         (10**-30 SI)
   Tot        0.222920D+01      0.566607D+01      0.189000D+02
   x          0.000000D+00      0.000000D+00      0.000000D+00
   y          0.000000D+00      0.000000D+00      0.000000D+00
   z          0.222920D+01      0.566607D+01      0.189000D+02

 Dipole polarizability, Alpha (dipole orientation).
 (esu units = cm**3 , SI units = C**2 m**2 J**-1)
 Alpha(0;0):
               (au)            (10**-24 esu)      (10**-40 SI)
   iso        0.588991D+02      0.872794D+01      0.971115D+01
   aniso      0.175690D+02      0.260346D+01      0.289674D+01
   xx         0.522581D+02      0.774385D+01      0.861620D+01
   yx         0.630883D+01      0.934873D+00      0.104019D+01
   yy         0.605257D+02      0.896899D+01      0.997934D+01
   zx        -0.863627D+00     -0.127976D+00     -0.142393D+00
   zy        -0.513779D+01     -0.761342D+00     -0.847108D+00
   zz         0.639134D+02      0.947100D+01      0.105379D+02

 ----------------------------------------------------------------------
 Unable to Open any file for archive entry.
 1\1\GINC-SPARTAN-BM202\Freq\RM062X\def2TZVPP\C2H1F5O3S1\AKHALILOV\24-M
 ay-2025\0\\#P M062X/Def2TZVPP Symm(None) scf(xqc) pop(None) opt(NoFree
 ze,TS,CalcAll,NoEigentest,MaxCycle=999)\\Gaussian input prepared by AS
 E\\0,1\C,-0.0815941165,-1.0714812944,1.0360272257\C,-0.0690636497,-0.1
 162235219,-0.1892157735\F,-0.6358702573,-0.6072689197,-1.260549704\F,-
 0.7223272287,0.9976691965,0.1631778743\S,1.7597136441,0.1003462101,-0.
 1370646452\O,1.8534869989,-0.3011747051,1.2833201075\O,2.6541248436,-0
 .0770365699,-1.2141434261\O,1.7856853493,1.6980063139,-0.0072636585\F,
 1.2750760444,-1.8326709876,-0.3214506664\F,-0.3468485574,-0.5417321242
 ,2.1724671122\F,-0.5160357741,-2.2558146504,1.0241111083\H,1.499959732
 4,1.970112913,0.8732165189\\Version=ES64L-G16RevC.01\HF=-1199.7615197\
 RMSD=3.524e-09\RMSF=2.264e-06\ZeroPoint=0.0511559\Thermal=0.0607672\ET
 ot=-1199.7007525\HTot=-1199.6998084\GTot=-1199.7452222\Dipole=-1.65342
 21,0.7123363,1.3145802\DipoleDeriv=1.9422817,0.5712903,-0.6971963,0.61
 43175,1.7002933,0.2342567,-0.8281498,0.2970221,1.6840423,0.9336279,-0.
 3343623,0.332242,-0.4261246,0.9945443,0.1988441,0.5188034,0.2018499,0.
 9203723,-0.4714769,-0.0923056,-0.3367774,-0.0964121,-0.2678314,-0.1595
 506,-0.4099659,-0.1763936,-0.6165269,-0.5738519,0.3643475,0.0525423,0.
 4225828,-0.6780107,-0.1375632,0.0440915,-0.1118651,-0.256244,1.5591845
 ,0.2188677,-0.301685,0.4934444,2.9764517,-0.068636,-0.6632734,-0.23923
 93,1.9833894,-0.9462647,-0.3009914,0.0202581,-0.3403857,-0.8527322,0.1
 480248,0.1078069,0.2964108,-1.0013328,-0.7815794,-0.0415595,0.2674835,
 -0.0478881,-0.5973914,-0.0002994,0.3773856,0.0138936,-0.7541441,-0.484
 8261,-0.0226137,-0.0139983,-0.2251899,-1.3673091,-0.1047919,-0.0071065
 ,-0.1696358,-0.4323961,-0.665418,0.0415426,0.190891,0.0085327,-1.19663
 06,-0.1205306,0.18985,-0.1906015,-0.6570962,-0.375257,-0.1125077,0.235
 3031,0.1556816,-0.2521399,-0.1948317,0.500856,-0.1087437,-0.8789238,-0
 .4196915,-0.2785871,0.2031893,-0.5909633,-0.8340998,0.1553375,0.111480
 9,0.0902454,-0.2487899,0.2832714,-0.0131207,0.0477478,0.0324046,0.3748
 558,0.0497402,0.0582212,0.0970573,0.2576496\Polar=62.0581218,5.6280827
 ,59.2932941,-7.6398939,1.2111414,55.3458324\PG=Unknown\NImag=1\\0.1504
 4366,0.08271099,0.70873786,-0.01953152,-0.03616165,0.59470967,-0.02503
 660,-0.00687869,-0.02759962,0.48402130,-0.00982759,-0.08276983,0.08300
 226,-0.00227645,0.48891176,-0.01296113,0.07216127,-0.11971756,0.092342
 33,0.05315430,0.56131945,-0.00732338,-0.00467487,-0.00641698,-0.138068
 21,-0.04906006,-0.11926733,0.13700683,0.00289323,0.00527645,0.00111384
 ,-0.05562708,-0.10547281,-0.08472158,0.04599681,0.13898955,-0.01542511
 ,-0.01697839,-0.04023132,-0.12144668,-0.08265751,-0.27425398,0.1502180
 7,0.13912511,0.35035463,-0.00957016,0.01423675,0.00856472,-0.13905664,
 0.10012264,0.01961037,0.01843229,-0.00775785,0.00160860,0.14857620,0.0
 1903710,-0.04407331,-0.00692788,0.10681330,-0.22338734,-0.03151472,0.0
 0477961,-0.04029544,-0.04218433,-0.13978335,0.32073688,-0.00052949,0.0
 0927177,0.00065457,0.02377591,-0.03117499,-0.08032455,0.01344909,-0.05
 736614,-0.02917341,-0.03007783,0.07686152,0.09812490,0.01003834,-0.004
 61815,0.03956890,-0.17886350,-0.02541313,0.02054143,0.00816641,0.00445
 174,-0.00350543,-0.00471205,0.00197373,-0.00158257,0.73116341,-0.06800
 533,0.02069903,0.06896331,-0.02441485,0.01745287,0.00115897,-0.0070629
 1,-0.00892952,-0.00449270,0.02723613,-0.02885408,-0.00498162,-0.062033
 56,0.41168558,0.11438143,0.06852328,0.02573172,-0.02908673,-0.00508443
 ,-0.02954151,-0.02452011,-0.00552959,-0.01356855,0.01591666,-0.0061805
 6,-0.00437055,-0.32433404,-0.04476997,1.02087622,0.04220501,0.03764079
 ,0.00104119,-0.01327340,-0.00545150,-0.02484519,-0.00750643,0.00145390
 ,-0.00610528,-0.00073856,0.00399897,-0.00010826,-0.11271632,0.00377398
 ,-0.08191506,0.07949253,0.05209759,0.00874828,0.00000472,-0.00975088,-
 0.01224702,0.01093588,0.00320895,0.00464465,-0.00216760,-0.00090001,0.
 00658185,-0.00137979,-0.00147800,-0.11502787,0.07338798,-0.02071956,0.
 13665570,-0.04851802,-0.02602257,-0.04168152,0.01291757,0.01014609,-0.
 03149610,-0.00902446,-0.00377471,0.00244775,-0.00725414,0.00164678,0.0
 0517220,-0.02929363,0.12477720,-0.40772808,0.08053120,-0.09154773,0.50
 279683,-0.00947694,-0.00320338,-0.00775315,0.01963381,0.00157797,0.012
 58302,-0.00208337,-0.00172276,-0.00358633,-0.00760926,0.00448731,0.002
 25215,-0.34234960,0.06508925,0.31846882,0.01979677,0.00427592,-0.00952
 719,0.32910510,0.00616814,-0.00673269,-0.00885476,-0.00026590,-0.00492
 462,-0.00074077,0.00034045,0.00137647,0.00059609,-0.00067874,0.0038276
 2,0.00012059,0.05417391,-0.07667299,-0.05523910,-0.00298807,0.01309215
 ,0.00330408,-0.05369346,0.12359085,-0.01106582,-0.00766352,0.00041467,
 -0.00472808,0.00148356,-0.00223108,0.00416872,0.00133981,0.00466613,0.
 00102248,-0.00038556,0.00045765,0.29801311,-0.07163899,-0.45021381,0.0
 2233947,-0.00068258,-0.00081682,-0.34447897,0.08106039,0.45591945,-0.0
 1134123,-0.00107613,-0.00300984,0.00104562,-0.00836438,-0.00160826,-0.
 00402636,-0.00303146,-0.00267149,-0.00474850,-0.01067107,-0.00048480,-
 0.07159480,-0.01033514,0.01440566,0.01960440,0.00924128,-0.00358348,0.
 00104731,0.03150674,0.01781825,0.11220668,0.00918368,0.00317363,-0.008
 28605,0.01495243,-0.02529876,0.00106153,-0.00685357,-0.00135956,-0.004
 40955,-0.00393217,0.01022608,0.00160629,-0.01940870,-0.21686170,0.0012
 2727,-0.00697384,-0.03613318,0.01758148,0.00409966,-0.02417944,-0.0151
 5540,-0.02732342,0.36807151,-0.01269567,-0.00494575,-0.00626438,0.0067
 2669,-0.00556196,0.00421467,-0.00081212,-0.00033154,-0.00001177,-0.002
 08027,0.00213155,0.00150855,0.00668556,-0.02402673,-0.08249242,0.00861
 004,0.04570881,-0.00897665,0.01662408,-0.04870030,-0.01498521,-0.16303
 629,0.13582272,0.53840467,-0.00038053,-0.01094280,-0.04276024,-0.01408
 688,0.00338977,0.01147630,-0.00785702,0.01122087,-0.00301926,-0.002476
 41,0.00931121,-0.00360020,-0.02245348,0.05515815,0.02439429,0.01649814
 ,-0.01333982,-0.02709873,-0.01150588,-0.03325662,0.01047531,0.00404153
 ,0.00018436,-0.00214530,0.06840032,0.00242595,-0.04439286,-0.00453099,
 0.00062105,-0.04015043,-0.01368306,0.00795142,0.00149790,0.00665125,0.
 01164329,-0.00408589,-0.00119861,0.03400967,0.01710320,0.01145532,-0.0
 0471733,-0.01939764,-0.03819304,-0.02054050,-0.02312694,0.01302199,-0.
 00601489,-0.00593804,-0.00355850,-0.01351743,0.10205840,-0.02779454,0.
 01373567,0.03315653,0.01342083,-0.00618590,-0.01668789,-0.00562922,0.0
 0896968,0.00478477,-0.00249773,-0.00279407,0.00490189,-0.00469529,-0.0
 2290003,-0.05637150,-0.02073384,-0.05042261,-0.01234821,0.01300086,0.0
 2280688,0.00380778,0.00071306,-0.00001979,0.00711599,-0.00173102,0.023
 07797,0.05129566,-0.05797496,0.03389059,0.07474512,0.00412681,0.004332
 54,0.00275965,0.00124393,0.00042284,0.00143353,0.00278429,-0.00262922,
 -0.00317719,-0.01548630,0.00042288,-0.02991882,-0.04244993,-0.01660276
 ,0.04062028,0.00287505,0.00002170,0.00396514,0.00279336,-0.00307297,0.
 00291890,0.00656142,0.00210733,-0.00344819,0.07451208,0.00351629,-0.12
 879043,-0.10187441,0.00544185,0.00501487,0.00228021,-0.00018674,-0.000
 03087,0.00451273,-0.00284746,0.00151729,0.00653591,0.00500950,-0.00509
 139,0.00951725,0.00191461,0.01170018,-0.00415534,-0.00076309,0.0007290
 7,-0.00074001,-0.00163668,0.00207072,-0.00137420,0.00029705,0.00332145
 ,-0.00135741,-0.00693762,0.18198904,0.03055830,-0.09190699,-0.36341430
 ,0.02068091,-0.02574963,-0.02191934,-0.00239539,0.00182809,-0.00721634
 ,-0.00379867,0.00263758,0.00339144,0.00100753,-0.01142296,0.00951878,0
 .02279979,0.01195727,-0.00932644,0.00168911,0.00182492,-0.00183289,-0.
 00015488,0.00587381,0.00032075,0.00834672,-0.00306392,-0.00488944,-0.0
 7720630,0.16518464,0.41340264,-0.08392103,-0.13672080,-0.01553957,-0.0
 0257256,-0.00131941,0.00043934,0.00263626,0.00091379,0.00237109,0.0018
 8988,-0.00088739,-0.00086354,0.00084944,0.01789146,0.00153173,0.001839
 49,-0.00264946,-0.00003020,-0.00108408,-0.00391598,0.00051266,0.000616
 16,-0.00183616,0.00001442,-0.03646084,-0.01384591,0.04000031,0.0217578
 1,-0.00467089,-0.00283518,0.09455661,-0.09562395,-0.43675149,0.0140470
 4,-0.02763235,-0.01576120,-0.00973122,0.00496086,0.00420094,0.00136867
 ,0.00295673,-0.00243413,0.00120717,0.00035980,0.00210651,-0.00844338,-
 0.00837896,-0.00495742,0.00505860,-0.00162808,-0.00016946,0.00221229,-
 0.00035385,-0.00392671,0.00029057,-0.00823675,0.01230691,0.01318396,-0
 .01292592,-0.07214391,-0.05667616,0.14672044,0.51663714,0.00422814,0.0
 1974785,-0.08557865,0.01347787,0.00961047,0.01107892,-0.00030197,-0.00
 111102,0.00178175,-0.00219619,0.00538436,-0.00051931,-0.00545475,-0.00
 292196,-0.01081603,-0.00116354,-0.00207362,0.00690698,0.00259710,0.001
 25746,0.00024079,0.00150309,0.00172793,0.00188481,0.02613974,0.0090925
 9,-0.01450612,-0.01313502,-0.07805440,-0.01658342,-0.02580671,0.037149
 30,0.10656752,0.00233783,-0.00036430,-0.00130900,0.00213022,-0.0077104
 0,-0.00107053,-0.00062095,0.00078596,0.00012829,-0.00277109,0.00356981
 ,0.00094674,-0.00204154,0.00227993,0.00067617,-0.00275171,-0.00338324,
 0.00026080,0.00165109,0.00258782,0.00195773,-0.04964417,0.04098072,0.1
 3918996,-0.00028037,-0.00012264,-0.00060523,-0.00074357,0.00086317,0.0
 0130806,-0.00010715,-0.00021796,0.00011223,0.05284141,-0.00457611,-0.0
 0312465,-0.00049543,-0.00098242,-0.00136749,-0.00036080,0.00060003,0.0
 0010224,0.00063624,-0.00029595,0.00024047,0.00049791,0.01297319,-0.017
 60963,-0.03886406,0.00044702,0.00634033,0.00117915,0.00202116,-0.00681
 002,-0.00285196,0.02805901,-0.06984455,-0.09545466,-0.00026798,0.00080
 394,0.00190565,0.00097061,-0.00028601,-0.00048666,0.00032032,0.0008928
 3,0.00019104,-0.03926887,0.09066253,-0.00064658,0.00023901,0.00222058,
 -0.00048101,-0.00098226,-0.00044104,0.00053171,0.00045806,0.00042035,0
 .00118201,0.00132536,0.00017663,0.00304918,-0.00774451,-0.00102427,-0.
 00045051,0.00627926,-0.00494993,-0.00186951,0.00256453,0.00457335,0.14
 010899,-0.13703024,-0.44071902,-0.00047762,0.00092901,-0.00025945,0.00
 044288,-0.00047496,-0.00145145,0.00020565,0.00033316,-0.00045722,-0.14
 159521,0.13410358,0.44191147\\-0.00000107,0.00000065,-0.00000081,0.000
 00083,-0.00000117,-0.00000176,0.00000387,-0.00000311,-0.00000255,-0.00
 000028,-0.00000107,-0.00000513,0.00000109,0.00000030,0.00000207,-0.000
 00231,0.00000211,0.00000280,0.00000333,-0.00000125,0.00000460,-0.00000
 014,0.00000007,-0.00000036,0.00000218,-0.00000087,0.00000409,-0.000004
 15,0.00000242,-0.00000187,-0.00000070,0.00000044,0.00000042,-0.0000026
 6,0.00000149,-0.00000150\\\@
 The archive entry for this job was punched.


 THERE'S NOTHING WRONG WITH FOLLOWING A TRAIN OF THOUGHT...
 AS LONG AS IT ULTIMATELY PULLS INTO THE STATION.
 Job cpu time:       0 days  4 hours 50 minutes 13.4 seconds.
 Elapsed time:       0 days  0 hours 38 minutes 57.5 seconds.
 File lengths (MBytes):  RWF=    173 Int=      0 D2E=      0 Chk=     11 Scr=      1
 Normal termination of Gaussian 16 at Sat May 24 06:40:34 2025.
done
