 Entering Gaussian System, Link 0=g16
 Initial command:
 /apps/easybuild-2022/easybuild/software/Compiler/NVHPC/22.11-CUDA-11.7.0/Gaussian/g16c01-CUDA-11.7.0/g16/l1.exe "/tmp/Gau-52322.inp" -scrdir="/tmp/"
 Entering Link 1 = /apps/easybuild-2022/easybuild/software/Compiler/NVHPC/22.11-CUDA-11.7.0/Gaussian/g16c01-CUDA-11.7.0/g16/l1.exe PID=     52324.
  
 Copyright (c) 1988-2019, Gaussian, Inc.  All Rights Reserved.
  
 This is part of the Gaussian(R) 16 program.  It is based on
 the Gaussian(R) 09 system (copyright 2009, Gaussian, Inc.),
 the Gaussian(R) 03 system (copyright 2003, Gaussian, Inc.),
 the Gaussian(R) 98 system (copyright 1998, Gaussian, Inc.),
 the Gaussian(R) 94 system (copyright 1995, Gaussian, Inc.),
 the Gaussian 92(TM) system (copyright 1992, Gaussian, Inc.),
 the Gaussian 90(TM) system (copyright 1990, Gaussian, Inc.),
 the Gaussian 88(TM) system (copyright 1988, Gaussian, Inc.),
 the Gaussian 86(TM) system (copyright 1986, Carnegie Mellon
 University), and the Gaussian 82(TM) system (copyright 1983,
 Carnegie Mellon University). Gaussian is a federally registered
 trademark of Gaussian, Inc.
  
 This software contains proprietary and confidential information,
 including trade secrets, belonging to Gaussian, Inc.
  
 This software is provided under written license and may be
 used, copied, transmitted, or stored only in accord with that
 written license.
  
 The following legend is applicable only to US Government
 contracts under FAR:
  
                    RESTRICTED RIGHTS LEGEND
  
 Use, reproduction and disclosure by the US Government is
 subject to restrictions as set forth in subparagraphs (a)
 and (c) of the Commercial Computer Software - Restricted
 Rights clause in FAR 52.227-19.
  
 Gaussian, Inc.
 340 Quinnipiac St., Bldg. 40, Wallingford CT 06492
  
  
 ---------------------------------------------------------------
 Warning -- This program may not be used in any manner that
 competes with the business of Gaussian, Inc. or will provide
 assistance to any competitor of Gaussian, Inc.  The licensee
 of this program is prohibited from giving any competitor of
 Gaussian, Inc. access to this program.  By using this program,
 the user acknowledges that Gaussian, Inc. is engaged in the
 business of creating and licensing software in the field of
 computational chemistry and represents and warrants to the
 licensee that it is not a competitor of Gaussian, Inc. and that
 it will not use this program in any manner prohibited above.
 ---------------------------------------------------------------
  

 Cite this work as:
 Gaussian 16, Revision C.01,
 M. J. Frisch, G. W. Trucks, H. B. Schlegel, G. E. Scuseria, 
 M. A. Robb, J. R. Cheeseman, G. Scalmani, V. Barone, 
 G. A. Petersson, H. Nakatsuji, X. Li, M. Caricato, A. V. Marenich, 
 J. Bloino, B. G. Janesko, R. Gomperts, B. Mennucci, H. P. Hratchian, 
 J. V. Ortiz, A. F. Izmaylov, J. L. Sonnenberg, D. Williams-Young, 
 F. Ding, F. Lipparini, F. Egidi, J. Goings, B. Peng, A. Petrone, 
 T. Henderson, D. Ranasinghe, V. G. Zakrzewski, J. Gao, N. Rega, 
 G. Zheng, W. Liang, M. Hada, M. Ehara, K. Toyota, R. Fukuda, 
 J. Hasegawa, M. Ishida, T. Nakajima, Y. Honda, O. Kitao, H. Nakai, 
 T. Vreven, K. Throssell, J. A. Montgomery, Jr., J. E. Peralta, 
 F. Ogliaro, M. J. Bearpark, J. J. Heyd, E. N. Brothers, K. N. Kudin, 
 V. N. Staroverov, T. A. Keith, R. Kobayashi, J. Normand, 
 K. Raghavachari, A. P. Rendell, J. C. Burant, S. S. Iyengar, 
 J. Tomasi, M. Cossi, J. M. Millam, M. Klene, C. Adamo, R. Cammi, 
 J. W. Ochterski, R. L. Martin, K. Morokuma, O. Farkas, 
 J. B. Foresman, and D. J. Fox, Gaussian, Inc., Wallingford CT, 2019.
 
 ******************************************
 Gaussian 16:  ES64L-G16RevC.01  3-Jul-2019
                24-May-2025 
 ******************************************
 %mem=28GB
 %nprocshared=8
 Will use up to    8 processors via shared memory.
 ----------------------------------------------------------------------
 #P M062X/Def2TZVPP Symm(None) scf(xqc) pop(None) freq opt(CalcFC, Tigh
 t)
 ----------------------------------------------------------------------
 1/7=10,10=4,18=20,19=15,26=3,38=1/1,3;
 2/9=110,12=2,15=3,17=6,18=5,40=1/2;
 3/5=44,7=202,11=2,25=1,30=1,71=2,74=-55,140=1/1,2,3;
 4//1;
 5/5=2,8=3,13=1,38=5/2,8;
 8/6=4,10=90,11=11/1;
 11/6=1,8=1,9=11,15=111,16=1,31=1/1,2,10;
 10/6=1,13=1,31=1/2;
 7/10=1,25=1,30=1/1,2,3,16;
 1/7=10,10=4,18=20,19=15,26=3/3(2);
 2/9=110,15=3/2;
 99//99;
 2/9=110,15=3/2;
 3/5=44,7=202,11=2,25=1,30=1,71=1,74=-55/1,2,3;
 4/5=5,16=3,69=1/1;
 5/5=2,8=3,13=1,38=5/2,8;
 7/30=1/1,2,3,16;
 1/7=10,18=20,19=15,26=3/3(-5);
 2/9=110,15=3/2;
 99/9=1/99;
 Leave Link    1 at Sat May 24 08:09:01 2025, MaxMem=  3758096384 cpu:               0.0 elap:               0.0
 (Enter /apps/easybuild-2022/easybuild/software/Compiler/NVHPC/22.11-CUDA-11.7.0/Gaussian/g16c01-CUDA-11.7.0/g16/l101.exe)
 ------------------------------
 Gaussian input prepared by ASE
 ------------------------------
 Symbolic Z-matrix:
 Charge =  0 Multiplicity = 1
 C                     2.54706   0.08539  -2.62814 
 C                     2.51318  -0.52898  -1.26566 
 F                    -0.38154   0.79157   1.08553 
 F                     2.73558  -1.85857  -1.28702 
 S                     1.65752   0.        0. 
 O                     0.        0.        0. 
 O                     1.86982  -0.67224   1.22528 
 O                     1.77927   1.54814   0. 
 F                     2.42184   1.41847  -2.5763 
 F                     3.71364  -0.19399  -3.20763 
 F                     1.59299  -0.37465  -3.43985 
 H                     1.1324    1.94638  -0.60182 
 
 ITRead=  0  0  0  0  0  0  0  0  0  0  0  0
 MicOpt= -1 -1 -1 -1 -1 -1 -1 -1 -1 -1 -1 -1
 NAtoms=     12 NQM=       12 NQMF=       0 NMMI=      0 NMMIF=      0
                NMic=       0 NMicF=      0.
                    Isotopes and Nuclear Properties:
 (Nuclear quadrupole moments (NQMom) in fm**2, nuclear magnetic moments (NMagM)
  in nuclear magnetons)

  Atom         1           2           3           4           5           6           7           8           9          10
 IAtWgt=          12          12          19          19          32          16          16          16          19          19
 AtmWgt=  12.0000000  12.0000000  18.9984032  18.9984032  31.9720718  15.9949146  15.9949146  15.9949146  18.9984032  18.9984032
 NucSpn=           0           0           1           1           0           0           0           0           1           1
 AtZEff=  -0.0000000  -0.0000000  -0.0000000  -0.0000000  -0.0000000  -0.0000000  -0.0000000  -0.0000000  -0.0000000  -0.0000000
 NQMom=    0.0000000   0.0000000   0.0000000   0.0000000   0.0000000   0.0000000   0.0000000   0.0000000   0.0000000   0.0000000
 NMagM=    0.0000000   0.0000000   2.6288670   2.6288670   0.0000000   0.0000000   0.0000000   0.0000000   2.6288670   2.6288670
 AtZNuc=   6.0000000   6.0000000   9.0000000   9.0000000  16.0000000   8.0000000   8.0000000   8.0000000   9.0000000   9.0000000

  Atom        11          12
 IAtWgt=          19           1
 AtmWgt=  18.9984032   1.0078250
 NucSpn=           1           1
 AtZEff=  -0.0000000  -0.0000000
 NQMom=    0.0000000   0.0000000
 NMagM=    2.6288670   2.7928460
 AtZNuc=   9.0000000   1.0000000
 Leave Link  101 at Sat May 24 08:09:01 2025, MaxMem=  3758096384 cpu:               0.2 elap:               0.2
 (Enter /apps/easybuild-2022/easybuild/software/Compiler/NVHPC/22.11-CUDA-11.7.0/Gaussian/g16c01-CUDA-11.7.0/g16/l103.exe)

 GradGradGradGradGradGradGradGradGradGradGradGradGradGradGradGradGradGrad
 Berny optimization.
 Initialization pass.
                           ----------------------------
                           !    Initial Parameters    !
                           ! (Angstroms and Degrees)  !
 --------------------------                            --------------------------
 ! Name  Definition              Value          Derivative Info.                !
 --------------------------------------------------------------------------------
 ! R1    R(1,2)                  1.495          calculate D2E/DX2 analytically  !
 ! R2    R(1,9)                  1.34           calculate D2E/DX2 analytically  !
 ! R3    R(1,10)                 1.3322         calculate D2E/DX2 analytically  !
 ! R4    R(1,11)                 1.3345         calculate D2E/DX2 analytically  !
 ! R5    R(2,4)                  1.3482         calculate D2E/DX2 analytically  !
 ! R6    R(2,5)                  1.6167         calculate D2E/DX2 analytically  !
 ! R7    R(3,6)                  1.3966         calculate D2E/DX2 analytically  !
 ! R8    R(5,6)                  1.6575         calculate D2E/DX2 analytically  !
 ! R9    R(5,7)                  1.4136         calculate D2E/DX2 analytically  !
 ! R10   R(5,8)                  1.5529         calculate D2E/DX2 analytically  !
 ! R11   R(8,12)                 0.9691         calculate D2E/DX2 analytically  !
 ! A1    A(2,1,9)              111.8063         calculate D2E/DX2 analytically  !
 ! A2    A(2,1,10)             109.2748         calculate D2E/DX2 analytically  !
 ! A3    A(2,1,11)             113.3587         calculate D2E/DX2 analytically  !
 ! A4    A(9,1,10)             107.8963         calculate D2E/DX2 analytically  !
 ! A5    A(9,1,11)             107.4389         calculate D2E/DX2 analytically  !
 ! A6    A(10,1,11)            106.8094         calculate D2E/DX2 analytically  !
 ! A7    A(1,2,4)              112.7742         calculate D2E/DX2 analytically  !
 ! A8    A(1,2,5)              126.228          calculate D2E/DX2 analytically  !
 ! A9    A(4,2,5)              114.984          calculate D2E/DX2 analytically  !
 ! A10   A(2,5,6)              121.9546         calculate D2E/DX2 analytically  !
 ! A11   A(2,5,7)              116.3258         calculate D2E/DX2 analytically  !
 ! A12   A(2,5,8)              106.5402         calculate D2E/DX2 analytically  !
 ! A13   A(6,5,7)               98.6375         calculate D2E/DX2 analytically  !
 ! A14   A(6,5,8)               94.4966         calculate D2E/DX2 analytically  !
 ! A15   A(7,5,8)              117.5361         calculate D2E/DX2 analytically  !
 ! A16   A(3,6,5)              105.8544         calculate D2E/DX2 analytically  !
 ! A17   A(5,8,12)             110.936          calculate D2E/DX2 analytically  !
 ! D1    D(9,1,2,4)           -175.4375         calculate D2E/DX2 analytically  !
 ! D2    D(9,1,2,5)             33.4645         calculate D2E/DX2 analytically  !
 ! D3    D(10,1,2,4)           -56.0609         calculate D2E/DX2 analytically  !
 ! D4    D(10,1,2,5)           152.8412         calculate D2E/DX2 analytically  !
 ! D5    D(11,1,2,4)            62.9347         calculate D2E/DX2 analytically  !
 ! D6    D(11,1,2,5)           -88.1633         calculate D2E/DX2 analytically  !
 ! D7    D(1,2,5,6)             64.92           calculate D2E/DX2 analytically  !
 ! D8    D(1,2,5,7)           -174.6742         calculate D2E/DX2 analytically  !
 ! D9    D(1,2,5,8)            -41.4378         calculate D2E/DX2 analytically  !
 ! D10   D(4,2,5,6)            -85.6317         calculate D2E/DX2 analytically  !
 ! D11   D(4,2,5,7)             34.7741         calculate D2E/DX2 analytically  !
 ! D12   D(4,2,5,8)            168.0105         calculate D2E/DX2 analytically  !
 ! D13   D(2,5,6,3)           -166.5828         calculate D2E/DX2 analytically  !
 ! D14   D(7,5,6,3)             64.8503         calculate D2E/DX2 analytically  !
 ! D15   D(8,5,6,3)            -53.9005         calculate D2E/DX2 analytically  !
 ! D16   D(2,5,8,12)            83.5771         calculate D2E/DX2 analytically  !
 ! D17   D(6,5,8,12)           -41.6734         calculate D2E/DX2 analytically  !
 ! D18   D(7,5,8,12)          -143.848          calculate D2E/DX2 analytically  !
 --------------------------------------------------------------------------------
 Trust Radius=3.00D-01 FncErr=1.00D-07 GrdErr=1.00D-06 EigMax=2.50D+02 EigMin=1.00D-04
 Number of steps in this run=     56 maximum allowed number of steps=    100.
 GradGradGradGradGradGradGradGradGradGradGradGradGradGradGradGradGradGrad

 Leave Link  103 at Sat May 24 08:09:01 2025, MaxMem=  3758096384 cpu:               0.0 elap:               0.0
 (Enter /apps/easybuild-2022/easybuild/software/Compiler/NVHPC/22.11-CUDA-11.7.0/Gaussian/g16c01-CUDA-11.7.0/g16/l202.exe)
                          Input orientation:                          
 ---------------------------------------------------------------------
 Center     Atomic      Atomic             Coordinates (Angstroms)
 Number     Number       Type             X           Y           Z
 ---------------------------------------------------------------------
      1          6           0        2.547065    0.085387   -2.628141
      2          6           0        2.513182   -0.528980   -1.265663
      3          9           0       -0.381544    0.791566    1.085526
      4          9           0        2.735583   -1.858567   -1.287016
      5         16           0        1.657522    0.000000    0.000000
      6          8           0        0.000000    0.000000    0.000000
      7          8           0        1.869820   -0.672236    1.225283
      8          8           0        1.779270    1.548142    0.000000
      9          9           0        2.421842    1.418471   -2.576300
     10          9           0        3.713644   -0.193985   -3.207627
     11          9           0        1.592988   -0.374651   -3.439851
     12          1           0        1.132396    1.946379   -0.601824
 ---------------------------------------------------------------------
                    Distance matrix (angstroms):
                    1          2          3          4          5
     1  C    0.000000
     2  C    1.494972   0.000000
     3  F    4.781920   3.956182   0.000000
     4  F    2.369200   1.348228   4.729550   0.000000
     5  S    2.775914   1.616749   2.441871   2.504575   0.000000
     6  O    3.660868   2.863181   1.396610   3.548816   1.657522
     7  O    3.985163   2.576673   2.689031   2.910080   1.413608
     8  O    3.104237   2.540662   2.533751   3.765183   1.552922
     9  F    1.339956   2.349186   4.654133   3.535486   3.038678
    10  F    1.332202   2.307500   6.014403   2.723267   3.814989
    11  F    1.334455   2.365939   5.073251   2.853459   3.460795
    12  H    3.093629   2.911126   2.544162   4.185368   2.103887
                    6          7          8          9         10
     6  O    0.000000
     7  O    2.334405   0.000000
     8  O    2.358505   2.537635   0.000000
     9  F    3.809816   4.373535   2.658389   0.000000
    10  F    4.910973   4.824842   4.131063   2.160404   0.000000
    11  F    3.809271   4.682805   3.945175   2.155924   2.140969
    12  H    2.330859   3.277081   0.969139   2.416591   4.246671
                   11         12
    11  F    0.000000
    12  H    3.695095   0.000000
 Symmetry turned off by external request.
 Stoichiometry    C2HF5O3S
 Rotational constants (GHZ):           1.7826409           0.6764352           0.6020033
 Leave Link  202 at Sat May 24 08:09:01 2025, MaxMem=  3758096384 cpu:               0.0 elap:               0.0
 (Enter /apps/easybuild-2022/easybuild/software/Compiler/NVHPC/22.11-CUDA-11.7.0/Gaussian/g16c01-CUDA-11.7.0/g16/l301.exe)
 Standard basis: def2TZVPP (5D, 7F)
 Ernie: Thresh=  0.10000D-02 Tol=  0.10000D-05 Strict=F.
   366 basis functions,   596 primitive gaussians,   423 cartesian basis functions
    49 alpha electrons       49 beta electrons
       nuclear repulsion energy       896.9088261745 Hartrees.
 IExCor= 4336 DFT=T Ex+Corr=M062X ExCW=0 ScaHFX=  0.540000
 ScaDFX=  1.000000  1.000000  1.000000  1.000000 ScalE2=  1.000000  1.000000
 IRadAn=      5 IRanWt=     -1 IRanGd=            0 ICorTp=0 IEmpDi=  4
 NAtoms=   12 NActive=   12 NUniq=   12 SFac= 1.00D+00 NAtFMM=   60 NAOKFM=F Big=F
 Integral buffers will be    131072 words long.
 Raffenetti 2 integral format.
 Two-electron integral symmetry is turned off.
 Leave Link  301 at Sat May 24 08:09:01 2025, MaxMem=  3758096384 cpu:               0.0 elap:               0.0
 (Enter /apps/easybuild-2022/easybuild/software/Compiler/NVHPC/22.11-CUDA-11.7.0/Gaussian/g16c01-CUDA-11.7.0/g16/l302.exe)
 NPDir=0 NMtPBC=     1 NCelOv=     1 NCel=       1 NClECP=     1 NCelD=      1
         NCelK=      1 NCelE2=     1 NClLst=     1 CellRange=     0.0.
 One-electron integrals computed using PRISM.
   1 Symmetry operations used in ECPInt.
 ECPInt:  NShTT=    8515 NPrTT=   27988 LenC2=    7853 LenP2D=   18967.
 LDataN:  DoStor=T MaxTD1= 6 Len=  172
 NBasis=   366 RedAO= T EigKep=  3.81D-04  NBF=   366
 NBsUse=   366 1.00D-06 EigRej= -1.00D+00 NBFU=   366
 Precomputing XC quadrature grid using
 IXCGrd= 4 IRadAn=           5 IRanWt=          -1 IRanGd=           0 AccXCQ= 0.00D+00.
 Generated NRdTot=       0 NPtTot=           0 NUsed=           0 NTot=          32
 NSgBfM=   418   418   418   418   418 MxSgAt=    12 MxSgA2=    12.
 Leave Link  302 at Sat May 24 08:09:01 2025, MaxMem=  3758096384 cpu:               0.7 elap:               0.2
 (Enter /apps/easybuild-2022/easybuild/software/Compiler/NVHPC/22.11-CUDA-11.7.0/Gaussian/g16c01-CUDA-11.7.0/g16/l303.exe)
 DipDrv:  MaxL=1.
 Leave Link  303 at Sat May 24 08:09:01 2025, MaxMem=  3758096384 cpu:               0.1 elap:               0.0
 (Enter /apps/easybuild-2022/easybuild/software/Compiler/NVHPC/22.11-CUDA-11.7.0/Gaussian/g16c01-CUDA-11.7.0/g16/l401.exe)
 ExpMin= 9.52D-02 ExpMax= 6.07D+04 ExpMxC= 2.07D+03 IAcc=3 IRadAn=         5 AccDes= 0.00D+00
 Harris functional with IExCor= 1009 and IRadAn=       5 diagonalized for initial guess.
 HarFok:  IExCor= 1009 AccDes= 0.00D+00 IRadAn=         5 IDoV= 1 UseB2=F ITyADJ=14
 ICtDFT=  3500011 ScaDFX=  1.000000  1.000000  1.000000  1.000000
 FoFCou: FMM=F IPFlag=           0 FMFlag=      100000 FMFlg1=           0
         NFxFlg=           0 DoJE=T BraDBF=F KetDBF=T FulRan=T
         wScrn=  0.000000 ICntrl=       500 IOpCl=  0 I1Cent=   200000004 NGrid=           0
         NMat0=    1 NMatS0=      1 NMatT0=    0 NMatD0=    1 NMtDS0=    0 NMtDT0=    0
 Symmetry not used in FoFCou.
 Harris En= -1199.12251865647    
 JPrj=0 DoOrth=F DoCkMO=F.
 Leave Link  401 at Sat May 24 08:09:02 2025, MaxMem=  3758096384 cpu:               4.2 elap:               0.6
 (Enter /apps/easybuild-2022/easybuild/software/Compiler/NVHPC/22.11-CUDA-11.7.0/Gaussian/g16c01-CUDA-11.7.0/g16/l502.exe)
 Keep R1 ints in memory in canonical form, NReq=2293446996.
 FoFCou: FMM=F IPFlag=           0 FMFlag=           0 FMFlg1=           0
         NFxFlg=           0 DoJE=F BraDBF=F KetDBF=F FulRan=T
         wScrn=  0.000000 ICntrl=       600 IOpCl=  0 I1Cent=           0 NGrid=           0
         NMat0=    1 NMatS0=  67161 NMatT0=    0 NMatD0=    1 NMtDS0=    0 NMtDT0=    0
 Symmetry not used in FoFCou.
 Two-electron integral symmetry not used.
 Closed shell SCF:
 Using DIIS extrapolation, IDIIS=  1040.
 NGot=  3758096384 LenX=  1502398672 LenY=  1502219302
 Requested convergence on RMS density matrix=1.00D-08 within  32 cycles.
 Requested convergence on MAX density matrix=1.00D-06.
 Requested convergence on             energy=1.00D-06.
 No special actions if energy rises.
 Integral accuracy reduced to 1.0D-05 until final iterations.

 Cycle   1  Pass 0  IDiag  1:
 E= -1199.44109434057    
 DIIS: error= 1.87D-02 at cycle   1 NSaved=   1.
 NSaved= 1 IEnMin= 1 EnMin= -1199.44109434057     IErMin= 1 ErrMin= 1.87D-02
 ErrMax= 1.87D-02  0.00D+00 EMaxC= 1.00D-01 BMatC= 5.21D-01 BMatP= 5.21D-01
 IDIUse=3 WtCom= 8.13D-01 WtEn= 1.87D-01
 Coeff-Com:  0.100D+01
 Coeff-En:   0.100D+01
 Coeff:      0.100D+01
 Gap=     0.272 Goal=   None    Shift=    0.000
 GapD=    0.272 DampG=1.000 DampE=0.500 DampFc=0.5000 IDamp=-1.
 Damping current iteration by 5.00D-01
 RMSDP=2.36D-03 MaxDP=2.61D-01              OVMax= 2.21D-01

 Cycle   2  Pass 0  IDiag  1:
 E= -1199.52879635988     Delta-E=       -0.087702019313 Rises=F Damp=T
 DIIS: error= 5.85D-03 at cycle   2 NSaved=   2.
 NSaved= 2 IEnMin= 2 EnMin= -1199.52879635988     IErMin= 2 ErrMin= 5.85D-03
 ErrMax= 5.85D-03  0.00D+00 EMaxC= 1.00D-01 BMatC= 5.89D-02 BMatP= 5.21D-01
 IDIUse=3 WtCom= 9.41D-01 WtEn= 5.85D-02
 Coeff-Com:  0.872D-01 0.913D+00
 Coeff-En:   0.280D+00 0.720D+00
 Coeff:      0.985D-01 0.901D+00
 Gap=     0.348 Goal=   None    Shift=    0.000
 RMSDP=6.76D-04 MaxDP=5.21D-02 DE=-8.77D-02 OVMax= 1.20D-01

 Cycle   3  Pass 0  IDiag  1:
 E= -1199.68734478569     Delta-E=       -0.158548425816 Rises=F Damp=F
 DIIS: error= 4.98D-03 at cycle   3 NSaved=   3.
 NSaved= 3 IEnMin= 3 EnMin= -1199.68734478569     IErMin= 3 ErrMin= 4.98D-03
 ErrMax= 4.98D-03  0.00D+00 EMaxC= 1.00D-01 BMatC= 2.66D-02 BMatP= 5.89D-02
 IDIUse=3 WtCom= 9.50D-01 WtEn= 4.98D-02
 Coeff-Com: -0.703D-01 0.378D+00 0.692D+00
 Coeff-En:   0.000D+00 0.000D+00 0.100D+01
 Coeff:     -0.668D-01 0.359D+00 0.708D+00
 Gap=     0.304 Goal=   None    Shift=    0.000
 RMSDP=3.51D-04 MaxDP=1.75D-02 DE=-1.59D-01 OVMax= 4.09D-02

 Cycle   4  Pass 0  IDiag  1:
 E= -1199.70206481110     Delta-E=       -0.014720025407 Rises=F Damp=F
 DIIS: error= 2.25D-03 at cycle   4 NSaved=   4.
 NSaved= 4 IEnMin= 4 EnMin= -1199.70206481110     IErMin= 4 ErrMin= 2.25D-03
 ErrMax= 2.25D-03  0.00D+00 EMaxC= 1.00D-01 BMatC= 6.37D-03 BMatP= 2.66D-02
 IDIUse=3 WtCom= 9.78D-01 WtEn= 2.25D-02
 Coeff-Com: -0.479D-01 0.109D+00 0.394D+00 0.545D+00
 Coeff-En:   0.000D+00 0.000D+00 0.155D+00 0.845D+00
 Coeff:     -0.468D-01 0.106D+00 0.388D+00 0.552D+00
 Gap=     0.300 Goal=   None    Shift=    0.000
 RMSDP=1.20D-04 MaxDP=5.13D-03 DE=-1.47D-02 OVMax= 1.29D-02

 Cycle   5  Pass 0  IDiag  1:
 E= -1199.70609954739     Delta-E=       -0.004034736288 Rises=F Damp=F
 DIIS: error= 4.42D-04 at cycle   5 NSaved=   5.
 NSaved= 5 IEnMin= 5 EnMin= -1199.70609954739     IErMin= 5 ErrMin= 4.42D-04
 ErrMax= 4.42D-04  0.00D+00 EMaxC= 1.00D-01 BMatC= 1.74D-04 BMatP= 6.37D-03
 IDIUse=3 WtCom= 9.96D-01 WtEn= 4.42D-03
 Coeff-Com: -0.159D-01 0.269D-01 0.122D+00 0.228D+00 0.639D+00
 Coeff-En:   0.000D+00 0.000D+00 0.000D+00 0.000D+00 0.100D+01
 Coeff:     -0.158D-01 0.268D-01 0.122D+00 0.227D+00 0.640D+00
 Gap=     0.300 Goal=   None    Shift=    0.000
 RMSDP=2.20D-05 MaxDP=1.51D-03 DE=-4.03D-03 OVMax= 2.49D-03

 Cycle   6  Pass 0  IDiag  1:
 E= -1199.70619192269     Delta-E=       -0.000092375299 Rises=F Damp=F
 DIIS: error= 1.37D-04 at cycle   6 NSaved=   6.
 NSaved= 6 IEnMin= 6 EnMin= -1199.70619192269     IErMin= 6 ErrMin= 1.37D-04
 ErrMax= 1.37D-04  0.00D+00 EMaxC= 1.00D-01 BMatC= 2.40D-05 BMatP= 1.74D-04
 IDIUse=3 WtCom= 9.99D-01 WtEn= 1.37D-03
 Coeff-Com: -0.325D-02 0.290D-02 0.189D-01 0.544D-01 0.311D+00 0.616D+00
 Coeff-En:   0.000D+00 0.000D+00 0.000D+00 0.000D+00 0.000D+00 0.100D+01
 Coeff:     -0.324D-02 0.290D-02 0.189D-01 0.543D-01 0.310D+00 0.617D+00
 Gap=     0.301 Goal=   None    Shift=    0.000
 RMSDP=8.97D-06 MaxDP=3.63D-04 DE=-9.24D-05 OVMax= 9.67D-04

 Initial convergence to 1.0D-05 achieved.  Increase integral accuracy.
 Cycle   7  Pass 1  IDiag  1:
 E= -1199.70627357505     Delta-E=       -0.000081652357 Rises=F Damp=F
 DIIS: error= 4.59D-05 at cycle   1 NSaved=   1.
 NSaved= 1 IEnMin= 1 EnMin= -1199.70627357505     IErMin= 1 ErrMin= 4.59D-05
 ErrMax= 4.59D-05  0.00D+00 EMaxC= 1.00D-01 BMatC= 2.71D-06 BMatP= 2.71D-06
 IDIUse=1 WtCom= 1.00D+00 WtEn= 0.00D+00
 Coeff-Com:  0.100D+01
 Coeff:      0.100D+01
 Gap=     0.301 Goal=   None    Shift=    0.000
 RMSDP=8.97D-06 MaxDP=3.63D-04 DE=-8.17D-05 OVMax= 8.67D-04

 Cycle   8  Pass 1  IDiag  1:
 E= -1199.70627321130     Delta-E=        0.000000363744 Rises=F Damp=F
 DIIS: error= 4.87D-05 at cycle   2 NSaved=   2.
 NSaved= 2 IEnMin= 1 EnMin= -1199.70627357505     IErMin= 1 ErrMin= 4.59D-05
 ErrMax= 4.87D-05  0.00D+00 EMaxC= 1.00D-01 BMatC= 4.10D-06 BMatP= 2.71D-06
 IDIUse=1 WtCom= 1.00D+00 WtEn= 0.00D+00
 Coeff-Com:  0.558D+00 0.442D+00
 Coeff:      0.558D+00 0.442D+00
 Gap=     0.301 Goal=   None    Shift=    0.000
 RMSDP=3.39D-06 MaxDP=1.58D-04 DE= 3.64D-07 OVMax= 3.93D-04

 Cycle   9  Pass 1  IDiag  1:
 E= -1199.70627596471     Delta-E=       -0.000002753407 Rises=F Damp=F
 DIIS: error= 9.64D-06 at cycle   3 NSaved=   3.
 NSaved= 3 IEnMin= 3 EnMin= -1199.70627596471     IErMin= 3 ErrMin= 9.64D-06
 ErrMax= 9.64D-06  0.00D+00 EMaxC= 1.00D-01 BMatC= 1.05D-07 BMatP= 2.71D-06
 IDIUse=1 WtCom= 1.00D+00 WtEn= 0.00D+00
 Coeff-Com:  0.457D-01 0.131D+00 0.823D+00
 Coeff:      0.457D-01 0.131D+00 0.823D+00
 Gap=     0.301 Goal=   None    Shift=    0.000
 RMSDP=1.31D-06 MaxDP=6.93D-05 DE=-2.75D-06 OVMax= 9.04D-05

 Cycle  10  Pass 1  IDiag  1:
 E= -1199.70627603260     Delta-E=       -0.000000067895 Rises=F Damp=F
 DIIS: error= 4.79D-06 at cycle   4 NSaved=   4.
 NSaved= 4 IEnMin= 4 EnMin= -1199.70627603260     IErMin= 4 ErrMin= 4.79D-06
 ErrMax= 4.79D-06  0.00D+00 EMaxC= 1.00D-01 BMatC= 3.11D-08 BMatP= 1.05D-07
 IDIUse=1 WtCom= 1.00D+00 WtEn= 0.00D+00
 Coeff-Com: -0.401D-01 0.175D-01 0.421D+00 0.601D+00
 Coeff:     -0.401D-01 0.175D-01 0.421D+00 0.601D+00
 Gap=     0.301 Goal=   None    Shift=    0.000
 RMSDP=4.96D-07 MaxDP=2.52D-05 DE=-6.79D-08 OVMax= 4.49D-05

 Cycle  11  Pass 1  IDiag  1:
 E= -1199.70627605357     Delta-E=       -0.000000020964 Rises=F Damp=F
 DIIS: error= 1.11D-06 at cycle   5 NSaved=   5.
 NSaved= 5 IEnMin= 5 EnMin= -1199.70627605357     IErMin= 5 ErrMin= 1.11D-06
 ErrMax= 1.11D-06  0.00D+00 EMaxC= 1.00D-01 BMatC= 1.68D-09 BMatP= 3.11D-08
 IDIUse=1 WtCom= 1.00D+00 WtEn= 0.00D+00
 Coeff-Com: -0.182D-01-0.585D-02 0.821D-01 0.221D+00 0.721D+00
 Coeff:     -0.182D-01-0.585D-02 0.821D-01 0.221D+00 0.721D+00
 Gap=     0.301 Goal=   None    Shift=    0.000
 RMSDP=1.50D-07 MaxDP=6.35D-06 DE=-2.10D-08 OVMax= 1.86D-05

 Cycle  12  Pass 1  IDiag  1:
 E= -1199.70627605508     Delta-E=       -0.000000001517 Rises=F Damp=F
 DIIS: error= 7.66D-07 at cycle   6 NSaved=   6.
 NSaved= 6 IEnMin= 6 EnMin= -1199.70627605508     IErMin= 6 ErrMin= 7.66D-07
 ErrMax= 7.66D-07  0.00D+00 EMaxC= 1.00D-01 BMatC= 4.34D-10 BMatP= 1.68D-09
 IDIUse=1 WtCom= 1.00D+00 WtEn= 0.00D+00
 Coeff-Com: -0.159D-02-0.640D-02-0.319D-01 0.194D-03 0.357D+00 0.683D+00
 Coeff:     -0.159D-02-0.640D-02-0.319D-01 0.194D-03 0.357D+00 0.683D+00
 Gap=     0.301 Goal=   None    Shift=    0.000
 RMSDP=5.61D-08 MaxDP=2.75D-06 DE=-1.52D-09 OVMax= 7.19D-06

 Cycle  13  Pass 1  IDiag  1:
 E= -1199.70627605542     Delta-E=       -0.000000000338 Rises=F Damp=F
 DIIS: error= 2.09D-07 at cycle   7 NSaved=   7.
 NSaved= 7 IEnMin= 7 EnMin= -1199.70627605542     IErMin= 7 ErrMin= 2.09D-07
 ErrMax= 2.09D-07  0.00D+00 EMaxC= 1.00D-01 BMatC= 5.84D-11 BMatP= 4.34D-10
 IDIUse=1 WtCom= 1.00D+00 WtEn= 0.00D+00
 Coeff-Com:  0.182D-02-0.300D-02-0.306D-01-0.345D-01 0.828D-01 0.332D+00
 Coeff-Com:  0.652D+00
 Coeff:      0.182D-02-0.300D-02-0.306D-01-0.345D-01 0.828D-01 0.332D+00
 Coeff:      0.652D+00
 Gap=     0.301 Goal=   None    Shift=    0.000
 RMSDP=2.02D-08 MaxDP=1.41D-06 DE=-3.38D-10 OVMax= 3.05D-06

 Cycle  14  Pass 1  IDiag  1:
 E= -1199.70627605552     Delta-E=       -0.000000000095 Rises=F Damp=F
 DIIS: error= 3.92D-08 at cycle   8 NSaved=   8.
 NSaved= 8 IEnMin= 8 EnMin= -1199.70627605552     IErMin= 8 ErrMin= 3.92D-08
 ErrMax= 3.92D-08  0.00D+00 EMaxC= 1.00D-01 BMatC= 2.93D-12 BMatP= 5.84D-11
 IDIUse=1 WtCom= 1.00D+00 WtEn= 0.00D+00
 Coeff-Com:  0.655D-03-0.388D-03-0.599D-02-0.949D-02-0.517D-02 0.357D-01
 Coeff-Com:  0.190D+00 0.795D+00
 Coeff:      0.655D-03-0.388D-03-0.599D-02-0.949D-02-0.517D-02 0.357D-01
 Coeff:      0.190D+00 0.795D+00
 Gap=     0.301 Goal=   None    Shift=    0.000
 RMSDP=6.47D-09 MaxDP=2.16D-07 DE=-9.46D-11 OVMax= 1.22D-06

 SCF Done:  E(RM062X) =  -1199.70627606     A.U. after   14 cycles
            NFock= 14  Conv=0.65D-08     -V/T= 2.0028
 KE= 1.196390159571D+03 PE=-4.639785153648D+03 EE= 1.346779891847D+03
 Leave Link  502 at Sat May 24 08:09:39 2025, MaxMem=  3758096384 cpu:             146.5 elap:              37.5
 (Enter /apps/easybuild-2022/easybuild/software/Compiler/NVHPC/22.11-CUDA-11.7.0/Gaussian/g16c01-CUDA-11.7.0/g16/l508.exe)
 QCSCF skips out because SCF is already converged.
 Leave Link  508 at Sat May 24 08:09:39 2025, MaxMem=  3758096384 cpu:               0.0 elap:               0.0
 (Enter /apps/easybuild-2022/easybuild/software/Compiler/NVHPC/22.11-CUDA-11.7.0/Gaussian/g16c01-CUDA-11.7.0/g16/l801.exe)
 DoSCS=F DFT=T ScalE2(SS,OS)=  1.000000  1.000000
 Range of M.O.s used for correlation:     1   366
 NBasis=   366 NAE=    49 NBE=    49 NFC=     0 NFV=     0
 NROrb=    366 NOA=    49 NOB=    49 NVA=   317 NVB=   317

 **** Warning!!: The largest alpha MO coefficient is  0.18910563D+02

 Leave Link  801 at Sat May 24 08:09:39 2025, MaxMem=  3758096384 cpu:               0.0 elap:               0.0
 (Enter /apps/easybuild-2022/easybuild/software/Compiler/NVHPC/22.11-CUDA-11.7.0/Gaussian/g16c01-CUDA-11.7.0/g16/l1101.exe)
 Using compressed storage, NAtomX=    12.
 Will process     13 centers per pass.
   1 Symmetry operations used in ECPInt.
 ECPInt:  NShTT=    8515 NPrTT=   27988 LenC2=    7853 LenP2D=   18967.
 LDataN:  DoStor=T MaxTD1= 7 Len=  274
 Leave Link 1101 at Sat May 24 08:09:40 2025, MaxMem=  3758096384 cpu:               1.1 elap:               0.2
 (Enter /apps/easybuild-2022/easybuild/software/Compiler/NVHPC/22.11-CUDA-11.7.0/Gaussian/g16c01-CUDA-11.7.0/g16/l1102.exe)
 Symmetrizing basis deriv contribution to polar:
 IMax=3 JMax=2 DiffMx= 0.00D+00
 Leave Link 1102 at Sat May 24 08:09:40 2025, MaxMem=  3758096384 cpu:               0.1 elap:               0.0
 (Enter /apps/easybuild-2022/easybuild/software/Compiler/NVHPC/22.11-CUDA-11.7.0/Gaussian/g16c01-CUDA-11.7.0/g16/l1110.exe)
 Forming Gx(P) for the SCF density, NAtomX=    12.
 Integral derivatives from FoFJK, PRISM(SPDF).
 Do as many integral derivatives as possible in FoFJK.
 G2DrvN: MDV=    3758095012.
 G2DrvN: will do    13 centers at a time, making    1 passes.
 Calling FoFCou, ICntrl=  3107 FMM=F I1Cent=   0 AccDes= 0.00D+00.
 FoFJK:  IHMeth= 1 ICntrl=    3107 DoSepK=F KAlg= 0 I1Cent=           0 FoldK=F
 IRaf=         0 NMat=       1 IRICut=       1 DoRegI=T DoRafI=F ISym2E= 0 IDoP0=0 IntGTp=1.
 FoFCou: FMM=F IPFlag=           0 FMFlag=      100000 FMFlg1=           0
         NFxFlg=           0 DoJE=F BraDBF=F KetDBF=F FulRan=T
         wScrn=  0.000000 ICntrl=      3107 IOpCl=  0 I1Cent=           0 NGrid=           0
         NMat0=    1 NMatS0=      1 NMatT0=    0 NMatD0=    1 NMtDS0=    0 NMtDT0=    0
 Symmetry not used in FoFCou.
 End of G2Drv F.D. properties file   721 does not exist.
 End of G2Drv F.D. properties file   722 does not exist.
 End of G2Drv F.D. properties file   788 does not exist.
 Leave Link 1110 at Sat May 24 08:10:31 2025, MaxMem=  3758096384 cpu:             407.9 elap:              51.4
 (Enter /apps/easybuild-2022/easybuild/software/Compiler/NVHPC/22.11-CUDA-11.7.0/Gaussian/g16c01-CUDA-11.7.0/g16/l1002.exe)
 Minotr:  Closed shell wavefunction.
          IDoAtm=111111111111
          Direct CPHF calculation.
          Differentiating once with respect to nuclear coordinates.
          Requested convergence is 1.0D-08 RMS, and 1.0D-07 maximum.
          Secondary convergence is 1.0D-12 RMS, and 1.0D-12 maximum.
          NewPWx=T KeepS1=F KeepF1=F KeepIn=T MapXYZ=F SortEE=F KeepMc=T.
         3598 words used for storage of precomputed grid.
 Keep R1 ints in memory in canonical form, NReq=2293452904.
 FoFCou: FMM=F IPFlag=           0 FMFlag=           0 FMFlg1=           0
         NFxFlg=           0 DoJE=F BraDBF=F KetDBF=F FulRan=T
         wScrn=  0.000000 ICntrl=       600 IOpCl=  0 I1Cent=           0 NGrid=           0
         NMat0=    1 NMatS0=  67161 NMatT0=    0 NMatD0=    1 NMtDS0=    0 NMtDT0=    0
 Symmetry not used in FoFCou.
 Two-electron integral symmetry not used.
          MDV=    3758096384 using IRadAn=       1.
          Solving linear equations simultaneously, MaxMat=       0.
          There are    39 degrees of freedom in the 1st order CPHF.  IDoFFX=6 NUNeed=     0.
     33 vectors produced by pass  0 Test12= 3.98D-14 2.56D-09 XBig12= 1.43D-01 1.15D-01.
 AX will form    33 AO Fock derivatives at one time.
     33 vectors produced by pass  1 Test12= 3.98D-14 2.56D-09 XBig12= 2.63D-02 2.90D-02.
     33 vectors produced by pass  2 Test12= 3.98D-14 2.56D-09 XBig12= 1.41D-03 6.64D-03.
     33 vectors produced by pass  3 Test12= 3.98D-14 2.56D-09 XBig12= 3.38D-05 7.74D-04.
     33 vectors produced by pass  4 Test12= 3.98D-14 2.56D-09 XBig12= 5.47D-07 1.02D-04.
     33 vectors produced by pass  5 Test12= 3.98D-14 2.56D-09 XBig12= 6.31D-09 1.35D-05.
     33 vectors produced by pass  6 Test12= 3.98D-14 2.56D-09 XBig12= 6.21D-11 9.08D-07.
     21 vectors produced by pass  7 Test12= 3.98D-14 2.56D-09 XBig12= 3.46D-13 6.82D-08.
      4 vectors produced by pass  8 Test12= 3.98D-14 2.56D-09 XBig12= 1.73D-15 4.63D-09.
 InvSVY:  IOpt=1 It=  1 EMax= 1.11D-15
 Solved reduced A of dimension   256 with    33 vectors.
 End of Minotr F.D. properties file   721 does not exist.
 End of Minotr F.D. properties file   722 does not exist.
 End of Minotr F.D. properties file   788 does not exist.
 Leave Link 1002 at Sat May 24 08:11:50 2025, MaxMem=  3758096384 cpu:             622.7 elap:              79.1
 (Enter /apps/easybuild-2022/easybuild/software/Compiler/NVHPC/22.11-CUDA-11.7.0/Gaussian/g16c01-CUDA-11.7.0/g16/l701.exe)
 ... and contract with generalized density number  0.
 Compute integral second derivatives.
   1 Symmetry operations used in ECPInt.
 ECPInt:  NShTT=    8515 NPrTT=   27988 LenC2=    7853 LenP2D=   18967.
 LDataN:  DoStor=T MaxTD1= 8 Len=  415
 Leave Link  701 at Sat May 24 08:11:51 2025, MaxMem=  3758096384 cpu:               0.7 elap:               0.1
 (Enter /apps/easybuild-2022/easybuild/software/Compiler/NVHPC/22.11-CUDA-11.7.0/Gaussian/g16c01-CUDA-11.7.0/g16/l702.exe)
 L702 exits ... SP integral derivatives will be done elsewhere.
 Leave Link  702 at Sat May 24 08:11:51 2025, MaxMem=  3758096384 cpu:               0.0 elap:               0.0
 (Enter /apps/easybuild-2022/easybuild/software/Compiler/NVHPC/22.11-CUDA-11.7.0/Gaussian/g16c01-CUDA-11.7.0/g16/l703.exe)
 Integral derivatives from FoFJK, PRISM(SPDF).
 Compute integral second derivatives, UseDBF=F ICtDFT=           0.
 Calling FoFJK, ICntrl=    100127 FMM=F ISym2X=0 I1Cent= 0 IOpClX= 0 NMat=1 NMatS=1 NMatT=0.
 FoFJK:  IHMeth= 1 ICntrl=  100127 DoSepK=F KAlg= 0 I1Cent=           0 FoldK=F
 IRaf=         0 NMat=       1 IRICut=       1 DoRegI=T DoRafI=F ISym2E= 0 IDoP0=0 IntGTp=1.
 FoFCou: FMM=F IPFlag=           0 FMFlag=      100000 FMFlg1=         800
         NFxFlg=           0 DoJE=F BraDBF=F KetDBF=F FulRan=T
         wScrn=  0.000000 ICntrl=    100127 IOpCl=  0 I1Cent=           0 NGrid=           0
         NMat0=    1 NMatS0=      1 NMatT0=    0 NMatD0=    1 NMtDS0=    0 NMtDT0=    0
 Symmetry not used in FoFCou.
 Leave Link  703 at Sat May 24 08:13:45 2025, MaxMem=  3758096384 cpu:             912.2 elap:             114.8
 (Enter /apps/easybuild-2022/easybuild/software/Compiler/NVHPC/22.11-CUDA-11.7.0/Gaussian/g16c01-CUDA-11.7.0/g16/l716.exe)
 Dipole        =-3.63238073D-01 9.48995755D-01-4.24981732D-01
 Polarizability= 0.00000000D+00 0.00000000D+00 0.00000000D+00
                 0.00000000D+00 0.00000000D+00 0.00000000D+00
 -------------------------------------------------------------------
 Center     Atomic                   Forces (Hartrees/Bohr)
 Number     Number              X              Y              Z
 -------------------------------------------------------------------
      1        6           0.006401711    0.003844515   -0.003456259
      2        6          -0.007469125   -0.010567949    0.002097928
      3        9          -0.007313599   -0.000635540    0.006039891
      4        9          -0.000115052    0.004857585   -0.001347499
      5       16          -0.006095178   -0.002879272    0.015856409
      6        8          -0.013359291    0.000065954   -0.025428488
      7        8           0.022063361    0.004119976    0.002402508
      8        8           0.012567561    0.000902953   -0.000392232
      9        9          -0.002518862   -0.002026474   -0.000276416
     10        9          -0.001970227    0.000176619    0.001717163
     11        9          -0.001380923   -0.000417492    0.001013701
     12        1          -0.000810377    0.002559124    0.001773293
 -------------------------------------------------------------------
 Cartesian Forces:  Max     0.025428488 RMS     0.007775721
 Force constants in Cartesian coordinates: 
                1             2             3             4             5 
      1  0.533264D+00
      2 -0.691632D-02  0.566374D+00
      3 -0.128679D-01 -0.296546D-01  0.595154D+00
      4 -0.445322D-01  0.470119D-02  0.116561D-01  0.153387D+00
      5 -0.682627D-02 -0.875661D-01  0.754271D-01 -0.103851D+00  0.554448D+00
      6 -0.567311D-02  0.433195D-01 -0.185912D+00 -0.136385D+00  0.586381D-02
      7 -0.174338D-02  0.316820D-02 -0.944073D-02  0.758666D-03 -0.108509D-01
      8  0.495387D-03 -0.216083D-02  0.550538D-02 -0.153853D-02  0.842065D-02
      9 -0.961983D-04 -0.393985D-02  0.880021D-02 -0.866147D-03  0.111050D-01
     10 -0.262892D-02  0.616713D-02 -0.774667D-03 -0.309180D-01  0.525009D-01
     11  0.102379D-01 -0.420638D-01 -0.103069D-01  0.545014D-01 -0.342715D+00
     12 -0.452011D-02  0.288201D-01  0.219772D-02  0.160238D-01 -0.107922D-01
     13 -0.114058D-01 -0.151552D-01  0.104018D-01 -0.659201D-01  0.497705D-01
     14 -0.752459D-02  0.413893D-01 -0.161295D-01  0.393854D-01 -0.980909D-01
     15  0.240526D-01  0.286201D-02 -0.448224D-01  0.102951D+00 -0.956007D-01
     16 -0.115439D-02 -0.566639D-03  0.535980D-03  0.669780D-02  0.384478D-02
     17  0.196993D-02 -0.367526D-02  0.293816D-02  0.216446D-02  0.457321D-02
     18  0.174234D-02 -0.114474D-03  0.395920D-02  0.182452D-02  0.155575D-02
     19  0.500268D-02  0.734669D-02 -0.161948D-02 -0.313534D-02 -0.588457D-02
     20  0.452345D-02 -0.185189D-02 -0.193466D-02 -0.234827D-02  0.105264D-02
     21 -0.739529D-04 -0.993262D-02  0.128468D-01 -0.248898D-02  0.300241D-01
     22 -0.145824D-02  0.382594D-04 -0.315099D-02 -0.758289D-02  0.156096D-01
     23  0.463035D-04 -0.164402D-01  0.777952D-02  0.685745D-04 -0.155033D-01
     24 -0.111548D-02  0.115137D-01 -0.100673D-03 -0.688502D-02 -0.177199D-01
     25 -0.748497D-01  0.115383D-01  0.230174D-02  0.677630D-02  0.384151D-02
     26  0.157884D-01 -0.279073D+00  0.199884D-01  0.575853D-02 -0.367195D-01
     27 -0.526506D-03  0.205948D-01 -0.849829D-01 -0.409587D-02  0.295247D-01
     28 -0.230799D+00  0.267754D-01  0.942121D-01 -0.162188D-01  0.859053D-02
     29  0.303056D-01 -0.821085D-01 -0.127492D-01 -0.388031D-02  0.643358D-02
     30  0.964463D-01 -0.146519D-01 -0.137612D+00  0.409001D-01 -0.799593D-02
     31 -0.170190D+00 -0.417603D-01 -0.922520D-01  0.168496D-02 -0.662845D-02
     32 -0.434047D-01 -0.929994D-01 -0.379118D-01  0.253369D-02  0.720003D-02
     33 -0.993978D-01 -0.400384D-01 -0.172066D+00 -0.241403D-01 -0.190724D-01
     34  0.495195D-03  0.466337D-02  0.998149D-03 -0.997040D-03 -0.116553D-03
     35  0.130482D-02  0.175755D-03 -0.295182D-02  0.250488D-02 -0.153325D-02
     36  0.202978D-02 -0.877818D-02  0.253745D-02  0.150570D-02 -0.231943D-02
                6             7             8             9            10 
      6  0.597181D+00
      7 -0.163956D-02  0.789164D-01
      8  0.265424D-02 -0.549027D-01  0.115769D+00
      9  0.435888D-02 -0.845585D-01  0.153867D+00  0.219449D+00
     10  0.428249D-02 -0.126422D-02 -0.348807D-03  0.139638D-02  0.398452D-01
     11 -0.347661D-02  0.778070D-02 -0.422495D-02 -0.785841D-02 -0.822330D-01
     12 -0.587093D-01 -0.510082D-03  0.151489D-03  0.489428D-03 -0.157422D-01
     13  0.112032D+00 -0.377165D-01  0.154409D-01  0.300157D-01 -0.129749D-01
     14 -0.583578D-01  0.253883D-01 -0.133319D-01 -0.139178D-01  0.288834D-01
     15 -0.264527D+00  0.398195D-01 -0.176870D-01 -0.280939D-01  0.703743D-02
     16  0.332655D-02 -0.435512D-01  0.500369D-01  0.631116D-01 -0.130026D-02
     17 -0.388594D-02  0.331066D-01 -0.113403D+00 -0.147721D+00  0.127008D-02
     18 -0.143272D-02  0.425446D-01 -0.148362D+00 -0.207492D+00  0.205606D-02
     19  0.221434D-01  0.519114D-02 -0.302321D-02 -0.543088D-02 -0.141936D-02
     20 -0.633978D-03 -0.610237D-03  0.107040D-02  0.841274D-03 -0.106025D-02
     21 -0.259876D-01  0.180803D-02  0.228412D-02  0.762947D-02 -0.210115D-02
     22  0.242115D-02 -0.579877D-03 -0.717615D-02 -0.438664D-02  0.518885D-02
     23  0.472130D-02  0.430149D-03  0.668984D-02  0.357356D-02  0.813365D-03
     24  0.158815D-01  0.500229D-02  0.637384D-02  0.246050D-02  0.445566D-02
     25 -0.361581D-02  0.572052D-03 -0.291493D-03 -0.550134D-03  0.244369D-02
     26  0.332770D-02 -0.218561D-02  0.157389D-02  0.239190D-02 -0.114256D-02
     27  0.764372D-02  0.936931D-03 -0.500583D-03 -0.741122D-03  0.517073D-03
     28  0.239800D-01 -0.466823D-03  0.377497D-03  0.568323D-03  0.157577D-02
     29  0.285039D-02 -0.138899D-03  0.153205D-03  0.174072D-03 -0.167038D-02
     30 -0.322736D-01  0.239950D-02 -0.142421D-02 -0.206437D-02 -0.189528D-02
     31 -0.213221D-01  0.132452D-02 -0.469845D-03 -0.972339D-03  0.783307D-03
     32  0.486955D-02  0.525906D-04  0.928316D-04  0.215708D-03 -0.157482D-02
     33 -0.546346D-01  0.291917D-02 -0.158852D-02 -0.273114D-02  0.119615D-02
     34  0.450261D-03 -0.144079D-02  0.140005D-02  0.176895D-02  0.668935D-03
     35 -0.125214D-02 -0.123827D-02 -0.649152D-03  0.126893D-02 -0.160500D-02
     36 -0.158810D-02  0.718894D-03 -0.127344D-02 -0.206512D-02 -0.427932D-03
               11            12            13            14            15 
     11  0.418424D+00
     12  0.724972D-02  0.571677D-01
     13  0.976593D-02 -0.146305D-02  0.415382D+00
     14 -0.388765D-01 -0.251219D-01 -0.130758D+00  0.752256D+00
     15  0.187435D-01  0.251393D-03 -0.371525D-01 -0.178784D+00  0.100269D+01
     16 -0.648022D-03  0.738776D-03 -0.135488D+00 -0.190451D-01 -0.558514D-01
     17 -0.138776D-02  0.967156D-03  0.964235D-02 -0.509846D-01  0.542183D-02
     18 -0.387347D-02  0.955692D-03  0.195765D-02  0.821881D-03 -0.425796D-01
     19 -0.135758D-02 -0.165819D-03 -0.806726D-01  0.499556D-01 -0.753790D-01
     20  0.962091D-02 -0.893527D-03  0.560883D-01 -0.215249D+00  0.245399D+00
     21 -0.750020D-02  0.174699D-02 -0.906807D-01  0.267287D+00 -0.563673D+00
     22  0.426935D-02  0.569305D-02 -0.722080D-01  0.628303D-02 -0.123629D-01
     23 -0.612550D-02 -0.729867D-02 -0.248961D-01 -0.315124D+00 -0.541642D-03
     24 -0.172803D-02 -0.262432D-02 -0.625362D-02  0.401022D-02 -0.797805D-01
     25 -0.257221D-03  0.559433D-03 -0.159858D-02  0.449962D-02  0.441555D-03
     26 -0.312366D-02  0.747980D-02  0.266183D-02 -0.175306D-01 -0.594851D-02
     27  0.689427D-02 -0.532044D-02 -0.127578D-02 -0.398226D-02  0.240246D-02
     28 -0.293628D-02 -0.201283D-02  0.222469D-03 -0.285294D-02 -0.168213D-02
     29  0.442811D-02  0.102170D-02  0.267944D-03 -0.440830D-02  0.178126D-02
     30  0.725825D-03  0.173826D-02  0.201125D-02  0.963463D-02  0.414574D-02
     31  0.833181D-03  0.152849D-02 -0.808952D-02  0.328807D-02  0.352168D-02
     32  0.503896D-02 -0.132695D-02  0.122550D-02 -0.369147D-02  0.176407D-03
     33  0.310390D-02  0.382886D-02 -0.186056D-01  0.972536D-02  0.140278D-01
     34  0.436157D-04 -0.129419D-03  0.104698D-01  0.249762D-02  0.460405D-02
     35  0.100485D-02 -0.256755D-03  0.259466D-01 -0.363582D-01  0.241781D-01
     36 -0.197357D-02 -0.172193D-02 -0.986751D-03  0.481430D-02 -0.432849D-04
               16            17            18            19            20 
     16  0.253849D+00
     17 -0.229522D-01  0.174934D+00
     18 -0.397779D-02  0.145759D+00  0.260318D+00
     19 -0.447316D-01  0.233646D-01 -0.464578D-01  0.108092D+00
     20  0.712040D-02  0.819493D-02  0.137715D-01 -0.674816D-01  0.202060D+00
     21 -0.110072D-01  0.539418D-02 -0.188129D-01  0.103766D+00 -0.284717D+00
     22 -0.291804D-01 -0.444985D-01  0.133689D-02  0.104102D-01  0.103261D-01
     23 -0.193648D-01 -0.260853D-01 -0.897172D-02  0.517540D-03 -0.532267D-02
     24  0.350324D-02 -0.470609D-02  0.605600D-02 -0.197181D-02  0.258842D-01
     25  0.680301D-04 -0.614439D-03 -0.246338D-03  0.300354D-03 -0.623915D-03
     26  0.837394D-03  0.183820D-02  0.663237D-03 -0.122355D-02  0.131530D-02
     27  0.596134D-03  0.336695D-03 -0.214949D-03 -0.757338D-05  0.946217D-03
     28 -0.131148D-03  0.539290D-04  0.240540D-03 -0.128340D-03 -0.603130D-04
     29 -0.636977D-05  0.383763D-03 -0.966148D-04 -0.335255D-03  0.737567D-03
     30  0.943585D-04 -0.114845D-02 -0.134919D-02 -0.787234D-03 -0.846914D-03
     31  0.586881D-03 -0.499231D-03 -0.302335D-03  0.211688D-02  0.345338D-03
     32  0.149094D-03  0.284104D-03 -0.229671D-03 -0.685076D-03  0.306715D-03
     33  0.505142D-03 -0.773051D-03 -0.519891D-03  0.504375D-02  0.190758D-02
     34 -0.566482D-02 -0.300769D-02 -0.718312D-03 -0.102641D-02 -0.621892D-02
     35  0.594497D-03  0.532707D-02 -0.922910D-03 -0.119364D-02 -0.193510D-02
     36 -0.157540D-02 -0.258201D-02  0.111273D-02  0.866749D-03  0.277197D-03
               21            22            23            24            25 
     21  0.587838D+00
     22 -0.661858D-03  0.327302D+00
     23 -0.602261D-02 -0.947751D-01  0.463469D+00
     24  0.803571D-02  0.217394D+00 -0.120438D+00  0.253400D+00
     25 -0.481930D-03  0.287838D-03 -0.173793D-02  0.406672D-02  0.831125D-01
     26  0.300444D-02  0.250165D-03  0.985968D-02 -0.587242D-02 -0.300969D-01
     27 -0.105835D-02  0.406048D-02  0.116347D-02 -0.112237D-01 -0.174673D-02
     28  0.274717D-02 -0.253738D-03  0.256654D-03  0.103121D-02 -0.189652D-01
     29  0.626099D-03  0.538148D-04  0.194670D-02 -0.133809D-02  0.545062D-01
     30 -0.451777D-02  0.620038D-03 -0.215473D-02  0.284620D-04  0.123613D-01
     31 -0.209309D-02  0.135737D-02 -0.734526D-03 -0.104555D-03  0.154927D-02
     32  0.360676D-03  0.243616D-03  0.215060D-02 -0.148580D-02 -0.400483D-01
     33 -0.557976D-02  0.187819D-02 -0.359419D-02  0.999751D-03 -0.121117D-01
     34  0.126786D-02 -0.233283D+00  0.139376D+00 -0.219123D+00  0.303531D-03
     35 -0.807580D-03  0.109376D+00 -0.995150D-01  0.105506D+00 -0.715507D-03
     36  0.153198D-02 -0.212842D+00  0.131783D+00 -0.193133D+00 -0.978157D-03
               26            27            28            29            30 
     26  0.411634D+00
     27  0.170587D-01  0.881017D-01
     28  0.404154D-01  0.151117D-01  0.354463D+00
     29 -0.364134D-01 -0.301706D-01 -0.651684D-01  0.948229D-01
     30 -0.190963D-01  0.689094D-02 -0.130306D+00  0.356975D-01  0.145592D+00
     31 -0.282868D-01 -0.123022D-01 -0.897867D-01 -0.133080D-01 -0.215736D-01
     32 -0.526296D-01 -0.431897D-01 -0.500974D-02  0.140768D-01  0.607910D-03
     33 -0.278862D-01  0.165705D-03 -0.302669D-02  0.102940D-02  0.197845D-01
     34 -0.277636D-02 -0.126770D-02  0.487994D-03 -0.626035D-03 -0.271157D-03
     35 -0.730817D-03  0.132419D-02 -0.441732D-03 -0.524363D-04  0.652534D-03
     36  0.488918D-02 -0.166314D-02 -0.863816D-03  0.117403D-02 -0.362972D-03
               31            32            33            34            35 
     31  0.259554D+00
     32  0.872622D-01  0.120291D+00
     33  0.146216D+00  0.767286D-01  0.197770D+00
     34 -0.890679D-03 -0.744141D-03 -0.476021D-03  0.230877D+00
     35 -0.417175D-04 -0.120839D-03  0.457861D-03 -0.134491D+00  0.134387D+00
     36 -0.343637D-03  0.118506D-02 -0.104577D-02  0.212896D+00 -0.127197D+00
               36 
     36  0.196441D+00
 FormGI is forming the generalized inverse of G from B-inverse, IUseBI=4.
 Leave Link  716 at Sat May 24 08:13:45 2025, MaxMem=  3758096384 cpu:               0.0 elap:               0.0
 (Enter /apps/easybuild-2022/easybuild/software/Compiler/NVHPC/22.11-CUDA-11.7.0/Gaussian/g16c01-CUDA-11.7.0/g16/l103.exe)

 GradGradGradGradGradGradGradGradGradGradGradGradGradGradGradGradGradGrad
 Berny optimization.
 Red2BG is reusing G-inverse.
 Internal  Forces:  Max     0.028639541 RMS     0.008843397
 Search for a local minimum.
 Step number   1 out of a maximum of   56
 All quantities printed in internal units (Hartrees-Bohrs-Radians)
 RMS Force = .88434D-02 SwitMx=.10000D-02 MixMth= 1
 Mixed Optimization -- RFO/linear search
 Second derivative matrix not updated -- analytic derivatives used.
 ITU=  0
     Eigenvalues ---   -0.00217   0.00187   0.00694   0.01285   0.01529
     Eigenvalues ---    0.06527   0.09036   0.10392   0.13055   0.13627
     Eigenvalues ---    0.14116   0.15874   0.17061   0.20575   0.23411
     Eigenvalues ---    0.25319   0.26476   0.28016   0.30825   0.36367
     Eigenvalues ---    0.38913   0.39470   0.40270   0.42248   0.44221
     Eigenvalues ---    0.47096   0.51089   0.52118   0.57085   0.76628
 Eigenvalue     1 is  -2.17D-03 should be greater than     0.000000 Eigenvector:
                          D16       D18       D17       D3        D1
   1                    0.57846   0.57167   0.54465   0.08611   0.08116
                          D5        A15       A10       D4        D9
   1                    0.06763   0.05666   0.05142   0.04740   0.04595
 RFO step:  Lambda=-1.87847691D-02 EMin=-2.17288305D-03
 Linear search not attempted -- first point.
 Maximum step size (   0.300) exceeded in Quadratic search.
    -- Step size scaled by   0.764
 Iteration  1 RMS(Cart)=  0.14018033 RMS(Int)=  0.03181158
 Iteration  2 RMS(Cart)=  0.04592348 RMS(Int)=  0.00255208
 Iteration  3 RMS(Cart)=  0.00182380 RMS(Int)=  0.00176256
 Iteration  4 RMS(Cart)=  0.00000458 RMS(Int)=  0.00176256
 Iteration  5 RMS(Cart)=  0.00000000 RMS(Int)=  0.00176256
 ITry= 1 IFail=0 DXMaxC= 6.51D-01 DCOld= 1.00D+10 DXMaxT= 3.00D-01 DXLimC= 3.00D+00 Rises=F
 Variable       Old X    -DE/DX   Delta X   Delta X   Delta X     New X
                                 (Linear)    (Quad)   (Total)
    R1        2.82509   0.00157   0.00000  -0.00973  -0.00973   2.81536
    R2        2.53215  -0.00179   0.00000   0.01574   0.01574   2.54789
    R3        2.51750  -0.00251   0.00000  -0.00864  -0.00864   2.50886
    R4        2.52175   0.00051   0.00000   0.00279   0.00279   2.52455
    R5        2.54778  -0.00479   0.00000   0.00122   0.00122   2.54900
    R6        3.05521  -0.00218   0.00000  -0.00603  -0.00603   3.04918
    R7        2.63921   0.00633   0.00000   0.01974   0.01974   2.65896
    R8        3.13226   0.02067   0.00000  -0.04738  -0.04738   3.08489
    R9        2.67133   0.00344   0.00000  -0.01083  -0.01083   2.66050
   R10        2.93460   0.00438   0.00000  -0.00855  -0.00855   2.92604
   R11        1.83141   0.00050   0.00000   0.00196   0.00196   1.83337
    A1        1.95139   0.00061   0.00000  -0.01285  -0.01291   1.93847
    A2        1.90721  -0.00011   0.00000   0.02377   0.02375   1.93095
    A3        1.97848  -0.00307   0.00000  -0.00300  -0.00312   1.97536
    A4        1.88315   0.00162   0.00000   0.00288   0.00292   1.88606
    A5        1.87516  -0.00050   0.00000  -0.01082  -0.01097   1.86419
    A6        1.86418   0.00172   0.00000   0.00045   0.00037   1.86455
    A7        1.96828  -0.00110   0.00000   0.01062   0.01060   1.97888
    A8        2.20309  -0.00266   0.00000  -0.03132  -0.03134   2.17175
    A9        2.00685   0.00358   0.00000   0.01455   0.01451   2.02136
   A10        2.12851  -0.02864   0.00000  -0.20362  -0.20161   1.92690
   A11        2.03027  -0.00454   0.00000   0.03298   0.03556   2.06583
   A12        1.85948   0.00006   0.00000   0.06393   0.06712   1.92660
   A13        1.72155   0.02615   0.00000   0.12428   0.12698   1.84852
   A14        1.64928   0.01547   0.00000   0.06335   0.06789   1.71717
   A15        2.05139  -0.00684   0.00000  -0.10394  -0.10653   1.94486
   A16        1.84751   0.01532   0.00000   0.05297   0.05297   1.90048
   A17        1.93620   0.00453   0.00000   0.03725   0.03725   1.97345
    D1       -3.06196  -0.00200   0.00000  -0.07722  -0.07713  -3.13909
    D2        0.58407  -0.00268   0.00000  -0.06931  -0.06926   0.51481
    D3       -0.97845   0.00032   0.00000  -0.06609  -0.06611  -1.04456
    D4        2.66758  -0.00035   0.00000  -0.05818  -0.05824   2.60934
    D5        1.09842   0.00046   0.00000  -0.05109  -0.05111   1.04731
    D6       -1.53874  -0.00022   0.00000  -0.04319  -0.04324  -1.58198
    D7        1.13307  -0.00164   0.00000  -0.03382  -0.03598   1.09709
    D8       -3.04864   0.00625   0.00000  -0.00439  -0.00423  -3.05287
    D9       -0.72323  -0.00735   0.00000  -0.06157  -0.05962  -0.78284
   D10       -1.49456  -0.00113   0.00000  -0.02443  -0.02656  -1.52111
   D11        0.60692   0.00677   0.00000   0.00500   0.00519   0.61211
   D12        2.93234  -0.00683   0.00000  -0.05218  -0.05020   2.88214
   D13       -2.90742  -0.00449   0.00000  -0.09271  -0.09344  -3.00086
   D14        1.13185  -0.00250   0.00000  -0.11115  -0.10588   1.02598
   D15       -0.94074  -0.00335   0.00000  -0.03971  -0.04426  -0.98500
   D16        1.45870  -0.00291   0.00000  -0.36564  -0.36409   1.09461
   D17       -0.72734   0.02172   0.00000  -0.19040  -0.19415  -0.92149
   D18       -2.51062  -0.01539   0.00000  -0.34741  -0.34521  -2.85583
         Item               Value     Threshold  Converged?
 Maximum Force            0.028640     0.000015     NO 
 RMS     Force            0.008843     0.000010     NO 
 Maximum Displacement     0.651007     0.000060     NO 
 RMS     Displacement     0.181151     0.000040     NO 
 Predicted change in Energy=-1.099009D-02
 Lowest energy point so far.  Saving SCF results.
 GradGradGradGradGradGradGradGradGradGradGradGradGradGradGradGradGradGrad

 Leave Link  103 at Sat May 24 08:13:45 2025, MaxMem=  3758096384 cpu:               0.1 elap:               0.0
 (Enter /apps/easybuild-2022/easybuild/software/Compiler/NVHPC/22.11-CUDA-11.7.0/Gaussian/g16c01-CUDA-11.7.0/g16/l202.exe)
                          Input orientation:                          
 ---------------------------------------------------------------------
 Center     Atomic      Atomic             Coordinates (Angstroms)
 Number     Number       Type             X           Y           Z
 ---------------------------------------------------------------------
      1          6           0        2.466747    0.075229   -2.591393
      2          6           0        2.510057   -0.536661   -1.233715
      3          9           0       -0.557923    0.628816    0.840080
      4          9           0        2.719812   -1.868979   -1.253457
      5         16           0        1.710620    0.029880    0.048274
      6          8           0        0.100109   -0.038187   -0.209642
      7          8           0        1.927881   -0.583621    1.296686
      8          8           0        1.859772    1.568326    0.140285
      9          9           0        2.258427    1.405254   -2.517131
     10          9           0        3.611623   -0.126966   -3.232468
     11          9           0        1.497749   -0.425121   -3.363019
     12          1           0        1.476894    2.033557   -0.620113
 ---------------------------------------------------------------------
                    Distance matrix (angstroms):
                    1          2          3          4          5
     1  C    0.000000
     2  C    1.489824   0.000000
     3  F    4.607613   3.882198   0.000000
     4  F    2.373617   1.348873   4.622275   0.000000
     5  S    2.746202   1.613556   2.476282   2.513689   0.000000
     6  O    3.359550   2.665530   1.407059   3.362171   1.632452
     7  O    3.980154   2.596934   2.803161   2.963534   1.407878
     8  O    3.171722   2.596482   2.686567   3.807526   1.548396
     9  F    1.348287   2.341262   4.450342   3.539823   2.961933
    10  F    1.327630   2.318687   5.877241   2.783239   3.794954
    11  F    1.335932   2.360327   4.796104   2.833446   3.448081
    12  H    2.949713   2.837245   2.871575   4.144365   2.125110
                    6          7          8          9         10
     6  O    0.000000
     7  O    2.430488   0.000000
     8  O    2.408266   2.443928   0.000000
     9  F    3.473667   4.313941   2.692095   0.000000
    10  F    4.634230   4.853530   4.161545   2.165766   0.000000
    11  F    3.470866   4.682199   4.046978   2.155094   2.138785
    12  H    2.521140   3.275230   0.970175   2.145749   4.006161
                   11         12
    11  F    0.000000
    12  H    3.683622   0.000000
 Symmetry turned off by external request.
 Stoichiometry    C2HF5O3S
 Rotational constants (GHZ):           1.6805069           0.7027066           0.6365687
 Leave Link  202 at Sat May 24 08:13:45 2025, MaxMem=  3758096384 cpu:               0.0 elap:               0.0
 (Enter /apps/easybuild-2022/easybuild/software/Compiler/NVHPC/22.11-CUDA-11.7.0/Gaussian/g16c01-CUDA-11.7.0/g16/l301.exe)
 Standard basis: def2TZVPP (5D, 7F)
 Ernie: Thresh=  0.10000D-02 Tol=  0.10000D-05 Strict=F.
   366 basis functions,   596 primitive gaussians,   423 cartesian basis functions
    49 alpha electrons       49 beta electrons
       nuclear repulsion energy       900.8154134294 Hartrees.
 IExCor= 4336 DFT=T Ex+Corr=M062X ExCW=0 ScaHFX=  0.540000
 ScaDFX=  1.000000  1.000000  1.000000  1.000000 ScalE2=  1.000000  1.000000
 IRadAn=      5 IRanWt=     -1 IRanGd=            0 ICorTp=0 IEmpDi=  4
 NAtoms=   12 NActive=   12 NUniq=   12 SFac= 1.00D+00 NAtFMM=   60 NAOKFM=F Big=F
 Integral buffers will be    131072 words long.
 Raffenetti 2 integral format.
 Two-electron integral symmetry is turned off.
 Leave Link  301 at Sat May 24 08:13:45 2025, MaxMem=  3758096384 cpu:               0.0 elap:               0.0
 (Enter /apps/easybuild-2022/easybuild/software/Compiler/NVHPC/22.11-CUDA-11.7.0/Gaussian/g16c01-CUDA-11.7.0/g16/l302.exe)
 NPDir=0 NMtPBC=     1 NCelOv=     1 NCel=       1 NClECP=     1 NCelD=      1
         NCelK=      1 NCelE2=     1 NClLst=     1 CellRange=     0.0.
 One-electron integrals computed using PRISM.
   1 Symmetry operations used in ECPInt.
 ECPInt:  NShTT=    8515 NPrTT=   27988 LenC2=    7892 LenP2D=   19091.
 LDataN:  DoStor=T MaxTD1= 6 Len=  172
 NBasis=   366 RedAO= T EigKep=  3.78D-04  NBF=   366
 NBsUse=   366 1.00D-06 EigRej= -1.00D+00 NBFU=   366
 Precomputing XC quadrature grid using
 IXCGrd= 4 IRadAn=           5 IRanWt=          -1 IRanGd=           0 AccXCQ= 0.00D+00.
 Generated NRdTot=       0 NPtTot=           0 NUsed=           0 NTot=          32
 NSgBfM=   419   418   418   419   419 MxSgAt=    12 MxSgA2=    12.
 Leave Link  302 at Sat May 24 08:13:46 2025, MaxMem=  3758096384 cpu:               0.7 elap:               0.2
 (Enter /apps/easybuild-2022/easybuild/software/Compiler/NVHPC/22.11-CUDA-11.7.0/Gaussian/g16c01-CUDA-11.7.0/g16/l303.exe)
 DipDrv:  MaxL=1.
 Leave Link  303 at Sat May 24 08:13:46 2025, MaxMem=  3758096384 cpu:               0.1 elap:               0.0
 (Enter /apps/easybuild-2022/easybuild/software/Compiler/NVHPC/22.11-CUDA-11.7.0/Gaussian/g16c01-CUDA-11.7.0/g16/l401.exe)
 Initial guess from the checkpoint file:  "/tmp/Gau-52324.chk"
 B after Tr=    -0.041588   -0.106679    0.006095
         Rot=    0.999851    0.004505    0.000061   -0.016639 Ang=   1.98 deg.
 Guess basis will be translated and rotated to current coordinates.
 JPrj=2 DoOrth=T DoCkMO=T.
 Generating alternative initial guess.
 ExpMin= 9.52D-02 ExpMax= 6.07D+04 ExpMxC= 2.07D+03 IAcc=3 IRadAn=         5 AccDes= 0.00D+00
 Harris functional with IExCor= 1009 and IRadAn=       5 diagonalized for initial guess.
 HarFok:  IExCor= 1009 AccDes= 0.00D+00 IRadAn=         5 IDoV= 1 UseB2=F ITyADJ=14
 ICtDFT=  3500011 ScaDFX=  1.000000  1.000000  1.000000  1.000000
 FoFCou: FMM=F IPFlag=           0 FMFlag=      100000 FMFlg1=           0
         NFxFlg=           0 DoJE=T BraDBF=F KetDBF=T FulRan=T
         wScrn=  0.000000 ICntrl=       500 IOpCl=  0 I1Cent=   200000004 NGrid=           0
         NMat0=    1 NMatS0=      1 NMatT0=    0 NMatD0=    1 NMtDS0=    0 NMtDT0=    0
 Symmetry not used in FoFCou.
 Harris En= -1199.13269681205    
 Leave Link  401 at Sat May 24 08:13:46 2025, MaxMem=  3758096384 cpu:               4.4 elap:               0.7
 (Enter /apps/easybuild-2022/easybuild/software/Compiler/NVHPC/22.11-CUDA-11.7.0/Gaussian/g16c01-CUDA-11.7.0/g16/l502.exe)
 Keep R1 ints in memory in canonical form, NReq=2293446996.
 FoFCou: FMM=F IPFlag=           0 FMFlag=           0 FMFlg1=           0
         NFxFlg=           0 DoJE=F BraDBF=F KetDBF=F FulRan=T
         wScrn=  0.000000 ICntrl=       600 IOpCl=  0 I1Cent=           0 NGrid=           0
         NMat0=    1 NMatS0=  67161 NMatT0=    0 NMatD0=    1 NMtDS0=    0 NMtDT0=    0
 Symmetry not used in FoFCou.
 Two-electron integral symmetry not used.
 Closed shell SCF:
 Using DIIS extrapolation, IDIIS=  1040.
 NGot=  3758096384 LenX=  1502398672 LenY=  1502219302
 Requested convergence on RMS density matrix=1.00D-08 within  32 cycles.
 Requested convergence on MAX density matrix=1.00D-06.
 Requested convergence on             energy=1.00D-06.
 No special actions if energy rises.
 Integral accuracy reduced to 1.0D-05 until final iterations.

 Cycle   1  Pass 0  IDiag  1:
 E= -1199.65833460523    
 DIIS: error= 6.17D-03 at cycle   1 NSaved=   1.
 NSaved= 1 IEnMin= 1 EnMin= -1199.65833460523     IErMin= 1 ErrMin= 6.17D-03
 ErrMax= 6.17D-03  0.00D+00 EMaxC= 1.00D-01 BMatC= 4.04D-02 BMatP= 4.04D-02
 IDIUse=3 WtCom= 9.38D-01 WtEn= 6.17D-02
 Coeff-Com:  0.100D+01
 Coeff-En:   0.100D+01
 Coeff:      0.100D+01
 Gap=     0.851 Goal=   None    Shift=    0.000
 GapD=    0.851 DampG=2.000 DampE=1.000 DampFc=2.0000 IDamp=-1.
 RMSDP=6.36D-04 MaxDP=3.12D-02              OVMax= 5.39D-02

 Cycle   2  Pass 0  IDiag  1:
 E= -1199.71237567943     Delta-E=       -0.054041074197 Rises=F Damp=F
 DIIS: error= 1.62D-03 at cycle   2 NSaved=   2.
 NSaved= 2 IEnMin= 2 EnMin= -1199.71237567943     IErMin= 2 ErrMin= 1.62D-03
 ErrMax= 1.62D-03  0.00D+00 EMaxC= 1.00D-01 BMatC= 1.98D-03 BMatP= 4.04D-02
 IDIUse=3 WtCom= 9.84D-01 WtEn= 1.62D-02
 Coeff-Com: -0.957D-01 0.110D+01
 Coeff-En:   0.000D+00 0.100D+01
 Coeff:     -0.942D-01 0.109D+01
 Gap=     0.294 Goal=   None    Shift=    0.000
 RMSDP=1.78D-04 MaxDP=7.31D-03 DE=-5.40D-02 OVMax= 1.96D-02

 Cycle   3  Pass 0  IDiag  1:
 E= -1199.71546425010     Delta-E=       -0.003088570665 Rises=F Damp=F
 DIIS: error= 1.05D-03 at cycle   3 NSaved=   3.
 NSaved= 3 IEnMin= 3 EnMin= -1199.71546425010     IErMin= 3 ErrMin= 1.05D-03
 ErrMax= 1.05D-03  0.00D+00 EMaxC= 1.00D-01 BMatC= 1.36D-03 BMatP= 1.98D-03
 IDIUse=3 WtCom= 9.90D-01 WtEn= 1.05D-02
 Coeff-Com: -0.804D-01 0.527D+00 0.554D+00
 Coeff-En:   0.000D+00 0.000D+00 0.100D+01
 Coeff:     -0.796D-01 0.521D+00 0.558D+00
 Gap=     0.298 Goal=   None    Shift=    0.000
 RMSDP=6.40D-05 MaxDP=3.94D-03 DE=-3.09D-03 OVMax= 7.62D-03

 Cycle   4  Pass 0  IDiag  1:
 E= -1199.71632722443     Delta-E=       -0.000862974332 Rises=F Damp=F
 DIIS: error= 3.72D-04 at cycle   4 NSaved=   4.
 NSaved= 4 IEnMin= 4 EnMin= -1199.71632722443     IErMin= 4 ErrMin= 3.72D-04
 ErrMax= 3.72D-04  0.00D+00 EMaxC= 1.00D-01 BMatC= 1.64D-04 BMatP= 1.36D-03
 IDIUse=3 WtCom= 9.96D-01 WtEn= 3.72D-03
 Coeff-Com: -0.924D-02-0.329D-01 0.233D+00 0.809D+00
 Coeff-En:   0.000D+00 0.000D+00 0.000D+00 0.100D+01
 Coeff:     -0.920D-02-0.328D-01 0.232D+00 0.810D+00
 Gap=     0.297 Goal=   None    Shift=    0.000
 RMSDP=3.02D-05 MaxDP=1.52D-03 DE=-8.63D-04 OVMax= 3.19D-03

 Cycle   5  Pass 0  IDiag  1:
 E= -1199.71647377969     Delta-E=       -0.000146555265 Rises=F Damp=F
 DIIS: error= 1.35D-04 at cycle   5 NSaved=   5.
 NSaved= 5 IEnMin= 5 EnMin= -1199.71647377969     IErMin= 5 ErrMin= 1.35D-04
 ErrMax= 1.35D-04  0.00D+00 EMaxC= 1.00D-01 BMatC= 2.20D-05 BMatP= 1.64D-04
 IDIUse=3 WtCom= 9.99D-01 WtEn= 1.35D-03
 Coeff-Com:  0.479D-02-0.770D-01 0.341D-01 0.360D+00 0.678D+00
 Coeff-En:   0.000D+00 0.000D+00 0.000D+00 0.000D+00 0.100D+01
 Coeff:      0.478D-02-0.769D-01 0.341D-01 0.360D+00 0.678D+00
 Gap=     0.296 Goal=   None    Shift=    0.000
 RMSDP=1.14D-05 MaxDP=6.93D-04 DE=-1.47D-04 OVMax= 1.58D-03

 Cycle   6  Pass 0  IDiag  1:
 E= -1199.71649153734     Delta-E=       -0.000017757648 Rises=F Damp=F
 DIIS: error= 5.83D-05 at cycle   6 NSaved=   6.
 NSaved= 6 IEnMin= 6 EnMin= -1199.71649153734     IErMin= 6 ErrMin= 5.83D-05
 ErrMax= 5.83D-05  0.00D+00 EMaxC= 1.00D-01 BMatC= 4.35D-06 BMatP= 2.20D-05
 IDIUse=1 WtCom= 1.00D+00 WtEn= 0.00D+00
 Coeff-Com:  0.374D-02-0.345D-01-0.159D-01 0.702D-01 0.356D+00 0.620D+00
 Coeff:      0.374D-02-0.345D-01-0.159D-01 0.702D-01 0.356D+00 0.620D+00
 Gap=     0.297 Goal=   None    Shift=    0.000
 RMSDP=4.51D-06 MaxDP=1.73D-04 DE=-1.78D-05 OVMax= 4.12D-04

 Initial convergence to 1.0D-05 achieved.  Increase integral accuracy.
 Cycle   7  Pass 1  IDiag  1:
 E= -1199.71653375676     Delta-E=       -0.000042219420 Rises=F Damp=F
 DIIS: error= 2.44D-05 at cycle   1 NSaved=   1.
 NSaved= 1 IEnMin= 1 EnMin= -1199.71653375676     IErMin= 1 ErrMin= 2.44D-05
 ErrMax= 2.44D-05  0.00D+00 EMaxC= 1.00D-01 BMatC= 1.16D-06 BMatP= 1.16D-06
 IDIUse=1 WtCom= 1.00D+00 WtEn= 0.00D+00
 Coeff-Com:  0.100D+01
 Coeff:      0.100D+01
 Gap=     0.297 Goal=   None    Shift=    0.000
 RMSDP=4.51D-06 MaxDP=1.73D-04 DE=-4.22D-05 OVMax= 2.76D-04

 Cycle   8  Pass 1  IDiag  1:
 E= -1199.71653452865     Delta-E=       -0.000000771891 Rises=F Damp=F
 DIIS: error= 2.26D-05 at cycle   2 NSaved=   2.
 NSaved= 2 IEnMin= 2 EnMin= -1199.71653452865     IErMin= 2 ErrMin= 2.26D-05
 ErrMax= 2.26D-05  0.00D+00 EMaxC= 1.00D-01 BMatC= 5.64D-07 BMatP= 1.16D-06
 IDIUse=1 WtCom= 1.00D+00 WtEn= 0.00D+00
 Coeff-Com:  0.371D+00 0.629D+00
 Coeff:      0.371D+00 0.629D+00
 Gap=     0.297 Goal=   None    Shift=    0.000
 RMSDP=2.24D-06 MaxDP=1.26D-04 DE=-7.72D-07 OVMax= 1.88D-04

 Cycle   9  Pass 1  IDiag  1:
 E= -1199.71653480071     Delta-E=       -0.000000272060 Rises=F Damp=F
 DIIS: error= 1.42D-05 at cycle   3 NSaved=   3.
 NSaved= 3 IEnMin= 3 EnMin= -1199.71653480071     IErMin= 3 ErrMin= 1.42D-05
 ErrMax= 1.42D-05  0.00D+00 EMaxC= 1.00D-01 BMatC= 2.03D-07 BMatP= 5.64D-07
 IDIUse=1 WtCom= 1.00D+00 WtEn= 0.00D+00
 Coeff-Com: -0.401D-01 0.366D+00 0.674D+00
 Coeff:     -0.401D-01 0.366D+00 0.674D+00
 Gap=     0.297 Goal=   None    Shift=    0.000
 RMSDP=1.17D-06 MaxDP=6.84D-05 DE=-2.72D-07 OVMax= 8.54D-05

 Cycle  10  Pass 1  IDiag  1:
 E= -1199.71653494792     Delta-E=       -0.000000147209 Rises=F Damp=F
 DIIS: error= 3.42D-06 at cycle   4 NSaved=   4.
 NSaved= 4 IEnMin= 4 EnMin= -1199.71653494792     IErMin= 4 ErrMin= 3.42D-06
 ErrMax= 3.42D-06  0.00D+00 EMaxC= 1.00D-01 BMatC= 9.64D-09 BMatP= 2.03D-07
 IDIUse=1 WtCom= 1.00D+00 WtEn= 0.00D+00
 Coeff-Com: -0.345D-01 0.113D+00 0.272D+00 0.650D+00
 Coeff:     -0.345D-01 0.113D+00 0.272D+00 0.650D+00
 Gap=     0.297 Goal=   None    Shift=    0.000
 RMSDP=2.68D-07 MaxDP=1.36D-05 DE=-1.47D-07 OVMax= 2.52D-05

 Cycle  11  Pass 1  IDiag  1:
 E= -1199.71653495726     Delta-E=       -0.000000009340 Rises=F Damp=F
 DIIS: error= 1.32D-06 at cycle   5 NSaved=   5.
 NSaved= 5 IEnMin= 5 EnMin= -1199.71653495726     IErMin= 5 ErrMin= 1.32D-06
 ErrMax= 1.32D-06  0.00D+00 EMaxC= 1.00D-01 BMatC= 2.23D-09 BMatP= 9.64D-09
 IDIUse=1 WtCom= 1.00D+00 WtEn= 0.00D+00
 Coeff-Com: -0.638D-02-0.355D-01-0.418D-01 0.271D+00 0.813D+00
 Coeff:     -0.638D-02-0.355D-01-0.418D-01 0.271D+00 0.813D+00
 Gap=     0.297 Goal=   None    Shift=    0.000
 RMSDP=1.69D-07 MaxDP=1.13D-05 DE=-9.34D-09 OVMax= 1.83D-05

 Cycle  12  Pass 1  IDiag  1:
 E= -1199.71653496027     Delta-E=       -0.000000003006 Rises=F Damp=F
 DIIS: error= 8.62D-07 at cycle   6 NSaved=   6.
 NSaved= 6 IEnMin= 6 EnMin= -1199.71653496027     IErMin= 6 ErrMin= 8.62D-07
 ErrMax= 8.62D-07  0.00D+00 EMaxC= 1.00D-01 BMatC= 5.63D-10 BMatP= 2.23D-09
 IDIUse=1 WtCom= 1.00D+00 WtEn= 0.00D+00
 Coeff-Com:  0.568D-02-0.476D-01-0.948D-01-0.334D-01 0.408D+00 0.762D+00
 Coeff:      0.568D-02-0.476D-01-0.948D-01-0.334D-01 0.408D+00 0.762D+00
 Gap=     0.297 Goal=   None    Shift=    0.000
 RMSDP=8.00D-08 MaxDP=5.04D-06 DE=-3.01D-09 OVMax= 1.10D-05

 Cycle  13  Pass 1  IDiag  1:
 E= -1199.71653496105     Delta-E=       -0.000000000782 Rises=F Damp=F
 DIIS: error= 1.90D-07 at cycle   7 NSaved=   7.
 NSaved= 7 IEnMin= 7 EnMin= -1199.71653496105     IErMin= 7 ErrMin= 1.90D-07
 ErrMax= 1.90D-07  0.00D+00 EMaxC= 1.00D-01 BMatC= 4.43D-11 BMatP= 5.63D-10
 IDIUse=1 WtCom= 1.00D+00 WtEn= 0.00D+00
 Coeff-Com:  0.264D-02-0.140D-01-0.310D-01-0.399D-01 0.744D-01 0.286D+00
 Coeff-Com:  0.722D+00
 Coeff:      0.264D-02-0.140D-01-0.310D-01-0.399D-01 0.744D-01 0.286D+00
 Coeff:      0.722D+00
 Gap=     0.297 Goal=   None    Shift=    0.000
 RMSDP=2.20D-08 MaxDP=1.30D-06 DE=-7.82D-10 OVMax= 2.42D-06

 Cycle  14  Pass 1  IDiag  1:
 E= -1199.71653496118     Delta-E=       -0.000000000126 Rises=F Damp=F
 DIIS: error= 7.62D-08 at cycle   8 NSaved=   8.
 NSaved= 8 IEnMin= 8 EnMin= -1199.71653496118     IErMin= 8 ErrMin= 7.62D-08
 ErrMax= 7.62D-08  0.00D+00 EMaxC= 1.00D-01 BMatC= 7.64D-12 BMatP= 4.43D-11
 IDIUse=1 WtCom= 1.00D+00 WtEn= 0.00D+00
 Coeff-Com: -0.111D-03 0.379D-02 0.608D-02-0.107D-01-0.485D-01-0.273D-01
 Coeff-Com:  0.300D+00 0.777D+00
 Coeff:     -0.111D-03 0.379D-02 0.608D-02-0.107D-01-0.485D-01-0.273D-01
 Coeff:      0.300D+00 0.777D+00
 Gap=     0.297 Goal=   None    Shift=    0.000
 RMSDP=1.32D-08 MaxDP=8.71D-07 DE=-1.26D-10 OVMax= 1.19D-06

 Cycle  15  Pass 1  IDiag  1:
 E= -1199.71653496117     Delta-E=        0.000000000001 Rises=F Damp=F
 DIIS: error= 3.15D-08 at cycle   9 NSaved=   9.
 NSaved= 9 IEnMin= 8 EnMin= -1199.71653496118     IErMin= 9 ErrMin= 3.15D-08
 ErrMax= 3.15D-08  0.00D+00 EMaxC= 1.00D-01 BMatC= 8.75D-13 BMatP= 7.64D-12
 IDIUse=1 WtCom= 1.00D+00 WtEn= 0.00D+00
 Coeff-Com: -0.281D-03 0.302D-02 0.559D-02-0.845D-03-0.283D-01-0.406D-01
 Coeff-Com:  0.527D-01 0.338D+00 0.671D+00
 Coeff:     -0.281D-03 0.302D-02 0.559D-02-0.845D-03-0.283D-01-0.406D-01
 Coeff:      0.527D-01 0.338D+00 0.671D+00
 Gap=     0.297 Goal=   None    Shift=    0.000
 RMSDP=3.16D-09 MaxDP=1.62D-07 DE= 1.36D-12 OVMax= 2.46D-07

 SCF Done:  E(RM062X) =  -1199.71653496     A.U. after   15 cycles
            NFock= 15  Conv=0.32D-08     -V/T= 2.0028
 KE= 1.196364428310D+03 PE=-4.647401969391D+03 EE= 1.350505592690D+03
 Leave Link  502 at Sat May 24 08:14:27 2025, MaxMem=  3758096384 cpu:             160.6 elap:              40.7
 (Enter /apps/easybuild-2022/easybuild/software/Compiler/NVHPC/22.11-CUDA-11.7.0/Gaussian/g16c01-CUDA-11.7.0/g16/l508.exe)
 QCSCF skips out because SCF is already converged.
 Leave Link  508 at Sat May 24 08:14:27 2025, MaxMem=  3758096384 cpu:               0.0 elap:               0.0
 (Enter /apps/easybuild-2022/easybuild/software/Compiler/NVHPC/22.11-CUDA-11.7.0/Gaussian/g16c01-CUDA-11.7.0/g16/l701.exe)
 ... and contract with generalized density number  0.
 Compute integral first derivatives.
   1 Symmetry operations used in ECPInt.
 ECPInt:  NShTT=    8515 NPrTT=   27988 LenC2=    7892 LenP2D=   19091.
 LDataN:  DoStor=T MaxTD1= 7 Len=  274
 Leave Link  701 at Sat May 24 08:14:27 2025, MaxMem=  3758096384 cpu:               0.5 elap:               0.1
 (Enter /apps/easybuild-2022/easybuild/software/Compiler/NVHPC/22.11-CUDA-11.7.0/Gaussian/g16c01-CUDA-11.7.0/g16/l702.exe)
 L702 exits ... SP integral derivatives will be done elsewhere.
 Leave Link  702 at Sat May 24 08:14:27 2025, MaxMem=  3758096384 cpu:               0.0 elap:               0.0
 (Enter /apps/easybuild-2022/easybuild/software/Compiler/NVHPC/22.11-CUDA-11.7.0/Gaussian/g16c01-CUDA-11.7.0/g16/l703.exe)
 Integral derivatives from FoFJK, PRISM(SPDF).
 Compute integral first derivatives, UseDBF=F ICtDFT=           0.
 Calling FoFJK, ICntrl=      2127 FMM=F ISym2X=0 I1Cent= 0 IOpClX= 0 NMat=1 NMatS=1 NMatT=0.
 FoFJK:  IHMeth= 1 ICntrl=    2127 DoSepK=F KAlg= 0 I1Cent=           0 FoldK=F
 IRaf=         0 NMat=       1 IRICut=       1 DoRegI=T DoRafI=F ISym2E= 0 IDoP0=0 IntGTp=1.
 FoFCou: FMM=F IPFlag=           0 FMFlag=      100000 FMFlg1=         800
         NFxFlg=           0 DoJE=F BraDBF=F KetDBF=F FulRan=T
         wScrn=  0.000000 ICntrl=      2127 IOpCl=  0 I1Cent=           0 NGrid=           0
         NMat0=    1 NMatS0=      1 NMatT0=    0 NMatD0=    1 NMtDS0=    0 NMtDT0=    0
 Symmetry not used in FoFCou.
 Leave Link  703 at Sat May 24 08:14:39 2025, MaxMem=  3758096384 cpu:              95.9 elap:              12.1
 (Enter /apps/easybuild-2022/easybuild/software/Compiler/NVHPC/22.11-CUDA-11.7.0/Gaussian/g16c01-CUDA-11.7.0/g16/l716.exe)
 Dipole        =-2.27922449D-01 1.01582378D+00-3.43243899D-01
 -------------------------------------------------------------------
 Center     Atomic                   Forces (Hartrees/Bohr)
 Number     Number              X              Y              Z
 -------------------------------------------------------------------
      1        6           0.000905933    0.000503428   -0.000913970
      2        6          -0.001484842   -0.003649846   -0.001509034
      3        9          -0.004462017   -0.000350575    0.003551876
      4        9           0.000430371    0.001859765    0.000316376
      5       16          -0.004002663   -0.000590816    0.008790519
      6        8          -0.002488369    0.001935490   -0.010492318
      7        8           0.007882187   -0.000892634    0.001706409
      8        8           0.003767685    0.000672918   -0.001461377
      9        9          -0.000842977   -0.000124686    0.000135742
     10        9          -0.000128674    0.000624592    0.000426883
     11        9           0.000056850   -0.000328424    0.000222150
     12        1           0.000366516    0.000340787   -0.000773258
 -------------------------------------------------------------------
 Cartesian Forces:  Max     0.010492318 RMS     0.003139087
 Leave Link  716 at Sat May 24 08:14:39 2025, MaxMem=  3758096384 cpu:               0.0 elap:               0.0
 (Enter /apps/easybuild-2022/easybuild/software/Compiler/NVHPC/22.11-CUDA-11.7.0/Gaussian/g16c01-CUDA-11.7.0/g16/l103.exe)

 GradGradGradGradGradGradGradGradGradGradGradGradGradGradGradGradGradGrad
 Berny optimization.
 Using GEDIIS/GDIIS optimizer.
 FormGI is forming the generalized inverse of G from B-inverse, IUseBI=4.
 Internal  Forces:  Max     0.008643070 RMS     0.003064586
 Search for a local minimum.
 Step number   2 out of a maximum of   56
 All quantities printed in internal units (Hartrees-Bohrs-Radians)
 RMS Force = .30646D-02 SwitMx=.10000D-02 MixMth= 1
 Mixed Optimization -- RFO/linear search
 Update second derivatives using D2CorX and points    1    2
 DE= -1.03D-02 DEPred=-1.10D-02 R= 9.33D-01
 TightC=F SS=  1.41D+00  RLast= 6.56D-01 DXNew= 5.0454D-01 1.9686D+00
 Trust test= 9.33D-01 RLast= 6.56D-01 DXMaxT set to 5.05D-01
 ITU=  1  0
 Use linear search instead of GDIIS.
     Eigenvalues ---   -0.00266   0.00187   0.00695   0.01295   0.01540
     Eigenvalues ---    0.07120   0.09741   0.10470   0.13030   0.13711
     Eigenvalues ---    0.14079   0.15795   0.17144   0.20265   0.23391
     Eigenvalues ---    0.24138   0.25943   0.27781   0.30584   0.35498
     Eigenvalues ---    0.38670   0.39461   0.40210   0.42200   0.42711
     Eigenvalues ---    0.46933   0.50732   0.52073   0.57089   0.76403
 Eigenvalue     1 is  -2.66D-03 should be greater than     0.000000 Eigenvector:
                          D16       D17       D18       D3        D1
   1                    0.57067   0.56642   0.56287   0.08725   0.07994
                          D5        D4        A15       A12       D2
   1                    0.06926   0.04925   0.04731  -0.04252   0.04194
 RFO step:  Lambda=-2.77566526D-03 EMin=-2.65566621D-03
 I=     1 Eig=   -2.66D-03 Dot1=  2.46D-04
 I=     1 Stepn=  6.00D-01 RXN=   6.00D-01 EDone=F
 Mixed    1 eigenvectors in step.  Raw Step.Grad=  2.46D-04.
 RFO eigenvector is Hessian eigenvector with negative curvature.
 Taking step of  6.00D-01 in eigenvector direction(s).  Step.Grad=  1.94D-04.
 Quartic linear search produced a step of  0.34801.
 Iteration  1 RMS(Cart)=  0.04900357 RMS(Int)=  0.01092638
 Iteration  2 RMS(Cart)=  0.01311542 RMS(Int)=  0.00069753
 Iteration  3 RMS(Cart)=  0.00021628 RMS(Int)=  0.00066623
 Iteration  4 RMS(Cart)=  0.00000009 RMS(Int)=  0.00066623
 ITry= 1 IFail=0 DXMaxC= 2.18D-01 DCOld= 1.00D+10 DXMaxT= 5.05D-01 DXLimC= 3.00D+00 Rises=F
 Variable       Old X    -DE/DX   Delta X   Delta X   Delta X     New X
                                 (Linear)    (Quad)   (Total)
    R1        2.81536   0.00040  -0.00339   0.00660   0.00322   2.81858
    R2        2.54789   0.00002   0.00548  -0.01344  -0.00796   2.53993
    R3        2.50886  -0.00041  -0.00301   0.00187  -0.00114   2.50772
    R4        2.52455  -0.00005   0.00097   0.00274   0.00371   2.52826
    R5        2.54900  -0.00178   0.00042  -0.00457  -0.00415   2.54485
    R6        3.04918   0.00091  -0.00210  -0.00596  -0.00806   3.04111
    R7        2.65896   0.00457   0.00687   0.00626   0.01313   2.67209
    R8        3.08489   0.00788  -0.01649   0.02146   0.00498   3.08986
    R9        2.66050   0.00312  -0.00377   0.00207  -0.00170   2.65880
   R10        2.92604   0.00127  -0.00298   0.00158  -0.00140   2.92465
   R11        1.83337   0.00063   0.00068  -0.00067   0.00001   1.83338
    A1        1.93847  -0.00030  -0.00449   0.00919   0.00467   1.94315
    A2        1.93095   0.00037   0.00826  -0.00940  -0.00116   1.92980
    A3        1.97536  -0.00065  -0.00108  -0.00701  -0.00815   1.96722
    A4        1.88606   0.00018   0.00102   0.00364   0.00465   1.89072
    A5        1.86419   0.00005  -0.00382   0.00362  -0.00025   1.86394
    A6        1.86455   0.00039   0.00013   0.00051   0.00059   1.86514
    A7        1.97888   0.00044   0.00369  -0.00068   0.00295   1.98183
    A8        2.17175  -0.00153  -0.01091   0.00742  -0.00354   2.16821
    A9        2.02136   0.00118   0.00505   0.00358   0.00858   2.02994
   A10        1.92690  -0.00696  -0.07016   0.01449  -0.05488   1.87202
   A11        2.06583  -0.00237   0.01238  -0.00502   0.00858   2.07441
   A12        1.92660  -0.00305   0.02336  -0.02551  -0.00114   1.92547
   A13        1.84852   0.00864   0.04419  -0.00150   0.04361   1.89213
   A14        1.71717   0.00431   0.02363  -0.01033   0.01447   1.73164
   A15        1.94486   0.00091  -0.03707   0.02838  -0.00985   1.93502
   A16        1.90048   0.00667   0.01844  -0.00147   0.01697   1.91745
   A17        1.97345   0.00016   0.01296  -0.00696   0.00600   1.97945
    D1       -3.13909  -0.00066  -0.02684   0.04796   0.02114  -3.11795
    D2        0.51481  -0.00125  -0.02410   0.02516   0.00108   0.51589
    D3       -1.04456  -0.00039  -0.02301   0.05235   0.02932  -1.01524
    D4        2.60934  -0.00098  -0.02027   0.02955   0.00926   2.61860
    D5        1.04731  -0.00006  -0.01779   0.04156   0.02377   1.07108
    D6       -1.58198  -0.00065  -0.01505   0.01876   0.00371  -1.57826
    D7        1.09709  -0.00179  -0.01252   0.00319  -0.01000   1.08709
    D8       -3.05287   0.00220  -0.00147   0.00985   0.00849  -3.04438
    D9       -0.78284  -0.00179  -0.02075   0.02102   0.00085  -0.78199
   D10       -1.52111  -0.00218  -0.00924  -0.01903  -0.02896  -1.55008
   D11        0.61211   0.00181   0.00181  -0.01237  -0.01047   0.60164
   D12        2.88214  -0.00218  -0.01747  -0.00121  -0.01811   2.86403
   D13       -3.00086  -0.00123  -0.03252   0.01397  -0.01904  -3.01989
   D14        1.02598   0.00027  -0.03685   0.01163  -0.02282   1.00316
   D15       -0.98500  -0.00494  -0.01540  -0.01465  -0.03196  -1.01696
   D16        1.09461  -0.00088  -0.12671   0.34240   0.21617   1.31078
   D17       -0.92149   0.00587  -0.06757   0.33985   0.27102  -0.65047
   D18       -2.85583  -0.00611  -0.12014   0.33772   0.21838  -2.63745
         Item               Value     Threshold  Converged?
 Maximum Force            0.008643     0.000015     NO 
[...]
    D7        1.08737  -0.00000   0.00000   0.00000   0.00000   1.08737
    D8       -3.03403  -0.00000   0.00000  -0.00000  -0.00000  -3.03404
    D9       -0.78092   0.00000   0.00000   0.00000   0.00000  -0.78092
   D10       -1.61690   0.00000   0.00000   0.00001   0.00001  -1.61689
   D11        0.54488  -0.00000   0.00000   0.00001   0.00001   0.54489
   D12        2.79800   0.00000   0.00000   0.00001   0.00001   2.79801
   D13       -3.07075  -0.00000   0.00000  -0.00001  -0.00001  -3.07076
   D14        0.96068   0.00000   0.00000  -0.00001  -0.00001   0.96068
   D15       -1.06830  -0.00000   0.00000  -0.00001  -0.00001  -1.06831
   D16        0.93127  -0.00000   0.00000  -0.00000  -0.00000   0.93126
   D17       -1.02204   0.00000   0.00000  -0.00000  -0.00000  -1.02204
   D18       -3.03257  -0.00000   0.00000  -0.00000  -0.00000  -3.03257
         Item               Value     Threshold  Converged?
 Maximum Force            0.000000     0.000015     YES
 RMS     Force            0.000000     0.000010     YES
 Maximum Displacement     0.000025     0.000060     YES
 RMS     Displacement     0.000006     0.000040     YES
 Predicted change in Energy=-5.805241D-12
 Optimization completed.
    -- Stationary point found.
                           ----------------------------
                           !   Optimized Parameters   !
                           ! (Angstroms and Degrees)  !
 --------------------------                            --------------------------
 ! Name  Definition              Value          Derivative Info.                !
 --------------------------------------------------------------------------------
 ! R1    R(1,2)                  1.4875         -DE/DX =    0.0                 !
 ! R2    R(1,9)                  1.3541         -DE/DX =    0.0                 !
 ! R3    R(1,10)                 1.329          -DE/DX =    0.0                 !
 ! R4    R(1,11)                 1.3322         -DE/DX =    0.0                 !
 ! R5    R(2,4)                  1.3453         -DE/DX =    0.0                 !
 ! R6    R(2,5)                  1.615          -DE/DX =    0.0                 !
 ! R7    R(3,6)                  1.4196         -DE/DX =    0.0                 !
 ! R8    R(5,6)                  1.6293         -DE/DX =    0.0                 !
 ! R9    R(5,7)                  1.4082         -DE/DX =    0.0                 !
 ! R10   R(5,8)                  1.5498         -DE/DX =    0.0                 !
 ! R11   R(8,12)                 0.9717         -DE/DX =    0.0                 !
 ! A1    A(2,1,9)              110.8013         -DE/DX =    0.0                 !
 ! A2    A(2,1,10)             111.7539         -DE/DX =    0.0                 !
 ! A3    A(2,1,11)             112.6737         -DE/DX =    0.0                 !
 ! A4    A(9,1,10)             107.4151         -DE/DX =    0.0                 !
 ! A5    A(9,1,11)             107.0474         -DE/DX =    0.0                 !
 ! A6    A(10,1,11)            106.8586         -DE/DX =    0.0                 !
 ! A7    A(1,2,4)              114.2627         -DE/DX =    0.0                 !
 ! A8    A(1,2,5)              124.7346         -DE/DX =    0.0                 !
 ! A9    A(4,2,5)              116.574          -DE/DX =    0.0                 !
 ! A10   A(2,5,6)              106.7743         -DE/DX =    0.0                 !
 ! A11   A(2,5,7)              118.1366         -DE/DX =    0.0                 !
 ! A12   A(2,5,8)              110.3852         -DE/DX =    0.0                 !
 ! A13   A(6,5,7)              109.532          -DE/DX =    0.0                 !
 ! A14   A(6,5,8)               99.3546         -DE/DX =    0.0                 !
 ! A15   A(7,5,8)              110.915          -DE/DX =    0.0                 !
 ! A16   A(3,6,5)              110.7299         -DE/DX =    0.0                 !
 ! A17   A(5,8,12)             112.3564         -DE/DX =    0.0                 !
 ! D1    D(9,1,2,4)            172.2807         -DE/DX =    0.0                 !
 ! D2    D(9,1,2,5)             16.8299         -DE/DX =    0.0                 !
 ! D3    D(10,1,2,4)           -67.9638         -DE/DX =    0.0                 !
 ! D4    D(10,1,2,5)           136.5854         -DE/DX =    0.0                 !
 ! D5    D(11,1,2,4)            52.3747         -DE/DX =    0.0                 !
 ! D6    D(11,1,2,5)          -103.0761         -DE/DX =    0.0                 !
 ! D7    D(1,2,5,6)             62.3015         -DE/DX =    0.0                 !
 ! D8    D(1,2,5,7)           -173.8374         -DE/DX =    0.0                 !
 ! D9    D(1,2,5,8)            -44.7435         -DE/DX =    0.0                 !
 ! D10   D(4,2,5,6)            -92.6417         -DE/DX =    0.0                 !
 ! D11   D(4,2,5,7)             31.2195         -DE/DX =    0.0                 !
 ! D12   D(4,2,5,8)            160.3133         -DE/DX =    0.0                 !
 ! D13   D(2,5,6,3)           -175.941          -DE/DX =    0.0                 !
 ! D14   D(7,5,6,3)             55.0431         -DE/DX =    0.0                 !
 ! D15   D(8,5,6,3)            -61.2092         -DE/DX =    0.0                 !
 ! D16   D(2,5,8,12)            53.3577         -DE/DX =    0.0                 !
 ! D17   D(6,5,8,12)           -58.5585         -DE/DX =    0.0                 !
 ! D18   D(7,5,8,12)          -173.7532         -DE/DX =    0.0                 !
 --------------------------------------------------------------------------------
 GradGradGradGradGradGradGradGradGradGradGradGradGradGradGradGradGradGrad

 Leave Link  103 at Sat May 24 08:26:36 2025, MaxMem=  3758096384 cpu:               0.0 elap:               0.0
 (Enter /apps/easybuild-2022/easybuild/software/Compiler/NVHPC/22.11-CUDA-11.7.0/Gaussian/g16c01-CUDA-11.7.0/g16/l9999.exe)

 ----------------------------------------------------------------------

 Electric dipole moment (input orientation):
 (Debye = 10**-18 statcoulomb cm , SI units = C m)
                  (au)            (Debye)         (10**-30 SI)
   Tot        0.104488D+01      0.265583D+01      0.885889D+01
   x         -0.102961D+00     -0.261701D+00     -0.872940D+00
   y          0.984295D+00      0.250183D+01      0.834520D+01
   z         -0.335176D+00     -0.851932D+00     -0.284174D+01

 Dipole polarizability, Alpha (input orientation).
 (esu units = cm**3 , SI units = C**2 m**2 J**-1)
 Alpha(0;0):
               (au)            (10**-24 esu)      (10**-40 SI)
   iso        0.623175D+02      0.923451D+01      0.102748D+02
   aniso      0.326240D+02      0.483439D+01      0.537898D+01
   xx         0.639405D+02      0.947500D+01      0.105424D+02
   yx        -0.745667D+01     -0.110497D+01     -0.122944D+01
   yy         0.536658D+02      0.795244D+01      0.884829D+01
   zx        -0.147442D+02     -0.218487D+01     -0.243099D+01
   zy         0.428210D+01      0.634542D+00      0.706023D+00
   zz         0.693464D+02      0.102761D+02      0.114337D+02

 ----------------------------------------------------------------------

 Dipole orientation:
     6          5.03639305          4.24039515          1.23105563
     6          4.76133183          2.21867909         -0.70235098
     9         -1.22809653         -1.73376760          0.73535480
     9          5.03384855          3.02125832         -3.09913628
    16          3.19902299         -0.37192093         -0.29930637
     8          0.26487677          0.42602527          0.18481710
     8          3.31495633         -2.21793643         -2.21257804
     8          3.81326543         -1.53725233          2.31650067
     9          4.42654180          3.36320826          3.55621053
     9          7.39221642          5.10297567          1.34715771
     9          3.55401890          6.22416623          0.77844194
     1          3.56655928         -0.34232976          3.68878725

 Electric dipole moment (dipole orientation):
 (Debye = 10**-18 statcoulomb cm , SI units = C m)
                  (au)            (Debye)         (10**-30 SI)
   Tot        0.104488D+01      0.265583D+01      0.885889D+01
   x          0.000000D+00      0.000000D+00      0.000000D+00
   y          0.000000D+00      0.000000D+00      0.000000D+00
   z          0.104488D+01      0.265583D+01      0.885889D+01

 Dipole polarizability, Alpha (dipole orientation).
 (esu units = cm**3 , SI units = C**2 m**2 J**-1)
 Alpha(0;0):
               (au)            (10**-24 esu)      (10**-40 SI)
   iso        0.623175D+02      0.923451D+01      0.102748D+02
   aniso      0.326240D+02      0.483439D+01      0.537898D+01
   xx         0.657269D+02      0.973972D+01      0.108369D+02
   yx         0.167444D+02      0.248126D+01      0.276077D+01
   yy         0.679824D+02      0.100740D+02      0.112088D+02
   zx        -0.337271D+01     -0.499785D+00     -0.556085D+00
   zy         0.118613D-01      0.175766D-02      0.195566D-02
   zz         0.532433D+02      0.788985D+01      0.877864D+01

 ----------------------------------------------------------------------
 Unable to Open any file for archive entry.
 1\1\GINC-SPARTAN-BM142\Freq\RM062X\def2TZVPP\C2H1F5O3S1\AKHALILOV\24-M
 ay-2025\0\\#P Geom=AllCheck Guess=TCheck SCRF=Check GenChk RM062X/def2
 TZVPP Freq\\Gaussian input prepared by ASE\\0,1\C,2.4236559192,0.06468
 2091,-2.5853945164\C,2.4551747677,-0.558288422,-1.23504818\F,-0.618967
 5865,0.6219445116,0.8034832415\F,2.693454264,-1.8822921468,-1.24248759
 51\S,1.70984404,0.0343516257,0.0693961374\O,0.1136550043,0.0280064208,
 -0.2575546897\O,1.9391628774,-0.5945488517,1.308351048\O,1.9394378169,
 1.563503075,0.1742468933\F,2.0146888254,1.3533876745,-2.5110145342\F,3
 .6230051515,0.060395354,-3.1579352923\F,1.5948075816,-0.5605325251,-3.
 4201621847\H,1.6938495461,2.0309178752,-0.6414925156\\Version=ES64L-G1
 6RevC.01\HF=-1199.7183916\RMSD=4.088e-09\RMSF=6.366e-06\ZeroPoint=0.04
 9915\Thermal=0.0608966\ETot=-1199.657495\HTot=-1199.6565508\GTot=-1199
 .7064673\Dipole=-0.102961,0.9842954,-0.3351757\DipoleDeriv=1.6537215,0
 .0755848,-0.0727324,0.2403919,1.3891852,-0.1694333,-0.4566708,0.254388
 6,2.3136267,-0.3608718,-0.1859485,0.0095295,-0.5727779,0.6045958,0.452
 8463,0.1406626,0.0072476,-0.6421322,-0.8013645,0.2146228,0.476112,0.44
 46619,-0.1840005,-0.3030158,0.7405617,-0.2433501,-0.5322164,-0.1176322
 ,0.1243993,0.0718628,0.4688819,-0.8874073,-0.291029,0.0435903,-0.03956
 99,-0.2143251,1.8697208,0.0090471,-0.2211908,-0.0422146,2.040774,0.045
 821,-0.0456675,-0.1449567,2.1648498,-0.0436153,-0.2397754,-0.4506194,-
 0.305461,-0.1679678,0.2242574,-0.6405476,0.204489,0.0264624,-0.4939298
 ,0.057489,0.0443513,0.0359502,-0.5164432,0.204056,-0.1017051,0.1881513
 ,-1.0009327,-0.4412162,0.0023538,0.0799582,-0.1606357,-1.2621025,-0.01
 01134,-0.0117409,0.111195,-0.4222501,-0.3031361,0.1606862,0.0354021,0.
 098933,-0.8131414,-0.0018881,0.0548226,0.0184996,-0.4785273,-0.8110189
 ,0.0225311,0.3498729,-0.0557286,-0.2518225,0.0509562,0.4220323,-0.0337
 583,-0.6948787,-0.4475837,-0.200612,-0.3080383,-0.1448275,-0.3892289,-
 0.1790854,-0.1100162,-0.2323483,-0.9073733,0.2969262,-0.0403781,-0.014
 5078,-0.0071734,0.4375591,-0.023372,-0.0353213,-0.0899879,0.387697\Pol
 ar=63.940472,-7.4566743,53.6657517,-14.7442113,4.2821003,69.3463882\PG
 =Unknown\NImag=0\\0.53337697,0.00210867,0.53923495,-0.00929131,-0.0305
 3914,0.59903281,-0.04836070,0.00688046,0.00646517,0.14279154,-0.000509
 54,-0.09262751,0.07640046,-0.12259054,0.58430807,-0.01185913,0.0457480
 8,-0.18431309,-0.12434121,0.01522940,0.60569041,-0.00326141,0.00698228
 ,-0.01630857,-0.00012014,-0.01763640,-0.00266624,0.11256147,0.00225204
 ,-0.00310477,0.00848645,0.00199006,0.01374902,0.00225245,-0.06033429,0
 .05617768,0.00031426,-0.00582325,0.01194372,-0.00025005,0.01526132,0.0
 0798940,-0.10442608,0.08760254,0.16595158,-0.00283399,0.00679998,-0.00
 198928,-0.02247464,0.05915723,0.00457886,-0.00385855,-0.00184035,0.002
 64113,0.03208142,0.01103760,-0.04031070,-0.01243460,0.06416503,-0.3612
 1494,0.00069731,0.01348492,-0.00608432,-0.01048132,-0.08772091,0.43353
 014,-0.00572039,0.02796961,0.00257546,0.01401203,-0.00777669,-0.055038
 95,-0.00105238,0.00033665,0.00053567,-0.01080104,0.00417090,0.05288893
 ,-0.00591826,-0.01454728,0.01410497,-0.06519165,0.05546243,0.09770912,
 -0.05462932,0.02675249,0.04382730,-0.01114483,0.00739371,0.00045189,0.
 41351293,-0.00926178,0.04526102,-0.01734032,0.03821213,-0.11270259,-0.
 06276085,0.02646360,-0.00945354,-0.01416337,0.02522899,-0.03750217,-0.
 02621314,-0.08324568,0.74689814,0.02128395,0.00294857,-0.05022566,0.08
 888186,-0.10238296,-0.26606045,0.04868996,-0.01691457,-0.02446723,0.00
 597458,0.01785730,0.00063961,0.01323341,-0.17025607,1.06678007,-0.0014
 1859,-0.00430543,0.00780852,0.00036233,0.01515357,0.00933483,-0.068766
 12,0.04014874,0.07101538,0.00045514,-0.00838900,0.00114134,-0.12348880
 ,-0.02612277,-0.09025599,0.24937001,0.00092929,-0.00311899,-0.00094010
 ,0.00314635,-0.00355561,-0.00740074,0.03981712,-0.05810017,-0.08261280
 ,0.00326744,0.00173763,0.00094460,-0.01379660,-0.05066598,0.00967107,-
 0.01054505,0.11720216,0.00096480,0.00161690,0.00004324,0.00963618,-0.0
 0836776,-0.00984929,0.06917323,-0.08167284,-0.16691353,0.00257075,0.00
 024566,0.00103962,-0.04721012,0.00530675,-0.06245737,0.00439748,0.0908
 6054,0.24782854,0.00452851,0.00708905,-0.00210291,0.00082941,-0.007069
 32,0.01963469,0.00932185,-0.00573595,-0.00578767,-0.00221700,-0.001333
 97,-0.00084544,-0.08614353,0.04844115,-0.08470486,-0.02428759,0.016927
 79,-0.03395122,0.08531016,0.00401197,-0.00335622,-0.00169842,-0.001616
 15,0.00282379,-0.00289559,-0.00158362,0.00005933,0.00084579,-0.0012372
 9,0.00837420,-0.00053355,0.05414199,-0.20670159,0.24346262,-0.00125068
 ,0.00917247,0.00535337,-0.05461744,0.20594401,-0.00017215,-0.01002854,
 0.01145830,-0.00316638,0.02930626,-0.02566794,-0.00271402,0.00277140,0
 .00946334,-0.00141041,-0.00635650,0.00245599,-0.10017836,0.26682977,-0
 .59587790,0.00566715,0.00202435,-0.01615479,0.10346238,-0.28317733,0.6
 2025553,-0.00207301,-0.00030655,-0.00311962,-0.00323923,0.01334107,0.0
 0253030,0.00829131,-0.00323265,-0.00731139,0.00535937,0.00429984,0.004
 14532,-0.06031312,-0.02113684,-0.00854708,-0.03027789,-0.03929652,-0.0
 0534984,0.00838513,0.00639408,-0.00182923,0.11018750,0.00073337,-0.017
 40868,0.00910819,0.00527206,-0.00928132,0.00169353,-0.00234689,0.00450
 449,0.00601210,-0.00318110,-0.00696176,-0.00744223,-0.04020664,-0.3094
 1695,-0.01192267,-0.00987521,-0.01812576,-0.01258383,-0.00167775,-0.01
 683346,-0.00444732,-0.00565802,0.48649299,-0.00115224,0.01125528,0.000
 41094,-0.00053388,-0.02090563,0.01595968,-0.00267152,0.00301738,0.0041
 3030,-0.00078872,-0.00382964,-0.00498315,-0.00530941,-0.00693374,-0.09
 881345,-0.00152759,-0.01048186,0.00732304,0.00021694,0.04168577,0.0021
 1443,0.12327136,-0.17109850,0.43849957,-0.08450495,0.04614453,-0.00350
 383,0.00357353,0.01071311,-0.00107695,0.00180755,-0.00071553,-0.001334
 57,0.00311549,0.00044945,-0.00129451,-0.00338621,0.00576298,0.00073465
 ,-0.00084958,-0.00092779,0.00088932,0.00074768,-0.00077634,-0.00062832
 ,0.00149875,-0.00248748,0.00241714,0.10497320,0.04855928,-0.23548851,0
 .01922640,0.01238271,-0.03542697,0.00208342,-0.00441230,0.00242866,0.0
 0322313,0.00106882,-0.00280518,0.00835889,0.00306418,-0.02088737,-0.00
 751409,0.00323706,0.00100132,0.00007723,-0.00137564,0.00205812,0.00258
 441,-0.00015401,0.01165528,-0.00667097,-0.08587466,0.35484994,-0.00575
 720,0.02548781,-0.08502047,-0.00881162,0.02795186,0.00954892,0.0009393
 3,-0.00068690,-0.00062623,-0.00087367,0.00648195,-0.00537268,-0.001338
 15,-0.00749766,0.00104190,0.00044439,0.00139417,0.00011679,-0.00015783
 ,0.00149698,-0.00054969,0.00214372,0.00061301,-0.01109443,-0.00515999,
 0.01492291,0.09461069,-0.24125227,-0.00947962,0.09291846,-0.01156865,0
 .00317489,0.02448157,-0.00109761,0.00063500,0.00079913,0.00112681,-0.0
 0397204,-0.00126143,-0.00094493,-0.00339745,-0.00377212,0.00028349,0.0
 0001681,0.00060703,0.00027730,-0.00002029,0.00260886,0.00015800,0.0006
 9590,0.00118824,-0.03912821,0.03959514,0.02246671,0.37516761,-0.005620
 51,-0.07564819,0.00918122,-0.01015500,0.00809675,0.00946932,-0.0009748
 7,0.00056859,0.00060559,0.00043593,0.00398096,-0.00099707,-0.00077481,
 -0.00587436,0.00049741,0.00037293,0.00041897,0.00008771,0.00005008,0.0
 0085115,0.00123947,0.00000632,0.00209958,-0.00104622,0.05234095,-0.015
 93674,-0.02691362,-0.00098400,0.07558235,0.09800838,0.00624441,-0.1323
 0834,0.03996687,0.00008670,-0.03642417,0.00467373,-0.00263503,-0.00296
 665,-0.00235579,0.00226253,0.00199753,0.00149014,0.01087402,0.00758499
 ,-0.00153419,-0.00022378,-0.00097751,-0.00105066,-0.00075297,-0.004105
 09,0.00047006,-0.00279313,-0.00030989,0.01710538,-0.01545802,0.0056179
 1,-0.13393489,0.00660410,0.14342272,-0.14969750,-0.05080090,-0.0855467
 8,0.00402840,-0.00799610,-0.02021518,0.00182797,-0.00077196,-0.0013710
 9,0.00075315,0.00045839,0.00172719,-0.00740853,0.00293753,0.00204520,-
 0.00018626,0.00018823,0.00075834,0.00181159,0.00011395,-0.00195854,0.0
 0098292,-0.00066828,-0.00009340,0.01281316,-0.01451960,-0.00271467,-0.
 08269062,-0.03452895,-0.02294743,0.21825425,-0.05561020,-0.11090385,-0
 .05547150,0.00123735,0.00506332,-0.00136137,0.00033665,-0.00016899,-0.
 00002345,-0.00127387,0.00565165,0.00032132,-0.00071151,-0.00373218,0.0
 0166938,0.00029303,0.00047933,-0.00026677,-0.00025022,0.00072483,-0.00
 007648,0.00044681,0.00221790,-0.00164701,-0.02373282,-0.06172741,-0.04
 692451,-0.02537643,0.00582224,-0.00504470,0.10537325,0.15633026,-0.090
 48072,-0.05918701,-0.17713535,-0.02248061,-0.02482263,-0.05976508,0.00
 483994,-0.00202117,-0.00372633,0.00252185,0.00268042,0.00497844,-0.019
 04219,0.01037226,0.01322928,-0.00215590,0.00029144,0.00102581,0.005212
 42,0.00122346,-0.00565246,0.00157515,-0.00388454,0.00086432,-0.0054889
 6,-0.03074985,-0.00141399,-0.00446396,-0.00062869,0.01897869,0.1300915
 9,0.10615082,0.20921597,0.00141520,0.00343481,0.00056518,-0.00063020,-
 0.00120040,0.00188935,-0.00207700,0.00085241,0.00188365,-0.00036238,0.
 00012699,-0.00050258,0.00505624,-0.00388185,0.00643644,-0.00119613,0.0
 0027294,-0.00248595,0.00143648,-0.00356017,0.00031901,-0.03895974,0.05
 940005,-0.11501692,-0.00066042,-0.00157098,-0.00118102,-0.00033094,-0.
 00016807,0.00010841,-0.00048852,-0.00073205,-0.00012860,0.03679741,0.0
 0136980,-0.00252856,-0.00397863,0.00107555,0.00076798,-0.00275497,0.00
 020379,-0.00057598,-0.00044628,-0.00070486,0.00160451,0.00086073,0.006
 46774,-0.03522242,0.03288400,0.00128281,0.00355463,-0.00065696,-0.0004
 4778,-0.00311662,-0.00066949,0.04529647,-0.12894231,0.16665515,-0.0008
 9639,0.00027888,0.00367401,-0.00088790,0.00003873,0.00083587,0.0002144
 5,0.00024290,0.00057548,-0.05297368,0.16389827,0.00386174,-0.01569273,
 0.00353844,0.00062162,0.00001968,-0.00206945,0.00152262,-0.00053634,-0
 .00131404,-0.00006825,-0.00129401,-0.00171648,0.00226140,0.01178236,0.
 00862622,-0.00433542,-0.00352688,-0.00102455,0.00007419,-0.00501015,0.
 00226029,-0.10797875,0.19674540,-0.35410135,-0.00265935,0.00991654,-0.
 00685872,-0.00163760,0.00190078,-0.00051019,0.00022478,0.00267427,-0.0
 0059929,0.10811304,-0.19697891,0.35376913\\-0.00000066,-0.00000601,0.0
 0000028,0.00000319,0.00000181,0.00000403,-0.00000069,-0.00000007,-0.00
 000073,0.00000991,0.00000313,0.00001180,0.00000105,0.00000609,0.000000
 70,0.00000148,-0.00000331,0.00000209,0.00000549,0.00001521,0.00000447,
 -0.00000548,0.00000845,-0.00000826,-0.00000653,-0.00000798,-0.00000717
 ,-0.00000095,-0.00000409,-0.00000068,0.00000174,-0.00001529,0.00000467
 ,-0.00000854,0.00000205,-0.00001120\\\@
 The archive entry for this job was punched.


 ALL SCIENCE IS EITHER PHYSICS, OR STAMP COLLECTING.
   --ERNEST RUTHERFORD, 1871-1937.
 Job cpu time:       0 days  0 hours 33 minutes 25.6 seconds.
 Elapsed time:       0 days  0 hours  4 minutes 15.4 seconds.
 File lengths (MBytes):  RWF=    164 Int=      0 D2E=      0 Chk=     11 Scr=      1
 Normal termination of Gaussian 16 at Sat May 24 08:26:36 2025.
done
