 Entering Gaussian System, Link 0=g16
 Initial command:
 /apps/easybuild-2022/easybuild/software/Compiler/NVHPC/22.11-CUDA-11.7.0/Gaussian/g16c01-CUDA-11.7.0/g16/l1.exe "/tmp/Gau-221465.inp" -scrdir="/tmp/"
 Entering Link 1 = /apps/easybuild-2022/easybuild/software/Compiler/NVHPC/22.11-CUDA-11.7.0/Gaussian/g16c01-CUDA-11.7.0/g16/l1.exe PID=    221466.
  
 Copyright (c) 1988-2019, Gaussian, Inc.  All Rights Reserved.
  
 This is part of the Gaussian(R) 16 program.  It is based on
 the Gaussian(R) 09 system (copyright 2009, Gaussian, Inc.),
 the Gaussian(R) 03 system (copyright 2003, Gaussian, Inc.),
 the Gaussian(R) 98 system (copyright 1998, Gaussian, Inc.),
 the Gaussian(R) 94 system (copyright 1995, Gaussian, Inc.),
 the Gaussian 92(TM) system (copyright 1992, Gaussian, Inc.),
 the Gaussian 90(TM) system (copyright 1990, Gaussian, Inc.),
 the Gaussian 88(TM) system (copyright 1988, Gaussian, Inc.),
 the Gaussian 86(TM) system (copyright 1986, Carnegie Mellon
 University), and the Gaussian 82(TM) system (copyright 1983,
 Carnegie Mellon University). Gaussian is a federally registered
 trademark of Gaussian, Inc.
  
 This software contains proprietary and confidential information,
 including trade secrets, belonging to Gaussian, Inc.
  
 This software is provided under written license and may be
 used, copied, transmitted, or stored only in accord with that
 written license.
  
 The following legend is applicable only to US Government
 contracts under FAR:
  
                    RESTRICTED RIGHTS LEGEND
  
 Use, reproduction and disclosure by the US Government is
 subject to restrictions as set forth in subparagraphs (a)
 and (c) of the Commercial Computer Software - Restricted
 Rights clause in FAR 52.227-19.
  
 Gaussian, Inc.
 340 Quinnipiac St., Bldg. 40, Wallingford CT 06492
  
  
 ---------------------------------------------------------------
 Warning -- This program may not be used in any manner that
 competes with the business of Gaussian, Inc. or will provide
 assistance to any competitor of Gaussian, Inc.  The licensee
 of this program is prohibited from giving any competitor of
 Gaussian, Inc. access to this program.  By using this program,
 the user acknowledges that Gaussian, Inc. is engaged in the
 business of creating and licensing software in the field of
 computational chemistry and represents and warrants to the
 licensee that it is not a competitor of Gaussian, Inc. and that
 it will not use this program in any manner prohibited above.
 ---------------------------------------------------------------
  

 Cite this work as:
 Gaussian 16, Revision C.01,
 M. J. Frisch, G. W. Trucks, H. B. Schlegel, G. E. Scuseria, 
 M. A. Robb, J. R. Cheeseman, G. Scalmani, V. Barone, 
 G. A. Petersson, H. Nakatsuji, X. Li, M. Caricato, A. V. Marenich, 
 J. Bloino, B. G. Janesko, R. Gomperts, B. Mennucci, H. P. Hratchian, 
 J. V. Ortiz, A. F. Izmaylov, J. L. Sonnenberg, D. Williams-Young, 
 F. Ding, F. Lipparini, F. Egidi, J. Goings, B. Peng, A. Petrone, 
 T. Henderson, D. Ranasinghe, V. G. Zakrzewski, J. Gao, N. Rega, 
 G. Zheng, W. Liang, M. Hada, M. Ehara, K. Toyota, R. Fukuda, 
 J. Hasegawa, M. Ishida, T. Nakajima, Y. Honda, O. Kitao, H. Nakai, 
 T. Vreven, K. Throssell, J. A. Montgomery, Jr., J. E. Peralta, 
 F. Ogliaro, M. J. Bearpark, J. J. Heyd, E. N. Brothers, K. N. Kudin, 
 V. N. Staroverov, T. A. Keith, R. Kobayashi, J. Normand, 
 K. Raghavachari, A. P. Rendell, J. C. Burant, S. S. Iyengar, 
 J. Tomasi, M. Cossi, J. M. Millam, M. Klene, C. Adamo, R. Cammi, 
 J. W. Ochterski, R. L. Martin, K. Morokuma, O. Farkas, 
 J. B. Foresman, and D. J. Fox, Gaussian, Inc., Wallingford CT, 2019.
 
 ******************************************
 Gaussian 16:  ES64L-G16RevC.01  3-Jul-2019
                24-May-2025 
 ******************************************
 %mem=28GB
 %nprocshared=8
 Will use up to    8 processors via shared memory.
 ----------------------------------------------------------------------
 #P M062X/Def2TZVPP Symm(None) scf(xqc) pop(None) freq opt(CalcFC, Tigh
 t)
 ----------------------------------------------------------------------
 1/7=10,10=4,18=20,19=15,26=3,38=1/1,3;
 2/9=110,12=2,15=3,17=6,18=5,40=1/2;
 3/5=44,7=202,11=2,25=1,30=1,71=2,74=-55,140=1/1,2,3;
 4//1;
 5/5=2,8=3,13=1,38=5/2,8;
 8/6=4,10=90,11=11/1;
 11/6=1,8=1,9=11,15=111,16=1,31=1/1,2,10;
 10/6=1,13=1,31=1/2;
 7/10=1,25=1,30=1/1,2,3,16;
 1/7=10,10=4,18=20,19=15,26=3/3(2);
 2/9=110,15=3/2;
 99//99;
 2/9=110,15=3/2;
 3/5=44,7=202,11=2,25=1,30=1,71=1,74=-55/1,2,3;
 4/5=5,16=3,69=1/1;
 5/5=2,8=3,13=1,38=5/2,8;
 7/30=1/1,2,3,16;
 1/7=10,18=20,19=15,26=3/3(-5);
 2/9=110,15=3/2;
 99/9=1/99;
 Leave Link    1 at Sat May 24 08:09:02 2025, MaxMem=  3758096384 cpu:               0.0 elap:               0.0
 (Enter /apps/easybuild-2022/easybuild/software/Compiler/NVHPC/22.11-CUDA-11.7.0/Gaussian/g16c01-CUDA-11.7.0/g16/l101.exe)
 ------------------------------
 Gaussian input prepared by ASE
 ------------------------------
 Symbolic Z-matrix:
 Charge =  0 Multiplicity = 1
 C                     2.54706   0.08539  -2.62814 
 C                     2.51318  -0.52898  -1.26566 
 F                    -0.38154   0.54431  -1.22828 
 F                     2.73558  -1.85857  -1.28702 
 S                     1.65752   0.        0. 
 O                     0.        0.        0. 
 O                     1.86982  -0.67224   1.22528 
 O                     1.77927   1.54814   0. 
 F                     2.42184   1.41847  -2.5763 
 F                     3.71364  -0.19399  -3.20763 
 F                     1.59299  -0.37465  -3.43985 
 H                     1.62384   1.90773   0.88644 
 
 ITRead=  0  0  0  0  0  0  0  0  0  0  0  0
 MicOpt= -1 -1 -1 -1 -1 -1 -1 -1 -1 -1 -1 -1
 NAtoms=     12 NQM=       12 NQMF=       0 NMMI=      0 NMMIF=      0
                NMic=       0 NMicF=      0.
                    Isotopes and Nuclear Properties:
 (Nuclear quadrupole moments (NQMom) in fm**2, nuclear magnetic moments (NMagM)
  in nuclear magnetons)

  Atom         1           2           3           4           5           6           7           8           9          10
 IAtWgt=          12          12          19          19          32          16          16          16          19          19
 AtmWgt=  12.0000000  12.0000000  18.9984032  18.9984032  31.9720718  15.9949146  15.9949146  15.9949146  18.9984032  18.9984032
 NucSpn=           0           0           1           1           0           0           0           0           1           1
 AtZEff=  -0.0000000  -0.0000000  -0.0000000  -0.0000000  -0.0000000  -0.0000000  -0.0000000  -0.0000000  -0.0000000  -0.0000000
 NQMom=    0.0000000   0.0000000   0.0000000   0.0000000   0.0000000   0.0000000   0.0000000   0.0000000   0.0000000   0.0000000
 NMagM=    0.0000000   0.0000000   2.6288670   2.6288670   0.0000000   0.0000000   0.0000000   0.0000000   2.6288670   2.6288670
 AtZNuc=   6.0000000   6.0000000   9.0000000   9.0000000  16.0000000   8.0000000   8.0000000   8.0000000   9.0000000   9.0000000

  Atom        11          12
 IAtWgt=          19           1
 AtmWgt=  18.9984032   1.0078250
 NucSpn=           1           1
 AtZEff=  -0.0000000  -0.0000000
 NQMom=    0.0000000   0.0000000
 NMagM=    2.6288670   2.7928460
 AtZNuc=   9.0000000   1.0000000
 Leave Link  101 at Sat May 24 08:09:02 2025, MaxMem=  3758096384 cpu:               0.2 elap:               0.2
 (Enter /apps/easybuild-2022/easybuild/software/Compiler/NVHPC/22.11-CUDA-11.7.0/Gaussian/g16c01-CUDA-11.7.0/g16/l103.exe)

 GradGradGradGradGradGradGradGradGradGradGradGradGradGradGradGradGradGrad
 Berny optimization.
 Initialization pass.
                           ----------------------------
                           !    Initial Parameters    !
                           ! (Angstroms and Degrees)  !
 --------------------------                            --------------------------
 ! Name  Definition              Value          Derivative Info.                !
 --------------------------------------------------------------------------------
 ! R1    R(1,2)                  1.495          calculate D2E/DX2 analytically  !
 ! R2    R(1,9)                  1.34           calculate D2E/DX2 analytically  !
 ! R3    R(1,10)                 1.3322         calculate D2E/DX2 analytically  !
 ! R4    R(1,11)                 1.3345         calculate D2E/DX2 analytically  !
 ! R5    R(2,4)                  1.3482         calculate D2E/DX2 analytically  !
 ! R6    R(2,5)                  1.6167         calculate D2E/DX2 analytically  !
 ! R7    R(3,6)                  1.3966         calculate D2E/DX2 analytically  !
 ! R8    R(5,6)                  1.6575         calculate D2E/DX2 analytically  !
 ! R9    R(5,7)                  1.4136         calculate D2E/DX2 analytically  !
 ! R10   R(5,8)                  1.5529         calculate D2E/DX2 analytically  !
 ! R11   R(8,12)                 0.9691         calculate D2E/DX2 analytically  !
 ! A1    A(2,1,9)              111.8063         calculate D2E/DX2 analytically  !
 ! A2    A(2,1,10)             109.2748         calculate D2E/DX2 analytically  !
 ! A3    A(2,1,11)             113.3587         calculate D2E/DX2 analytically  !
 ! A4    A(9,1,10)             107.8963         calculate D2E/DX2 analytically  !
 ! A5    A(9,1,11)             107.4389         calculate D2E/DX2 analytically  !
 ! A6    A(10,1,11)            106.8094         calculate D2E/DX2 analytically  !
 ! A7    A(1,2,4)              112.7742         calculate D2E/DX2 analytically  !
 ! A8    A(1,2,5)              126.228          calculate D2E/DX2 analytically  !
 ! A9    A(4,2,5)              114.984          calculate D2E/DX2 analytically  !
 ! A10   A(2,5,6)              121.9546         calculate D2E/DX2 analytically  !
 ! A11   A(2,5,7)              116.3258         calculate D2E/DX2 analytically  !
 ! A12   A(2,5,8)              106.5402         calculate D2E/DX2 analytically  !
 ! A13   A(6,5,7)               98.6375         calculate D2E/DX2 analytically  !
 ! A14   A(6,5,8)               94.4966         calculate D2E/DX2 analytically  !
 ! A15   A(7,5,8)              117.5361         calculate D2E/DX2 analytically  !
 ! A16   A(3,6,5)              105.8544         calculate D2E/DX2 analytically  !
 ! A17   A(5,8,12)             110.936          calculate D2E/DX2 analytically  !
 ! D1    D(9,1,2,4)           -175.4375         calculate D2E/DX2 analytically  !
 ! D2    D(9,1,2,5)             33.4645         calculate D2E/DX2 analytically  !
 ! D3    D(10,1,2,4)           -56.0609         calculate D2E/DX2 analytically  !
 ! D4    D(10,1,2,5)           152.8412         calculate D2E/DX2 analytically  !
 ! D5    D(11,1,2,4)            62.9347         calculate D2E/DX2 analytically  !
 ! D6    D(11,1,2,5)           -88.1633         calculate D2E/DX2 analytically  !
 ! D7    D(1,2,5,6)             64.92           calculate D2E/DX2 analytically  !
 ! D8    D(1,2,5,7)           -174.6742         calculate D2E/DX2 analytically  !
 ! D9    D(1,2,5,8)            -41.4378         calculate D2E/DX2 analytically  !
 ! D10   D(4,2,5,6)            -85.6317         calculate D2E/DX2 analytically  !
 ! D11   D(4,2,5,7)             34.7741         calculate D2E/DX2 analytically  !
 ! D12   D(4,2,5,8)            168.0105         calculate D2E/DX2 analytically  !
 ! D13   D(2,5,6,3)            -46.5828         calculate D2E/DX2 analytically  !
 ! D14   D(7,5,6,3)           -175.1497         calculate D2E/DX2 analytically  !
 ! D15   D(8,5,6,3)             66.0995         calculate D2E/DX2 analytically  !
 ! D16   D(2,5,8,12)          -156.4229         calculate D2E/DX2 analytically  !
 ! D17   D(6,5,8,12)            78.3266         calculate D2E/DX2 analytically  !
 ! D18   D(7,5,8,12)           -23.848          calculate D2E/DX2 analytically  !
 --------------------------------------------------------------------------------
 Trust Radius=3.00D-01 FncErr=1.00D-07 GrdErr=1.00D-06 EigMax=2.50D+02 EigMin=1.00D-04
 Number of steps in this run=     56 maximum allowed number of steps=    100.
 GradGradGradGradGradGradGradGradGradGradGradGradGradGradGradGradGradGrad

 Leave Link  103 at Sat May 24 08:09:02 2025, MaxMem=  3758096384 cpu:               0.0 elap:               0.0
 (Enter /apps/easybuild-2022/easybuild/software/Compiler/NVHPC/22.11-CUDA-11.7.0/Gaussian/g16c01-CUDA-11.7.0/g16/l202.exe)
                          Input orientation:                          
 ---------------------------------------------------------------------
 Center     Atomic      Atomic             Coordinates (Angstroms)
 Number     Number       Type             X           Y           Z
 ---------------------------------------------------------------------
      1          6           0        2.547065    0.085387   -2.628141
      2          6           0        2.513182   -0.528980   -1.265663
      3          9           0       -0.381544    0.544311   -1.228279
      4          9           0        2.735583   -1.858567   -1.287016
      5         16           0        1.657522    0.000000    0.000000
      6          8           0        0.000000    0.000000    0.000000
      7          8           0        1.869820   -0.672236    1.225283
      8          8           0        1.779270    1.548142    0.000000
      9          9           0        2.421842    1.418471   -2.576300
     10          9           0        3.713644   -0.193985   -3.207627
     11          9           0        1.592988   -0.374651   -3.439851
     12          1           0        1.623840    1.907732    0.886435
 ---------------------------------------------------------------------
                    Distance matrix (angstroms):
                    1          2          3          4          5
     1  C    0.000000
     2  C    1.494972   0.000000
     3  F    3.278258   3.087522   0.000000
     4  F    2.369200   1.348228   3.936210   0.000000
     5  S    2.775914   1.616749   2.441871   2.504575   0.000000
     6  O    3.660868   2.863181   1.396610   3.548816   1.657522
     7  O    3.985163   2.576673   3.545221   2.910080   1.413608
     8  O    3.104237   2.540662   2.680572   3.765183   1.552922
     9  F    1.339956   2.349186   3.231144   3.535486   3.038678
    10  F    1.332202   2.307500   4.607978   2.723267   3.814989
    11  F    1.334455   2.365939   3.103920   2.853459   3.460795
    12  H    4.065160   3.370463   3.217530   4.488303   2.103887
                    6          7          8          9         10
     6  O    0.000000
     7  O    2.334405   0.000000
     8  O    2.358505   2.537635   0.000000
     9  F    3.809816   4.373535   2.658389   0.000000
    10  F    4.910973   4.824842   4.131063   2.160404   0.000000
    11  F    3.809271   4.682805   3.945175   2.155924   2.140969
    12  H    2.657454   2.613724   0.969139   3.587021   5.054290
                   11         12
    11  F    0.000000
    12  H    4.891521   0.000000
 Symmetry turned off by external request.
 Stoichiometry    C2HF5O3S
 Rotational constants (GHZ):           1.4737393           0.8145309           0.7086844
 Leave Link  202 at Sat May 24 08:09:02 2025, MaxMem=  3758096384 cpu:               0.0 elap:               0.0
 (Enter /apps/easybuild-2022/easybuild/software/Compiler/NVHPC/22.11-CUDA-11.7.0/Gaussian/g16c01-CUDA-11.7.0/g16/l301.exe)
 Standard basis: def2TZVPP (5D, 7F)
 Ernie: Thresh=  0.10000D-02 Tol=  0.10000D-05 Strict=F.
   366 basis functions,   596 primitive gaussians,   423 cartesian basis functions
    49 alpha electrons       49 beta electrons
       nuclear repulsion energy       908.9593734510 Hartrees.
 IExCor= 4336 DFT=T Ex+Corr=M062X ExCW=0 ScaHFX=  0.540000
 ScaDFX=  1.000000  1.000000  1.000000  1.000000 ScalE2=  1.000000  1.000000
 IRadAn=      5 IRanWt=     -1 IRanGd=            0 ICorTp=0 IEmpDi=  4
 NAtoms=   12 NActive=   12 NUniq=   12 SFac= 1.00D+00 NAtFMM=   60 NAOKFM=F Big=F
 Integral buffers will be    131072 words long.
 Raffenetti 2 integral format.
 Two-electron integral symmetry is turned off.
 Leave Link  301 at Sat May 24 08:09:02 2025, MaxMem=  3758096384 cpu:               0.0 elap:               0.0
 (Enter /apps/easybuild-2022/easybuild/software/Compiler/NVHPC/22.11-CUDA-11.7.0/Gaussian/g16c01-CUDA-11.7.0/g16/l302.exe)
 NPDir=0 NMtPBC=     1 NCelOv=     1 NCel=       1 NClECP=     1 NCelD=      1
         NCelK=      1 NCelE2=     1 NClLst=     1 CellRange=     0.0.
 One-electron integrals computed using PRISM.
   1 Symmetry operations used in ECPInt.
 ECPInt:  NShTT=    8515 NPrTT=   27988 LenC2=    7928 LenP2D=   19138.
 LDataN:  DoStor=T MaxTD1= 6 Len=  172
 NBasis=   366 RedAO= T EigKep=  3.88D-04  NBF=   366
 NBsUse=   366 1.00D-06 EigRej= -1.00D+00 NBFU=   366
 Precomputing XC quadrature grid using
 IXCGrd= 4 IRadAn=           5 IRanWt=          -1 IRanGd=           0 AccXCQ= 0.00D+00.
 Generated NRdTot=       0 NPtTot=           0 NUsed=           0 NTot=          32
 NSgBfM=   419   419   419   419   419 MxSgAt=    12 MxSgA2=    12.
 Leave Link  302 at Sat May 24 08:09:03 2025, MaxMem=  3758096384 cpu:               0.7 elap:               0.2
 (Enter /apps/easybuild-2022/easybuild/software/Compiler/NVHPC/22.11-CUDA-11.7.0/Gaussian/g16c01-CUDA-11.7.0/g16/l303.exe)
 DipDrv:  MaxL=1.
 Leave Link  303 at Sat May 24 08:09:03 2025, MaxMem=  3758096384 cpu:               0.1 elap:               0.0
 (Enter /apps/easybuild-2022/easybuild/software/Compiler/NVHPC/22.11-CUDA-11.7.0/Gaussian/g16c01-CUDA-11.7.0/g16/l401.exe)
 ExpMin= 9.52D-02 ExpMax= 6.07D+04 ExpMxC= 2.07D+03 IAcc=3 IRadAn=         5 AccDes= 0.00D+00
 Harris functional with IExCor= 1009 and IRadAn=       5 diagonalized for initial guess.
 HarFok:  IExCor= 1009 AccDes= 0.00D+00 IRadAn=         5 IDoV= 1 UseB2=F ITyADJ=14
 ICtDFT=  3500011 ScaDFX=  1.000000  1.000000  1.000000  1.000000
 FoFCou: FMM=F IPFlag=           0 FMFlag=      100000 FMFlg1=           0
         NFxFlg=           0 DoJE=T BraDBF=F KetDBF=T FulRan=T
         wScrn=  0.000000 ICntrl=       500 IOpCl=  0 I1Cent=   200000004 NGrid=           0
         NMat0=    1 NMatS0=      1 NMatT0=    0 NMatD0=    1 NMtDS0=    0 NMtDT0=    0
 Symmetry not used in FoFCou.
 Harris En= -1199.12625759962    
 JPrj=0 DoOrth=F DoCkMO=F.
 Leave Link  401 at Sat May 24 08:09:03 2025, MaxMem=  3758096384 cpu:               4.2 elap:               0.6
 (Enter /apps/easybuild-2022/easybuild/software/Compiler/NVHPC/22.11-CUDA-11.7.0/Gaussian/g16c01-CUDA-11.7.0/g16/l502.exe)
 Keep R1 ints in memory in canonical form, NReq=2293446996.
 FoFCou: FMM=F IPFlag=           0 FMFlag=           0 FMFlg1=           0
         NFxFlg=           0 DoJE=F BraDBF=F KetDBF=F FulRan=T
         wScrn=  0.000000 ICntrl=       600 IOpCl=  0 I1Cent=           0 NGrid=           0
         NMat0=    1 NMatS0=  67161 NMatT0=    0 NMatD0=    1 NMtDS0=    0 NMtDT0=    0
 Symmetry not used in FoFCou.
 Two-electron integral symmetry not used.
 Closed shell SCF:
 Using DIIS extrapolation, IDIIS=  1040.
 NGot=  3758096384 LenX=  1502398672 LenY=  1502219302
 Requested convergence on RMS density matrix=1.00D-08 within  32 cycles.
 Requested convergence on MAX density matrix=1.00D-06.
 Requested convergence on             energy=1.00D-06.
 No special actions if energy rises.
 Integral accuracy reduced to 1.0D-05 until final iterations.

 Cycle   1  Pass 0  IDiag  1:
 E= -1199.44896101896    
 DIIS: error= 1.79D-02 at cycle   1 NSaved=   1.
 NSaved= 1 IEnMin= 1 EnMin= -1199.44896101896     IErMin= 1 ErrMin= 1.79D-02
 ErrMax= 1.79D-02  0.00D+00 EMaxC= 1.00D-01 BMatC= 5.16D-01 BMatP= 5.16D-01
 IDIUse=3 WtCom= 8.21D-01 WtEn= 1.79D-01
 Coeff-Com:  0.100D+01
 Coeff-En:   0.100D+01
 Coeff:      0.100D+01
 Gap=     0.249 Goal=   None    Shift=    0.000
 GapD=    0.249 DampG=1.000 DampE=0.500 DampFc=0.5000 IDamp=-1.
 Damping current iteration by 5.00D-01
 RMSDP=2.24D-03 MaxDP=2.64D-01              OVMax= 2.09D-01

 Cycle   2  Pass 0  IDiag  1:
 E= -1199.54250372401     Delta-E=       -0.093542705054 Rises=F Damp=T
 DIIS: error= 6.29D-03 at cycle   2 NSaved=   2.
 NSaved= 2 IEnMin= 2 EnMin= -1199.54250372401     IErMin= 2 ErrMin= 6.29D-03
 ErrMax= 6.29D-03  0.00D+00 EMaxC= 1.00D-01 BMatC= 5.40D-02 BMatP= 5.16D-01
 IDIUse=3 WtCom= 9.37D-01 WtEn= 6.29D-02
 Coeff-Com:  0.650D-01 0.935D+00
 Coeff-En:   0.247D+00 0.753D+00
 Coeff:      0.764D-01 0.924D+00
 Gap=     0.316 Goal=   None    Shift=    0.000
 RMSDP=6.48D-04 MaxDP=4.89D-02 DE=-9.35D-02 OVMax= 1.23D-01

 Cycle   3  Pass 0  IDiag  1:
 E= -1199.69379167311     Delta-E=       -0.151287949102 Rises=F Damp=F
 DIIS: error= 5.58D-03 at cycle   3 NSaved=   3.
 NSaved= 3 IEnMin= 3 EnMin= -1199.69379167311     IErMin= 3 ErrMin= 5.58D-03
 ErrMax= 5.58D-03  0.00D+00 EMaxC= 1.00D-01 BMatC= 2.34D-02 BMatP= 5.40D-02
 IDIUse=3 WtCom= 9.44D-01 WtEn= 5.58D-02
 Coeff-Com: -0.751D-01 0.373D+00 0.702D+00
 Coeff-En:   0.000D+00 0.000D+00 0.100D+01
 Coeff:     -0.709D-01 0.352D+00 0.718D+00
 Gap=     0.309 Goal=   None    Shift=    0.000
 RMSDP=3.31D-04 MaxDP=1.81D-02 DE=-1.51D-01 OVMax= 3.90D-02

 Cycle   4  Pass 0  IDiag  1:
 E= -1199.70673756666     Delta-E=       -0.012945893553 Rises=F Damp=F
 DIIS: error= 2.33D-03 at cycle   4 NSaved=   4.
 NSaved= 4 IEnMin= 4 EnMin= -1199.70673756666     IErMin= 4 ErrMin= 2.33D-03
 ErrMax= 2.33D-03  0.00D+00 EMaxC= 1.00D-01 BMatC= 5.48D-03 BMatP= 2.34D-02
 IDIUse=3 WtCom= 9.77D-01 WtEn= 2.33D-02
 Coeff-Com: -0.460D-01 0.102D+00 0.390D+00 0.554D+00
 Coeff-En:   0.000D+00 0.000D+00 0.151D+00 0.849D+00
 Coeff:     -0.449D-01 0.996D-01 0.385D+00 0.560D+00
 Gap=     0.304 Goal=   None    Shift=    0.000
 RMSDP=1.13D-04 MaxDP=5.78D-03 DE=-1.29D-02 OVMax= 1.22D-02

 Cycle   5  Pass 0  IDiag  1:
 E= -1199.71027162950     Delta-E=       -0.003534062836 Rises=F Damp=F
 DIIS: error= 2.45D-04 at cycle   5 NSaved=   5.
 NSaved= 5 IEnMin= 5 EnMin= -1199.71027162950     IErMin= 5 ErrMin= 2.45D-04
 ErrMax= 2.45D-04  0.00D+00 EMaxC= 1.00D-01 BMatC= 1.01D-04 BMatP= 5.48D-03
 IDIUse=3 WtCom= 9.98D-01 WtEn= 2.45D-03
 Coeff-Com: -0.118D-01 0.187D-01 0.964D-01 0.198D+00 0.699D+00
 Coeff-En:   0.000D+00 0.000D+00 0.000D+00 0.000D+00 0.100D+01
 Coeff:     -0.118D-01 0.187D-01 0.961D-01 0.197D+00 0.699D+00
 Gap=     0.304 Goal=   None    Shift=    0.000
 RMSDP=2.10D-05 MaxDP=8.47D-04 DE=-3.53D-03 OVMax= 1.61D-03

 Cycle   6  Pass 0  IDiag  1:
 E= -1199.71033541415     Delta-E=       -0.000063784650 Rises=F Damp=F
 DIIS: error= 1.10D-04 at cycle   6 NSaved=   6.
 NSaved= 6 IEnMin= 6 EnMin= -1199.71033541415     IErMin= 6 ErrMin= 1.10D-04
 ErrMax= 1.10D-04  0.00D+00 EMaxC= 1.00D-01 BMatC= 1.15D-05 BMatP= 1.01D-04
 IDIUse=3 WtCom= 9.99D-01 WtEn= 1.10D-03
 Coeff-Com: -0.188D-02 0.947D-03 0.105D-01 0.402D-01 0.294D+00 0.656D+00
 Coeff-En:   0.000D+00 0.000D+00 0.000D+00 0.000D+00 0.000D+00 0.100D+01
 Coeff:     -0.188D-02 0.946D-03 0.105D-01 0.401D-01 0.293D+00 0.657D+00
 Gap=     0.305 Goal=   None    Shift=    0.000
 RMSDP=7.26D-06 MaxDP=3.04D-04 DE=-6.38D-05 OVMax= 9.91D-04

 Initial convergence to 1.0D-05 achieved.  Increase integral accuracy.
 Cycle   7  Pass 1  IDiag  1:
 E= -1199.71036843755     Delta-E=       -0.000033023401 Rises=F Damp=F
 DIIS: error= 4.33D-05 at cycle   1 NSaved=   1.
 NSaved= 1 IEnMin= 1 EnMin= -1199.71036843755     IErMin= 1 ErrMin= 4.33D-05
 ErrMax= 4.33D-05  0.00D+00 EMaxC= 1.00D-01 BMatC= 2.25D-06 BMatP= 2.25D-06
 IDIUse=1 WtCom= 1.00D+00 WtEn= 0.00D+00
 Coeff-Com:  0.100D+01
 Coeff:      0.100D+01
 Gap=     0.304 Goal=   None    Shift=    0.000
 RMSDP=7.26D-06 MaxDP=3.04D-04 DE=-3.30D-05 OVMax= 9.89D-04

 Cycle   8  Pass 1  IDiag  1:
 E= -1199.71036835605     Delta-E=        0.000000081503 Rises=F Damp=F
 DIIS: error= 5.68D-05 at cycle   2 NSaved=   2.
 NSaved= 2 IEnMin= 1 EnMin= -1199.71036843755     IErMin= 1 ErrMin= 4.33D-05
 ErrMax= 5.68D-05  0.00D+00 EMaxC= 1.00D-01 BMatC= 3.29D-06 BMatP= 2.25D-06
 IDIUse=1 WtCom= 1.00D+00 WtEn= 0.00D+00
 Coeff-Com:  0.555D+00 0.445D+00
 Coeff:      0.555D+00 0.445D+00
 Gap=     0.304 Goal=   None    Shift=    0.000
 RMSDP=3.05D-06 MaxDP=1.53D-04 DE= 8.15D-08 OVMax= 4.19D-04

 Cycle   9  Pass 1  IDiag  1:
 E= -1199.71037051407     Delta-E=       -0.000002158016 Rises=F Damp=F
 DIIS: error= 1.17D-05 at cycle   3 NSaved=   3.
 NSaved= 3 IEnMin= 3 EnMin= -1199.71037051407     IErMin= 3 ErrMin= 1.17D-05
 ErrMax= 1.17D-05  0.00D+00 EMaxC= 1.00D-01 BMatC= 1.26D-07 BMatP= 2.25D-06
 IDIUse=1 WtCom= 1.00D+00 WtEn= 0.00D+00
 Coeff-Com:  0.366D-01 0.151D+00 0.812D+00
 Coeff:      0.366D-01 0.151D+00 0.812D+00
 Gap=     0.305 Goal=   None    Shift=    0.000
 RMSDP=1.52D-06 MaxDP=9.91D-05 DE=-2.16D-06 OVMax= 1.44D-04

 Cycle  10  Pass 1  IDiag  1:
 E= -1199.71037060241     Delta-E=       -0.000000088349 Rises=F Damp=F
 DIIS: error= 5.31D-06 at cycle   4 NSaved=   4.
 NSaved= 4 IEnMin= 4 EnMin= -1199.71037060241     IErMin= 4 ErrMin= 5.31D-06
 ErrMax= 5.31D-06  0.00D+00 EMaxC= 1.00D-01 BMatC= 3.40D-08 BMatP= 1.26D-07
 IDIUse=1 WtCom= 1.00D+00 WtEn= 0.00D+00
 Coeff-Com: -0.432D-01 0.259D-01 0.421D+00 0.596D+00
 Coeff:     -0.432D-01 0.259D-01 0.421D+00 0.596D+00
 Gap=     0.304 Goal=   None    Shift=    0.000
 RMSDP=5.06D-07 MaxDP=3.31D-05 DE=-8.83D-08 OVMax= 6.61D-05

 Cycle  11  Pass 1  IDiag  1:
 E= -1199.71037062821     Delta-E=       -0.000000025797 Rises=F Damp=F
 DIIS: error= 9.80D-07 at cycle   5 NSaved=   5.
 NSaved= 5 IEnMin= 5 EnMin= -1199.71037062821     IErMin= 5 ErrMin= 9.80D-07
 ErrMax= 9.80D-07  0.00D+00 EMaxC= 1.00D-01 BMatC= 7.86D-10 BMatP= 3.40D-08
 IDIUse=1 WtCom= 1.00D+00 WtEn= 0.00D+00
 Coeff-Com: -0.622D-02-0.143D-01-0.326D-01 0.483D-01 0.100D+01
 Coeff:     -0.622D-02-0.143D-01-0.326D-01 0.483D-01 0.100D+01
 Gap=     0.305 Goal=   None    Shift=    0.000
 RMSDP=2.45D-07 MaxDP=1.55D-05 DE=-2.58D-08 OVMax= 4.33D-05

 Cycle  12  Pass 1  IDiag  1:
 E= -1199.71037063042     Delta-E=       -0.000000002204 Rises=F Damp=F
 DIIS: error= 4.29D-07 at cycle   6 NSaved=   6.
 NSaved= 6 IEnMin= 6 EnMin= -1199.71037063042     IErMin= 6 ErrMin= 4.29D-07
 ErrMax= 4.29D-07  0.00D+00 EMaxC= 1.00D-01 BMatC= 2.30D-10 BMatP= 7.86D-10
 IDIUse=1 WtCom= 1.00D+00 WtEn= 0.00D+00
 Coeff-Com:  0.271D-02-0.968D-02-0.624D-01-0.526D-01 0.396D+00 0.726D+00
 Coeff:      0.271D-02-0.968D-02-0.624D-01-0.526D-01 0.396D+00 0.726D+00
 Gap=     0.305 Goal=   None    Shift=    0.000
 RMSDP=6.93D-08 MaxDP=2.87D-06 DE=-2.20D-09 OVMax= 1.50D-05

 Cycle  13  Pass 1  IDiag  1:
 E= -1199.71037063074     Delta-E=       -0.000000000325 Rises=F Damp=F
 DIIS: error= 1.99D-07 at cycle   7 NSaved=   7.
 NSaved= 7 IEnMin= 7 EnMin= -1199.71037063074     IErMin= 7 ErrMin= 1.99D-07
 ErrMax= 1.99D-07  0.00D+00 EMaxC= 1.00D-01 BMatC= 3.76D-11 BMatP= 2.30D-10
 IDIUse=1 WtCom= 1.00D+00 WtEn= 0.00D+00
 Coeff-Com:  0.232D-02-0.273D-02-0.259D-01-0.331D-01 0.340D-01 0.309D+00
 Coeff-Com:  0.717D+00
 Coeff:      0.232D-02-0.273D-02-0.259D-01-0.331D-01 0.340D-01 0.309D+00
 Coeff:      0.717D+00
 Gap=     0.305 Goal=   None    Shift=    0.000
 RMSDP=2.59D-08 MaxDP=6.84D-07 DE=-3.25D-10 OVMax= 6.54D-06

 Cycle  14  Pass 1  IDiag  1:
 E= -1199.71037063080     Delta-E=       -0.000000000061 Rises=F Damp=F
 DIIS: error= 4.81D-08 at cycle   8 NSaved=   8.
 NSaved= 8 IEnMin= 8 EnMin= -1199.71037063080     IErMin= 8 ErrMin= 4.81D-08
 ErrMax= 4.81D-08  0.00D+00 EMaxC= 1.00D-01 BMatC= 2.78D-12 BMatP= 3.76D-11
 IDIUse=1 WtCom= 1.00D+00 WtEn= 0.00D+00
 Coeff-Com: -0.152D-03 0.116D-02 0.664D-02 0.532D-02-0.542D-01-0.813D-01
 Coeff-Com:  0.937D-01 0.103D+01
 Coeff:     -0.152D-03 0.116D-02 0.664D-02 0.532D-02-0.542D-01-0.813D-01
 Coeff:      0.937D-01 0.103D+01
 Gap=     0.305 Goal=   None    Shift=    0.000
 RMSDP=1.19D-08 MaxDP=3.08D-07 DE=-6.09D-11 OVMax= 3.11D-06

 Cycle  15  Pass 1  IDiag  1:
 E= -1199.71037063083     Delta-E=       -0.000000000024 Rises=F Damp=F
 DIIS: error= 1.87D-08 at cycle   9 NSaved=   9.
 NSaved= 9 IEnMin= 9 EnMin= -1199.71037063083     IErMin= 9 ErrMin= 1.87D-08
 ErrMax= 1.87D-08  0.00D+00 EMaxC= 1.00D-01 BMatC= 4.18D-13 BMatP= 2.78D-12
 IDIUse=1 WtCom= 1.00D+00 WtEn= 0.00D+00
 Coeff-Com: -0.256D-03 0.638D-03 0.441D-02 0.462D-02-0.192D-01-0.580D-01
 Coeff-Com: -0.405D-01 0.325D+00 0.783D+00
 Coeff:     -0.256D-03 0.638D-03 0.441D-02 0.462D-02-0.192D-01-0.580D-01
 Coeff:     -0.405D-01 0.325D+00 0.783D+00
 Gap=     0.305 Goal=   None    Shift=    0.000
 RMSDP=2.90D-09 MaxDP=9.76D-08 DE=-2.41D-11 OVMax= 7.08D-07

 SCF Done:  E(RM062X) =  -1199.71037063     A.U. after   15 cycles
            NFock= 15  Conv=0.29D-08     -V/T= 2.0028
 KE= 1.196344101528D+03 PE=-4.664371168807D+03 EE= 1.359357323197D+03
 Leave Link  502 at Sat May 24 08:09:46 2025, MaxMem=  3758096384 cpu:             169.4 elap:              42.6
 (Enter /apps/easybuild-2022/easybuild/software/Compiler/NVHPC/22.11-CUDA-11.7.0/Gaussian/g16c01-CUDA-11.7.0/g16/l508.exe)
 QCSCF skips out because SCF is already converged.
 Leave Link  508 at Sat May 24 08:09:46 2025, MaxMem=  3758096384 cpu:               0.0 elap:               0.0
 (Enter /apps/easybuild-2022/easybuild/software/Compiler/NVHPC/22.11-CUDA-11.7.0/Gaussian/g16c01-CUDA-11.7.0/g16/l801.exe)
 DoSCS=F DFT=T ScalE2(SS,OS)=  1.000000  1.000000
 Range of M.O.s used for correlation:     1   366
 NBasis=   366 NAE=    49 NBE=    49 NFC=     0 NFV=     0
 NROrb=    366 NOA=    49 NOB=    49 NVA=   317 NVB=   317

 **** Warning!!: The largest alpha MO coefficient is  0.19009786D+02

 Leave Link  801 at Sat May 24 08:09:46 2025, MaxMem=  3758096384 cpu:               0.0 elap:               0.0
 (Enter /apps/easybuild-2022/easybuild/software/Compiler/NVHPC/22.11-CUDA-11.7.0/Gaussian/g16c01-CUDA-11.7.0/g16/l1101.exe)
 Using compressed storage, NAtomX=    12.
 Will process     13 centers per pass.
   1 Symmetry operations used in ECPInt.
 ECPInt:  NShTT=    8515 NPrTT=   27988 LenC2=    7928 LenP2D=   19138.
 LDataN:  DoStor=T MaxTD1= 7 Len=  274
 Leave Link 1101 at Sat May 24 08:09:46 2025, MaxMem=  3758096384 cpu:               1.1 elap:               0.2
 (Enter /apps/easybuild-2022/easybuild/software/Compiler/NVHPC/22.11-CUDA-11.7.0/Gaussian/g16c01-CUDA-11.7.0/g16/l1102.exe)
 Symmetrizing basis deriv contribution to polar:
 IMax=3 JMax=2 DiffMx= 0.00D+00
 Leave Link 1102 at Sat May 24 08:09:46 2025, MaxMem=  3758096384 cpu:               0.1 elap:               0.0
 (Enter /apps/easybuild-2022/easybuild/software/Compiler/NVHPC/22.11-CUDA-11.7.0/Gaussian/g16c01-CUDA-11.7.0/g16/l1110.exe)
 Forming Gx(P) for the SCF density, NAtomX=    12.
 Integral derivatives from FoFJK, PRISM(SPDF).
 Do as many integral derivatives as possible in FoFJK.
 G2DrvN: MDV=    3758095012.
 G2DrvN: will do    13 centers at a time, making    1 passes.
 Calling FoFCou, ICntrl=  3107 FMM=F I1Cent=   0 AccDes= 0.00D+00.
 FoFJK:  IHMeth= 1 ICntrl=    3107 DoSepK=F KAlg= 0 I1Cent=           0 FoldK=F
 IRaf=         0 NMat=       1 IRICut=       1 DoRegI=T DoRafI=F ISym2E= 0 IDoP0=0 IntGTp=1.
 FoFCou: FMM=F IPFlag=           0 FMFlag=      100000 FMFlg1=           0
         NFxFlg=           0 DoJE=F BraDBF=F KetDBF=F FulRan=T
         wScrn=  0.000000 ICntrl=      3107 IOpCl=  0 I1Cent=           0 NGrid=           0
         NMat0=    1 NMatS0=      1 NMatT0=    0 NMatD0=    1 NMtDS0=    0 NMtDT0=    0
 Symmetry not used in FoFCou.
 End of G2Drv F.D. properties file   721 does not exist.
 End of G2Drv F.D. properties file   722 does not exist.
 End of G2Drv F.D. properties file   788 does not exist.
 Leave Link 1110 at Sat May 24 08:10:42 2025, MaxMem=  3758096384 cpu:             444.8 elap:              56.0
 (Enter /apps/easybuild-2022/easybuild/software/Compiler/NVHPC/22.11-CUDA-11.7.0/Gaussian/g16c01-CUDA-11.7.0/g16/l1002.exe)
 Minotr:  Closed shell wavefunction.
          IDoAtm=111111111111
          Direct CPHF calculation.
          Differentiating once with respect to nuclear coordinates.
          Requested convergence is 1.0D-08 RMS, and 1.0D-07 maximum.
          Secondary convergence is 1.0D-12 RMS, and 1.0D-12 maximum.
          NewPWx=T KeepS1=F KeepF1=F KeepIn=T MapXYZ=F SortEE=F KeepMc=T.
         3598 words used for storage of precomputed grid.
 Keep R1 ints in memory in canonical form, NReq=2293452904.
 FoFCou: FMM=F IPFlag=           0 FMFlag=           0 FMFlg1=           0
         NFxFlg=           0 DoJE=F BraDBF=F KetDBF=F FulRan=T
         wScrn=  0.000000 ICntrl=       600 IOpCl=  0 I1Cent=           0 NGrid=           0
         NMat0=    1 NMatS0=  67161 NMatT0=    0 NMatD0=    1 NMtDS0=    0 NMtDT0=    0
 Symmetry not used in FoFCou.
 Two-electron integral symmetry not used.
          MDV=    3758096384 using IRadAn=       1.
          Solving linear equations simultaneously, MaxMat=       0.
          There are    39 degrees of freedom in the 1st order CPHF.  IDoFFX=6 NUNeed=     0.
     33 vectors produced by pass  0 Test12= 3.98D-14 2.56D-09 XBig12= 1.37D-01 1.08D-01.
 AX will form    33 AO Fock derivatives at one time.
     33 vectors produced by pass  1 Test12= 3.98D-14 2.56D-09 XBig12= 2.70D-02 4.09D-02.
     33 vectors produced by pass  2 Test12= 3.98D-14 2.56D-09 XBig12= 1.45D-03 1.04D-02.
     33 vectors produced by pass  3 Test12= 3.98D-14 2.56D-09 XBig12= 3.17D-05 9.18D-04.
     33 vectors produced by pass  4 Test12= 3.98D-14 2.56D-09 XBig12= 4.94D-07 1.07D-04.
     33 vectors produced by pass  5 Test12= 3.98D-14 2.56D-09 XBig12= 5.29D-09 1.15D-05.
     33 vectors produced by pass  6 Test12= 3.98D-14 2.56D-09 XBig12= 4.70D-11 7.77D-07.
     22 vectors produced by pass  7 Test12= 3.98D-14 2.56D-09 XBig12= 2.76D-13 5.59D-08.
      7 vectors produced by pass  8 Test12= 3.98D-14 2.56D-09 XBig12= 1.46D-15 4.78D-09.
 InvSVY:  IOpt=1 It=  1 EMax= 1.89D-15
 Solved reduced A of dimension   260 with    33 vectors.
 End of Minotr F.D. properties file   721 does not exist.
 End of Minotr F.D. properties file   722 does not exist.
 End of Minotr F.D. properties file   788 does not exist.
 Leave Link 1002 at Sat May 24 08:12:05 2025, MaxMem=  3758096384 cpu:             647.9 elap:              82.2
 (Enter /apps/easybuild-2022/easybuild/software/Compiler/NVHPC/22.11-CUDA-11.7.0/Gaussian/g16c01-CUDA-11.7.0/g16/l701.exe)
 ... and contract with generalized density number  0.
 Compute integral second derivatives.
   1 Symmetry operations used in ECPInt.
 ECPInt:  NShTT=    8515 NPrTT=   27988 LenC2=    7928 LenP2D=   19138.
 LDataN:  DoStor=T MaxTD1= 8 Len=  415
 Leave Link  701 at Sat May 24 08:12:05 2025, MaxMem=  3758096384 cpu:               0.7 elap:               0.1
 (Enter /apps/easybuild-2022/easybuild/software/Compiler/NVHPC/22.11-CUDA-11.7.0/Gaussian/g16c01-CUDA-11.7.0/g16/l702.exe)
 L702 exits ... SP integral derivatives will be done elsewhere.
 Leave Link  702 at Sat May 24 08:12:05 2025, MaxMem=  3758096384 cpu:               0.0 elap:               0.0
 (Enter /apps/easybuild-2022/easybuild/software/Compiler/NVHPC/22.11-CUDA-11.7.0/Gaussian/g16c01-CUDA-11.7.0/g16/l703.exe)
 Integral derivatives from FoFJK, PRISM(SPDF).
 Compute integral second derivatives, UseDBF=F ICtDFT=           0.
 Calling FoFJK, ICntrl=    100127 FMM=F ISym2X=0 I1Cent= 0 IOpClX= 0 NMat=1 NMatS=1 NMatT=0.
 FoFJK:  IHMeth= 1 ICntrl=  100127 DoSepK=F KAlg= 0 I1Cent=           0 FoldK=F
 IRaf=         0 NMat=       1 IRICut=       1 DoRegI=T DoRafI=F ISym2E= 0 IDoP0=0 IntGTp=1.
 FoFCou: FMM=F IPFlag=           0 FMFlag=      100000 FMFlg1=         800
         NFxFlg=           0 DoJE=F BraDBF=F KetDBF=F FulRan=T
         wScrn=  0.000000 ICntrl=    100127 IOpCl=  0 I1Cent=           0 NGrid=           0
         NMat0=    1 NMatS0=      1 NMatT0=    0 NMatD0=    1 NMtDS0=    0 NMtDT0=    0
 Symmetry not used in FoFCou.
 Leave Link  703 at Sat May 24 08:14:08 2025, MaxMem=  3758096384 cpu:             977.0 elap:             122.8
 (Enter /apps/easybuild-2022/easybuild/software/Compiler/NVHPC/22.11-CUDA-11.7.0/Gaussian/g16c01-CUDA-11.7.0/g16/l716.exe)
 Dipole        =-2.22584297D-01 1.03664955D+00 9.26159375D-01
 Polarizability= 0.00000000D+00 0.00000000D+00 0.00000000D+00
                 0.00000000D+00 0.00000000D+00 0.00000000D+00
 -------------------------------------------------------------------
 Center     Atomic                   Forces (Hartrees/Bohr)
 Number     Number              X              Y              Z
 -------------------------------------------------------------------
      1        6           0.002783654    0.010348080    0.001380412
      2        6          -0.000812782    0.005258218   -0.001888234
      3        9           0.001100172    0.000495420    0.000577046
      4        9          -0.002698224    0.000165482    0.002227712
      5       16           0.002990146    0.002164472   -0.005702712
      6        8          -0.012609542   -0.010121862    0.001461961
      7        8          -0.000579847   -0.000986985    0.006027998
      8        8           0.014491216    0.003196016   -0.004554516
      9        9          -0.001134506   -0.005844107    0.000372416
     10        9           0.000157336   -0.001257008   -0.000133417
     11        9          -0.001134254   -0.001832270   -0.000416998
     12        1          -0.002553370   -0.001585456    0.000648331
 -------------------------------------------------------------------
 Cartesian Forces:  Max     0.014491216 RMS     0.004721352
 Force constants in Cartesian coordinates: 
                1             2             3             4             5 
      1  0.534188D+00
      2 -0.555178D-02  0.565097D+00
      3 -0.132630D-01 -0.277172D-01  0.591541D+00
      4 -0.459305D-01  0.453960D-02  0.105890D-01  0.147243D+00
      5 -0.587152D-02 -0.882841D-01  0.764888D-01 -0.103062D+00  0.564364D+00
      6 -0.369566D-02  0.401145D-01 -0.178933D+00 -0.138891D+00  0.482050D-02
      7  0.118980D-03  0.501066D-04  0.561798D-03  0.128368D-02 -0.267076D-03
      8  0.904740D-03 -0.109378D-02  0.243359D-03 -0.127488D-02  0.313115D-03
      9 -0.354055D-02  0.187163D-02 -0.346045D-02  0.817530D-03 -0.317592D-02
     10 -0.223435D-02  0.638013D-02 -0.683191D-03 -0.225700D-01  0.537793D-01
     11  0.101714D-01 -0.418306D-01 -0.127111D-01  0.566447D-01 -0.355157D+00
     12 -0.416408D-02  0.296355D-01  0.199112D-02  0.168177D-01 -0.108592D-01
     13 -0.561627D-02 -0.191040D-01  0.256934D-01 -0.687563D-01  0.643447D-01
     14 -0.657055D-02  0.375517D-01 -0.156238D-01  0.330334D-01 -0.979406D-01
     15  0.224755D-01  0.542405D-02 -0.491186D-01  0.969664D-01 -0.925845D-01
     16 -0.693130D-02  0.551276D-02 -0.193694D-01  0.250771D-02 -0.180371D-01
     17  0.995817D-03 -0.231813D-02  0.399647D-02  0.520139D-02  0.102332D-01
     18  0.543254D-02 -0.616964D-02  0.158157D-01  0.654167D-02  0.149044D-01
     19  0.396778D-02  0.806547D-02 -0.417052D-02 -0.204591D-02 -0.101057D-01
     20  0.417876D-02 -0.250295D-02 -0.190837D-02 -0.279446D-02  0.100315D-02
     21 -0.248745D-03 -0.105216D-01  0.127458D-01 -0.159627D-02  0.312003D-01
     22 -0.542275D-03  0.176682D-02 -0.368562D-02 -0.273803D-02  0.115816D-01
     23 -0.195031D-02 -0.124317D-01  0.962488D-02  0.392023D-02 -0.701050D-02
     24 -0.235206D-03  0.238881D-02  0.420686D-02 -0.337910D-02 -0.265102D-01
     25 -0.759705D-01  0.140238D-01  0.207241D-02  0.694833D-02  0.337326D-02
     26  0.153979D-01 -0.279310D+00  0.196310D-01  0.558494D-02 -0.362261D-01
     27 -0.104591D-02  0.196181D-01 -0.862514D-01 -0.433895D-02  0.301306D-01
     28 -0.230572D+00  0.275308D-01  0.938959D-01 -0.151762D-01  0.847586D-02
     29  0.307117D-01 -0.818637D-01 -0.129019D-01 -0.390454D-02  0.658749D-02
     30  0.964135D-01 -0.152811D-01 -0.136151D+00  0.412897D-01 -0.822793D-02
     31 -0.170015D+00 -0.425957D-01 -0.918641D-01  0.226902D-02 -0.648943D-02
     32 -0.431280D-01 -0.928864D-01 -0.373150D-01  0.270837D-02  0.724255D-02
     33 -0.984080D-01 -0.404176D-01 -0.170464D+00 -0.238357D-01 -0.188255D-01
     34 -0.463363D-03 -0.617968D-03  0.223299D-03 -0.303440D-02  0.227762D-02
     35  0.711846D-03 -0.127983D-03 -0.180714D-02 -0.597176D-03 -0.512541D-02
     36  0.279693D-03  0.105452D-02 -0.192168D-02 -0.981257D-03  0.263868D-02
                6             7             8             9            10 
      6  0.586845D+00
      7  0.691394D-03  0.792542D-01
      8 -0.203935D-02 -0.445673D-01  0.640787D-01
      9  0.546532D-02  0.101577D+00 -0.126347D+00  0.289450D+00
     10  0.519408D-02  0.533246D-03 -0.133199D-03  0.538567D-03  0.326647D-01
     11 -0.299408D-02 -0.144908D-02  0.496409D-03  0.356727D-03 -0.813694D-01
     12 -0.544678D-01  0.174140D-03 -0.149475D-03  0.201789D-03 -0.152130D-01
     13  0.116000D+00 -0.105659D-01 -0.675749D-03 -0.161939D-02 -0.125150D-01
     14 -0.556727D-01  0.205413D-01 -0.122405D-01  0.154514D-01  0.299946D-01
     15 -0.257756D+00 -0.454774D-01  0.144684D-01 -0.309503D-01  0.689107D-02
     16 -0.163247D-02 -0.581826D-01  0.408962D-01 -0.922672D-01 -0.370827D-02
     17  0.330134D-04  0.234974D-01 -0.603249D-01  0.116365D+00 -0.263891D-02
     18 -0.344879D-02 -0.550590D-01  0.116320D+00 -0.270061D+00  0.242544D-02
     19  0.217256D-01 -0.128068D-01  0.590715D-02 -0.938709D-02 -0.207621D-02
     20 -0.236860D-03  0.124308D-02  0.496175D-02 -0.289288D-03 -0.829852D-03
     21 -0.266470D-01 -0.375587D-02  0.125914D-02  0.292127D-02 -0.213368D-02
     22  0.259237D-02  0.115624D-02 -0.423767D-03  0.153359D-02  0.277100D-02
     23 -0.267351D-03 -0.689036D-03  0.354331D-02 -0.431525D-02 -0.893477D-03
     24  0.137428D-01  0.141846D-02 -0.291139D-02  0.392231D-02  0.322027D-02
     25 -0.403630D-02 -0.448848D-03 -0.435777D-03  0.712314D-03  0.266016D-02
     26  0.476642D-02  0.297630D-03  0.269149D-03 -0.846324D-03 -0.106452D-02
     27  0.713685D-02  0.165578D-03 -0.746828D-05  0.388406D-03  0.695347D-03
     28  0.248124D-01 -0.254540D-04 -0.451662D-04  0.152022D-03  0.147936D-02
     29  0.298172D-02 -0.201619D-04  0.157417D-03 -0.276737D-03 -0.150390D-02
     30 -0.352739D-01 -0.177130D-03 -0.150092D-03  0.104491D-02 -0.221969D-02
     31 -0.223143D-01  0.251592D-03 -0.114900D-03  0.164894D-02  0.766710D-03
     32  0.474998D-02 -0.172280D-04  0.105377D-03 -0.390665D-04 -0.173964D-02
     33 -0.569365D-01  0.236004D-03 -0.607759D-03  0.140873D-02  0.153885D-02
     34 -0.446045D-03 -0.568297D-03 -0.373723D-04 -0.166071D-03  0.222869D-02
     35  0.374424D-02  0.138027D-02 -0.266020D-03  0.124451D-02  0.188276D-04
     36  0.274136D-03 -0.355297D-03 -0.787450D-04 -0.331298D-03 -0.254027D-03
               11            12            13            14            15 
     11  0.429428D+00
     12  0.571675D-02  0.539487D-01
     13 -0.361369D-02 -0.166772D-02  0.447091D+00
     14 -0.389595D-01 -0.239464D-01 -0.948909D-01  0.749125D+00
     15  0.207445D-01  0.499050D-03 -0.599520D-01 -0.165208D+00  0.102694D+01
     16  0.164573D-01 -0.542610D-03 -0.189037D+00 -0.203566D-01  0.383751D-01
     17 -0.150780D-02  0.805401D-03  0.902700D-02 -0.384586D-01 -0.342288D-04
     18 -0.112303D-01  0.118038D-02  0.221194D-01 -0.465754D-02 -0.518617D-01
     19  0.214941D-03 -0.771386D-03 -0.918399D-01  0.463819D-01 -0.709279D-01
     20  0.924669D-02 -0.139461D-02  0.542335D-01 -0.227743D+00  0.252321D+00
     21 -0.668963D-02  0.190187D-02 -0.874825D-01  0.266870D+00 -0.563023D+00
     22  0.465820D-02  0.377121D-02 -0.576029D-01 -0.767892D-02  0.118984D-01
     23 -0.754140D-02 -0.523370D-02 -0.230453D-01 -0.314292D+00  0.155613D-01
     24 -0.724530D-02 -0.727362D-02  0.144838D-01 -0.292301D-01 -0.105273D+00
     25 -0.132968D-03  0.780856D-03 -0.314783D-02  0.266124D-02 -0.629118D-05
     26 -0.386600D-02  0.723033D-02  0.534022D-02 -0.148913D-01 -0.696427D-02
     27  0.736635D-02 -0.545112D-02 -0.313627D-02 -0.184056D-02  0.382613D-02
     28 -0.309716D-02 -0.209807D-02 -0.240994D-03 -0.325323D-02 -0.220688D-02
     29  0.458198D-02  0.940844D-03  0.351247D-03 -0.395543D-02  0.149294D-02
     30  0.978225D-03  0.189758D-02 -0.100733D-02  0.960277D-02  0.586283D-02
     31  0.109850D-02  0.159728D-02 -0.114597D-01  0.286600D-02  0.457466D-02
     32  0.513377D-02 -0.143261D-02  0.105563D-02 -0.328048D-02  0.134612D-03
     33  0.356922D-02  0.419341D-02 -0.231752D-01  0.870599D-02  0.156298D-01
     34  0.417206D-03  0.131569D-02  0.369090D-02 -0.272824D-02 -0.261068D-02
     35 -0.252732D-04 -0.131278D-02  0.697732D-02 -0.349160D-01 -0.453551D-01
     36  0.213867D-02  0.137868D-02 -0.255737D-03 -0.445037D-02  0.522437D-02
               16            17            18            19            20 
     16  0.277807D+00
     17 -0.252213D-02  0.113661D+00
     18  0.623714D-01 -0.130078D+00  0.323529D+00
     19  0.160721D-02  0.135499D-01 -0.366154D-01  0.910934D-01
     20  0.128553D-02 -0.214572D-03  0.108337D-01 -0.590838D-01  0.214650D+00
     21  0.145006D-02  0.665728D-02 -0.136570D-01  0.944528D-01 -0.293248D+00
     22 -0.250128D-01 -0.477324D-01 -0.583277D-02  0.102505D-01  0.241315D-02
     23 -0.182899D-01 -0.237774D-01  0.392203D-02 -0.207421D-02 -0.821024D-02
     24 -0.408725D-02  0.127553D-02  0.957897D-02  0.189275D-03  0.300114D-01
     25  0.155315D-02 -0.147546D-03 -0.120106D-02  0.550392D-03 -0.434516D-03
     26 -0.383766D-02  0.160901D-02  0.404383D-02 -0.152824D-02  0.148251D-02
     27  0.230510D-02 -0.201196D-04 -0.160341D-02  0.406151D-03  0.745058D-03
     28 -0.687692D-03  0.445471D-03  0.664822D-03 -0.900954D-04 -0.329751D-04
     29 -0.272113D-03  0.241253D-03  0.387319D-03 -0.347644D-03  0.821687D-03
     30  0.525131D-02 -0.154386D-02 -0.455814D-02 -0.270101D-03 -0.803879D-03
     31  0.344931D-02  0.439329D-04 -0.249258D-02  0.277205D-02  0.359775D-03
     32  0.389273D-03  0.128347D-03 -0.218655D-03 -0.656866D-03  0.432146D-03
     33  0.592722D-02 -0.196212D-03 -0.495900D-02  0.587508D-02  0.176586D-02
     34 -0.336484D-02  0.280035D-03  0.164558D-02 -0.138243D-02 -0.538216D-03
     35 -0.122553D-02  0.728644D-03  0.194259D-02 -0.322944D-03  0.607265D-02
     36  0.221872D-02  0.273953D-02  0.448080D-04 -0.506521D-03  0.220462D-02
               21            22            23            24            25 
     21  0.588977D+00
     22  0.241511D-03  0.764071D-01
     23 -0.366708D-02  0.157224D-01  0.442581D+00
     24  0.120632D-01 -0.925378D-01  0.172355D+00  0.510440D+00
     25 -0.315245D-03  0.339119D-03 -0.158883D-03  0.250200D-02  0.853297D-01
     26  0.282204D-02 -0.545403D-03  0.680103D-02 -0.998126D-03 -0.320344D-01
     27 -0.111398D-02  0.261160D-02 -0.212986D-02 -0.899125D-02 -0.609231D-03
     28  0.291236D-02  0.397280D-04  0.112926D-02  0.963069D-03 -0.186350D-01
     29  0.685168D-03 -0.290200D-04  0.117069D-02 -0.360445D-03  0.541366D-01
     30 -0.458562D-02  0.416436D-03 -0.257958D-02 -0.114426D-02  0.123565D-01
     31 -0.231300D-02  0.141397D-02 -0.110323D-02 -0.663896D-03  0.883516D-03
     32  0.358341D-03  0.882345D-05  0.143145D-02 -0.444347D-03 -0.405424D-01
     33 -0.581327D-02  0.241596D-02 -0.455797D-02 -0.104877D-02 -0.124360D-01
     34 -0.121139D-02 -0.648163D-02  0.274325D-01  0.781264D-01 -0.621631D-04
     35  0.427459D-02  0.202586D-01 -0.822647D-01 -0.138331D+00 -0.308357D-03
     36 -0.377014D-02  0.765751D-01 -0.178713D+00 -0.430223D+00  0.180011D-03
               26            27            28            29            30 
     26  0.412313D+00
     27  0.180534D-01  0.849962D-01
     28  0.403185D-01  0.149993D-01  0.353850D+00
     29 -0.361564D-01 -0.299784D-01 -0.657996D-01  0.941488D-01
     30 -0.191325D-01  0.717752D-02 -0.130621D+00  0.360228D-01  0.145715D+00
     31 -0.279979D-01 -0.122367D-01 -0.898455D-01 -0.133295D-01 -0.215450D-01
     32 -0.523846D-01 -0.431624D-01 -0.516493D-02  0.141488D-01  0.596055D-03
     33 -0.280698D-01  0.220617D-03 -0.315230D-02  0.105815D-02  0.194608D-01
     34  0.689614D-04  0.183926D-03 -0.963894D-04  0.693671D-05  0.112632D-03
     35  0.358883D-03  0.122529D-02 -0.506820D-03  0.117375D-03  0.519108D-03
     36 -0.535980D-03 -0.334622D-03 -0.321847D-03 -0.514193D-04  0.554205D-03
               31            32            33            34            35 
     31  0.259698D+00
     32  0.870181D-01  0.119852D+00
     33  0.145425D+00  0.768274D-01  0.197610D+00
     34 -0.184278D-03  0.689398D-04 -0.411165D-03  0.971820D-02
     35  0.244402D-03  0.772633D-04  0.748249D-03 -0.266304D-01  0.115371D+00
     36  0.183349D-03 -0.542772D-04  0.697574D-03 -0.767622D-01  0.173108D+00
               36 
     36  0.428407D+00
 FormGI is forming the generalized inverse of G from B-inverse, IUseBI=4.
 Leave Link  716 at Sat May 24 08:14:08 2025, MaxMem=  3758096384 cpu:               0.0 elap:               0.0
 (Enter /apps/easybuild-2022/easybuild/software/Compiler/NVHPC/22.11-CUDA-11.7.0/Gaussian/g16c01-CUDA-11.7.0/g16/l103.exe)

 GradGradGradGradGradGradGradGradGradGradGradGradGradGradGradGradGradGrad
 Berny optimization.
 Red2BG is reusing G-inverse.
 Internal  Forces:  Max     0.015799260 RMS     0.004381001
 Search for a local minimum.
 Step number   1 out of a maximum of   56
 All quantities printed in internal units (Hartrees-Bohrs-Radians)
 RMS Force = .43810D-02 SwitMx=.10000D-02 MixMth= 1
 Mixed Optimization -- RFO/linear search
 Second derivative matrix not updated -- analytic derivatives used.
 ITU=  0
     Eigenvalues ---   -0.00452   0.00338   0.00610   0.01058   0.01526
     Eigenvalues ---    0.08598   0.09407   0.10845   0.12442   0.13341
     Eigenvalues ---    0.13775   0.16636   0.18077   0.18819   0.20826
     Eigenvalues ---    0.23741   0.26016   0.26624   0.28823   0.31896
     Eigenvalues ---    0.39505   0.39705   0.40903   0.41736   0.43294
     Eigenvalues ---    0.45775   0.48318   0.52108   0.56966   0.77148
 Eigenvalue     1 is  -4.52D-03 should be greater than     0.000000 Eigenvector:
                          D17       D16       D18       D10       D11
   1                    0.56813   0.56099   0.56098   0.11133   0.10424
                          D12       D7        D8        D9        D2
   1                    0.09745   0.06575   0.05867   0.05188   0.02493
 RFO step:  Lambda=-6.14192841D-03 EMin=-4.51552031D-03
 Linear search not attempted -- first point.
 Iteration  1 RMS(Cart)=  0.04434577 RMS(Int)=  0.06305723
 Iteration  2 RMS(Cart)=  0.04376907 RMS(Int)=  0.01267958
 Iteration  3 RMS(Cart)=  0.01122579 RMS(Int)=  0.00032763
 Iteration  4 RMS(Cart)=  0.00028503 RMS(Int)=  0.00012855
 Iteration  5 RMS(Cart)=  0.00000013 RMS(Int)=  0.00012855
 ITry= 1 IFail=0 DXMaxC= 3.52D-01 DCOld= 1.00D+10 DXMaxT= 3.00D-01 DXLimC= 3.00D+00 Rises=F
 Variable       Old X    -DE/DX   Delta X   Delta X   Delta X     New X
                                 (Linear)    (Quad)   (Total)
    R1        2.82509  -0.00050   0.00000   0.00116   0.00116   2.82625
    R2        2.53215  -0.00569   0.00000  -0.02087  -0.02087   2.51128
    R3        2.51750   0.00046   0.00000   0.00172   0.00172   2.51921
    R4        2.52175   0.00170   0.00000   0.00758   0.00758   2.52934
    R5        2.54778  -0.00065   0.00000   0.00111   0.00111   2.54889
    R6        3.05521  -0.00495   0.00000  -0.01296  -0.01296   3.04225
    R7        2.63921  -0.00062   0.00000   0.00126   0.00126   2.64047
    R8        3.13226   0.01151   0.00000   0.04516   0.04516   3.17742
    R9        2.67133   0.00561   0.00000   0.00553   0.00553   2.67687
   R10        2.93460   0.00254   0.00000   0.00047   0.00047   2.93506
   R11        1.83141   0.00041   0.00000   0.00334   0.00334   1.83475
    A1        1.95139  -0.00031   0.00000   0.00957   0.00956   1.96095
    A2        1.90721  -0.00026   0.00000  -0.00053  -0.00062   1.90659
    A3        1.97848  -0.00231   0.00000  -0.01964  -0.01968   1.95880
    A4        1.88315   0.00194   0.00000   0.01025   0.01019   1.89333
    A5        1.87516   0.00086   0.00000   0.00493   0.00496   1.88012
    A6        1.86418   0.00031   0.00000  -0.00376  -0.00388   1.86030
    A7        1.96828   0.00298   0.00000   0.00637   0.00636   1.97464
    A8        2.20309   0.00074   0.00000   0.01001   0.01001   2.21311
    A9        2.00685  -0.00389   0.00000  -0.02018  -0.02018   1.98667
   A10        2.12851  -0.00356   0.00000   0.00007   0.00041   2.12892
   A11        2.03027   0.00637   0.00000   0.02828   0.02815   2.05842
   A12        1.85948  -0.01209   0.00000  -0.04502  -0.04502   1.81445
   A13        1.72155  -0.00462   0.00000  -0.02688  -0.02687   1.69468
   A14        1.64928   0.01580   0.00000   0.05260   0.05274   1.70202
   A15        2.05139   0.00026   0.00000  -0.00267  -0.00245   2.04894
   A16        1.84751  -0.00255   0.00000  -0.00661  -0.00661   1.84089
   A17        1.93620  -0.00378   0.00000  -0.02445  -0.02445   1.91174
    D1       -3.06196  -0.00218   0.00000  -0.06521  -0.06526  -3.12722
    D2        0.58407  -0.00077   0.00000  -0.05080  -0.05083   0.53324
    D3       -0.97845  -0.00013   0.00000  -0.04679  -0.04682  -1.02527
    D4        2.66758   0.00128   0.00000  -0.03238  -0.03239   2.63519
    D5        1.09842  -0.00138   0.00000  -0.06445  -0.06440   1.03402
    D6       -1.53874   0.00002   0.00000  -0.05004  -0.04997  -1.58871
    D7        1.13307   0.00490   0.00000   0.00051   0.00050   1.13357
    D8       -3.04864   0.00104   0.00000  -0.01128  -0.01119  -3.05983
    D9       -0.72323  -0.00462   0.00000  -0.03352  -0.03357  -0.75680
   D10       -1.49456   0.00460   0.00000   0.00842   0.00839  -1.48617
   D11        0.60692   0.00074   0.00000  -0.00337  -0.00330   0.60362
   D12        2.93234  -0.00491   0.00000  -0.02561  -0.02568   2.90666
   D13       -0.81302   0.00171   0.00000  -0.01257  -0.01267  -0.82569
   D14       -3.05694  -0.00027   0.00000  -0.02657  -0.02673  -3.08366
   D15        1.15365  -0.00317   0.00000  -0.03056  -0.03031   1.12334
   D16       -2.73009  -0.00076   0.00000  -0.43625  -0.43676   3.11633
   D17        1.36706   0.00019   0.00000  -0.44459  -0.44425   0.92280
   D18       -0.41623  -0.00327   0.00000  -0.44227  -0.44210  -0.85832
         Item               Value     Threshold  Converged?
 Maximum Force            0.015799     0.000015     NO 
 RMS     Force            0.004381     0.000010     NO 
 Maximum Displacement     0.352474     0.000060     NO 
 RMS     Displacement     0.084519     0.000040     NO 
 Predicted change in Energy=-4.726922D-03
 Lowest energy point so far.  Saving SCF results.
 GradGradGradGradGradGradGradGradGradGradGradGradGradGradGradGradGradGrad

 Leave Link  103 at Sat May 24 08:14:08 2025, MaxMem=  3758096384 cpu:               0.1 elap:               0.0
 (Enter /apps/easybuild-2022/easybuild/software/Compiler/NVHPC/22.11-CUDA-11.7.0/Gaussian/g16c01-CUDA-11.7.0/g16/l202.exe)
                          Input orientation:                          
 ---------------------------------------------------------------------
 Center     Atomic      Atomic             Coordinates (Angstroms)
 Number     Number       Type             X           Y           Z
 ---------------------------------------------------------------------
      1          6           0        2.553543    0.098848   -2.625098
      2          6           0        2.518156   -0.534048   -1.270487
      3          9           0       -0.367660    0.604244   -1.167999
      4          9           0        2.693990   -1.870898   -1.305303
      5         16           0        1.693682   -0.019714    0.013045
      6          8           0        0.012716    0.010226    0.038168
      7          8           0        1.874809   -0.708163    1.237711
      8          8           0        1.924359    1.516228    0.015725
      9          9           0        2.396312    1.417327   -2.571219
     10          9           0        3.726304   -0.163627   -3.202089
     11          9           0        1.609680   -0.391179   -3.437805
     12          1           0        1.437319    1.916379    0.754193
 ---------------------------------------------------------------------
                    Distance matrix (angstroms):
                    1          2          3          4          5
     1  C    0.000000
     2  C    1.495587   0.000000
     3  F    3.303331   3.103892   0.000000
     4  F    2.375181   1.348813   3.939401   0.000000
     5  S    2.777268   1.609892   2.456282   2.483051   0.000000
     6  O    3.681934   2.878548   1.397276   3.540165   1.681420
     7  O    4.004152   2.595239   3.540977   2.913748   1.416537
     8  O    3.062480   2.492101   2.736105   3.716190   1.553169
     9  F    1.328914   2.348322   3.204633   3.536040   3.039275
    10  F    1.333109   2.308229   4.635482   2.752862   3.806488
    11  F    1.338468   2.354359   3.170609   2.812981   3.471802
    12  H    3.996121   3.357400   2.945245   4.490458   2.088894
                    6          7          8          9         10
     6  O    0.000000
     7  O    2.328600   0.000000
     8  O    2.433706   2.538428   0.000000
     9  F    3.803993   4.392906   2.631502   0.000000
    10  F    4.931554   4.841113   4.052561   2.160160   0.000000
    11  F    3.846272   4.693743   3.957790   2.154172   2.141831
    12  H    2.485076   2.704332   0.970909   3.496725   5.021757
                   11         12
    11  F    0.000000
    12  H    4.788255   0.000000
 Symmetry turned off by external request.
 Stoichiometry    C2HF5O3S
 Rotational constants (GHZ):           1.4729453           0.8115346           0.7085789
 Leave Link  202 at Sat May 24 08:14:08 2025, MaxMem=  3758096384 cpu:               0.0 elap:               0.0
 (Enter /apps/easybuild-2022/easybuild/software/Compiler/NVHPC/22.11-CUDA-11.7.0/Gaussian/g16c01-CUDA-11.7.0/g16/l301.exe)
 Standard basis: def2TZVPP (5D, 7F)
 Ernie: Thresh=  0.10000D-02 Tol=  0.10000D-05 Strict=F.
   366 basis functions,   596 primitive gaussians,   423 cartesian basis functions
    49 alpha electrons       49 beta electrons
       nuclear repulsion energy       908.2077965341 Hartrees.
 IExCor= 4336 DFT=T Ex+Corr=M062X ExCW=0 ScaHFX=  0.540000
 ScaDFX=  1.000000  1.000000  1.000000  1.000000 ScalE2=  1.000000  1.000000
 IRadAn=      5 IRanWt=     -1 IRanGd=            0 ICorTp=0 IEmpDi=  4
 NAtoms=   12 NActive=   12 NUniq=   12 SFac= 1.00D+00 NAtFMM=   60 NAOKFM=F Big=F
 Integral buffers will be    131072 words long.
 Raffenetti 2 integral format.
 Two-electron integral symmetry is turned off.
 Leave Link  301 at Sat May 24 08:14:08 2025, MaxMem=  3758096384 cpu:               0.0 elap:               0.0
 (Enter /apps/easybuild-2022/easybuild/software/Compiler/NVHPC/22.11-CUDA-11.7.0/Gaussian/g16c01-CUDA-11.7.0/g16/l302.exe)
 NPDir=0 NMtPBC=     1 NCelOv=     1 NCel=       1 NClECP=     1 NCelD=      1
         NCelK=      1 NCelE2=     1 NClLst=     1 CellRange=     0.0.
 One-electron integrals computed using PRISM.
   1 Symmetry operations used in ECPInt.
 ECPInt:  NShTT=    8515 NPrTT=   27988 LenC2=    7936 LenP2D=   19154.
 LDataN:  DoStor=T MaxTD1= 6 Len=  172
 NBasis=   366 RedAO= T EigKep=  3.80D-04  NBF=   366
 NBsUse=   366 1.00D-06 EigRej= -1.00D+00 NBFU=   366
 Precomputing XC quadrature grid using
 IXCGrd= 4 IRadAn=           5 IRanWt=          -1 IRanGd=           0 AccXCQ= 0.00D+00.
 Generated NRdTot=       0 NPtTot=           0 NUsed=           0 NTot=          32
 NSgBfM=   419   419   419   419   419 MxSgAt=    12 MxSgA2=    12.
 Leave Link  302 at Sat May 24 08:14:08 2025, MaxMem=  3758096384 cpu:               0.7 elap:               0.2
 (Enter /apps/easybuild-2022/easybuild/software/Compiler/NVHPC/22.11-CUDA-11.7.0/Gaussian/g16c01-CUDA-11.7.0/g16/l303.exe)
 DipDrv:  MaxL=1.
 Leave Link  303 at Sat May 24 08:14:08 2025, MaxMem=  3758096384 cpu:               0.1 elap:               0.0
 (Enter /apps/easybuild-2022/easybuild/software/Compiler/NVHPC/22.11-CUDA-11.7.0/Gaussian/g16c01-CUDA-11.7.0/g16/l401.exe)
 Initial guess from the checkpoint file:  "/tmp/Gau-221466.chk"
 B after Tr=     0.052039    0.027975    0.054424
         Rot=    0.999944   -0.004972   -0.004910    0.007901 Ang=  -1.21 deg.
 Guess basis will be translated and rotated to current coordinates.
 JPrj=2 DoOrth=T DoCkMO=T.
 Generating alternative initial guess.
 ExpMin= 9.52D-02 ExpMax= 6.07D+04 ExpMxC= 2.07D+03 IAcc=3 IRadAn=         5 AccDes= 0.00D+00
 Harris functional with IExCor= 1009 and IRadAn=       5 diagonalized for initial guess.
 HarFok:  IExCor= 1009 AccDes= 0.00D+00 IRadAn=         5 IDoV= 1 UseB2=F ITyADJ=14
 ICtDFT=  3500011 ScaDFX=  1.000000  1.000000  1.000000  1.000000
 FoFCou: FMM=F IPFlag=           0 FMFlag=      100000 FMFlg1=           0
         NFxFlg=           0 DoJE=T BraDBF=F KetDBF=T FulRan=T
         wScrn=  0.000000 ICntrl=       500 IOpCl=  0 I1Cent=   200000004 NGrid=           0
         NMat0=    1 NMatS0=      1 NMatT0=    0 NMatD0=    1 NMtDS0=    0 NMtDT0=    0
 Symmetry not used in FoFCou.
 Harris En= -1199.12945697025    
 Leave Link  401 at Sat May 24 08:14:09 2025, MaxMem=  3758096384 cpu:               4.5 elap:               0.7
 (Enter /apps/easybuild-2022/easybuild/software/Compiler/NVHPC/22.11-CUDA-11.7.0/Gaussian/g16c01-CUDA-11.7.0/g16/l502.exe)
 Keep R1 ints in memory in canonical form, NReq=2293446996.
 FoFCou: FMM=F IPFlag=           0 FMFlag=           0 FMFlg1=           0
         NFxFlg=           0 DoJE=F BraDBF=F KetDBF=F FulRan=T
         wScrn=  0.000000 ICntrl=       600 IOpCl=  0 I1Cent=           0 NGrid=           0
         NMat0=    1 NMatS0=  67161 NMatT0=    0 NMatD0=    1 NMtDS0=    0 NMtDT0=    0
 Symmetry not used in FoFCou.
 Two-electron integral symmetry not used.
 Closed shell SCF:
 Using DIIS extrapolation, IDIIS=  1040.
 NGot=  3758096384 LenX=  1502398672 LenY=  1502219302
 Requested convergence on RMS density matrix=1.00D-08 within  32 cycles.
 Requested convergence on MAX density matrix=1.00D-06.
 Requested convergence on             energy=1.00D-06.
 No special actions if energy rises.
 Integral accuracy reduced to 1.0D-05 until final iterations.

 Cycle   1  Pass 0  IDiag  1:
 E= -1199.68892659895    
 DIIS: error= 7.38D-03 at cycle   1 NSaved=   1.
 NSaved= 1 IEnMin= 1 EnMin= -1199.68892659895     IErMin= 1 ErrMin= 7.38D-03
 ErrMax= 7.38D-03  0.00D+00 EMaxC= 1.00D-01 BMatC= 2.37D-02 BMatP= 2.37D-02
 IDIUse=3 WtCom= 9.26D-01 WtEn= 7.38D-02
 Coeff-Com:  0.100D+01
 Coeff-En:   0.100D+01
 Coeff:      0.100D+01
 Gap=     0.974 Goal=   None    Shift=    0.000
 GapD=    0.974 DampG=2.000 DampE=1.000 DampFc=2.0000 IDamp=-1.
 RMSDP=4.79D-04 MaxDP=3.90D-02              OVMax= 4.66D-02

 Cycle   2  Pass 0  IDiag  1:
 E= -1199.71327446874     Delta-E=       -0.024347869796 Rises=F Damp=F
 DIIS: error= 1.64D-03 at cycle   2 NSaved=   2.
 NSaved= 2 IEnMin= 2 EnMin= -1199.71327446874     IErMin= 2 ErrMin= 1.64D-03
 ErrMax= 1.64D-03  0.00D+00 EMaxC= 1.00D-01 BMatC= 9.50D-04 BMatP= 2.37D-02
 IDIUse=3 WtCom= 9.84D-01 WtEn= 1.64D-02
 Coeff-Com: -0.617D-01 0.106D+01
 Coeff-En:   0.000D+00 0.100D+01
 Coeff:     -0.607D-01 0.106D+01
 Gap=     0.312 Goal=   None    Shift=    0.000
 RMSDP=1.02D-04 MaxDP=6.50D-03 DE=-2.43D-02 OVMax= 1.12D-02

 Cycle   3  Pass 0  IDiag  1:
 E= -1199.71418100694     Delta-E=       -0.000906538192 Rises=F Damp=F
 DIIS: error= 8.94D-04 at cycle   3 NSaved=   3.
 NSaved= 3 IEnMin= 3 EnMin= -1199.71418100694     IErMin= 3 ErrMin= 8.94D-04
 ErrMax= 8.94D-04  0.00D+00 EMaxC= 1.00D-01 BMatC= 5.72D-04 BMatP= 9.50D-04
 IDIUse=3 WtCom= 9.91D-01 WtEn= 8.94D-03
 Coeff-Com: -0.610D-01 0.478D+00 0.583D+00
 Coeff-En:   0.000D+00 0.000D+00 0.100D+01
 Coeff:     -0.604D-01 0.473D+00 0.587D+00
 Gap=     0.312 Goal=   None    Shift=    0.000
 RMSDP=4.31D-05 MaxDP=3.48D-03 DE=-9.07D-04 OVMax= 4.60D-03

 Cycle   4  Pass 0  IDiag  1:
 E= -1199.71454694468     Delta-E=       -0.000365937745 Rises=F Damp=F
 DIIS: error= 2.28D-04 at cycle   4 NSaved=   4.
 NSaved= 4 IEnMin= 4 EnMin= -1199.71454694468     IErMin= 4 ErrMin= 2.28D-04
 ErrMax= 2.28D-04  0.00D+00 EMaxC= 1.00D-01 BMatC= 4.67D-05 BMatP= 5.72D-04
 IDIUse=3 WtCom= 9.98D-01 WtEn= 2.28D-03
 Coeff-Com: -0.103D-01 0.650D-02 0.213D+00 0.790D+00
 Coeff-En:   0.000D+00 0.000D+00 0.000D+00 0.100D+01
 Coeff:     -0.103D-01 0.649D-02 0.213D+00 0.791D+00
 Gap=     0.312 Goal=   None    Shift=    0.000
 RMSDP=1.57D-05 MaxDP=8.60D-04 DE=-3.66D-04 OVMax= 1.66D-03

 Cycle   5  Pass 0  IDiag  1:
 E= -1199.71458450283     Delta-E=       -0.000037558147 Rises=F Damp=F
 DIIS: error= 6.27D-05 at cycle   5 NSaved=   5.
 NSaved= 5 IEnMin= 5 EnMin= -1199.71458450283     IErMin= 5 ErrMin= 6.27D-05
 ErrMax= 6.27D-05  0.00D+00 EMaxC= 1.00D-01 BMatC= 4.44D-06 BMatP= 4.67D-05
 IDIUse=1 WtCom= 1.00D+00 WtEn= 0.00D+00
 Coeff-Com:  0.125D-02-0.420D-01 0.322D-01 0.310D+00 0.698D+00
 Coeff:      0.125D-02-0.420D-01 0.322D-01 0.310D+00 0.698D+00
 Gap=     0.312 Goal=   None    Shift=    0.000
 RMSDP=5.24D-06 MaxDP=2.81D-04 DE=-3.76D-05 OVMax= 5.46D-04

 Initial convergence to 1.0D-05 achieved.  Increase integral accuracy.
 Cycle   6  Pass 1  IDiag  1:
 E= -1199.71460350654     Delta-E=       -0.000019003717 Rises=F Damp=F
 DIIS: error= 3.63D-05 at cycle   1 NSaved=   1.
 NSaved= 1 IEnMin= 1 EnMin= -1199.71460350654     IErMin= 1 ErrMin= 3.63D-05
 ErrMax= 3.63D-05  0.00D+00 EMaxC= 1.00D-01 BMatC= 1.58D-06 BMatP= 1.58D-06
 IDIUse=1 WtCom= 1.00D+00 WtEn= 0.00D+00
 Coeff-Com:  0.100D+01
 Coeff:      0.100D+01
 Gap=     0.312 Goal=   None    Shift=    0.000
 RMSDP=5.24D-06 MaxDP=2.81D-04 DE=-1.90D-05 OVMax= 4.33D-04

 Cycle   7  Pass 1  IDiag  1:
 E= -1199.71460335990     Delta-E=        0.000000146647 Rises=F Damp=F
 DIIS: error= 5.17D-05 at cycle   2 NSaved=   2.
 NSaved= 2 IEnMin= 1 EnMin= -1199.71460350654     IErMin= 1 ErrMin= 3.63D-05
 ErrMax= 5.17D-05  0.00D+00 EMaxC= 1.00D-01 BMatC= 2.16D-06 BMatP= 1.58D-06
 IDIUse=1 WtCom= 1.00D+00 WtEn= 0.00D+00
 Coeff-Com:  0.546D+00 0.454D+00
 Coeff:      0.546D+00 0.454D+00
 Gap=     0.312 Goal=   None    Shift=    0.000
 RMSDP=2.58D-06 MaxDP=1.62D-04 DE= 1.47D-07 OVMax= 2.92D-04

 Cycle   8  Pass 1  IDiag  1:
 E= -1199.71460475944     Delta-E=       -0.000001399545 Rises=F Damp=F
 DIIS: error= 8.26D-06 at cycle   3 NSaved=   3.
 NSaved= 3 IEnMin= 3 EnMin= -1199.71460475944     IErMin= 3 ErrMin= 8.26D-06
 ErrMax= 8.26D-06  0.00D+00 EMaxC= 1.00D-01 BMatC= 6.45D-08 BMatP= 1.58D-06
 IDIUse=1 WtCom= 1.00D+00 WtEn= 0.00D+00
 Coeff-Com: -0.234D-01 0.125D+00 0.899D+00
 Coeff:     -0.234D-01 0.125D+00 0.899D+00
 Gap=     0.312 Goal=   None    Shift=    0.000
 RMSDP=1.06D-06 MaxDP=6.68D-05 DE=-1.40D-06 OVMax= 6.76D-05

 Cycle   9  Pass 1  IDiag  1:
 E= -1199.71460480810     Delta-E=       -0.000000048656 Rises=F Damp=F
 DIIS: error= 2.61D-06 at cycle   4 NSaved=   4.
 NSaved= 4 IEnMin= 4 EnMin= -1199.71460480810     IErMin= 4 ErrMin= 2.61D-06
 ErrMax= 2.61D-06  0.00D+00 EMaxC= 1.00D-01 BMatC= 1.15D-08 BMatP= 6.45D-08
 IDIUse=1 WtCom= 1.00D+00 WtEn= 0.00D+00
 Coeff-Com: -0.336D-01 0.450D-01 0.459D+00 0.529D+00
 Coeff:     -0.336D-01 0.450D-01 0.459D+00 0.529D+00
 Gap=     0.312 Goal=   None    Shift=    0.000
 RMSDP=2.06D-07 MaxDP=9.38D-06 DE=-4.87D-08 OVMax= 1.79D-05

 Cycle  10  Pass 1  IDiag  1:
 E= -1199.71460481551     Delta-E=       -0.000000007411 Rises=F Damp=F
 DIIS: error= 8.22D-07 at cycle   5 NSaved=   5.
 NSaved= 5 IEnMin= 5 EnMin= -1199.71460481551     IErMin= 5 ErrMin= 8.22D-07
 ErrMax= 8.22D-07  0.00D+00 EMaxC= 1.00D-01 BMatC= 5.83D-10 BMatP= 1.15D-08
 IDIUse=1 WtCom= 1.00D+00 WtEn= 0.00D+00
 Coeff-Com: -0.636D-02-0.830D-02-0.153D-01 0.128D+00 0.902D+00
 Coeff:     -0.636D-02-0.830D-02-0.153D-01 0.128D+00 0.902D+00
 Gap=     0.312 Goal=   None    Shift=    0.000
 RMSDP=1.20D-07 MaxDP=7.17D-06 DE=-7.41D-09 OVMax= 1.53D-05

 Cycle  11  Pass 1  IDiag  1:
 E= -1199.71460481631     Delta-E=       -0.000000000797 Rises=F Damp=F
 DIIS: error= 4.86D-07 at cycle   6 NSaved=   6.
 NSaved= 6 IEnMin= 6 EnMin= -1199.71460481631     IErMin= 6 ErrMin= 4.86D-07
 ErrMax= 4.86D-07  0.00D+00 EMaxC= 1.00D-01 BMatC= 2.66D-10 BMatP= 5.83D-10
 IDIUse=1 WtCom= 1.00D+00 WtEn= 0.00D+00
 Coeff-Com:  0.116D-02-0.110D-01-0.734D-01-0.802D-02 0.493D+00 0.598D+00
 Coeff:      0.116D-02-0.110D-01-0.734D-01-0.802D-02 0.493D+00 0.598D+00
 Gap=     0.312 Goal=   None    Shift=    0.000
 RMSDP=4.02D-08 MaxDP=2.18D-06 DE=-7.97D-10 OVMax= 5.41D-06

 Cycle  12  Pass 1  IDiag  1:
 E= -1199.71460481654     Delta-E=       -0.000000000231 Rises=F Damp=F
 DIIS: error= 1.42D-07 at cycle   7 NSaved=   7.
 NSaved= 7 IEnMin= 7 EnMin= -1199.71460481654     IErMin= 7 ErrMin= 1.42D-07
 ErrMax= 1.42D-07  0.00D+00 EMaxC= 1.00D-01 BMatC= 2.94D-11 BMatP= 2.66D-10
 IDIUse=1 WtCom= 1.00D+00 WtEn= 0.00D+00
 Coeff-Com:  0.175D-02-0.335D-02-0.297D-01-0.271D-01 0.487D-01 0.273D+00
 Coeff-Com:  0.737D+00
 Coeff:      0.175D-02-0.335D-02-0.297D-01-0.271D-01 0.487D-01 0.273D+00
 Coeff:      0.737D+00
 Gap=     0.312 Goal=   None    Shift=    0.000
 RMSDP=1.71D-08 MaxDP=9.46D-07 DE=-2.31D-10 OVMax= 3.11D-06

 Cycle  13  Pass 1  IDiag  1:
 E= -1199.71460481650     Delta-E=        0.000000000036 Rises=F Damp=F
 DIIS: error= 4.39D-08 at cycle   8 NSaved=   8.
 NSaved= 8 IEnMin= 7 EnMin= -1199.71460481654     IErMin= 8 ErrMin= 4.39D-08
 ErrMax= 4.39D-08  0.00D+00 EMaxC= 1.00D-01 BMatC= 2.16D-12 BMatP= 2.94D-11
 IDIUse=1 WtCom= 1.00D+00 WtEn= 0.00D+00
 Coeff-Com:  0.318D-03 0.201D-03-0.175D-03-0.593D-02-0.379D-01 0.462D-02
 Coeff-Com:  0.178D+00 0.861D+00
 Coeff:      0.318D-03 0.201D-03-0.175D-03-0.593D-02-0.379D-01 0.462D-02
 Coeff:      0.178D+00 0.861D+00
 Gap=     0.312 Goal=   None    Shift=    0.000
 RMSDP=7.17D-09 MaxDP=3.13D-07 DE= 3.64D-11 OVMax= 1.18D-06

 SCF Done:  E(RM062X) =  -1199.71460482     A.U. after   13 cycles
            NFock= 13  Conv=0.72D-08     -V/T= 2.0028
 KE= 1.196329531859D+03 PE=-4.662796099656D+03 EE= 1.358544166446D+03
 Leave Link  502 at Sat May 24 08:14:45 2025, MaxMem=  3758096384 cpu:             151.2 elap:              36.7
 (Enter /apps/easybuild-2022/easybuild/software/Compiler/NVHPC/22.11-CUDA-11.7.0/Gaussian/g16c01-CUDA-11.7.0/g16/l508.exe)
 QCSCF skips out because SCF is already converged.
 Leave Link  508 at Sat May 24 08:14:45 2025, MaxMem=  3758096384 cpu:               0.0 elap:               0.0
 (Enter /apps/easybuild-2022/easybuild/software/Compiler/NVHPC/22.11-CUDA-11.7.0/Gaussian/g16c01-CUDA-11.7.0/g16/l701.exe)
 ... and contract with generalized density number  0.
 Compute integral first derivatives.
   1 Symmetry operations used in ECPInt.
 ECPInt:  NShTT=    8515 NPrTT=   27988 LenC2=    7936 LenP2D=   19154.
 LDataN:  DoStor=T MaxTD1= 7 Len=  274
 Leave Link  701 at Sat May 24 08:14:45 2025, MaxMem=  3758096384 cpu:               0.5 elap:               0.1
 (Enter /apps/easybuild-2022/easybuild/software/Compiler/NVHPC/22.11-CUDA-11.7.0/Gaussian/g16c01-CUDA-11.7.0/g16/l702.exe)
 L702 exits ... SP integral derivatives will be done elsewhere.
 Leave Link  702 at Sat May 24 08:14:45 2025, MaxMem=  3758096384 cpu:               0.0 elap:               0.0
 (Enter /apps/easybuild-2022/easybuild/software/Compiler/NVHPC/22.11-CUDA-11.7.0/Gaussian/g16c01-CUDA-11.7.0/g16/l703.exe)
 Integral derivatives from FoFJK, PRISM(SPDF).
 Compute integral first derivatives, UseDBF=F ICtDFT=           0.
 Calling FoFJK, ICntrl=      2127 FMM=F ISym2X=0 I1Cent= 0 IOpClX= 0 NMat=1 NMatS=1 NMatT=0.
 FoFJK:  IHMeth= 1 ICntrl=    2127 DoSepK=F KAlg= 0 I1Cent=           0 FoldK=F
 IRaf=         0 NMat=       1 IRICut=       1 DoRegI=T DoRafI=F ISym2E= 0 IDoP0=0 IntGTp=1.
 FoFCou: FMM=F IPFlag=           0 FMFlag=      100000 FMFlg1=         800
         NFxFlg=           0 DoJE=F BraDBF=F KetDBF=F FulRan=T
         wScrn=  0.000000 ICntrl=      2127 IOpCl=  0 I1Cent=           0 NGrid=           0
         NMat0=    1 NMatS0=      1 NMatT0=    0 NMatD0=    1 NMtDS0=    0 NMtDT0=    0
 Symmetry not used in FoFCou.
 Leave Link  703 at Sat May 24 08:14:58 2025, MaxMem=  3758096384 cpu:              98.2 elap:              12.4
 (Enter /apps/easybuild-2022/easybuild/software/Compiler/NVHPC/22.11-CUDA-11.7.0/Gaussian/g16c01-CUDA-11.7.0/g16/l716.exe)
 Dipole        =-3.26754471D-01 1.08957645D+00 8.00017483D-01
 -------------------------------------------------------------------
 Center     Atomic                   Forces (Hartrees/Bohr)
 Number     Number              X              Y              Z
 -------------------------------------------------------------------
      1        6           0.000211755    0.000409417   -0.000105745
      2        6          -0.001049610   -0.001057291    0.000118178
      3        9          -0.000255688    0.000294969   -0.000488281
      4        9          -0.000064187    0.000040871   -0.000321103
      5       16           0.000393098    0.000157022   -0.000204992
      6        8          -0.001167024   -0.000428208    0.000784756
      7        8           0.001053111   -0.000225616   -0.000489878
      8        8           0.003737294   -0.000371399    0.003210467
      9        9          -0.000303249    0.000103573   -0.000404442
     10        9           0.000103146    0.000168322    0.000087267
     11        9           0.000095468   -0.000250531    0.000042690
     12        1          -0.002754113    0.001158873   -0.002228916
 -------------------------------------------------------------------
 Cartesian Forces:  Max     0.003737294 RMS     0.001123416
 Leave Link  716 at Sat May 24 08:14:58 2025, MaxMem=  3758096384 cpu:               0.0 elap:               0.0
 (Enter /apps/easybuild-2022/easybuild/software/Compiler/NVHPC/22.11-CUDA-11.7.0/Gaussian/g16c01-CUDA-11.7.0/g16/l103.exe)

 GradGradGradGradGradGradGradGradGradGradGradGradGradGradGradGradGradGrad
 Berny optimization.
 Using GEDIIS/GDIIS optimizer.
 FormGI is forming the generalized inverse of G from B-inverse, IUseBI=4.
 Internal  Forces:  Max     0.002385524 RMS     0.000694500
 Search for a local minimum.
 Step number   2 out of a maximum of   56
 All quantities printed in internal units (Hartrees-Bohrs-Radians)
 RMS Force = .69450D-03 SwitMx=.10000D-02 MixMth= 2
 Mixed Optimization -- En-DIIS/RFO-DIIS
 Update second derivatives using D2CorX and points    1    2
 DE= -4.23D-03 DEPred=-4.73D-03 R= 8.96D-01
 TightC=F SS=  1.41D+00  RLast= 7.84D-01 DXNew= 5.0454D-01 2.3526D+00
 Trust test= 8.96D-01 RLast= 7.84D-01 DXMaxT set to 5.05D-01
 ITU=  1  0
 Use linear search instead of GDIIS.
     Eigenvalues ---   -0.70862   0.00320   0.00540   0.00619   0.01291
     Eigenvalues ---    0.01545   0.08621   0.09439   0.11095   0.12461
     Eigenvalues ---    0.13352   0.14361   0.16693   0.18171   0.19126
     Eigenvalues ---    0.21647   0.23747   0.26622   0.27421   0.29123
     Eigenvalues ---    0.38604   0.39577   0.40650   0.41309   0.43229
     Eigenvalues ---    0.45320   0.47541   0.52117   0.56965   0.76003
 Eigenvalue     1 is  -7.09D-01 should be greater than     0.000000 Eigenvector:
                          A14       R8        A12       A11       R2
   1                   -0.53042  -0.39372   0.37620  -0.21726   0.18614
                          D7        D10       D17       A13       D12
   1                   -0.18394  -0.18185  -0.16835   0.15484   0.15331
 RFO step:  Lambda=-7.08990223D-01 EMin=-7.08621405D-01
 I=     1 Eig=   -7.09D-01 Dot1=  9.70D-03
 I=     1 Stepn=  6.00D-01 RXN=   6.00D-01 EDone=F
 Mixed    1 eigenvectors in step.  Raw Step.Grad=  9.70D-03.
 RFO eigenvector is Hessian eigenvector with negative curvature.
 Taking step of  6.00D-01 in eigenvector direction(s).  Step.Grad= -3.64D-04.
 Quartic linear search produced a step of  0.55855.
 Maximum step size (   0.505) exceeded in Quadratic search.
    -- Step size not scaled.
 Iteration  1 RMS(Cart)=  0.17133453 RMS(Int)=  0.03276741
 Iteration  2 RMS(Cart)=  0.04345775 RMS(Int)=  0.00319479
 Iteration  3 RMS(Cart)=  0.00174677 RMS(Int)=  0.00268682
 Iteration  4 RMS(Cart)=  0.00000425 RMS(Int)=  0.00268682
 Iteration  5 RMS(Cart)=  0.00000000 RMS(Int)=  0.00268682
 ITry= 1 IFail=0 DXMaxC= 7.99D-01 DCOld= 1.00D+10 DXMaxT= 5.05D-01 DXLimC= 3.00D+00 Rises=F
 Variable       Old X    -DE/DX   Delta X   Delta X   Delta X     New X
                                 (Linear)    (Quad)   (Total)
    R1        2.82625   0.00052   0.00065  -0.00120  -0.00055   2.82570
    R2        2.51128   0.00012  -0.01165   0.11169   0.10003   2.61131
    R3        2.51921   0.00002   0.00096  -0.00906  -0.00810   2.51111
    R4        2.52934  -0.00000   0.00424  -0.03580  -0.03157   2.49777
    R5        2.54889  -0.00004   0.00062   0.00534   0.00596   2.55484
    R6        3.04225   0.00014  -0.00724   0.08174   0.07450   3.11676
    R7        2.64047   0.00062   0.00070   0.00435   0.00506   2.64553
    R8        3.17742   0.00143   0.02523  -0.23623  -0.21101   2.96642
    R9        2.67687  -0.00018   0.00309  -0.07733  -0.07424   2.60263
   R10        2.93506   0.00093   0.00026  -0.04750  -0.04724   2.88783
   R11        1.83475   0.00016   0.00187  -0.01070  -0.00884   1.82592
    A1        1.96095   0.00078   0.00534  -0.01391  -0.00869   1.95226
    A2        1.90659  -0.00009  -0.00035   0.00885   0.00803   1.91462
    A3        1.95880  -0.00046  -0.01099   0.05905   0.04764   2.00644
    A4        1.89333  -0.00018   0.00569  -0.03996  -0.03440   1.85894
    A5        1.88012  -0.00018   0.00277  -0.01419  -0.01151   1.86862
    A6        1.86030   0.00009  -0.00217  -0.00261  -0.00548   1.85482
    A7        1.97464  -0.00057   0.00355  -0.05207  -0.04841   1.92623
    A8        2.21311   0.00019   0.00559  -0.02709  -0.02145   2.19166
    A9        1.98667   0.00042  -0.01127   0.08335   0.07208   2.05875
   A10        2.12892  -0.00053   0.00023   0.07604   0.08398   2.21290
   A11        2.05842  -0.00031   0.01573  -0.13036  -0.11768   1.94075
   A12        1.81445   0.00030  -0.02515   0.22572   0.20181   2.01626
   A13        1.69468   0.00039  -0.01501   0.09290   0.07793   1.77261
   A14        1.70202   0.00030   0.02946  -0.31825  -0.28721   1.41481
   A15        2.04894  -0.00011  -0.00137   0.00961   0.00920   2.05815
   A16        1.84089   0.00025  -0.00369   0.05851   0.05481   1.89571
   A17        1.91174   0.00133  -0.01366   0.07352   0.05986   1.97160
    D1       -3.12722  -0.00029  -0.03645   0.04461   0.00821  -3.11901
    D2        0.53324  -0.00046  -0.02839   0.01213  -0.01636   0.51688
    D3       -1.02527  -0.00007  -0.02615  -0.00868  -0.03498  -1.06025
    D4        2.63519  -0.00023  -0.01809  -0.04116  -0.05954   2.57564
    D5        1.03402  -0.00029  -0.03597   0.02999  -0.00567   1.02834
    D6       -1.58871  -0.00046  -0.02791  -0.00249  -0.03024  -1.61895
    D7        1.13357   0.00001   0.00028  -0.11037  -0.10782   1.02575
    D8       -3.05983  -0.00022  -0.00625  -0.02835  -0.03428  -3.09411
    D9       -0.75680  -0.00035  -0.01875   0.09073   0.06917  -0.68763
   D10       -1.48617   0.00009   0.00469  -0.10911  -0.10201  -1.58817
   D11        0.60362  -0.00014  -0.00184  -0.02709  -0.02847   0.57516
   D12        2.90666  -0.00027  -0.01434   0.09198   0.07498   2.98163
   D13       -0.82569  -0.00030  -0.00708  -0.02838  -0.03087  -0.85656
   D14       -3.08366   0.00012  -0.01493   0.01287  -0.00461  -3.08827
   D15        1.12334   0.00008  -0.01693   0.05108   0.03212   1.15546
   D16        3.11633  -0.00215  -0.24395  -0.06907  -0.32404   2.79229
   D17        0.92280  -0.00180  -0.24814  -0.10101  -0.34071   0.58209
   D18       -0.85832  -0.00239  -0.24693  -0.03285  -0.27720  -1.13553
         Item               Value     Threshold  Converged?
 Maximum Force            0.002386     0.000015     NO 
 RMS     Force            0.000694     0.000010     NO 
 Maximum Displacement     0.798623     0.000060     NO 
 RMS     Displacement     0.204980     0.000040     NO 
 Predicted change in Energy=-1.382084D-01
 Lowest energy point so far.  Saving SCF results.
 GradGradGradGradGradGradGradGradGradGradGradGradGradGradGradGradGradGrad

 Leave Link  103 at Sat May 24 08:14:58 2025, MaxMem=  3758096384 cpu:               0.1 elap:               0.0
 (Enter /apps/easybuild-2022/easybuild/software/Compiler/NVHPC/22.11-CUDA-11.7.0/Gaussian/g16c01-CUDA-11.7.0/g16/l202.exe)
[...]
    D8       -3.03461   0.00000   0.00000   0.00001   0.00001  -3.03461
    D9       -0.71525  -0.00000   0.00000  -0.00001  -0.00001  -0.71526
   D10       -1.55445   0.00000   0.00000  -0.00000  -0.00000  -1.55445
   D11        0.52731   0.00000   0.00000  -0.00001  -0.00001   0.52730
   D12        2.84667  -0.00000   0.00000  -0.00002  -0.00002   2.84665
   D13       -0.83900  -0.00000   0.00000   0.00000   0.00000  -0.83899
   D14       -3.08591   0.00000   0.00000   0.00001   0.00001  -3.08589
   D15        1.10936   0.00000   0.00000   0.00002   0.00002   1.10938
   D16        2.34265   0.00000   0.00000   0.00001   0.00001   2.34266
   D17        0.14726   0.00000   0.00000   0.00001   0.00001   0.14727
   D18       -1.62887  -0.00000   0.00000  -0.00000  -0.00000  -1.62887
         Item               Value     Threshold  Converged?
 Maximum Force            0.000005     0.000015     YES
 RMS     Force            0.000001     0.000010     YES
 Maximum Displacement     0.000036     0.000060     YES
 RMS     Displacement     0.000013     0.000040     YES
 Predicted change in Energy=-1.199798D-10
 Optimization completed.
    -- Stationary point found.
                           ----------------------------
                           !   Optimized Parameters   !
                           ! (Angstroms and Degrees)  !
 --------------------------                            --------------------------
 ! Name  Definition              Value          Derivative Info.                !
 --------------------------------------------------------------------------------
 ! R1    R(1,2)                  1.4974         -DE/DX =    0.0                 !
 ! R2    R(1,9)                  1.3298         -DE/DX =    0.0                 !
 ! R3    R(1,10)                 1.3333         -DE/DX =    0.0                 !
 ! R4    R(1,11)                 1.3368         -DE/DX =    0.0                 !
 ! R5    R(2,4)                  1.3443         -DE/DX =    0.0                 !
 ! R6    R(2,5)                  1.6019         -DE/DX =    0.0                 !
 ! R7    R(3,6)                  1.4027         -DE/DX =    0.0                 !
 ! R8    R(5,6)                  1.6955         -DE/DX =    0.0                 !
 ! R9    R(5,7)                  1.4147         -DE/DX =    0.0                 !
 ! R10   R(5,8)                  1.5514         -DE/DX =    0.0                 !
 ! R11   R(8,12)                 0.9703         -DE/DX =    0.0                 !
 ! A1    A(2,1,9)              113.0083         -DE/DX =    0.0                 !
 ! A2    A(2,1,10)             109.9419         -DE/DX =    0.0                 !
 ! A3    A(2,1,11)             110.9479         -DE/DX =    0.0                 !
 ! A4    A(9,1,10)             108.1771         -DE/DX =    0.0                 !
 ! A5    A(9,1,11)             107.8009         -DE/DX =    0.0                 !
 ! A6    A(10,1,11)            106.7227         -DE/DX =    0.0                 !
 ! A7    A(1,2,4)              112.9756         -DE/DX =    0.0                 !
 ! A8    A(1,2,5)              127.5161         -DE/DX =    0.0                 !
 ! A9    A(4,2,5)              115.5721         -DE/DX =    0.0                 !
 ! A10   A(2,5,6)              122.2248         -DE/DX =    0.0                 !
 ! A11   A(2,5,7)              117.4276         -DE/DX =    0.0                 !
 ! A12   A(2,5,8)              104.21           -DE/DX =    0.0                 !
 ! A13   A(6,5,7)               96.9822         -DE/DX =    0.0                 !
 ! A14   A(6,5,8)               96.9073         -DE/DX =    0.0                 !
 ! A15   A(7,5,8)              118.1987         -DE/DX =    0.0                 !
 ! A16   A(3,6,5)              105.4363         -DE/DX =    0.0                 !
 ! A17   A(5,8,12)             111.7698         -DE/DX =    0.0                 !
 ! D1    D(9,1,2,4)            173.9433         -DE/DX =    0.0                 !
 ! D2    D(9,1,2,5)             17.5091         -DE/DX =    0.0                 !
 ! D3    D(10,1,2,4)           -65.0856         -DE/DX =    0.0                 !
 ! D4    D(10,1,2,5)           138.4802         -DE/DX =    0.0                 !
 ! D5    D(11,1,2,4)            52.7317         -DE/DX =    0.0                 !
 ! D6    D(11,1,2,5)          -103.7025         -DE/DX =    0.0                 !
 ! D7    D(1,2,5,6)             66.8537         -DE/DX =    0.0                 !
 ! D8    D(1,2,5,7)           -173.8705         -DE/DX =    0.0                 !
 ! D9    D(1,2,5,8)            -40.9807         -DE/DX =    0.0                 !
 ! D10   D(4,2,5,6)            -89.0634         -DE/DX =    0.0                 !
 ! D11   D(4,2,5,7)             30.2125         -DE/DX =    0.0                 !
 ! D12   D(4,2,5,8)            163.1023         -DE/DX =    0.0                 !
 ! D13   D(2,5,6,3)            -48.0709         -DE/DX =    0.0                 !
 ! D14   D(7,5,6,3)           -176.8093         -DE/DX =    0.0                 !
 ! D15   D(8,5,6,3)             63.5619         -DE/DX =    0.0                 !
 ! D16   D(2,5,8,12)           134.224          -DE/DX =    0.0                 !
 ! D17   D(6,5,8,12)             8.4372         -DE/DX =    0.0                 !
 ! D18   D(7,5,8,12)           -93.3276         -DE/DX =    0.0                 !
 --------------------------------------------------------------------------------
 GradGradGradGradGradGradGradGradGradGradGradGradGradGradGradGradGradGrad

 Leave Link  103 at Sat May 24 08:26:08 2025, MaxMem=  3758096384 cpu:               0.0 elap:               0.0
 (Enter /apps/easybuild-2022/easybuild/software/Compiler/NVHPC/22.11-CUDA-11.7.0/Gaussian/g16c01-CUDA-11.7.0/g16/l9999.exe)

 ----------------------------------------------------------------------

 Electric dipole moment (input orientation):
 (Debye = 10**-18 statcoulomb cm , SI units = C m)
                  (au)            (Debye)         (10**-30 SI)
   Tot        0.125699D+01      0.319495D+01      0.106572D+02
   x         -0.405897D+00     -0.103169D+01     -0.344133D+01
   y          0.110396D+01      0.280598D+01      0.935974D+01
   z          0.443342D+00      0.112686D+01      0.375881D+01

 Dipole polarizability, Alpha (input orientation).
 (esu units = cm**3 , SI units = C**2 m**2 J**-1)
 Alpha(0;0):
               (au)            (10**-24 esu)      (10**-40 SI)
   iso        0.596591D+02      0.884056D+01      0.983645D+01
   aniso      0.190242D+02      0.281910D+01      0.313667D+01
   xx         0.580722D+02      0.860542D+01      0.957482D+01
   yx        -0.655890D+01     -0.971929D+00     -0.108142D+01
   yy         0.547292D+02      0.811003D+01      0.902363D+01
   zx        -0.654891D+01     -0.970448D+00     -0.107977D+01
   zy        -0.297490D+00     -0.440834D-01     -0.490494D-01
   zz         0.661758D+02      0.980624D+01      0.109109D+02

 ----------------------------------------------------------------------

 Dipole orientation:
     6          2.89220721          5.41052034         -3.11190753
     6          3.30091914          2.61881701         -3.32840235
     9         -0.90102027          2.15834708          0.79306723
     9          3.02326867          1.75714102         -5.70190728
    16          3.02917008          0.54098154         -1.14378190
     8          0.20619032         -0.17398471          0.19255089
     8          3.75503633         -1.96426064         -1.72994057
     8          4.22233387          1.81366721          1.21231864
     9          2.92678471          6.22688156         -0.73558320
     9          4.67869017          6.64243369         -4.39229268
     9          0.67778486          6.08050760         -4.12653950
     1          3.17791003          1.59792544          2.70396760

 Electric dipole moment (dipole orientation):
 (Debye = 10**-18 statcoulomb cm , SI units = C m)
                  (au)            (Debye)         (10**-30 SI)
   Tot        0.125699D+01      0.319495D+01      0.106572D+02
   x          0.000000D+00      0.000000D+00      0.000000D+00
   y          0.000000D+00      0.000000D+00      0.000000D+00
   z          0.125699D+01      0.319495D+01      0.106572D+02

 Dipole polarizability, Alpha (dipole orientation).
 (esu units = cm**3 , SI units = C**2 m**2 J**-1)
 Alpha(0;0):
               (au)            (10**-24 esu)      (10**-40 SI)
   iso        0.596591D+02      0.884056D+01      0.983645D+01
   aniso      0.190242D+02      0.281910D+01      0.313667D+01
   xx         0.522884D+02      0.774834D+01      0.862119D+01
   yx        -0.610913D+00     -0.905279D-01     -0.100726D+00
   yy         0.651595D+02      0.965565D+01      0.107434D+02
   zx        -0.612020D+01     -0.906920D+00     -0.100908D+01
   zy        -0.622660D+01     -0.922687D+00     -0.102663D+01
   zz         0.615293D+02      0.911771D+01      0.101448D+02

 ----------------------------------------------------------------------
 Unable to Open any file for archive entry.
 1\1\GINC-SPARTAN-BM149\Freq\RM062X\def2TZVPP\C2H1F5O3S1\AKHALILOV\24-M
 ay-2025\0\\#P Geom=AllCheck Guess=TCheck SCRF=Check GenChk RM062X/def2
 TZVPP Freq\\Gaussian input prepared by ASE\\0,1\C,2.5445308681,0.10513
 52824,-2.601148996\C,2.4714123727,-0.5850614183,-1.2742665588\F,-0.336
 1080164,0.7594955722,-1.0090407892\F,2.6457922085,-1.9149294027,-1.364
 2395206\S,1.7348693602,-0.0724709441,0.052716772\O,0.0484954291,0.0727
 941318,0.152030959\O,1.9115928161,-0.8341328163,1.2316656497\O,2.05618
 64548,1.4443556937,0.10486415\F,2.2459284147,1.3990401289,-2.531125320
 4\F,3.772485973,-0.0115501418,-3.1073869489\F,1.7107460658,-0.45971615
 52,-3.4802937059\H,1.2672803286,1.9726636745,0.3050659034\\Version=ES6
 4L-G16RevC.01\HF=-1199.717701\RMSD=4.751e-09\RMSF=3.840e-06\ZeroPoint=
 0.0504376\Thermal=0.0613505\ETot=-1199.6563505\HTot=-1199.6554063\GTot
 =-1199.7050639\Dipole=-0.4058966,1.1039578,0.4433425\DipoleDeriv=1.677
 9359,0.0513709,-0.0939757,0.215353,1.4045585,-0.2072614,-0.3631271,0.2
 043451,2.1566196,-0.2984312,-0.1608301,-0.0208051,-0.4304174,0.6319093
 ,0.4457047,0.2023126,0.0546272,-0.5432452,-0.2159376,0.054523,-0.11236
 15,0.1754371,-0.178034,0.1681659,-0.2979648,0.1855863,-0.2883673,-0.10
 02545,0.0980949,0.0605995,0.3607249,-0.8807483,-0.2882871,0.068803,-0.
 0684381,-0.2435272,2.2153969,-0.1954678,-0.3122563,-0.1562412,1.995644
 5,0.0941285,-0.5294452,-0.0506983,2.1946628,-0.9782951,0.1128284,0.343
 5291,-0.014644,-0.1607482,-0.2390566,0.5705366,-0.2882646,-0.1987255,-
 0.590496,0.1009908,0.0533812,0.0536873,-0.5793359,0.2874601,0.0218659,
 0.2028679,-1.0504728,-0.3960272,0.0247644,0.0091114,-0.0866301,-1.2295
 383,-0.2489082,0.0341647,-0.1023266,-0.479637,-0.2861798,0.1048337,0.0
 275314,0.057057,-0.805201,0.0427494,0.0475277,0.0440525,-0.3902909,-0.
 8426203,0.0582597,0.3200064,-0.0051053,-0.2648131,0.0321719,0.3813595,
 -0.0395466,-0.6247153,-0.4679541,-0.1773868,-0.2799024,-0.1399086,-0.3
 70652,-0.1400747,-0.1344751,-0.2064137,-0.887639,0.282863,-0.071981,0.
 0051421,-0.0293124,0.4369584,0.0532075,-0.0015576,0.064209,0.3553378\P
 olar=58.0722468,-6.5589004,54.7292121,-6.5489094,-0.2974898,66.1757952
 \PG=Unknown\NImag=0\\0.52942681,-0.01058905,0.59345352,-0.01322654,-0.
 02929783,0.58122968,-0.04633359,0.00168771,0.01548277,0.14813811,-0.00
 673279,-0.09407897,0.07950027,-0.08505347,0.58502387,-0.00212816,0.047
 01421,-0.17128754,-0.15157262,0.02785658,0.62983349,-0.00001472,-0.000
 17415,0.00037364,0.00096254,-0.00068639,0.00079327,0.07825824,0.001072
 58,-0.00194044,0.00081763,-0.00126301,0.00133590,-0.00274969,-0.057612
 50,0.09227179,-0.00310376,0.00285973,-0.00336431,0.00068963,-0.0034545
 8,0.00519822,0.09193032,-0.14505288,0.25029077,-0.00152277,0.00358491,
 -0.00197882,-0.02486429,0.04219660,0.00720885,0.00065719,-0.00021823,0
 .00029459,0.02860857,0.00974193,-0.04304716,-0.01462185,0.04436965,-0.
 36282431,-0.02089578,-0.00145711,0.00046586,0.00055420,-0.06667601,0.4
 3970572,-0.00402797,0.02591236,0.00281828,0.01679434,-0.02777419,-0.05
 965620,0.00016843,-0.00013019,0.00025468,-0.01629295,0.02979748,0.0594
 5877,-0.00700934,-0.01756927,0.02241022,-0.06436045,0.05943910,0.12171
 296,-0.00839439,-0.00274387,0.00154311,-0.00987610,-0.00382720,-0.0021
 8157,0.40872805,-0.00659403,0.03964769,-0.01149664,0.03726653,-0.09693
 636,-0.06763615,0.02368466,-0.01751351,0.01562101,0.02491067,-0.042264
 43,-0.02793739,-0.08884455,0.80263049,0.02104724,0.00773425,-0.0490650
 1,0.10646230,-0.10530356,-0.30310455,-0.04159688,0.02004961,-0.0260334
 0,0.00763852,0.01740321,-0.00069285,-0.09146615,-0.18353611,1.00293857
 ,-0.00534125,0.00677137,-0.01732206,0.00454902,-0.01666409,-0.00347491
 ,-0.05767599,0.05200019,-0.08380883,-0.00361664,0.01651525,0.00047406,
 -0.14616172,-0.01364909,0.04265581,0.23055814,0.00086234,-0.00221035,0
 .00344653,0.00352706,0.00904780,0.00156375,0.03323251,-0.08454382,0.13
 608388,-0.00134305,-0.00183821,0.00067429,0.01812134,-0.04276021,-0.00
 500364,-0.02980037,0.13239885,0.00483960,-0.00807274,0.01561832,0.0055
 9271,0.01482296,-0.00351580,-0.04978421,0.12909413,-0.23475843,0.00252
 625,-0.01206545,0.00057888,0.02714914,-0.00503670,-0.05069994,0.047123
 59,-0.14578449,0.28756816,0.00515029,0.00786908,-0.00379395,-0.0023578
 9,-0.00969309,0.01885737,-0.01296392,0.00892693,-0.00901567,-0.0017184
 3,0.00083570,-0.00021794,-0.08698733,0.04592568,-0.05361704,0.00222287
 ,0.01493574,-0.03301422,0.08448951,0.00415451,-0.00211977,-0.00305115,
 -0.00213227,-0.00045822,-0.00118185,0.00342615,0.00389472,0.00086036,-
 0.00024352,0.01031118,-0.00058616,0.05160146,-0.25967770,0.27429681,0.
 00123607,-0.00389282,0.01431054,-0.05883485,0.25698654,-0.00114054,-0.
 01118718,0.01281861,-0.00141642,0.03338937,-0.02345540,-0.00239356,0.0
 0076947,0.00385975,-0.00204827,-0.00677324,0.00133885,-0.06751201,0.28
 870612,-0.52750139,0.00171952,0.00690943,-0.01105138,0.07452923,-0.312
 73753,0.54533402,-0.00192175,0.00057357,-0.00252589,-0.00780773,0.0175
 9249,0.00208180,0.00053285,-0.00085628,0.00107760,0.00722325,0.0044069
 5,0.00716411,-0.09194238,-0.02336764,0.01194821,-0.01875519,-0.0348982
 5,-0.00472397,0.01163715,0.00415369,-0.00403147,0.44752837,-0.00076594
 ,-0.01526650,0.00888787,-0.00164156,-0.01533339,0.00169107,-0.00014136
 ,0.00558816,-0.00451419,0.00006187,-0.00698585,-0.00710878,-0.05352334
 ,-0.31908192,-0.00521613,-0.01093936,-0.01359552,0.00418285,-0.0054828
 2,-0.00893179,-0.00465748,-0.14761578,0.51915205,-0.00311877,0.0052673
 8,0.00286297,-0.00488279,-0.01882952,0.00697686,-0.00025159,-0.0035156
 1,0.00320468,0.00358784,-0.00461525,-0.00341549,0.00986582,-0.02000465
 ,-0.06880734,0.00019432,0.00499619,0.00534763,0.00031675,0.02254195,0.
 01170000,-0.09438989,0.06795418,0.07974870,-0.08342505,0.04383721,-0.0
 0058672,0.00577735,0.00536588,-0.00121464,-0.00051180,-0.00057364,0.00
 107729,0.00259999,-0.00025086,-0.00013937,-0.00297585,0.00324092,0.000
 46470,0.00153823,-0.00009982,-0.00139523,0.00059893,-0.00062497,-0.000
 37263,0.00117755,-0.00142800,0.00198962,0.09869941,0.04603436,-0.29571
 216,0.01586787,0.00874102,-0.03486228,0.00263806,0.00024264,0.00079480
 ,-0.00138037,-0.00001649,-0.00386430,0.00747227,0.00632835,-0.01550350
 ,-0.00783031,-0.00410385,0.00132932,0.00474670,-0.00203972,0.00113497,
 0.00312375,-0.00067893,0.00861762,-0.00329540,-0.07729080,0.42000000,-
 0.00101501,0.01524889,-0.08540544,-0.00653078,0.02662498,0.00928381,0.
 00035314,-0.00009560,0.00034490,0.00001250,0.00723383,-0.00521348,-0.0
 0246683,-0.00325317,0.00259835,0.00186170,0.00013183,-0.00136617,0.000
 26988,0.00098488,-0.00095910,0.00183043,0.00122183,-0.01278721,-0.0055
 0871,0.02456861,0.08789950,-0.24461813,0.00657851,0.08542381,-0.017576
 20,0.00400650,0.02591141,0.00001446,-0.00003973,0.00006523,0.00144314,
 -0.00349997,-0.00158921,-0.00084297,-0.00379334,-0.00385055,-0.0012682
 8,0.00066640,0.00134344,0.00024642,-0.00020416,0.00306537,0.00015836,0
 .00111862,0.00141474,-0.03367799,0.04154113,0.01763295,0.37957355,0.00
 734804,-0.07684174,0.00100204,-0.00949096,0.00711764,0.00818077,0.0000
 4057,0.00028251,-0.00047084,-0.00004276,0.00435195,-0.00025093,-0.0000
 4606,-0.00504849,0.00004915,-0.00106316,0.00042950,0.00123522,-0.00008
 837,0.00073161,0.00121633,-0.00009967,0.00189238,-0.00067516,0.0571174
 0,-0.02331542,-0.02529415,-0.02816526,0.08043688,0.08946521,-0.0016168
 2,-0.12228505,0.04112564,-0.00152506,-0.03200048,-0.00019130,-0.000303
 85,0.00107019,-0.00218818,0.00177174,0.00185240,-0.00054900,0.00882205
 ,0.00803254,0.00524661,-0.00153427,-0.00507416,-0.00062987,-0.00023548
 ,-0.00436123,0.00037619,-0.00274102,-0.00055682,0.01447142,-0.01533711
 ,0.00785031,-0.11868528,0.01567275,0.12786992,-0.14468388,-0.04296019,
 -0.08493625,0.00399103,-0.00629343,-0.01811472,0.00030271,-0.00022037,
 0.00103425,0.00055537,0.00054418,0.00127573,-0.00718727,0.00235294,0.0
 0242087,0.00200999,0.00007145,-0.00158306,0.00186672,0.00016470,-0.001
 85341,0.00099654,-0.00038365,-0.00059656,0.01028274,-0.01853332,-0.006
 05835,-0.08350298,-0.02547202,-0.02831210,0.21573068,-0.04480501,-0.10
 251991,-0.04898325,0.00163703,0.00497901,0.00176038,0.00007060,0.00012
 981,-0.00004993,-0.00067969,0.00566477,0.00095877,0.00016583,-0.003457
 77,0.00095263,0.00036211,0.00013756,-0.00015530,-0.00045842,0.00060205
 ,0.00016120,0.00017439,0.00181387,-0.00099123,-0.02928463,-0.05822576,
 -0.04798279,-0.01778034,0.01012708,-0.00360789,0.09074299,0.14079036,-
 0.08959124,-0.05189837,-0.18373471,-0.02218554,-0.02091396,-0.06169744
 ,0.00032684,-0.00067259,0.00139576,0.00206684,0.00216614,0.00449235,-0
 .02085944,0.00877338,0.01477028,0.00493980,-0.00007243,-0.00440291,0.0
 0597634,0.00186106,-0.00615118,0.00137748,-0.00378430,-0.00130515,-0.0
 0810924,-0.03228760,-0.00218995,-0.01018171,-0.00109869,0.01757492,0.1
 3663079,0.09753153,0.22066128,0.00029338,0.00039029,0.00067980,-0.0001
 1789,-0.00347732,-0.00006060,-0.00116717,0.00152792,-0.00178374,0.0005
 1072,-0.00070250,-0.00142768,0.01700975,-0.00113276,-0.00210703,-0.008
 05917,-0.00527535,0.00192596,-0.00218431,-0.00269681,0.00145420,-0.348
 82703,0.22074132,0.08587051,-0.00008350,-0.00022438,-0.00038091,0.0000
 5062,-0.00003776,-0.00012936,-0.00036165,-0.00014488,-0.00039091,0.342
 93626,0.00027305,0.00063580,-0.00207147,0.00235225,-0.00301069,0.00175
 866,-0.00062560,-0.00076577,-0.00105640,-0.00153432,0.00032479,-0.0010
 2752,0.03089820,-0.04003429,-0.01359590,-0.00066506,0.00549790,0.00272
 228,-0.00189586,0.00141923,0.00107976,0.18061546,-0.15786912,-0.048832
 88,-0.00000869,-0.00039328,0.00061086,-0.00042838,-0.00016389,0.000634
 96,-0.00001326,-0.00004107,0.00039584,-0.20896777,0.19440040,0.0019999
 5,-0.00196388,-0.00020580,0.00044075,-0.00439327,0.00342502,0.00027190
 ,0.00178957,-0.00146282,-0.00082717,0.00004497,-0.00181620,0.00235375,
 -0.00302175,-0.00243526,0.00039039,-0.00141105,0.00175581,0.00033912,0
 .00293656,-0.00157156,0.07981541,-0.05591590,-0.02296884,-0.00067648,0
 .00171354,-0.00005552,-0.00055018,0.00043352,0.00002745,0.00009280,0.0
 0040588,0.00058674,-0.08365024,0.05938182,0.02472099\\0.00000323,-0.00
 000057,0.00000174,-0.00000162,-0.00000288,0.00000093,0.00000122,0.0000
 0884,-0.00000555,-0.00000720,-0.00000301,0.00000057,-0.00000036,-0.000
 00380,0.00000494,-0.00000051,0.00000664,-0.00000141,-0.00000929,0.0000
 0162,-0.00000395,-0.00000058,-0.00000306,0.00000007,0.00000648,-0.0000
 0062,0.00000055,0.00000320,-0.00000684,0.00000310,0.00000205,0.0000009
 2,-0.00000072,0.00000337,0.00000277,-0.00000029\\\@
 The archive entry for this job was punched.


 HO!  SUCH BUGS AND GOBLINS IN MY LIFE!

                            -- HAMLET, ACT 5, SCENE 2
 Job cpu time:       0 days  0 hours 36 minutes 47.5 seconds.
 Elapsed time:       0 days  0 hours  4 minutes 40.5 seconds.
 File lengths (MBytes):  RWF=    164 Int=      0 D2E=      0 Chk=     11 Scr=      1
 Normal termination of Gaussian 16 at Sat May 24 08:26:08 2025.
done
