 Entering Gaussian System, Link 0=g16
 Initial command:
 /apps/easybuild-2022/easybuild/software/Compiler/NVHPC/22.11-CUDA-11.7.0/Gaussian/g16c01-CUDA-11.7.0/g16/l1.exe "/tmp/Gau-120339.inp" -scrdir="/tmp/"
 Entering Link 1 = /apps/easybuild-2022/easybuild/software/Compiler/NVHPC/22.11-CUDA-11.7.0/Gaussian/g16c01-CUDA-11.7.0/g16/l1.exe PID=    120340.
  
 Copyright (c) 1988-2019, Gaussian, Inc.  All Rights Reserved.
  
 This is part of the Gaussian(R) 16 program.  It is based on
 the Gaussian(R) 09 system (copyright 2009, Gaussian, Inc.),
 the Gaussian(R) 03 system (copyright 2003, Gaussian, Inc.),
 the Gaussian(R) 98 system (copyright 1998, Gaussian, Inc.),
 the Gaussian(R) 94 system (copyright 1995, Gaussian, Inc.),
 the Gaussian 92(TM) system (copyright 1992, Gaussian, Inc.),
 the Gaussian 90(TM) system (copyright 1990, Gaussian, Inc.),
 the Gaussian 88(TM) system (copyright 1988, Gaussian, Inc.),
 the Gaussian 86(TM) system (copyright 1986, Carnegie Mellon
 University), and the Gaussian 82(TM) system (copyright 1983,
 Carnegie Mellon University). Gaussian is a federally registered
 trademark of Gaussian, Inc.
  
 This software contains proprietary and confidential information,
 including trade secrets, belonging to Gaussian, Inc.
  
 This software is provided under written license and may be
 used, copied, transmitted, or stored only in accord with that
 written license.
  
 The following legend is applicable only to US Government
 contracts under FAR:
  
                    RESTRICTED RIGHTS LEGEND
  
 Use, reproduction and disclosure by the US Government is
 subject to restrictions as set forth in subparagraphs (a)
 and (c) of the Commercial Computer Software - Restricted
 Rights clause in FAR 52.227-19.
  
 Gaussian, Inc.
 340 Quinnipiac St., Bldg. 40, Wallingford CT 06492
  
  
 ---------------------------------------------------------------
 Warning -- This program may not be used in any manner that
 competes with the business of Gaussian, Inc. or will provide
 assistance to any competitor of Gaussian, Inc.  The licensee
 of this program is prohibited from giving any competitor of
 Gaussian, Inc. access to this program.  By using this program,
 the user acknowledges that Gaussian, Inc. is engaged in the
 business of creating and licensing software in the field of
 computational chemistry and represents and warrants to the
 licensee that it is not a competitor of Gaussian, Inc. and that
 it will not use this program in any manner prohibited above.
 ---------------------------------------------------------------
  

 Cite this work as:
 Gaussian 16, Revision C.01,
 M. J. Frisch, G. W. Trucks, H. B. Schlegel, G. E. Scuseria, 
 M. A. Robb, J. R. Cheeseman, G. Scalmani, V. Barone, 
 G. A. Petersson, H. Nakatsuji, X. Li, M. Caricato, A. V. Marenich, 
 J. Bloino, B. G. Janesko, R. Gomperts, B. Mennucci, H. P. Hratchian, 
 J. V. Ortiz, A. F. Izmaylov, J. L. Sonnenberg, D. Williams-Young, 
 F. Ding, F. Lipparini, F. Egidi, J. Goings, B. Peng, A. Petrone, 
 T. Henderson, D. Ranasinghe, V. G. Zakrzewski, J. Gao, N. Rega, 
 G. Zheng, W. Liang, M. Hada, M. Ehara, K. Toyota, R. Fukuda, 
 J. Hasegawa, M. Ishida, T. Nakajima, Y. Honda, O. Kitao, H. Nakai, 
 T. Vreven, K. Throssell, J. A. Montgomery, Jr., J. E. Peralta, 
 F. Ogliaro, M. J. Bearpark, J. J. Heyd, E. N. Brothers, K. N. Kudin, 
 V. N. Staroverov, T. A. Keith, R. Kobayashi, J. Normand, 
 K. Raghavachari, A. P. Rendell, J. C. Burant, S. S. Iyengar, 
 J. Tomasi, M. Cossi, J. M. Millam, M. Klene, C. Adamo, R. Cammi, 
 J. W. Ochterski, R. L. Martin, K. Morokuma, O. Farkas, 
 J. B. Foresman, and D. J. Fox, Gaussian, Inc., Wallingford CT, 2019.
 
 ******************************************
 Gaussian 16:  ES64L-G16RevC.01  3-Jul-2019
                24-May-2025 
 ******************************************
 %mem=28GB
 %nprocshared=8
 Will use up to    8 processors via shared memory.
 ------------------------------------------
 #P am1 Symm(None) scf(xqc) pop(None) force
 ------------------------------------------
 1/10=7,30=1,38=1/1,3;
 2/12=2,15=3,17=6,18=5,40=1/2;
 3/5=2,25=1,41=700000,71=1/1,2,3;
 4/35=1/1;
 5/5=2,8=3,13=1,35=1,38=5/2,8;
 7/29=1,30=1/1,2,3,16;
 1/10=7,30=1/3;
 99//99;
 Leave Link    1 at Sat May 24 06:00:50 2025, MaxMem=  3758096384 cpu:               0.0 elap:               0.0
 (Enter /apps/easybuild-2022/easybuild/software/Compiler/NVHPC/22.11-CUDA-11.7.0/Gaussian/g16c01-CUDA-11.7.0/g16/l101.exe)
 ------------------------------
 Gaussian input prepared by ASE
 ------------------------------
 Symbolic Z-matrix:
 Charge =  0 Multiplicity = 1
 C                    -0.66424  -1.01251   0.58035 
 C                    -0.06303   0.05658  -0.3782 
 F                    -0.44452  -0.13589  -1.62101 
 F                    -0.54136   1.26458  -0.08627 
 S                     1.70178  -0.30123   0.05598 
 O                     1.45573  -0.89515   1.36526 
 O                     2.71659  -0.33016  -0.94408 
 O                     1.92013   1.24162   0.50997 
 F                     0.92663  -1.92679  -0.61023 
 F                    -0.7794   -0.873     1.82626 
 F                    -1.27607  -2.03132   0.19617 
 H                     2.4957    1.82286   0.00001 
 
 ITRead=  0  0  0  0  0  0  0  0  0  0  0  0
 MicOpt= -1 -1 -1 -1 -1 -1 -1 -1 -1 -1 -1 -1
 NAtoms=     12 NQM=       12 NQMF=       0 NMMI=      0 NMMIF=      0
                NMic=       0 NMicF=      0.
                    Isotopes and Nuclear Properties:
 (Nuclear quadrupole moments (NQMom) in fm**2, nuclear magnetic moments (NMagM)
  in nuclear magnetons)

  Atom         1           2           3           4           5           6           7           8           9          10
 IAtWgt=          12          12          19          19          32          16          16          16          19          19
 AtmWgt=  12.0000000  12.0000000  18.9984032  18.9984032  31.9720718  15.9949146  15.9949146  15.9949146  18.9984032  18.9984032
 NucSpn=           0           0           1           1           0           0           0           0           1           1
 AtZEff=  -0.0000000  -0.0000000  -0.0000000  -0.0000000  -0.0000000  -0.0000000  -0.0000000  -0.0000000  -0.0000000  -0.0000000
 NQMom=    0.0000000   0.0000000   0.0000000   0.0000000   0.0000000   0.0000000   0.0000000   0.0000000   0.0000000   0.0000000
 NMagM=    0.0000000   0.0000000   2.6288670   2.6288670   0.0000000   0.0000000   0.0000000   0.0000000   2.6288670   2.6288670
 AtZNuc=   6.0000000   6.0000000   9.0000000   9.0000000  16.0000000   8.0000000   8.0000000   8.0000000   9.0000000   9.0000000

  Atom        11          12
 IAtWgt=          19           1
 AtmWgt=  18.9984032   1.0078250
 NucSpn=           1           1
 AtZEff=  -0.0000000  -0.0000000
 NQMom=    0.0000000   0.0000000
 NMagM=    2.6288670   2.7928460
 AtZNuc=   9.0000000   1.0000000
 Leave Link  101 at Sat May 24 06:00:50 2025, MaxMem=  3758096384 cpu:               0.1 elap:               0.1
 (Enter /apps/easybuild-2022/easybuild/software/Compiler/NVHPC/22.11-CUDA-11.7.0/Gaussian/g16c01-CUDA-11.7.0/g16/l103.exe)

 GradGradGradGradGradGradGradGradGradGradGradGradGradGradGradGradGradGrad
 Berny optimization.
 Initialization pass.
 Trust Radius=3.00D-01 FncErr=1.00D-07 GrdErr=1.00D-07 EigMax=2.50D+02 EigMin=1.00D-04
 Number of steps in this run=      2 maximum allowed number of steps=      2.
 GradGradGradGradGradGradGradGradGradGradGradGradGradGradGradGradGradGrad

 Leave Link  103 at Sat May 24 06:00:50 2025, MaxMem=  3758096384 cpu:               0.0 elap:               0.0
 (Enter /apps/easybuild-2022/easybuild/software/Compiler/NVHPC/22.11-CUDA-11.7.0/Gaussian/g16c01-CUDA-11.7.0/g16/l202.exe)
                          Input orientation:                          
 ---------------------------------------------------------------------
 Center     Atomic      Atomic             Coordinates (Angstroms)
 Number     Number       Type             X           Y           Z
 ---------------------------------------------------------------------
      1          6           0       -0.664242   -1.012507    0.580354
      2          6           0       -0.063032    0.056581   -0.378204
      3          9           0       -0.444517   -0.135885   -1.621015
      4          9           0       -0.541360    1.264581   -0.086273
      5         16           0        1.701780   -0.301230    0.055982
      6          8           0        1.455733   -0.895150    1.365260
      7          8           0        2.716586   -0.330158   -0.944080
      8          8           0        1.920126    1.241615    0.509967
      9          9           0        0.926628   -1.926787   -0.610226
     10          9           0       -0.779400   -0.873001    1.826256
     11          9           0       -1.276067   -2.031324    0.196165
     12          1           0        2.495695    1.822855    0.000010
 ---------------------------------------------------------------------
                    Distance matrix (angstroms):
                    1          2          3          4          5
     1  C    0.000000
     2  C    1.556674   0.000000
     3  F    2.379657   1.314211   0.000000
     4  F    2.375840   1.331648   2.079932   0.000000
     5  S    2.525657   1.852326   2.728782   2.739284   0.000000
     6  O    2.263657   2.500421   3.620120   3.280208   1.458591
     7  O    3.770875   2.862877   3.238605   3.727364   1.425059
     8  O    3.430011   2.475091   3.468448   2.532774   1.623006
     9  F    2.187294   2.228679   2.471652   3.551668   1.920191
    10  F    1.258966   2.497389   3.541068   2.878140   3.101136
    11  F    1.248968   2.482076   2.754325   3.388592   3.446803
    12  H    4.285006   3.132069   3.887060   3.089146   2.268297
                    6          7          8          9         10
     6  O    0.000000
     7  O    2.691099   0.000000
     8  O    2.347968   2.284529   0.000000
     9  F    2.290583   2.421701   3.504376   0.000000
    10  F    2.282285   4.493480   3.673100   3.155541   0.000000
    11  F    3.181258   4.487249   4.585440   2.347990   2.060482
    12  H    3.214496   2.361264   0.963938   4.110253   4.618340
                   11         12
    11  F    0.000000
    12  H    5.396236   0.000000
 Symmetry turned off by external request.
 Stoichiometry    C2HF5O3S
 Rotational constants (GHZ):           1.4345359           0.9578243           0.9219917
 Leave Link  202 at Sat May 24 06:00:50 2025, MaxMem=  3758096384 cpu:               0.0 elap:               0.0
 (Enter /apps/easybuild-2022/easybuild/software/Compiler/NVHPC/22.11-CUDA-11.7.0/Gaussian/g16c01-CUDA-11.7.0/g16/l301.exe)
 Standard basis: VSTO-6G (5D, 7F)
 Ernie: Thresh=  0.10000D-02 Tol=  0.10000D-05 Strict=F.
  NNHCO=     0 NNPyr=     0 NCTC=     0               EPep=         0.000000000
    EC=       403.355974882  ECS=         2.712272616   EG=         0.766867953
   EHC=         0.000000000  EAt=      -139.813231795  AtH=         1.168761636
 EPDDG=         0.000000000  ECC=       406.835115451 EAtT=       140.981993432
    45 basis functions,   270 primitive gaussians,    45 cartesian basis functions
    34 alpha electrons       34 beta electrons
       nuclear repulsion energy       548.5035577711 Hartrees.



 Warning!  S  atom    5 may be hypervalent but has no d functions.



 IExCor=    0 DFT=F Ex=HF Corr=None ExCW=0 ScaHFX=  1.000000
 ScaDFX=  1.000000  1.000000  1.000000  1.000000 ScalE2=  1.000000  1.000000
 IRadAn=      5 IRanWt=     -1 IRanGd=            0 ICorTp=0 IEmpDi=  4
 Integral buffers will be    131072 words long.
 Regular integral format.
 Two-electron integral symmetry is turned off.
 Leave Link  301 at Sat May 24 06:00:50 2025, MaxMem=  3758096384 cpu:               0.0 elap:               0.0
 (Enter /apps/easybuild-2022/easybuild/software/Compiler/NVHPC/22.11-CUDA-11.7.0/Gaussian/g16c01-CUDA-11.7.0/g16/l302.exe)
 Do NDO integrals.
 NPDir=0 NMtPBC=     1 NCelOv=     1 NCel=       1 NClECP=     1 NCelD=      1
         NCelK=      1 NCelE2=     1 NClLst=     1 CellRange=     0.0.
 One-electron integrals computed using PRISM.
 NBasis=    45 RedAO= F EigKep=  0.00D+00  NBF=    45
 NBsUse=    45 1.00D-04 EigRej=  0.00D+00 NBFU=    45
 Leave Link  302 at Sat May 24 06:00:50 2025, MaxMem=  3758096384 cpu:               0.1 elap:               0.0
 (Enter /apps/easybuild-2022/easybuild/software/Compiler/NVHPC/22.11-CUDA-11.7.0/Gaussian/g16c01-CUDA-11.7.0/g16/l303.exe)
 DipDrv:  MaxL=1.
 Leave Link  303 at Sat May 24 06:00:50 2025, MaxMem=  3758096384 cpu:               0.0 elap:               0.0
 (Enter /apps/easybuild-2022/easybuild/software/Compiler/NVHPC/22.11-CUDA-11.7.0/Gaussian/g16c01-CUDA-11.7.0/g16/l401.exe)
 Simple Huckel Guess.
 JPrj=0 DoOrth=F DoCkMO=F.
 Leave Link  401 at Sat May 24 06:00:50 2025, MaxMem=  3758096384 cpu:               0.0 elap:               0.0
 (Enter /apps/easybuild-2022/easybuild/software/Compiler/NVHPC/22.11-CUDA-11.7.0/Gaussian/g16c01-CUDA-11.7.0/g16/l502.exe)
 Keep J ints in memory in canonical form, NReq=865884.
 FoFCou: FMM=F IPFlag=           0 FMFlag=           0 FMFlg1=           0
         NFxFlg=           0 DoJE=F BraDBF=F KetDBF=F FulRan=T
         wScrn=  0.000000 ICntrl=       600 IOpCl=  2 I1Cent=           0 NGrid=           0
         NMat0=    1 NMatS0=    111 NMatT0=    0 NMatD0=    1 NMtDS0=    0 NMtDT0=    0
 Symmetry not used in FoFCou.
 Two-electron integral symmetry not used.
 Closed shell SCF:
 Using DIIS extrapolation, IDIIS=  1040.
 Overlap will be assumed to be unity.
 NGot=  3758096384 LenX=  3758025819 LenY=  3758023353
 Requested convergence on RMS density matrix=1.00D-08 within  32 cycles.
 Requested convergence on MAX density matrix=1.00D-06.
 Requested convergence on             energy=1.00D-06.
 No special actions if energy rises.

 Cycle   1  Pass 1  IDiag  1:
 E=  1.48639605352287    
 DIIS: error= 9.95D-02 at cycle   1 NSaved=   1.
 NSaved= 1 IEnMin= 1 EnMin=  1.48639605352287     IErMin= 1 ErrMin= 9.95D-02
 ErrMax= 9.95D-02  0.00D+00 EMaxC= 1.00D-01 BMatC= 3.99D-01 BMatP= 3.99D-01
 IDIUse=3 WtCom= 4.90D-03 WtEn= 9.95D-01
 Coeff-Com:  0.100D+01
 Coeff-En:   0.100D+01
 Coeff:      0.100D+01
 GapD=    2.000 DampG=2.000 DampE=0.500 DampFc=1.0000 IDamp=-1.
 RMSDP=2.21D-02 MaxDP=1.64D-01              OVMax= 0.00D+00

 Cycle   2  Pass 1  IDiag  1:
 E= 0.417188479187871     Delta-E=       -1.069207574335 Rises=F Damp=F
 DIIS: error= 2.09D-02 at cycle   2 NSaved=   2.
 NSaved= 2 IEnMin= 2 EnMin= 0.417188479187871     IErMin= 2 ErrMin= 2.09D-02
 ErrMax= 2.09D-02  0.00D+00 EMaxC= 1.00D-01 BMatC= 3.23D-02 BMatP= 3.99D-01
 IDIUse=3 WtCom= 7.91D-01 WtEn= 2.09D-01
 Coeff-Com: -0.340D+00 0.134D+01
 Coeff-En:   0.000D+00 0.100D+01
 Coeff:     -0.268D+00 0.127D+01
 RMSDP=7.88D-03 MaxDP=6.04D-02 DE=-1.07D+00 OVMax= 0.00D+00

 Cycle   3  Pass 1  IDiag  1:
 E= 0.322961244785347     Delta-E=       -0.094227234403 Rises=F Damp=F
 DIIS: error= 3.71D-03 at cycle   3 NSaved=   3.
 NSaved= 3 IEnMin= 3 EnMin= 0.322961244785347     IErMin= 3 ErrMin= 3.71D-03
 ErrMax= 3.71D-03  0.00D+00 EMaxC= 1.00D-01 BMatC= 1.01D-03 BMatP= 3.23D-02
 IDIUse=3 WtCom= 9.63D-01 WtEn= 3.71D-02
 Coeff-Com:  0.951D-01-0.415D+00 0.132D+01
 Coeff-En:   0.000D+00 0.000D+00 0.100D+01
 Coeff:      0.916D-01-0.400D+00 0.131D+01
 RMSDP=2.22D-03 MaxDP=1.45D-02 DE=-9.42D-02 OVMax= 0.00D+00

 Cycle   4  Pass 1  IDiag  3:
 E= 0.317143325278721     Delta-E=       -0.005817919507 Rises=F Damp=F
 DIIS: error= 1.08D-03 at cycle   4 NSaved=   4.
 NSaved= 4 IEnMin= 4 EnMin= 0.317143325278721     IErMin= 4 ErrMin= 1.08D-03
 ErrMax= 1.08D-03  0.00D+00 EMaxC= 1.00D-01 BMatC= 1.37D-04 BMatP= 1.01D-03
 IDIUse=3 WtCom= 9.89D-01 WtEn= 1.08D-02
 Coeff-Com: -0.946D-03-0.415D-02-0.385D+00 0.139D+01
 Coeff-En:   0.000D+00 0.000D+00 0.000D+00 0.100D+01
 Coeff:     -0.935D-03-0.411D-02-0.381D+00 0.139D+01
 Gap=     0.344 Goal=   None    Shift=    0.000
 RMSDP=1.20D-03 MaxDP=8.43D-03 DE=-5.82D-03 OVMax= 2.64D-02

 Cycle   5  Pass 1  IDiag  3:
 E= 0.316043371555679     Delta-E=       -0.001099953723 Rises=F Damp=F
 DIIS: error= 3.84D-04 at cycle   5 NSaved=   5.
 NSaved= 5 IEnMin= 5 EnMin= 0.316043371555679     IErMin= 5 ErrMin= 3.84D-04
 ErrMax= 3.84D-04  0.00D+00 EMaxC= 1.00D-01 BMatC= 1.53D-05 BMatP= 1.37D-04
 IDIUse=3 WtCom= 9.96D-01 WtEn= 3.84D-03
 Coeff-Com: -0.656D-02 0.331D-01 0.248D-01-0.485D+00 0.143D+01
 Coeff-En:   0.000D+00 0.000D+00 0.000D+00 0.000D+00 0.100D+01
 Coeff:     -0.654D-02 0.330D-01 0.247D-01-0.483D+00 0.143D+01
 Gap=     0.344 Goal=   None    Shift=    0.000
 RMSDP=4.71D-04 MaxDP=3.69D-03 DE=-1.10D-03 OVMax= 1.10D-02

 Cycle   6  Pass 1  IDiag  3:
 E= 0.315890408570795     Delta-E=       -0.000152962985 Rises=F Damp=F
 DIIS: error= 1.58D-04 at cycle   6 NSaved=   6.
 NSaved= 6 IEnMin= 6 EnMin= 0.315890408570795     IErMin= 6 ErrMin= 1.58D-04
 ErrMax= 1.58D-04  0.00D+00 EMaxC= 1.00D-01 BMatC= 2.93D-06 BMatP= 1.53D-05
 IDIUse=3 WtCom= 9.98D-01 WtEn= 1.58D-03
 Coeff-Com:  0.282D-02-0.139D-01 0.751D-02 0.198D+00-0.105D+01 0.186D+01
 Coeff-En:   0.000D+00 0.000D+00 0.000D+00 0.000D+00 0.000D+00 0.100D+01
 Coeff:      0.281D-02-0.139D-01 0.750D-02 0.198D+00-0.105D+01 0.186D+01
 Gap=     0.344 Goal=   None    Shift=    0.000
 RMSDP=2.67D-04 MaxDP=1.93D-03 DE=-1.53D-04 OVMax= 5.71D-03

 Cycle   7  Pass 1  IDiag  3:
 E= 0.315857274450309     Delta-E=       -0.000033134120 Rises=F Damp=F
 DIIS: error= 5.34D-05 at cycle   7 NSaved=   7.
 NSaved= 7 IEnMin= 7 EnMin= 0.315857274450309     IErMin= 7 ErrMin= 5.34D-05
 ErrMax= 5.34D-05  0.00D+00 EMaxC= 1.00D-01 BMatC= 2.16D-07 BMatP= 2.93D-06
 IDIUse=1 WtCom= 1.00D+00 WtEn= 0.00D+00
 Coeff-Com: -0.693D-03 0.237D-02-0.251D-02-0.320D-01 0.222D+00-0.617D+00
 Coeff-Com:  0.143D+01
 Coeff:     -0.693D-03 0.237D-02-0.251D-02-0.320D-01 0.222D+00-0.617D+00
 Coeff:      0.143D+01
 Gap=     0.344 Goal=   None    Shift=    0.000
 RMSDP=6.77D-05 MaxDP=6.13D-04 DE=-3.31D-05 OVMax= 1.27D-03

 Cycle   8  Pass 1  IDiag  3:
 E= 0.315855078815957     Delta-E=       -0.000002195634 Rises=F Damp=F
 DIIS: error= 1.90D-05 at cycle   8 NSaved=   8.
 NSaved= 8 IEnMin= 8 EnMin= 0.315855078815957     IErMin= 8 ErrMin= 1.90D-05
 ErrMax= 1.90D-05  0.00D+00 EMaxC= 1.00D-01 BMatC= 2.08D-08 BMatP= 2.16D-07
 IDIUse=1 WtCom= 1.00D+00 WtEn= 0.00D+00
 Coeff-Com:  0.959D-05 0.372D-03-0.111D-02 0.139D-02-0.928D-03 0.548D-01
 Coeff-Com: -0.467D+00 0.141D+01
 Coeff:      0.959D-05 0.372D-03-0.111D-02 0.139D-02-0.928D-03 0.548D-01
 Coeff:     -0.467D+00 0.141D+01
 Gap=     0.344 Goal=   None    Shift=    0.000
 RMSDP=1.87D-05 MaxDP=1.95D-04 DE=-2.20D-06 OVMax= 2.70D-04

 Cycle   9  Pass 1  IDiag  3:
 E= 0.315854876368689     Delta-E=       -0.000000202447 Rises=F Damp=F
 DIIS: error= 5.46D-06 at cycle   9 NSaved=   9.
 NSaved= 9 IEnMin= 9 EnMin= 0.315854876368689     IErMin= 9 ErrMin= 5.46D-06
 ErrMax= 5.46D-06  0.00D+00 EMaxC= 1.00D-01 BMatC= 2.80D-09 BMatP= 2.08D-08
 IDIUse=1 WtCom= 1.00D+00 WtEn= 0.00D+00
 Coeff-Com: -0.180D-05-0.217D-03 0.355D-03 0.168D-02-0.134D-01 0.107D-01
 Coeff-Com:  0.160D+00-0.840D+00 0.168D+01
 Coeff:     -0.180D-05-0.217D-03 0.355D-03 0.168D-02-0.134D-01 0.107D-01
 Coeff:      0.160D+00-0.840D+00 0.168D+01
 Gap=     0.344 Goal=   None    Shift=    0.000
 RMSDP=7.57D-06 MaxDP=6.37D-05 DE=-2.02D-07 OVMax= 1.05D-04

 Cycle  10  Pass 1  IDiag  3:
 E= 0.315854845650733     Delta-E=       -0.000000030718 Rises=F Damp=F
 DIIS: error= 1.96D-06 at cycle  10 NSaved=  10.
 NSaved=10 IEnMin=10 EnMin= 0.315854845650733     IErMin=10 ErrMin= 1.96D-06
 ErrMax= 1.96D-06  0.00D+00 EMaxC= 1.00D-01 BMatC= 2.97D-10 BMatP= 2.80D-09
 IDIUse=1 WtCom= 1.00D+00 WtEn= 0.00D+00
 Coeff-Com:  0.278D-05 0.630D-04 0.148D-04-0.115D-02 0.649D-02-0.989D-02
 Coeff-Com: -0.331D-01 0.258D+00-0.819D+00 0.160D+01
 Coeff:      0.278D-05 0.630D-04 0.148D-04-0.115D-02 0.649D-02-0.989D-02
 Coeff:     -0.331D-01 0.258D+00-0.819D+00 0.160D+01
 Gap=     0.344 Goal=   None    Shift=    0.000
 RMSDP=2.75D-06 MaxDP=2.49D-05 DE=-3.07D-08 OVMax= 4.27D-05

 Cycle  11  Pass 1  IDiag  3:
 E= 0.315854842220688     Delta-E=       -0.000000003430 Rises=F Damp=F
 DIIS: error= 6.28D-07 at cycle  11 NSaved=  11.
 NSaved=11 IEnMin=11 EnMin= 0.315854842220688     IErMin=11 ErrMin= 6.28D-07
 ErrMax= 6.28D-07  0.00D+00 EMaxC= 1.00D-01 BMatC= 2.64D-11 BMatP= 2.97D-10
 IDIUse=1 WtCom= 1.00D+00 WtEn= 0.00D+00
 Coeff-Com:  0.143D-05-0.168D-04-0.460D-04 0.448D-03-0.197D-02 0.439D-02
 Coeff-Com: -0.396D-02-0.200D-01 0.167D+00-0.668D+00 0.152D+01
 Coeff:      0.143D-05-0.168D-04-0.460D-04 0.448D-03-0.197D-02 0.439D-02
 Coeff:     -0.396D-02-0.200D-01 0.167D+00-0.668D+00 0.152D+01
 Gap=     0.344 Goal=   None    Shift=    0.000
 RMSDP=7.40D-07 MaxDP=6.79D-06 DE=-3.43D-09 OVMax= 1.14D-05

 Cycle  12  Pass 1  IDiag  3:
 E= 0.315854841962164     Delta-E=       -0.000000000259 Rises=F Damp=F
 DIIS: error= 1.93D-07 at cycle  12 NSaved=  12.
 NSaved=12 IEnMin=12 EnMin= 0.315854841962164     IErMin=12 ErrMin= 1.93D-07
 ErrMax= 1.93D-07  0.00D+00 EMaxC= 1.00D-01 BMatC= 2.29D-12 BMatP= 2.64D-11
 IDIUse=1 WtCom= 1.00D+00 WtEn= 0.00D+00
 Coeff-Com: -0.391D-06 0.275D-05 0.258D-04-0.146D-03 0.524D-03-0.148D-02
 Coeff-Com:  0.373D-02-0.539D-02-0.329D-01 0.236D+00-0.798D+00 0.160D+01
 Coeff:     -0.391D-06 0.275D-05 0.258D-04-0.146D-03 0.524D-03-0.148D-02
 Coeff:      0.373D-02-0.539D-02-0.329D-01 0.236D+00-0.798D+00 0.160D+01
 Gap=     0.344 Goal=   None    Shift=    0.000
 RMSDP=1.98D-07 MaxDP=1.56D-06 DE=-2.59D-10 OVMax= 2.54D-06

 Cycle  13  Pass 1  IDiag  3:
 E= 0.315854841938631     Delta-E=       -0.000000000024 Rises=F Damp=F
 DIIS: error= 4.97D-08 at cycle  13 NSaved=  13.
 NSaved=13 IEnMin=13 EnMin= 0.315854841938631     IErMin=13 ErrMin= 4.97D-08
 ErrMax= 4.97D-08  0.00D+00 EMaxC= 1.00D-01 BMatC= 2.12D-13 BMatP= 2.29D-12
 IDIUse=1 WtCom= 1.00D+00 WtEn= 0.00D+00
 Coeff-Com: -0.119D-07 0.606D-06-0.974D-05 0.311D-04-0.840D-04 0.398D-03
 Coeff-Com: -0.176D-02 0.493D-02 0.299D-02-0.698D-01 0.299D+00-0.878D+00
 Coeff-Com:  0.164D+01
 Coeff:     -0.119D-07 0.606D-06-0.974D-05 0.311D-04-0.840D-04 0.398D-03
 Coeff:     -0.176D-02 0.493D-02 0.299D-02-0.698D-01 0.299D+00-0.878D+00
 Coeff:      0.164D+01
 Gap=     0.344 Goal=   None    Shift=    0.000
 RMSDP=6.41D-08 MaxDP=4.24D-07 DE=-2.35D-11 OVMax= 7.24D-07

 Cycle  14  Pass 1  IDiag  3:
 E= 0.315854841933742     Delta-E=       -0.000000000005 Rises=F Damp=F
 DIIS: error= 1.08D-08 at cycle  14 NSaved=  14.
 NSaved=14 IEnMin=14 EnMin= 0.315854841933742     IErMin=14 ErrMin= 1.08D-08
 ErrMax= 1.08D-08  0.00D+00 EMaxC= 1.00D-01 BMatC= 1.26D-14 BMatP= 2.12D-13
 IDIUse=1 WtCom= 1.00D+00 WtEn= 0.00D+00
 Coeff-Com:  0.248D-07-0.489D-06 0.305D-05-0.573D-05 0.102D-04-0.122D-03
 Coeff-Com:  0.713D-03-0.228D-02 0.341D-03 0.230D-01-0.110D+00 0.361D+00
 Coeff-Com: -0.867D+00 0.159D+01
 Coeff:      0.248D-07-0.489D-06 0.305D-05-0.573D-05 0.102D-04-0.122D-03
 Coeff:      0.713D-03-0.228D-02 0.341D-03 0.230D-01-0.110D+00 0.361D+00
 Coeff:     -0.867D+00 0.159D+01
 Gap=     0.344 Goal=   None    Shift=    0.000
 RMSDP=1.48D-08 MaxDP=1.00D-07 DE=-4.89D-12 OVMax= 1.87D-07

 Cycle  15  Pass 1  IDiag  3:
 E= 0.315854841932151     Delta-E=       -0.000000000002 Rises=F Damp=F
 DIIS: error= 3.46D-09 at cycle  15 NSaved=  15.
 NSaved=15 IEnMin=15 EnMin= 0.315854841932151     IErMin=15 ErrMin= 3.46D-09
 ErrMax= 3.46D-09  0.00D+00 EMaxC= 1.00D-01 BMatC= 6.53D-16 BMatP= 1.26D-14
 IDIUse=1 WtCom= 1.00D+00 WtEn= 0.00D+00
 Coeff-Com: -0.937D-08 0.218D-06-0.962D-06 0.991D-06 0.509D-06 0.375D-04
 Coeff-Com: -0.269D-03 0.919D-03-0.483D-03-0.722D-02 0.372D-01-0.128D+00
 Coeff-Com:  0.331D+00-0.776D+00 0.154D+01
 Coeff:     -0.937D-08 0.218D-06-0.962D-06 0.991D-06 0.509D-06 0.375D-04
 Coeff:     -0.269D-03 0.919D-03-0.483D-03-0.722D-02 0.372D-01-0.128D+00
 Coeff:      0.331D+00-0.776D+00 0.154D+01
 Gap=     0.344 Goal=   None    Shift=    0.000
 RMSDP=3.06D-09 MaxDP=2.31D-08 DE=-1.59D-12 OVMax= 4.36D-08

 Cycle  16  Pass 2  IDiag  1:
 SCF Done:  E(RAM1) =  0.315854841932     A.U. after   16 cycles
            NFock= 15  Conv=0.31D-08     -V/T= 1.0013
 KE=-2.376061034362D+02 PE=-7.973014665944D+02 EE= 4.867198671015D+02
 Leave Link  502 at Sat May 24 06:00:50 2025, MaxMem=  3758096384 cpu:               0.1 elap:               0.0
 (Enter /apps/easybuild-2022/easybuild/software/Compiler/NVHPC/22.11-CUDA-11.7.0/Gaussian/g16c01-CUDA-11.7.0/g16/l508.exe)
 QCSCF skips out because SCF is already converged.
 Leave Link  508 at Sat May 24 06:00:50 2025, MaxMem=  3758096384 cpu:               0.0 elap:               0.0
 (Enter /apps/easybuild-2022/easybuild/software/Compiler/NVHPC/22.11-CUDA-11.7.0/Gaussian/g16c01-CUDA-11.7.0/g16/l701.exe)
 ... and contract with generalized density number  0.
 Compute integral first derivatives.
 Leave Link  701 at Sat May 24 06:00:50 2025, MaxMem=  3758096384 cpu:               0.1 elap:               0.0
 (Enter /apps/easybuild-2022/easybuild/software/Compiler/NVHPC/22.11-CUDA-11.7.0/Gaussian/g16c01-CUDA-11.7.0/g16/l702.exe)
 L702 exits ... SP integral derivatives will be done elsewhere.
 Leave Link  702 at Sat May 24 06:00:50 2025, MaxMem=  3758096384 cpu:               0.0 elap:               0.0
 (Enter /apps/easybuild-2022/easybuild/software/Compiler/NVHPC/22.11-CUDA-11.7.0/Gaussian/g16c01-CUDA-11.7.0/g16/l703.exe)
 Integral derivatives from FoFJK, PRISM(SPDF).
 Compute integral first derivatives, UseDBF=F ICtDFT=           0.
 Calling FoFJK, ICntrl=      2127 FMM=F ISym2X=0 I1Cent= 0 IOpClX= 0 NMat=1 NMatS=1 NMatT=0.
 FoFJK:  IHMeth= 8 ICntrl=    2127 DoSepK=F KAlg= 0 I1Cent=           0 FoldK=F
 IRaf=         0 NMat=       1 IRICut=       1 DoRegI=T DoRafI=F ISym2E= 0 IDoP0=3 IntGTp=3.
 FoFCou: FMM=F IPFlag=           0 FMFlag=      100000 FMFlg1=         800
         NFxFlg=           0 DoJE=F BraDBF=F KetDBF=F FulRan=T
         wScrn=  0.000000 ICntrl=      2127 IOpCl=  0 I1Cent=           0 NGrid=           0
         NMat0=    1 NMatS0=      1 NMatT0=    0 NMatD0=    1 NMtDS0=    0 NMtDT0=    0
 Symmetry not used in FoFCou.
 Leave Link  703 at Sat May 24 06:00:50 2025, MaxMem=  3758096384 cpu:               0.0 elap:               0.0
 (Enter /apps/easybuild-2022/easybuild/software/Compiler/NVHPC/22.11-CUDA-11.7.0/Gaussian/g16c01-CUDA-11.7.0/g16/l716.exe)
 Dipole        =-1.65156317D+00 5.51496067D-01 4.47100194D-01
 -------------------------------------------------------------------
 Center     Atomic                   Forces (Hartrees/Bohr)
 Number     Number              X              Y              Z
 -------------------------------------------------------------------
      1        6          -0.000371482    0.030779265   -0.021462008
      2        6           0.006661389    0.018060058    0.028567458
      3        9          -0.021113320   -0.010651031   -0.068781410
      4        9          -0.020292083    0.051248967    0.012385983
      5       16           0.045511054   -0.103383309   -0.025023400
      6        8           0.017976950    0.016022134   -0.029606757
      7        8          -0.029075838    0.000828367    0.028655309
      8        8           0.006155476    0.020241031    0.001410896
      9        9           0.047642662    0.043649931    0.025379732
     10        9          -0.006639620    0.008042502    0.071831849
     11        9          -0.042613787   -0.070959903   -0.026759445
     12        1          -0.003841401   -0.003878012    0.003401793
 -------------------------------------------------------------------
 Cartesian Forces:  Max     0.103383309 RMS     0.035641657
 Z-matrix is all fixed cartesians, so copy forces.
 Force constants in Cartesian coordinates: 
                1             2             3             4             5 
      1  0.381259D+00
      2  0.429507D+00  0.866009D+00
      3 -0.932881D-02  0.198516D+00  0.116245D+01
      4 -0.110829D+00 -0.574374D-01  0.264566D-01  0.586158D+00
      5 -0.701030D-01 -0.194756D+00  0.455187D-01 -0.118202D+00  0.865861D+00
      6  0.372595D-01  0.446366D-01 -0.198893D+00  0.112834D+00  0.118101D+00
      7  0.873564D-02  0.757228D-02  0.139244D-01 -0.129456D+00 -0.172982D-01
      8  0.125536D-01  0.120021D-01  0.212597D-01 -0.152245D-01 -0.964460D-01
      9 -0.462553D-02 -0.418303D-02 -0.756650D-02 -0.152502D+00 -0.779315D-01
     10  0.100092D-01 -0.130540D-01 -0.828146D-02 -0.146001D+00  0.178502D+00
     11  0.709561D-02 -0.949501D-02 -0.613948D-02  0.168562D+00 -0.496167D+00
     12 -0.129614D-01  0.179011D-01  0.118358D-01  0.319244D-01 -0.100692D+00
     13 -0.673367D-02  0.185468D-02 -0.215483D-02 -0.214150D+00  0.204250D-01
     14 -0.158635D-01  0.440918D-02 -0.503204D-02  0.254975D-01 -0.981483D-01
     15  0.142969D-01 -0.390504D-02  0.461174D-02 -0.251064D-01  0.139260D-02
     16  0.000000D+00 -0.153516D-04 -0.165241D-04  0.754299D-02  0.104120D-01
     17  0.109376D-04 -0.176219D-03 -0.189678D-03 -0.711048D-03  0.151008D-02
     18  0.514062D-05 -0.828221D-04 -0.891479D-04  0.109498D-02  0.264170D-02
     19 -0.235956D-05  0.380157D-04  0.409192D-04 -0.451633D-02 -0.638831D-03
     20 -0.140502D-04  0.226368D-03  0.243657D-03  0.191344D-02  0.432445D-02
     21 -0.198792D-05  0.320281D-04  0.344743D-04 -0.463827D-02 -0.773341D-03
     22  0.299166D-05 -0.481996D-04 -0.518810D-04 -0.127126D-02 -0.198571D-01
     23  0.253903D-05 -0.409071D-04 -0.440316D-04  0.452550D-03  0.436873D-02
     24 -0.100676D-04  0.162203D-03  0.174591D-03 -0.926554D-03 -0.529658D-02
     25 -0.266827D-05  0.429894D-04  0.462729D-04  0.233334D-02  0.165323D-01
     26 -0.237154D-05  0.382086D-04  0.411269D-04 -0.887466D-03 -0.858319D-02
     27  0.889120D-05 -0.143249D-03 -0.154190D-03 -0.549480D-03  0.170733D-02
     28 -0.547399D-01 -0.323884D-01  0.847563D-01  0.754079D-02  0.639758D-02
     29 -0.345001D-01 -0.108908D+00 -0.731572D-01  0.223259D-02  0.211834D-01
     30  0.727562D-01 -0.803873D-01 -0.784075D+00  0.447005D-03 -0.178061D-02
     31 -0.227701D+00 -0.336072D+00 -0.105391D+00  0.355481D-02 -0.540105D-02
     32 -0.328687D+00 -0.569309D+00 -0.181017D+00 -0.651749D-02 -0.341975D-02
     33 -0.973989D-01 -0.172546D+00 -0.188325D+00  0.116224D-01  0.176700D-01
     34  0.000000D+00  0.000000D+00  0.000000D+00 -0.906755D-03 -0.769565D-03
     35  0.000000D+00  0.000000D+00  0.000000D+00  0.321607D-03  0.272949D-03
     36  0.000000D+00  0.000000D+00  0.000000D+00 -0.656857D-03 -0.557477D-03
                6             7             8             9            10 
      6  0.955863D+00
      7 -0.162975D+00  0.108532D+00
      8 -0.762362D-01  0.173571D-01  0.782827D-01
      9 -0.572129D+00  0.158594D+00  0.807263D-01  0.572778D+00
     10  0.350815D-01  0.727040D-02 -0.134514D-01 -0.148549D-03  0.126153D+00
     11 -0.102751D+00 -0.951760D-03  0.276717D-02 -0.136387D-03 -0.175550D+00
     12 -0.108520D+00  0.158509D-01 -0.334904D-01  0.320965D-03 -0.355284D-01
     13 -0.220168D-01  0.490810D-02 -0.118846D-02 -0.132251D-02  0.257583D-02
     14  0.199190D-02 -0.670185D-02  0.351534D-02  0.151276D-02  0.235684D-01
     15 -0.122807D+00 -0.254726D-01  0.772763D-02  0.662218D-02  0.895278D-02
     16 -0.220791D-01  0.741637D-05  0.284674D-04 -0.668504D-05 -0.856063D-05
     17  0.413460D-02  0.851315D-04  0.326774D-03 -0.767367D-04 -0.982663D-04
     18 -0.227368D-02  0.400114D-04  0.153582D-03 -0.360659D-04 -0.461847D-04
     19  0.178308D-01 -0.183654D-04 -0.704948D-04  0.165544D-04  0.211990D-04
     20 -0.421367D-02 -0.109358D-03 -0.419768D-03  0.985745D-04  0.126231D-03
     21  0.182156D-01 -0.154728D-04 -0.593917D-04  0.139470D-04  0.178601D-04
     22 -0.111969D-01  0.232853D-04  0.893795D-04 -0.209891D-04 -0.268779D-04
     23  0.176079D-02  0.197623D-04  0.758567D-04 -0.178135D-04 -0.228114D-04
     24 -0.598773D-03 -0.783602D-04 -0.300783D-03  0.706331D-04  0.904503D-04
     25  0.413996D-02 -0.207682D-04 -0.797180D-04  0.187203D-04  0.239725D-04
     26 -0.346613D-02 -0.184586D-04 -0.708526D-04  0.166384D-04  0.213065D-04
     27  0.364044D-02  0.692037D-04  0.265636D-03 -0.623795D-04 -0.798810D-04
     28  0.118649D-01  0.368573D-03 -0.271069D-03 -0.711561D-04 -0.342944D-03
     29  0.250263D-01 -0.160601D-03  0.118115D-03  0.310054D-04  0.149434D-03
     30 -0.170556D-02  0.520497D-04 -0.382803D-04 -0.100486D-04 -0.484303D-04
     31 -0.379425D-02 -0.349455D-03  0.257009D-03  0.674651D-04  0.325155D-03
     32 -0.790185D-02  0.205908D-03 -0.151436D-03 -0.397522D-04 -0.191589D-03
     33  0.269971D-01  0.104717D-04 -0.770144D-05 -0.202164D-05 -0.974348D-05
     34  0.305144D-02  0.000000D+00  0.000000D+00  0.000000D+00  0.000000D+00
     35 -0.108228D-02  0.000000D+00  0.000000D+00  0.000000D+00  0.000000D+00
     36  0.221048D-02  0.000000D+00  0.000000D+00  0.000000D+00  0.000000D+00
               11            12            13            14            15 
     11  0.495884D+00
     12  0.106699D+00  0.914511D-01
     13  0.836336D-03  0.759757D-03  0.116364D+01
     14  0.698813D-02  0.970014D-02  0.856386D-01  0.100305D+01
     15  0.235947D-02  0.490568D-02 -0.590598D+00 -0.182684D+00  0.170449D+01
     16 -0.983915D-05  0.266875D-04 -0.128208D+00 -0.502930D-01  0.140878D+00
     17 -0.112942D-03  0.306342D-03 -0.453308D-01 -0.230238D+00  0.307566D+00
     18 -0.530824D-04  0.143979D-03  0.128618D+00  0.304364D+00 -0.756041D+00
     19  0.243650D-04 -0.660870D-04 -0.599202D+00  0.242679D-01  0.477340D+00
     20  0.145084D-03 -0.393521D-03  0.271051D-01 -0.102549D+00 -0.606874D-02
     21  0.205274D-04 -0.556781D-04  0.487070D+00 -0.364776D-02 -0.595416D+00
     22 -0.308921D-04  0.837910D-04 -0.140118D+00 -0.433619D-01  0.329264D-01
     23 -0.262182D-04  0.711137D-04 -0.326083D-01 -0.432535D+00 -0.118730D+00
     24  0.103959D-03 -0.281976D-03  0.625990D-02 -0.944316D-01 -0.151125D+00
     25  0.275528D-04 -0.747335D-04 -0.995912D-01 -0.465226D-01 -0.123347D-01
     26  0.244887D-04 -0.664225D-04 -0.388081D-01 -0.150426D+00 -0.302209D-01
     27 -0.918112D-04  0.249026D-03 -0.523404D-02 -0.313850D-01 -0.973822D-01
     28 -0.660192D-04 -0.288726D-03 -0.129374D-04  0.208439D-03  0.224359D-03
     29  0.287671D-04  0.125809D-03  0.563734D-05 -0.908249D-04 -0.977620D-04
     30 -0.932320D-05 -0.407738D-04 -0.182702D-05  0.294357D-04  0.316839D-04
     31  0.625947D-04  0.273750D-03  0.122664D-04 -0.197627D-03 -0.212722D-03
     32 -0.368824D-04 -0.161300D-03 -0.722765D-05  0.116447D-03  0.125341D-03
     33 -0.187569D-05 -0.820310D-05  0.000000D+00  0.592203D-05  0.637435D-05
     34  0.000000D+00  0.000000D+00  0.168773D-01  0.375953D-02 -0.208937D-01
     35  0.000000D+00  0.000000D+00 -0.179224D-01 -0.409487D-02  0.225361D-01
     36  0.000000D+00  0.000000D+00 -0.137893D-02 -0.424029D-03  0.210424D-02
               16            17            18            19            20 
     16  0.966344D-01
     17  0.572372D-01  0.214234D+00
     18 -0.129150D+00 -0.310319D+00  0.756996D+00
     19  0.168365D-01 -0.763359D-02 -0.298759D-03  0.584749D+00
     20 -0.181389D-01  0.142288D-01  0.304573D-02 -0.144606D-01  0.787004D-01
     21  0.176094D-01 -0.815772D-02 -0.391267D-03 -0.502102D+00  0.142895D-01
     22 -0.122248D-02 -0.425980D-02 -0.216208D-02  0.106783D-01  0.185188D-01
     23  0.389426D-03 -0.708528D-02 -0.314087D-02 -0.169804D-02  0.389940D-02
     24 -0.735491D-03  0.261277D-01  0.117140D-01  0.634938D-03 -0.221586D-01
     25  0.429080D-02  0.141677D-02  0.144903D-02 -0.568890D-02 -0.162087D-01
     26  0.185354D-02  0.705880D-02  0.355037D-02 -0.841878D-03  0.189371D-02
     27 -0.951515D-02 -0.188720D-01 -0.103490D-01  0.867339D-02  0.142386D-01
     28  0.000000D+00  0.000000D+00  0.000000D+00  0.000000D+00  0.000000D+00
     29  0.000000D+00  0.000000D+00  0.000000D+00  0.000000D+00  0.000000D+00
     30  0.000000D+00  0.000000D+00  0.000000D+00  0.000000D+00  0.000000D+00
     31  0.000000D+00  0.000000D+00  0.000000D+00  0.000000D+00  0.000000D+00
     32  0.000000D+00  0.000000D+00  0.000000D+00  0.000000D+00  0.000000D+00
     33  0.000000D+00  0.000000D+00  0.000000D+00  0.000000D+00  0.000000D+00
     34  0.412634D-02 -0.716503D-03  0.450424D-03 -0.285652D-02  0.126798D-02
     35 -0.146352D-02  0.254128D-03 -0.159756D-03  0.101315D-02 -0.449725D-03
     36  0.298914D-02 -0.519038D-03  0.326289D-03 -0.206927D-02  0.918529D-03
               21            22            23            24            25 
     21  0.570050D+00
     22  0.103000D-01  0.336484D+00
     23 -0.183587D-02  0.220739D+00  0.653490D+00
     24  0.128527D-02 -0.179293D+00 -0.350465D-01  0.316054D+00
     25 -0.530391D-02  0.285809D-01 -0.451391D-02  0.159421D-02  0.734968D-01
     26 -0.909068D-03 -0.697080D-02  0.321647D-02 -0.757840D-02  0.480915D-01
     27  0.838939D-02 -0.162459D-01 -0.259618D-02  0.166365D-01  0.129442D-01
     28  0.000000D+00  0.000000D+00  0.000000D+00  0.000000D+00  0.000000D+00
     29  0.000000D+00  0.000000D+00  0.000000D+00  0.000000D+00  0.000000D+00
     30  0.000000D+00  0.000000D+00  0.000000D+00  0.000000D+00  0.000000D+00
     31  0.000000D+00  0.000000D+00  0.000000D+00  0.000000D+00  0.000000D+00
     32  0.000000D+00  0.000000D+00  0.000000D+00  0.000000D+00  0.000000D+00
     33  0.000000D+00  0.000000D+00  0.000000D+00  0.000000D+00  0.000000D+00
     34 -0.293531D-02 -0.233131D+00 -0.182760D+00  0.172464D+00 -0.342221D-02
     35  0.104109D-02 -0.164818D+00 -0.225364D+00  0.138419D+00  0.121379D-02
     36 -0.212635D-02  0.165661D+00  0.159580D+00 -0.193929D+00 -0.247907D-02
               26            27            28            29            30 
     26  0.145984D+00
     27  0.403983D-01  0.718400D-01
     28  0.000000D+00  0.000000D+00  0.347535D-01
     29  0.000000D+00  0.000000D+00  0.249301D-01  0.788845D-01
     30  0.000000D+00  0.000000D+00 -0.735320D-01  0.830597D-01  0.784004D+00
     31  0.000000D+00  0.000000D+00  0.124329D-01  0.734290D-02  0.326971D-03
     32  0.000000D+00  0.000000D+00  0.118938D-02  0.878407D-02 -0.873629D-03
     33  0.000000D+00  0.000000D+00 -0.229536D-01 -0.349879D-01  0.179604D-02
     34 -0.243722D-02  0.992870D-02  0.000000D+00  0.000000D+00  0.000000D+00
     35  0.864430D-03 -0.352150D-02  0.000000D+00  0.000000D+00  0.000000D+00
     36 -0.176553D-02  0.719240D-02  0.000000D+00  0.000000D+00  0.000000D+00
               31            32            33            34            35 
     31  0.211725D+00
     32  0.334008D+00  0.564016D+00
     33  0.108730D+00  0.189868D+00  0.159536D+00
     34  0.000000D+00  0.000000D+00  0.000000D+00  0.219313D+00
     35  0.000000D+00  0.000000D+00  0.000000D+00  0.181656D+00  0.228517D+00
     36  0.000000D+00  0.000000D+00  0.000000D+00 -0.162066D+00 -0.157232D+00
               36 
     36  0.184222D+00
 Leave Link  716 at Sat May 24 06:00:50 2025, MaxMem=  3758096384 cpu:               0.0 elap:               0.0
 (Enter /apps/easybuild-2022/easybuild/software/Compiler/NVHPC/22.11-CUDA-11.7.0/Gaussian/g16c01-CUDA-11.7.0/g16/l103.exe)

 GradGradGradGradGradGradGradGradGradGradGradGradGradGradGradGradGradGrad
 Berny optimization.
 Search for a local minimum.
 Step number   1 out of a maximum of    2
 All quantities printed in internal units (Hartrees-Bohrs-Radians)
 Second derivative matrix not updated -- first step.
 ITU=  0
     Eigenvalues ---    0.00107   0.00203   0.01001   0.01771   0.03147
     Eigenvalues ---    0.04556   0.04883   0.05059   0.05725   0.07351
     Eigenvalues ---    0.07544   0.09592   0.12001   0.12732   0.13757
     Eigenvalues ---    0.17138   0.18742   0.20854   0.27606   0.30155
     Eigenvalues ---    0.45983   0.61270   0.97001   1.23401   1.32887
     Eigenvalues ---    1.52006   1.56451   1.63268   2.06559   3.02314
 Quadratic step=2.739D+00 exceeds max=3.000D-01 adjusted using Lamda=-2.392D-01.
 Angle between NR and scaled steps=  59.49 degrees.
 Angle between quadratic step and forces=  37.99 degrees.
 Linear search not attempted -- first point.
 B after Tr=     0.001693   -0.000524    0.000070
         Rot=    1.000000    0.000061    0.000035   -0.000259 Ang=   0.03 deg.
 Variable       Old X    -DE/DX   Delta X   Delta X   Delta X     New X
                                 (Linear)    (Quad)   (Total)
    X1       -1.25523  -0.00037   0.00000  -0.09252  -0.08992  -1.34515
    Y1       -1.91336   0.03078   0.00000   0.00601   0.00492  -1.90844
    Z1        1.09671  -0.02146   0.00000   0.00899   0.00920   1.10591
    X2       -0.11911   0.00666   0.00000  -0.03134  -0.02968  -0.14879
    Y2        0.10692   0.01806   0.00000   0.04395   0.04326   0.15019
    Z2       -0.71470   0.02857   0.00000  -0.00817  -0.00813  -0.72283
    X3       -0.84002  -0.02111   0.00000  -0.03847  -0.03643  -0.87644
    Y3       -0.25679  -0.01065   0.00000   0.00507   0.00370  -0.25308
    Z3       -3.06327  -0.06878   0.00000  -0.08517  -0.08513  -3.14840
    X4       -1.02302  -0.02029   0.00000  -0.03163  -0.03121  -1.05424
    Y4        2.38971   0.05125   0.00000   0.09745   0.09636   2.48607
    Z4       -0.16303   0.01239   0.00000   0.01718   0.01687  -0.14616
    X5        3.21590   0.04551   0.00000   0.04779   0.04981   3.26571
    Y5       -0.56924  -0.10338   0.00000  -0.07579  -0.07461  -0.64385
    Z5        0.10579  -0.02502   0.00000  -0.01764  -0.01726   0.08853
    X6        2.75094   0.01798   0.00000   0.05624   0.05864   2.80957
    Y6       -1.69159   0.01602   0.00000  -0.00655  -0.00531  -1.69690
    Z6        2.57997  -0.02961   0.00000  -0.02079  -0.02032   2.55965
    X7        5.13360  -0.02908   0.00000   0.00839   0.01055   5.14415
    Y7       -0.62391   0.00083   0.00000  -0.02165  -0.01973  -0.64364
    Z7       -1.78405   0.02866   0.00000  -0.00241  -0.00190  -1.78596
    X8        3.62851   0.00616   0.00000   0.01669   0.01711   3.64562
    Y8        2.34631   0.02024   0.00000  -0.02198  -0.02050   2.32581
    Z8        0.96370   0.00141   0.00000  -0.00915  -0.00911   0.95459
    X9        1.75107   0.04764   0.00000   0.13462   0.13824   1.88931
    Y9       -3.64110   0.04365   0.00000   0.06542   0.06574  -3.57536
    Z9       -1.15316   0.02538   0.00000   0.05703   0.05766  -1.09550
   X10       -1.47285  -0.00664   0.00000  -0.02322  -0.02091  -1.49376
   Y10       -1.64973   0.00804   0.00000  -0.00084  -0.00171  -1.65144
   Z10        3.45112   0.07183   0.00000   0.08260   0.08277   3.53389
   X11       -2.41142  -0.04261   0.00000  -0.06563  -0.06193  -2.47334
   Y11       -3.83865  -0.07096   0.00000  -0.08578  -0.08754  -3.92619
   Z11        0.37070  -0.02676   0.00000  -0.02657  -0.02619   0.34450
   X12        4.71618  -0.00384   0.00000  -0.00417  -0.00426   4.71192
   Y12        3.44470  -0.00388   0.00000  -0.00651  -0.00459   3.44010
   Z12        0.00002   0.00340   0.00000   0.00157   0.00155   0.00157
         Item               Value     Threshold  Converged?
 Maximum Force            0.103383     0.000450     NO 
 RMS     Force            0.035642     0.000300     NO 
 Maximum Displacement     0.138237     0.001800     NO 
 RMS     Displacement     0.049984     0.001200     NO 
 Predicted change in Energy=-3.604933D-02
 GradGradGradGradGradGradGradGradGradGradGradGradGradGradGradGradGradGrad

 Leave Link  103 at Sat May 24 06:00:50 2025, MaxMem=  3758096384 cpu:               0.0 elap:               0.0
 (Enter /apps/easybuild-2022/easybuild/software/Compiler/NVHPC/22.11-CUDA-11.7.0/Gaussian/g16c01-CUDA-11.7.0/g16/l9999.exe)
 Unable to Open any file for archive entry.
 1\1\GINC-SPARTAN-BM143\Force\RAM1\ZDO\C2H1F5O3S1\AKHALILOV\24-May-2025
 \0\\#P am1 Symm(None) scf(xqc) pop(None) force\\Gaussian input prepare
 d by ASE\\0,1\C,-0.6642416278,-1.0125066817,0.5803539318\C,-0.06303226
 64,0.0565805536,-0.3782043998\F,-0.4445171923,-0.1358851656,-1.6210147
 838\F,-0.5413602211,1.2645806016,-0.0862729808\S,1.7017804959,-0.30122
 99363,0.0559823876\O,1.4557329447,-0.8951498916,1.3652597557\O,2.71658
 64559,-0.3301583377,-0.9440797214\O,1.9201261357,1.2416154287,0.509967
 3438\F,0.9266277103,-1.9267873237,-0.6102258189\F,-0.7793996025,-0.873
 0014194,1.8262562345\F,-1.2760670977,-2.0313241199,0.1961652876\H,2.49
 56952653,1.8228552921,0.0000097638\\Version=ES64L-G16RevC.01\HF=0.3158
 548\RMSD=3.062e-09\RMSF=3.564e-02\Dipole=-1.6515632,0.5514961,0.447100
 2\PG=Unknown\\@
 The archive entry for this job was punched.


 TRUST EVERYONE, BUT CUT THE CARDS.
 Job cpu time:       0 days  0 hours  0 minutes  0.8 seconds.
 Elapsed time:       0 days  0 hours  0 minutes  0.4 seconds.
 File lengths (MBytes):  RWF=      6 Int=      0 D2E=      0 Chk=      2 Scr=      1
 Normal termination of Gaussian 16 at Sat May 24 06:00:50 2025.
done
