12
energy = 0
C -0.45148212 -0.70136017 0.69022405
C 0.01341432 -0.12070215 -0.67723413
F -0.61164625 -0.52224768 -1.76130606
F -0.37309104 1.15350206 -0.69463905
S 1.73596744 -0.38309808 -0.04868842
O 1.64691762 -1.53732629 0.83861926
O 2.75039150 0.05274135 -0.94967678
O 1.61943839 0.85379386 0.99566224
F 0.67073561 -1.75867483 -0.86121644
F -0.39690721 -0.11622846 1.80361441
F -1.07149887 -1.77949398 0.80479724
H 1.91569161 1.73868335 0.75404068
12
energy = 0
C -0.66424163 -1.01250668 0.58035393
C -0.06303227 0.05658055 -0.37820440
F -0.44451719 -0.13588517 -1.62101478
F -0.54136022 1.26458060 -0.08627298
S 1.70178050 -0.30122994 0.05598239
O 1.45573294 -0.89514989 1.36525976
O 2.71658646 -0.33015834 -0.94407972
O 1.92012614 1.24161543 0.50996734
F 0.92662771 -1.92678732 -0.61022582
F -0.77939960 -0.87300142 1.82625623
F -1.27606710 -2.03132412 0.19616529
H 2.49569527 1.82285529 0.00000976
12
energy = 0
C -0.70162945 -1.08846432 0.53463485
C -0.07845951 0.07650386 -0.28861642
F -0.47575307 0.02722574 -1.54036757
F -0.54070697 1.24701133 0.14672857
S 1.70298326 -0.26687543 0.08509861
O 1.32456367 -0.64598643 1.44177138
O 2.77821784 -0.45035944 -0.83195996
O 1.95678257 1.32237552 0.29489924
F 1.01579220 -1.96135176 -0.50111844
F -0.83515844 -1.12182696 1.78605507
F -1.31390314 -2.04007417 0.00597625
H 2.61520203 1.78141106 -0.23890461
