 Entering Gaussian System, Link 0=g16
 Initial command:
 /apps/easybuild-2022/easybuild/software/Compiler/NVHPC/22.11-CUDA-11.7.0/Gaussian/g16c01-CUDA-11.7.0/g16/l1.exe "/tmp/Gau-229084.inp" -scrdir="/tmp/"
 Entering Link 1 = /apps/easybuild-2022/easybuild/software/Compiler/NVHPC/22.11-CUDA-11.7.0/Gaussian/g16c01-CUDA-11.7.0/g16/l1.exe PID=    229086.
  
 Copyright (c) 1988-2019, Gaussian, Inc.  All Rights Reserved.
  
 This is part of the Gaussian(R) 16 program.  It is based on
 the Gaussian(R) 09 system (copyright 2009, Gaussian, Inc.),
 the Gaussian(R) 03 system (copyright 2003, Gaussian, Inc.),
 the Gaussian(R) 98 system (copyright 1998, Gaussian, Inc.),
 the Gaussian(R) 94 system (copyright 1995, Gaussian, Inc.),
 the Gaussian 92(TM) system (copyright 1992, Gaussian, Inc.),
 the Gaussian 90(TM) system (copyright 1990, Gaussian, Inc.),
 the Gaussian 88(TM) system (copyright 1988, Gaussian, Inc.),
 the Gaussian 86(TM) system (copyright 1986, Carnegie Mellon
 University), and the Gaussian 82(TM) system (copyright 1983,
 Carnegie Mellon University). Gaussian is a federally registered
 trademark of Gaussian, Inc.
  
 This software contains proprietary and confidential information,
 including trade secrets, belonging to Gaussian, Inc.
  
 This software is provided under written license and may be
 used, copied, transmitted, or stored only in accord with that
 written license.
  
 The following legend is applicable only to US Government
 contracts under FAR:
  
                    RESTRICTED RIGHTS LEGEND
  
 Use, reproduction and disclosure by the US Government is
 subject to restrictions as set forth in subparagraphs (a)
 and (c) of the Commercial Computer Software - Restricted
 Rights clause in FAR 52.227-19.
  
 Gaussian, Inc.
 340 Quinnipiac St., Bldg. 40, Wallingford CT 06492
  
  
 ---------------------------------------------------------------
 Warning -- This program may not be used in any manner that
 competes with the business of Gaussian, Inc. or will provide
 assistance to any competitor of Gaussian, Inc.  The licensee
 of this program is prohibited from giving any competitor of
 Gaussian, Inc. access to this program.  By using this program,
 the user acknowledges that Gaussian, Inc. is engaged in the
 business of creating and licensing software in the field of
 computational chemistry and represents and warrants to the
 licensee that it is not a competitor of Gaussian, Inc. and that
 it will not use this program in any manner prohibited above.
 ---------------------------------------------------------------
  

 Cite this work as:
 Gaussian 16, Revision C.01,
 M. J. Frisch, G. W. Trucks, H. B. Schlegel, G. E. Scuseria, 
 M. A. Robb, J. R. Cheeseman, G. Scalmani, V. Barone, 
 G. A. Petersson, H. Nakatsuji, X. Li, M. Caricato, A. V. Marenich, 
 J. Bloino, B. G. Janesko, R. Gomperts, B. Mennucci, H. P. Hratchian, 
 J. V. Ortiz, A. F. Izmaylov, J. L. Sonnenberg, D. Williams-Young, 
 F. Ding, F. Lipparini, F. Egidi, J. Goings, B. Peng, A. Petrone, 
 T. Henderson, D. Ranasinghe, V. G. Zakrzewski, J. Gao, N. Rega, 
 G. Zheng, W. Liang, M. Hada, M. Ehara, K. Toyota, R. Fukuda, 
 J. Hasegawa, M. Ishida, T. Nakajima, Y. Honda, O. Kitao, H. Nakai, 
 T. Vreven, K. Throssell, J. A. Montgomery, Jr., J. E. Peralta, 
 F. Ogliaro, M. J. Bearpark, J. J. Heyd, E. N. Brothers, K. N. Kudin, 
 V. N. Staroverov, T. A. Keith, R. Kobayashi, J. Normand, 
 K. Raghavachari, A. P. Rendell, J. C. Burant, S. S. Iyengar, 
 J. Tomasi, M. Cossi, J. M. Millam, M. Klene, C. Adamo, R. Cammi, 
 J. W. Ochterski, R. L. Martin, K. Morokuma, O. Farkas, 
 J. B. Foresman, and D. J. Fox, Gaussian, Inc., Wallingford CT, 2019.
 
 ******************************************
 Gaussian 16:  ES64L-G16RevC.01  3-Jul-2019
                24-May-2025 
 ******************************************
 %mem=28GB
 %nprocshared=8
 Will use up to    8 processors via shared memory.
 ----------------------------------------------------------------------
 #P M062X/Def2TZVPP Symm(None) scf(xqc) pop(None) freq opt(CalcFC, Tigh
 t)
 ----------------------------------------------------------------------
 1/7=10,10=4,18=20,19=15,26=3,38=1/1,3;
 2/9=110,12=2,15=3,17=6,18=5,40=1/2;
 3/5=44,7=202,11=2,25=1,30=1,71=2,74=-55,140=1/1,2,3;
 4//1;
 5/5=2,8=3,13=1,38=5/2,8;
 8/6=4,10=90,11=11/1;
 11/6=1,8=1,9=11,15=111,16=1,31=1/1,2,10;
 10/6=1,13=1,31=1/2;
 7/10=1,25=1,30=1/1,2,3,16;
 1/7=10,10=4,18=20,19=15,26=3/3(2);
 2/9=110,15=3/2;
 99//99;
 2/9=110,15=3/2;
 3/5=44,7=202,11=2,25=1,30=1,71=1,74=-55/1,2,3;
 4/5=5,16=3,69=1/1;
 5/5=2,8=3,13=1,38=5/2,8;
 7/30=1/1,2,3,16;
 1/7=10,18=20,19=15,26=3/3(-5);
 2/9=110,15=3/2;
 99/9=1/99;
 Leave Link    1 at Sat May 24 06:23:39 2025, MaxMem=  3758096384 cpu:               0.0 elap:               0.0
 (Enter /apps/easybuild-2022/easybuild/software/Compiler/NVHPC/22.11-CUDA-11.7.0/Gaussian/g16c01-CUDA-11.7.0/g16/l101.exe)
 ------------------------------
 Gaussian input prepared by ASE
 ------------------------------
 Symbolic Z-matrix:
 Charge =  0 Multiplicity = 1
 C                    -0.78761   0.95058   0.92384 
 C                     0.        0.        0. 
 F                    -0.33359  -1.26209   0.31698 
 F                    -0.37158   0.23464  -1.26867 
 S                     1.90252   0.        0. 
 O                     2.06962  -0.54484   1.45055 
 O                     3.40648  -0.11295   0.94239 
 O                     1.93212   1.59602   0. 
 F                    -0.28444   0.91662   2.15098 
 F                    -0.75139   2.194     0.47317 
 F                    -2.05799   0.56346   0.97711 
 H                     1.38507   1.91096   0.73261 
 
 ITRead=  0  0  0  0  0  0  0  0  0  0  0  0
 MicOpt= -1 -1 -1 -1 -1 -1 -1 -1 -1 -1 -1 -1
 NAtoms=     12 NQM=       12 NQMF=       0 NMMI=      0 NMMIF=      0
                NMic=       0 NMicF=      0.
                    Isotopes and Nuclear Properties:
 (Nuclear quadrupole moments (NQMom) in fm**2, nuclear magnetic moments (NMagM)
  in nuclear magnetons)

  Atom         1           2           3           4           5           6           7           8           9          10
 IAtWgt=          12          12          19          19          32          16          16          16          19          19
 AtmWgt=  12.0000000  12.0000000  18.9984032  18.9984032  31.9720718  15.9949146  15.9949146  15.9949146  18.9984032  18.9984032
 NucSpn=           0           0           1           1           0           0           0           0           1           1
 AtZEff=  -0.0000000  -0.0000000  -0.0000000  -0.0000000  -0.0000000  -0.0000000  -0.0000000  -0.0000000  -0.0000000  -0.0000000
 NQMom=    0.0000000   0.0000000   0.0000000   0.0000000   0.0000000   0.0000000   0.0000000   0.0000000   0.0000000   0.0000000
 NMagM=    0.0000000   0.0000000   2.6288670   2.6288670   0.0000000   0.0000000   0.0000000   0.0000000   2.6288670   2.6288670
 AtZNuc=   6.0000000   6.0000000   9.0000000   9.0000000  16.0000000   8.0000000   8.0000000   8.0000000   9.0000000   9.0000000

  Atom        11          12
 IAtWgt=          19           1
 AtmWgt=  18.9984032   1.0078250
 NucSpn=           1           1
 AtZEff=  -0.0000000  -0.0000000
 NQMom=    0.0000000   0.0000000
 NMagM=    2.6288670   2.7928460
 AtZNuc=   9.0000000   1.0000000
 Leave Link  101 at Sat May 24 06:23:39 2025, MaxMem=  3758096384 cpu:               0.2 elap:               0.2
 (Enter /apps/easybuild-2022/easybuild/software/Compiler/NVHPC/22.11-CUDA-11.7.0/Gaussian/g16c01-CUDA-11.7.0/g16/l103.exe)

 GradGradGradGradGradGradGradGradGradGradGradGradGradGradGradGradGradGrad
 Berny optimization.
 Initialization pass.
                           ----------------------------
                           !    Initial Parameters    !
                           ! (Angstroms and Degrees)  !
 --------------------------                            --------------------------
 ! Name  Definition              Value          Derivative Info.                !
 --------------------------------------------------------------------------------
 ! R1    R(1,2)                  1.5419         calculate D2E/DX2 analytically  !
 ! R2    R(1,9)                  1.3267         calculate D2E/DX2 analytically  !
 ! R3    R(1,10)                 1.3231         calculate D2E/DX2 analytically  !
 ! R4    R(1,11)                 1.3291         calculate D2E/DX2 analytically  !
 ! R5    R(2,3)                  1.3434         calculate D2E/DX2 analytically  !
 ! R6    R(2,4)                  1.3426         calculate D2E/DX2 analytically  !
 ! R7    R(2,5)                  1.9025         calculate D2E/DX2 analytically  !
 ! R8    R(5,6)                  1.5585         calculate D2E/DX2 analytically  !
 ! R9    R(5,7)                  1.7784         calculate D2E/DX2 analytically  !
 ! R10   R(5,8)                  1.5963         calculate D2E/DX2 analytically  !
 ! R11   R(6,7)                  1.494          calculate D2E/DX2 analytically  !
 ! R12   R(8,12)                 0.967          calculate D2E/DX2 analytically  !
 ! A1    A(2,1,9)              110.162          calculate D2E/DX2 analytically  !
 ! A2    A(2,1,10)             111.1809         calculate D2E/DX2 analytically  !
 ! A3    A(2,1,11)             109.4316         calculate D2E/DX2 analytically  !
 ! A4    A(9,1,10)             109.1919         calculate D2E/DX2 analytically  !
 ! A5    A(9,1,11)             108.5401         calculate D2E/DX2 analytically  !
 ! A6    A(10,1,11)            108.2737         calculate D2E/DX2 analytically  !
 ! A7    A(1,2,3)              108.1184         calculate D2E/DX2 analytically  !
 ! A8    A(1,2,4)              108.4845         calculate D2E/DX2 analytically  !
 ! A9    A(1,2,5)              120.7178         calculate D2E/DX2 analytically  !
 ! A10   A(3,2,4)              108.5675         calculate D2E/DX2 analytically  !
 ! A11   A(3,2,5)              104.3784         calculate D2E/DX2 analytically  !
 ! A12   A(4,2,5)              106.0666         calculate D2E/DX2 analytically  !
 ! A13   A(2,5,6)               96.1554         calculate D2E/DX2 analytically  !
 ! A14   A(2,5,7)              147.7444         calculate D2E/DX2 analytically  !
 ! A15   A(2,5,8)               91.0626         calculate D2E/DX2 analytically  !
 ! A16   A(6,5,8)              110.3373         calculate D2E/DX2 analytically  !
 ! A17   A(7,5,8)               92.7407         calculate D2E/DX2 analytically  !
 ! A18   A(5,8,12)             108.3686         calculate D2E/DX2 analytically  !
 ! D1    D(9,1,2,3)             73.3717         calculate D2E/DX2 analytically  !
 ! D2    D(9,1,2,4)           -169.0706         calculate D2E/DX2 analytically  !
 ! D3    D(9,1,2,5)            -46.5185         calculate D2E/DX2 analytically  !
 ! D4    D(10,1,2,3)          -165.4408         calculate D2E/DX2 analytically  !
 ! D5    D(10,1,2,4)           -47.8831         calculate D2E/DX2 analytically  !
 ! D6    D(10,1,2,5)            74.6689         calculate D2E/DX2 analytically  !
 ! D7    D(11,1,2,3)           -45.8844         calculate D2E/DX2 analytically  !
 ! D8    D(11,1,2,4)            71.6733         calculate D2E/DX2 analytically  !
 ! D9    D(11,1,2,5)          -165.7746         calculate D2E/DX2 analytically  !
 ! D10   D(1,2,5,6)             66.4039         calculate D2E/DX2 analytically  !
 ! D11   D(1,2,5,7)             52.6516         calculate D2E/DX2 analytically  !
 ! D12   D(1,2,5,8)            -44.1827         calculate D2E/DX2 analytically  !
 ! D13   D(3,2,5,6)            -55.3151         calculate D2E/DX2 analytically  !
 ! D14   D(3,2,5,7)            -69.0673         calculate D2E/DX2 analytically  !
 ! D15   D(3,2,5,8)           -165.9016         calculate D2E/DX2 analytically  !
 ! D16   D(4,2,5,6)           -169.8917         calculate D2E/DX2 analytically  !
 ! D17   D(4,2,5,7)            176.3561         calculate D2E/DX2 analytically  !
 ! D18   D(4,2,5,8)             79.5217         calculate D2E/DX2 analytically  !
 ! D19   D(2,5,8,12)            52.9637         calculate D2E/DX2 analytically  !
 ! D20   D(6,5,8,12)           -44.0004         calculate D2E/DX2 analytically  !
 ! D21   D(7,5,8,12)           -94.9963         calculate D2E/DX2 analytically  !
 --------------------------------------------------------------------------------
 Trust Radius=3.00D-01 FncErr=1.00D-07 GrdErr=1.00D-06 EigMax=2.50D+02 EigMin=1.00D-04
 Number of steps in this run=     61 maximum allowed number of steps=    100.
 GradGradGradGradGradGradGradGradGradGradGradGradGradGradGradGradGradGrad

 Leave Link  103 at Sat May 24 06:23:39 2025, MaxMem=  3758096384 cpu:               0.0 elap:               0.0
 (Enter /apps/easybuild-2022/easybuild/software/Compiler/NVHPC/22.11-CUDA-11.7.0/Gaussian/g16c01-CUDA-11.7.0/g16/l202.exe)
                          Input orientation:                          
 ---------------------------------------------------------------------
 Center     Atomic      Atomic             Coordinates (Angstroms)
 Number     Number       Type             X           Y           Z
 ---------------------------------------------------------------------
      1          6           0       -0.787615    0.950584    0.923844
      2          6           0        0.000000    0.000000    0.000000
      3          9           0       -0.333590   -1.262092    0.316977
      4          9           0       -0.371579    0.234637   -1.268670
      5         16           0        1.902516    0.000000    0.000000
      6          8           0        2.069624   -0.544839    1.450552
      7          8           0        3.406480   -0.112946    0.942392
      8          8           0        1.932118    1.596015    0.000000
      9          9           0       -0.284442    0.916618    2.150984
     10          9           0       -0.751387    2.194002    0.473172
     11          9           0       -2.057989    0.563456    0.977115
     12          1           0        1.385072    1.910958    0.732614
 ---------------------------------------------------------------------
                    Distance matrix (angstroms):
                    1          2          3          4          5
     1  C    0.000000
     2  C    1.541893   0.000000
     3  F    2.338880   1.343367   0.000000
     4  F    2.343669   1.342628   2.180807   0.000000
     5  S    2.998983   1.902516   2.587184   2.614591   0.000000
     6  O    3.267648   2.585400   2.752251   3.736472   1.558485
     7  O    4.326878   3.536236   3.962298   4.391280   1.778417
     8  O    2.943980   2.506062   3.660969   2.961401   1.596290
     9  F    1.326729   2.355383   2.848294   3.488083   3.201516
    10  F    1.323067   2.366879   3.484758   2.649034   3.475735
    11  F    1.329119   2.346818   2.596529   2.827658   4.117990
    12  H    2.383161   2.471216   3.632465   3.146588   2.110979
                    6          7          8          9         10
     6  O    0.000000
     7  O    1.493969   0.000000
     8  O    2.589646   2.445894   0.000000
     9  F    2.857987   4.017911   3.162507   0.000000
    10  F    4.051497   4.778078   2.789745   2.159815   0.000000
    11  F    4.299960   5.506283   4.235787   2.155960   2.149383
    12  H    2.648582   2.868151   0.967043   2.405776   2.170686
                   11         12
    11  F    0.000000
    12  H    3.705430   0.000000
 Symmetry turned off by external request.
 Stoichiometry    C2HF5O3S
 Rotational constants (GHZ):           1.6358850           0.7815336           0.7553528
 Leave Link  202 at Sat May 24 06:23:39 2025, MaxMem=  3758096384 cpu:               0.0 elap:               0.0
 (Enter /apps/easybuild-2022/easybuild/software/Compiler/NVHPC/22.11-CUDA-11.7.0/Gaussian/g16c01-CUDA-11.7.0/g16/l301.exe)
 Standard basis: def2TZVPP (5D, 7F)
 Ernie: Thresh=  0.10000D-02 Tol=  0.10000D-05 Strict=F.
   366 basis functions,   596 primitive gaussians,   423 cartesian basis functions
    49 alpha electrons       49 beta electrons
       nuclear repulsion energy       915.2489055270 Hartrees.
 IExCor= 4336 DFT=T Ex+Corr=M062X ExCW=0 ScaHFX=  0.540000
 ScaDFX=  1.000000  1.000000  1.000000  1.000000 ScalE2=  1.000000  1.000000
 IRadAn=      5 IRanWt=     -1 IRanGd=            0 ICorTp=0 IEmpDi=  4
 NAtoms=   12 NActive=   12 NUniq=   12 SFac= 1.00D+00 NAtFMM=   60 NAOKFM=F Big=F
 Integral buffers will be    131072 words long.
 Raffenetti 2 integral format.
 Two-electron integral symmetry is turned off.
 Leave Link  301 at Sat May 24 06:23:39 2025, MaxMem=  3758096384 cpu:               0.0 elap:               0.0
 (Enter /apps/easybuild-2022/easybuild/software/Compiler/NVHPC/22.11-CUDA-11.7.0/Gaussian/g16c01-CUDA-11.7.0/g16/l302.exe)
 NPDir=0 NMtPBC=     1 NCelOv=     1 NCel=       1 NClECP=     1 NCelD=      1
         NCelK=      1 NCelE2=     1 NClLst=     1 CellRange=     0.0.
 One-electron integrals computed using PRISM.
   1 Symmetry operations used in ECPInt.
 ECPInt:  NShTT=    8515 NPrTT=   27988 LenC2=    8014 LenP2D=   19521.
 LDataN:  DoStor=T MaxTD1= 6 Len=  172
 NBasis=   366 RedAO= T EigKep=  4.32D-04  NBF=   366
 NBsUse=   366 1.00D-06 EigRej= -1.00D+00 NBFU=   366
 Precomputing XC quadrature grid using
 IXCGrd= 4 IRadAn=           5 IRanWt=          -1 IRanGd=           0 AccXCQ= 0.00D+00.
 Generated NRdTot=       0 NPtTot=           0 NUsed=           0 NTot=          32
 NSgBfM=   419   419   419   419   419 MxSgAt=    12 MxSgA2=    12.
 Leave Link  302 at Sat May 24 06:23:39 2025, MaxMem=  3758096384 cpu:               0.7 elap:               0.2
 (Enter /apps/easybuild-2022/easybuild/software/Compiler/NVHPC/22.11-CUDA-11.7.0/Gaussian/g16c01-CUDA-11.7.0/g16/l303.exe)
 DipDrv:  MaxL=1.
 Leave Link  303 at Sat May 24 06:23:39 2025, MaxMem=  3758096384 cpu:               0.1 elap:               0.0
 (Enter /apps/easybuild-2022/easybuild/software/Compiler/NVHPC/22.11-CUDA-11.7.0/Gaussian/g16c01-CUDA-11.7.0/g16/l401.exe)
 ExpMin= 9.52D-02 ExpMax= 6.07D+04 ExpMxC= 2.07D+03 IAcc=3 IRadAn=         5 AccDes= 0.00D+00
 Harris functional with IExCor= 1009 and IRadAn=       5 diagonalized for initial guess.
 HarFok:  IExCor= 1009 AccDes= 0.00D+00 IRadAn=         5 IDoV= 1 UseB2=F ITyADJ=14
 ICtDFT=  3500011 ScaDFX=  1.000000  1.000000  1.000000  1.000000
 FoFCou: FMM=F IPFlag=           0 FMFlag=      100000 FMFlg1=           0
         NFxFlg=           0 DoJE=T BraDBF=F KetDBF=T FulRan=T
         wScrn=  0.000000 ICntrl=       500 IOpCl=  0 I1Cent=   200000004 NGrid=           0
         NMat0=    1 NMatS0=      1 NMatT0=    0 NMatD0=    1 NMtDS0=    0 NMtDT0=    0
 Symmetry not used in FoFCou.
 Harris En= -1199.13861788625    
 JPrj=0 DoOrth=F DoCkMO=F.
 Leave Link  401 at Sat May 24 06:23:40 2025, MaxMem=  3758096384 cpu:               4.5 elap:               0.6
 (Enter /apps/easybuild-2022/easybuild/software/Compiler/NVHPC/22.11-CUDA-11.7.0/Gaussian/g16c01-CUDA-11.7.0/g16/l502.exe)
 Keep R1 ints in memory in canonical form, NReq=2293446996.
 FoFCou: FMM=F IPFlag=           0 FMFlag=           0 FMFlg1=           0
         NFxFlg=           0 DoJE=F BraDBF=F KetDBF=F FulRan=T
         wScrn=  0.000000 ICntrl=       600 IOpCl=  0 I1Cent=           0 NGrid=           0
         NMat0=    1 NMatS0=  67161 NMatT0=    0 NMatD0=    1 NMtDS0=    0 NMtDT0=    0
 Symmetry not used in FoFCou.
 Two-electron integral symmetry not used.
 Closed shell SCF:
 Using DIIS extrapolation, IDIIS=  1040.
 NGot=  3758096384 LenX=  1502398672 LenY=  1502219302
 Requested convergence on RMS density matrix=1.00D-08 within  32 cycles.
 Requested convergence on MAX density matrix=1.00D-06.
 Requested convergence on             energy=1.00D-06.
 No special actions if energy rises.
 Integral accuracy reduced to 1.0D-05 until final iterations.

 Cycle   1  Pass 0  IDiag  1:
 E= -1199.55559541238    
 DIIS: error= 1.75D-02 at cycle   1 NSaved=   1.
 NSaved= 1 IEnMin= 1 EnMin= -1199.55559541238     IErMin= 1 ErrMin= 1.75D-02
 ErrMax= 1.75D-02  0.00D+00 EMaxC= 1.00D-01 BMatC= 4.42D-01 BMatP= 4.42D-01
 IDIUse=3 WtCom= 8.25D-01 WtEn= 1.75D-01
 Coeff-Com:  0.100D+01
 Coeff-En:   0.100D+01
 Coeff:      0.100D+01
 Gap=     0.492 Goal=   None    Shift=    0.000
 GapD=    0.492 DampG=2.000 DampE=0.500 DampFc=1.0000 IDamp=-1.
 RMSDP=2.18D-03 MaxDP=1.82D-01              OVMax= 2.10D-01

 Cycle   2  Pass 0  IDiag  1:
 E= -1199.41348706707     Delta-E=        0.142108345311 Rises=F Damp=F
 DIIS: error= 1.90D-02 at cycle   2 NSaved=   2.
 NSaved= 2 IEnMin= 1 EnMin= -1199.55559541238     IErMin= 1 ErrMin= 1.75D-02
 ErrMax= 1.90D-02  0.00D+00 EMaxC= 1.00D-01 BMatC= 5.42D-01 BMatP= 4.42D-01
 IDIUse=2 WtCom= 0.00D+00 WtEn= 1.00D+00
 Coeff-En:   0.620D+00 0.380D+00
 Coeff:      0.620D+00 0.380D+00
 Gap=     0.383 Goal=   None    Shift=    0.000
 RMSDP=1.11D-03 MaxDP=8.91D-02 DE= 1.42D-01 OVMax= 1.14D-01

 Cycle   3  Pass 0  IDiag  1:
 E= -1199.76349206536     Delta-E=       -0.350004998290 Rises=F Damp=F
 DIIS: error= 3.04D-03 at cycle   3 NSaved=   3.
 NSaved= 3 IEnMin= 3 EnMin= -1199.76349206536     IErMin= 3 ErrMin= 3.04D-03
 ErrMax= 3.04D-03  0.00D+00 EMaxC= 1.00D-01 BMatC= 8.80D-03 BMatP= 4.42D-01
 IDIUse=3 WtCom= 9.70D-01 WtEn= 3.04D-02
 Coeff-Com:  0.106D+00 0.402D-01 0.854D+00
 Coeff-En:   0.000D+00 0.000D+00 0.100D+01
 Coeff:      0.102D+00 0.389D-01 0.859D+00
 Gap=     0.347 Goal=   None    Shift=    0.000
 RMSDP=2.58D-04 MaxDP=1.82D-02 DE=-3.50D-01 OVMax= 3.66D-02

 Cycle   4  Pass 0  IDiag  1:
 E= -1199.76208582084     Delta-E=        0.001406244518 Rises=F Damp=F
 DIIS: error= 4.18D-03 at cycle   4 NSaved=   4.
 NSaved= 4 IEnMin= 3 EnMin= -1199.76349206536     IErMin= 3 ErrMin= 3.04D-03
 ErrMax= 4.18D-03  0.00D+00 EMaxC= 1.00D-01 BMatC= 1.01D-02 BMatP= 8.80D-03
 IDIUse=3 WtCom= 1.34D-01 WtEn= 8.66D-01
 Coeff-Com:  0.829D-02-0.285D-01 0.556D+00 0.465D+00
 Coeff-En:   0.000D+00 0.000D+00 0.554D+00 0.446D+00
 Coeff:      0.111D-02-0.382D-02 0.554D+00 0.449D+00
 Gap=     0.355 Goal=   None    Shift=    0.000
 RMSDP=1.54D-04 MaxDP=1.01D-02 DE= 1.41D-03 OVMax= 2.36D-02

 Cycle   5  Pass 0  IDiag  1:
 E= -1199.76825915784     Delta-E=       -0.006173336995 Rises=F Damp=F
 DIIS: error= 1.05D-03 at cycle   5 NSaved=   5.
 NSaved= 5 IEnMin= 5 EnMin= -1199.76825915784     IErMin= 5 ErrMin= 1.05D-03
 ErrMax= 1.05D-03  0.00D+00 EMaxC= 1.00D-01 BMatC= 9.51D-04 BMatP= 8.80D-03
 IDIUse=3 WtCom= 9.89D-01 WtEn= 1.05D-02
 Coeff-Com: -0.387D-02 0.774D-02 0.177D+00 0.206D+00 0.613D+00
 Coeff-En:   0.000D+00 0.000D+00 0.000D+00 0.000D+00 0.100D+01
 Coeff:     -0.383D-02 0.766D-02 0.175D+00 0.204D+00 0.617D+00
 Gap=     0.351 Goal=   None    Shift=    0.000
 RMSDP=4.36D-05 MaxDP=3.47D-03 DE=-6.17D-03 OVMax= 4.89D-03

 Cycle   6  Pass 0  IDiag  1:
 E= -1199.76885260037     Delta-E=       -0.000593442536 Rises=F Damp=F
 DIIS: error= 1.07D-04 at cycle   6 NSaved=   6.
 NSaved= 6 IEnMin= 6 EnMin= -1199.76885260037     IErMin= 6 ErrMin= 1.07D-04
 ErrMax= 1.07D-04  0.00D+00 EMaxC= 1.00D-01 BMatC= 1.54D-05 BMatP= 9.51D-04
 IDIUse=3 WtCom= 9.99D-01 WtEn= 1.07D-03
 Coeff-Com: -0.241D-02 0.458D-02 0.245D-01 0.408D-01 0.239D+00 0.694D+00
 Coeff-En:   0.000D+00 0.000D+00 0.000D+00 0.000D+00 0.000D+00 0.100D+01
 Coeff:     -0.240D-02 0.458D-02 0.245D-01 0.408D-01 0.239D+00 0.694D+00
 Gap=     0.351 Goal=   None    Shift=    0.000
 RMSDP=8.88D-06 MaxDP=4.19D-04 DE=-5.93D-04 OVMax= 9.44D-04

 Initial convergence to 1.0D-05 achieved.  Increase integral accuracy.
 Cycle   7  Pass 1  IDiag  1:
 E= -1199.76882739228     Delta-E=        0.000025208092 Rises=F Damp=F
 DIIS: error= 4.35D-05 at cycle   1 NSaved=   1.
 NSaved= 1 IEnMin= 1 EnMin= -1199.76882739228     IErMin= 1 ErrMin= 4.35D-05
 ErrMax= 4.35D-05  0.00D+00 EMaxC= 1.00D-01 BMatC= 2.14D-06 BMatP= 2.14D-06
 IDIUse=1 WtCom= 1.00D+00 WtEn= 0.00D+00
 Coeff-Com:  0.100D+01
 Coeff:      0.100D+01
 Gap=     0.352 Goal=   None    Shift=    0.000
 RMSDP=8.88D-06 MaxDP=4.19D-04 DE= 2.52D-05 OVMax= 4.93D-04

 Cycle   8  Pass 1  IDiag  1:
 E= -1199.76882804519     Delta-E=       -0.000000652910 Rises=F Damp=F
 DIIS: error= 3.64D-05 at cycle   2 NSaved=   2.
 NSaved= 2 IEnMin= 2 EnMin= -1199.76882804519     IErMin= 2 ErrMin= 3.64D-05
 ErrMax= 3.64D-05  0.00D+00 EMaxC= 1.00D-01 BMatC= 2.01D-06 BMatP= 2.14D-06
 IDIUse=1 WtCom= 1.00D+00 WtEn= 0.00D+00
 Coeff-Com:  0.491D+00 0.509D+00
 Coeff:      0.491D+00 0.509D+00
 Gap=     0.352 Goal=   None    Shift=    0.000
 RMSDP=2.66D-06 MaxDP=1.21D-04 DE=-6.53D-07 OVMax= 3.25D-04

 Cycle   9  Pass 1  IDiag  1:
 E= -1199.76882938177     Delta-E=       -0.000001336582 Rises=F Damp=F
 DIIS: error= 9.99D-06 at cycle   3 NSaved=   3.
 NSaved= 3 IEnMin= 3 EnMin= -1199.76882938177     IErMin= 3 ErrMin= 9.99D-06
 ErrMax= 9.99D-06  0.00D+00 EMaxC= 1.00D-01 BMatC= 9.55D-08 BMatP= 2.01D-06
 IDIUse=1 WtCom= 1.00D+00 WtEn= 0.00D+00
 Coeff-Com: -0.359D-01 0.143D+00 0.893D+00
 Coeff:     -0.359D-01 0.143D+00 0.893D+00
 Gap=     0.352 Goal=   None    Shift=    0.000
 RMSDP=9.45D-07 MaxDP=6.00D-05 DE=-1.34D-06 OVMax= 9.91D-05

 Cycle  10  Pass 1  IDiag  1:
 E= -1199.76882946556     Delta-E=       -0.000000083790 Rises=F Damp=F
 DIIS: error= 3.66D-06 at cycle   4 NSaved=   4.
 NSaved= 4 IEnMin= 4 EnMin= -1199.76882946556     IErMin= 4 ErrMin= 3.66D-06
 ErrMax= 3.66D-06  0.00D+00 EMaxC= 1.00D-01 BMatC= 2.32D-08 BMatP= 9.55D-08
 IDIUse=1 WtCom= 1.00D+00 WtEn= 0.00D+00
 Coeff-Com: -0.462D-01 0.459D-01 0.472D+00 0.528D+00
 Coeff:     -0.462D-01 0.459D-01 0.472D+00 0.528D+00
 Gap=     0.352 Goal=   None    Shift=    0.000
 RMSDP=3.05D-07 MaxDP=1.46D-05 DE=-8.38D-08 OVMax= 3.86D-05

 Cycle  11  Pass 1  IDiag  1:
 E= -1199.76882948102     Delta-E=       -0.000000015457 Rises=F Damp=F
 DIIS: error= 3.54D-06 at cycle   5 NSaved=   5.
 NSaved= 5 IEnMin= 5 EnMin= -1199.76882948102     IErMin= 5 ErrMin= 3.54D-06
 ErrMax= 3.54D-06  0.00D+00 EMaxC= 1.00D-01 BMatC= 3.25D-09 BMatP= 2.32D-08
 IDIUse=1 WtCom= 1.00D+00 WtEn= 0.00D+00
 Coeff-Com: -0.134D-01-0.970D-02 0.350D-01 0.260D+00 0.728D+00
 Coeff:     -0.134D-01-0.970D-02 0.350D-01 0.260D+00 0.728D+00
 Gap=     0.352 Goal=   None    Shift=    0.000
 RMSDP=1.39D-07 MaxDP=1.06D-05 DE=-1.55D-08 OVMax= 2.63D-05

 Cycle  12  Pass 1  IDiag  1:
 E= -1199.76882948406     Delta-E=       -0.000000003041 Rises=F Damp=F
 DIIS: error= 7.49D-07 at cycle   6 NSaved=   6.
 NSaved= 6 IEnMin= 6 EnMin= -1199.76882948406     IErMin= 6 ErrMin= 7.49D-07
 ErrMax= 7.49D-07  0.00D+00 EMaxC= 1.00D-01 BMatC= 8.90D-10 BMatP= 3.25D-09
 IDIUse=1 WtCom= 1.00D+00 WtEn= 0.00D+00
 Coeff-Com:  0.225D-02-0.169D-01-0.861D-01 0.258D-01 0.419D+00 0.657D+00
 Coeff:      0.225D-02-0.169D-01-0.861D-01 0.258D-01 0.419D+00 0.657D+00
 Gap=     0.352 Goal=   None    Shift=    0.000
 RMSDP=7.70D-08 MaxDP=3.02D-06 DE=-3.04D-09 OVMax= 1.08D-05

 Cycle  13  Pass 1  IDiag  1:
 E= -1199.76882948489     Delta-E=       -0.000000000832 Rises=F Damp=F
 DIIS: error= 2.38D-07 at cycle   7 NSaved=   7.
 NSaved= 7 IEnMin= 7 EnMin= -1199.76882948489     IErMin= 7 ErrMin= 2.38D-07
 ErrMax= 2.38D-07  0.00D+00 EMaxC= 1.00D-01 BMatC= 4.71D-11 BMatP= 8.90D-10
 IDIUse=1 WtCom= 1.00D+00 WtEn= 0.00D+00
 Coeff-Com:  0.230D-02-0.527D-02-0.355D-01-0.227D-01 0.678D-01 0.241D+00
 Coeff-Com:  0.752D+00
 Coeff:      0.230D-02-0.527D-02-0.355D-01-0.227D-01 0.678D-01 0.241D+00
 Coeff:      0.752D+00
 Gap=     0.352 Goal=   None    Shift=    0.000
 RMSDP=2.19D-08 MaxDP=7.37D-07 DE=-8.32D-10 OVMax= 2.26D-06

 Cycle  14  Pass 1  IDiag  1:
 E= -1199.76882948498     Delta-E=       -0.000000000093 Rises=F Damp=F
 DIIS: error= 4.07D-08 at cycle   8 NSaved=   8.
 NSaved= 8 IEnMin= 8 EnMin= -1199.76882948498     IErMin= 8 ErrMin= 4.07D-08
 ErrMax= 4.07D-08  0.00D+00 EMaxC= 1.00D-01 BMatC= 2.52D-12 BMatP= 4.71D-11
 IDIUse=1 WtCom= 1.00D+00 WtEn= 0.00D+00
 Coeff-Com:  0.212D-03 0.313D-03 0.460D-03-0.505D-02-0.220D-01-0.103D-01
 Coeff-Com:  0.135D+00 0.901D+00
 Coeff:      0.212D-03 0.313D-03 0.460D-03-0.505D-02-0.220D-01-0.103D-01
 Coeff:      0.135D+00 0.901D+00
 Gap=     0.352 Goal=   None    Shift=    0.000
 RMSDP=8.65D-09 MaxDP=7.30D-07 DE=-9.28D-11 OVMax= 1.34D-06

 SCF Done:  E(RM062X) =  -1199.76882948     A.U. after   14 cycles
            NFock= 14  Conv=0.86D-08     -V/T= 2.0028
 KE= 1.196403814306D+03 PE=-4.676979695307D+03 EE= 1.365558145989D+03
 Leave Link  502 at Sat May 24 06:24:18 2025, MaxMem=  3758096384 cpu:             158.2 elap:              38.7
 (Enter /apps/easybuild-2022/easybuild/software/Compiler/NVHPC/22.11-CUDA-11.7.0/Gaussian/g16c01-CUDA-11.7.0/g16/l508.exe)
 QCSCF skips out because SCF is already converged.
 Leave Link  508 at Sat May 24 06:24:18 2025, MaxMem=  3758096384 cpu:               0.0 elap:               0.0
 (Enter /apps/easybuild-2022/easybuild/software/Compiler/NVHPC/22.11-CUDA-11.7.0/Gaussian/g16c01-CUDA-11.7.0/g16/l801.exe)
 DoSCS=F DFT=T ScalE2(SS,OS)=  1.000000  1.000000
 Range of M.O.s used for correlation:     1   366
 NBasis=   366 NAE=    49 NBE=    49 NFC=     0 NFV=     0
 NROrb=    366 NOA=    49 NOB=    49 NVA=   317 NVB=   317

 **** Warning!!: The largest alpha MO coefficient is  0.15339168D+02

 Leave Link  801 at Sat May 24 06:24:19 2025, MaxMem=  3758096384 cpu:               0.0 elap:               0.0
 (Enter /apps/easybuild-2022/easybuild/software/Compiler/NVHPC/22.11-CUDA-11.7.0/Gaussian/g16c01-CUDA-11.7.0/g16/l1101.exe)
 Using compressed storage, NAtomX=    12.
 Will process     13 centers per pass.
   1 Symmetry operations used in ECPInt.
 ECPInt:  NShTT=    8515 NPrTT=   27988 LenC2=    8014 LenP2D=   19521.
 LDataN:  DoStor=T MaxTD1= 7 Len=  274
 Leave Link 1101 at Sat May 24 06:24:19 2025, MaxMem=  3758096384 cpu:               1.0 elap:               0.2
 (Enter /apps/easybuild-2022/easybuild/software/Compiler/NVHPC/22.11-CUDA-11.7.0/Gaussian/g16c01-CUDA-11.7.0/g16/l1102.exe)
 Symmetrizing basis deriv contribution to polar:
 IMax=3 JMax=2 DiffMx= 0.00D+00
 Leave Link 1102 at Sat May 24 06:24:19 2025, MaxMem=  3758096384 cpu:               0.1 elap:               0.0
 (Enter /apps/easybuild-2022/easybuild/software/Compiler/NVHPC/22.11-CUDA-11.7.0/Gaussian/g16c01-CUDA-11.7.0/g16/l1110.exe)
 Forming Gx(P) for the SCF density, NAtomX=    12.
 Integral derivatives from FoFJK, PRISM(SPDF).
 Do as many integral derivatives as possible in FoFJK.
 G2DrvN: MDV=    3758095012.
 G2DrvN: will do    13 centers at a time, making    1 passes.
 Calling FoFCou, ICntrl=  3107 FMM=F I1Cent=   0 AccDes= 0.00D+00.
 FoFJK:  IHMeth= 1 ICntrl=    3107 DoSepK=F KAlg= 0 I1Cent=           0 FoldK=F
 IRaf=         0 NMat=       1 IRICut=       1 DoRegI=T DoRafI=F ISym2E= 0 IDoP0=0 IntGTp=1.
 FoFCou: FMM=F IPFlag=           0 FMFlag=      100000 FMFlg1=           0
         NFxFlg=           0 DoJE=F BraDBF=F KetDBF=F FulRan=T
         wScrn=  0.000000 ICntrl=      3107 IOpCl=  0 I1Cent=           0 NGrid=           0
         NMat0=    1 NMatS0=      1 NMatT0=    0 NMatD0=    1 NMtDS0=    0 NMtDT0=    0
 Symmetry not used in FoFCou.
 End of G2Drv F.D. properties file   721 does not exist.
 End of G2Drv F.D. properties file   722 does not exist.
 End of G2Drv F.D. properties file   788 does not exist.
 Leave Link 1110 at Sat May 24 06:25:17 2025, MaxMem=  3758096384 cpu:             462.4 elap:              58.3
 (Enter /apps/easybuild-2022/easybuild/software/Compiler/NVHPC/22.11-CUDA-11.7.0/Gaussian/g16c01-CUDA-11.7.0/g16/l1002.exe)
 Minotr:  Closed shell wavefunction.
          IDoAtm=111111111111
          Direct CPHF calculation.
          Differentiating once with respect to nuclear coordinates.
          Requested convergence is 1.0D-08 RMS, and 1.0D-07 maximum.
          Secondary convergence is 1.0D-12 RMS, and 1.0D-12 maximum.
          NewPWx=T KeepS1=F KeepF1=F KeepIn=T MapXYZ=F SortEE=F KeepMc=T.
         3598 words used for storage of precomputed grid.
 Keep R1 ints in memory in canonical form, NReq=2293452904.
 FoFCou: FMM=F IPFlag=           0 FMFlag=           0 FMFlg1=           0
         NFxFlg=           0 DoJE=F BraDBF=F KetDBF=F FulRan=T
         wScrn=  0.000000 ICntrl=       600 IOpCl=  0 I1Cent=           0 NGrid=           0
         NMat0=    1 NMatS0=  67161 NMatT0=    0 NMatD0=    1 NMtDS0=    0 NMtDT0=    0
 Symmetry not used in FoFCou.
 Two-electron integral symmetry not used.
          MDV=    3758096384 using IRadAn=       1.
          Solving linear equations simultaneously, MaxMat=       0.
          There are    39 degrees of freedom in the 1st order CPHF.  IDoFFX=6 NUNeed=     0.
     33 vectors produced by pass  0 Test12= 3.98D-14 2.56D-09 XBig12= 1.13D-01 8.04D-02.
 AX will form    33 AO Fock derivatives at one time.
     33 vectors produced by pass  1 Test12= 3.98D-14 2.56D-09 XBig12= 1.64D-02 2.19D-02.
     33 vectors produced by pass  2 Test12= 3.98D-14 2.56D-09 XBig12= 1.11D-03 5.12D-03.
     33 vectors produced by pass  3 Test12= 3.98D-14 2.56D-09 XBig12= 2.60D-05 7.54D-04.
     33 vectors produced by pass  4 Test12= 3.98D-14 2.56D-09 XBig12= 3.96D-07 8.22D-05.
     33 vectors produced by pass  5 Test12= 3.98D-14 2.56D-09 XBig12= 4.36D-09 7.45D-06.
     33 vectors produced by pass  6 Test12= 3.98D-14 2.56D-09 XBig12= 3.31D-11 6.81D-07.
     23 vectors produced by pass  7 Test12= 3.98D-14 2.56D-09 XBig12= 1.85D-13 4.19D-08.
      4 vectors produced by pass  8 Test12= 3.98D-14 2.56D-09 XBig12= 1.18D-15 3.42D-09.
 InvSVY:  IOpt=1 It=  1 EMax= 1.33D-15
 Solved reduced A of dimension   258 with    33 vectors.
 End of Minotr F.D. properties file   721 does not exist.
 End of Minotr F.D. properties file   722 does not exist.
 End of Minotr F.D. properties file   788 does not exist.
 Leave Link 1002 at Sat May 24 06:26:43 2025, MaxMem=  3758096384 cpu:             671.5 elap:              85.4
 (Enter /apps/easybuild-2022/easybuild/software/Compiler/NVHPC/22.11-CUDA-11.7.0/Gaussian/g16c01-CUDA-11.7.0/g16/l701.exe)
 ... and contract with generalized density number  0.
 Compute integral second derivatives.
   1 Symmetry operations used in ECPInt.
 ECPInt:  NShTT=    8515 NPrTT=   27988 LenC2=    8014 LenP2D=   19521.
 LDataN:  DoStor=T MaxTD1= 8 Len=  415
 Leave Link  701 at Sat May 24 06:26:43 2025, MaxMem=  3758096384 cpu:               0.8 elap:               0.1
 (Enter /apps/easybuild-2022/easybuild/software/Compiler/NVHPC/22.11-CUDA-11.7.0/Gaussian/g16c01-CUDA-11.7.0/g16/l702.exe)
 L702 exits ... SP integral derivatives will be done elsewhere.
 Leave Link  702 at Sat May 24 06:26:43 2025, MaxMem=  3758096384 cpu:               0.0 elap:               0.0
 (Enter /apps/easybuild-2022/easybuild/software/Compiler/NVHPC/22.11-CUDA-11.7.0/Gaussian/g16c01-CUDA-11.7.0/g16/l703.exe)
 Integral derivatives from FoFJK, PRISM(SPDF).
 Compute integral second derivatives, UseDBF=F ICtDFT=           0.
 Calling FoFJK, ICntrl=    100127 FMM=F ISym2X=0 I1Cent= 0 IOpClX= 0 NMat=1 NMatS=1 NMatT=0.
 FoFJK:  IHMeth= 1 ICntrl=  100127 DoSepK=F KAlg= 0 I1Cent=           0 FoldK=F
 IRaf=         0 NMat=       1 IRICut=       1 DoRegI=T DoRafI=F ISym2E= 0 IDoP0=0 IntGTp=1.
 FoFCou: FMM=F IPFlag=           0 FMFlag=      100000 FMFlg1=         800
         NFxFlg=           0 DoJE=F BraDBF=F KetDBF=F FulRan=T
         wScrn=  0.000000 ICntrl=    100127 IOpCl=  0 I1Cent=           0 NGrid=           0
         NMat0=    1 NMatS0=      1 NMatT0=    0 NMatD0=    1 NMtDS0=    0 NMtDT0=    0
 Symmetry not used in FoFCou.
 Leave Link  703 at Sat May 24 06:28:50 2025, MaxMem=  3758096384 cpu:            1009.3 elap:             127.2
 (Enter /apps/easybuild-2022/easybuild/software/Compiler/NVHPC/22.11-CUDA-11.7.0/Gaussian/g16c01-CUDA-11.7.0/g16/l716.exe)
 Dipole        =-4.59960115D-01 4.64116988D-01-2.12867981D-01
 Polarizability= 0.00000000D+00 0.00000000D+00 0.00000000D+00
                 0.00000000D+00 0.00000000D+00 0.00000000D+00
 -------------------------------------------------------------------
 Center     Atomic                   Forces (Hartrees/Bohr)
 Number     Number              X              Y              Z
 -------------------------------------------------------------------
      1        6          -0.013028949   -0.014835132   -0.003536492
      2        6           0.000956623   -0.007545829   -0.000446099
      3        9          -0.003717189   -0.000076492    0.000929732
      4        9          -0.000406853    0.001268827    0.001032433
      5       16           0.009995901    0.007918427    0.004711459
      6        8          -0.003070253   -0.002587791   -0.000561972
      7        8          -0.002947092   -0.001452612   -0.003787993
      8        8          -0.000095236   -0.002485573   -0.000975838
      9        9           0.002661435    0.002863299    0.001775544
     10        9           0.002683316    0.005972021    0.000218936
     11        9           0.002325832    0.002454393    0.000759014
     12        1           0.004642465    0.008506462   -0.000118723
 -------------------------------------------------------------------
 Cartesian Forces:  Max     0.014835132 RMS     0.004940613
 Force constants in Cartesian coordinates: 
                1             2             3             4             5 
      1  0.586301D+00
      2 -0.125303D-01  0.611651D+00
      3 -0.992513D-02  0.579973D-02  0.598754D+00
      4 -0.101375D+00  0.261280D-01  0.251155D-01  0.447537D+00
      5  0.628092D-01 -0.957818D-01 -0.547086D-01  0.116019D-01  0.535679D+00
      6  0.612893D-01 -0.552368D-01 -0.940846D-01  0.962581D-02  0.115493D-01
      7  0.557133D-04  0.105915D-01  0.112510D-02 -0.936350D-01 -0.793637D-01
      8 -0.199277D-01 -0.471296D-01  0.175785D-01 -0.697143D-01 -0.288487D+00
      9 -0.682246D-02 -0.982327D-02  0.591457D-02  0.154447D-01  0.342424D-01
     10  0.319092D-02  0.103493D-02  0.961831D-02 -0.968734D-01  0.889873D-02
     11 -0.904277D-02  0.331119D-02 -0.123894D-01  0.106644D-01 -0.684816D-01
     12 -0.237811D-01  0.125059D-01 -0.466015D-01 -0.753334D-01  0.114172D-01
     13 -0.148097D-01  0.144748D-01  0.176743D-01 -0.127309D+00  0.148807D-01
     14  0.172074D-01  0.214918D-01  0.348115D-02  0.163155D-01 -0.326638D-01
     15  0.163841D-01  0.833360D-02  0.219278D-01  0.859519D-02 -0.260903D-01
     16  0.280458D-02 -0.597236D-03  0.572804D-03  0.112172D-01  0.402712D-03
     17 -0.581658D-03  0.294523D-03  0.113532D-02 -0.156740D-03 -0.281332D-02
     18 -0.148795D-02  0.109452D-02 -0.523022D-02  0.105013D-01 -0.408961D-03
     19 -0.594154D-03 -0.684700D-02 -0.802106D-02 -0.734249D-02  0.183412D-01
     20 -0.208110D-02 -0.345096D-02 -0.160731D-02 -0.533770D-02  0.442878D-02
     21 -0.208985D-02 -0.579624D-02 -0.949607D-02 -0.331163D-02  0.145153D-01
     22  0.509291D-02  0.592458D-02 -0.358607D-02  0.698529D-02 -0.329880D-01
     23 -0.246355D-02 -0.149067D-01 -0.150575D-02  0.890970D-02 -0.249310D-01
     24 -0.308335D-02 -0.272333D-02 -0.364872D-02  0.274747D-02  0.220845D-02
     25 -0.970027D-01 -0.114509D-02 -0.638372D-01  0.820072D-02 -0.620232D-03
     26  0.246011D-02 -0.802112D-01 -0.114321D-01 -0.695839D-02  0.775563D-02
     27 -0.601999D-01 -0.189903D-01 -0.300840D+00 -0.201782D-01  0.928523D-02
     28 -0.783245D-01  0.166144D-01  0.124398D-02  0.878168D-02  0.119685D-01
     29  0.161794D-01 -0.313123D+00  0.524767D-01 -0.216390D-02 -0.365511D-01
     30  0.138666D-03  0.640308D-01 -0.950930D-01  0.268953D-03 -0.707633D-02
     31 -0.295401D+00 -0.408505D-01  0.281675D-01 -0.581885D-01 -0.115846D-01
     32 -0.453431D-01 -0.877192D-01  0.302371D-02  0.139026D-01  0.181057D-02
     33  0.273436D-01  0.185979D-02 -0.807637D-01  0.296706D-01  0.315483D-02
     34 -0.993835D-02 -0.127981D-01  0.185187D-02  0.200211D-02 -0.434646D-02
     35 -0.668588D-02  0.557448D-02 -0.185178D-02 -0.319102D-02  0.356458D-04
     36  0.223400D-02 -0.105441D-02  0.916117D-02 -0.314632D-02  0.191157D-02
                6             7             8             9            10 
      6  0.535722D+00
      7  0.128944D-01  0.844202D-01
      8  0.247139D-01  0.843596D-01  0.381631D+00
      9 -0.716211D-01 -0.192144D-01 -0.792977D-01  0.885270D-01
     10 -0.821618D-01  0.145025D-01  0.385409D-02  0.791577D-02  0.810092D-01
     11  0.212020D-01  0.105020D-01 -0.233337D-01  0.564178D-01 -0.166555D-01
     12 -0.291254D+00  0.134052D-02  0.429647D-01 -0.291258D-01  0.926321D-01
     13  0.200100D-01  0.654530D-02  0.629932D-02 -0.264482D-02  0.615768D-02
     14 -0.185763D-01 -0.303071D-01 -0.227850D-01  0.573366D-02  0.413414D-02
     15 -0.595842D-01  0.732252D-02  0.125192D-01  0.131747D-02 -0.347139D-01
     16 -0.246809D-01 -0.422344D-02 -0.175393D-02  0.414961D-03 -0.939031D-02
     17  0.400053D-02  0.188411D-02  0.448738D-02 -0.136226D-02  0.207148D-02
     18 -0.781981D-02 -0.565550D-02 -0.594010D-02  0.200506D-02 -0.262493D-02
     19  0.880556D-02  0.120038D-02 -0.336175D-02  0.676008D-03 -0.202631D-02
     20  0.487390D-02  0.677566D-03  0.117627D-02 -0.891057D-03  0.609164D-03
     21  0.165954D-01 -0.105668D-02 -0.439894D-02  0.127617D-03  0.266481D-02
     22 -0.221535D-02 -0.137437D-01 -0.933691D-02  0.184914D-02 -0.124870D-02
     23  0.284317D-02 -0.105076D-01 -0.381200D-02  0.158685D-02 -0.590734D-02
     24  0.266453D-02  0.711909D-03  0.159302D-02  0.631242D-03  0.141305D-02
     25  0.493546D-02  0.688395D-03  0.133334D-02  0.435374D-03  0.895523D-03
     26 -0.162628D-01  0.241808D-03  0.201718D-02  0.135656D-03  0.167937D-02
     27 -0.375969D-01  0.109781D-02 -0.631722D-02  0.212227D-02  0.509703D-02
     28 -0.888157D-02 -0.626379D-03  0.576240D-02  0.215100D-02  0.564982D-03
     29  0.239951D-01  0.529257D-02 -0.988942D-02 -0.520053D-02 -0.880364D-03
     30  0.466883D-02  0.458126D-03 -0.461427D-02 -0.278898D-03  0.106954D-02
     31  0.366387D-02  0.587308D-02  0.996236D-03 -0.758378D-03  0.503790D-02
     32 -0.229878D-02  0.448381D-02  0.435275D-02 -0.143350D-02 -0.123384D-03
     33  0.124716D-02 -0.123196D-02 -0.597141D-03  0.749963D-03 -0.966420D-03
     34 -0.328472D-02 -0.105713D-02  0.148957D-02  0.553017D-03 -0.181992D-02
     35 -0.803150D-03  0.214535D-02  0.177249D-02 -0.108039D-03  0.128464D-02
     36  0.106259D-02  0.220810D-02  0.179612D-02 -0.369424D-03  0.564962D-04
               11            12            13            14            15 
     11  0.837813D-01
     12 -0.592917D-01  0.386485D+00
     13  0.247244D-03  0.481882D-02  0.269693D+00
     14 -0.470022D-03  0.655585D-02 -0.420455D-01  0.450567D+00
     15  0.422458D-02 -0.202574D-01  0.623591D-01 -0.470069D-01  0.550231D+00
     16  0.138399D-02 -0.393113D-02 -0.463549D-01  0.156393D-01 -0.230643D-01
     17  0.256922D-03  0.257385D-02  0.356562D-01 -0.698215D-01  0.844886D-01
     18  0.809379D-03  0.143168D-02 -0.661586D-01  0.112028D+00 -0.345666D+00
     19 -0.635249D-03 -0.489920D-02 -0.401618D-01  0.506776D-02 -0.509684D-01
     20  0.240569D-03 -0.853996D-03 -0.121051D-01 -0.296326D-01 -0.490336D-03
     21 -0.585833D-03 -0.144021D-04 -0.310202D-01 -0.356097D-03 -0.707902D-01
     22  0.902488D-03 -0.850481D-03 -0.657994D-01  0.191910D-01  0.139770D-01
     23  0.338506D-02 -0.595505D-02 -0.291369D-01 -0.259423D+00  0.115935D-02
     24 -0.106924D-02  0.293746D-02  0.560992D-02 -0.573459D-01 -0.685980D-01
     25  0.139112D-02  0.390048D-02 -0.229537D-03 -0.235639D-02 -0.466121D-02
     26 -0.212953D-02 -0.677885D-02 -0.222174D-02 -0.322771D-02  0.486506D-03
     27 -0.636384D-02 -0.102301D-01 -0.757869D-02  0.113692D-03 -0.601525D-02
     28 -0.135191D-03  0.237432D-02  0.328945D-03 -0.568969D-02 -0.602568D-03
     29  0.285268D-02 -0.360476D-02 -0.556257D-02 -0.790667D-02 -0.203367D-02
     30 -0.324950D-02  0.379386D-02 -0.165669D-02  0.189419D-02 -0.234432D-02
     31  0.823071D-03  0.387509D-02  0.729399D-02  0.356594D-02  0.676716D-02
     32  0.737318D-03 -0.862559D-03 -0.195729D-02 -0.392992D-02 -0.241908D-02
     33  0.458746D-03  0.369794D-02 -0.419407D-02 -0.318097D-02 -0.564516D-02
     34  0.554367D-03 -0.145969D-03  0.464603D-02 -0.722345D-03 -0.139464D-02
     35 -0.150067D-03  0.132945D-02  0.214707D-01 -0.421987D-01 -0.331716D-01
     36 -0.163011D-03 -0.862568D-03  0.278102D-02 -0.334001D-02  0.542399D-02
               16            17            18            19            20 
     16  0.254530D+00
     17  0.508368D-01  0.867686D-01
     18 -0.355233D-01 -0.130992D+00  0.353380D+00
     19 -0.209408D+00 -0.862459D-01  0.101932D+00  0.273400D+00
     20 -0.746571D-01 -0.215864D-01  0.133913D-01  0.613112D-01  0.640875D-01
     21  0.884221D-01  0.177162D-01 -0.122279D-01 -0.437643D-01 -0.334821D-01
     22  0.379744D-02 -0.694964D-02 -0.387208D-02 -0.947017D-02  0.308416D-01
     23  0.732422D-02 -0.209598D-02  0.870707D-02  0.923550D-02 -0.175972D-01
     24 -0.389337D-02  0.235401D-01  0.112124D-01 -0.707035D-02  0.166232D-01
     25 -0.307796D-02  0.173049D-02  0.222446D-02  0.219553D-03  0.635579D-03
     26  0.216348D-02 -0.439425D-03 -0.820376D-03  0.760305D-03  0.248821D-03
     27  0.110954D-02 -0.747723D-03  0.263722D-02  0.264983D-02  0.345020D-03
     28 -0.155783D-03  0.212732D-03 -0.416459D-03 -0.263686D-03  0.947970D-03
     29  0.344146D-03  0.710166D-04 -0.863409D-03  0.187201D-02  0.128289D-02
     30 -0.752689D-05 -0.118677D-03  0.980651D-03  0.705073D-03 -0.241802D-03
     31 -0.232223D-03  0.921710D-03 -0.733588D-04 -0.422139D-02 -0.660436D-03
     32 -0.986290D-04  0.241282D-04  0.255490D-04  0.115620D-02  0.675463D-03
     33 -0.144422D-03 -0.348698D-03  0.818502D-03  0.245138D-02  0.684489D-03
     34  0.493295D-03  0.620385D-03  0.115393D-02 -0.133202D-02 -0.181724D-03
     35 -0.987779D-03  0.485404D-02  0.296992D-02 -0.654234D-03  0.126908D-03
     36  0.725478D-03  0.115256D-03 -0.152149D-02 -0.249702D-02  0.164868D-02
               21            22            23            24            25 
     21  0.720041D-01
     22 -0.668256D-02  0.253295D+00
     23  0.102680D-01 -0.752450D-01  0.378341D+00
     24 -0.381860D-03 -0.224672D+00  0.109231D+00  0.347285D+00
     25  0.134879D-02 -0.222720D-03  0.392759D-03  0.168106D-02  0.131514D+00
     26  0.915361D-04 -0.452633D-03  0.263107D-02  0.971804D-03 -0.275442D-02
     27  0.300812D-02  0.205251D-02  0.798667D-03  0.123903D-02  0.130482D+00
     28 -0.981077D-04 -0.767525D-02  0.483290D-02  0.681525D-03  0.912161D-02
     29  0.148178D-02 -0.841003D-03  0.795555D-02  0.114537D-02  0.124801D-01
     30  0.990825D-03  0.268432D-02 -0.150893D-02  0.871330D-03 -0.151098D-01
     31 -0.384589D-02  0.638943D-04 -0.487745D-03  0.102993D-03 -0.502597D-01
     32  0.115508D-02 -0.107993D-02  0.264583D-02  0.651018D-03 -0.130464D-01
     33  0.261773D-02 -0.158229D-03  0.109795D-02  0.757727D-03 -0.590146D-01
     34 -0.566534D-03 -0.171075D+00  0.930530D-01  0.225771D+00  0.153187D-03
     35 -0.608693D-03  0.700334D-01 -0.721928D-01 -0.948260D-01  0.195916D-02
     36 -0.243344D-02  0.221474D+00 -0.126723D+00 -0.294970D+00 -0.238468D-02
               26            27            28            29            30 
     26  0.766370D-01
     27 -0.122917D-01  0.399001D+00
     28  0.161590D-01 -0.143363D-01  0.849368D-01
     29 -0.127902D-01  0.410931D-01  0.104589D-01  0.412735D+00
     30  0.584943D-01 -0.414071D-01 -0.104422D-02 -0.125799D+00  0.122175D+00
     31 -0.128745D-01 -0.400314D-01 -0.167469D-01 -0.426210D-01  0.129351D-01
     32  0.102131D-01 -0.767090D-02 -0.617382D-01 -0.408715D-01  0.176472D-01
     33 -0.115693D-01 -0.818124D-02  0.167940D-01  0.162325D-01  0.772709D-02
     34  0.179764D-02 -0.164076D-03  0.584215D-04  0.544169D-02 -0.441564D-03
     35 -0.704692D-03  0.746003D-03  0.606284D-03 -0.376453D-02  0.541717D-03
     36 -0.102465D-02 -0.373709D-02  0.213435D-02  0.107656D-02 -0.208414D-02
               31            32            33            34            35 
     31  0.405316D+00
     32  0.102134D+00  0.112943D+00
     33 -0.105104D-01 -0.785856D-02  0.780579D-01
     34  0.146445D-02  0.171015D-02 -0.395144D-04  0.176405D+00
     35  0.637620D-03 -0.881218D-03  0.663226D-04 -0.866182D-01  0.107528D+00
     36 -0.292324D-03  0.408762D-04 -0.108395D-02 -0.223293D+00  0.125716D+00
               36 
     36  0.291414D+00
 FormGI is forming the generalized inverse of G from B-inverse, IUseBI=4.
 Leave Link  716 at Sat May 24 06:28:50 2025, MaxMem=  3758096384 cpu:               0.0 elap:               0.0
 (Enter /apps/easybuild-2022/easybuild/software/Compiler/NVHPC/22.11-CUDA-11.7.0/Gaussian/g16c01-CUDA-11.7.0/g16/l103.exe)

 GradGradGradGradGradGradGradGradGradGradGradGradGradGradGradGradGradGrad
 Berny optimization.
 Red2BG is reusing G-inverse.
 Internal  Forces:  Max     0.017067674 RMS     0.004743403
 Search for a local minimum.
 Step number   1 out of a maximum of   61
 All quantities printed in internal units (Hartrees-Bohrs-Radians)
 RMS Force = .47434D-02 SwitMx=.10000D-02 MixMth= 1
 Mixed Optimization -- RFO/linear search
 Second derivative matrix not updated -- analytic derivatives used.
 ITU=  0
     Eigenvalues ---   -0.00586   0.00182   0.00380   0.03597   0.04110
     Eigenvalues ---    0.06465   0.08125   0.08882   0.10360   0.10930
     Eigenvalues ---    0.11753   0.13496   0.14542   0.16252   0.17155
     Eigenvalues ---    0.23979   0.24550   0.25020   0.25536   0.26531
     Eigenvalues ---    0.34955   0.37852   0.38716   0.40309   0.40661
     Eigenvalues ---    0.42201   0.48415   0.50390   0.55077   0.58644
 Eigenvalue     1 is  -5.86D-03 should be greater than     0.000000 Eigenvector:
                          D21       D19       D20       D12       D8
   1                    0.37954   0.37789   0.37638   0.21899   0.19963
                          D15       D10       D7        D18       D2
   1                    0.19623   0.19506   0.19329   0.19252   0.18083
 RFO step:  Lambda=-6.73368561D-03 EMin=-5.86214649D-03
 Linear search not attempted -- first point.
 Iteration  1 RMS(Cart)=  0.18722675 RMS(Int)=  0.02166213
 Iteration  2 RMS(Cart)=  0.02656541 RMS(Int)=  0.00091779
 Iteration  3 RMS(Cart)=  0.00063068 RMS(Int)=  0.00065688
 Iteration  4 RMS(Cart)=  0.00000077 RMS(Int)=  0.00065688
 ITry= 1 IFail=0 DXMaxC= 8.29D-01 DCOld= 1.00D+10 DXMaxT= 3.00D-01 DXLimC= 3.00D+00 Rises=F
 Variable       Old X    -DE/DX   Delta X   Delta X   Delta X     New X
                                 (Linear)    (Quad)   (Total)
    R1        2.91376   0.00008   0.00000  -0.00979  -0.00979   2.90396
    R2        2.50715   0.00258   0.00000  -0.01358  -0.01358   2.49357
    R3        2.50023   0.00561   0.00000   0.04292   0.04292   2.54315
    R4        2.51167  -0.00291   0.00000  -0.01536  -0.01536   2.49631
    R5        2.53860   0.00121   0.00000   0.00036   0.00036   2.53896
    R6        2.53720  -0.00064   0.00000   0.00159   0.00159   2.53879
    R7        3.59523   0.00853   0.00000   0.04135   0.04135   3.63658
    R8        2.94511  -0.00073   0.00000   0.00591   0.00586   2.95097
    R9        3.36072  -0.00576   0.00000  -0.07508  -0.07516   3.28557
   R10        3.01655   0.00610   0.00000  -0.01704  -0.01704   2.99951
   R11        2.82319   0.00243   0.00000   0.00068   0.00081   2.82401
   R12        1.82745   0.00005   0.00000  -0.00407  -0.00407   1.82338
    A1        1.92269  -0.00008   0.00000   0.01585   0.01536   1.93805
    A2        1.94047  -0.00061   0.00000  -0.03151  -0.03142   1.90905
    A3        1.90994   0.00426   0.00000   0.03026   0.02997   1.93992
    A4        1.90576  -0.00279   0.00000  -0.02393  -0.02404   1.88172
    A5        1.89438  -0.00029   0.00000   0.01070   0.00991   1.90429
    A6        1.88973  -0.00048   0.00000  -0.00077  -0.00048   1.88925
    A7        1.88702  -0.00460   0.00000  -0.02138  -0.02142   1.86560
    A8        1.89341  -0.00179   0.00000  -0.00147  -0.00153   1.89188
    A9        2.10692   0.00453   0.00000   0.01215   0.01216   2.11909
   A10        1.89486   0.00085   0.00000   0.00237   0.00230   1.89716
   A11        1.82175   0.00244   0.00000   0.00984   0.00992   1.83167
   A12        1.85121  -0.00140   0.00000  -0.00135  -0.00136   1.84985
   A13        1.67823  -0.00251   0.00000  -0.04285  -0.04327   1.63495
   A14        2.57863   0.00003   0.00000  -0.01726  -0.01931   2.55932
   A15        1.58934   0.01707   0.00000   0.05441   0.05494   1.64428
   A16        1.92575   0.00425   0.00000   0.07273   0.07346   1.99921
   A17        1.61863  -0.00985   0.00000   0.03438   0.03544   1.65407
   A18        1.89139   0.01651   0.00000   0.14265   0.14265   2.03404
    D1        1.28058   0.00368   0.00000  -0.12657  -0.12645   1.15413
    D2       -2.95084   0.00120   0.00000  -0.13627  -0.13607  -3.08691
    D3       -0.81190   0.00110   0.00000  -0.13008  -0.12987  -0.94178
    D4       -2.88749  -0.00031   0.00000  -0.16696  -0.16691  -3.05440
    D5       -0.83572  -0.00279   0.00000  -0.17666  -0.17653  -1.01224
    D6        1.30322  -0.00289   0.00000  -0.17047  -0.17033   1.13289
    D7       -0.80083   0.00146   0.00000  -0.16808  -0.16842  -0.96926
    D8        1.25094  -0.00103   0.00000  -0.17778  -0.17804   1.07290
    D9       -2.89331  -0.00112   0.00000  -0.17160  -0.17185  -3.06516
   D10        1.15897   0.00056   0.00000  -0.14463  -0.14490   1.01406
   D11        0.91894   0.00306   0.00000  -0.07382  -0.07407   0.84487
   D12       -0.77113  -0.00566   0.00000  -0.22198  -0.22141  -0.99254
   D13       -0.96543   0.00161   0.00000  -0.13250  -0.13281  -1.09824
   D14       -1.20545   0.00412   0.00000  -0.06168  -0.06198  -1.26743
   D15       -2.89553  -0.00460   0.00000  -0.20985  -0.20931  -3.10484
   D16       -2.96517   0.00018   0.00000  -0.13887  -0.13915  -3.10432
   D17        3.07799   0.00268   0.00000  -0.06805  -0.06832   3.00967
   D18        1.38792  -0.00604   0.00000  -0.21622  -0.21565   1.17226
   D19        0.92439   0.00369   0.00000  -0.22610  -0.22326   0.70113
   D20       -0.76795  -0.00032   0.00000  -0.20541  -0.20620  -0.97415
   D21       -1.65800   0.00271   0.00000  -0.21907  -0.22111  -1.87911
         Item               Value     Threshold  Converged?
 Maximum Force            0.017068     0.000015     NO 
 RMS     Force            0.004743     0.000010     NO 
 Maximum Displacement     0.828807     0.000060     NO 
 RMS     Displacement     0.200504     0.000040     NO 
 Predicted change in Energy=-5.390413D-03
 Lowest energy point so far.  Saving SCF results.
 GradGradGradGradGradGradGradGradGradGradGradGradGradGradGradGradGradGrad

 Leave Link  103 at Sat May 24 06:28:50 2025, MaxMem=  3758096384 cpu:               0.1 elap:               0.0
 (Enter /apps/easybuild-2022/easybuild/software/Compiler/NVHPC/22.11-CUDA-11.7.0/Gaussian/g16c01-CUDA-11.7.0/g16/l202.exe)
                          Input orientation:                          
 ---------------------------------------------------------------------
 Center     Atomic      Atomic             Coordinates (Angstroms)
 Number     Number       Type             X           Y           Z
 ---------------------------------------------------------------------
      1          6           0       -0.810753    0.862562    1.006241
      2          6           0        0.002219   -0.006635    0.034103
      3          9           0       -0.343325   -1.283453    0.269655
      4          9           0       -0.356203    0.312077   -1.220835
      5         16           0        1.926512   -0.001588    0.053252
      6          8           0        2.012914   -0.443065    1.548641
      7          8           0        3.369427   -0.110540    1.017109
      8          8           0        2.041261    1.564303   -0.179676
      9          9           0       -0.451158    0.638801    2.255966
     10          9           0       -0.584841    2.162087    0.739194
     11          9           0       -2.105755    0.633691    0.881300
     12          1           0        1.408910    2.118152    0.294028
 ---------------------------------------------------------------------
                    Distance matrix (angstroms):
                    1          2          3          4          5
     1  C    0.000000
     2  C    1.536711   0.000000
     3  F    2.316555   1.343558   0.000000
     4  F    2.338699   1.343471   2.183447   0.000000
     5  S    3.024494   1.924395   2.615754   2.632959   0.000000
     6  O    3.157840   2.554836   2.809612   3.721955   1.561587
     7  O    4.291964   3.509300   3.964712   4.366614   1.738647
     8  O    3.167463   2.582874   3.741372   2.898261   1.587273
     9  F    1.319542   2.357714   2.766247   3.493409   3.303841
    10  F    1.345777   2.354814   3.485763   2.704908   3.385100
    11  F    1.320992   2.360363   2.675015   2.753786   4.165143
    12  H    2.647765   2.561457   3.826466   2.944884   2.195264
                    6          7          8          9         10
     6  O    0.000000
     7  O    1.494399   0.000000
     8  O    2.649039   2.449779   0.000000
     9  F    2.782516   4.085725   3.605698   0.000000
    10  F    3.767008   4.569278   2.845712   2.153803   0.000000
    11  F    4.309080   5.527200   4.380576   2.151144   2.160872
    12  H    2.915254   3.055085   0.964890   3.081807   2.043317
                   11         12
    11  F    0.000000
    12  H    3.860231   0.000000
 Symmetry turned off by external request.
 Stoichiometry    C2HF5O3S
 Rotational constants (GHZ):           1.6105992           0.7712693           0.7591566
 Leave Link  202 at Sat May 24 06:28:50 2025, MaxMem=  3758096384 cpu:               0.0 elap:               0.0
 (Enter /apps/easybuild-2022/easybuild/software/Compiler/NVHPC/22.11-CUDA-11.7.0/Gaussian/g16c01-CUDA-11.7.0/g16/l301.exe)
 Standard basis: def2TZVPP (5D, 7F)
 Ernie: Thresh=  0.10000D-02 Tol=  0.10000D-05 Strict=F.
   366 basis functions,   596 primitive gaussians,   423 cartesian basis functions
    49 alpha electrons       49 beta electrons
       nuclear repulsion energy       912.3918245825 Hartrees.
 IExCor= 4336 DFT=T Ex+Corr=M062X ExCW=0 ScaHFX=  0.540000
 ScaDFX=  1.000000  1.000000  1.000000  1.000000 ScalE2=  1.000000  1.000000
 IRadAn=      5 IRanWt=     -1 IRanGd=            0 ICorTp=0 IEmpDi=  4
 NAtoms=   12 NActive=   12 NUniq=   12 SFac= 1.00D+00 NAtFMM=   60 NAOKFM=F Big=F
 Integral buffers will be    131072 words long.
 Raffenetti 2 integral format.
 Two-electron integral symmetry is turned off.
 Leave Link  301 at Sat May 24 06:28:50 2025, MaxMem=  3758096384 cpu:               0.0 elap:               0.0
 (Enter /apps/easybuild-2022/easybuild/software/Compiler/NVHPC/22.11-CUDA-11.7.0/Gaussian/g16c01-CUDA-11.7.0/g16/l302.exe)
 NPDir=0 NMtPBC=     1 NCelOv=     1 NCel=       1 NClECP=     1 NCelD=      1
         NCelK=      1 NCelE2=     1 NClLst=     1 CellRange=     0.0.
 One-electron integrals computed using PRISM.
   1 Symmetry operations used in ECPInt.
 ECPInt:  NShTT=    8515 NPrTT=   27988 LenC2=    8005 LenP2D=   19476.
 LDataN:  DoStor=T MaxTD1= 6 Len=  172
 NBasis=   366 RedAO= T EigKep=  4.76D-04  NBF=   366
 NBsUse=   366 1.00D-06 EigRej= -1.00D+00 NBFU=   366
 Precomputing XC quadrature grid using
 IXCGrd= 4 IRadAn=           5 IRanWt=          -1 IRanGd=           0 AccXCQ= 0.00D+00.
 Generated NRdTot=       0 NPtTot=           0 NUsed=           0 NTot=          32
 NSgBfM=   419   419   419   419   419 MxSgAt=    12 MxSgA2=    12.
 Leave Link  302 at Sat May 24 06:28:50 2025, MaxMem=  3758096384 cpu:               0.7 elap:               0.2
 (Enter /apps/easybuild-2022/easybuild/software/Compiler/NVHPC/22.11-CUDA-11.7.0/Gaussian/g16c01-CUDA-11.7.0/g16/l303.exe)
 DipDrv:  MaxL=1.
 Leave Link  303 at Sat May 24 06:28:50 2025, MaxMem=  3758096384 cpu:               0.1 elap:               0.0
 (Enter /apps/easybuild-2022/easybuild/software/Compiler/NVHPC/22.11-CUDA-11.7.0/Gaussian/g16c01-CUDA-11.7.0/g16/l401.exe)
 Initial guess from the checkpoint file:  "/tmp/Gau-229086.chk"
 B after Tr=     0.011942    0.016993    0.022686
         Rot=    0.999754   -0.020652    0.007727    0.002450 Ang=  -2.54 deg.
 Guess basis will be translated and rotated to current coordinates.
 JPrj=2 DoOrth=T DoCkMO=T.
 Generating alternative initial guess.
 ExpMin= 9.52D-02 ExpMax= 6.07D+04 ExpMxC= 2.07D+03 IAcc=3 IRadAn=         5 AccDes= 0.00D+00
 Harris functional with IExCor= 1009 and IRadAn=       5 diagonalized for initial guess.
 HarFok:  IExCor= 1009 AccDes= 0.00D+00 IRadAn=         5 IDoV= 1 UseB2=F ITyADJ=14
 ICtDFT=  3500011 ScaDFX=  1.000000  1.000000  1.000000  1.000000
 FoFCou: FMM=F IPFlag=           0 FMFlag=      100000 FMFlg1=           0
         NFxFlg=           0 DoJE=T BraDBF=F KetDBF=T FulRan=T
         wScrn=  0.000000 ICntrl=       500 IOpCl=  0 I1Cent=   200000004 NGrid=           0
         NMat0=    1 NMatS0=      1 NMatT0=    0 NMatD0=    1 NMtDS0=    0 NMtDT0=    0
 Symmetry not used in FoFCou.
 Harris En= -1199.13908424586    
 Leave Link  401 at Sat May 24 06:28:51 2025, MaxMem=  3758096384 cpu:               4.7 elap:               0.7
 (Enter /apps/easybuild-2022/easybuild/software/Compiler/NVHPC/22.11-CUDA-11.7.0/Gaussian/g16c01-CUDA-11.7.0/g16/l502.exe)
 Keep R1 ints in memory in canonical form, NReq=2293446996.
 FoFCou: FMM=F IPFlag=           0 FMFlag=           0 FMFlg1=           0
         NFxFlg=           0 DoJE=F BraDBF=F KetDBF=F FulRan=T
         wScrn=  0.000000 ICntrl=       600 IOpCl=  0 I1Cent=           0 NGrid=           0
         NMat0=    1 NMatS0=  67161 NMatT0=    0 NMatD0=    1 NMtDS0=    0 NMtDT0=    0
 Symmetry not used in FoFCou.
 Two-electron integral symmetry not used.
 Closed shell SCF:
 Using DIIS extrapolation, IDIIS=  1040.
 NGot=  3758096384 LenX=  1502398672 LenY=  1502219302
 Requested convergence on RMS density matrix=1.00D-08 within  32 cycles.
 Requested convergence on MAX density matrix=1.00D-06.
 Requested convergence on             energy=1.00D-06.
 No special actions if energy rises.
 Integral accuracy reduced to 1.0D-05 until final iterations.

 Cycle   1  Pass 0  IDiag  1:
 E= -1199.68696852092    
 DIIS: error= 7.96D-03 at cycle   1 NSaved=   1.
 NSaved= 1 IEnMin= 1 EnMin= -1199.68696852092     IErMin= 1 ErrMin= 7.96D-03
 ErrMax= 7.96D-03  0.00D+00 EMaxC= 1.00D-01 BMatC= 6.74D-02 BMatP= 6.74D-02
 IDIUse=3 WtCom= 9.20D-01 WtEn= 7.96D-02
 Coeff-Com:  0.100D+01
 Coeff-En:   0.100D+01
 Coeff:      0.100D+01
 Gap=     0.890 Goal=   None    Shift=    0.000
 GapD=    0.890 DampG=2.000 DampE=1.000 DampFc=2.0000 IDamp=-1.
 RMSDP=8.43D-04 MaxDP=3.24D-02              OVMax= 5.34D-02

 Cycle   2  Pass 0  IDiag  1:
 E= -1199.76749586549     Delta-E=       -0.080527344576 Rises=F Damp=F
 DIIS: error= 1.86D-03 at cycle   2 NSaved=   2.
 NSaved= 2 IEnMin= 2 EnMin= -1199.76749586549     IErMin= 2 ErrMin= 1.86D-03
 ErrMax= 1.86D-03  0.00D+00 EMaxC= 1.00D-01 BMatC= 3.58D-03 BMatP= 6.74D-02
 IDIUse=3 WtCom= 9.81D-01 WtEn= 1.86D-02
 Coeff-Com: -0.622D-01 0.106D+01
 Coeff-En:   0.000D+00 0.100D+01
 Coeff:     -0.610D-01 0.106D+01
 Gap=     0.354 Goal=   None    Shift=    0.000
 RMSDP=2.22D-04 MaxDP=8.46D-03 DE=-8.05D-02 OVMax= 1.73D-02

 Cycle   3  Pass 0  IDiag  1:
 E= -1199.77029209354     Delta-E=       -0.002796228046 Rises=F Damp=F
 DIIS: error= 2.20D-03 at cycle   3 NSaved=   3.
 NSaved= 3 IEnMin= 3 EnMin= -1199.77029209354     IErMin= 2 ErrMin= 1.86D-03
 ErrMax= 2.20D-03  0.00D+00 EMaxC= 1.00D-01 BMatC= 3.22D-03 BMatP= 3.58D-03
 IDIUse=3 WtCom= 9.78D-01 WtEn= 2.20D-02
 Coeff-Com: -0.798D-01 0.550D+00 0.530D+00
 Coeff-En:   0.000D+00 0.000D+00 0.100D+01
 Coeff:     -0.781D-01 0.538D+00 0.541D+00
 Gap=     0.358 Goal=   None    Shift=    0.000
 RMSDP=1.01D-04 MaxDP=5.98D-03 DE=-2.80D-03 OVMax= 9.55D-03

 Cycle   4  Pass 0  IDiag  1:
 E= -1199.77236465222     Delta-E=       -0.002072558679 Rises=F Damp=F
 DIIS: error= 3.77D-04 at cycle   4 NSaved=   4.
 NSaved= 4 IEnMin= 4 EnMin= -1199.77236465222     IErMin= 4 ErrMin= 3.77D-04
 ErrMax= 3.77D-04  0.00D+00 EMaxC= 1.00D-01 BMatC= 1.10D-04 BMatP= 3.22D-03
 IDIUse=3 WtCom= 9.96D-01 WtEn= 3.77D-03
 Coeff-Com: -0.956D-02-0.214D-02 0.140D+00 0.871D+00
 Coeff-En:   0.000D+00 0.000D+00 0.000D+00 0.100D+01
 Coeff:     -0.953D-02-0.213D-02 0.140D+00 0.872D+00
 Gap=     0.357 Goal=   None    Shift=    0.000
 RMSDP=2.71D-05 MaxDP=1.23D-03 DE=-2.07D-03 OVMax= 3.22D-03

 Cycle   5  Pass 0  IDiag  1:
 E= -1199.77246789727     Delta-E=       -0.000103245057 Rises=F Damp=F
 DIIS: error= 1.53D-04 at cycle   5 NSaved=   5.
 NSaved= 5 IEnMin= 5 EnMin= -1199.77246789727     IErMin= 5 ErrMin= 1.53D-04
 ErrMax= 1.53D-04  0.00D+00 EMaxC= 1.00D-01 BMatC= 1.77D-05 BMatP= 1.10D-04
 IDIUse=3 WtCom= 9.98D-01 WtEn= 1.53D-03
 Coeff-Com:  0.195D-02-0.445D-01 0.203D-01 0.385D+00 0.637D+00
 Coeff-En:   0.000D+00 0.000D+00 0.000D+00 0.000D+00 0.100D+01
 Coeff:      0.195D-02-0.444D-01 0.203D-01 0.385D+00 0.637D+00
 Gap=     0.357 Goal=   None    Shift=    0.000
 RMSDP=9.71D-06 MaxDP=5.65D-04 DE=-1.03D-04 OVMax= 1.55D-03

 Initial convergence to 1.0D-05 achieved.  Increase integral accuracy.
 Cycle   6  Pass 1  IDiag  1:
 E= -1199.77259205328     Delta-E=       -0.000124156002 Rises=F Damp=F
 DIIS: error= 7.85D-05 at cycle   1 NSaved=   1.
 NSaved= 1 IEnMin= 1 EnMin= -1199.77259205328     IErMin= 1 ErrMin= 7.85D-05
 ErrMax= 7.85D-05  0.00D+00 EMaxC= 1.00D-01 BMatC= 5.76D-06 BMatP= 5.76D-06
 IDIUse=1 WtCom= 1.00D+00 WtEn= 0.00D+00
 Coeff-Com:  0.100D+01
 Coeff:      0.100D+01
 Gap=     0.357 Goal=   None    Shift=    0.000
 RMSDP=9.71D-06 MaxDP=5.65D-04 DE=-1.24D-04 OVMax= 1.39D-03

 Cycle   7  Pass 1  IDiag  1:
 E= -1199.77258823543     Delta-E=        0.000003817848 Rises=F Damp=F
 DIIS: error= 1.95D-04 at cycle   2 NSaved=   2.
 NSaved= 2 IEnMin= 1 EnMin= -1199.77259205328     IErMin= 1 ErrMin= 7.85D-05
 ErrMax= 1.95D-04  0.00D+00 EMaxC= 1.00D-01 BMatC= 1.53D-05 BMatP= 5.76D-06
 IDIUse=3 WtCom= 4.18D-01 WtEn= 5.82D-01
 Coeff-Com:  0.631D+00 0.369D+00
 Coeff-En:   0.630D+00 0.370D+00
 Coeff:      0.631D+00 0.369D+00
 Gap=     0.357 Goal=   None    Shift=    0.000
 RMSDP=5.64D-06 MaxDP=3.73D-04 DE= 3.82D-06 OVMax= 7.69D-04

 Cycle   8  Pass 1  IDiag  1:
 E= -1199.77259866211     Delta-E=       -0.000010426685 Rises=F Damp=F
 DIIS: error= 1.55D-05 at cycle   3 NSaved=   3.
 NSaved= 3 IEnMin= 3 EnMin= -1199.77259866211     IErMin= 3 ErrMin= 1.55D-05
 ErrMax= 1.55D-05  0.00D+00 EMaxC= 1.00D-01 BMatC= 2.42D-07 BMatP= 5.76D-06
 IDIUse=1 WtCom= 1.00D+00 WtEn= 0.00D+00
 Coeff-Com: -0.169D-01 0.629D-01 0.954D+00
 Coeff:     -0.169D-01 0.629D-01 0.954D+00
 Gap=     0.357 Goal=   None    Shift=    0.000
 RMSDP=2.13D-06 MaxDP=9.17D-05 DE=-1.04D-05 OVMax= 5.24D-04

 Cycle   9  Pass 1  IDiag  1:
 E= -1199.77259917842     Delta-E=       -0.000000516310 Rises=F Damp=F
 DIIS: error= 1.04D-05 at cycle   4 NSaved=   4.
 NSaved= 4 IEnMin= 4 EnMin= -1199.77259917842     IErMin= 4 ErrMin= 1.04D-05
 ErrMax= 1.04D-05  0.00D+00 EMaxC= 1.00D-01 BMatC= 1.03D-07 BMatP= 2.42D-07
 IDIUse=1 WtCom= 1.00D+00 WtEn= 0.00D+00
 Coeff-Com: -0.114D+00-0.320D-01 0.458D+00 0.688D+00
 Coeff:     -0.114D+00-0.320D-01 0.458D+00 0.688D+00
 Gap=     0.357 Goal=   None    Shift=    0.000
 RMSDP=1.05D-06 MaxDP=5.17D-05 DE=-5.16D-07 OVMax= 2.83D-04

 Cycle  10  Pass 1  IDiag  1:
 E= -1199.77259934509     Delta-E=       -0.000000166668 Rises=F Damp=F
 DIIS: error= 3.78D-06 at cycle   5 NSaved=   5.
 NSaved= 5 IEnMin= 5 EnMin= -1199.77259934509     IErMin= 5 ErrMin= 3.78D-06
 ErrMax= 3.78D-06  0.00D+00 EMaxC= 1.00D-01 BMatC= 1.21D-08 BMatP= 1.03D-07
 IDIUse=1 WtCom= 1.00D+00 WtEn= 0.00D+00
 Coeff-Com: -0.102D-01-0.213D-01-0.211D+00 0.925D-01 0.115D+01
 Coeff:     -0.102D-01-0.213D-01-0.211D+00 0.925D-01 0.115D+01
 Gap=     0.357 Goal=   None    Shift=    0.000
 RMSDP=8.70D-07 MaxDP=4.30D-05 DE=-1.67D-07 OVMax= 2.56D-04

 Cycle  11  Pass 1  IDiag  1:
 E= -1199.77259939307     Delta-E=       -0.000000047980 Rises=F Damp=F
 DIIS: error= 1.26D-06 at cycle   6 NSaved=   6.
 NSaved= 6 IEnMin= 6 EnMin= -1199.77259939307     IErMin= 6 ErrMin= 1.26D-06
 ErrMax= 1.26D-06  0.00D+00 EMaxC= 1.00D-01 BMatC= 2.11D-09 BMatP= 1.21D-08
 IDIUse=1 WtCom= 1.00D+00 WtEn= 0.00D+00
 Coeff-Com:  0.961D-02-0.438D-02-0.135D+00-0.434D-01 0.458D+00 0.716D+00
 Coeff:      0.961D-02-0.438D-02-0.135D+00-0.434D-01 0.458D+00 0.716D+00
 Gap=     0.357 Goal=   None    Shift=    0.000
 RMSDP=1.97D-07 MaxDP=8.93D-06 DE=-4.80D-08 OVMax= 5.39D-05

 Cycle  12  Pass 1  IDiag  1:
 E= -1199.77259939647     Delta-E=       -0.000000003404 Rises=F Damp=F
 DIIS: error= 4.94D-07 at cycle   7 NSaved=   7.
 NSaved= 7 IEnMin= 7 EnMin= -1199.77259939647     IErMin= 7 ErrMin= 4.94D-07
 ErrMax= 4.94D-07  0.00D+00 EMaxC= 1.00D-01 BMatC= 3.68D-10 BMatP= 2.11D-09
 IDIUse=1 WtCom= 1.00D+00 WtEn= 0.00D+00
 Coeff-Com:  0.585D-02 0.133D-02-0.262D-01-0.345D-01 0.213D-01 0.300D+00
 Coeff-Com:  0.732D+00
 Coeff:      0.585D-02 0.133D-02-0.262D-01-0.345D-01 0.213D-01 0.300D+00
 Coeff:      0.732D+00
 Gap=     0.357 Goal=   None    Shift=    0.000
 RMSDP=7.47D-08 MaxDP=2.85D-06 DE=-3.40D-09 OVMax= 1.80D-05

 Cycle  13  Pass 1  IDiag  1:
 E= -1199.77259939708     Delta-E=       -0.000000000607 Rises=F Damp=F
 DIIS: error= 1.84D-07 at cycle   8 NSaved=   8.
 NSaved= 8 IEnMin= 8 EnMin= -1199.77259939708     IErMin= 8 ErrMin= 1.84D-07
 ErrMax= 1.84D-07  0.00D+00 EMaxC= 1.00D-01 BMatC= 3.43D-11 BMatP= 3.68D-10
 IDIUse=1 WtCom= 1.00D+00 WtEn= 0.00D+00
 Coeff-Com: -0.938D-03 0.936D-03 0.204D-01 0.312D-02-0.758D-01-0.944D-01
 Coeff-Com:  0.119D+00 0.103D+01
 Coeff:     -0.938D-03 0.936D-03 0.204D-01 0.312D-02-0.758D-01-0.944D-01
 Coeff:      0.119D+00 0.103D+01
 Gap=     0.357 Goal=   None    Shift=    0.000
 RMSDP=3.76D-08 MaxDP=1.63D-06 DE=-6.07D-10 OVMax= 7.57D-06

 Cycle  14  Pass 1  IDiag  1:
 E= -1199.77259939702     Delta-E=        0.000000000062 Rises=F Damp=F
 DIIS: error= 5.59D-08 at cycle   9 NSaved=   9.
 NSaved= 9 IEnMin= 8 EnMin= -1199.77259939708     IErMin= 9 ErrMin= 5.59D-08
 ErrMax= 5.59D-08  0.00D+00 EMaxC= 1.00D-01 BMatC= 5.31D-12 BMatP= 3.43D-11
 IDIUse=1 WtCom= 1.00D+00 WtEn= 0.00D+00
 Coeff-Com: -0.743D-03 0.267D-03 0.889D-02 0.388D-02-0.276D-01-0.611D-01
 Coeff-Com: -0.236D-01 0.345D+00 0.755D+00
 Coeff:     -0.743D-03 0.267D-03 0.889D-02 0.388D-02-0.276D-01-0.611D-01
 Coeff:     -0.236D-01 0.345D+00 0.755D+00
 Gap=     0.357 Goal=   None    Shift=    0.000
 RMSDP=9.68D-09 MaxDP=3.95D-07 DE= 6.23D-11 OVMax= 1.68D-06

 SCF Done:  E(RM062X) =  -1199.77259940     A.U. after   14 cycles
            NFock= 14  Conv=0.97D-08     -V/T= 2.0028
 KE= 1.196374235911D+03 PE=-4.671411773435D+03 EE= 1.362873113544D+03
 Leave Link  502 at Sat May 24 06:29:30 2025, MaxMem=  3758096384 cpu:             163.4 elap:              39.3
 (Enter /apps/easybuild-2022/easybuild/software/Compiler/NVHPC/22.11-CUDA-11.7.0/Gaussian/g16c01-CUDA-11.7.0/g16/l508.exe)
 QCSCF skips out because SCF is already converged.
 Leave Link  508 at Sat May 24 06:29:30 2025, MaxMem=  3758096384 cpu:               0.0 elap:               0.0
 (Enter /apps/easybuild-2022/easybuild/software/Compiler/NVHPC/22.11-CUDA-11.7.0/Gaussian/g16c01-CUDA-11.7.0/g16/l701.exe)
 ... and contract with generalized density number  0.
 Compute integral first derivatives.
   1 Symmetry operations used in ECPInt.
 ECPInt:  NShTT=    8515 NPrTT=   27988 LenC2=    8005 LenP2D=   19476.
 LDataN:  DoStor=T MaxTD1= 7 Len=  274
 Leave Link  701 at Sat May 24 06:29:30 2025, MaxMem=  3758096384 cpu:               0.5 elap:               0.2
 (Enter /apps/easybuild-2022/easybuild/software/Compiler/NVHPC/22.11-CUDA-11.7.0/Gaussian/g16c01-CUDA-11.7.0/g16/l702.exe)
 L702 exits ... SP integral derivatives will be done elsewhere.
 Leave Link  702 at Sat May 24 06:29:30 2025, MaxMem=  3758096384 cpu:               0.0 elap:               0.0
 (Enter /apps/easybuild-2022/easybuild/software/Compiler/NVHPC/22.11-CUDA-11.7.0/Gaussian/g16c01-CUDA-11.7.0/g16/l703.exe)
 Integral derivatives from FoFJK, PRISM(SPDF).
 Compute integral first derivatives, UseDBF=F ICtDFT=           0.
 Calling FoFJK, ICntrl=      2127 FMM=F ISym2X=0 I1Cent= 0 IOpClX= 0 NMat=1 NMatS=1 NMatT=0.
 FoFJK:  IHMeth= 1 ICntrl=    2127 DoSepK=F KAlg= 0 I1Cent=           0 FoldK=F
 IRaf=         0 NMat=       1 IRICut=       1 DoRegI=T DoRafI=F ISym2E= 0 IDoP0=0 IntGTp=1.
 FoFCou: FMM=F IPFlag=           0 FMFlag=      100000 FMFlg1=         800
         NFxFlg=           0 DoJE=F BraDBF=F KetDBF=F FulRan=T
         wScrn=  0.000000 ICntrl=      2127 IOpCl=  0 I1Cent=           0 NGrid=           0
         NMat0=    1 NMatS0=      1 NMatT0=    0 NMatD0=    1 NMtDS0=    0 NMtDT0=    0
 Symmetry not used in FoFCou.
 Leave Link  703 at Sat May 24 06:29:43 2025, MaxMem=  3758096384 cpu:             101.6 elap:              12.9
 (Enter /apps/easybuild-2022/easybuild/software/Compiler/NVHPC/22.11-CUDA-11.7.0/Gaussian/g16c01-CUDA-11.7.0/g16/l716.exe)
 Dipole        =-3.92298167D-01 5.61759245D-01-2.94202057D-01
 -------------------------------------------------------------------
 Center     Atomic                   Forces (Hartrees/Bohr)
 Number     Number              X              Y              Z
 -------------------------------------------------------------------
      1        6           0.000640804    0.001537812   -0.002665426
      2        6          -0.001119839    0.000124119    0.000860923
      3        9           0.000804877   -0.000920340   -0.000630669
      4        9          -0.001323435    0.000518276   -0.000119839
      5       16          -0.001060712   -0.002864405   -0.000305624
      6        8           0.000249366    0.000817540    0.001139581
      7        8           0.000820360    0.001943058   -0.000613961
      8        8           0.003415055    0.000161572   -0.001416461
      9        9           0.000095540   -0.001434255    0.002406819
     10        9           0.000769333   -0.000075135   -0.000375124
     11        9          -0.000505309    0.000875290   -0.000504551
     12        1          -0.002786040   -0.000683533    0.002224333
 -------------------------------------------------------------------
 Cartesian Forces:  Max     0.003415055 RMS     0.001382840
 Leave Link  716 at Sat May 24 06:29:43 2025, MaxMem=  3758096384 cpu:               0.0 elap:               0.0
 (Enter /apps/easybuild-2022/easybuild/software/Compiler/NVHPC/22.11-CUDA-11.7.0/Gaussian/g16c01-CUDA-11.7.0/g16/l103.exe)

 GradGradGradGradGradGradGradGradGradGradGradGradGradGradGradGradGradGrad
 Berny optimization.
 Using GEDIIS/GDIIS optimizer.
 FormGI is forming the generalized inverse of G from B-inverse, IUseBI=4.
 Internal  Forces:  Max     0.004753677 RMS     0.001293763
 Search for a local minimum.
 Step number   2 out of a maximum of   61
 All quantities printed in internal units (Hartrees-Bohrs-Radians)
 RMS Force = .12938D-02 SwitMx=.10000D-02 MixMth= 1
 Mixed Optimization -- RFO/linear search
 Update second derivatives using D2CorX and points    1    2
 DE= -3.77D-03 DEPred=-5.39D-03 R= 6.99D-01
 TightC=F SS=  1.41D+00  RLast= 7.92D-01 DXNew= 5.0454D-01 2.3763D+00
 Trust test= 6.99D-01 RLast= 7.92D-01 DXMaxT set to 5.05D-01
 ITU=  1  0
 Use linear search instead of GDIIS.
     Eigenvalues ---   -0.15050   0.00177   0.00376   0.01933   0.03821
     Eigenvalues ---    0.04198   0.08178   0.08637   0.09078   0.10912
     Eigenvalues ---    0.11749   0.12608   0.13513   0.15977   0.17450
     Eigenvalues ---    0.23105   0.24445   0.24988   0.25542   0.26591
     Eigenvalues ---    0.31133   0.36148   0.38341   0.38915   0.40674
     Eigenvalues ---    0.41714   0.42488   0.49264   0.53065   0.58724
 Eigenvalue     1 is  -1.50D-01 should be greater than     0.000000 Eigenvector:
                          A18       D19       A15       D21       R7
   1                   -0.42503  -0.29343  -0.26143  -0.24838  -0.24006
                          D20       D1        D11       R9        D14
   1                   -0.23579  -0.23074  -0.21981   0.21538  -0.20156
 RFO step:  Lambda=-1.50548364D-01 EMin=-1.50495848D-01
 I=     1 Eig=   -1.50D-01 Dot1=  1.69D-03
 I=     1 Stepn=  6.00D-01 RXN=   6.00D-01 EDone=F
 Mixed    1 eigenvectors in step.  Raw Step.Grad=  1.69D-03.
 RFO eigenvector is Hessian eigenvector with negative curvature.
 Taking step of  6.00D-01 in eigenvector direction(s).  Step.Grad= -5.87D-04.
 Quartic linear search produced a step of -0.03339.
 Iteration  1 RMS(Cart)=  0.15925068 RMS(Int)=  0.01805944
 Iteration  2 RMS(Cart)=  0.02526746 RMS(Int)=  0.00201622
 Iteration  3 RMS(Cart)=  0.00132554 RMS(Int)=  0.00171622
 Iteration  4 RMS(Cart)=  0.00000401 RMS(Int)=  0.00171622
 Iteration  5 RMS(Cart)=  0.00000000 RMS(Int)=  0.00171622
 ITry= 1 IFail=0 DXMaxC= 7.23D-01 DCOld= 1.00D+10 DXMaxT= 5.05D-01 DXLimC= 3.00D+00 Rises=F
 Variable       Old X    -DE/DX   Delta X   Delta X   Delta X     New X
                                 (Linear)    (Quad)   (Total)
    R1        2.90396  -0.00074   0.00033   0.02134   0.02167   2.92563
    R2        2.49357   0.00255   0.00045  -0.05336  -0.05290   2.44067
    R3        2.54315   0.00013  -0.00143  -0.07133  -0.07276   2.47039
    R4        2.49631   0.00039   0.00051   0.05298   0.05349   2.54981
    R5        2.53896   0.00055  -0.00001  -0.00859  -0.00860   2.53036
    R6        2.53879   0.00059  -0.00005   0.00283   0.00278   2.54157
    R7        3.63658   0.00065  -0.00138  -0.14404  -0.14542   3.49116
    R8        2.95097   0.00069  -0.00020  -0.00164  -0.00239   2.94858
    R9        3.28557  -0.00006   0.00251   0.12923   0.13067   3.41624
   R10        2.99951  -0.00059   0.00057  -0.03104  -0.03048   2.96904
   R11        2.82401   0.00051  -0.00003  -0.03532  -0.03345   2.79056
   R12        1.82338   0.00253   0.00014  -0.02032  -0.02018   1.80319
    A1        1.93805  -0.00027  -0.00051   0.01921   0.01640   1.95445
    A2        1.90905  -0.00143   0.00105   0.04470   0.04422   1.95327
    A3        1.93992   0.00079  -0.00100  -0.10747  -0.10899   1.83093
    A4        1.88172   0.00094   0.00080   0.06035   0.05827   1.93999
    A5        1.90429  -0.00010  -0.00033  -0.00141  -0.00315   1.90115
    A6        1.88925   0.00009   0.00002  -0.01107  -0.01067   1.87858
    A7        1.86560   0.00200   0.00072   0.03313   0.03335   1.89895
    A8        1.89188  -0.00056   0.00005   0.02364   0.02333   1.91521
    A9        2.11909  -0.00261  -0.00041   0.00074   0.00028   2.11937
   A10        1.89716  -0.00046  -0.00008  -0.00364  -0.00451   1.89265
   A11        1.83167   0.00022  -0.00033  -0.06448  -0.06469   1.76697
   A12        1.84985   0.00152   0.00005   0.00727   0.00711   1.85696
   A13        1.63495   0.00169   0.00145   0.04512   0.04360   1.67855
   A14        2.55932   0.00177   0.00064   0.00162  -0.00071   2.55861
   A15        1.64428  -0.00193  -0.00183  -0.15686  -0.16120   1.48308
   A16        1.99921  -0.00172  -0.00245  -0.09226  -0.09362   1.90559
   A17        1.65407  -0.00003  -0.00118   0.05255   0.05128   1.70535
   A18        2.03404  -0.00475  -0.00476  -0.25502  -0.25978   1.77426
    D1        1.15413  -0.00061   0.00422  -0.13844  -0.13485   1.01928
    D2       -3.08691  -0.00038   0.00454  -0.11315  -0.10882   3.08746
    D3       -0.94178  -0.00082   0.00434  -0.08001  -0.07582  -1.01760
    D4       -3.05440  -0.00052   0.00557  -0.02382  -0.01771  -3.07211
    D5       -1.01224  -0.00029   0.00589   0.00147   0.00832  -1.00393
    D6        1.13289  -0.00073   0.00569   0.03462   0.04131   1.17419
    D7       -0.96926  -0.00084   0.00562  -0.07572  -0.07090  -1.04015
    D8        1.07290  -0.00061   0.00595  -0.05043  -0.04486   1.02803
    D9       -3.06516  -0.00105   0.00574  -0.01728  -0.01187  -3.07703
   D10        1.01406   0.00025   0.00484  -0.08605  -0.08154   0.93252
   D11        0.84487  -0.00026   0.00247  -0.13188  -0.12896   0.71591
   D12       -0.99254   0.00200   0.00739   0.01844   0.02616  -0.96638
   D13       -1.09824  -0.00087   0.00443  -0.07511  -0.07123  -1.16947
   D14       -1.26743  -0.00139   0.00207  -0.12094  -0.11865  -1.38608
   D15       -3.10484   0.00088   0.00699   0.02939   0.03647  -3.06837
   D16       -3.10432  -0.00110   0.00465  -0.04574  -0.04164   3.13723
   D17        3.00967  -0.00161   0.00228  -0.09157  -0.08906   2.92062
[...]
   D16        2.97575   0.00000   0.00000  -0.00001  -0.00001   2.97573
   D17        2.79945  -0.00000   0.00000  -0.00001  -0.00001   2.79943
   D18        0.99374  -0.00000   0.00000  -0.00001  -0.00001   0.99372
   D19        0.91212   0.00000   0.00000   0.00006   0.00006   0.91217
   D20       -0.75809  -0.00000   0.00000   0.00006   0.00006  -0.75804
   D21       -1.66364   0.00000   0.00000   0.00006   0.00006  -1.66358
         Item               Value     Threshold  Converged?
 Maximum Force            0.000000     0.000015     YES
 RMS     Force            0.000000     0.000010     YES
 Maximum Displacement     0.000056     0.000060     YES
 RMS     Displacement     0.000014     0.000040     YES
 Predicted change in Energy=-1.085677D-11
 Optimization completed.
    -- Stationary point found.
                           ----------------------------
                           !   Optimized Parameters   !
                           ! (Angstroms and Degrees)  !
 --------------------------                            --------------------------
 ! Name  Definition              Value          Derivative Info.                !
 --------------------------------------------------------------------------------
 ! R1    R(1,2)                  1.5367         -DE/DX =    0.0                 !
 ! R2    R(1,9)                  1.3197         -DE/DX =    0.0                 !
 ! R3    R(1,10)                 1.3474         -DE/DX =    0.0                 !
 ! R4    R(1,11)                 1.3222         -DE/DX =    0.0                 !
 ! R5    R(2,3)                  1.3439         -DE/DX =    0.0                 !
 ! R6    R(2,4)                  1.3427         -DE/DX =    0.0                 !
 ! R7    R(2,5)                  1.9284         -DE/DX =    0.0                 !
 ! R8    R(5,6)                  1.5614         -DE/DX =    0.0                 !
 ! R9    R(5,7)                  1.7483         -DE/DX =    0.0                 !
 ! R10   R(5,8)                  1.5872         -DE/DX =    0.0                 !
 ! R11   R(6,7)                  1.4969         -DE/DX =    0.0                 !
 ! R12   R(8,12)                 0.9688         -DE/DX =    0.0                 !
 ! A1    A(2,1,9)              111.0753         -DE/DX =    0.0                 !
 ! A2    A(2,1,10)             109.321          -DE/DX =    0.0                 !
 ! A3    A(2,1,11)             111.2754         -DE/DX =    0.0                 !
 ! A4    A(9,1,10)             108.1917         -DE/DX =    0.0                 !
 ! A5    A(9,1,11)             109.0487         -DE/DX =    0.0                 !
 ! A6    A(10,1,11)            107.8234         -DE/DX =    0.0                 !
 ! A7    A(1,2,3)              107.6906         -DE/DX =    0.0                 !
 ! A8    A(1,2,4)              108.1859         -DE/DX =    0.0                 !
 ! A9    A(1,2,5)              119.6669         -DE/DX =    0.0                 !
 ! A10   A(3,2,4)              108.5956         -DE/DX =    0.0                 !
 ! A11   A(3,2,5)              105.1965         -DE/DX =    0.0                 !
 ! A12   A(4,2,5)              107.1004         -DE/DX =    0.0                 !
 ! A13   A(2,5,6)               93.8485         -DE/DX =    0.0                 !
 ! A14   A(2,5,7)              146.6582         -DE/DX =    0.0                 !
 ! A15   A(2,5,8)               93.4824         -DE/DX =    0.0                 !
 ! A16   A(6,5,8)              113.204          -DE/DX =    0.0                 !
 ! A17   A(7,5,8)               94.4134         -DE/DX =    0.0                 !
 ! A18   A(5,8,12)             113.2642         -DE/DX =    0.0                 !
 ! D1    D(9,1,2,3)             52.6197         -DE/DX =    0.0                 !
 ! D2    D(9,1,2,4)            169.8194         -DE/DX =    0.0                 !
 ! D3    D(9,1,2,5)            -67.2703         -DE/DX =    0.0                 !
 ! D4    D(10,1,2,3)           171.9378         -DE/DX =    0.0                 !
 ! D5    D(10,1,2,4)           -70.8624         -DE/DX =    0.0                 !
 ! D6    D(10,1,2,5)            52.0479         -DE/DX =    0.0                 !
 ! D7    D(11,1,2,3)           -69.0761         -DE/DX =    0.0                 !
 ! D8    D(11,1,2,4)            48.1236         -DE/DX =    0.0                 !
 ! D9    D(11,1,2,5)           171.0339         -DE/DX =    0.0                 !
 ! D10   D(1,2,5,6)             47.0592         -DE/DX =    0.0                 !
 ! D11   D(1,2,5,7)             36.9581         -DE/DX =    0.0                 !
 ! D12   D(1,2,5,8)            -66.5015         -DE/DX =    0.0                 !
 ! D13   D(3,2,5,6)            -74.0798         -DE/DX =    0.0                 !
 ! D14   D(3,2,5,7)            -84.1809         -DE/DX =    0.0                 !
 ! D15   D(3,2,5,8)            172.3595         -DE/DX =    0.0                 !
 ! D16   D(4,2,5,6)            170.4976         -DE/DX =    0.0                 !
 ! D17   D(4,2,5,7)            160.3965         -DE/DX =    0.0                 !
 ! D18   D(4,2,5,8)             56.9369         -DE/DX =    0.0                 !
 ! D19   D(2,5,8,12)            52.2604         -DE/DX =    0.0                 !
 ! D20   D(6,5,8,12)           -43.4355         -DE/DX =    0.0                 !
 ! D21   D(7,5,8,12)           -95.3193         -DE/DX =    0.0                 !
 --------------------------------------------------------------------------------
 GradGradGradGradGradGradGradGradGradGradGradGradGradGradGradGradGradGrad

 Leave Link  103 at Sat May 24 06:44:08 2025, MaxMem=  3758096384 cpu:               0.0 elap:               0.0
 (Enter /apps/easybuild-2022/easybuild/software/Compiler/NVHPC/22.11-CUDA-11.7.0/Gaussian/g16c01-CUDA-11.7.0/g16/l9999.exe)

 ----------------------------------------------------------------------

 Electric dipole moment (input orientation):
 (Debye = 10**-18 statcoulomb cm , SI units = C m)
                  (au)            (Debye)         (10**-30 SI)
   Tot        0.660604D+00      0.167909D+01      0.560083D+01
   x         -0.346405D+00     -0.880474D+00     -0.293694D+01
   y          0.462848D+00      0.117644D+01      0.392419D+01
   z         -0.319645D+00     -0.812456D+00     -0.271006D+01

 Dipole polarizability, Alpha (input orientation).
 (esu units = cm**3 , SI units = C**2 m**2 J**-1)
 Alpha(0;0):
               (au)            (10**-24 esu)      (10**-40 SI)
   iso        0.581242D+02      0.861312D+01      0.958339D+01
   aniso      0.224462D+02      0.332618D+01      0.370087D+01
   xx         0.723889D+02      0.107269D+02      0.119353D+02
   yx        -0.254662D+00     -0.377370D-01     -0.419881D-01
   yy         0.503084D+02      0.745494D+01      0.829473D+01
   zx         0.253664D+01      0.375892D+00      0.418236D+00
   zy        -0.289247D+01     -0.428620D+00     -0.476904D+00
   zz         0.516754D+02      0.765751D+01      0.852013D+01

 ----------------------------------------------------------------------

 Dipole orientation:
     6         -1.88124980         -2.04983602          0.91882874
     6         -0.08336635          0.00229338         -0.07566953
     9         -1.41936349          1.52021326         -1.61218009
     9          0.73141198          1.36743607          1.90189453
    16          2.85846010         -0.95583797         -2.00122021
     8          1.36211144         -2.81363203         -3.73769252
     8          4.13757731         -3.01525262         -4.24574347
     8          4.16826823         -2.31347982          0.33062989
     9         -3.06303491         -3.19244562         -0.95672194
     9         -0.54053346         -3.79768415          2.19589332
     9         -3.57466061         -1.08997134          2.48546892
     1          3.08779244         -3.54168245          1.15251845

 Electric dipole moment (dipole orientation):
 (Debye = 10**-18 statcoulomb cm , SI units = C m)
                  (au)            (Debye)         (10**-30 SI)
   Tot        0.660604D+00      0.167909D+01      0.560083D+01
   x          0.000000D+00      0.000000D+00      0.000000D+00
   y          0.000000D+00      0.000000D+00      0.000000D+00
   z          0.660604D+00      0.167909D+01      0.560083D+01

 Dipole polarizability, Alpha (dipole orientation).
 (esu units = cm**3 , SI units = C**2 m**2 J**-1)
 Alpha(0;0):
               (au)            (10**-24 esu)      (10**-40 SI)
   iso        0.581242D+02      0.861312D+01      0.958339D+01
   aniso      0.224462D+02      0.332618D+01      0.370087D+01
   xx         0.638207D+02      0.945725D+01      0.105226D+02
   yx        -0.542907D+01     -0.804506D+00     -0.895133D+00
   yy         0.504165D+02      0.747096D+01      0.831256D+01
   zx        -0.809160D+01     -0.119905D+01     -0.133412D+01
   zy         0.500430D+01      0.741560D+00      0.825097D+00
   zz         0.601355D+02      0.891116D+01      0.991501D+01

 ----------------------------------------------------------------------
 Unable to Open any file for archive entry.
 1\1\GINC-SPARTAN-BM208\Freq\RM062X\def2TZVPP\C2H1F5O3S1\AKHALILOV\24-M
 ay-2025\0\\#P Geom=AllCheck Guess=TCheck SCRF=Check GenChk RM062X/def2
 TZVPP Freq\\Gaussian input prepared by ASE\\0,1\C,-0.7974279455,0.8200
 538534,1.0467636529\C,-0.0152437494,-0.0397905837,0.0416581696\F,-0.36
 37334983,-1.322033619,0.2430163588\F,-0.3915940113,0.3167617412,-1.196
 9382762\S,1.9128821988,-0.0289852472,0.073618003\O,1.9930442639,-0.210
 9968043,1.6222678976\O,3.3569899739,0.0356810356,1.0569502438\O,2.0083
 841154,1.4879539168,-0.383546453\F,-0.636764957,0.3744366958,2.2785720
 04\F,-0.3447846869,2.0881420917,0.9957767721\F,-2.0879743051,0.8391341
 459,0.7596403081\H,1.4754306649,2.0860353083,0.1612009887\\Version=ES6
 4L-G16RevC.01\HF=-1199.7737795\RMSD=3.970e-09\RMSF=3.227e-06\ZeroPoint
 =0.0498179\Thermal=0.060629\ETot=-1199.7131505\HTot=-1199.7122063\GTot
 =-1199.7610152\Dipole=-0.3464051,0.4628479,-0.3196446\DipoleDeriv=1.67
 43393,0.0977682,0.0937785,-0.1952911,1.417269,-0.1298795,-0.241422,-0.
 1103818,1.3827347,0.4028704,0.1763751,0.1120601,0.495596,0.963583,-0.1
 090379,0.5204936,-0.1621031,0.9764681,-0.3989615,-0.2371847,0.0341613,
 -0.2929422,-0.8369051,0.0732129,0.0118973,0.0170404,-0.2676154,-0.4459
 438,0.044205,-0.219249,0.0497011,-0.2886541,0.0769774,-0.310878,0.1404
 264,-0.805648,2.1075546,-0.1333779,0.4967075,0.0214185,1.4178565,-0.30
 82047,0.7195662,-0.2871551,1.3126453,-0.5368702,0.0282565,-0.0658674,0
 .0515233,-0.2072937,-0.0357365,-0.1152741,0.1518346,-0.5858743,-0.7438
 363,0.0682885,-0.3524292,-0.107292,-0.273799,-0.0293529,-0.6769243,0.0
 451462,-0.5074198,-0.5460847,0.0609546,-0.0849439,-0.0806056,-1.147018
 8,0.3082191,-0.0076959,0.0358087,-0.3757373,-0.3250132,0.0308382,0.013
 546,0.056353,-0.3223168,0.1104949,0.0314274,0.1820998,-0.7920424,-0.46
 4378,-0.1125586,0.0705439,-0.1573633,-0.8245532,0.0344287,0.0772388,-0
 .0478446,-0.297225,-1.1319061,0.0381611,-0.1002729,0.1642147,-0.280600
 9,-0.0145428,0.004512,-0.028597,-0.3027898,0.4082295,-0.0617259,0.0019
 65,-0.0053122,0.382433,0.0234213,-0.0129409,0.0637256,0.262504\Polar=7
 2.3889101,-0.2546619,50.3083964,2.5366448,-2.8924704,51.6754333\PG=Unk
 nown\NImag=0\\0.59638111,-0.02941243,0.56095044,-0.01375556,0.00915729
 ,0.62183267,-0.10200404,0.02587596,0.02895727,0.43565250,0.05870118,-0
 .08915214,-0.05752027,0.00344574,0.53635763,0.06836738,-0.05731139,-0.
 10558999,0.01717566,0.01048132,0.53845186,0.00260345,0.00992943,0.0015
 0082,-0.09345413,-0.07802115,0.00556230,0.07683745,-0.02168573,-0.0495
 6947,0.01142730,-0.07220569,-0.29273687,0.00441182,0.08564709,0.393057
 86,-0.00953042,-0.01486864,0.00350692,0.00752601,0.01416854,-0.0674349
 0,-0.01172257,-0.04954869,0.07922065,0.00045680,0.00035286,0.00985153,
 -0.09584398,0.01573007,-0.08427967,0.01383147,0.00281501,0.00870573,0.
 08374832,-0.00677217,0.00543351,-0.00776462,0.01880774,-0.07348091,0.0
 4083110,0.00955333,-0.03246523,0.05617053,-0.02162229,0.09454231,-0.02
 239841,0.01988010,-0.04761729,-0.07262715,0.03129239,-0.28696686,0.002
 15249,0.04224599,-0.01979698,0.08894924,-0.08672617,0.37356112,-0.0142
 4925,0.01478916,0.02038911,-0.11540078,0.02012820,0.00882436,0.0102688
 6,0.00982295,-0.00053195,0.00631220,-0.00286720,0.00431476,0.25652208,
 0.01689408,0.02485462,0.00595529,0.01659775,-0.04196171,-0.02707814,-0
 .03064108,-0.02034621,0.00392924,0.00365245,-0.00150474,0.00913656,-0.
 01412679,0.45063337,0.01691306,0.00457870,0.02389392,0.00829650,-0.026
 02434,-0.05761542,0.00398974,0.00881448,0.00235464,-0.03054668,0.00594
 780,-0.01789106,0.06170792,-0.03151823,0.57523749,0.00246862,-0.000195
 70,0.00022749,0.01127257,-0.00410188,-0.02600586,-0.00428153,-0.002823
 75,0.00118446,-0.00875358,0.00184933,-0.00331984,-0.04168237,0.0065549
 4,-0.01232815,0.26011644,-0.00097382,-0.00030081,0.00121798,0.00206507
 ,-0.00048238,0.00196199,0.00194602,0.00339727,-0.00044255,0.00229462,0
 .00004081,0.00285431,0.01645968,-0.04173819,0.00946273,0.03673907,0.03
 407835,-0.00267075,-0.00011044,-0.00589883,0.01026523,-0.00201179,-0.0
 0709146,-0.00685114,-0.00661416,0.00128856,-0.00283904,0.00108307,0.00
 038061,-0.05722862,0.03477112,-0.37271136,-0.05664999,-0.04517153,0.38
 774182,-0.00021538,-0.00613976,-0.00785520,-0.00727617,0.01661095,0.00
 577500,0.00107487,-0.00299625,0.00055615,-0.00362129,-0.00008850,-0.00
 532184,-0.04850549,-0.00769214,-0.05800962,-0.21969467,-0.05386816,0.1
 1595395,0.28929910,-0.00231232,-0.00464782,-0.00369125,-0.00578188,0.0
 0830785,0.00833640,0.00135005,0.00030006,-0.00085052,0.00055596,0.0002
 7122,-0.00157317,-0.02075531,-0.03234109,-0.01110605,-0.04386296,-0.01
 012342,0.00674052,0.04434337,0.04523590,-0.00231657,-0.00437757,-0.010
 68944,-0.00305222,0.01477560,0.01548531,0.00017967,-0.00300252,-0.0001
 2092,0.00152458,-0.00088270,-0.00083531,-0.03399264,-0.01138058,-0.079
 22511,0.09880918,0.01179703,-0.01108276,-0.04559240,-0.02280228,0.0907
 1043,0.00414249,0.00466925,-0.00405458,0.00620750,-0.02691462,0.004184
 12,-0.01292454,-0.00937644,0.00103917,-0.00124729,-0.00152618,0.001033
 01,-0.06593500,0.01845828,0.01088012,0.00425763,-0.00781011,-0.0019107
 2,-0.00643563,0.02658219,-0.01302971,0.24023979,-0.00322583,-0.0181607
 8,-0.00316029,0.00752526,-0.01651563,0.01223648,-0.00801804,-0.0022107
 7,0.00087549,-0.00437196,0.00400713,-0.00604618,-0.02893721,-0.2759607
 6,0.05542602,0.00517350,0.01039287,0.01016367,0.00729774,-0.01101410,0
 .01522050,-0.15114516,0.48871480,-0.00243513,-0.00174803,-0.00077296,-
 0.00184742,0.00864412,-0.00277824,0.00361984,0.00313446,0.00057308,0.0
 0080168,-0.00306486,0.00497742,0.01539782,0.00483500,-0.06990152,-0.00
 411103,0.02089792,0.00488504,-0.00869644,0.02150148,-0.00875691,-0.172
 83935,0.08906175,0.24529581,-0.08046562,0.00817379,-0.00999059,0.00943
 527,-0.00680739,0.01024366,0.00036484,0.00187543,0.00034384,-0.0001659
 5,0.00193978,0.00563743,0.00025762,-0.00067632,-0.00364684,-0.00408918
 ,0.00040224,0.00147169,0.00002291,0.00074360,0.00143224,-0.00002521,-0
 .00055110,0.00037953,0.08925292,0.00812972,-0.09511669,0.06433830,-0.0
 0060175,0.00484823,-0.00591918,0.00080251,0.00394966,-0.00306228,0.000
 36330,-0.00000321,-0.00448936,-0.00064923,-0.00314099,0.00161932,0.000
 85961,0.00032830,-0.00037115,0.00011133,0.00043384,-0.00052548,-0.0008
 5994,0.00274531,0.00016130,-0.01357471,0.12335798,-0.00545342,0.053366
 64,-0.31873193,-0.00605007,0.02388999,-0.03788430,-0.00073638,-0.00365
 432,0.00255876,0.00505487,-0.00505644,-0.01081937,-0.00737873,0.000044
 96,-0.00738484,0.00139587,-0.00064044,0.00253051,0.00281443,0.00080801
 ,0.00376830,0.00187025,-0.00076270,0.00031034,0.04543799,-0.12514755,0
 .41195278,-0.08464856,-0.03701196,0.00010060,0.00678751,0.00507737,-0.
 00019518,0.00126821,0.00368706,0.00132030,0.00083637,0.00031846,0.0011
 2551,-0.00090278,-0.00921747,0.00046782,-0.00025045,0.00059742,-0.0005
 1117,0.00016174,0.00116131,-0.00002564,-0.00694598,0.00727062,0.003807
 89,0.01124062,-0.01030638,0.00922351,0.12028532,-0.03638582,-0.2604763
 7,-0.02040658,-0.01865843,-0.03835723,0.01081741,0.00556066,-0.0097215
 9,-0.00691021,0.00087485,0.00268579,-0.00599567,-0.00694959,-0.0086894
 3,0.00045001,0.00056425,-0.00005729,0.00002762,0.00177012,0.00170289,0
 .00087055,-0.00067431,0.01014540,0.00042310,-0.00940823,-0.04513252,0.
 04323902,0.09676945,0.36512598,0.00215356,-0.01633326,-0.07818430,-0.0
 0639733,-0.01647569,0.00732890,0.00163869,-0.00681447,-0.00225085,0.00
 021577,-0.00019216,0.00214947,-0.00224633,0.00289757,-0.00353220,0.000
 21862,0.00005788,0.00128234,0.00076845,-0.00009790,0.00125444,0.004918
 56,-0.00222774,-0.00056918,0.01141020,0.05936992,-0.01441022,-0.005705
 99,-0.01193973,0.07762725,-0.31871669,0.02351242,-0.02730002,-0.057161
 80,0.00017760,-0.00923175,0.00542980,0.00361488,0.00053684,0.00632755,
 -0.00082063,0.00149441,0.00782246,0.00524802,0.00693662,0.00019276,0.0
 0059965,-0.00058603,-0.00374252,-0.00163045,-0.00366510,-0.00085005,-0
 .00187027,0.00087624,-0.02572211,0.01332921,-0.04410248,-0.04847495,-0
 .04235157,-0.00738431,0.43343595,0.02024760,-0.07766641,-0.00140595,0.
 02640841,0.00264814,0.00185527,-0.00076207,0.00405303,0.00063041,-0.00
 139606,0.00071555,-0.00088311,-0.00382440,-0.00533722,-0.00352721,-0.0
 0021509,-0.00011091,0.00039067,0.00189595,0.00121413,0.00181923,-0.000
 54501,0.00336232,0.00024394,0.01751661,0.00854224,0.01395007,-0.060941
 44,-0.01310560,-0.00658891,-0.00037780,0.07649607,-0.03193589,0.000807
 90,-0.08365769,0.01924697,-0.00149519,0.00252951,-0.00055312,-0.000852
 60,0.00069843,0.00306580,-0.00090609,0.00445592,-0.00343530,-0.0029435
 9,-0.00462119,-0.00012815,-0.00019220,0.00102219,0.00161754,0.00092638
 ,0.00212262,0.00015030,0.00151396,0.00034964,-0.06261348,0.01493387,-0
 .03166106,-0.00944904,-0.00607254,0.01153094,0.08341820,-0.00534000,0.
 09796589,-0.00575294,-0.01454302,0.00192912,0.00178556,-0.00402606,-0.
 00042001,-0.00101876,0.00162545,0.00057244,-0.00188062,0.00122832,-0.0
 0103962,0.00549244,-0.00505171,-0.00466048,0.00044375,0.00154832,0.001
 55659,-0.00106747,-0.00039355,-0.00027138,-0.16048371,0.17085246,0.165
 04637,-0.00010611,0.00239634,-0.00207584,0.00064295,0.00888862,0.00041
 010,0.00145959,0.00199330,0.00061618,0.16048532,-0.00320447,0.00385192
 ,0.00185280,-0.00347817,0.00052502,-0.00062308,0.00265326,0.00229227,-
 0.00009132,0.00075120,-0.00024223,0.00030430,0.01690974,-0.04446765,-0
 .01412324,-0.00054131,0.00457541,0.00110237,-0.00124466,0.00066052,-0.
 00151179,0.14914205,-0.19550579,-0.14409018,0.00036627,-0.00081213,-0.
 00003723,0.00259557,-0.00412003,-0.00165551,0.00056895,-0.00081134,-0.
 00037989,-0.16451845,0.23405402,0.00306214,0.00695871,0.00190891,-0.00
 149347,0.00027533,0.00156557,0.00121968,0.00045273,-0.00059739,-0.0005
 0381,0.00056053,-0.00159767,-0.00582041,0.01135080,0.01139665,0.000707
 40,-0.00180312,-0.00234666,-0.00201001,0.00180836,-0.00263064,0.167758
 84,-0.17230098,-0.17361253,-0.00010566,-0.00090773,-0.00022898,-0.0001
 5861,-0.00450297,-0.00222659,-0.00099261,-0.00114441,-0.00073519,-0.16
 166347,0.15925277,0.16910452\\-0.00000030,0.00000026,-0.00000067,0.000
 00065,-0.00000292,0.00000223,0.00000262,-0.00000249,0.00000735,-0.0000
 0011,-0.00000806,0.00000107,0.00000111,0.00000036,0.00000180,0.0000012
 5,0.00000624,0.00000269,0.00000074,0.00000588,0.00000095,-0.00000183,-
 0.00000126,-0.00000386,0.00000083,0.00000492,0.00000091,-0.00000219,0.
 00000030,-0.00000565,-0.00000037,-0.00000311,-0.00000044,-0.00000240,-
 0.00000011,-0.00000637\\\@
 The archive entry for this job was punched.


 We make a living by what we get,
 we make a life by what we give.
                   -- Sir Winston Churchill
 Job cpu time:       0 days  0 hours 38 minutes  0.6 seconds.
 Elapsed time:       0 days  0 hours  4 minutes 51.8 seconds.
 File lengths (MBytes):  RWF=    164 Int=      0 D2E=      0 Chk=     11 Scr=      1
 Normal termination of Gaussian 16 at Sat May 24 06:44:08 2025.
done
