 Entering Gaussian System, Link 0=g16
 Initial command:
 /apps/easybuild-2022/easybuild/software/Compiler/NVHPC/22.11-CUDA-11.7.0/Gaussian/g16c01-CUDA-11.7.0/g16/l1.exe "/tmp/Gau-88047.inp" -scrdir="/tmp/"
 Entering Link 1 = /apps/easybuild-2022/easybuild/software/Compiler/NVHPC/22.11-CUDA-11.7.0/Gaussian/g16c01-CUDA-11.7.0/g16/l1.exe PID=     88048.
  
 Copyright (c) 1988-2019, Gaussian, Inc.  All Rights Reserved.
  
 This is part of the Gaussian(R) 16 program.  It is based on
 the Gaussian(R) 09 system (copyright 2009, Gaussian, Inc.),
 the Gaussian(R) 03 system (copyright 2003, Gaussian, Inc.),
 the Gaussian(R) 98 system (copyright 1998, Gaussian, Inc.),
 the Gaussian(R) 94 system (copyright 1995, Gaussian, Inc.),
 the Gaussian 92(TM) system (copyright 1992, Gaussian, Inc.),
 the Gaussian 90(TM) system (copyright 1990, Gaussian, Inc.),
 the Gaussian 88(TM) system (copyright 1988, Gaussian, Inc.),
 the Gaussian 86(TM) system (copyright 1986, Carnegie Mellon
 University), and the Gaussian 82(TM) system (copyright 1983,
 Carnegie Mellon University). Gaussian is a federally registered
 trademark of Gaussian, Inc.
  
 This software contains proprietary and confidential information,
 including trade secrets, belonging to Gaussian, Inc.
  
 This software is provided under written license and may be
 used, copied, transmitted, or stored only in accord with that
 written license.
  
 The following legend is applicable only to US Government
 contracts under FAR:
  
                    RESTRICTED RIGHTS LEGEND
  
 Use, reproduction and disclosure by the US Government is
 subject to restrictions as set forth in subparagraphs (a)
 and (c) of the Commercial Computer Software - Restricted
 Rights clause in FAR 52.227-19.
  
 Gaussian, Inc.
 340 Quinnipiac St., Bldg. 40, Wallingford CT 06492
  
  
 ---------------------------------------------------------------
 Warning -- This program may not be used in any manner that
 competes with the business of Gaussian, Inc. or will provide
 assistance to any competitor of Gaussian, Inc.  The licensee
 of this program is prohibited from giving any competitor of
 Gaussian, Inc. access to this program.  By using this program,
 the user acknowledges that Gaussian, Inc. is engaged in the
 business of creating and licensing software in the field of
 computational chemistry and represents and warrants to the
 licensee that it is not a competitor of Gaussian, Inc. and that
 it will not use this program in any manner prohibited above.
 ---------------------------------------------------------------
  

 Cite this work as:
 Gaussian 16, Revision C.01,
 M. J. Frisch, G. W. Trucks, H. B. Schlegel, G. E. Scuseria, 
 M. A. Robb, J. R. Cheeseman, G. Scalmani, V. Barone, 
 G. A. Petersson, H. Nakatsuji, X. Li, M. Caricato, A. V. Marenich, 
 J. Bloino, B. G. Janesko, R. Gomperts, B. Mennucci, H. P. Hratchian, 
 J. V. Ortiz, A. F. Izmaylov, J. L. Sonnenberg, D. Williams-Young, 
 F. Ding, F. Lipparini, F. Egidi, J. Goings, B. Peng, A. Petrone, 
 T. Henderson, D. Ranasinghe, V. G. Zakrzewski, J. Gao, N. Rega, 
 G. Zheng, W. Liang, M. Hada, M. Ehara, K. Toyota, R. Fukuda, 
 J. Hasegawa, M. Ishida, T. Nakajima, Y. Honda, O. Kitao, H. Nakai, 
 T. Vreven, K. Throssell, J. A. Montgomery, Jr., J. E. Peralta, 
 F. Ogliaro, M. J. Bearpark, J. J. Heyd, E. N. Brothers, K. N. Kudin, 
 V. N. Staroverov, T. A. Keith, R. Kobayashi, J. Normand, 
 K. Raghavachari, A. P. Rendell, J. C. Burant, S. S. Iyengar, 
 J. Tomasi, M. Cossi, J. M. Millam, M. Klene, C. Adamo, R. Cammi, 
 J. W. Ochterski, R. L. Martin, K. Morokuma, O. Farkas, 
 J. B. Foresman, and D. J. Fox, Gaussian, Inc., Wallingford CT, 2019.
 
 ******************************************
 Gaussian 16:  ES64L-G16RevC.01  3-Jul-2019
                24-May-2025 
 ******************************************
 %mem=28GB
 %nprocshared=8
 Will use up to    8 processors via shared memory.
 ----------------------------------------------------------------------
 #P M062X/Def2TZVPP Symm(None) scf(xqc) pop(None) freq opt(CalcFC, Tigh
 t)
 ----------------------------------------------------------------------
 1/7=10,10=4,18=20,19=15,26=3,38=1/1,3;
 2/9=110,12=2,15=3,17=6,18=5,40=1/2;
 3/5=44,7=202,11=2,25=1,30=1,71=2,74=-55,140=1/1,2,3;
 4//1;
 5/5=2,8=3,13=1,38=5/2,8;
 8/6=4,10=90,11=11/1;
 11/6=1,8=1,9=11,15=111,16=1,31=1/1,2,10;
 10/6=1,13=1,31=1/2;
 7/10=1,25=1,30=1/1,2,3,16;
 1/7=10,10=4,18=20,19=15,26=3/3(2);
 2/9=110,15=3/2;
 99//99;
 2/9=110,15=3/2;
 3/5=44,7=202,11=2,25=1,30=1,71=1,74=-55/1,2,3;
 4/5=5,16=3,69=1/1;
 5/5=2,8=3,13=1,38=5/2,8;
 7/30=1/1,2,3,16;
 1/7=10,18=20,19=15,26=3/3(-5);
 2/9=110,15=3/2;
 99/9=1/99;
 Leave Link    1 at Sat May 24 06:00:17 2025, MaxMem=  3758096384 cpu:               0.1 elap:               0.0
 (Enter /apps/easybuild-2022/easybuild/software/Compiler/NVHPC/22.11-CUDA-11.7.0/Gaussian/g16c01-CUDA-11.7.0/g16/l101.exe)
 ------------------------------
 Gaussian input prepared by ASE
 ------------------------------
 Symbolic Z-matrix:
 Charge =  0 Multiplicity = 1
 C                     0.2248   -0.22503   1.53801 
 C                     0.        0.        0. 
 F                    -0.59793  -0.98096  -0.62546 
 F                    -0.59241   1.12876  -0.29945 
 S                     1.93056   0.        0. 
 O                     1.61673  -0.20944   1.58678 
 O                     3.2798   -0.2861   -0.38756 
 O                     2.06976   1.63414   0. 
 F                     1.43594  -1.56014  -0.28584 
 F                    -0.28084   0.75193   2.27184 
 F                    -0.25439  -1.37854   1.96609 
 H                     1.63551   1.97431  -0.792 
 
 ITRead=  0  0  0  0  0  0  0  0  0  0  0  0
 MicOpt= -1 -1 -1 -1 -1 -1 -1 -1 -1 -1 -1 -1
 NAtoms=     12 NQM=       12 NQMF=       0 NMMI=      0 NMMIF=      0
                NMic=       0 NMicF=      0.
                    Isotopes and Nuclear Properties:
 (Nuclear quadrupole moments (NQMom) in fm**2, nuclear magnetic moments (NMagM)
  in nuclear magnetons)

  Atom         1           2           3           4           5           6           7           8           9          10
 IAtWgt=          12          12          19          19          32          16          16          16          19          19
 AtmWgt=  12.0000000  12.0000000  18.9984032  18.9984032  31.9720718  15.9949146  15.9949146  15.9949146  18.9984032  18.9984032
 NucSpn=           0           0           1           1           0           0           0           0           1           1
 AtZEff=  -0.0000000  -0.0000000  -0.0000000  -0.0000000  -0.0000000  -0.0000000  -0.0000000  -0.0000000  -0.0000000  -0.0000000
 NQMom=    0.0000000   0.0000000   0.0000000   0.0000000   0.0000000   0.0000000   0.0000000   0.0000000   0.0000000   0.0000000
 NMagM=    0.0000000   0.0000000   2.6288670   2.6288670   0.0000000   0.0000000   0.0000000   0.0000000   2.6288670   2.6288670
 AtZNuc=   6.0000000   6.0000000   9.0000000   9.0000000  16.0000000   8.0000000   8.0000000   8.0000000   9.0000000   9.0000000

  Atom        11          12
 IAtWgt=          19           1
 AtmWgt=  18.9984032   1.0078250
 NucSpn=           1           1
 AtZEff=  -0.0000000  -0.0000000
 NQMom=    0.0000000   0.0000000
 NMagM=    2.6288670   2.7928460
 AtZNuc=   9.0000000   1.0000000
 Leave Link  101 at Sat May 24 06:00:17 2025, MaxMem=  3758096384 cpu:               0.2 elap:               0.2
 (Enter /apps/easybuild-2022/easybuild/software/Compiler/NVHPC/22.11-CUDA-11.7.0/Gaussian/g16c01-CUDA-11.7.0/g16/l103.exe)

 GradGradGradGradGradGradGradGradGradGradGradGradGradGradGradGradGradGrad
 Berny optimization.
 Initialization pass.
                           ----------------------------
                           !    Initial Parameters    !
                           ! (Angstroms and Degrees)  !
 --------------------------                            --------------------------
 ! Name  Definition              Value          Derivative Info.                !
 --------------------------------------------------------------------------------
 ! R1    R(1,2)                  1.5706         calculate D2E/DX2 analytically  !
 ! R2    R(1,6)                  1.3929         calculate D2E/DX2 analytically  !
 ! R3    R(1,10)                 1.3224         calculate D2E/DX2 analytically  !
 ! R4    R(1,11)                 1.3204         calculate D2E/DX2 analytically  !
 ! R5    R(2,3)                  1.3081         calculate D2E/DX2 analytically  !
 ! R6    R(2,4)                  1.3095         calculate D2E/DX2 analytically  !
 ! R7    R(2,5)                  1.9306         calculate D2E/DX2 analytically  !
 ! R8    R(5,6)                  1.631          calculate D2E/DX2 analytically  !
 ! R9    R(5,7)                  1.4327         calculate D2E/DX2 analytically  !
 ! R10   R(5,8)                  1.6401         calculate D2E/DX2 analytically  !
 ! R11   R(5,9)                  1.6614         calculate D2E/DX2 analytically  !
 ! R12   R(8,12)                 0.9652         calculate D2E/DX2 analytically  !
 ! A1    A(2,1,6)              100.1207         calculate D2E/DX2 analytically  !
 ! A2    A(2,1,10)             112.5108         calculate D2E/DX2 analytically  !
 ! A3    A(2,1,11)             112.9985         calculate D2E/DX2 analytically  !
 ! A4    A(6,1,10)             110.758          calculate D2E/DX2 analytically  !
 ! A5    A(6,1,11)             111.1674         calculate D2E/DX2 analytically  !
 ! A6    A(10,1,11)            109.0707         calculate D2E/DX2 analytically  !
 ! A7    A(1,2,3)              115.229          calculate D2E/DX2 analytically  !
 ! A8    A(1,2,4)              114.3429         calculate D2E/DX2 analytically  !
 ! A9    A(1,2,5)               81.7707         calculate D2E/DX2 analytically  !
 ! A10   A(3,2,4)              109.2867         calculate D2E/DX2 analytically  !
 ! A11   A(3,2,5)              117.2012         calculate D2E/DX2 analytically  !
 ! A12   A(4,2,5)              116.8981         calculate D2E/DX2 analytically  !
 ! A13   A(2,5,6)               78.9065         calculate D2E/DX2 analytically  !
 ! A14   A(2,5,7)              160.3519         calculate D2E/DX2 analytically  !
 ! A15   A(2,5,8)               94.869          calculate D2E/DX2 analytically  !
 ! A16   A(2,5,9)               72.6803         calculate D2E/DX2 analytically  !
 ! A17   A(6,5,7)              114.7553         calculate D2E/DX2 analytically  !
 ! A18   A(6,5,8)               98.2954         calculate D2E/DX2 analytically  !
 ! A19   A(6,5,9)               89.3994         calculate D2E/DX2 analytically  !
 ! A20   A(7,5,8)               96.8368         calculate D2E/DX2 analytically  !
 ! A21   A(7,5,9)               92.6541         calculate D2E/DX2 analytically  !
 ! A22   A(8,5,9)              163.9266         calculate D2E/DX2 analytically  !
 ! A23   A(1,6,5)               99.1868         calculate D2E/DX2 analytically  !
 ! A24   A(5,8,12)             108.2397         calculate D2E/DX2 analytically  !
 ! D1    D(6,1,2,3)            117.1987         calculate D2E/DX2 analytically  !
 ! D2    D(6,1,2,4)           -114.9275         calculate D2E/DX2 analytically  !
 ! D3    D(6,1,2,5)              0.9396         calculate D2E/DX2 analytically  !
 ! D4    D(10,1,2,3)          -125.1756         calculate D2E/DX2 analytically  !
 ! D5    D(10,1,2,4)             2.6982         calculate D2E/DX2 analytically  !
 ! D6    D(10,1,2,5)           118.5653         calculate D2E/DX2 analytically  !
 ! D7    D(11,1,2,3)            -1.1111         calculate D2E/DX2 analytically  !
 ! D8    D(11,1,2,4)           126.7628         calculate D2E/DX2 analytically  !
 ! D9    D(11,1,2,5)          -117.3701         calculate D2E/DX2 analytically  !
 ! D10   D(2,1,6,5)             -1.115          calculate D2E/DX2 analytically  !
 ! D11   D(10,1,6,5)          -120.0335         calculate D2E/DX2 analytically  !
 ! D12   D(11,1,6,5)           118.536          calculate D2E/DX2 analytically  !
 ! D13   D(1,2,5,6)             -0.8049         calculate D2E/DX2 analytically  !
 ! D14   D(1,2,5,7)            135.2411         calculate D2E/DX2 analytically  !
 ! D15   D(1,2,5,8)            -98.3238         calculate D2E/DX2 analytically  !
 ! D16   D(1,2,5,9)             92.0585         calculate D2E/DX2 analytically  !
 ! D17   D(3,2,5,6)           -115.003          calculate D2E/DX2 analytically  !
 ! D18   D(3,2,5,7)             21.0431         calculate D2E/DX2 analytically  !
 ! D19   D(3,2,5,8)            147.4781         calculate D2E/DX2 analytically  !
 ! D20   D(3,2,5,9)            -22.1396         calculate D2E/DX2 analytically  !
 ! D21   D(4,2,5,6)            112.3765         calculate D2E/DX2 analytically  !
 ! D22   D(4,2,5,7)           -111.5774         calculate D2E/DX2 analytically  !
 ! D23   D(4,2,5,8)             14.8576         calculate D2E/DX2 analytically  !
 ! D24   D(4,2,5,9)           -154.7601         calculate D2E/DX2 analytically  !
 ! D25   D(2,5,6,1)              0.91           calculate D2E/DX2 analytically  !
 ! D26   D(7,5,6,1)           -164.1982         calculate D2E/DX2 analytically  !
 ! D27   D(8,5,6,1)             94.2821         calculate D2E/DX2 analytically  !
 ! D28   D(9,5,6,1)            -71.5524         calculate D2E/DX2 analytically  !
 ! D29   D(2,5,8,12)           -59.7674         calculate D2E/DX2 analytically  !
 ! D30   D(6,5,8,12)          -139.2387         calculate D2E/DX2 analytically  !
 ! D31   D(7,5,8,12)           104.4222         calculate D2E/DX2 analytically  !
 ! D32   D(9,5,8,12)           -21.3494         calculate D2E/DX2 analytically  !
 --------------------------------------------------------------------------------
 Trust Radius=3.00D-01 FncErr=1.00D-07 GrdErr=1.00D-06 EigMax=2.50D+02 EigMin=1.00D-04
 Number of steps in this run=     78 maximum allowed number of steps=    100.
 GradGradGradGradGradGradGradGradGradGradGradGradGradGradGradGradGradGrad

 Leave Link  103 at Sat May 24 06:00:17 2025, MaxMem=  3758096384 cpu:               0.1 elap:               0.0
 (Enter /apps/easybuild-2022/easybuild/software/Compiler/NVHPC/22.11-CUDA-11.7.0/Gaussian/g16c01-CUDA-11.7.0/g16/l202.exe)
                          Input orientation:                          
 ---------------------------------------------------------------------
 Center     Atomic      Atomic             Coordinates (Angstroms)
 Number     Number       Type             X           Y           Z
 ---------------------------------------------------------------------
      1          6           0        0.224802   -0.225025    1.538009
      2          6           0        0.000000    0.000000    0.000000
      3          9           0       -0.597932   -0.980955   -0.625465
      4          9           0       -0.592411    1.128760   -0.299445
      5         16           0        1.930556    0.000000    0.000000
      6          8           0        1.616732   -0.209436    1.586777
      7          8           0        3.279804   -0.286100   -0.387560
      8          8           0        2.069760    1.634137    0.000000
      9          9           0        1.435939   -1.560144   -0.285842
     10          9           0       -0.280841    0.751934    2.271844
     11          9           0       -0.254392   -1.378542    1.966090
     12          1           0        1.635508    1.974315   -0.792000
 ---------------------------------------------------------------------
                    Distance matrix (angstroms):
                    1          2          3          4          5
     1  C    0.000000
     2  C    1.570555   0.000000
     3  F    2.434942   1.308053   0.000000
     4  F    2.424213   1.309472   2.134764   0.000000
     5  S    2.307748   1.930556   2.783295   2.780131   0.000000
     6  O    1.392871   2.274983   3.223972   3.198267   1.631015
     7  O    3.611729   3.314992   3.946677   4.123547   1.432664
     8  O    3.037404   2.637102   3.787676   2.726211   1.640055
     9  F    2.564338   2.139550   2.141830   3.368173   1.661445
    10  F    1.322361   2.409472   3.390848   2.617366   3.258367
    11  F    1.320410   2.414664   2.644286   3.396096   3.246519
    12  H    3.500875   2.683294   3.708046   2.433351   2.147611
                    6          7          8          9         10
     6  O    0.000000
     7  O    2.582575   0.000000
     8  O    2.474238   2.302546   0.000000
     9  F    2.315988   2.243518   3.269077   0.000000
    10  F    2.234800   4.563786   3.385983   3.851597   0.000000
    11  F    2.238703   4.384477   4.282922   2.821594   2.152467
    12  H    3.229194   2.824315   0.965173   3.576090   3.814937
                   11         12
    11  F    0.000000
    12  H    4.735021   0.000000
 Symmetry turned off by external request.
 Stoichiometry    C2HF5O3S
 Rotational constants (GHZ):           1.4437220           0.9674374           0.9429103
 Leave Link  202 at Sat May 24 06:00:17 2025, MaxMem=  3758096384 cpu:               0.1 elap:               0.0
 (Enter /apps/easybuild-2022/easybuild/software/Compiler/NVHPC/22.11-CUDA-11.7.0/Gaussian/g16c01-CUDA-11.7.0/g16/l301.exe)
 Standard basis: def2TZVPP (5D, 7F)
 Ernie: Thresh=  0.10000D-02 Tol=  0.10000D-05 Strict=F.
   366 basis functions,   596 primitive gaussians,   423 cartesian basis functions
    49 alpha electrons       49 beta electrons
       nuclear repulsion energy       960.2709602744 Hartrees.
 IExCor= 4336 DFT=T Ex+Corr=M062X ExCW=0 ScaHFX=  0.540000
 ScaDFX=  1.000000  1.000000  1.000000  1.000000 ScalE2=  1.000000  1.000000
 IRadAn=      5 IRanWt=     -1 IRanGd=            0 ICorTp=0 IEmpDi=  4
 NAtoms=   12 NActive=   12 NUniq=   12 SFac= 1.00D+00 NAtFMM=   60 NAOKFM=F Big=F
 Integral buffers will be    131072 words long.
 Raffenetti 2 integral format.
 Two-electron integral symmetry is turned off.
 Leave Link  301 at Sat May 24 06:00:17 2025, MaxMem=  3758096384 cpu:               0.0 elap:               0.0
 (Enter /apps/easybuild-2022/easybuild/software/Compiler/NVHPC/22.11-CUDA-11.7.0/Gaussian/g16c01-CUDA-11.7.0/g16/l302.exe)
 NPDir=0 NMtPBC=     1 NCelOv=     1 NCel=       1 NClECP=     1 NCelD=      1
         NCelK=      1 NCelE2=     1 NClLst=     1 CellRange=     0.0.
 One-electron integrals computed using PRISM.
   1 Symmetry operations used in ECPInt.
 ECPInt:  NShTT=    8515 NPrTT=   27988 LenC2=    8097 LenP2D=   19849.
 LDataN:  DoStor=T MaxTD1= 6 Len=  172
 NBasis=   366 RedAO= T EigKep=  2.64D-04  NBF=   366
 NBsUse=   366 1.00D-06 EigRej= -1.00D+00 NBFU=   366
 Precomputing XC quadrature grid using
 IXCGrd= 4 IRadAn=           5 IRanWt=          -1 IRanGd=           0 AccXCQ= 0.00D+00.
 Generated NRdTot=       0 NPtTot=           0 NUsed=           0 NTot=          32
 NSgBfM=   420   419   419   420   420 MxSgAt=    12 MxSgA2=    12.
 Leave Link  302 at Sat May 24 06:00:17 2025, MaxMem=  3758096384 cpu:               0.8 elap:               0.2
 (Enter /apps/easybuild-2022/easybuild/software/Compiler/NVHPC/22.11-CUDA-11.7.0/Gaussian/g16c01-CUDA-11.7.0/g16/l303.exe)
 DipDrv:  MaxL=1.
 Leave Link  303 at Sat May 24 06:00:17 2025, MaxMem=  3758096384 cpu:               0.1 elap:               0.0
 (Enter /apps/easybuild-2022/easybuild/software/Compiler/NVHPC/22.11-CUDA-11.7.0/Gaussian/g16c01-CUDA-11.7.0/g16/l401.exe)
 ExpMin= 9.52D-02 ExpMax= 6.07D+04 ExpMxC= 2.07D+03 IAcc=3 IRadAn=         5 AccDes= 0.00D+00
 Harris functional with IExCor= 1009 and IRadAn=       5 diagonalized for initial guess.
 HarFok:  IExCor= 1009 AccDes= 0.00D+00 IRadAn=         5 IDoV= 1 UseB2=F ITyADJ=14
 ICtDFT=  3500011 ScaDFX=  1.000000  1.000000  1.000000  1.000000
 FoFCou: FMM=F IPFlag=           0 FMFlag=      100000 FMFlg1=           0
         NFxFlg=           0 DoJE=T BraDBF=F KetDBF=T FulRan=T
         wScrn=  0.000000 ICntrl=       500 IOpCl=  0 I1Cent=   200000004 NGrid=           0
         NMat0=    1 NMatS0=      1 NMatT0=    0 NMatD0=    1 NMtDS0=    0 NMtDT0=    0
 Symmetry not used in FoFCou.
 Harris En= -1199.25026227205    
 JPrj=0 DoOrth=F DoCkMO=F.
 Leave Link  401 at Sat May 24 06:00:18 2025, MaxMem=  3758096384 cpu:               4.6 elap:               0.6
 (Enter /apps/easybuild-2022/easybuild/software/Compiler/NVHPC/22.11-CUDA-11.7.0/Gaussian/g16c01-CUDA-11.7.0/g16/l502.exe)
 Keep R1 ints in memory in canonical form, NReq=2293447020.
 FoFCou: FMM=F IPFlag=           0 FMFlag=           0 FMFlg1=           0
         NFxFlg=           0 DoJE=F BraDBF=F KetDBF=F FulRan=T
         wScrn=  0.000000 ICntrl=       600 IOpCl=  0 I1Cent=           0 NGrid=           0
         NMat0=    1 NMatS0=  67161 NMatT0=    0 NMatD0=    1 NMtDS0=    0 NMtDT0=    0
 Symmetry not used in FoFCou.
 Two-electron integral symmetry not used.
 Closed shell SCF:
 Using DIIS extrapolation, IDIIS=  1040.
 NGot=  3758096384 LenX=  1502398648 LenY=  1502219278
 Requested convergence on RMS density matrix=1.00D-08 within  32 cycles.
 Requested convergence on MAX density matrix=1.00D-06.
 Requested convergence on             energy=1.00D-06.
 No special actions if energy rises.
 Integral accuracy reduced to 1.0D-05 until final iterations.

 Cycle   1  Pass 0  IDiag  1:
 E= -1199.47641681181    
 DIIS: error= 2.29D-02 at cycle   1 NSaved=   1.
 NSaved= 1 IEnMin= 1 EnMin= -1199.47641681181     IErMin= 1 ErrMin= 2.29D-02
 ErrMax= 2.29D-02  0.00D+00 EMaxC= 1.00D-01 BMatC= 6.45D-01 BMatP= 6.45D-01
 IDIUse=3 WtCom= 7.71D-01 WtEn= 2.29D-01
 Coeff-Com:  0.100D+01
 Coeff-En:   0.100D+01
 Coeff:      0.100D+01
 Gap=     0.335 Goal=   None    Shift=    0.000
 GapD=    0.335 DampG=1.000 DampE=0.500 DampFc=0.5000 IDamp=-1.
 Damping current iteration by 5.00D-01
 RMSDP=2.91D-03 MaxDP=3.06D-01              OVMax= 2.90D-01

 Cycle   2  Pass 0  IDiag  1:
 E= -1199.57644287441     Delta-E=       -0.100026062602 Rises=F Damp=T
 DIIS: error= 8.60D-03 at cycle   2 NSaved=   2.
 NSaved= 2 IEnMin= 2 EnMin= -1199.57644287441     IErMin= 2 ErrMin= 8.60D-03
 ErrMax= 8.60D-03  0.00D+00 EMaxC= 1.00D-01 BMatC= 6.90D-02 BMatP= 6.45D-01
 IDIUse=3 WtCom= 9.14D-01 WtEn= 8.60D-02
 Coeff-Com:  0.131D+00 0.869D+00
 Coeff-En:   0.328D+00 0.672D+00
 Coeff:      0.148D+00 0.852D+00
 Gap=     0.360 Goal=   None    Shift=    0.000
 RMSDP=7.90D-04 MaxDP=6.54D-02 DE=-1.00D-01 OVMax= 1.74D-01

 Cycle   3  Pass 0  IDiag  1:
 E= -1199.80407195185     Delta-E=       -0.227629077441 Rises=F Damp=F
 DIIS: error= 5.19D-03 at cycle   3 NSaved=   3.
 NSaved= 3 IEnMin= 3 EnMin= -1199.80407195185     IErMin= 3 ErrMin= 5.19D-03
 ErrMax= 5.19D-03  0.00D+00 EMaxC= 1.00D-01 BMatC= 1.86D-02 BMatP= 6.90D-02
 IDIUse=3 WtCom= 9.48D-01 WtEn= 5.19D-02
 Coeff-Com: -0.388D-01 0.289D+00 0.750D+00
 Coeff-En:   0.000D+00 0.000D+00 0.100D+01
 Coeff:     -0.368D-01 0.274D+00 0.763D+00
 Gap=     0.351 Goal=   None    Shift=    0.000
 RMSDP=3.69D-04 MaxDP=1.95D-02 DE=-2.28D-01 OVMax= 4.61D-02

 Cycle   4  Pass 0  IDiag  1:
 E= -1199.81305166695     Delta-E=       -0.008979715094 Rises=F Damp=F
 DIIS: error= 3.94D-03 at cycle   4 NSaved=   4.
 NSaved= 4 IEnMin= 4 EnMin= -1199.81305166695     IErMin= 4 ErrMin= 3.94D-03
 ErrMax= 3.94D-03  0.00D+00 EMaxC= 1.00D-01 BMatC= 7.31D-03 BMatP= 1.86D-02
 IDIUse=3 WtCom= 9.61D-01 WtEn= 3.94D-02
 Coeff-Com: -0.355D-01 0.793D-01 0.440D+00 0.516D+00
 Coeff-En:   0.000D+00 0.000D+00 0.247D+00 0.753D+00
 Coeff:     -0.341D-01 0.762D-01 0.433D+00 0.525D+00
 Gap=     0.346 Goal=   None    Shift=    0.000
 RMSDP=1.45D-04 MaxDP=7.28D-03 DE=-8.98D-03 OVMax= 2.07D-02

 Cycle   5  Pass 0  IDiag  1:
 E= -1199.81764533034     Delta-E=       -0.004593663390 Rises=F Damp=F
 DIIS: error= 4.51D-04 at cycle   5 NSaved=   5.
 NSaved= 5 IEnMin= 5 EnMin= -1199.81764533034     IErMin= 5 ErrMin= 4.51D-04
 ErrMax= 4.51D-04  0.00D+00 EMaxC= 1.00D-01 BMatC= 1.70D-04 BMatP= 7.31D-03
 IDIUse=3 WtCom= 9.95D-01 WtEn= 4.51D-03
 Coeff-Com: -0.973D-02 0.135D-01 0.115D+00 0.204D+00 0.677D+00
 Coeff-En:   0.000D+00 0.000D+00 0.000D+00 0.000D+00 0.100D+01
 Coeff:     -0.968D-02 0.134D-01 0.115D+00 0.203D+00 0.679D+00
 Gap=     0.344 Goal=   None    Shift=    0.000
 RMSDP=3.27D-05 MaxDP=1.26D-03 DE=-4.59D-03 OVMax= 2.70D-03

 Cycle   6  Pass 0  IDiag  1:
 E= -1199.81775931407     Delta-E=       -0.000113983733 Rises=F Damp=F
 DIIS: error= 1.45D-04 at cycle   6 NSaved=   6.
 NSaved= 6 IEnMin= 6 EnMin= -1199.81775931407     IErMin= 6 ErrMin= 1.45D-04
 ErrMax= 1.45D-04  0.00D+00 EMaxC= 1.00D-01 BMatC= 1.39D-05 BMatP= 1.70D-04
 IDIUse=3 WtCom= 9.99D-01 WtEn= 1.45D-03
 Coeff-Com: -0.116D-02-0.522D-03 0.742D-02 0.344D-01 0.266D+00 0.694D+00
 Coeff-En:   0.000D+00 0.000D+00 0.000D+00 0.000D+00 0.000D+00 0.100D+01
 Coeff:     -0.116D-02-0.521D-03 0.741D-02 0.343D-01 0.265D+00 0.695D+00
 Gap=     0.344 Goal=   None    Shift=    0.000
 RMSDP=1.04D-05 MaxDP=6.15D-04 DE=-1.14D-04 OVMax= 1.50D-03

 Cycle   7  Pass 0  IDiag  1:
 E= -1199.81777072847     Delta-E=       -0.000011414396 Rises=F Damp=F
 DIIS: error= 3.15D-05 at cycle   7 NSaved=   7.
 NSaved= 7 IEnMin= 7 EnMin= -1199.81777072847     IErMin= 7 ErrMin= 3.15D-05
 ErrMax= 3.15D-05  0.00D+00 EMaxC= 1.00D-01 BMatC= 1.58D-06 BMatP= 1.39D-05
 IDIUse=1 WtCom= 1.00D+00 WtEn= 0.00D+00
 Coeff-Com:  0.580D-03-0.163D-02-0.117D-01-0.131D-01 0.132D-01 0.260D+00
 Coeff-Com:  0.753D+00
 Coeff:      0.580D-03-0.163D-02-0.117D-01-0.131D-01 0.132D-01 0.260D+00
 Coeff:      0.753D+00
 Gap=     0.344 Goal=   None    Shift=    0.000
 RMSDP=3.50D-06 MaxDP=2.04D-04 DE=-1.14D-05 OVMax= 3.90D-04

 Initial convergence to 1.0D-05 achieved.  Increase integral accuracy.
 Cycle   8  Pass 1  IDiag  1:
 E= -1199.81778522009     Delta-E=       -0.000014491622 Rises=F Damp=F
 DIIS: error= 2.93D-05 at cycle   1 NSaved=   1.
 NSaved= 1 IEnMin= 1 EnMin= -1199.81778522009     IErMin= 1 ErrMin= 2.93D-05
 ErrMax= 2.93D-05  0.00D+00 EMaxC= 1.00D-01 BMatC= 9.44D-07 BMatP= 9.44D-07
 IDIUse=1 WtCom= 1.00D+00 WtEn= 0.00D+00
 Coeff-Com:  0.100D+01
 Coeff:      0.100D+01
 Gap=     0.344 Goal=   None    Shift=    0.000
 RMSDP=3.50D-06 MaxDP=2.04D-04 DE=-1.45D-05 OVMax= 2.00D-04

 Cycle   9  Pass 1  IDiag  1:
 E= -1199.81778579167     Delta-E=       -0.000000571582 Rises=F Damp=F
 DIIS: error= 1.51D-05 at cycle   2 NSaved=   2.
 NSaved= 2 IEnMin= 2 EnMin= -1199.81778579167     IErMin= 2 ErrMin= 1.51D-05
 ErrMax= 1.51D-05  0.00D+00 EMaxC= 1.00D-01 BMatC= 2.64D-07 BMatP= 9.44D-07
 IDIUse=1 WtCom= 1.00D+00 WtEn= 0.00D+00
 Coeff-Com:  0.273D+00 0.727D+00
 Coeff:      0.273D+00 0.727D+00
 Gap=     0.344 Goal=   None    Shift=    0.000
 RMSDP=1.48D-06 MaxDP=6.77D-05 DE=-5.72D-07 OVMax= 1.49D-04

 Cycle  10  Pass 1  IDiag  1:
 E= -1199.81778589801     Delta-E=       -0.000000106340 Rises=F Damp=F
 DIIS: error= 1.02D-05 at cycle   3 NSaved=   3.
 NSaved= 3 IEnMin= 3 EnMin= -1199.81778589801     IErMin= 3 ErrMin= 1.02D-05
 ErrMax= 1.02D-05  0.00D+00 EMaxC= 1.00D-01 BMatC= 1.23D-07 BMatP= 2.64D-07
 IDIUse=1 WtCom= 1.00D+00 WtEn= 0.00D+00
 Coeff-Com: -0.290D-01 0.402D+00 0.627D+00
 Coeff:     -0.290D-01 0.402D+00 0.627D+00
 Gap=     0.344 Goal=   None    Shift=    0.000
 RMSDP=6.93D-07 MaxDP=3.02D-05 DE=-1.06D-07 OVMax= 5.48D-05

 Cycle  11  Pass 1  IDiag  1:
 E= -1199.81778597580     Delta-E=       -0.000000077785 Rises=F Damp=F
 DIIS: error= 1.88D-06 at cycle   4 NSaved=   4.
 NSaved= 4 IEnMin= 4 EnMin= -1199.81778597580     IErMin= 4 ErrMin= 1.88D-06
 ErrMax= 1.88D-06  0.00D+00 EMaxC= 1.00D-01 BMatC= 1.98D-09 BMatP= 1.23D-07
 IDIUse=1 WtCom= 1.00D+00 WtEn= 0.00D+00
 Coeff-Com: -0.186D-01 0.117D+00 0.204D+00 0.697D+00
 Coeff:     -0.186D-01 0.117D+00 0.204D+00 0.697D+00
 Gap=     0.344 Goal=   None    Shift=    0.000
 RMSDP=1.64D-07 MaxDP=6.58D-06 DE=-7.78D-08 OVMax= 1.64D-05

 Cycle  12  Pass 1  IDiag  1:
 E= -1199.81778597779     Delta-E=       -0.000000001996 Rises=F Damp=F
 DIIS: error= 4.34D-07 at cycle   5 NSaved=   5.
 NSaved= 5 IEnMin= 5 EnMin= -1199.81778597779     IErMin= 5 ErrMin= 4.34D-07
 ErrMax= 4.34D-07  0.00D+00 EMaxC= 1.00D-01 BMatC= 2.80D-10 BMatP= 1.98D-09
 IDIUse=1 WtCom= 1.00D+00 WtEn= 0.00D+00
 Coeff-Com:  0.351D-03-0.318D-01-0.552D-01 0.182D+00 0.905D+00
 Coeff:      0.351D-03-0.318D-01-0.552D-01 0.182D+00 0.905D+00
 Gap=     0.344 Goal=   None    Shift=    0.000
 RMSDP=9.73D-08 MaxDP=4.40D-06 DE=-2.00D-09 OVMax= 1.72D-05

 Cycle  13  Pass 1  IDiag  1:
 E= -1199.81778597826     Delta-E=       -0.000000000472 Rises=F Damp=F
 DIIS: error= 3.06D-07 at cycle   6 NSaved=   6.
 NSaved= 6 IEnMin= 6 EnMin= -1199.81778597826     IErMin= 6 ErrMin= 3.06D-07
 ErrMax= 3.06D-07  0.00D+00 EMaxC= 1.00D-01 BMatC= 8.97D-11 BMatP= 2.80D-10
 IDIUse=1 WtCom= 1.00D+00 WtEn= 0.00D+00
 Coeff-Com:  0.221D-02-0.303D-01-0.533D-01 0.557D-02 0.463D+00 0.613D+00
 Coeff:      0.221D-02-0.303D-01-0.533D-01 0.557D-02 0.463D+00 0.613D+00
 Gap=     0.344 Goal=   None    Shift=    0.000
 RMSDP=3.01D-08 MaxDP=1.22D-06 DE=-4.72D-10 OVMax= 4.14D-06

 Cycle  14  Pass 1  IDiag  1:
 E= -1199.81778597832     Delta-E=       -0.000000000052 Rises=F Damp=F
 DIIS: error= 9.91D-08 at cycle   7 NSaved=   7.
 NSaved= 7 IEnMin= 7 EnMin= -1199.81778597832     IErMin= 7 ErrMin= 9.91D-08
 ErrMax= 9.91D-08  0.00D+00 EMaxC= 1.00D-01 BMatC= 7.94D-12 BMatP= 8.97D-11
 IDIUse=1 WtCom= 1.00D+00 WtEn= 0.00D+00
 Coeff-Com:  0.823D-03-0.621D-02-0.115D-01-0.377D-01 0.277D-01 0.215D+00
 Coeff-Com:  0.812D+00
 Coeff:      0.823D-03-0.621D-02-0.115D-01-0.377D-01 0.277D-01 0.215D+00
 Coeff:      0.812D+00
 Gap=     0.344 Goal=   None    Shift=    0.000
 RMSDP=1.46D-08 MaxDP=6.28D-07 DE=-5.18D-11 OVMax= 2.33D-06

 Cycle  15  Pass 1  IDiag  1:
 E= -1199.81778597833     Delta-E=       -0.000000000011 Rises=F Damp=F
 DIIS: error= 5.93D-08 at cycle   8 NSaved=   8.
 NSaved= 8 IEnMin= 8 EnMin= -1199.81778597833     IErMin= 8 ErrMin= 5.93D-08
 ErrMax= 5.93D-08  0.00D+00 EMaxC= 1.00D-01 BMatC= 2.14D-12 BMatP= 7.94D-12
 IDIUse=1 WtCom= 1.00D+00 WtEn= 0.00D+00
 Coeff-Com: -0.473D-04 0.265D-02 0.423D-02-0.174D-01-0.611D-01-0.111D-01
 Coeff-Com:  0.394D+00 0.689D+00
 Coeff:     -0.473D-04 0.265D-02 0.423D-02-0.174D-01-0.611D-01-0.111D-01
 Coeff:      0.394D+00 0.689D+00
 Gap=     0.344 Goal=   None    Shift=    0.000
 RMSDP=5.76D-09 MaxDP=4.00D-07 DE=-1.09D-11 OVMax= 8.57D-07

 SCF Done:  E(RM062X) =  -1199.81778598     A.U. after   15 cycles
            NFock= 15  Conv=0.58D-08     -V/T= 2.0028
 KE= 1.196498300738D+03 PE=-4.766511119792D+03 EE= 1.409924072801D+03
 Leave Link  502 at Sat May 24 06:01:08 2025, MaxMem=  3758096384 cpu:             181.7 elap:              49.7
 (Enter /apps/easybuild-2022/easybuild/software/Compiler/NVHPC/22.11-CUDA-11.7.0/Gaussian/g16c01-CUDA-11.7.0/g16/l508.exe)
 QCSCF skips out because SCF is already converged.
 Leave Link  508 at Sat May 24 06:01:08 2025, MaxMem=  3758096384 cpu:               0.0 elap:               0.0
 (Enter /apps/easybuild-2022/easybuild/software/Compiler/NVHPC/22.11-CUDA-11.7.0/Gaussian/g16c01-CUDA-11.7.0/g16/l801.exe)
 DoSCS=F DFT=T ScalE2(SS,OS)=  1.000000  1.000000
 Range of M.O.s used for correlation:     1   366
 NBasis=   366 NAE=    49 NBE=    49 NFC=     0 NFV=     0
 NROrb=    366 NOA=    49 NOB=    49 NVA=   317 NVB=   317

 **** Warning!!: The largest alpha MO coefficient is  0.13998436D+02

 Leave Link  801 at Sat May 24 06:01:08 2025, MaxMem=  3758096384 cpu:               0.0 elap:               0.0
 (Enter /apps/easybuild-2022/easybuild/software/Compiler/NVHPC/22.11-CUDA-11.7.0/Gaussian/g16c01-CUDA-11.7.0/g16/l1101.exe)
 Using compressed storage, NAtomX=    12.
 Will process     13 centers per pass.
   1 Symmetry operations used in ECPInt.
 ECPInt:  NShTT=    8515 NPrTT=   27988 LenC2=    8097 LenP2D=   19849.
 LDataN:  DoStor=T MaxTD1= 7 Len=  274
 Leave Link 1101 at Sat May 24 06:01:08 2025, MaxMem=  3758096384 cpu:               1.3 elap:               0.3
 (Enter /apps/easybuild-2022/easybuild/software/Compiler/NVHPC/22.11-CUDA-11.7.0/Gaussian/g16c01-CUDA-11.7.0/g16/l1102.exe)
 Symmetrizing basis deriv contribution to polar:
 IMax=3 JMax=2 DiffMx= 0.00D+00
 Leave Link 1102 at Sat May 24 06:01:08 2025, MaxMem=  3758096384 cpu:               0.1 elap:               0.1
 (Enter /apps/easybuild-2022/easybuild/software/Compiler/NVHPC/22.11-CUDA-11.7.0/Gaussian/g16c01-CUDA-11.7.0/g16/l1110.exe)
 Forming Gx(P) for the SCF density, NAtomX=    12.
 Integral derivatives from FoFJK, PRISM(SPDF).
 Do as many integral derivatives as possible in FoFJK.
 G2DrvN: MDV=    3758094988.
 G2DrvN: will do    13 centers at a time, making    1 passes.
 Calling FoFCou, ICntrl=  3107 FMM=F I1Cent=   0 AccDes= 0.00D+00.
 FoFJK:  IHMeth= 1 ICntrl=    3107 DoSepK=F KAlg= 0 I1Cent=           0 FoldK=F
 IRaf=         0 NMat=       1 IRICut=       1 DoRegI=T DoRafI=F ISym2E= 0 IDoP0=0 IntGTp=1.
 FoFCou: FMM=F IPFlag=           0 FMFlag=      100000 FMFlg1=           0
         NFxFlg=           0 DoJE=F BraDBF=F KetDBF=F FulRan=T
         wScrn=  0.000000 ICntrl=      3107 IOpCl=  0 I1Cent=           0 NGrid=           0
         NMat0=    1 NMatS0=      1 NMatT0=    0 NMatD0=    1 NMtDS0=    0 NMtDT0=    0
 Symmetry not used in FoFCou.
 End of G2Drv F.D. properties file   721 does not exist.
 End of G2Drv F.D. properties file   722 does not exist.
 End of G2Drv F.D. properties file   788 does not exist.
 Leave Link 1110 at Sat May 24 06:02:10 2025, MaxMem=  3758096384 cpu:             485.0 elap:              61.7
 (Enter /apps/easybuild-2022/easybuild/software/Compiler/NVHPC/22.11-CUDA-11.7.0/Gaussian/g16c01-CUDA-11.7.0/g16/l1002.exe)
 Minotr:  Closed shell wavefunction.
          IDoAtm=111111111111
          Direct CPHF calculation.
          Differentiating once with respect to nuclear coordinates.
          Requested convergence is 1.0D-08 RMS, and 1.0D-07 maximum.
          Secondary convergence is 1.0D-12 RMS, and 1.0D-12 maximum.
          NewPWx=T KeepS1=F KeepF1=F KeepIn=T MapXYZ=F SortEE=F KeepMc=T.
         3591 words used for storage of precomputed grid.
 Keep R1 ints in memory in canonical form, NReq=2293452921.
 FoFCou: FMM=F IPFlag=           0 FMFlag=           0 FMFlg1=           0
         NFxFlg=           0 DoJE=F BraDBF=F KetDBF=F FulRan=T
         wScrn=  0.000000 ICntrl=       600 IOpCl=  0 I1Cent=           0 NGrid=           0
         NMat0=    1 NMatS0=  67161 NMatT0=    0 NMatD0=    1 NMtDS0=    0 NMtDT0=    0
 Symmetry not used in FoFCou.
 Two-electron integral symmetry not used.
          MDV=    3758096384 using IRadAn=       1.
          Solving linear equations simultaneously, MaxMat=       0.
          There are    39 degrees of freedom in the 1st order CPHF.  IDoFFX=6 NUNeed=     0.
     33 vectors produced by pass  0 Test12= 3.98D-14 2.56D-09 XBig12= 1.89D-01 1.31D-01.
 AX will form    33 AO Fock derivatives at one time.
     33 vectors produced by pass  1 Test12= 3.98D-14 2.56D-09 XBig12= 6.69D-02 7.73D-02.
     33 vectors produced by pass  2 Test12= 3.98D-14 2.56D-09 XBig12= 3.46D-03 8.82D-03.
     33 vectors produced by pass  3 Test12= 3.98D-14 2.56D-09 XBig12= 7.79D-05 1.43D-03.
     33 vectors produced by pass  4 Test12= 3.98D-14 2.56D-09 XBig12= 1.26D-06 1.42D-04.
     33 vectors produced by pass  5 Test12= 3.98D-14 2.56D-09 XBig12= 1.49D-08 1.68D-05.
     33 vectors produced by pass  6 Test12= 3.98D-14 2.56D-09 XBig12= 1.00D-10 1.05D-06.
     25 vectors produced by pass  7 Test12= 3.98D-14 2.56D-09 XBig12= 5.77D-13 9.75D-08.
      6 vectors produced by pass  8 Test12= 3.98D-14 2.56D-09 XBig12= 3.53D-15 5.93D-09.
 InvSVY:  IOpt=1 It=  1 EMax= 1.44D-15
 Solved reduced A of dimension   262 with    33 vectors.
 End of Minotr F.D. properties file   721 does not exist.
 End of Minotr F.D. properties file   722 does not exist.
 End of Minotr F.D. properties file   788 does not exist.
 Leave Link 1002 at Sat May 24 06:03:42 2025, MaxMem=  3758096384 cpu:             721.0 elap:              91.9
 (Enter /apps/easybuild-2022/easybuild/software/Compiler/NVHPC/22.11-CUDA-11.7.0/Gaussian/g16c01-CUDA-11.7.0/g16/l701.exe)
 ... and contract with generalized density number  0.
 Compute integral second derivatives.
   1 Symmetry operations used in ECPInt.
 ECPInt:  NShTT=    8515 NPrTT=   27988 LenC2=    8097 LenP2D=   19849.
 LDataN:  DoStor=T MaxTD1= 8 Len=  415
 Leave Link  701 at Sat May 24 06:03:42 2025, MaxMem=  3758096384 cpu:               1.4 elap:               0.3
 (Enter /apps/easybuild-2022/easybuild/software/Compiler/NVHPC/22.11-CUDA-11.7.0/Gaussian/g16c01-CUDA-11.7.0/g16/l702.exe)
 L702 exits ... SP integral derivatives will be done elsewhere.
 Leave Link  702 at Sat May 24 06:03:42 2025, MaxMem=  3758096384 cpu:               0.1 elap:               0.0
 (Enter /apps/easybuild-2022/easybuild/software/Compiler/NVHPC/22.11-CUDA-11.7.0/Gaussian/g16c01-CUDA-11.7.0/g16/l703.exe)
 Integral derivatives from FoFJK, PRISM(SPDF).
 Compute integral second derivatives, UseDBF=F ICtDFT=           0.
 Calling FoFJK, ICntrl=    100127 FMM=F ISym2X=0 I1Cent= 0 IOpClX= 0 NMat=1 NMatS=1 NMatT=0.
 FoFJK:  IHMeth= 1 ICntrl=  100127 DoSepK=F KAlg= 0 I1Cent=           0 FoldK=F
 IRaf=         0 NMat=       1 IRICut=       1 DoRegI=T DoRafI=F ISym2E= 0 IDoP0=0 IntGTp=1.
 FoFCou: FMM=F IPFlag=           0 FMFlag=      100000 FMFlg1=         800
         NFxFlg=           0 DoJE=F BraDBF=F KetDBF=F FulRan=T
         wScrn=  0.000000 ICntrl=    100127 IOpCl=  0 I1Cent=           0 NGrid=           0
         NMat0=    1 NMatS0=      1 NMatT0=    0 NMatD0=    1 NMtDS0=    0 NMtDT0=    0
 Symmetry not used in FoFCou.
 Leave Link  703 at Sat May 24 06:05:51 2025, MaxMem=  3758096384 cpu:            1026.4 elap:             129.4
 (Enter /apps/easybuild-2022/easybuild/software/Compiler/NVHPC/22.11-CUDA-11.7.0/Gaussian/g16c01-CUDA-11.7.0/g16/l716.exe)
 Dipole        =-9.33435031D-01 9.01751893D-01-4.46238503D-01
 Polarizability= 0.00000000D+00 0.00000000D+00 0.00000000D+00
                 0.00000000D+00 0.00000000D+00 0.00000000D+00
 -------------------------------------------------------------------
 Center     Atomic                   Forces (Hartrees/Bohr)
 Number     Number              X              Y              Z
 -------------------------------------------------------------------
      1        6          -0.001245483   -0.002231807   -0.001223929
      2        6          -0.001344264    0.005544304    0.003743774
      3        9          -0.016906290    0.012533179   -0.002887094
      4        9          -0.003820146    0.012006704   -0.001076857
      5       16           0.010446874   -0.020935591   -0.001024016
      6        8           0.001693529    0.012253946   -0.004605341
      7        8          -0.008101567    0.004331359    0.000623119
      8        8          -0.012301813   -0.000931592    0.005121173
      9        9           0.032210264   -0.028911620    0.000328662
     10        9          -0.000259784    0.000749779   -0.000367205
     11        9           0.000598105    0.001445040    0.000179506
     12        1          -0.000969425    0.004146300    0.001188208
 -------------------------------------------------------------------
 Cartesian Forces:  Max     0.032210264 RMS     0.009927454
 Force constants in Cartesian coordinates: 
                1             2             3             4             5 
      1  0.494328D+00
      2  0.117142D-01  0.601239D+00
      3 -0.879539D-01 -0.379844D-02  0.601342D+00
      4 -0.417992D-01 -0.128788D-03 -0.105170D-01  0.441191D+00
      5  0.248189D-02 -0.484420D-01  0.176978D-01 -0.353142D-01  0.638839D+00
      6 -0.749637D-02  0.172005D-01 -0.161709D+00  0.142742D+00  0.203987D-01
      7 -0.773742D-02 -0.120678D-01 -0.158743D-02 -0.129666D+00 -0.102080D+00
      8 -0.138051D-01 -0.979513D-02 -0.542772D-02 -0.101516D+00 -0.220015D+00
      9 -0.206540D-01 -0.326883D-01 -0.518815D-02 -0.703003D-01 -0.103354D+00
     10 -0.801908D-02  0.118002D-01  0.239297D-02 -0.140750D+00  0.130916D+00
     11  0.202907D-01 -0.223617D-01 -0.251615D-03  0.122062D+00 -0.278973D+00
     12 -0.156719D-01  0.278081D-01  0.621882D-02 -0.414561D-01  0.650056D-01
     13 -0.547273D-01 -0.829567D-02  0.720876D-01 -0.802902D-01  0.607447D-02
     14 -0.225077D-01  0.330227D-01  0.735126D-02  0.502878D-02  0.217961D-01
     15  0.141599D+00  0.101954D-01 -0.168448D-01 -0.612537D-01  0.136250D-02
     16 -0.181695D+00  0.567827D-02 -0.528335D-01 -0.546012D-01  0.690990D-03
     17  0.771167D-02 -0.721753D-01  0.440652D-02  0.244963D-02  0.772082D-02
     18 -0.559248D-01  0.387349D-02 -0.108028D+00 -0.183027D-01  0.507892D-02
     19  0.716746D-02 -0.115163D-03 -0.369037D-02  0.109142D-01 -0.832660D-03
     20 -0.166882D-03 -0.302954D-02  0.309027D-03 -0.175557D-02 -0.477610D-02
     21 -0.150178D-01 -0.822151D-03 -0.617400D-02  0.111294D-01  0.612570D-03
     22 -0.104668D-01  0.399946D-02 -0.640869D-02  0.735769D-02 -0.922129D-02
     23 -0.148180D-02 -0.516170D-02 -0.800045D-02  0.317518D-01 -0.184330D-01
     24 -0.155544D-01 -0.834419D-03 -0.249703D-02  0.108136D-01 -0.208740D-02
     25 -0.389612D-02 -0.205257D-02 -0.347357D-02 -0.171022D-01  0.143989D-01
     26  0.465766D-02 -0.132245D-01  0.555867D-02 -0.135761D-01 -0.623950D-01
     27 -0.129646D-01 -0.848594D-03 -0.795251D-03  0.371582D-02 -0.404664D-02
     28 -0.993490D-01  0.653723D-01  0.575225D-01  0.539669D-03  0.488359D-02
     29  0.621279D-01 -0.197507D+00 -0.112688D+00  0.107513D-01 -0.123043D-01
     30  0.567732D-01 -0.108834D+00 -0.182221D+00  0.176413D-01 -0.326830D-01
     31 -0.967123D-01 -0.751086D-01  0.340600D-01  0.779556D-03 -0.467911D-02
     32 -0.731089D-01 -0.262004D+00  0.925343D-01 -0.142415D-01 -0.228014D-01
     33  0.338260D-01  0.874476D-01 -0.122881D+00  0.136749D-01  0.307726D-01
     34  0.290713D-02 -0.795818D-03  0.401469D-03  0.342678D-02 -0.731866D-02
     35  0.208635D-02 -0.560814D-03  0.230840D-02 -0.551073D-02 -0.216708D-03
     36 -0.960028D-03  0.130083D-02 -0.122357D-02  0.211279D-02  0.124190D-02
                6             7             8             9            10 
      6  0.497297D+00
      7 -0.852881D-01  0.185532D+00
      8 -0.115785D+00  0.102298D+00  0.319585D+00
      9 -0.158551D+00  0.104795D+00  0.142935D+00  0.149923D+00
     10 -0.521728D-01  0.171780D-01 -0.130543D-01  0.513572D-02  0.142302D+00
     11  0.769695D-01  0.846512D-02 -0.850690D-01 -0.103529D-01 -0.156707D+00
     12 -0.970843D-01  0.962948D-02 -0.206570D-01  0.164315D-01  0.572001D-01
     13  0.198181D-01 -0.127887D-02 -0.725643D-02 -0.329917D-02  0.293324D-03
     14  0.662294D-02 -0.151944D-01 -0.280455D-01 -0.407289D-02  0.210244D-01
     15 -0.363564D-01 -0.373950D-02  0.124822D-02 -0.121839D-02  0.208058D-02
     16 -0.181601D-01  0.257860D-03  0.185201D-02 -0.785901D-02  0.626287D-03
     17  0.783578D-02  0.291514D-02  0.255046D-02  0.259518D-02 -0.932648D-03
     18 -0.339619D-01 -0.755145D-02 -0.373322D-02 -0.209900D-02 -0.955364D-02
     19 -0.497639D-03 -0.359072D-02 -0.123907D-02 -0.719683D-03 -0.413067D-02
     20 -0.562273D-03  0.107954D-02  0.416159D-02  0.773393D-03 -0.555874D-03
     21  0.180316D-02 -0.409353D-03 -0.898360D-03  0.443083D-03 -0.838613D-03
     22 -0.133143D-02 -0.640873D-02 -0.634386D-02 -0.283204D-03 -0.316155D-02
     23  0.552503D-02 -0.808408D-02 -0.568296D-02 -0.177510D-02 -0.757230D-02
     24  0.654569D-02 -0.160368D-02 -0.214273D-02 -0.123002D-03 -0.159685D-03
     25 -0.214306D-02 -0.572309D-01  0.333205D-01 -0.894571D-02 -0.520914D-02
     26 -0.159515D-01  0.186122D-01  0.151455D-01  0.913320D-02  0.175010D-01
     27  0.803912D-02 -0.101410D-01  0.686571D-02  0.712161D-02  0.152308D-03
     28  0.140989D-02  0.109968D-02  0.104513D-02  0.188337D-02  0.288001D-02
     29 -0.787700D-02 -0.105482D-02  0.516386D-03 -0.255317D-02 -0.380556D-02
     30 -0.192447D-01 -0.317996D-02 -0.213889D-02 -0.875648D-02 -0.102500D-02
     31  0.231772D-03  0.245670D-02  0.404088D-02  0.479566D-03  0.106063D-02
     32  0.698426D-02  0.381606D-02  0.551336D-02 -0.104354D-02  0.144094D-02
     33 -0.825406D-02  0.356355D-03  0.118782D-02  0.271506D-02 -0.231233D-02
     34  0.288797D-02 -0.611269D-03  0.658369D-03 -0.232594D-03 -0.306982D-02
     35 -0.136044D-02  0.129540D-02  0.113465D-02  0.402520D-03 -0.546814D-04
     36  0.147603D-02 -0.128030D-02 -0.145355D-02 -0.697746D-03 -0.899557D-03
               11            12            13            14            15 
     11  0.389048D+00
     12 -0.742582D-01  0.800816D-01
     13  0.282196D-02 -0.454816D-03  0.906325D+00
     14 -0.182032D-01  0.270973D-02 -0.905305D-01  0.490892D+00
     15 -0.560114D-02 -0.222034D-02 -0.168304D+00  0.778180D-02  0.496386D+00
     16  0.837007D-03 -0.829350D-02 -0.752269D-01  0.299162D-02 -0.226022D-01
     17  0.178269D-02 -0.251765D-02  0.155332D-02 -0.617756D-01  0.163111D-01
     18  0.663120D-02 -0.126291D-02 -0.141570D-01  0.144193D-01 -0.188622D+00
     19  0.343834D-02 -0.232581D-03 -0.547208D+00  0.975843D-01  0.155285D+00
     20  0.247418D-02 -0.532410D-03  0.102414D+00 -0.104511D+00 -0.343706D-01
     21  0.901610D-03  0.688894D-03  0.111821D+00 -0.248713D-01 -0.124886D+00
     22 -0.313090D-02 -0.644204D-03 -0.865217D-01 -0.177324D-01 -0.705622D-02
     23  0.150562D-01 -0.247586D-02 -0.335401D-01 -0.168669D+00 -0.144938D-01
     24  0.163296D-02  0.855398D-03 -0.104740D-01  0.298854D-03 -0.706583D-01
     25  0.305236D-02  0.127345D-02 -0.616888D-01  0.987630D-02  0.197416D-02
     26 -0.774500D-02 -0.218385D-02  0.781628D-02 -0.123580D+00 -0.112038D-01
     27  0.133479D-02  0.687211D-03  0.145960D-02 -0.130461D-01 -0.481144D-01
     28 -0.417450D-02 -0.827698D-03 -0.192572D-02  0.805006D-02 -0.198391D-01
     29  0.599550D-02  0.266482D-02 -0.857268D-03 -0.823492D-02  0.609502D-02
     30 -0.820245D-03  0.243647D-02 -0.347651D-02 -0.114654D-02 -0.286566D-02
     31 -0.152121D-02  0.122468D-02 -0.172614D-02 -0.226736D-02 -0.202264D-01
     32 -0.158057D-02  0.457647D-02  0.404026D-03 -0.105096D-01 -0.772718D-02
     33  0.467270D-02 -0.653687D-02 -0.274591D-02  0.231633D-02 -0.549318D-02
     34  0.456701D-02 -0.174692D-02  0.397465D-02  0.367702D-02  0.208269D-02
     35 -0.424852D-03 -0.139746D-03  0.193962D-01 -0.221823D-01  0.304025D-01
     36 -0.858642D-03 -0.295582D-03 -0.227454D-02  0.163660D-02  0.892831D-03
               16            17            18            19            20 
     16  0.385774D+00
     17  0.315418D-02  0.138989D+00
     18  0.285311D-01 -0.137406D-01  0.350406D+00
     19 -0.483125D-02  0.162463D-02  0.198719D-02  0.607167D+00
     20 -0.148485D-02  0.769520D-02  0.137736D-02 -0.961333D-01  0.161335D+00
     21  0.344401D-01 -0.247463D-02  0.273998D-02 -0.162115D+00  0.384966D-01
     22  0.139130D-01  0.349566D-02 -0.359599D-02 -0.131230D-01  0.535606D-01
     23 -0.514634D-02 -0.963370D-02  0.619252D-02  0.203203D-01 -0.457964D-01
     24  0.119005D-01  0.282512D-01 -0.762065D-02 -0.684492D-03 -0.734065D-02
     25  0.129841D-01 -0.447211D-02 -0.322994D-02 -0.490681D-01 -0.583258D-01
     26 -0.784237D-03 -0.708162D-02 -0.175942D-01 -0.263854D-01 -0.174619D-01
     27  0.949974D-03 -0.382148D-01 -0.280204D-01  0.410419D-02  0.692785D-02
     28 -0.486618D-01  0.330705D-01  0.449962D-01 -0.127490D-02 -0.901728D-03
     29  0.279777D-01  0.139442D-02 -0.156313D-01  0.166858D-02  0.998300D-03
     30  0.213139D-01 -0.653143D-02  0.502415D-02  0.159452D-02  0.113674D-03
     31 -0.454165D-01 -0.445889D-01  0.329305D-01 -0.992269D-03  0.648059D-03
     32 -0.335254D-01 -0.715914D-02  0.132979D-01 -0.158929D-02  0.184433D-02
     33  0.121195D-01  0.323783D-02  0.106030D-01  0.124757D-02 -0.229076D-03
     34 -0.312249D-02 -0.598099D-02  0.387056D-02 -0.102973D-02  0.162210D-02
     35 -0.224100D-02 -0.230719D-02 -0.171362D-03  0.165869D-02 -0.293367D-02
     36  0.493174D-03  0.841519D-03  0.841535D-03  0.372116D-02 -0.496292D-02
               21            22            23            24            25 
     21  0.851635D-01
     22  0.772143D-02  0.190809D+00
     23 -0.516829D-02 -0.735811D-01  0.334838D+00
     24  0.235647D-01  0.207759D+00 -0.144025D+00  0.397517D+00
     25  0.320686D-02  0.116229D-01  0.179039D-02  0.539231D-03  0.168278D+00
     26 -0.991845D-03 -0.110109D-01 -0.131797D-01 -0.148709D-02  0.123741D-02
     27  0.179320D-01 -0.136772D-02 -0.696785D-03  0.834892D-03  0.100656D-01
     28  0.386490D-02  0.137758D-02 -0.145005D-02  0.138863D-02  0.160946D-02
     29 -0.174506D-02 -0.379559D-03  0.465502D-02  0.702232D-03 -0.281830D-03
     30  0.410571D-03  0.223039D-02  0.534078D-02  0.153499D-02 -0.312592D-03
     31  0.292925D-02  0.190432D-02 -0.140243D-02  0.332493D-02  0.772789D-03
     32  0.149986D-02 -0.776990D-03 -0.164615D-02  0.545251D-03  0.264113D-02
     33  0.112836D-02  0.168649D-02  0.303164D-02  0.117915D-02  0.547660D-03
     34  0.326810D-02 -0.107302D+00  0.783958D-01 -0.207250D+00 -0.107238D-02
     35 -0.453906D-02  0.611214D-01 -0.863465D-01  0.126487D+00 -0.118476D-02
     36 -0.281434D-02 -0.198710D+00  0.156546D+00 -0.351133D+00  0.497910D-03
               26            27            28            29            30 
     26  0.218857D+00
     27  0.428896D-01  0.419786D-01
     28  0.469368D-03  0.251196D-02  0.128997D+00
     29  0.429827D-03 -0.323270D-03 -0.103468D+00  0.288446D+00
     30 -0.244290D-02  0.895637D-03 -0.878535D-01  0.155668D+00  0.184768D+00
     31  0.719483D-03  0.210382D-02  0.152831D-01  0.659873D-02 -0.394172D-02
     32  0.861700D-02 -0.113924D-02 -0.291176D-02 -0.838649D-01 -0.540394D-02
     33 -0.394016D-02 -0.180646D-03 -0.506158D-02 -0.241873D-01  0.175674D-01
     34  0.743129D-03 -0.589846D-03 -0.574511D-03  0.722989D-03  0.235927D-03
     35  0.161755D-02  0.297480D-03  0.152328D-04 -0.524338D-03 -0.112114D-02
     36 -0.178607D-02 -0.378398D-03  0.443264D-05 -0.124957D-03  0.450720D-03
               31            32            33            34            35 
     31  0.123282D+00
     32  0.117930D+00  0.373165D+00
     33 -0.531843D-01 -0.103617D+00  0.109754D+00
     34 -0.691538D-03 -0.782405D-04 -0.154397D-03  0.107165D+00
     35 -0.369386D-03  0.426077D-03 -0.693057D-03 -0.762127D-01  0.112318D+00
     36  0.679845D-04 -0.507199D-03  0.398031D-03  0.197227D+00 -0.151873D+00
               36 
     36  0.352483D+00
 FormGI is forming the generalized inverse of G from B-inverse, IUseBI=4.
 Leave Link  716 at Sat May 24 06:05:51 2025, MaxMem=  3758096384 cpu:               0.1 elap:               0.0
 (Enter /apps/easybuild-2022/easybuild/software/Compiler/NVHPC/22.11-CUDA-11.7.0/Gaussian/g16c01-CUDA-11.7.0/g16/l103.exe)

 GradGradGradGradGradGradGradGradGradGradGradGradGradGradGradGradGradGrad
 Berny optimization.
 Red2BG is reusing G-inverse.
 Internal  Forces:  Max     0.040831045 RMS     0.010937309
 Search for a local minimum.
 Step number   1 out of a maximum of   78
 All quantities printed in internal units (Hartrees-Bohrs-Radians)
 RMS Force = .10937D-01 SwitMx=.10000D-02 MixMth= 1
 Mixed Optimization -- RFO/linear search
 Second derivative matrix not updated -- analytic derivatives used.
 ITU=  0
     Eigenvalues ---   -0.00983  -0.00256   0.00223   0.01454   0.03023
     Eigenvalues ---    0.05742   0.06259   0.07185   0.08184   0.10115
     Eigenvalues ---    0.10441   0.11561   0.12774   0.13726   0.14253
     Eigenvalues ---    0.18368   0.20333   0.23195   0.24428   0.26742
     Eigenvalues ---    0.27918   0.30710   0.32443   0.41130   0.43063
     Eigenvalues ---    0.52510   0.53215   0.54814   0.57924   0.68501
 Eigenvalue     1 is  -9.83D-03 should be greater than     0.000000 Eigenvector:
                          D32       D14       D22       D18       D20
   1                   -0.56726   0.33578   0.30391   0.28537  -0.23575
                          D24       A14       A17       A22       D16
   1                   -0.21721  -0.21509   0.18747   0.18714  -0.18533
 Eigenvalue     2 is  -2.56D-03 should be greater than     0.000000 Eigenvector:
                          D29       D30       D31       D32       D20
   1                   -0.54756  -0.52914  -0.47138  -0.32404   0.12064
                          D24       D14       D16       D22       D18
   1                    0.10438  -0.10399   0.09108  -0.09069  -0.07444
 RFO step:  Lambda=-1.98458303D-02 EMin=-9.83053338D-03
 Linear search not attempted -- first point.
 Maximum step size (   0.300) exceeded in Quadratic search.
    -- Step size scaled by   0.819
 Iteration  1 RMS(Cart)=  0.08249838 RMS(Int)=  0.03469132
 Iteration  2 RMS(Cart)=  0.02391426 RMS(Int)=  0.01146405
 Iteration  3 RMS(Cart)=  0.00127452 RMS(Int)=  0.01132148
 Iteration  4 RMS(Cart)=  0.00006709 RMS(Int)=  0.01132139
 Iteration  5 RMS(Cart)=  0.00000327 RMS(Int)=  0.01132139
 Iteration  6 RMS(Cart)=  0.00000020 RMS(Int)=  0.01132139
 ITry= 1 IFail=0 DXMaxC= 3.71D-01 DCOld= 1.00D+10 DXMaxT= 3.00D-01 DXLimC= 3.00D+00 Rises=F
 Variable       Old X    -DE/DX   Delta X   Delta X   Delta X     New X
                                 (Linear)    (Quad)   (Total)
    R1        2.96792  -0.00117   0.00000   0.01482   0.01726   2.98518
    R2        2.63214   0.00123   0.00000   0.00829   0.00969   2.64184
    R3        2.49890   0.00045   0.00000   0.00232   0.00232   2.50122
    R4        2.49521  -0.00142   0.00000  -0.00890  -0.00890   2.48631
    R5        2.47186  -0.00029   0.00000  -0.01283  -0.01283   2.45903
    R6        2.47454   0.01233   0.00000   0.02501   0.02501   2.49955
    R7        3.64822   0.02170   0.00000  -0.06245  -0.06427   3.58395
    R8        3.08217  -0.00624   0.00000  -0.00654  -0.00799   3.07418
    R9        2.70734  -0.00866   0.00000  -0.01578  -0.01578   2.69157
   R10        3.09925   0.00208   0.00000  -0.00748  -0.00748   3.09177
   R11        3.13968   0.01750   0.00000   0.08038   0.08038   3.22006
   R12        1.82391   0.00092   0.00000  -0.00201  -0.00201   1.82190
    A1        1.74744   0.00269   0.00000   0.00314   0.00372   1.75116
    A2        1.96368  -0.00506   0.00000  -0.01909  -0.02074   1.94295
    A3        1.97220   0.00382   0.00000   0.01106   0.01221   1.98441
    A4        1.93309  -0.00695   0.00000  -0.01185  -0.01350   1.91959
    A5        1.94024   0.00515   0.00000   0.01783   0.01871   1.95895
    A6        1.90364   0.00032   0.00000  -0.00077  -0.00061   1.90304
    A7        2.01112   0.00344   0.00000   0.05248   0.05042   2.06154
    A8        1.99566   0.00041   0.00000  -0.02704  -0.02412   1.97154
    A9        1.42717  -0.00460   0.00000  -0.00482  -0.00728   1.41989
   A10        1.90741  -0.00721   0.00000  -0.00332  -0.00360   1.90381
   A11        2.04555   0.00984   0.00000   0.01259   0.01141   2.05695
   A12        2.04026  -0.00022   0.00000  -0.02791  -0.02632   2.01393
   A13        1.37718  -0.00279   0.00000   0.02787   0.03064   1.40782
   A14        2.79867   0.01526   0.00000  -0.09022  -0.10420   2.69446
   A15        1.65578  -0.02609   0.00000  -0.03681  -0.03002   1.62575
   A16        1.26851   0.04083   0.00000   0.05671   0.08318   1.35170
   A17        2.00286  -0.00451   0.00000   0.11514   0.12739   2.13025
   A18        1.71558  -0.01494   0.00000  -0.10476  -0.08346   1.63212
   A19        1.56031   0.00693   0.00000  -0.07410  -0.04805   1.51226
   A20        1.69012   0.01586   0.00000   0.02666  -0.00225   1.68787
   A21        1.61712  -0.02559   0.00000  -0.02955  -0.02418   1.59294
   A22        2.86106   0.01738   0.00000   0.13728   0.11389   2.97495
   A23        1.73114   0.00448   0.00000  -0.02743  -0.03011   1.70102
   A24        1.88914   0.00723   0.00000   0.05685   0.05685   1.94599
    D1        2.04550   0.01581   0.00000   0.05346   0.05514   2.10064
    D2       -2.00586   0.00896   0.00000   0.07231   0.07427  -1.93159
    D3        0.01640   0.00675   0.00000   0.03796   0.04153   0.05793
    D4       -2.18473   0.00714   0.00000   0.03349   0.03315  -2.15158
    D5        0.04709   0.00029   0.00000   0.05234   0.05229   0.09938
    D6        2.06936  -0.00191   0.00000   0.01799   0.01955   2.08890
    D7       -0.01939   0.00657   0.00000   0.02603   0.02542   0.00603
    D8        2.21243  -0.00028   0.00000   0.04488   0.04455   2.25698
    D9       -2.04850  -0.00248   0.00000   0.01053   0.01182  -2.03668
   D10       -0.01946  -0.00817   0.00000  -0.04466  -0.04789  -0.06735
   D11       -2.09498  -0.00093   0.00000  -0.01955  -0.02073  -2.11571
   D12        2.06884  -0.00009   0.00000  -0.02258  -0.02330   2.04555
   D13       -0.01405  -0.00582   0.00000  -0.03251  -0.03558  -0.04963
   D14        2.36040   0.00563   0.00000   0.29424   0.28287   2.64328
   D15       -1.71607   0.00473   0.00000   0.06589   0.04247  -1.67361
   D16        1.60672  -0.00616   0.00000  -0.13270  -0.10968   1.49704
   D17       -2.00718  -0.00811   0.00000  -0.09015  -0.08990  -2.09709
   D18        0.36727   0.00333   0.00000   0.23660   0.22855   0.59582
   D19        2.57398   0.00244   0.00000   0.00825  -0.01186   2.56212
   D20       -0.38641  -0.00846   0.00000  -0.19034  -0.16401  -0.55042
   D21        1.96134  -0.00763   0.00000  -0.06690  -0.06696   1.89438
   D22       -1.94739   0.00382   0.00000   0.25985   0.25149  -1.69590
   D23        0.25931   0.00292   0.00000   0.03150   0.01109   0.27040
   D24       -2.70107  -0.00797   0.00000  -0.16709  -0.14106  -2.84213
   D25        0.01588   0.00657   0.00000   0.03670   0.04004   0.05592
   D26       -2.86580  -0.00851   0.00000   0.02789   0.00327  -2.86253
   D27        1.64553  -0.01782   0.00000   0.02229   0.02687   1.67241
   D28       -1.24882  -0.03355   0.00000  -0.03758  -0.05344  -1.30227
   D29       -1.04314  -0.00658   0.00000   0.24118   0.25489  -0.78825
   D30       -2.43017   0.00059   0.00000   0.22408   0.23123  -2.19894
   D31        1.82251   0.00480   0.00000   0.12099   0.11740   1.93991
   D32       -0.37262   0.00420   0.00000  -0.22656  -0.24383  -0.61645
         Item               Value     Threshold  Converged?
 Maximum Force            0.040831     0.000015     NO 
 RMS     Force            0.010937     0.000010     NO 
 Maximum Displacement     0.371167     0.000060     NO 
 RMS     Displacement     0.102413     0.000040     NO 
 Predicted change in Energy=-1.381664D-02
 Lowest energy point so far.  Saving SCF results.
 GradGradGradGradGradGradGradGradGradGradGradGradGradGradGradGradGradGrad

 Leave Link  103 at Sat May 24 06:05:51 2025, MaxMem=  3758096384 cpu:               0.1 elap:               0.0
 (Enter /apps/easybuild-2022/easybuild/software/Compiler/NVHPC/22.11-CUDA-11.7.0/Gaussian/g16c01-CUDA-11.7.0/g16/l202.exe)
                          Input orientation:                          
 ---------------------------------------------------------------------
 Center     Atomic      Atomic             Coordinates (Angstroms)
 Number     Number       Type             X           Y           Z
 ---------------------------------------------------------------------
      1          6           0        0.238978   -0.209268    1.514434
      2          6           0        0.032087   -0.001557   -0.037810
      3          9           0       -0.587419   -0.932081   -0.703864
      4          9           0       -0.502282    1.171399   -0.334749
      5         16           0        1.927827   -0.046968   -0.006408
      6          8           0        1.634409   -0.169105    1.589032
      7          8           0        3.215781   -0.299523   -0.559640
      8          8           0        2.056023    1.583445    0.039742
      9          9           0        1.519405   -1.698261   -0.106289
     10          9           0       -0.280073    0.791886    2.207375
     11          9           0       -0.251410   -1.343516    1.966173
     12          1           0        1.464195    2.002491   -0.595586
 ---------------------------------------------------------------------
                    Distance matrix (angstroms):
                    1          2          3          4          5
     1  C    0.000000
     2  C    1.579687   0.000000
     3  F    2.475124   1.301265   0.000000
     4  F    2.423879   1.322705   2.137317   0.000000
     5  S    2.278489   1.896544   2.756145   2.738185   0.000000
     6  O    1.398001   2.289569   3.282686   3.172276   1.626788
     7  O    3.629226   3.239907   3.858142   4.004770   1.424316
     8  O    2.947912   2.571880   3.724058   2.618196   1.636096
     9  F    2.546240   2.257346   2.320094   3.517721   1.703982
    10  F    1.323590   2.401635   3.397328   2.579884   3.237180
    11  F    1.315701   2.428410   2.722367   3.417891   3.212661
    12  H    3.293208   2.525522   3.582256   2.150763   2.182285
                    6          7          8          9         10
     6  O    0.000000
     7  O    2.671055   0.000000
     8  O    2.376865   2.291259   0.000000
     9  F    2.285970   2.244924   3.328495   0.000000
    10  F    2.229595   4.590048   3.283678   3.846036   0.000000
    11  F    2.253396   4.414869   4.195532   2.748951   2.149172
    12  H    3.085021   2.892856   0.964107   3.733366   3.516337
                   11         12
    11  F    0.000000
    12  H    4.549910   0.000000
 Symmetry turned off by external request.
 Stoichiometry    C2HF5O3S
 Rotational constants (GHZ):           1.4274079           0.9878937           0.9484774
 Leave Link  202 at Sat May 24 06:05:51 2025, MaxMem=  3758096384 cpu:               0.0 elap:               0.0
 (Enter /apps/easybuild-2022/easybuild/software/Compiler/NVHPC/22.11-CUDA-11.7.0/Gaussian/g16c01-CUDA-11.7.0/g16/l301.exe)
 Standard basis: def2TZVPP (5D, 7F)
 Ernie: Thresh=  0.10000D-02 Tol=  0.10000D-05 Strict=F.
   366 basis functions,   596 primitive gaussians,   423 cartesian basis functions
    49 alpha electrons       49 beta electrons
       nuclear repulsion energy       961.1968502135 Hartrees.
 IExCor= 4336 DFT=T Ex+Corr=M062X ExCW=0 ScaHFX=  0.540000
 ScaDFX=  1.000000  1.000000  1.000000  1.000000 ScalE2=  1.000000  1.000000
 IRadAn=      5 IRanWt=     -1 IRanGd=            0 ICorTp=0 IEmpDi=  4
 NAtoms=   12 NActive=   12 NUniq=   12 SFac= 1.00D+00 NAtFMM=   60 NAOKFM=F Big=F
 Integral buffers will be    131072 words long.
 Raffenetti 2 integral format.
 Two-electron integral symmetry is turned off.
 Leave Link  301 at Sat May 24 06:05:52 2025, MaxMem=  3758096384 cpu:               0.1 elap:               0.0
 (Enter /apps/easybuild-2022/easybuild/software/Compiler/NVHPC/22.11-CUDA-11.7.0/Gaussian/g16c01-CUDA-11.7.0/g16/l302.exe)
 NPDir=0 NMtPBC=     1 NCelOv=     1 NCel=       1 NClECP=     1 NCelD=      1
         NCelK=      1 NCelE2=     1 NClLst=     1 CellRange=     0.0.
 One-electron integrals computed using PRISM.
   1 Symmetry operations used in ECPInt.
 ECPInt:  NShTT=    8515 NPrTT=   27988 LenC2=    8101 LenP2D=   19876.
 LDataN:  DoStor=T MaxTD1= 6 Len=  172
 NBasis=   366 RedAO= T EigKep=  2.53D-04  NBF=   366
 NBsUse=   366 1.00D-06 EigRej= -1.00D+00 NBFU=   366
 Precomputing XC quadrature grid using
 IXCGrd= 4 IRadAn=           5 IRanWt=          -1 IRanGd=           0 AccXCQ= 0.00D+00.
 Generated NRdTot=       0 NPtTot=           0 NUsed=           0 NTot=          32
 NSgBfM=   420   420   420   420   420 MxSgAt=    12 MxSgA2=    12.
 Leave Link  302 at Sat May 24 06:05:52 2025, MaxMem=  3758096384 cpu:               1.2 elap:               0.3
 (Enter /apps/easybuild-2022/easybuild/software/Compiler/NVHPC/22.11-CUDA-11.7.0/Gaussian/g16c01-CUDA-11.7.0/g16/l303.exe)
 DipDrv:  MaxL=1.
 Leave Link  303 at Sat May 24 06:05:52 2025, MaxMem=  3758096384 cpu:               0.1 elap:               0.1
 (Enter /apps/easybuild-2022/easybuild/software/Compiler/NVHPC/22.11-CUDA-11.7.0/Gaussian/g16c01-CUDA-11.7.0/g16/l401.exe)
 Initial guess from the checkpoint file:  "/tmp/Gau-88048.chk"
 B after Tr=     0.029571   -0.008086   -0.034140
         Rot=    0.999945    0.008736    0.001823    0.005461 Ang=   1.20 deg.
 Guess basis will be translated and rotated to current coordinates.
 JPrj=2 DoOrth=T DoCkMO=T.
 Generating alternative initial guess.
 ExpMin= 9.52D-02 ExpMax= 6.07D+04 ExpMxC= 2.07D+03 IAcc=3 IRadAn=         5 AccDes= 0.00D+00
 Harris functional with IExCor= 1009 and IRadAn=       5 diagonalized for initial guess.
 HarFok:  IExCor= 1009 AccDes= 0.00D+00 IRadAn=         5 IDoV= 1 UseB2=F ITyADJ=14
 ICtDFT=  3500011 ScaDFX=  1.000000  1.000000  1.000000  1.000000
 FoFCou: FMM=F IPFlag=           0 FMFlag=      100000 FMFlg1=           0
         NFxFlg=           0 DoJE=T BraDBF=F KetDBF=T FulRan=T
         wScrn=  0.000000 ICntrl=       500 IOpCl=  0 I1Cent=   200000004 NGrid=           0
         NMat0=    1 NMatS0=      1 NMatT0=    0 NMatD0=    1 NMtDS0=    0 NMtDT0=    0
 Symmetry not used in FoFCou.
 Harris En= -1199.26393628807    
 Leave Link  401 at Sat May 24 06:05:53 2025, MaxMem=  3758096384 cpu:               4.8 elap:               0.7
 (Enter /apps/easybuild-2022/easybuild/software/Compiler/NVHPC/22.11-CUDA-11.7.0/Gaussian/g16c01-CUDA-11.7.0/g16/l502.exe)
 Keep R1 ints in memory in canonical form, NReq=2293447020.
 FoFCou: FMM=F IPFlag=           0 FMFlag=           0 FMFlg1=           0
         NFxFlg=           0 DoJE=F BraDBF=F KetDBF=F FulRan=T
         wScrn=  0.000000 ICntrl=       600 IOpCl=  0 I1Cent=           0 NGrid=           0
         NMat0=    1 NMatS0=  67161 NMatT0=    0 NMatD0=    1 NMtDS0=    0 NMtDT0=    0
 Symmetry not used in FoFCou.
 Two-electron integral symmetry not used.
 Closed shell SCF:
 Using DIIS extrapolation, IDIIS=  1040.
 NGot=  3758096384 LenX=  1502398648 LenY=  1502219278
 Requested convergence on RMS density matrix=1.00D-08 within  32 cycles.
 Requested convergence on MAX density matrix=1.00D-06.
 Requested convergence on             energy=1.00D-06.
 No special actions if energy rises.
 Integral accuracy reduced to 1.0D-05 until final iterations.

 Cycle   1  Pass 0  IDiag  1:
 E= -1199.79127338806    
 DIIS: error= 6.96D-03 at cycle   1 NSaved=   1.
 NSaved= 1 IEnMin= 1 EnMin= -1199.79127338806     IErMin= 1 ErrMin= 6.96D-03
 ErrMax= 6.96D-03  0.00D+00 EMaxC= 1.00D-01 BMatC= 3.13D-02 BMatP= 3.13D-02
 IDIUse=3 WtCom= 9.30D-01 WtEn= 6.96D-02
 Coeff-Com:  0.100D+01
 Coeff-En:   0.100D+01
 Coeff:      0.100D+01
 Gap=     1.133 Goal=   None    Shift=    0.000
 GapD=    1.133 DampG=2.000 DampE=1.000 DampFc=2.0000 IDamp=-1.
 RMSDP=5.59D-04 MaxDP=1.98D-02              OVMax= 4.32D-02

 Cycle   2  Pass 0  IDiag  1:
 E= -1199.82695815408     Delta-E=       -0.035684766020 Rises=F Damp=F
 DIIS: error= 1.40D-03 at cycle   2 NSaved=   2.
 NSaved= 2 IEnMin= 2 EnMin= -1199.82695815408     IErMin= 2 ErrMin= 1.40D-03
 ErrMax= 1.40D-03  0.00D+00 EMaxC= 1.00D-01 BMatC= 1.46D-03 BMatP= 3.13D-02
 IDIUse=3 WtCom= 9.86D-01 WtEn= 1.40D-02
 Coeff-Com: -0.634D-01 0.106D+01
 Coeff-En:   0.000D+00 0.100D+01
 Coeff:     -0.626D-01 0.106D+01
 Gap=     0.371 Goal=   None    Shift=    0.000
 RMSDP=1.47D-04 MaxDP=6.81D-03 DE=-3.57D-02 OVMax= 1.21D-02

 Cycle   3  Pass 0  IDiag  1:
 E= -1199.82817129505     Delta-E=       -0.001213140978 Rises=F Damp=F
 DIIS: error= 1.21D-03 at cycle   3 NSaved=   3.
 NSaved= 3 IEnMin= 3 EnMin= -1199.82817129505     IErMin= 3 ErrMin= 1.21D-03
 ErrMax= 1.21D-03  0.00D+00 EMaxC= 1.00D-01 BMatC= 1.37D-03 BMatP= 1.46D-03
 IDIUse=3 WtCom= 9.88D-01 WtEn= 1.21D-02
 Coeff-Com: -0.737D-01 0.555D+00 0.518D+00
 Coeff-En:   0.000D+00 0.000D+00 0.100D+01
 Coeff:     -0.728D-01 0.549D+00 0.524D+00
 Gap=     0.363 Goal=   None    Shift=    0.000
 RMSDP=6.90D-05 MaxDP=4.47D-03 DE=-1.21D-03 OVMax= 6.67D-03

 Cycle   4  Pass 0  IDiag  1:
 E= -1199.82907344474     Delta-E=       -0.000902149687 Rises=F Damp=F
 DIIS: error= 2.40D-04 at cycle   4 NSaved=   4.
 NSaved= 4 IEnMin= 4 EnMin= -1199.82907344474     IErMin= 4 ErrMin= 2.40D-04
 ErrMax= 2.40D-04  0.00D+00 EMaxC= 1.00D-01 BMatC= 4.04D-05 BMatP= 1.37D-03
 IDIUse=3 WtCom= 9.98D-01 WtEn= 2.40D-03
 Coeff-Com: -0.473D-02-0.322D-01 0.117D+00 0.920D+00
 Coeff-En:   0.000D+00 0.000D+00 0.000D+00 0.100D+01
 Coeff:     -0.472D-02-0.321D-01 0.116D+00 0.921D+00
 Gap=     0.364 Goal=   None    Shift=    0.000
 RMSDP=1.91D-05 MaxDP=9.68D-04 DE=-9.02D-04 OVMax= 1.71D-03

 Cycle   5  Pass 0  IDiag  1:
 E= -1199.82911344818     Delta-E=       -0.000040003441 Rises=F Damp=F
 DIIS: error= 6.11D-05 at cycle   5 NSaved=   5.
 NSaved= 5 IEnMin= 5 EnMin= -1199.82911344818     IErMin= 5 ErrMin= 6.11D-05
 ErrMax= 6.11D-05  0.00D+00 EMaxC= 1.00D-01 BMatC= 5.31D-06 BMatP= 4.04D-05
 IDIUse=1 WtCom= 1.00D+00 WtEn= 0.00D+00
 Coeff-Com:  0.214D-02-0.470D-01 0.178D-01 0.391D+00 0.636D+00
 Coeff:      0.214D-02-0.470D-01 0.178D-01 0.391D+00 0.636D+00
 Gap=     0.364 Goal=   None    Shift=    0.000
 RMSDP=5.75D-06 MaxDP=2.07D-04 DE=-4.00D-05 OVMax= 6.15D-04

 Initial convergence to 1.0D-05 achieved.  Increase integral accuracy.
 Cycle   6  Pass 1  IDiag  1:
 E= -1199.82911587563     Delta-E=       -0.000002427443 Rises=F Damp=F
 DIIS: error= 3.21D-05 at cycle   1 NSaved=   1.
 NSaved= 1 IEnMin= 1 EnMin= -1199.82911587563     IErMin= 1 ErrMin= 3.21D-05
 ErrMax= 3.21D-05  0.00D+00 EMaxC= 1.00D-01 BMatC= 1.69D-06 BMatP= 1.69D-06
 IDIUse=1 WtCom= 1.00D+00 WtEn= 0.00D+00
 Coeff-Com:  0.100D+01
 Coeff:      0.100D+01
 Gap=     0.364 Goal=   None    Shift=    0.000
 RMSDP=5.75D-06 MaxDP=2.07D-04 DE=-2.43D-06 OVMax= 4.32D-04

 Cycle   7  Pass 1  IDiag  1:
 E= -1199.82911601410     Delta-E=       -0.000000138471 Rises=F Damp=F
 DIIS: error= 4.33D-05 at cycle   2 NSaved=   2.
 NSaved= 2 IEnMin= 2 EnMin= -1199.82911601410     IErMin= 1 ErrMin= 3.21D-05
 ErrMax= 4.33D-05  0.00D+00 EMaxC= 1.00D-01 BMatC= 1.95D-06 BMatP= 1.69D-06
 IDIUse=1 WtCom= 1.00D+00 WtEn= 0.00D+00
 Coeff-Com:  0.521D+00 0.479D+00
 Coeff:      0.521D+00 0.479D+00
 Gap=     0.364 Goal=   None    Shift=    0.000
 RMSDP=2.65D-06 MaxDP=1.35D-04 DE=-1.38D-07 OVMax= 3.10D-04

 Cycle   8  Pass 1  IDiag  1:
 E= -1199.82911722733     Delta-E=       -0.000001213233 Rises=F Damp=F
 DIIS: error= 1.11D-05 at cycle   3 NSaved=   3.
 NSaved= 3 IEnMin= 3 EnMin= -1199.82911722733     IErMin= 3 ErrMin= 1.11D-05
 ErrMax= 1.11D-05  0.00D+00 EMaxC= 1.00D-01 BMatC= 9.78D-08 BMatP= 1.69D-06
 IDIUse=1 WtCom= 1.00D+00 WtEn= 0.00D+00
 Coeff-Com: -0.108D-01 0.164D+00 0.847D+00
 Coeff:     -0.108D-01 0.164D+00 0.847D+00
 Gap=     0.364 Goal=   None    Shift=    0.000
 RMSDP=1.01D-06 MaxDP=5.51D-05 DE=-1.21D-06 OVMax= 1.01D-04

 Cycle   9  Pass 1  IDiag  1:
 E= -1199.82911729897     Delta-E=       -0.000000071641 Rises=F Damp=F
 DIIS: error= 3.73D-06 at cycle   4 NSaved=   4.
 NSaved= 4 IEnMin= 4 EnMin= -1199.82911729897     IErMin= 4 ErrMin= 3.73D-06
 ErrMax= 3.73D-06  0.00D+00 EMaxC= 1.00D-01 BMatC= 1.62D-08 BMatP= 9.78D-08
 IDIUse=1 WtCom= 1.00D+00 WtEn= 0.00D+00
 Coeff-Com: -0.347D-01 0.582D-01 0.429D+00 0.548D+00
 Coeff:     -0.347D-01 0.582D-01 0.429D+00 0.548D+00
 Gap=     0.364 Goal=   None    Shift=    0.000
 RMSDP=2.80D-07 MaxDP=2.64D-05 DE=-7.16D-08 OVMax= 2.72D-05

 Cycle  10  Pass 1  IDiag  1:
 E= -1199.82911731045     Delta-E=       -0.000000011480 Rises=F Damp=F
 DIIS: error= 8.59D-07 at cycle   5 NSaved=   5.
 NSaved= 5 IEnMin= 5 EnMin= -1199.82911731045     IErMin= 5 ErrMin= 8.59D-07
 ErrMax= 8.59D-07  0.00D+00 EMaxC= 1.00D-01 BMatC= 7.29D-10 BMatP= 1.62D-08
 IDIUse=1 WtCom= 1.00D+00 WtEn= 0.00D+00
 Coeff-Com: -0.452D-02-0.129D-01-0.573D-01 0.940D-01 0.981D+00
 Coeff:     -0.452D-02-0.129D-01-0.573D-01 0.940D-01 0.981D+00
 Gap=     0.364 Goal=   None    Shift=    0.000
 RMSDP=1.60D-07 MaxDP=8.64D-06 DE=-1.15D-08 OVMax= 2.69D-05

 Cycle  11  Pass 1  IDiag  1:
 E= -1199.82911731190     Delta-E=       -0.000000001454 Rises=F Damp=F
 DIIS: error= 2.77D-07 at cycle   6 NSaved=   6.
 NSaved= 6 IEnMin= 6 EnMin= -1199.82911731190     IErMin= 6 ErrMin= 2.77D-07
 ErrMax= 2.77D-07  0.00D+00 EMaxC= 1.00D-01 BMatC= 9.19D-11 BMatP= 7.29D-10
 IDIUse=1 WtCom= 1.00D+00 WtEn= 0.00D+00
 Coeff-Com:  0.270D-02-0.103D-01-0.648D-01-0.429D-01 0.258D+00 0.857D+00
 Coeff:      0.270D-02-0.103D-01-0.648D-01-0.429D-01 0.258D+00 0.857D+00
 Gap=     0.364 Goal=   None    Shift=    0.000
 RMSDP=5.62D-08 MaxDP=2.70D-06 DE=-1.45D-09 OVMax= 1.00D-05

 Cycle  12  Pass 1  IDiag  1:
 E= -1199.82911731209     Delta-E=       -0.000000000183 Rises=F Damp=F
 DIIS: error= 1.35D-07 at cycle   7 NSaved=   7.
 NSaved= 7 IEnMin= 7 EnMin= -1199.82911731209     IErMin= 7 ErrMin= 1.35D-07
 ErrMax= 1.35D-07  0.00D+00 EMaxC= 1.00D-01 BMatC= 1.86D-11 BMatP= 9.19D-11
 IDIUse=1 WtCom= 1.00D+00 WtEn= 0.00D+00
 Coeff-Com:  0.148D-02-0.313D-02-0.204D-01-0.265D-01 0.115D-01 0.361D+00
 Coeff-Com:  0.676D+00
 Coeff:      0.148D-02-0.313D-02-0.204D-01-0.265D-01 0.115D-01 0.361D+00
 Coeff:      0.676D+00
 Gap=     0.364 Goal=   None    Shift=    0.000
 RMSDP=1.43D-08 MaxDP=6.21D-07 DE=-1.83D-10 OVMax= 2.89D-06

 Cycle  13  Pass 1  IDiag  1:
 E= -1199.82911731214     Delta-E=       -0.000000000051 Rises=F Damp=F
 DIIS: error= 4.29D-08 at cycle   8 NSaved=   8.
 NSaved= 8 IEnMin= 8 EnMin= -1199.82911731214     IErMin= 8 ErrMin= 4.29D-08
 ErrMax= 4.29D-08  0.00D+00 EMaxC= 1.00D-01 BMatC= 2.33D-12 BMatP= 1.86D-11
 IDIUse=1 WtCom= 1.00D+00 WtEn= 0.00D+00
 Coeff-Com:  0.656D-04 0.670D-03 0.444D-02-0.160D-02-0.423D-01-0.205D-01
 Coeff-Com:  0.240D+00 0.819D+00
 Coeff:      0.656D-04 0.670D-03 0.444D-02-0.160D-02-0.423D-01-0.205D-01
 Coeff:      0.240D+00 0.819D+00
 Gap=     0.364 Goal=   None    Shift=    0.000
 RMSDP=6.62D-09 MaxDP=3.24D-07 DE=-5.09D-11 OVMax= 1.39D-06

 SCF Done:  E(RM062X) =  -1199.82911731     A.U. after   13 cycles
            NFock= 13  Conv=0.66D-08     -V/T= 2.0028
 KE= 1.196432012976D+03 PE=-4.768150093250D+03 EE= 1.410692112749D+03
 Leave Link  502 at Sat May 24 06:06:34 2025, MaxMem=  3758096384 cpu:             163.8 elap:              41.5
 (Enter /apps/easybuild-2022/easybuild/software/Compiler/NVHPC/22.11-CUDA-11.7.0/Gaussian/g16c01-CUDA-11.7.0/g16/l508.exe)
 QCSCF skips out because SCF is already converged.
 Leave Link  508 at Sat May 24 06:06:34 2025, MaxMem=  3758096384 cpu:               0.0 elap:               0.0
 (Enter /apps/easybuild-2022/easybuild/software/Compiler/NVHPC/22.11-CUDA-11.7.0/Gaussian/g16c01-CUDA-11.7.0/g16/l701.exe)
 ... and contract with generalized density number  0.
 Compute integral first derivatives.
   1 Symmetry operations used in ECPInt.
 ECPInt:  NShTT=    8515 NPrTT=   27988 LenC2=    8101 LenP2D=   19876.
 LDataN:  DoStor=T MaxTD1= 7 Len=  274
 Leave Link  701 at Sat May 24 06:06:34 2025, MaxMem=  3758096384 cpu:               0.8 elap:               0.2
 (Enter /apps/easybuild-2022/easybuild/software/Compiler/NVHPC/22.11-CUDA-11.7.0/Gaussian/g16c01-CUDA-11.7.0/g16/l702.exe)
 L702 exits ... SP integral derivatives will be done elsewhere.
 Leave Link  702 at Sat May 24 06:06:34 2025, MaxMem=  3758096384 cpu:               0.1 elap:               0.0
 (Enter /apps/easybuild-2022/easybuild/software/Compiler/NVHPC/22.11-CUDA-11.7.0/Gaussian/g16c01-CUDA-11.7.0/g16/l703.exe)
 Integral derivatives from FoFJK, PRISM(SPDF).
 Compute integral first derivatives, UseDBF=F ICtDFT=           0.
 Calling FoFJK, ICntrl=      2127 FMM=F ISym2X=0 I1Cent= 0 IOpClX= 0 NMat=1 NMatS=1 NMatT=0.
 FoFJK:  IHMeth= 1 ICntrl=    2127 DoSepK=F KAlg= 0 I1Cent=           0 FoldK=F
 IRaf=         0 NMat=       1 IRICut=       1 DoRegI=T DoRafI=F ISym2E= 0 IDoP0=0 IntGTp=1.
 FoFCou: FMM=F IPFlag=           0 FMFlag=      100000 FMFlg1=         800
         NFxFlg=           0 DoJE=F BraDBF=F KetDBF=F FulRan=T
         wScrn=  0.000000 ICntrl=      2127 IOpCl=  0 I1Cent=           0 NGrid=           0
         NMat0=    1 NMatS0=      1 NMatT0=    0 NMatD0=    1 NMtDS0=    0 NMtDT0=    0
 Symmetry not used in FoFCou.
 Leave Link  703 at Sat May 24 06:06:48 2025, MaxMem=  3758096384 cpu:             111.3 elap:              14.1
 (Enter /apps/easybuild-2022/easybuild/software/Compiler/NVHPC/22.11-CUDA-11.7.0/Gaussian/g16c01-CUDA-11.7.0/g16/l716.exe)
 Dipole        =-1.04364196D+00 9.32220888D-01-3.21711096D-01
 -------------------------------------------------------------------
 Center     Atomic                   Forces (Hartrees/Bohr)
 Number     Number              X              Y              Z
 -------------------------------------------------------------------
      1        6          -0.003213386    0.001757047    0.000181196
      2        6           0.002946078    0.002489389    0.003069127
      3        9          -0.006399218    0.001878799    0.000306184
      4        9          -0.000531136    0.002963729   -0.000770360
      5       16           0.008908194   -0.016590364   -0.005613337
      6        8          -0.002198111    0.002820898   -0.001103515
      7        8           0.001178303    0.001440928    0.000838849
      8        8          -0.007762328    0.002989891    0.001556270
      9        9           0.006364682   -0.001192509    0.000094842
     10        9          -0.000569725    0.000104913    0.000627343
     11        9           0.000896521   -0.000125955    0.000013908
     12        1           0.000380128    0.001463233    0.000799493
 -------------------------------------------------------------------
 Cartesian Forces:  Max     0.016590364 RMS     0.004130795
 Leave Link  716 at Sat May 24 06:06:49 2025, MaxMem=  3758096384 cpu:               0.0 elap:               0.0
 (Enter /apps/easybuild-2022/easybuild/software/Compiler/NVHPC/22.11-CUDA-11.7.0/Gaussian/g16c01-CUDA-11.7.0/g16/l103.exe)

 GradGradGradGradGradGradGradGradGradGradGradGradGradGradGradGradGradGrad
 Berny optimization.
 Using GEDIIS/GDIIS optimizer.
 FormGI is forming the generalized inverse of G from B-inverse, IUseBI=4.
 Internal  Forces:  Max     0.008953798 RMS     0.002904826
 Search for a local minimum.
 Step number   2 out of a maximum of   78
 All quantities printed in internal units (Hartrees-Bohrs-Radians)
 RMS Force = .29048D-02 SwitMx=.10000D-02 MixMth= 1
 Mixed Optimization -- RFO/linear search
 Update second derivatives using D2CorX and points    1    2
 DE= -1.13D-02 DEPred=-1.38D-02 R= 8.20D-01
 TightC=F SS=  1.41D+00  RLast= 7.54D-01 DXNew= 5.0454D-01 2.2606D+00
 Trust test= 8.20D-01 RLast= 7.54D-01 DXMaxT set to 5.05D-01
 ITU=  1  0
 Use linear search instead of GDIIS.
     Eigenvalues ---   -0.05245  -0.00296   0.00222   0.01382   0.02778
     Eigenvalues ---    0.04931   0.05739   0.06334   0.08040   0.08741
     Eigenvalues ---    0.10224   0.11280   0.12707   0.13219   0.13989
     Eigenvalues ---    0.18323   0.20009   0.21117   0.23487   0.25481
     Eigenvalues ---    0.27744   0.30619   0.32025   0.38115   0.41598
     Eigenvalues ---    0.43739   0.52998   0.53426   0.55525   0.68579
 Eigenvalue     1 is  -5.25D-02 should be greater than     0.000000 Eigenvector:
                          A14       D32       A17       A15       D27
   1                    0.39910   0.37822  -0.28125  -0.28054  -0.27214
                          D29       A22       A20       D22       D18
   1                   -0.22355  -0.20283   0.18245  -0.17604  -0.17028
 Eigenvalue     2 is  -2.96D-03 should be greater than     0.000000 Eigenvector:
                          D29       D30       D31       D32       D20
   1                   -0.52313  -0.51250  -0.48862  -0.45167   0.05593
                          D24       D16       D19       A19       A14
   1                    0.04579   0.04300   0.04090   0.03725   0.03291
 RFO step:  Lambda=-5.46731600D-02 EMin=-5.24524673D-02
 I=     1 Eig=   -5.25D-02 Dot1=  6.53D-03
 I=     1 Stepn=  6.00D-01 RXN=   6.00D-01 EDone=F
 I=     2 Eig=   -2.96D-03 Dot1=  4.49D-04
 I=     2 Stepn=  3.00D-01 RXN=   6.71D-01 EDone=F
 Mixed    2 eigenvectors in step.  Raw Step.Grad=  6.98D-03.
 RFO eigenvector is Hessian eigenvector with negative curvature.
 Taking step of  6.00D-01 in eigenvector direction(s).  Step.Grad=  1.21D-03.
 Quartic linear search produced a step of  0.12534.
 Iteration  1 RMS(Cart)=  0.08979266 RMS(Int)=  0.01492365
 Iteration  2 RMS(Cart)=  0.01154846 RMS(Int)=  0.00549994
 Iteration  3 RMS(Cart)=  0.00066517 RMS(Int)=  0.00547082
 Iteration  4 RMS(Cart)=  0.00001735 RMS(Int)=  0.00547080
 Iteration  5 RMS(Cart)=  0.00000077 RMS(Int)=  0.00547080
[...]
 ! R4    R(1,11)                 1.3204         -DE/DX =    0.0                 !
 ! R5    R(2,3)                  1.3081         -DE/DX =    0.0                 !
 ! R6    R(2,4)                  1.3095         -DE/DX =    0.0                 !
 ! R7    R(2,5)                  1.9306         -DE/DX =    0.0                 !
 ! R8    R(5,6)                  1.6309         -DE/DX =    0.0                 !
 ! R9    R(5,7)                  1.4327         -DE/DX =    0.0                 !
 ! R10   R(5,8)                  1.6399         -DE/DX =    0.0                 !
 ! R11   R(5,9)                  1.6615         -DE/DX =    0.0                 !
 ! R12   R(8,12)                 0.9652         -DE/DX =    0.0                 !
 ! A1    A(2,1,6)              100.1155         -DE/DX =    0.0                 !
 ! A2    A(2,1,10)             112.5122         -DE/DX =    0.0                 !
 ! A3    A(2,1,11)             113.0041         -DE/DX =    0.0                 !
 ! A4    A(6,1,10)             110.7575         -DE/DX =    0.0                 !
 ! A5    A(6,1,11)             111.1628         -DE/DX =    0.0                 !
 ! A6    A(10,1,11)            109.0732         -DE/DX =    0.0                 !
 ! A7    A(1,2,3)              115.2238         -DE/DX =    0.0                 !
 ! A8    A(1,2,4)              114.3431         -DE/DX =    0.0                 !
 ! A9    A(1,2,5)               81.7738         -DE/DX =    0.0                 !
 ! A10   A(3,2,4)              109.2914         -DE/DX =    0.0                 !
 ! A11   A(3,2,5)              117.2036         -DE/DX =    0.0                 !
 ! A12   A(4,2,5)              116.8915         -DE/DX =    0.0                 !
 ! A13   A(2,5,6)               78.9033         -DE/DX =    0.0                 !
 ! A14   A(2,5,7)              164.1829         -DE/DX =    0.0                 !
 ! A15   A(2,5,8)               85.1297         -DE/DX =    0.0                 !
 ! A16   A(2,5,9)               82.2538         -DE/DX =    0.0                 !
 ! A17   A(6,5,7)              116.2935         -DE/DX =    0.0                 !
 ! A18   A(6,5,8)               96.4262         -DE/DX =    0.0                 !
 ! A19   A(6,5,9)               90.954          -DE/DX =    0.0                 !
 ! A20   A(7,5,8)               96.8414         -DE/DX =    0.0                 !
 ! A21   A(7,5,9)               92.6567         -DE/DX =    0.0                 !
 ! A22   A(8,5,9)              163.8856         -DE/DX =    0.0                 !
 ! A23   A(1,6,5)               99.1917         -DE/DX =    0.0                 !
 ! A24   A(5,8,12)             108.2452         -DE/DX =    0.0                 !
 ! D1    D(6,1,2,3)            117.216          -DE/DX =    0.0                 !
 ! D2    D(6,1,2,4)           -114.9081         -DE/DX =    0.0                 !
 ! D3    D(6,1,2,5)              0.9532         -DE/DX =    0.0                 !
 ! D4    D(10,1,2,3)          -125.1612         -DE/DX =    0.0                 !
 ! D5    D(10,1,2,4)             2.7148         -DE/DX =    0.0                 !
 ! D6    D(10,1,2,5)           118.576          -DE/DX =    0.0                 !
 ! D7    D(11,1,2,3)            -1.0878         -DE/DX =    0.0                 !
 ! D8    D(11,1,2,4)           126.7882         -DE/DX =    0.0                 !
 ! D9    D(11,1,2,5)          -117.3506         -DE/DX =    0.0                 !
 ! D10   D(2,1,6,5)             -1.1313         -DE/DX =    0.0                 !
 ! D11   D(10,1,6,5)          -120.0483         -DE/DX =    0.0                 !
 ! D12   D(11,1,6,5)           118.5215         -DE/DX =    0.0                 !
 ! D13   D(1,2,5,6)             -0.8167         -DE/DX =    0.0                 !
 ! D14   D(1,2,5,7)            163.7223         -DE/DX =    0.0                 !
 ! D15   D(1,2,5,8)            -98.3545         -DE/DX =    0.0                 !
 ! D16   D(1,2,5,9)             91.6938         -DE/DX =    0.0                 !
 ! D17   D(3,2,5,6)           -115.0107         -DE/DX =    0.0                 !
 ! D18   D(3,2,5,7)             49.5283         -DE/DX =    0.0                 !
 ! D19   D(3,2,5,8)            147.4515         -DE/DX =    0.0                 !
 ! D20   D(3,2,5,9)            -22.5002         -DE/DX =    0.0                 !
 ! D21   D(4,2,5,6)            112.3661         -DE/DX =    0.0                 !
 ! D22   D(4,2,5,7)            -83.0949         -DE/DX =    0.0                 !
 ! D23   D(4,2,5,8)             14.8283         -DE/DX =    0.0                 !
 ! D24   D(4,2,5,9)           -155.1234         -DE/DX =    0.0                 !
 ! D25   D(2,5,6,1)              0.9232         -DE/DX =    0.0                 !
 ! D26   D(7,5,6,1)           -174.4281         -DE/DX =    0.0                 !
 ! D27   D(8,5,6,1)             84.6566         -DE/DX =    0.0                 !
 ! D28   D(9,5,6,1)            -80.992          -DE/DX =    0.0                 !
 ! D29   D(2,5,8,12)          -179.7618         -DE/DX =    0.0                 !
 ! D30   D(6,5,8,12)           102.0081         -DE/DX =    0.0                 !
 ! D31   D(7,5,8,12)           -15.5392         -DE/DX =    0.0                 !
 ! D32   D(9,5,8,12)          -141.2342         -DE/DX =    0.0                 !
 --------------------------------------------------------------------------------
 GradGradGradGradGradGradGradGradGradGradGradGradGradGradGradGradGradGrad

 Leave Link  103 at Sat May 24 06:28:37 2025, MaxMem=  3758096384 cpu:               0.1 elap:               0.0
 (Enter /apps/easybuild-2022/easybuild/software/Compiler/NVHPC/22.11-CUDA-11.7.0/Gaussian/g16c01-CUDA-11.7.0/g16/l9999.exe)

 ----------------------------------------------------------------------

 Electric dipole moment (input orientation):
 (Debye = 10**-18 statcoulomb cm , SI units = C m)
                  (au)            (Debye)         (10**-30 SI)
   Tot        0.841070D+00      0.213779D+01      0.713089D+01
   x         -0.296803D+00     -0.754398D+00     -0.251640D+01
   y          0.786698D+00      0.199959D+01      0.666991D+01
   z         -0.203107D-01     -0.516246D-01     -0.172201D+00

 Dipole polarizability, Alpha (input orientation).
 (esu units = cm**3 , SI units = C**2 m**2 J**-1)
 Alpha(0;0):
               (au)            (10**-24 esu)      (10**-40 SI)
   iso        0.562112D+02      0.832963D+01      0.926797D+01
   aniso      0.186621D+02      0.276544D+01      0.307696D+01
   xx         0.643026D+02      0.952866D+01      0.106021D+02
   yx         0.211623D+01      0.313593D+00      0.348919D+00
   yy         0.551150D+02      0.816720D+01      0.908724D+01
   zx        -0.728848D+01     -0.108004D+01     -0.120171D+01
   zy        -0.829480D+00     -0.122916D+00     -0.136763D+00
   zz         0.492159D+02      0.729305D+01      0.811461D+01

 ----------------------------------------------------------------------

 Dipole orientation:
     6          1.25549822         -2.61556243         -0.54847550
     6         -0.23037952         -0.09610381         -0.04636907
     9         -2.24528015          0.23408651         -1.43970383
     9         -0.80614038          0.29254691          2.32870899
    16          2.88739573          1.36748825         -1.24933383
     8          3.55178103         -1.63891777         -1.38626037
     8          4.77001573          3.05693496         -2.21445961
     8          3.56461440          1.73598738          1.75228955
     9          1.39776976          1.21759173         -4.00912566
     9          1.57347473         -3.96888551          1.52804129
     9          0.19201520         -4.04289299         -2.29706589
     1          5.20427905          2.52535801          1.87502656

 Electric dipole moment (dipole orientation):
 (Debye = 10**-18 statcoulomb cm , SI units = C m)
                  (au)            (Debye)         (10**-30 SI)
   Tot        0.841070D+00      0.213779D+01      0.713089D+01
   x          0.000000D+00      0.000000D+00      0.000000D+00
   y          0.000000D+00      0.000000D+00      0.000000D+00
   z          0.841070D+00      0.213779D+01      0.713089D+01

 Dipole polarizability, Alpha (dipole orientation).
 (esu units = cm**3 , SI units = C**2 m**2 J**-1)
 Alpha(0;0):
               (au)            (10**-24 esu)      (10**-40 SI)
   iso        0.562112D+02      0.832963D+01      0.926797D+01
   aniso      0.186621D+02      0.276544D+01      0.307696D+01
   xx         0.579360D+02      0.858523D+01      0.955236D+01
   yx         0.104008D+02      0.154125D+01      0.171487D+01
   yy         0.559256D+02      0.828732D+01      0.922088D+01
   zx        -0.509769D+00     -0.755400D-01     -0.840496D-01
   zy        -0.225606D+01     -0.334314D+00     -0.371974D+00
   zz         0.547719D+02      0.811636D+01      0.903067D+01

 ----------------------------------------------------------------------
 Unable to Open any file for archive entry.
 1\1\GINC-SPARTAN-BM162\Freq\RM062X\def2TZVPP\C2H1F5O3S1\AKHALILOV\24-M
 ay-2025\0\\#P Geom=AllCheck Guess=TCheck SCRF=Check GenChk RM062X/def2
 TZVPP Freq\\Gaussian input prepared by ASE\\0,1\C,0.2138605618,-0.1899
 578252,1.5360805216\C,-0.1148970178,-0.0694485969,0.0051398142\F,-0.72
 57804556,-1.1016746706,-0.5167509579\F,-0.7546532249,1.0243622797,-0.3
 250983063\S,1.8110291037,-0.0266945455,-0.1217059226\O,1.6051935288,-0
 .140150936,1.4921861929\O,3.1627596184,-0.0749330868,-0.5940346093\O,1
 .6291008525,1.6004041995,-0.2159949156\F,1.611879019,-1.6675389414,-0.
 2904174616\F,-0.2693464189,0.8206720658,2.2387755949\F,-0.2060413434,-
 1.3239537831,2.0663139456\H,2.5044191174,1.9978572362,-0.3020858003\\V
 ersion=ES64L-G16RevC.01\HF=-1199.8435683\RMSD=4.250e-09\RMSF=1.557e-06
 \ZeroPoint=0.0532484\Thermal=0.0627118\ETot=-1199.7808565\HTot=-1199.7
 799123\GTot=-1199.8254237\Dipole=-0.2968029,0.7866982,-0.0203107\Dipol
 eDeriv=1.2462679,0.0617421,-0.6251328,0.0518978,1.4689468,-0.0085019,-
 0.5570742,-0.0109614,1.2497594,1.7040424,0.0294519,0.1714765,-0.000556
 6,1.2001821,0.057784,0.4642115,0.0870436,0.5921812,-0.6158511,-0.30218
 76,-0.1894496,-0.4326295,-0.5863374,-0.1815934,-0.2360647,-0.2127689,-
 0.3269849,-0.6495768,0.3117491,-0.1358807,0.4482687,-0.6094582,0.11834
 61,-0.1527317,0.14161,-0.2673996,1.8188875,0.0347887,-0.4544034,0.0805
 256,3.1483448,-0.0517231,-0.3658288,-0.0624336,1.8398206,-0.9859925,-0
 .0749969,0.5060735,-0.0509534,-0.4737283,0.0843801,0.1673269,0.0899719
 ,-1.0381791,-1.0027017,0.0581603,0.2709107,-0.0183418,-0.6924279,0.005
 0037,0.1229658,0.0016976,-0.5105308,-0.6180133,-0.1398427,0.0653591,-0
 .2520089,-1.3714422,0.1954816,0.0489355,0.0372805,-0.4841472,-0.468669
 ,-0.0378457,0.0314521,0.1882324,-1.2110874,-0.2095697,0.0225667,-0.072
 8693,-0.3278242,-0.3690438,0.1486384,0.208242,0.2435866,-0.559316,-0.3
 056135,0.288547,-0.2466997,-0.5761574,-0.3445846,-0.1750663,0.1667278,
 -0.2760056,-0.686096,0.3050972,0.2329389,0.2646257,-0.486798,0.2852351
 ,0.0854086,-0.0153753,0.0179847,0.3724196,-0.0090913,-0.0357931,-0.016
 4963,0.3362601\Polar=64.3025524,2.116231,55.1150003,-7.288482,-0.82948
 ,49.2159325\PG=Unknown\NImag=0\\0.47918161,0.00399645,0.59999174,-0.08
 151072,-0.00583152,0.61604737,-0.04193034,0.00117628,-0.01679286,0.464
 44734,0.00203512,-0.04854340,0.00994933,-0.01094333,0.63872916,-0.0164
 6522,0.00923590,-0.16277220,0.14791284,0.01592145,0.48284407,-0.008485
 95,-0.01415291,0.00000465,-0.14230336,-0.11345628,-0.07739074,0.155276
 25,-0.01567453,-0.01325155,-0.00409404,-0.11161267,-0.24108945,-0.1055
 4272,0.13365174,0.34492178,-0.01868402,-0.03218259,-0.00063997,-0.0656
 3296,-0.09385059,-0.13534098,0.08741737,0.12965708,0.12341909,-0.00956
 456,0.01456016,0.00220893,-0.14876062,0.12753695,-0.05695633,0.0191028
 1,-0.00965675,0.00690828,0.16184315,0.01940879,-0.01895918,0.00103571,
 0.12288462,-0.26322442,0.07799371,0.01104352,-0.08729474,-0.00462958,-
 0.15086286,0.37276506,-0.01631742,0.02889671,0.00461264,-0.04762509,0.
 06754314,-0.10440649,0.00920109,-0.01426552,0.01757648,0.06318990,-0.0
 8149098,0.08675185,-0.04069539,-0.00559050,0.07439750,-0.08551206,0.00
 244554,0.02096743,-0.00009650,-0.00491948,-0.00260229,-0.00108610,0.00
 384141,-0.00055106,0.93848593,-0.01415167,0.03472033,0.00770397,-0.000
 84042,0.00728360,0.00177176,-0.02166877,-0.02317005,-0.00232381,0.0217
 5171,-0.01932898,0.00049264,0.00145456,0.48585006,0.14451062,0.0088047
 4,-0.03421191,-0.05762701,-0.00144421,-0.03147167,-0.00456358,0.002353
 24,-0.00146151,0.00020523,-0.00429395,-0.00276060,-0.20811864,-0.01109
 804,0.51140872,-0.18572595,-0.00071813,-0.04855330,-0.05716373,-0.0020
 9649,-0.01630430,-0.00140441,0.00095848,-0.00829315,-0.00077339,0.0007
 0219,-0.00829368,-0.07774101,-0.00021256,-0.02850087,0.38286033,0.0015
 3845,-0.07162240,-0.00039661,0.00024278,0.01125620,0.00286092,0.003134
 57,0.00223785,0.00241852,-0.00257553,0.00222400,-0.00269252,-0.0008956
 4,-0.06102362,0.01154131,0.00809973,0.14126545,-0.05221956,-0.00012472
 ,-0.10241465,-0.01568946,0.00174922,-0.03283870,-0.00891056,-0.0052765
 5,-0.00101433,-0.00881243,0.00550891,-0.00020404,-0.02754026,0.0080271
 5,-0.18921996,0.02342063,-0.01117703,0.34913802,0.00524810,0.00083500,
 -0.00458298,0.01224149,0.00021580,-0.00053592,-0.00376204,-0.00273146,
 -0.00055238,-0.00402169,0.00263826,0.00002251,-0.55139188,0.02250798,0
 .18204154,-0.00145882,0.00012279,0.00206408,0.60846687,0.00024164,-0.0
 0364384,-0.00033026,0.00232577,-0.00408069,0.00060705,0.00096655,0.002
 67958,0.00041320,-0.00155966,0.00382049,-0.00050622,0.02126738,-0.0937
 6394,-0.00739886,-0.00255211,0.00787064,0.00080904,-0.02582777,0.14713
 519,-0.01472294,-0.00079303,-0.00418059,0.00997984,0.00076047,0.000904
 37,-0.00002518,-0.00048120,0.00052480,-0.00044445,0.00064269,0.0007075
 7,0.14575859,-0.00761589,-0.14093546,0.03142327,-0.00055224,0.00267702
 ,-0.20057361,0.00909409,0.10643670,-0.00823516,0.00332781,-0.00669053,
 0.00017897,-0.02291845,0.00146300,-0.00930942,-0.00674867,0.00074649,-
 0.01469800,-0.00681176,-0.00158173,-0.11339775,-0.01578458,0.00840908,
 0.01539915,-0.00250948,0.00433509,-0.02439166,0.05955075,0.01135527,0.
 57833551,0.00106882,-0.00619596,-0.00652257,0.02521654,-0.02050875,0.0
 0652560,-0.00817523,-0.00545976,-0.00094408,-0.01236900,0.00984332,-0.
 00314887,0.01079247,-0.16098194,0.00474520,-0.00411349,-0.01501727,0.0
 1539764,0.02846852,-0.03563722,-0.00548677,0.15005116,0.34866926,-0.01
 291553,-0.00107550,-0.00091487,0.00934450,0.00247161,0.00304308,-0.000
 23373,-0.00067184,0.00035444,-0.00198243,0.00001752,0.00201875,0.00455
 044,0.00583970,-0.05983781,0.00821976,0.03216995,-0.01141550,0.0097326
 6,-0.01642209,0.02037990,-0.06360717,-0.03995822,0.05616347,-0.0055654
 8,-0.00326521,-0.00454817,-0.00382692,0.01423962,-0.00123532,-0.013796
 31,0.01078672,-0.00104849,-0.00635765,0.00406416,0.00159841,-0.0719136
 3,0.01131180,0.00527877,0.01332836,-0.00072968,0.00012204,-0.03149510,
 -0.06050294,0.00941887,0.01247134,0.00247637,-0.00182223,0.10549764,0.
 00468562,-0.01016743,0.00587395,-0.02917101,-0.03759615,-0.00786448,0.
 00829746,0.01527769,0.00551985,0.01230376,-0.00652610,-0.00164251,0.01
 662779,-0.12335794,-0.00943319,0.00240798,-0.01137614,-0.01531475,-0.0
 2696785,-0.03442706,0.00418712,-0.00712429,-0.01122030,-0.00048792,0.0
 1698309,0.21276465,-0.01396857,0.00025457,-0.00005997,0.00668820,-0.00
 048033,0.00539786,-0.00083965,0.00138531,0.00263684,-0.00100202,0.0016
 3233,0.00042399,0.00257210,-0.00390392,-0.05190458,0.00598593,-0.03654
 020,-0.02086852,0.00805257,0.01347304,0.01660157,-0.00248061,-0.000461
 48,0.00211776,-0.01038771,0.02682037,0.04543735,-0.09556747,0.06421982
 ,0.05051084,0.00114526,0.00314827,0.00034797,0.00098684,0.00103121,0.0
 0122412,0.00283342,-0.00427794,-0.00074164,-0.00345406,0.00677084,-0.0
 2030462,-0.04573277,0.03382521,0.04680294,-0.00078467,-0.00099378,0.00
 347764,0.00118034,-0.00156304,0.00128041,0.00158984,0.00087874,0.00296
 934,0.12315776,0.06037926,-0.20847772,-0.11390756,0.01143233,-0.014365
 18,-0.00863838,-0.00141929,0.00019120,-0.00296730,-0.00361947,0.005660
 03,0.00246734,-0.00072718,-0.00883181,0.00639214,0.02745460,0.00130130
 ,-0.01629217,0.00140161,0.00161073,-0.00162294,0.00036073,0.00521314,0
 .00071622,0.00013104,-0.00025714,-0.00045776,-0.10268848,0.30325219,0.
 04956450,-0.10972969,-0.17446801,0.01630075,-0.03272237,-0.01785430,-0
 .00360654,-0.00288055,-0.00821993,-0.00053887,-0.00088297,0.00246437,-
 0.00357047,-0.00243297,-0.00160254,0.02333651,-0.00764090,0.00204789,0
 .00163264,0.00069503,0.00016983,0.00259779,0.00525345,0.00062294,0.000
 33878,-0.00318593,0.00065668,-0.08150066,0.15243526,0.17619787,-0.0882
 8045,-0.06406597,0.03442510,0.00207597,-0.00212502,-0.00051296,0.00243
 324,0.00407076,0.00037056,0.00086804,-0.00107032,0.00072479,-0.0030194
 4,-0.00318533,-0.02013364,-0.04152129,-0.04289707,0.03868928,-0.000599
 00,0.00038478,0.00292440,0.00182033,-0.00174671,0.00314721,0.00082946,
 0.00060205,0.00177718,0.01458283,0.00750060,-0.00414610,0.11061680,-0.
 06023730,-0.25429762,0.10675827,-0.01236182,-0.02092886,0.00785176,0.0
 0365077,0.00607133,-0.00151864,0.00174528,-0.00095602,0.00425384,0.000
 76017,-0.00952544,-0.00783046,-0.03330736,-0.00707416,0.01732141,-0.00
 174373,0.00129136,0.00160751,-0.00066744,-0.00167799,0.00104155,0.0008
 9143,0.00742261,-0.00088174,-0.00097622,-0.08519394,0.00098304,0.10183
 053,0.36458772,0.03367719,0.10254616,-0.14094101,0.01256276,0.03241305
 ,-0.01021713,-0.00006585,0.00071373,0.00258507,-0.00324370,0.00427743,
 -0.00730131,-0.00343851,0.00159484,-0.00319114,0.01792961,0.00769829,0
 .00672470,0.00145608,0.00007639,0.00059832,0.00129284,0.00304702,0.000
 52607,0.00148455,-0.00481496,0.00024168,-0.00411342,-0.01822996,0.0197
 2042,-0.05722005,-0.12919648,0.13092799,-0.00037897,-0.00032280,0.0011
 3154,-0.00059200,0.00191827,-0.00129045,0.00135884,0.00084465,0.000146
 48,0.00061460,-0.00156008,0.00037392,0.00982189,-0.00795356,-0.0011968
 9,-0.00006647,0.00264388,-0.00226178,-0.00805161,0.00669939,0.00142830
 ,-0.43935365,-0.19010639,0.04428611,-0.00076157,0.00047665,0.00063323,
 0.00006268,-0.00020576,-0.00040833,0.00019350,0.00041569,-0.00032151,0
 .43715276,-0.00329065,0.00044706,-0.00023868,0.00165094,-0.00693206,-0
 .00072256,-0.00187213,-0.00111386,0.00040794,0.00274541,0.00197654,0.0
 0009294,-0.04505652,-0.02787026,0.00766208,0.00337716,-0.00004184,-0.0
 0062816,0.00108085,0.00714477,0.00026019,-0.15072579,-0.10702652,0.016
 35904,0.00361359,-0.00053669,-0.00084019,0.00062538,-0.00010280,0.0001
 0860,0.00070169,0.00028103,-0.00012549,0.18715006,0.13377464,-0.000948
 34,-0.00000103,-0.00005683,0.00057848,-0.00231078,0.00271210,-0.000987
 27,-0.00089693,-0.00042001,0.00046790,0.00018918,0.00011678,-0.0024248
 3,0.00194456,0.00518846,-0.00037041,0.00231051,-0.00261192,0.00124280,
 -0.00051041,-0.00388402,0.04416048,0.02155309,-0.01305825,0.00080050,0
 .00034245,-0.00068065,0.00004708,0.00010513,0.00026477,-0.00004577,-0.
 00039006,0.00032635,-0.04252061,-0.02233571,0.01210324\\0.00000002,0.0
 0000100,-0.00000016,-0.00000037,0.00000188,-0.00000099,-0.00000033,0.0
 0000073,0.00000123,0.00000087,0.00000078,-0.00000130,0.00000183,-0.000
 00538,0.00000067,-0.00000044,0.00000100,0.00000060,-0.00000003,-0.0000
 0017,0.00000058,0.00000045,-0.00000167,-0.00000110,-0.00000215,-0.0000
 0143,0.00000197,0.00000026,0.00000277,-0.00000127,-0.00000173,0.000002
 31,0.00000117,0.00000162,-0.00000183,-0.00000139\\\@
 The archive entry for this job was punched.


 THERE IS MUCH PLEASURE TO BE GAINED FROM USELESS KNOWLEDGE

                                       -- BERTRAND RUSSELL
 Job cpu time:       0 days  0 hours 38 minutes  3.9 seconds.
 Elapsed time:       0 days  0 hours  4 minutes 51.5 seconds.
 File lengths (MBytes):  RWF=    165 Int=      0 D2E=      0 Chk=     11 Scr=      1
 Normal termination of Gaussian 16 at Sat May 24 06:28:37 2025.
done
