3
energy = -237.71606351100002
C -2.96163100 -0.87315300 0.73904900
F -4.07515700 -1.23476700 1.28934500
F -2.95957000 -1.46855100 -0.40941400
