3
energy = -548.6193893330001
S 1.59569700 1.03200600 -1.29495000
O 2.17430900 0.94219100 0.00380100
O 1.41328600 2.31997000 -1.87588600
