4
energy = -337.58734468200004
C -0.63765000 -1.36415800 0.19831000
F -0.29141200 -2.07093000 -0.85089300
F -0.24501000 -1.93898400 1.30989400
F -1.92875600 -1.13395600 0.21203200
