5
energy = -624.390584302
S 1.87554400 -0.03911100 0.25477500
O 2.23284800 -0.22964600 1.62790500
O 2.38785900 -0.86651600 -0.80606100
O 2.24773300 1.48237600 -0.08842900
H 2.34398100 1.57070600 -1.04743400
