6
energy = -413.49422769100005
C -1.97493500 0.15598500 -0.29949100
O -0.93913400 0.90595400 0.10920600
F -2.13438700 -0.93734600 0.45321400
F -3.13177500 0.82447900 -0.25167400
F -1.75784000 -0.21942100 -1.54470500
H -1.08696400 1.18734000 1.01848300
