 Entering Gaussian System, Link 0=g16
 Initial command:
 /apps/easybuild-2022/easybuild/software/Compiler/NVHPC/22.11-CUDA-11.7.0/Gaussian/g16c01-CUDA-11.7.0/g16/l1.exe "/tmp/Gau-123577.inp" -scrdir="/tmp/"
 Entering Link 1 = /apps/easybuild-2022/easybuild/software/Compiler/NVHPC/22.11-CUDA-11.7.0/Gaussian/g16c01-CUDA-11.7.0/g16/l1.exe PID=    123578.
  
 Copyright (c) 1988-2019, Gaussian, Inc.  All Rights Reserved.
  
 This is part of the Gaussian(R) 16 program.  It is based on
 the Gaussian(R) 09 system (copyright 2009, Gaussian, Inc.),
 the Gaussian(R) 03 system (copyright 2003, Gaussian, Inc.),
 the Gaussian(R) 98 system (copyright 1998, Gaussian, Inc.),
 the Gaussian(R) 94 system (copyright 1995, Gaussian, Inc.),
 the Gaussian 92(TM) system (copyright 1992, Gaussian, Inc.),
 the Gaussian 90(TM) system (copyright 1990, Gaussian, Inc.),
 the Gaussian 88(TM) system (copyright 1988, Gaussian, Inc.),
 the Gaussian 86(TM) system (copyright 1986, Carnegie Mellon
 University), and the Gaussian 82(TM) system (copyright 1983,
 Carnegie Mellon University). Gaussian is a federally registered
 trademark of Gaussian, Inc.
  
 This software contains proprietary and confidential information,
 including trade secrets, belonging to Gaussian, Inc.
  
 This software is provided under written license and may be
 used, copied, transmitted, or stored only in accord with that
 written license.
  
 The following legend is applicable only to US Government
 contracts under FAR:
  
                    RESTRICTED RIGHTS LEGEND
  
 Use, reproduction and disclosure by the US Government is
 subject to restrictions as set forth in subparagraphs (a)
 and (c) of the Commercial Computer Software - Restricted
 Rights clause in FAR 52.227-19.
  
 Gaussian, Inc.
 340 Quinnipiac St., Bldg. 40, Wallingford CT 06492
  
  
 ---------------------------------------------------------------
 Warning -- This program may not be used in any manner that
 competes with the business of Gaussian, Inc. or will provide
 assistance to any competitor of Gaussian, Inc.  The licensee
 of this program is prohibited from giving any competitor of
 Gaussian, Inc. access to this program.  By using this program,
 the user acknowledges that Gaussian, Inc. is engaged in the
 business of creating and licensing software in the field of
 computational chemistry and represents and warrants to the
 licensee that it is not a competitor of Gaussian, Inc. and that
 it will not use this program in any manner prohibited above.
 ---------------------------------------------------------------
  

 Cite this work as:
 Gaussian 16, Revision C.01,
 M. J. Frisch, G. W. Trucks, H. B. Schlegel, G. E. Scuseria, 
 M. A. Robb, J. R. Cheeseman, G. Scalmani, V. Barone, 
 G. A. Petersson, H. Nakatsuji, X. Li, M. Caricato, A. V. Marenich, 
 J. Bloino, B. G. Janesko, R. Gomperts, B. Mennucci, H. P. Hratchian, 
 J. V. Ortiz, A. F. Izmaylov, J. L. Sonnenberg, D. Williams-Young, 
 F. Ding, F. Lipparini, F. Egidi, J. Goings, B. Peng, A. Petrone, 
 T. Henderson, D. Ranasinghe, V. G. Zakrzewski, J. Gao, N. Rega, 
 G. Zheng, W. Liang, M. Hada, M. Ehara, K. Toyota, R. Fukuda, 
 J. Hasegawa, M. Ishida, T. Nakajima, Y. Honda, O. Kitao, H. Nakai, 
 T. Vreven, K. Throssell, J. A. Montgomery, Jr., J. E. Peralta, 
 F. Ogliaro, M. J. Bearpark, J. J. Heyd, E. N. Brothers, K. N. Kudin, 
 V. N. Staroverov, T. A. Keith, R. Kobayashi, J. Normand, 
 K. Raghavachari, A. P. Rendell, J. C. Burant, S. S. Iyengar, 
 J. Tomasi, M. Cossi, J. M. Millam, M. Klene, C. Adamo, R. Cammi, 
 J. W. Ochterski, R. L. Martin, K. Morokuma, O. Farkas, 
 J. B. Foresman, and D. J. Fox, Gaussian, Inc., Wallingford CT, 2019.
 
 ******************************************
 Gaussian 16:  ES64L-G16RevC.01  3-Jul-2019
                24-May-2025 
 ******************************************
 %mem=28GB
 %nprocshared=8
 Will use up to    8 processors via shared memory.
 ----------------------------------------------------------------------
 #P M062X/Def2TZVPP Symm(None) scf(xqc) pop(None) freq opt(CalcFC, Tigh
 t)
 ----------------------------------------------------------------------
 1/7=10,10=4,18=20,19=15,26=3,38=1/1,3;
 2/9=110,12=2,15=3,17=6,18=5,40=1/2;
 3/5=44,7=202,11=2,25=1,30=1,71=2,74=-55,140=1/1,2,3;
 4//1;
 5/5=2,8=3,13=1,38=5/2,8;
 8/6=4,10=90,11=11/1;
 11/6=1,8=1,9=11,15=111,16=1,31=1/1,2,10;
 10/6=1,13=1,31=1/2;
 7/10=1,25=1,30=1/1,2,3,16;
 1/7=10,10=4,18=20,19=15,26=3/3(2);
 2/9=110,15=3/2;
 99//99;
 2/9=110,15=3/2;
 3/5=44,7=202,11=2,25=1,30=1,71=1,74=-55/1,2,3;
 4/5=5,16=3,69=1/1;
 5/5=2,8=3,13=1,38=5/2,8;
 7/30=1/1,2,3,16;
 1/7=10,18=20,19=15,26=3/3(-5);
 2/9=110,15=3/2;
 99/9=1/99;
 Leave Link    1 at Sat May 24 10:46:27 2025, MaxMem=  3758096384 cpu:               0.0 elap:               0.0
 (Enter /apps/easybuild-2022/easybuild/software/Compiler/NVHPC/22.11-CUDA-11.7.0/Gaussian/g16c01-CUDA-11.7.0/g16/l101.exe)
 ------------------------------
 Gaussian input prepared by ASE
 ------------------------------
 Symbolic Z-matrix:
 Charge =  0 Multiplicity = 1
 C                    -1.97494   0.15599  -0.29949 
 O                    -0.93913   0.90595   0.10921 
 F                    -2.13439  -0.93735   0.45321 
 F                    -3.13178   0.82448  -0.25167 
 F                    -1.75784  -0.21942  -1.54471 
 H                    -1.08696   1.18734   1.01848 
 
 ITRead=  0  0  0  0  0  0
 MicOpt= -1 -1 -1 -1 -1 -1
 NAtoms=      6 NQM=        6 NQMF=       0 NMMI=      0 NMMIF=      0
                NMic=       0 NMicF=      0.
                    Isotopes and Nuclear Properties:
 (Nuclear quadrupole moments (NQMom) in fm**2, nuclear magnetic moments (NMagM)
  in nuclear magnetons)

  Atom         1           2           3           4           5           6
 IAtWgt=          12          16          19          19          19           1
 AtmWgt=  12.0000000  15.9949146  18.9984032  18.9984032  18.9984032   1.0078250
 NucSpn=           0           0           1           1           1           1
 AtZEff=  -0.0000000  -0.0000000  -0.0000000  -0.0000000  -0.0000000  -0.0000000
 NQMom=    0.0000000   0.0000000   0.0000000   0.0000000   0.0000000   0.0000000
 NMagM=    0.0000000   0.0000000   2.6288670   2.6288670   2.6288670   2.7928460
 AtZNuc=   6.0000000   8.0000000   9.0000000   9.0000000   9.0000000   1.0000000
 Leave Link  101 at Sat May 24 10:46:28 2025, MaxMem=  3758096384 cpu:               0.2 elap:               0.2
 (Enter /apps/easybuild-2022/easybuild/software/Compiler/NVHPC/22.11-CUDA-11.7.0/Gaussian/g16c01-CUDA-11.7.0/g16/l103.exe)

 GradGradGradGradGradGradGradGradGradGradGradGradGradGradGradGradGradGrad
 Berny optimization.
 Initialization pass.
                           ----------------------------
                           !    Initial Parameters    !
                           ! (Angstroms and Degrees)  !
 --------------------------                            --------------------------
 ! Name  Definition              Value          Derivative Info.                !
 --------------------------------------------------------------------------------
 ! R1    R(1,2)                  1.3425         calculate D2E/DX2 analytically  !
 ! R2    R(1,3)                  1.3369         calculate D2E/DX2 analytically  !
 ! R3    R(1,4)                  1.337          calculate D2E/DX2 analytically  !
 ! R4    R(1,5)                  1.3186         calculate D2E/DX2 analytically  !
 ! R5    R(2,6)                  0.9632         calculate D2E/DX2 analytically  !
 ! A1    A(2,1,3)              112.1769         calculate D2E/DX2 analytically  !
 ! A2    A(2,1,4)              112.1717         calculate D2E/DX2 analytically  !
 ! A3    A(2,1,5)              108.633          calculate D2E/DX2 analytically  !
 ! A4    A(3,1,4)              106.593          calculate D2E/DX2 analytically  !
 ! A5    A(3,1,5)              108.572          calculate D2E/DX2 analytically  !
 ! A6    A(4,1,5)              108.5781         calculate D2E/DX2 analytically  !
 ! A7    A(1,2,6)              109.3995         calculate D2E/DX2 analytically  !
 ! D1    D(3,1,2,6)            -60.0354         calculate D2E/DX2 analytically  !
 ! D2    D(4,1,2,6)             59.9064         calculate D2E/DX2 analytically  !
 ! D3    D(5,1,2,6)            179.9377         calculate D2E/DX2 analytically  !
 --------------------------------------------------------------------------------
 Trust Radius=3.00D-01 FncErr=1.00D-07 GrdErr=1.00D-06 EigMax=2.50D+02 EigMin=1.00D-04
 Number of steps in this run=     25 maximum allowed number of steps=    100.
 GradGradGradGradGradGradGradGradGradGradGradGradGradGradGradGradGradGrad

 Leave Link  103 at Sat May 24 10:46:28 2025, MaxMem=  3758096384 cpu:               0.0 elap:               0.0
 (Enter /apps/easybuild-2022/easybuild/software/Compiler/NVHPC/22.11-CUDA-11.7.0/Gaussian/g16c01-CUDA-11.7.0/g16/l202.exe)
                          Input orientation:                          
 ---------------------------------------------------------------------
 Center     Atomic      Atomic             Coordinates (Angstroms)
 Number     Number       Type             X           Y           Z
 ---------------------------------------------------------------------
      1          6           0       -1.974935    0.155985   -0.299491
      2          8           0       -0.939134    0.905954    0.109206
      3          9           0       -2.134387   -0.937346    0.453214
      4          9           0       -3.131775    0.824479   -0.251674
      5          9           0       -1.757840   -0.219421   -1.544705
      6          1           0       -1.086964    1.187340    1.018483
 ---------------------------------------------------------------------
                    Distance matrix (angstroms):
                    1          2          3          4          5
     1  C    0.000000
     2  O    1.342524   0.000000
     3  F    1.336923   2.223674   0.000000
     4  F    1.336955   2.223634   2.143753   0.000000
     5  F    1.318567   2.161520   2.156127   2.156236   0.000000
     6  H    1.894529   0.963232   2.435347   2.434383   2.999831
                    6
     6  H    0.000000
 Symmetry turned off by external request.
 Stoichiometry    CHF3O
 Rotational constants (GHZ):           5.7438253           5.6869242           5.6439895
 Leave Link  202 at Sat May 24 10:46:28 2025, MaxMem=  3758096384 cpu:               0.0 elap:               0.0
 (Enter /apps/easybuild-2022/easybuild/software/Compiler/NVHPC/22.11-CUDA-11.7.0/Gaussian/g16c01-CUDA-11.7.0/g16/l301.exe)
 Standard basis: def2TZVPP (5D, 7F)
 Ernie: Thresh=  0.10000D-02 Tol=  0.10000D-05 Strict=F.
   169 basis functions,   272 primitive gaussians,   195 cartesian basis functions
    21 alpha electrons       21 beta electrons
       nuclear repulsion energy       206.5585092289 Hartrees.
 IExCor= 4336 DFT=T Ex+Corr=M062X ExCW=0 ScaHFX=  0.540000
 ScaDFX=  1.000000  1.000000  1.000000  1.000000 ScalE2=  1.000000  1.000000
 IRadAn=      5 IRanWt=     -1 IRanGd=            0 ICorTp=0 IEmpDi=  4
 NAtoms=    6 NActive=    6 NUniq=    6 SFac= 1.00D+00 NAtFMM=   60 NAOKFM=F Big=F
 Integral buffers will be    131072 words long.
 Raffenetti 2 integral format.
 Two-electron integral symmetry is turned off.
 Leave Link  301 at Sat May 24 10:46:28 2025, MaxMem=  3758096384 cpu:               0.1 elap:               0.0
 (Enter /apps/easybuild-2022/easybuild/software/Compiler/NVHPC/22.11-CUDA-11.7.0/Gaussian/g16c01-CUDA-11.7.0/g16/l302.exe)
 NPDir=0 NMtPBC=     1 NCelOv=     1 NCel=       1 NClECP=     1 NCelD=      1
         NCelK=      1 NCelE2=     1 NClLst=     1 CellRange=     0.0.
 One-electron integrals computed using PRISM.
   1 Symmetry operations used in ECPInt.
 ECPInt:  NShTT=    1891 NPrTT=    5999 LenC2=    1870 LenP2D=    4962.
 LDataN:  DoStor=T MaxTD1= 6 Len=  172
 NBasis=   169 RedAO= T EigKep=  1.37D-03  NBF=   169
 NBsUse=   169 1.00D-06 EigRej= -1.00D+00 NBFU=   169
 Precomputing XC quadrature grid using
 IXCGrd= 4 IRadAn=           5 IRanWt=          -1 IRanGd=           0 AccXCQ= 0.00D+00.
 Generated NRdTot=       0 NPtTot=           0 NUsed=           0 NTot=          32
 NSgBfM=   195   195   195   195   195 MxSgAt=     6 MxSgA2=     6.
 Leave Link  302 at Sat May 24 10:46:28 2025, MaxMem=  3758096384 cpu:               0.4 elap:               0.1
 (Enter /apps/easybuild-2022/easybuild/software/Compiler/NVHPC/22.11-CUDA-11.7.0/Gaussian/g16c01-CUDA-11.7.0/g16/l303.exe)
 DipDrv:  MaxL=1.
 Leave Link  303 at Sat May 24 10:46:28 2025, MaxMem=  3758096384 cpu:               0.1 elap:               0.0
 (Enter /apps/easybuild-2022/easybuild/software/Compiler/NVHPC/22.11-CUDA-11.7.0/Gaussian/g16c01-CUDA-11.7.0/g16/l401.exe)
 ExpMin= 9.52D-02 ExpMax= 3.55D+04 ExpMxC= 1.21D+03 IAcc=3 IRadAn=         5 AccDes= 0.00D+00
 Harris functional with IExCor= 1009 and IRadAn=       5 diagonalized for initial guess.
 HarFok:  IExCor= 1009 AccDes= 0.00D+00 IRadAn=         5 IDoV= 1 UseB2=F ITyADJ=14
 ICtDFT=  3500011 ScaDFX=  1.000000  1.000000  1.000000  1.000000
 FoFCou: FMM=F IPFlag=           0 FMFlag=      100000 FMFlg1=           0
         NFxFlg=           0 DoJE=T BraDBF=F KetDBF=T FulRan=T
         wScrn=  0.000000 ICntrl=       500 IOpCl=  0 I1Cent=   200000004 NGrid=           0
         NMat0=    1 NMatS0=      1 NMatT0=    0 NMatD0=    1 NMtDS0=    0 NMtDT0=    0
 Symmetry not used in FoFCou.
 Harris En= -413.284640720422    
 JPrj=0 DoOrth=F DoCkMO=F.
 Leave Link  401 at Sat May 24 10:46:28 2025, MaxMem=  3758096384 cpu:               1.3 elap:               0.2
 (Enter /apps/easybuild-2022/easybuild/software/Compiler/NVHPC/22.11-CUDA-11.7.0/Gaussian/g16c01-CUDA-11.7.0/g16/l502.exe)
 Keep R1 ints in memory in canonical form, NReq=111366824.
 FoFCou: FMM=F IPFlag=           0 FMFlag=           0 FMFlg1=           0
         NFxFlg=           0 DoJE=F BraDBF=F KetDBF=F FulRan=T
         wScrn=  0.000000 ICntrl=       600 IOpCl=  0 I1Cent=           0 NGrid=           0
         NMat0=    1 NMatS0=  14365 NMatT0=    0 NMatD0=    1 NMtDS0=    0 NMtDT0=    0
 Symmetry not used in FoFCou.
 Two-electron integral symmetry not used.
 Closed shell SCF:
 Using DIIS extrapolation, IDIIS=  1040.
 NGot=  3758096384 LenX=  3654833514 LenY=  3654795048
 Requested convergence on RMS density matrix=1.00D-08 within  32 cycles.
 Requested convergence on MAX density matrix=1.00D-06.
 Requested convergence on             energy=1.00D-06.
 No special actions if energy rises.
 Integral accuracy reduced to 1.0D-05 until final iterations.

 Cycle   1  Pass 0  IDiag  1:
 E= -413.424635095382    
 DIIS: error= 2.46D-02 at cycle   1 NSaved=   1.
 NSaved= 1 IEnMin= 1 EnMin= -413.424635095382     IErMin= 1 ErrMin= 2.46D-02
 ErrMax= 2.46D-02  0.00D+00 EMaxC= 1.00D-01 BMatC= 2.07D-01 BMatP= 2.07D-01
 IDIUse=3 WtCom= 7.54D-01 WtEn= 2.46D-01
 Coeff-Com:  0.100D+01
 Coeff-En:   0.100D+01
 Coeff:      0.100D+01
 Gap=     0.445 Goal=   None    Shift=    0.000
 GapD=    0.445 DampG=2.000 DampE=0.500 DampFc=1.0000 IDamp=-1.
 RMSDP=2.13D-03 MaxDP=6.62D-02              OVMax= 1.04D-01

 Cycle   2  Pass 0  IDiag  1:
 E= -413.410109051854     Delta-E=        0.014526043528 Rises=F Damp=F
 DIIS: error= 2.62D-02 at cycle   2 NSaved=   2.
 NSaved= 2 IEnMin= 1 EnMin= -413.424635095382     IErMin= 1 ErrMin= 2.46D-02
 ErrMax= 2.62D-02  0.00D+00 EMaxC= 1.00D-01 BMatC= 1.95D-01 BMatP= 2.07D-01
 IDIUse=3 WtCom= 7.38D-01 WtEn= 2.62D-01
 Coeff-Com:  0.492D+00 0.508D+00
 Coeff-En:   0.534D+00 0.466D+00
 Coeff:      0.503D+00 0.497D+00
 Gap=     0.507 Goal=   None    Shift=    0.000
 RMSDP=1.06D-03 MaxDP=3.52D-02 DE= 1.45D-02 OVMax= 5.83D-02

 Cycle   3  Pass 0  IDiag  1:
 E= -413.523138400310     Delta-E=       -0.113029348455 Rises=F Damp=F
 DIIS: error= 1.61D-03 at cycle   3 NSaved=   3.
 NSaved= 3 IEnMin= 3 EnMin= -413.523138400310     IErMin= 3 ErrMin= 1.61D-03
 ErrMax= 1.61D-03  0.00D+00 EMaxC= 1.00D-01 BMatC= 9.28D-04 BMatP= 1.95D-01
 IDIUse=3 WtCom= 9.84D-01 WtEn= 1.61D-02
 Coeff-Com: -0.788D-02 0.537D-01 0.954D+00
 Coeff-En:   0.000D+00 0.000D+00 0.100D+01
 Coeff:     -0.776D-02 0.529D-01 0.955D+00
 Gap=     0.506 Goal=   None    Shift=    0.000
 RMSDP=1.01D-04 MaxDP=3.58D-03 DE=-1.13D-01 OVMax= 5.99D-03

 Cycle   4  Pass 0  IDiag  1:
 E= -413.523699773748     Delta-E=       -0.000561373439 Rises=F Damp=F
 DIIS: error= 7.14D-04 at cycle   4 NSaved=   4.
 NSaved= 4 IEnMin= 4 EnMin= -413.523699773748     IErMin= 4 ErrMin= 7.14D-04
 ErrMax= 7.14D-04  0.00D+00 EMaxC= 1.00D-01 BMatC= 8.60D-05 BMatP= 9.28D-04
 IDIUse=3 WtCom= 9.93D-01 WtEn= 7.14D-03
 Coeff-Com: -0.655D-02 0.195D-01 0.414D+00 0.573D+00
 Coeff-En:   0.000D+00 0.000D+00 0.000D+00 0.100D+01
 Coeff:     -0.651D-02 0.193D-01 0.411D+00 0.576D+00
 Gap=     0.506 Goal=   None    Shift=    0.000
 RMSDP=2.56D-05 MaxDP=6.93D-04 DE=-5.61D-04 OVMax= 1.68D-03

 Cycle   5  Pass 0  IDiag  1:
 E= -413.523745442536     Delta-E=       -0.000045668787 Rises=F Damp=F
 DIIS: error= 1.40D-04 at cycle   5 NSaved=   5.
 NSaved= 5 IEnMin= 5 EnMin= -413.523745442536     IErMin= 5 ErrMin= 1.40D-04
 ErrMax= 1.40D-04  0.00D+00 EMaxC= 1.00D-01 BMatC= 4.62D-06 BMatP= 8.60D-05
 IDIUse=3 WtCom= 9.99D-01 WtEn= 1.40D-03
 Coeff-Com: -0.182D-02 0.156D-02 0.525D-01 0.195D+00 0.752D+00
 Coeff-En:   0.000D+00 0.000D+00 0.000D+00 0.000D+00 0.100D+01
 Coeff:     -0.182D-02 0.156D-02 0.524D-01 0.195D+00 0.753D+00
 Gap=     0.506 Goal=   None    Shift=    0.000
 RMSDP=7.24D-06 MaxDP=1.88D-04 DE=-4.57D-05 OVMax= 4.10D-04

 Initial convergence to 1.0D-05 achieved.  Increase integral accuracy.
 Cycle   6  Pass 1  IDiag  1:
 E= -413.523744252787     Delta-E=        0.000001189748 Rises=F Damp=F
 DIIS: error= 4.32D-05 at cycle   1 NSaved=   1.
 NSaved= 1 IEnMin= 1 EnMin= -413.523744252787     IErMin= 1 ErrMin= 4.32D-05
 ErrMax= 4.32D-05  0.00D+00 EMaxC= 1.00D-01 BMatC= 5.83D-07 BMatP= 5.83D-07
 IDIUse=1 WtCom= 1.00D+00 WtEn= 0.00D+00
 Coeff-Com:  0.100D+01
 Coeff:      0.100D+01
 Gap=     0.506 Goal=   None    Shift=    0.000
 RMSDP=7.24D-06 MaxDP=1.88D-04 DE= 1.19D-06 OVMax= 1.69D-04

 Cycle   7  Pass 1  IDiag  1:
 E= -413.523744505300     Delta-E=       -0.000000252513 Rises=F Damp=F
 DIIS: error= 3.81D-05 at cycle   2 NSaved=   2.
 NSaved= 2 IEnMin= 2 EnMin= -413.523744505300     IErMin= 2 ErrMin= 3.81D-05
 ErrMax= 3.81D-05  0.00D+00 EMaxC= 1.00D-01 BMatC= 2.92D-07 BMatP= 5.83D-07
 IDIUse=1 WtCom= 1.00D+00 WtEn= 0.00D+00
 Coeff-Com:  0.394D+00 0.606D+00
 Coeff:      0.394D+00 0.606D+00
 Gap=     0.506 Goal=   None    Shift=    0.000
 RMSDP=1.80D-06 MaxDP=4.50D-05 DE=-2.53D-07 OVMax= 9.15D-05

 Cycle   8  Pass 1  IDiag  1:
 E= -413.523744673867     Delta-E=       -0.000000168567 Rises=F Damp=F
 DIIS: error= 1.44D-05 at cycle   3 NSaved=   3.
 NSaved= 3 IEnMin= 3 EnMin= -413.523744673867     IErMin= 3 ErrMin= 1.44D-05
 ErrMax= 1.44D-05  0.00D+00 EMaxC= 1.00D-01 BMatC= 2.87D-08 BMatP= 2.92D-07
 IDIUse=1 WtCom= 1.00D+00 WtEn= 0.00D+00
 Coeff-Com:  0.633D-02 0.227D+00 0.766D+00
 Coeff:      0.633D-02 0.227D+00 0.766D+00
 Gap=     0.506 Goal=   None    Shift=    0.000
 RMSDP=5.36D-07 MaxDP=1.44D-05 DE=-1.69D-07 OVMax= 3.14D-05

 Cycle   9  Pass 1  IDiag  1:
 E= -413.523744690008     Delta-E=       -0.000000016141 Rises=F Damp=F
 DIIS: error= 2.56D-06 at cycle   4 NSaved=   4.
 NSaved= 4 IEnMin= 4 EnMin= -413.523744690008     IErMin= 4 ErrMin= 2.56D-06
 ErrMax= 2.56D-06  0.00D+00 EMaxC= 1.00D-01 BMatC= 1.70D-09 BMatP= 2.87D-08
 IDIUse=1 WtCom= 1.00D+00 WtEn= 0.00D+00
 Coeff-Com: -0.213D-01 0.543D-01 0.287D+00 0.680D+00
 Coeff:     -0.213D-01 0.543D-01 0.287D+00 0.680D+00
 Gap=     0.506 Goal=   None    Shift=    0.000
 RMSDP=1.53D-07 MaxDP=2.92D-06 DE=-1.61D-08 OVMax= 8.23D-06

 Cycle  10  Pass 1  IDiag  1:
 E= -413.523744691112     Delta-E=       -0.000000001104 Rises=F Damp=F
 DIIS: error= 3.93D-07 at cycle   5 NSaved=   5.
 NSaved= 5 IEnMin= 5 EnMin= -413.523744691112     IErMin= 5 ErrMin= 3.93D-07
 ErrMax= 3.93D-07  0.00D+00 EMaxC= 1.00D-01 BMatC= 3.33D-11 BMatP= 1.70D-09
 IDIUse=1 WtCom= 1.00D+00 WtEn= 0.00D+00
 Coeff-Com: -0.191D-02-0.767D-02-0.221D-01 0.461D-01 0.986D+00
 Coeff:     -0.191D-02-0.767D-02-0.221D-01 0.461D-01 0.986D+00
 Gap=     0.506 Goal=   None    Shift=    0.000
 RMSDP=3.74D-08 MaxDP=8.62D-07 DE=-1.10D-09 OVMax= 2.61D-06

 Cycle  11  Pass 1  IDiag  1:
 E= -413.523744691155     Delta-E=       -0.000000000044 Rises=F Damp=F
 DIIS: error= 1.91D-07 at cycle   6 NSaved=   6.
 NSaved= 6 IEnMin= 6 EnMin= -413.523744691155     IErMin= 6 ErrMin= 1.91D-07
 ErrMax= 1.91D-07  0.00D+00 EMaxC= 1.00D-01 BMatC= 1.40D-11 BMatP= 3.33D-11
 IDIUse=1 WtCom= 1.00D+00 WtEn= 0.00D+00
 Coeff-Com:  0.100D-02-0.833D-02-0.351D-01-0.344D-01 0.472D+00 0.605D+00
 Coeff:      0.100D-02-0.833D-02-0.351D-01-0.344D-01 0.472D+00 0.605D+00
 Gap=     0.506 Goal=   None    Shift=    0.000
 RMSDP=1.16D-08 MaxDP=4.03D-07 DE=-4.35D-11 OVMax= 7.70D-07

 Cycle  12  Pass 1  IDiag  1:
 E= -413.523744691157     Delta-E=       -0.000000000002 Rises=F Damp=F
 DIIS: error= 3.85D-08 at cycle   7 NSaved=   7.
 NSaved= 7 IEnMin= 7 EnMin= -413.523744691157     IErMin= 7 ErrMin= 3.85D-08
 ErrMax= 3.85D-08  0.00D+00 EMaxC= 1.00D-01 BMatC= 2.81D-13 BMatP= 1.40D-11
 IDIUse=1 WtCom= 1.00D+00 WtEn= 0.00D+00
 Coeff-Com:  0.327D-03-0.167D-02-0.742D-02-0.117D-01 0.587D-01 0.161D+00
 Coeff-Com:  0.800D+00
 Coeff:      0.327D-03-0.167D-02-0.742D-02-0.117D-01 0.587D-01 0.161D+00
 Coeff:      0.800D+00
 Gap=     0.506 Goal=   None    Shift=    0.000
 RMSDP=2.29D-09 MaxDP=5.17D-08 DE=-2.16D-12 OVMax= 1.56D-07

 SCF Done:  E(RM062X) =  -413.523744691     A.U. after   12 cycles
            NFock= 12  Conv=0.23D-08     -V/T= 2.0036
 KE= 4.120527451730D+02 PE=-1.395452279169D+03 EE= 3.633172800758D+02
 Leave Link  502 at Sat May 24 10:46:31 2025, MaxMem=  3758096384 cpu:              19.0 elap:               3.2
 (Enter /apps/easybuild-2022/easybuild/software/Compiler/NVHPC/22.11-CUDA-11.7.0/Gaussian/g16c01-CUDA-11.7.0/g16/l508.exe)
 QCSCF skips out because SCF is already converged.
 Leave Link  508 at Sat May 24 10:46:31 2025, MaxMem=  3758096384 cpu:               0.0 elap:               0.0
 (Enter /apps/easybuild-2022/easybuild/software/Compiler/NVHPC/22.11-CUDA-11.7.0/Gaussian/g16c01-CUDA-11.7.0/g16/l801.exe)
 DoSCS=F DFT=T ScalE2(SS,OS)=  1.000000  1.000000
 Range of M.O.s used for correlation:     1   169
 NBasis=   169 NAE=    21 NBE=    21 NFC=     0 NFV=     0
 NROrb=    169 NOA=    21 NOB=    21 NVA=   148 NVB=   148

 **** Warning!!: The largest alpha MO coefficient is  0.12556861D+02

 Leave Link  801 at Sat May 24 10:46:31 2025, MaxMem=  3758096384 cpu:               0.0 elap:               0.0
 (Enter /apps/easybuild-2022/easybuild/software/Compiler/NVHPC/22.11-CUDA-11.7.0/Gaussian/g16c01-CUDA-11.7.0/g16/l1101.exe)
 Using compressed storage, NAtomX=     6.
 Will process      7 centers per pass.
   1 Symmetry operations used in ECPInt.
 ECPInt:  NShTT=    1891 NPrTT=    5999 LenC2=    1870 LenP2D=    4962.
 LDataN:  DoStor=T MaxTD1= 7 Len=  274
 Leave Link 1101 at Sat May 24 10:46:31 2025, MaxMem=  3758096384 cpu:               0.5 elap:               0.1
 (Enter /apps/easybuild-2022/easybuild/software/Compiler/NVHPC/22.11-CUDA-11.7.0/Gaussian/g16c01-CUDA-11.7.0/g16/l1102.exe)
 Symmetrizing basis deriv contribution to polar:
 IMax=3 JMax=2 DiffMx= 0.00D+00
 Leave Link 1102 at Sat May 24 10:46:31 2025, MaxMem=  3758096384 cpu:               0.0 elap:               0.0
 (Enter /apps/easybuild-2022/easybuild/software/Compiler/NVHPC/22.11-CUDA-11.7.0/Gaussian/g16c01-CUDA-11.7.0/g16/l1110.exe)
 Forming Gx(P) for the SCF density, NAtomX=     6.
 Integral derivatives from FoFJK, PRISM(SPDF).
 Do as many integral derivatives as possible in FoFJK.
 G2DrvN: MDV=    3758095630.
 G2DrvN: will do     7 centers at a time, making    1 passes.
 Calling FoFCou, ICntrl=  3107 FMM=F I1Cent=   0 AccDes= 0.00D+00.
 FoFJK:  IHMeth= 1 ICntrl=    3107 DoSepK=F KAlg= 0 I1Cent=           0 FoldK=F
 IRaf=         0 NMat=       1 IRICut=       1 DoRegI=T DoRafI=F ISym2E= 0 IDoP0=0 IntGTp=1.
 FoFCou: FMM=F IPFlag=           0 FMFlag=      100000 FMFlg1=           0
         NFxFlg=           0 DoJE=F BraDBF=F KetDBF=F FulRan=T
         wScrn=  0.000000 ICntrl=      3107 IOpCl=  0 I1Cent=           0 NGrid=           0
         NMat0=    1 NMatS0=      1 NMatT0=    0 NMatD0=    1 NMtDS0=    0 NMtDT0=    0
 Symmetry not used in FoFCou.
 End of G2Drv F.D. properties file   721 does not exist.
 End of G2Drv F.D. properties file   722 does not exist.
 End of G2Drv F.D. properties file   788 does not exist.
 Leave Link 1110 at Sat May 24 10:46:37 2025, MaxMem=  3758096384 cpu:              42.0 elap:               5.3
 (Enter /apps/easybuild-2022/easybuild/software/Compiler/NVHPC/22.11-CUDA-11.7.0/Gaussian/g16c01-CUDA-11.7.0/g16/l1002.exe)
 Minotr:  Closed shell wavefunction.
          IDoAtm=111111
          Direct CPHF calculation.
          Differentiating once with respect to nuclear coordinates.
          Requested convergence is 1.0D-08 RMS, and 1.0D-07 maximum.
          Secondary convergence is 1.0D-12 RMS, and 1.0D-12 maximum.
          NewPWx=T KeepS1=F KeepF1=F KeepIn=T MapXYZ=F SortEE=F KeepMc=T.
         1803 words used for storage of precomputed grid.
 Keep R1 ints in memory in canonical form, NReq=111344728.
 FoFCou: FMM=F IPFlag=           0 FMFlag=           0 FMFlg1=           0
         NFxFlg=           0 DoJE=F BraDBF=F KetDBF=F FulRan=T
         wScrn=  0.000000 ICntrl=       600 IOpCl=  0 I1Cent=           0 NGrid=           0
         NMat0=    1 NMatS0=  14365 NMatT0=    0 NMatD0=    1 NMtDS0=    0 NMtDT0=    0
 Symmetry not used in FoFCou.
 Two-electron integral symmetry not used.
          MDV=    3758096384 using IRadAn=       1.
          Solving linear equations simultaneously, MaxMat=       0.
          There are    21 degrees of freedom in the 1st order CPHF.  IDoFFX=6 NUNeed=     0.
     15 vectors produced by pass  0 Test12= 1.48D-14 4.76D-09 XBig12= 1.36D-01 1.06D-01.
 AX will form    15 AO Fock derivatives at one time.
     15 vectors produced by pass  1 Test12= 1.48D-14 4.76D-09 XBig12= 2.29D-02 3.70D-02.
     15 vectors produced by pass  2 Test12= 1.48D-14 4.76D-09 XBig12= 1.41D-03 9.06D-03.
     15 vectors produced by pass  3 Test12= 1.48D-14 4.76D-09 XBig12= 2.92D-05 1.01D-03.
     15 vectors produced by pass  4 Test12= 1.48D-14 4.76D-09 XBig12= 4.74D-07 1.67D-04.
     15 vectors produced by pass  5 Test12= 1.48D-14 4.76D-09 XBig12= 5.12D-09 1.20D-05.
     15 vectors produced by pass  6 Test12= 1.48D-14 4.76D-09 XBig12= 3.95D-11 9.71D-07.
      6 vectors produced by pass  7 Test12= 1.48D-14 4.76D-09 XBig12= 1.85D-13 6.59D-08.
      1 vectors produced by pass  8 Test12= 1.48D-14 4.76D-09 XBig12= 9.57D-16 5.01D-09.
 InvSVY:  IOpt=1 It=  1 EMax= 9.99D-16
 Solved reduced A of dimension   112 with    15 vectors.
 End of Minotr F.D. properties file   721 does not exist.
 End of Minotr F.D. properties file   722 does not exist.
 End of Minotr F.D. properties file   788 does not exist.
 Leave Link 1002 at Sat May 24 10:46:44 2025, MaxMem=  3758096384 cpu:              56.0 elap:               7.2
 (Enter /apps/easybuild-2022/easybuild/software/Compiler/NVHPC/22.11-CUDA-11.7.0/Gaussian/g16c01-CUDA-11.7.0/g16/l701.exe)
 ... and contract with generalized density number  0.
 Compute integral second derivatives.
   1 Symmetry operations used in ECPInt.
 ECPInt:  NShTT=    1891 NPrTT=    5999 LenC2=    1870 LenP2D=    4962.
 LDataN:  DoStor=T MaxTD1= 8 Len=  415
 Leave Link  701 at Sat May 24 10:46:44 2025, MaxMem=  3758096384 cpu:               0.6 elap:               0.1
 (Enter /apps/easybuild-2022/easybuild/software/Compiler/NVHPC/22.11-CUDA-11.7.0/Gaussian/g16c01-CUDA-11.7.0/g16/l702.exe)
 L702 exits ... SP integral derivatives will be done elsewhere.
 Leave Link  702 at Sat May 24 10:46:44 2025, MaxMem=  3758096384 cpu:               0.0 elap:               0.0
 (Enter /apps/easybuild-2022/easybuild/software/Compiler/NVHPC/22.11-CUDA-11.7.0/Gaussian/g16c01-CUDA-11.7.0/g16/l703.exe)
 Integral derivatives from FoFJK, PRISM(SPDF).
 Compute integral second derivatives, UseDBF=F ICtDFT=           0.
 Calling FoFJK, ICntrl=    100127 FMM=F ISym2X=0 I1Cent= 0 IOpClX= 0 NMat=1 NMatS=1 NMatT=0.
 FoFJK:  IHMeth= 1 ICntrl=  100127 DoSepK=F KAlg= 0 I1Cent=           0 FoldK=F
 IRaf=         0 NMat=       1 IRICut=       1 DoRegI=T DoRafI=F ISym2E= 0 IDoP0=0 IntGTp=1.
 FoFCou: FMM=F IPFlag=           0 FMFlag=      100000 FMFlg1=         800
         NFxFlg=           0 DoJE=F BraDBF=F KetDBF=F FulRan=T
         wScrn=  0.000000 ICntrl=    100127 IOpCl=  0 I1Cent=           0 NGrid=           0
         NMat0=    1 NMatS0=      1 NMatT0=    0 NMatD0=    1 NMtDS0=    0 NMtDT0=    0
 Symmetry not used in FoFCou.
 Leave Link  703 at Sat May 24 10:46:58 2025, MaxMem=  3758096384 cpu:             109.3 elap:              13.8
 (Enter /apps/easybuild-2022/easybuild/software/Compiler/NVHPC/22.11-CUDA-11.7.0/Gaussian/g16c01-CUDA-11.7.0/g16/l716.exe)
 Dipole        = 1.43543137D-01 3.56962101D-01 6.86975016D-01
 Polarizability= 0.00000000D+00 0.00000000D+00 0.00000000D+00
                 0.00000000D+00 0.00000000D+00 0.00000000D+00
 -------------------------------------------------------------------
 Center     Atomic                   Forces (Hartrees/Bohr)
 Number     Number              X              Y              Z
 -------------------------------------------------------------------
      1        6           0.000000574   -0.000000501   -0.000001004
      2        8          -0.000000365   -0.000000006    0.000005333
      3        9          -0.000004333    0.000000537   -0.000000134
      4        9           0.000001361    0.000000839   -0.000009113
      5        9           0.000009344   -0.000001707    0.000001100
      6        1          -0.000006580    0.000000837    0.000003817
 -------------------------------------------------------------------
 Cartesian Forces:  Max     0.000009344 RMS     0.000003978
 Force constants in Cartesian coordinates: 
                1             2             3             4             5 
      1  0.603688D+00
      2  0.322444D-01  0.591727D+00
      3  0.118036D-01  0.453701D-01  0.653889D+00
      4 -0.212906D+00 -0.824791D-01 -0.188412D-01  0.347447D+00
      5 -0.944253D-01 -0.145946D+00 -0.303631D-01  0.142907D+00  0.247676D+00
      6 -0.486760D-01 -0.472432D-01 -0.129452D+00 -0.142785D-01  0.205582D+00
      7 -0.839529D-01 -0.217341D-01  0.118100D-01 -0.117133D-01 -0.514442D-01
      8 -0.219143D-01 -0.208979D+00  0.808381D-01 -0.384875D-01 -0.534900D-01
      9  0.967153D-02  0.791065D-01 -0.136697D+00  0.585108D-02  0.649697D-02
     10 -0.221637D+00  0.767121D-01  0.586280D-03 -0.809980D-01  0.424967D-02
     11  0.751609D-01 -0.124158D+00 -0.317066D-02 -0.128185D-01  0.193386D-01
     12 -0.147348D-02 -0.393325D-02 -0.829760D-01 -0.189839D-01  0.321529D-02
     13 -0.893014D-01  0.981643D-02  0.347033D-01  0.673084D-02 -0.188089D-01
     14  0.746334D-02 -0.102600D+00 -0.620787D-01 -0.825374D-02 -0.128409D-01
     15  0.287854D-01 -0.653234D-01 -0.286434D+00 -0.142715D-01 -0.335329D-01
     16  0.410972D-02 -0.145598D-01 -0.400620D-01 -0.485607D-01  0.175220D-01
     17  0.147090D-02 -0.100434D-01 -0.305957D-01 -0.867929D-03 -0.547376D-01
     18 -0.111057D-03 -0.797665D-02 -0.183294D-01  0.605239D-01 -0.151398D+00
                6             7             8             9            10 
      6  0.616423D+00
      7  0.130992D-01  0.906083D-01
      8  0.163927D-01  0.299874D-01  0.309405D+00
      9  0.175080D-01 -0.208377D-01 -0.156473D+00  0.187069D+00
     10 -0.158732D-01 -0.520356D-02  0.341366D-01 -0.125021D-01  0.333577D+00
     11 -0.811268D-03  0.497261D-01 -0.561776D-01  0.258261D-01 -0.145806D+00
     12  0.140746D-01 -0.219393D-01  0.314636D-01  0.469128D-02 -0.942536D-02
     13 -0.406013D-01  0.112685D-01 -0.422040D-02  0.166678D-01 -0.243575D-01
     14 -0.484119D-01 -0.740285D-02  0.790141D-02  0.417000D-01  0.287023D-01
     15 -0.523336D-01  0.156779D-01  0.233584D-01 -0.720667D-01  0.330342D-01
     16  0.106330D+00 -0.100705D-02  0.498158D-03  0.114936D-02 -0.138118D-02
     17 -0.125509D+00  0.867668D-03  0.133993D-02  0.334367D-02  0.200573D-02
     18 -0.466220D+00  0.218987D-02  0.442043D-02 -0.504329D-03  0.418013D-02
               11            12            13            14            15 
     11  0.171378D+00
     12  0.289359D-02  0.810701D-01
     13  0.323479D-01  0.490438D-01  0.981157D-01
     14 -0.935606D-02 -0.344178D-01 -0.154272D-01  0.116722D+00
     15 -0.258090D-01 -0.191152D-01 -0.587386D-01  0.103996D+00  0.427043D+00
     16  0.139005D-02  0.277827D-02 -0.245616D-02 -0.508189D-02 -0.448749D-02
     17 -0.102482D-02  0.778539D-03 -0.370785D-02  0.174172D-03 -0.268886D-02
     18  0.107122D-02  0.225522D-02 -0.107504D-02 -0.787483D-03  0.290688D-02
               16            17            18 
     16  0.492954D-01
     17  0.231475D-03  0.642917D-01
     18 -0.657078D-01  0.154671D+00  0.479892D+00
 FormGI is forming the generalized inverse of G from B-inverse, IUseBI=4.
 Force constants in internal coordinates: 
                1             2             3             4             5 
      1  0.463639D+00
      2  0.556459D-01  0.420239D+00
      3  0.556151D-01  0.562537D-01  0.419570D+00
      4  0.525885D-01  0.549273D-01  0.550007D-01  0.468598D+00
      5  0.236435D-02 -0.376808D-02 -0.380383D-02 -0.283021D-02  0.538620D+00
      6  0.349415D-01  0.301100D-01 -0.399999D-01 -0.376650D-01 -0.604445D-02
      7  0.348143D-01 -0.400040D-01  0.303701D-01 -0.376119D-01 -0.601248D-02
      8  0.465015D-01 -0.383994D-01 -0.384252D-01  0.342668D-01  0.579009D-02
      9 -0.451507D-01  0.350742D-01  0.351859D-01 -0.139757D-01  0.254797D-02
     10 -0.386884D-01  0.299369D-01 -0.147079D-01  0.291350D-01  0.203361D-02
     11 -0.386237D-01 -0.146700D-01  0.296032D-01  0.289982D-01  0.200814D-02
     12  0.485060D-01  0.122811D-02  0.127021D-02  0.101432D-01  0.274088D-01
     13  0.449803D-02 -0.354594D-02 -0.348182D-01  0.355826D-01  0.259902D-02
     14 -0.454694D-02  0.347102D-01  0.377260D-02 -0.355197D-01 -0.261628D-02
     15 -0.247739D-04 -0.341570D-01  0.341142D-01 -0.389259D-04 -0.147495D-04
                6             7             8             9            10 
      6  0.248228D+00
      7 -0.250232D-01  0.247690D+00
      8 -0.301147D-01 -0.301221D-01  0.256267D+00
      9 -0.903818D-01 -0.902714D-01 -0.328583D-01  0.187877D+00
     10 -0.775908D-01 -0.347111D-01 -0.876133D-01  0.167553D-01  0.178732D+00
     11 -0.347984D-01 -0.772253D-01 -0.876439D-01  0.166959D-01  0.171508D-01
     12 -0.896377D-02 -0.911443D-02  0.239740D-01 -0.359385D-02 -0.132990D-02
     13  0.457215D-03 -0.412101D-01  0.424353D-01 -0.574434D-01  0.561591D-01
     14  0.412674D-01 -0.620075D-03 -0.424147D-01  0.574794D-01 -0.141500D-02
     15 -0.378360D-01  0.377924D-01 -0.180231D-04  0.163391D-04 -0.600293D-01
               11            12            13            14            15 
     11  0.178536D+00
     12 -0.126309D-02  0.174975D+00
     13  0.138345D-02  0.874638D-02  0.673879D-01
     14 -0.560737D-01 -0.863556D-02 -0.354322D-01  0.673573D-01
     15  0.600779D-01  0.492451D-04 -0.312181D-01 -0.312254D-01  0.673433D-01
 Leave Link  716 at Sat May 24 10:46:58 2025, MaxMem=  3758096384 cpu:               0.0 elap:               0.0
 (Enter /apps/easybuild-2022/easybuild/software/Compiler/NVHPC/22.11-CUDA-11.7.0/Gaussian/g16c01-CUDA-11.7.0/g16/l103.exe)

 GradGradGradGradGradGradGradGradGradGradGradGradGradGradGradGradGradGrad
 Berny optimization.
 Red2BG is reusing G-inverse.
 Internal  Forces:  Max     0.000000685 RMS     0.000000245
 Search for a local minimum.
 Step number   1 out of a maximum of   25
 All quantities printed in internal units (Hartrees-Bohrs-Radians)
 RMS Force = .24513D-06 SwitMx=.10000D-02 MixMth= 2
 Mixed Optimization -- En-DIIS/RFO-DIIS
 Second derivative matrix not updated -- analytic derivatives used.
 The second derivative matrix:
                          R1        R2        R3        R4        R5
           R1           0.46364
           R2           0.05565   0.42024
           R3           0.05562   0.05625   0.41957
           R4           0.05259   0.05493   0.05500   0.46860
           R5           0.00236  -0.00377  -0.00380  -0.00283   0.53862
           A1           0.03494   0.03011  -0.04000  -0.03767  -0.00604
           A2           0.03481  -0.04000   0.03037  -0.03761  -0.00601
           A3           0.04650  -0.03840  -0.03843   0.03427   0.00579
           A4          -0.04515   0.03507   0.03519  -0.01398   0.00255
           A5          -0.03869   0.02994  -0.01471   0.02914   0.00203
           A6          -0.03862  -0.01467   0.02960   0.02900   0.00201
           A7           0.04851   0.00123   0.00127   0.01014   0.02741
           D1           0.00450  -0.00355  -0.03482   0.03558   0.00260
           D2          -0.00455   0.03471   0.00377  -0.03552  -0.00262
           D3          -0.00002  -0.03416   0.03411  -0.00004  -0.00001
                          A1        A2        A3        A4        A5
           A1           0.24823
           A2          -0.02502   0.24769
           A3          -0.03011  -0.03012   0.25627
           A4          -0.09038  -0.09027  -0.03286   0.18788
           A5          -0.07759  -0.03471  -0.08761   0.01676   0.17873
           A6          -0.03480  -0.07723  -0.08764   0.01670   0.01715
           A7          -0.00896  -0.00911   0.02397  -0.00359  -0.00133
           D1           0.00046  -0.04121   0.04244  -0.05744   0.05616
           D2           0.04127  -0.00062  -0.04241   0.05748  -0.00141
           D3          -0.03784   0.03779  -0.00002   0.00002  -0.06003
                          A6        A7        D1        D2        D3
           A6           0.17854
           A7          -0.00126   0.17497
           D1           0.00138   0.00875   0.06739
           D2          -0.05607  -0.00864  -0.03543   0.06736
           D3           0.06008   0.00005  -0.03122  -0.03123   0.06734
 ITU=  0
     Eigenvalues ---    0.00197   0.15828   0.19675   0.19976   0.26816
     Eigenvalues ---    0.28594   0.30259   0.43052   0.45855   0.52644
     Eigenvalues ---    0.54245   0.61366
 RFO step:  Lambda= 0.00000000D+00 EMin= 1.96558150D-03
 Linear search not attempted -- first point.
 Iteration  1 RMS(Cart)=  0.00000110 RMS(Int)=  0.00000000
 Iteration  2 RMS(Cart)=  0.00000000 RMS(Int)=  0.00000000
 ITry= 1 IFail=0 DXMaxC= 2.18D-06 DCOld= 1.00D+10 DXMaxT= 3.00D-01 DXLimC= 3.00D+00 Rises=F
 Variable       Old X    -DE/DX   Delta X   Delta X   Delta X     New X
                                 (Linear)    (Quad)   (Total)
    R1        2.53700   0.00000   0.00000   0.00000   0.00000   2.53700
    R2        2.52642   0.00000   0.00000   0.00000   0.00000   2.52642
    R3        2.52648   0.00000   0.00000  -0.00000  -0.00000   2.52648
    R4        2.49173   0.00000   0.00000  -0.00000  -0.00000   2.49173
    R5        1.82025  -0.00000   0.00000  -0.00000  -0.00000   1.82025
    A1        1.95786  -0.00000   0.00000  -0.00000  -0.00000   1.95786
    A2        1.95777  -0.00000   0.00000  -0.00000  -0.00000   1.95777
    A3        1.89600  -0.00000   0.00000  -0.00000  -0.00000   1.89600
    A4        1.86040   0.00000   0.00000   0.00000   0.00000   1.86040
    A5        1.89494   0.00000   0.00000   0.00000   0.00000   1.89494
    A6        1.89505   0.00000   0.00000   0.00000   0.00000   1.89505
    A7        1.90938   0.00000   0.00000   0.00000   0.00000   1.90938
    D1       -1.04782  -0.00000   0.00000   0.00000   0.00000  -1.04781
    D2        1.04556   0.00000   0.00000   0.00000   0.00000   1.04557
    D3        3.14051  -0.00000   0.00000   0.00000   0.00000   3.14051
         Item               Value     Threshold  Converged?
 Maximum Force            0.000001     0.000015     YES
 RMS     Force            0.000000     0.000010     YES
 Maximum Displacement     0.000002     0.000060     YES
 RMS     Displacement     0.000001     0.000040     YES
 Predicted change in Energy=-1.106309D-12
 Optimization completed.
    -- Stationary point found.
                           ----------------------------
                           !   Optimized Parameters   !
                           ! (Angstroms and Degrees)  !
 --------------------------                            --------------------------
 ! Name  Definition              Value          Derivative Info.                !
 --------------------------------------------------------------------------------
 ! R1    R(1,2)                  1.3425         -DE/DX =    0.0                 !
 ! R2    R(1,3)                  1.3369         -DE/DX =    0.0                 !
 ! R3    R(1,4)                  1.337          -DE/DX =    0.0                 !
 ! R4    R(1,5)                  1.3186         -DE/DX =    0.0                 !
 ! R5    R(2,6)                  0.9632         -DE/DX =    0.0                 !
 ! A1    A(2,1,3)              112.1769         -DE/DX =    0.0                 !
 ! A2    A(2,1,4)              112.1717         -DE/DX =    0.0                 !
 ! A3    A(2,1,5)              108.633          -DE/DX =    0.0                 !
 ! A4    A(3,1,4)              106.593          -DE/DX =    0.0                 !
 ! A5    A(3,1,5)              108.572          -DE/DX =    0.0                 !
 ! A6    A(4,1,5)              108.5781         -DE/DX =    0.0                 !
 ! A7    A(1,2,6)              109.3995         -DE/DX =    0.0                 !
 ! D1    D(3,1,2,6)            -60.0354         -DE/DX =    0.0                 !
 ! D2    D(4,1,2,6)             59.9064         -DE/DX =    0.0                 !
 ! D3    D(5,1,2,6)            179.9377         -DE/DX =    0.0                 !
 --------------------------------------------------------------------------------
 Lowest energy point so far.  Saving SCF results.
 Largest change from initial coordinates is atom    0       0.000 Angstoms.
 GradGradGradGradGradGradGradGradGradGradGradGradGradGradGradGradGradGrad

 Leave Link  103 at Sat May 24 10:46:58 2025, MaxMem=  3758096384 cpu:               0.0 elap:               0.0
 (Enter /apps/easybuild-2022/easybuild/software/Compiler/NVHPC/22.11-CUDA-11.7.0/Gaussian/g16c01-CUDA-11.7.0/g16/l202.exe)
                          Input orientation:                          
 ---------------------------------------------------------------------
 Center     Atomic      Atomic             Coordinates (Angstroms)
 Number     Number       Type             X           Y           Z
 ---------------------------------------------------------------------
      1          6           0       -1.974935    0.155985   -0.299491
      2          8           0       -0.939134    0.905954    0.109206
      3          9           0       -2.134387   -0.937346    0.453214
      4          9           0       -3.131775    0.824479   -0.251674
      5          9           0       -1.757840   -0.219421   -1.544705
      6          1           0       -1.086964    1.187340    1.018483
 ---------------------------------------------------------------------
                    Distance matrix (angstroms):
                    1          2          3          4          5
     1  C    0.000000
     2  O    1.342524   0.000000
     3  F    1.336923   2.223674   0.000000
     4  F    1.336955   2.223634   2.143753   0.000000
     5  F    1.318567   2.161520   2.156127   2.156236   0.000000
     6  H    1.894529   0.963232   2.435347   2.434383   2.999831
                    6
     6  H    0.000000
 Symmetry turned off by external request.
 Stoichiometry    CHF3O
 Rotational constants (GHZ):           5.7438253           5.6869242           5.6439895
 Leave Link  202 at Sat May 24 10:46:58 2025, MaxMem=  3758096384 cpu:               0.0 elap:               0.0
 (Enter /apps/easybuild-2022/easybuild/software/Compiler/NVHPC/22.11-CUDA-11.7.0/Gaussian/g16c01-CUDA-11.7.0/g16/l9999.exe)
 Unable to Open any file for archive entry.
 1\1\GINC-SPARTAN-BM171\FOpt\RM062X\def2TZVPP\C1H1F3O1\AKHALILOV\24-May
 -2025\0\\#P M062X/Def2TZVPP Symm(None) scf(xqc) pop(None) freq opt(Cal
 cFC, Tight)\\Gaussian input prepared by ASE\\0,1\C,-1.974935,0.155985,
 -0.299491\O,-0.939134,0.905954,0.109206\F,-2.134387,-0.937346,0.453214
 \F,-3.131775,0.824479,-0.251674\F,-1.75784,-0.219421,-1.544705\H,-1.08
 6964,1.18734,1.018483\\Version=ES64L-G16RevC.01\HF=-413.5237447\RMSD=2
 .294e-09\RMSF=3.978e-06\Dipole=0.1435431,0.3569621,0.686975\Polar=0.,0
 .,0.,0.,0.,0.\PG=Unknown\\@
 The archive entry for this job was punched.


 ROSE IS A RED
 TY COBB IS BLUE
 'CAUSE PETE JUST HIT
 NO. 4592.
 Leave Link 9999 at Sat May 24 10:46:58 2025, MaxMem=  3758096384 cpu:               0.0 elap:               0.0
 Job cpu time:       0 days  0 hours  3 minutes 49.9 seconds.
 Elapsed time:       0 days  0 hours  0 minutes 30.4 seconds.
 File lengths (MBytes):  RWF=     22 Int=      0 D2E=      0 Chk=      3 Scr=      1
 Normal termination of Gaussian 16 at Sat May 24 10:46:58 2025.
 (Enter /apps/easybuild-2022/easybuild/software/Compiler/NVHPC/22.11-CUDA-11.7.0/Gaussian/g16c01-CUDA-11.7.0/g16/l1.exe)
 Link1:  Proceeding to internal job step number  2.
 ---------------------------------------------------------------------
 #P Geom=AllCheck Guess=TCheck SCRF=Check GenChk RM062X/def2TZVPP Freq
 ---------------------------------------------------------------------
 1/7=10,10=4,29=7,30=1,38=1,40=1/1,3;
 2/12=2,15=3,40=1/2;
 3/5=44,7=202,11=2,14=-4,25=1,30=1,70=2,71=2,74=-55,116=1,140=1/1,2,3;
 4/5=101/1;
 5/5=2,8=3,13=1,38=6,98=1/2,8;
 8/6=4,10=90,11=11/1;
 11/6=1,8=1,9=11,15=111,16=1,31=1/1,2,10;
 10/6=1,31=1/2;
 7/8=1,10=1,25=1,30=1/1,2,3,16;
 1/7=10,10=4,30=1/3;
 99//99;
 Leave Link    1 at Sat May 24 10:46:58 2025, MaxMem=  3758096384 cpu:               0.0 elap:               0.0
 (Enter /apps/easybuild-2022/easybuild/software/Compiler/NVHPC/22.11-CUDA-11.7.0/Gaussian/g16c01-CUDA-11.7.0/g16/l101.exe)
 Structure from the checkpoint file:  "/tmp/Gau-123578.chk"
 ------------------------------
 Gaussian input prepared by ASE
 ------------------------------
 Charge =  0 Multiplicity = 1
 Redundant internal coordinates found in file.  (old form).
 C,0,-1.974935,0.155985,-0.299491
 O,0,-0.939134,0.905954,0.109206
 F,0,-2.134387,-0.937346,0.453214
 F,0,-3.131775,0.824479,-0.251674
 F,0,-1.75784,-0.219421,-1.544705
 H,0,-1.086964,1.18734,1.018483
 Recover connectivity data from disk.
 ITRead=  0  0  0  0  0  0
 MicOpt= -1 -1 -1 -1 -1 -1
 NAtoms=      6 NQM=        6 NQMF=       0 NMMI=      0 NMMIF=      0
                NMic=       0 NMicF=      0.
                    Isotopes and Nuclear Properties:
 (Nuclear quadrupole moments (NQMom) in fm**2, nuclear magnetic moments (NMagM)
  in nuclear magnetons)

  Atom         1           2           3           4           5           6
 IAtWgt=          12          16          19          19          19           1
 AtmWgt=  12.0000000  15.9949146  18.9984032  18.9984032  18.9984032   1.0078250
 NucSpn=           0           0           1           1           1           1
 AtZEff=   3.6000000   5.6000000   6.7500000   6.7500000   6.7500000   1.0000000
 NQMom=    0.0000000   0.0000000   0.0000000   0.0000000   0.0000000   0.0000000
 NMagM=    0.0000000   0.0000000   2.6288670   2.6288670   2.6288670   2.7928460
 AtZNuc=   6.0000000   8.0000000   9.0000000   9.0000000   9.0000000   1.0000000
 Leave Link  101 at Sat May 24 10:46:58 2025, MaxMem=  3758096384 cpu:               0.2 elap:               0.2
 (Enter /apps/easybuild-2022/easybuild/software/Compiler/NVHPC/22.11-CUDA-11.7.0/Gaussian/g16c01-CUDA-11.7.0/g16/l103.exe)

 GradGradGradGradGradGradGradGradGradGradGradGradGradGradGradGradGradGrad
 Berny optimization.
 Initialization pass.
                           ----------------------------
                           !    Initial Parameters    !
                           ! (Angstroms and Degrees)  !
 --------------------------                            --------------------------
 ! Name  Definition              Value          Derivative Info.                !
 --------------------------------------------------------------------------------
 ! R1    R(1,2)                  1.3425         calculate D2E/DX2 analytically  !
 ! R2    R(1,3)                  1.3369         calculate D2E/DX2 analytically  !
 ! R3    R(1,4)                  1.337          calculate D2E/DX2 analytically  !
 ! R4    R(1,5)                  1.3186         calculate D2E/DX2 analytically  !
 ! R5    R(2,6)                  0.9632         calculate D2E/DX2 analytically  !
 ! A1    A(2,1,3)              112.1769         calculate D2E/DX2 analytically  !
 ! A2    A(2,1,4)              112.1717         calculate D2E/DX2 analytically  !
 ! A3    A(2,1,5)              108.633          calculate D2E/DX2 analytically  !
 ! A4    A(3,1,4)              106.593          calculate D2E/DX2 analytically  !
 ! A5    A(3,1,5)              108.572          calculate D2E/DX2 analytically  !
 ! A6    A(4,1,5)              108.5781         calculate D2E/DX2 analytically  !
 ! A7    A(1,2,6)              109.3995         calculate D2E/DX2 analytically  !
 ! D1    D(3,1,2,6)            -60.0354         calculate D2E/DX2 analytically  !
 ! D2    D(4,1,2,6)             59.9064         calculate D2E/DX2 analytically  !
 ! D3    D(5,1,2,6)            179.9377         calculate D2E/DX2 analytically  !
 --------------------------------------------------------------------------------
 Trust Radius=3.00D-01 FncErr=1.00D-07 GrdErr=1.00D-07 EigMax=2.50D+02 EigMin=1.00D-04
 Number of steps in this run=      2 maximum allowed number of steps=      2.
 GradGradGradGradGradGradGradGradGradGradGradGradGradGradGradGradGradGrad

 Leave Link  103 at Sat May 24 10:46:58 2025, MaxMem=  3758096384 cpu:               0.0 elap:               0.0
 (Enter /apps/easybuild-2022/easybuild/software/Compiler/NVHPC/22.11-CUDA-11.7.0/Gaussian/g16c01-CUDA-11.7.0/g16/l202.exe)
                          Input orientation:                          
 ---------------------------------------------------------------------
 Center     Atomic      Atomic             Coordinates (Angstroms)
 Number     Number       Type             X           Y           Z
 ---------------------------------------------------------------------
      1          6           0       -1.974935    0.155985   -0.299491
      2          8           0       -0.939134    0.905954    0.109206
      3          9           0       -2.134387   -0.937346    0.453214
      4          9           0       -3.131775    0.824479   -0.251674
      5          9           0       -1.757840   -0.219421   -1.544705
      6          1           0       -1.086964    1.187340    1.018483
 ---------------------------------------------------------------------
                    Distance matrix (angstroms):
                    1          2          3          4          5
     1  C    0.000000
     2  O    1.342524   0.000000
     3  F    1.336923   2.223674   0.000000
     4  F    1.336955   2.223634   2.143753   0.000000
     5  F    1.318567   2.161520   2.156127   2.156236   0.000000
     6  H    1.894529   0.963232   2.435347   2.434383   2.999831
                    6
     6  H    0.000000
 Symmetry turned off by external request.
 Stoichiometry    CHF3O
 Rotational constants (GHZ):           5.7438253           5.6869242           5.6439895
 Leave Link  202 at Sat May 24 10:46:58 2025, MaxMem=  3758096384 cpu:               0.0 elap:               0.0
 (Enter /apps/easybuild-2022/easybuild/software/Compiler/NVHPC/22.11-CUDA-11.7.0/Gaussian/g16c01-CUDA-11.7.0/g16/l301.exe)
 Standard basis: def2TZVPP (5D, 7F)
 Ernie: Thresh=  0.10000D-02 Tol=  0.10000D-05 Strict=F.
   169 basis functions,   272 primitive gaussians,   195 cartesian basis functions
    21 alpha electrons       21 beta electrons
       nuclear repulsion energy       206.5585092289 Hartrees.
 IExCor= 4336 DFT=T Ex+Corr=M062X ExCW=0 ScaHFX=  0.540000
 ScaDFX=  1.000000  1.000000  1.000000  1.000000 ScalE2=  1.000000  1.000000
 IRadAn=      5 IRanWt=     -1 IRanGd=            0 ICorTp=0 IEmpDi=  4
 NAtoms=    6 NActive=    6 NUniq=    6 SFac= 1.00D+00 NAtFMM=   60 NAOKFM=F Big=F
 Integral buffers will be    131072 words long.
 Raffenetti 2 integral format.
 Two-electron integral symmetry is turned off.
 Leave Link  301 at Sat May 24 10:46:58 2025, MaxMem=  3758096384 cpu:               0.0 elap:               0.0
 (Enter /apps/easybuild-2022/easybuild/software/Compiler/NVHPC/22.11-CUDA-11.7.0/Gaussian/g16c01-CUDA-11.7.0/g16/l302.exe)
 NPDir=0 NMtPBC=     1 NCelOv=     1 NCel=       1 NClECP=     1 NCelD=      1
         NCelK=      1 NCelE2=     1 NClLst=     1 CellRange=     0.0.
 One-electron integrals computed using PRISM.
   1 Symmetry operations used in ECPInt.
 ECPInt:  NShTT=    1891 NPrTT=    5999 LenC2=    1870 LenP2D=    4962.
 LDataN:  DoStor=T MaxTD1= 6 Len=  172
 NBasis=   169 RedAO= T EigKep=  1.37D-03  NBF=   169
 NBsUse=   169 1.00D-06 EigRej= -1.00D+00 NBFU=   169
 Precomputing XC quadrature grid using
 IXCGrd= 4 IRadAn=           5 IRanWt=          -1 IRanGd=           0 AccXCQ= 0.00D+00.
 Generated NRdTot=       0 NPtTot=           0 NUsed=           0 NTot=          32
 NSgBfM=   195   195   195   195   195 MxSgAt=     6 MxSgA2=     6.
 Leave Link  302 at Sat May 24 10:46:58 2025, MaxMem=  3758096384 cpu:               0.4 elap:               0.1
 (Enter /apps/easybuild-2022/easybuild/software/Compiler/NVHPC/22.11-CUDA-11.7.0/Gaussian/g16c01-CUDA-11.7.0/g16/l303.exe)
 DipDrv:  MaxL=1.
 Leave Link  303 at Sat May 24 10:46:58 2025, MaxMem=  3758096384 cpu:               0.0 elap:               0.0
 (Enter /apps/easybuild-2022/easybuild/software/Compiler/NVHPC/22.11-CUDA-11.7.0/Gaussian/g16c01-CUDA-11.7.0/g16/l401.exe)
 Initial guess from the checkpoint file:  "/tmp/Gau-123578.chk"
 B after Tr=     0.000000    0.000000    0.000000
         Rot=    1.000000    0.000000    0.000000    0.000000 Ang=   0.00 deg.
 Guess basis will be translated and rotated to current coordinates.
 JPrj=2 DoOrth=T DoCkMO=T.
 Leave Link  401 at Sat May 24 10:46:58 2025, MaxMem=  3758096384 cpu:               0.1 elap:               0.1
 (Enter /apps/easybuild-2022/easybuild/software/Compiler/NVHPC/22.11-CUDA-11.7.0/Gaussian/g16c01-CUDA-11.7.0/g16/l502.exe)
 Keep R1 ints in memory in canonical form, NReq=111366824.
 FoFCou: FMM=F IPFlag=           0 FMFlag=           0 FMFlg1=           0
         NFxFlg=           0 DoJE=F BraDBF=F KetDBF=F FulRan=T
         wScrn=  0.000000 ICntrl=       600 IOpCl=  0 I1Cent=           0 NGrid=           0
         NMat0=    1 NMatS0=  14365 NMatT0=    0 NMatD0=    1 NMtDS0=    0 NMtDT0=    0
 Symmetry not used in FoFCou.
 Two-electron integral symmetry not used.
 Closed shell SCF:
 Using DIIS extrapolation, IDIIS=  1040.
 NGot=  3758096384 LenX=  3654833514 LenY=  3654795048
 Requested convergence on RMS density matrix=1.00D-08 within  32 cycles.
 Requested convergence on MAX density matrix=1.00D-06.
 Requested convergence on             energy=1.00D-06.
 No special actions if energy rises.

 Cycle   1  Pass 1  IDiag  1:
 E= -413.523744691163    
 DIIS: error= 6.04D-09 at cycle   1 NSaved=   1.
 NSaved= 1 IEnMin= 1 EnMin= -413.523744691163     IErMin= 1 ErrMin= 6.04D-09
 ErrMax= 6.04D-09  0.00D+00 EMaxC= 1.00D-01 BMatC= 5.85D-15 BMatP= 5.85D-15
 IDIUse=1 WtCom= 1.00D+00 WtEn= 0.00D+00
 Coeff-Com:  0.100D+01
 Coeff:      0.100D+01
 Gap=     0.506 Goal=   None    Shift=    0.000
 RMSDP=5.76D-10 MaxDP=1.07D-08              OVMax= 3.40D-08

 SCF Done:  E(RM062X) =  -413.523744691     A.U. after    1 cycles
            NFock=  1  Conv=0.58D-09     -V/T= 2.0036
 KE= 4.120527449812D+02 PE=-1.395452282946D+03 EE= 3.633172840444D+02
 Leave Link  502 at Sat May 24 10:46:59 2025, MaxMem=  3758096384 cpu:               5.1 elap:               0.8
 (Enter /apps/easybuild-2022/easybuild/software/Compiler/NVHPC/22.11-CUDA-11.7.0/Gaussian/g16c01-CUDA-11.7.0/g16/l508.exe)
 QCSCF skips out because SCF is already converged.
 Leave Link  508 at Sat May 24 10:46:59 2025, MaxMem=  3758096384 cpu:               0.0 elap:               0.0
 (Enter /apps/easybuild-2022/easybuild/software/Compiler/NVHPC/22.11-CUDA-11.7.0/Gaussian/g16c01-CUDA-11.7.0/g16/l801.exe)
 DoSCS=F DFT=T ScalE2(SS,OS)=  1.000000  1.000000
 Range of M.O.s used for correlation:     1   169
 NBasis=   169 NAE=    21 NBE=    21 NFC=     0 NFV=     0
 NROrb=    169 NOA=    21 NOB=    21 NVA=   148 NVB=   148

 **** Warning!!: The largest alpha MO coefficient is  0.12556861D+02

 Leave Link  801 at Sat May 24 10:46:59 2025, MaxMem=  3758096384 cpu:               0.0 elap:               0.0
 (Enter /apps/easybuild-2022/easybuild/software/Compiler/NVHPC/22.11-CUDA-11.7.0/Gaussian/g16c01-CUDA-11.7.0/g16/l1101.exe)
 Using compressed storage, NAtomX=     6.
 Will process      7 centers per pass.
   1 Symmetry operations used in ECPInt.
 ECPInt:  NShTT=    1891 NPrTT=    5999 LenC2=    1870 LenP2D=    4962.
 LDataN:  DoStor=T MaxTD1= 7 Len=  274
 Leave Link 1101 at Sat May 24 10:46:59 2025, MaxMem=  3758096384 cpu:               0.5 elap:               0.1
 (Enter /apps/easybuild-2022/easybuild/software/Compiler/NVHPC/22.11-CUDA-11.7.0/Gaussian/g16c01-CUDA-11.7.0/g16/l1102.exe)
 Symmetrizing basis deriv contribution to polar:
 IMax=3 JMax=2 DiffMx= 0.00D+00
 Leave Link 1102 at Sat May 24 10:46:59 2025, MaxMem=  3758096384 cpu:               0.0 elap:               0.0
 (Enter /apps/easybuild-2022/easybuild/software/Compiler/NVHPC/22.11-CUDA-11.7.0/Gaussian/g16c01-CUDA-11.7.0/g16/l1110.exe)
 Forming Gx(P) for the SCF density, NAtomX=     6.
 Integral derivatives from FoFJK, PRISM(SPDF).
 Do as many integral derivatives as possible in FoFJK.
 G2DrvN: MDV=    3758095630.
 G2DrvN: will do     7 centers at a time, making    1 passes.
 Calling FoFCou, ICntrl=  3107 FMM=F I1Cent=   0 AccDes= 0.00D+00.
 FoFJK:  IHMeth= 1 ICntrl=    3107 DoSepK=F KAlg= 0 I1Cent=           0 FoldK=F
 IRaf=         0 NMat=       1 IRICut=       1 DoRegI=T DoRafI=F ISym2E= 0 IDoP0=0 IntGTp=1.
 FoFCou: FMM=F IPFlag=           0 FMFlag=      100000 FMFlg1=           0
         NFxFlg=           0 DoJE=F BraDBF=F KetDBF=F FulRan=T
         wScrn=  0.000000 ICntrl=      3107 IOpCl=  0 I1Cent=           0 NGrid=           0
         NMat0=    1 NMatS0=      1 NMatT0=    0 NMatD0=    1 NMtDS0=    0 NMtDT0=    0
 Symmetry not used in FoFCou.
 End of G2Drv F.D. properties file   721 does not exist.
 End of G2Drv F.D. properties file   722 does not exist.
 End of G2Drv F.D. properties file   788 does not exist.
 Leave Link 1110 at Sat May 24 10:47:05 2025, MaxMem=  3758096384 cpu:              42.0 elap:               5.3
 (Enter /apps/easybuild-2022/easybuild/software/Compiler/NVHPC/22.11-CUDA-11.7.0/Gaussian/g16c01-CUDA-11.7.0/g16/l1002.exe)
 Minotr:  Closed shell wavefunction.
          IDoAtm=111111
          Direct CPHF calculation.
          Differentiating once with respect to electric field.
                with respect to dipole field.
          Differentiating once with respect to nuclear coordinates.
          Requested convergence is 1.0D-08 RMS, and 1.0D-07 maximum.
          Secondary convergence is 1.0D-12 RMS, and 1.0D-12 maximum.
          NewPWx=T KeepS1=F KeepF1=F KeepIn=T MapXYZ=F SortEE=F KeepMc=T.
         1803 words used for storage of precomputed grid.
 Keep R1 ints in memory in canonical form, NReq=111344728.
 FoFCou: FMM=F IPFlag=           0 FMFlag=           0 FMFlg1=           0
         NFxFlg=           0 DoJE=F BraDBF=F KetDBF=F FulRan=T
         wScrn=  0.000000 ICntrl=       600 IOpCl=  0 I1Cent=           0 NGrid=           0
         NMat0=    1 NMatS0=  14365 NMatT0=    0 NMatD0=    1 NMtDS0=    0 NMtDT0=    0
 Symmetry not used in FoFCou.
 Two-electron integral symmetry not used.
          MDV=    3758096384 using IRadAn=       1.
          Solving linear equations simultaneously, MaxMat=       0.
          There are    21 degrees of freedom in the 1st order CPHF.  IDoFFX=6 NUNeed=     3.
     18 vectors produced by pass  0 Test12= 1.48D-14 4.76D-09 XBig12= 5.84D+00 8.71D-01.
 AX will form    18 AO Fock derivatives at one time.
     18 vectors produced by pass  1 Test12= 1.48D-14 4.76D-09 XBig12= 6.97D-01 2.15D-01.
     18 vectors produced by pass  2 Test12= 1.48D-14 4.76D-09 XBig12= 1.24D-02 2.50D-02.
     18 vectors produced by pass  3 Test12= 1.48D-14 4.76D-09 XBig12= 1.93D-04 2.49D-03.
     18 vectors produced by pass  4 Test12= 1.48D-14 4.76D-09 XBig12= 2.27D-06 3.32D-04.
     18 vectors produced by pass  5 Test12= 1.48D-14 4.76D-09 XBig12= 1.97D-08 2.83D-05.
     16 vectors produced by pass  6 Test12= 1.48D-14 4.76D-09 XBig12= 1.17D-10 1.64D-06.
      6 vectors produced by pass  7 Test12= 1.48D-14 4.76D-09 XBig12= 5.56D-13 1.09D-07.
      3 vectors produced by pass  8 Test12= 1.48D-14 4.76D-09 XBig12= 2.26D-15 8.27D-09.
 InvSVY:  IOpt=1 It=  1 EMax= 3.11D-15
 Solved reduced A of dimension   133 with    21 vectors.
 FullF1:  Do perturbations      1 to       3.
 Isotropic polarizability for W=    0.000000       19.46 Bohr**3.
 End of Minotr F.D. properties file   721 does not exist.
 End of Minotr F.D. properties file   722 does not exist.
 End of Minotr F.D. properties file   788 does not exist.
 Leave Link 1002 at Sat May 24 10:47:13 2025, MaxMem=  3758096384 cpu:              65.3 elap:               8.3
 (Enter /apps/easybuild-2022/easybuild/software/Compiler/NVHPC/22.11-CUDA-11.7.0/Gaussian/g16c01-CUDA-11.7.0/g16/l701.exe)
 ... and contract with generalized density number  0.
 Compute integral second derivatives.
   1 Symmetry operations used in ECPInt.
 ECPInt:  NShTT=    1891 NPrTT=    5999 LenC2=    1870 LenP2D=    4962.
 LDataN:  DoStor=T MaxTD1= 8 Len=  415
 Leave Link  701 at Sat May 24 10:47:13 2025, MaxMem=  3758096384 cpu:               0.6 elap:               0.1
 (Enter /apps/easybuild-2022/easybuild/software/Compiler/NVHPC/22.11-CUDA-11.7.0/Gaussian/g16c01-CUDA-11.7.0/g16/l702.exe)
 L702 exits ... SP integral derivatives will be done elsewhere.
 Leave Link  702 at Sat May 24 10:47:13 2025, MaxMem=  3758096384 cpu:               0.0 elap:               0.0
 (Enter /apps/easybuild-2022/easybuild/software/Compiler/NVHPC/22.11-CUDA-11.7.0/Gaussian/g16c01-CUDA-11.7.0/g16/l703.exe)
 Integral derivatives from FoFJK, PRISM(SPDF).
 Compute integral second derivatives, UseDBF=F ICtDFT=           0.
 Calling FoFJK, ICntrl=    100127 FMM=F ISym2X=0 I1Cent= 0 IOpClX= 0 NMat=1 NMatS=1 NMatT=0.
 FoFJK:  IHMeth= 1 ICntrl=  100127 DoSepK=F KAlg= 0 I1Cent=           0 FoldK=F
 IRaf=         0 NMat=       1 IRICut=       1 DoRegI=T DoRafI=F ISym2E= 0 IDoP0=0 IntGTp=1.
 FoFCou: FMM=F IPFlag=           0 FMFlag=      100000 FMFlg1=         800
         NFxFlg=           0 DoJE=F BraDBF=F KetDBF=F FulRan=T
         wScrn=  0.000000 ICntrl=    100127 IOpCl=  0 I1Cent=           0 NGrid=           0
         NMat0=    1 NMatS0=      1 NMatT0=    0 NMatD0=    1 NMtDS0=    0 NMtDT0=    0
 Symmetry not used in FoFCou.
 Leave Link  703 at Sat May 24 10:47:27 2025, MaxMem=  3758096384 cpu:             108.0 elap:              13.6
 (Enter /apps/easybuild-2022/easybuild/software/Compiler/NVHPC/22.11-CUDA-11.7.0/Gaussian/g16c01-CUDA-11.7.0/g16/l716.exe)
 Dipole        = 1.43543151D-01 3.56962096D-01 6.86975187D-01
 Polarizability= 1.91195585D+01 4.89149310D-01 1.90907996D+01
                 3.02570804D-01 8.48018252D-01 2.01568293D+01
 Full mass-weighted force constant matrix:
 Low frequencies ---   -6.1758   -0.0006    0.0005    0.0011   11.8034   16.5834
 Low frequencies ---  223.4145  446.1852  453.8660
 Diagonal vibrational polarizability:
       22.9307961      52.7432205      14.0496723
 Harmonic frequencies (cm**-1), IR intensities (KM/Mole), Raman scattering
 activities (A**4/AMU), depolarization ratios for plane and unpolarized
 incident light, reduced masses (AMU), force constants (mDyne/A),
 and normal coordinates:
                      1                      2                      3
                      A                      A                      A
 Frequencies --    223.4065               446.1851               453.8659
 Red. masses --      1.1190                10.4837                 9.7506
 Frc consts  --      0.0329                 1.2297                 1.1834
 IR Inten    --    117.9881                 4.2196                12.1296
  Atom  AN      X      Y      Z        X      Y      Z        X      Y      Z
     1   6     0.01  -0.01   0.00     0.00  -0.00  -0.01    -0.01   0.02  -0.01
     2   8     0.01  -0.01   0.00    -0.16   0.05   0.34    -0.19   0.33  -0.14
     3   9    -0.02  -0.03  -0.04     0.34  -0.10  -0.08    -0.11  -0.14  -0.27
     4   9     0.02   0.02   0.04     0.15   0.26  -0.22     0.09   0.18   0.26
     5   9     0.01  -0.02   0.01    -0.32  -0.19   0.00     0.17  -0.30   0.12
     6   1    -0.46   0.82  -0.33    -0.55  -0.17   0.35     0.33  -0.57   0.23
                      4                      5                      6
                      A                      A                      A
 Frequencies --    610.4276               631.6380               645.1473
 Red. masses --      6.9290                17.6183                14.9434
 Frc consts  --      1.5212                 4.1414                 3.6645
 IR Inten    --     16.9297                 4.6116                 6.4192
  Atom  AN      X      Y      Z        X      Y      Z        X      Y      Z
     1   6    -0.06   0.05   0.22     0.15  -0.27   0.11    -0.28  -0.18  -0.04
     2   8     0.15   0.03  -0.16    -0.21   0.37  -0.15    -0.36  -0.30  -0.25
     3   9     0.05  -0.23  -0.10    -0.26  -0.34   0.32     0.25  -0.18   0.28
     4   9    -0.12   0.06  -0.22     0.50  -0.09  -0.14    -0.08   0.40   0.04
     5   9    -0.05   0.10   0.33    -0.16   0.29  -0.12     0.31   0.15  -0.07
     6   1     0.71   0.33  -0.17    -0.02   0.04  -0.02    -0.16  -0.20  -0.27
                      7                      8                      9
                      A                      A                      A
 Frequencies --    933.6531              1138.4952              1232.7629
 Red. masses --     15.4981                 1.8774                12.9898
 Frc consts  --      7.9598                 1.4337                11.6309
 IR Inten    --      4.7553               165.0359               406.6045
  Atom  AN      X      Y      Z        X      Y      Z        X      Y      Z
     1   6    -0.09  -0.04   0.02    -0.10   0.01   0.17    -0.43   0.76  -0.30
     2   8    -0.39  -0.29  -0.18    -0.07  -0.02   0.05     0.04  -0.06   0.02
     3   9     0.06   0.36  -0.25     0.01   0.04  -0.03     0.00  -0.23   0.14
     4   9     0.38  -0.21  -0.02     0.05  -0.02  -0.01     0.21  -0.15   0.02
     5   9    -0.05   0.13   0.41     0.02  -0.04  -0.11     0.03  -0.05   0.02
     6   1    -0.24  -0.22  -0.20     0.84   0.48   0.02    -0.04   0.02  -0.01
                     10                     11                     12
                      A                      A                      A
 Frequencies --   1331.0200              1438.7061              3871.2653
 Red. masses --      8.7049                 2.8797                 1.0657
 Frc consts  --      9.0862                 3.5119                 9.4102
 IR Inten    --    535.8738               221.1155               118.9192
  Atom  AN      X      Y      Z        X      Y      Z        X      Y      Z
     1   6     0.62   0.35  -0.01    -0.00   0.14   0.35     0.00  -0.00  -0.00
     2   8    -0.28  -0.17  -0.04     0.02  -0.02  -0.09     0.01  -0.02  -0.06
     3   9    -0.04  -0.08   0.04     0.00  -0.00  -0.03     0.00   0.00  -0.00
     4   9    -0.10   0.02   0.00     0.01  -0.01  -0.02     0.00   0.00   0.00
     5   9    -0.04  -0.02  -0.01     0.02  -0.03  -0.09     0.00   0.00   0.00
     6   1     0.53   0.27  -0.07    -0.79  -0.46  -0.05    -0.13   0.30   0.94

 -------------------
 - Thermochemistry -
 -------------------
 Temperature   298.150 Kelvin.  Pressure   1.00000 Atm.
 Atom     1 has atomic number  6 and mass  12.00000
 Atom     2 has atomic number  8 and mass  15.99491
 Atom     3 has atomic number  9 and mass  18.99840
 Atom     4 has atomic number  9 and mass  18.99840
 Atom     5 has atomic number  9 and mass  18.99840
 Atom     6 has atomic number  1 and mass   1.00783
 Molecular mass:    85.99795 amu.
 Principal axes and moments of inertia in atomic units:
                           1         2         3
     Eigenvalues --   314.20545 317.34926 319.76339
           X            0.70678   0.53039  -0.46812
           Y            0.11970   0.56252   0.81807
           Z           -0.69723   0.63423  -0.33409
 This molecule is an asymmetric top.
 Rotational symmetry number  1.
 Rotational temperatures (Kelvin)      0.27566     0.27293     0.27087
 Rotational constants (GHZ):           5.74383     5.68692     5.64399
 Zero-point vibrational energy      77497.5 (Joules/Mol)
                                   18.52235 (Kcal/Mol)
 Warning -- explicit consideration of   4 degrees of freedom as
           vibrations may cause significant error
 Vibrational temperatures:    321.43   641.96   653.01   878.27   908.79
          (Kelvin)            928.22  1343.32  1638.04  1773.67  1915.04
                             2069.98  5569.89
 
 Zero-point correction=                           0.029517 (Hartree/Particle)
 Thermal correction to Energy=                    0.033937
 Thermal correction to Enthalpy=                  0.034881
 Thermal correction to Gibbs Free Energy=         0.001992
 Sum of electronic and zero-point Energies=           -413.494227
 Sum of electronic and thermal Energies=              -413.489808
 Sum of electronic and thermal Enthalpies=            -413.488864
 Sum of electronic and thermal Free Energies=         -413.521753
 
                     E (Thermal)             CV                S
                      KCal/Mol        Cal/Mol-Kelvin    Cal/Mol-Kelvin
 Total                   21.296             14.517             69.221
 Electronic               0.000              0.000              0.000
 Translational            0.889              2.981             39.268
 Rotational               0.889              2.981             24.970
 Vibrational             19.518              8.555              4.982
 Vibration     1          0.649              1.805              1.931
 Vibration     2          0.805              1.369              0.807
 Vibration     3          0.812              1.352              0.784
 Vibration     4          0.969              1.010              0.432
                       Q            Log10(Q)             Ln(Q)
 Total Bot       0.121279D+00         -0.916214         -2.109661
 Total V=0       0.457893D+13         12.660764         29.152487
 Vib (Bot)       0.605291D-13        -13.218036        -30.435652
 Vib (Bot)    1  0.884125D+00         -0.053486         -0.123157
 Vib (Bot)    2  0.385528D+00         -0.413944         -0.953142
 Vib (Bot)    3  0.376648D+00         -0.424064         -0.976443
 Vib (Bot)    4  0.241988D+00         -0.616207         -1.418869
 Vib (V=0)       0.228530D+01          0.358943          0.826496
 Vib (V=0)    1  0.151571D+01          0.180618          0.415887
 Vib (V=0)    2  0.113137D+01          0.053606          0.123432
 Vib (V=0)    3  0.112599D+01          0.051535          0.118663
 Vib (V=0)    4  0.105548D+01          0.023450          0.053996
 Electronic      0.100000D+01          0.000000          0.000000
 Translational   0.313463D+08          7.496186         17.260606
 Rotational      0.639198D+05          4.805636         11.065385
 
                                                    Gaussian input prepared by AS
 E
                                                             IR Spectrum
 
     3                                                                               1   1  1  1                                     
     8                                                                               4   3  2  1      9       666    44      2       
     7                                                                               3   3  3  3      3       431    54      2       
     1                                                                               9   1  3  8      4       520    46      3       
 
     X                                                                               X   X  X  X      X       XXX    XX      X       
     X                                                                               X   X  X  X                             X       
     X                                                                               X   X  X  X                             X       
     X                                                                               X   X  X  X                             X       
                                                                                     X   X  X  X                                     
                                                                                     X   X  X  X                                     
                                                                                     X   X  X                                        
                                                                                     X   X  X                                        
                                                                                         X  X                                        
                                                                                         X  X                                        
                                                                                         X  X                                        
                                                                                         X  X                                        
                                                                                         X  X                                        
                                                                                         X  X                                        
                                                                                         X  X                                        
                                                                                         X                                           
                                                                                         X                                           
                                                                                         X                                           
                                                                                         X                                           
                                                                                         X                                           
 
 -------------------------------------------------------------------
 Center     Atomic                   Forces (Hartrees/Bohr)
 Number     Number              X              Y              Z
 -------------------------------------------------------------------
      1        6           0.000000569   -0.000000506   -0.000000965
      2        8          -0.000000364    0.000000002    0.000005351
      3        9          -0.000004332    0.000000549   -0.000000149
      4        9           0.000001365    0.000000835   -0.000009116
      5        9           0.000009345   -0.000001709    0.000001086
      6        1          -0.000006582    0.000000830    0.000003793
 -------------------------------------------------------------------
 Cartesian Forces:  Max     0.000009345 RMS     0.000003978
 Force constants in Cartesian coordinates: 
                1             2             3             4             5 
      1  0.603688D+00
      2  0.322444D-01  0.591727D+00
      3  0.118036D-01  0.453701D-01  0.653889D+00
      4 -0.212906D+00 -0.824791D-01 -0.188411D-01  0.347447D+00
      5 -0.944253D-01 -0.145946D+00 -0.303631D-01  0.142907D+00  0.247676D+00
      6 -0.486760D-01 -0.472432D-01 -0.129452D+00 -0.142785D-01  0.205582D+00
      7 -0.839529D-01 -0.217341D-01  0.118100D-01 -0.117133D-01 -0.514442D-01
      8 -0.219143D-01 -0.208979D+00  0.808381D-01 -0.384875D-01 -0.534900D-01
      9  0.967153D-02  0.791065D-01 -0.136697D+00  0.585108D-02  0.649697D-02
     10 -0.221637D+00  0.767121D-01  0.586279D-03 -0.809980D-01  0.424967D-02
     11  0.751609D-01 -0.124158D+00 -0.317065D-02 -0.128185D-01  0.193386D-01
     12 -0.147348D-02 -0.393325D-02 -0.829760D-01 -0.189839D-01  0.321529D-02
     13 -0.893014D-01  0.981643D-02  0.347033D-01  0.673085D-02 -0.188089D-01
     14  0.746334D-02 -0.102600D+00 -0.620787D-01 -0.825374D-02 -0.128409D-01
     15  0.287854D-01 -0.653234D-01 -0.286434D+00 -0.142715D-01 -0.335329D-01
     16  0.410971D-02 -0.145598D-01 -0.400620D-01 -0.485607D-01  0.175220D-01
     17  0.147090D-02 -0.100434D-01 -0.305958D-01 -0.867935D-03 -0.547376D-01
     18 -0.111051D-03 -0.797665D-02 -0.183294D-01  0.605239D-01 -0.151398D+00
                6             7             8             9            10 
      6  0.616423D+00
      7  0.130992D-01  0.906083D-01
      8  0.163928D-01  0.299874D-01  0.309405D+00
      9  0.175080D-01 -0.208377D-01 -0.156473D+00  0.187069D+00
     10 -0.158732D-01 -0.520356D-02  0.341366D-01 -0.125021D-01  0.333577D+00
     11 -0.811270D-03  0.497261D-01 -0.561776D-01  0.258261D-01 -0.145806D+00
     12  0.140746D-01 -0.219393D-01  0.314636D-01  0.469128D-02 -0.942535D-02
     13 -0.406013D-01  0.112685D-01 -0.422040D-02  0.166678D-01 -0.243575D-01
     14 -0.484119D-01 -0.740285D-02  0.790141D-02  0.417000D-01  0.287023D-01
     15 -0.523336D-01  0.156779D-01  0.233584D-01 -0.720667D-01  0.330342D-01
     16  0.106330D+00 -0.100705D-02  0.498159D-03  0.114936D-02 -0.138118D-02
     17 -0.125509D+00  0.867670D-03  0.133993D-02  0.334367D-02  0.200573D-02
     18 -0.466220D+00  0.218987D-02  0.442043D-02 -0.504329D-03  0.418012D-02
               11            12            13            14            15 
     11  0.171378D+00
     12  0.289358D-02  0.810701D-01
     13  0.323479D-01  0.490438D-01  0.981157D-01
     14 -0.935606D-02 -0.344178D-01 -0.154272D-01  0.116722D+00
     15 -0.258090D-01 -0.191152D-01 -0.587386D-01  0.103996D+00  0.427043D+00
     16  0.139005D-02  0.277827D-02 -0.245616D-02 -0.508189D-02 -0.448749D-02
     17 -0.102482D-02  0.778539D-03 -0.370785D-02  0.174171D-03 -0.268887D-02
     18  0.107122D-02  0.225522D-02 -0.107504D-02 -0.787484D-03  0.290688D-02
               16            17            18 
     16  0.492954D-01
     17  0.231480D-03  0.642917D-01
     18 -0.657078D-01  0.154671D+00  0.479892D+00
 FormGI is forming the generalized inverse of G from B-inverse, IUseBI=4.
 Force constants in internal coordinates: 
                1             2             3             4             5 
      1  0.463639D+00
      2  0.556459D-01  0.420239D+00
      3  0.556151D-01  0.562537D-01  0.419570D+00
      4  0.525885D-01  0.549273D-01  0.550007D-01  0.468599D+00
      5  0.236435D-02 -0.376808D-02 -0.380383D-02 -0.283021D-02  0.538620D+00
      6  0.349416D-01  0.301100D-01 -0.399999D-01 -0.376650D-01 -0.604445D-02
      7  0.348143D-01 -0.400040D-01  0.303702D-01 -0.376120D-01 -0.601248D-02
      8  0.465015D-01 -0.383994D-01 -0.384252D-01  0.342668D-01  0.579010D-02
      9 -0.451507D-01  0.350742D-01  0.351859D-01 -0.139757D-01  0.254797D-02
     10 -0.386884D-01  0.299368D-01 -0.147079D-01  0.291350D-01  0.203361D-02
     11 -0.386237D-01 -0.146700D-01  0.296032D-01  0.289982D-01  0.200814D-02
     12  0.485060D-01  0.122811D-02  0.127021D-02  0.101432D-01  0.274088D-01
     13  0.449803D-02 -0.354595D-02 -0.348182D-01  0.355826D-01  0.259903D-02
     14 -0.454693D-02  0.347102D-01  0.377260D-02 -0.355197D-01 -0.261628D-02
     15 -0.247745D-04 -0.341570D-01  0.341142D-01 -0.389276D-04 -0.147460D-04
                6             7             8             9            10 
      6  0.248228D+00
      7 -0.250232D-01  0.247690D+00
      8 -0.301147D-01 -0.301221D-01  0.256267D+00
      9 -0.903819D-01 -0.902714D-01 -0.328583D-01  0.187877D+00
     10 -0.775908D-01 -0.347111D-01 -0.876133D-01  0.167553D-01  0.178732D+00
     11 -0.347984D-01 -0.772253D-01 -0.876439D-01  0.166959D-01  0.171508D-01
     12 -0.896378D-02 -0.911444D-02  0.239740D-01 -0.359385D-02 -0.132990D-02
     13  0.457220D-03 -0.412101D-01  0.424353D-01 -0.574434D-01  0.561591D-01
     14  0.412674D-01 -0.620081D-03 -0.424147D-01  0.574794D-01 -0.141500D-02
     15 -0.378360D-01  0.377924D-01 -0.180219D-04  0.163379D-04 -0.600293D-01
               11            12            13            14            15 
     11  0.178536D+00
     12 -0.126309D-02  0.174975D+00
     13  0.138345D-02  0.874639D-02  0.673879D-01
     14 -0.560737D-01 -0.863556D-02 -0.354322D-01  0.673573D-01
     15  0.600779D-01  0.492445D-04 -0.312181D-01 -0.312254D-01  0.673433D-01
 Leave Link  716 at Sat May 24 10:47:27 2025, MaxMem=  3758096384 cpu:               0.0 elap:               0.0
 (Enter /apps/easybuild-2022/easybuild/software/Compiler/NVHPC/22.11-CUDA-11.7.0/Gaussian/g16c01-CUDA-11.7.0/g16/l103.exe)

 GradGradGradGradGradGradGradGradGradGradGradGradGradGradGradGradGradGrad
 Berny optimization.
 Red2BG is reusing G-inverse.
 Internal  Forces:  Max     0.000000684 RMS     0.000000243
 Search for a local minimum.
 Step number   1 out of a maximum of    2
 All quantities printed in internal units (Hartrees-Bohrs-Radians)
 Second derivative matrix not updated -- analytic derivatives used.
 The second derivative matrix:
                          R1        R2        R3        R4        R5
           R1           0.46364
           R2           0.05565   0.42024
           R3           0.05562   0.05625   0.41957
           R4           0.05259   0.05493   0.05500   0.46860
           R5           0.00236  -0.00377  -0.00380  -0.00283   0.53862
           A1           0.03494   0.03011  -0.04000  -0.03767  -0.00604
           A2           0.03481  -0.04000   0.03037  -0.03761  -0.00601
           A3           0.04650  -0.03840  -0.03843   0.03427   0.00579
           A4          -0.04515   0.03507   0.03519  -0.01398   0.00255
           A5          -0.03869   0.02994  -0.01471   0.02914   0.00203
           A6          -0.03862  -0.01467   0.02960   0.02900   0.00201
           A7           0.04851   0.00123   0.00127   0.01014   0.02741
           D1           0.00450  -0.00355  -0.03482   0.03558   0.00260
           D2          -0.00455   0.03471   0.00377  -0.03552  -0.00262
           D3          -0.00002  -0.03416   0.03411  -0.00004  -0.00001
                          A1        A2        A3        A4        A5
           A1           0.24823
           A2          -0.02502   0.24769
           A3          -0.03011  -0.03012   0.25627
           A4          -0.09038  -0.09027  -0.03286   0.18788
           A5          -0.07759  -0.03471  -0.08761   0.01676   0.17873
           A6          -0.03480  -0.07723  -0.08764   0.01670   0.01715
           A7          -0.00896  -0.00911   0.02397  -0.00359  -0.00133
           D1           0.00046  -0.04121   0.04244  -0.05744   0.05616
           D2           0.04127  -0.00062  -0.04241   0.05748  -0.00141
           D3          -0.03784   0.03779  -0.00002   0.00002  -0.06003
                          A6        A7        D1        D2        D3
           A6           0.17854
           A7          -0.00126   0.17497
           D1           0.00138   0.00875   0.06739
           D2          -0.05607  -0.00864  -0.03543   0.06736
           D3           0.06008   0.00005  -0.03122  -0.03123   0.06734
 ITU=  0
     Eigenvalues ---    0.00197   0.15828   0.19675   0.19976   0.26816
     Eigenvalues ---    0.28594   0.30259   0.43052   0.45855   0.52644
     Eigenvalues ---    0.54245   0.61366
 Angle between quadratic step and forces=  53.73 degrees.
 Linear search not attempted -- first point.
 Iteration  1 RMS(Cart)=  0.00000087 RMS(Int)=  0.00000000
 ITry= 1 IFail=0 DXMaxC= 1.78D-06 DCOld= 1.00D+10 DXMaxT= 3.00D-01 DXLimC= 3.00D+00 Rises=F
 Variable       Old X    -DE/DX   Delta X   Delta X   Delta X     New X
                                 (Linear)    (Quad)   (Total)
    R1        2.53700   0.00000   0.00000   0.00000   0.00000   2.53700
    R2        2.52642   0.00000   0.00000   0.00000   0.00000   2.52642
    R3        2.52648   0.00000   0.00000  -0.00000  -0.00000   2.52648
    R4        2.49173   0.00000   0.00000  -0.00000  -0.00000   2.49173
    R5        1.82025  -0.00000   0.00000  -0.00000  -0.00000   1.82025
    A1        1.95786  -0.00000   0.00000  -0.00000  -0.00000   1.95786
    A2        1.95777  -0.00000   0.00000  -0.00000  -0.00000   1.95777
    A3        1.89600  -0.00000   0.00000  -0.00000  -0.00000   1.89600
    A4        1.86040   0.00000   0.00000   0.00000   0.00000   1.86040
    A5        1.89494   0.00000   0.00000   0.00000   0.00000   1.89494
    A6        1.89505   0.00000   0.00000   0.00000   0.00000   1.89505
    A7        1.90938   0.00000   0.00000   0.00000   0.00000   1.90938
    D1       -1.04782  -0.00000   0.00000   0.00000   0.00000  -1.04781
    D2        1.04556   0.00000   0.00000   0.00000   0.00000   1.04557
    D3        3.14051  -0.00000   0.00000   0.00000   0.00000   3.14051
         Item               Value     Threshold  Converged?
 Maximum Force            0.000001     0.000015     YES
 RMS     Force            0.000000     0.000010     YES
 Maximum Displacement     0.000002     0.000060     YES
 RMS     Displacement     0.000001     0.000040     YES
 Predicted change in Energy=-1.077887D-12
 Optimization completed.
    -- Stationary point found.
                           ----------------------------
                           !   Optimized Parameters   !
                           ! (Angstroms and Degrees)  !
 --------------------------                            --------------------------
 ! Name  Definition              Value          Derivative Info.                !
 --------------------------------------------------------------------------------
 ! R1    R(1,2)                  1.3425         -DE/DX =    0.0                 !
 ! R2    R(1,3)                  1.3369         -DE/DX =    0.0                 !
 ! R3    R(1,4)                  1.337          -DE/DX =    0.0                 !
 ! R4    R(1,5)                  1.3186         -DE/DX =    0.0                 !
 ! R5    R(2,6)                  0.9632         -DE/DX =    0.0                 !
 ! A1    A(2,1,3)              112.1769         -DE/DX =    0.0                 !
 ! A2    A(2,1,4)              112.1717         -DE/DX =    0.0                 !
 ! A3    A(2,1,5)              108.633          -DE/DX =    0.0                 !
 ! A4    A(3,1,4)              106.593          -DE/DX =    0.0                 !
 ! A5    A(3,1,5)              108.572          -DE/DX =    0.0                 !
 ! A6    A(4,1,5)              108.5781         -DE/DX =    0.0                 !
 ! A7    A(1,2,6)              109.3995         -DE/DX =    0.0                 !
 ! D1    D(3,1,2,6)            -60.0354         -DE/DX =    0.0                 !
 ! D2    D(4,1,2,6)             59.9064         -DE/DX =    0.0                 !
 ! D3    D(5,1,2,6)            179.9377         -DE/DX =    0.0                 !
 --------------------------------------------------------------------------------
 GradGradGradGradGradGradGradGradGradGradGradGradGradGradGradGradGradGrad

 Leave Link  103 at Sat May 24 10:47:27 2025, MaxMem=  3758096384 cpu:               0.0 elap:               0.0
 (Enter /apps/easybuild-2022/easybuild/software/Compiler/NVHPC/22.11-CUDA-11.7.0/Gaussian/g16c01-CUDA-11.7.0/g16/l9999.exe)

 ----------------------------------------------------------------------

 Electric dipole moment (input orientation):
 (Debye = 10**-18 statcoulomb cm , SI units = C m)
                  (au)            (Debye)         (10**-30 SI)
   Tot        0.787376D+00      0.200131D+01      0.667565D+01
   x          0.143543D+00      0.364850D+00      0.121701D+01
   y          0.356962D+00      0.907307D+00      0.302645D+01
   z          0.686975D+00      0.174612D+01      0.582442D+01

 Dipole polarizability, Alpha (input orientation).
 (esu units = cm**3 , SI units = C**2 m**2 J**-1)
 Alpha(0;0):
               (au)            (10**-24 esu)      (10**-40 SI)
   iso        0.194557D+02      0.288304D+01      0.320782D+01
   aniso      0.206311D+01      0.305722D+00      0.340162D+00
   xx         0.191196D+02      0.283323D+01      0.315239D+01
   yx         0.489149D+00      0.724844D-01      0.806498D-01
   yy         0.190908D+02      0.282896D+01      0.314765D+01
   zx         0.302571D+00      0.448364D-01      0.498872D-01
   zy         0.848018D+00      0.125663D+00      0.139819D+00
   zz         0.201568D+02      0.298693D+01      0.332341D+01

 ----------------------------------------------------------------------

 Dipole orientation:
     6         -3.57567809          0.68372367         -1.04053394
     8         -1.85639451          1.50886266          0.63266399
     9         -4.03976803         -1.78714609         -0.79111406
     9         -5.79521956          1.86385903         -0.78752370
     9         -2.71241104          1.10086853         -3.34042026
     1         -2.46751779          1.21557412          2.32198423

 Electric dipole moment (dipole orientation):
 (Debye = 10**-18 statcoulomb cm , SI units = C m)
                  (au)            (Debye)         (10**-30 SI)
   Tot        0.787376D+00      0.200131D+01      0.667565D+01
   x          0.000000D+00      0.000000D+00      0.000000D+00
   y          0.000000D+00      0.000000D+00      0.000000D+00
   z          0.787376D+00      0.200131D+01      0.667565D+01

 Dipole polarizability, Alpha (dipole orientation).
 (esu units = cm**3 , SI units = C**2 m**2 J**-1)
 Alpha(0;0):
               (au)            (10**-24 esu)      (10**-40 SI)
   iso        0.194557D+02      0.288304D+01      0.320782D+01
   aniso      0.206311D+01      0.305722D+00      0.340162D+00
   xx         0.190168D+02      0.281801D+01      0.313545D+01
   yx         0.262579D+00      0.389102D-01      0.432935D-01
   yy         0.185991D+02      0.275610D+01      0.306658D+01
   zx         0.195976D+00      0.290407D-01      0.323121D-01
   zy         0.954189D-01      0.141396D-01      0.157325D-01
   zz         0.207512D+02      0.307501D+01      0.342141D+01

 ----------------------------------------------------------------------
 Unable to Open any file for archive entry.
 1\1\GINC-SPARTAN-BM171\Freq\RM062X\def2TZVPP\C1H1F3O1\AKHALILOV\24-May
 -2025\0\\#P Geom=AllCheck Guess=TCheck SCRF=Check GenChk RM062X/def2TZ
 VPP Freq\\Gaussian input prepared by ASE\\0,1\C,-1.974935,0.155985,-0.
 299491\O,-0.939134,0.905954,0.109206\F,-2.134387,-0.937346,0.453214\F,
 -3.131775,0.824479,-0.251674\F,-1.75784,-0.219421,-1.544705\H,-1.08696
 4,1.18734,1.018483\\Version=ES64L-G16RevC.01\HF=-413.5237447\RMSD=5.76
 0e-10\RMSF=3.978e-06\ZeroPoint=0.0295172\Thermal=0.0339366\ETot=-413.4
 898081\HTot=-413.4888639\GTot=-413.5217528\Dipole=0.1435432,0.3569621,
 0.6869752\DipoleDeriv=2.0602325,0.0927158,0.1189285,0.0587762,2.035469
 3,0.050252,0.0368496,0.0037262,1.939128,-0.7896865,-0.2358193,-0.25625
 25,-0.2355913,-0.7441977,-0.1379697,-0.2564436,-0.1382836,-0.5381967,-
 0.3701885,-0.112296,0.0279974,-0.0984237,-0.8111983,0.2667356,0.041385
 7,0.2897267,-0.516766,-0.8759176,0.2468307,-0.030226,0.2510392,-0.4875
 428,-0.0142945,-0.0004418,-0.0127963,-0.3352353,-0.3350249,0.0128446,0
 .0657694,0.0266362,-0.3698698,-0.1844882,0.1001921,-0.16499,-0.8652258
 ,0.310585,-0.0042758,0.0737831,-0.0024366,0.3773392,0.0197648,0.078457
 9,0.0226169,0.3162956\Polar=19.1195585,0.4891493,19.0907996,0.3025708,
 0.8480183,20.1568293\PG=Unknown\NImag=0\\0.60368808,0.03224444,0.59172
 689,0.01180360,0.04537006,0.65388902,-0.21290625,-0.08247912,-0.018841
 14,0.34744746,-0.09442528,-0.14594573,-0.03036308,0.14290675,0.2476756
 9,-0.04867599,-0.04724322,-0.12945197,-0.01427847,0.20558218,0.6164230
 9,-0.08395285,-0.02173412,0.01181000,-0.01171331,-0.05144420,0.0130992
 4,0.09060828,-0.02191426,-0.20897926,0.08083813,-0.03848749,-0.0534900
 1,0.01639275,0.02998739,0.30940549,0.00967153,0.07910649,-0.13669726,0
 .00585108,0.00649697,0.01750797,-0.02083772,-0.15647326,0.18706908,-0.
 22163724,0.07671214,0.00058628,-0.08099801,0.00424967,-0.01587323,-0.0
 0520356,0.03413660,-0.01250207,0.33357746,0.07516085,-0.12415830,-0.00
 317065,-0.01281847,0.01933857,-0.00081127,0.04972611,-0.05617756,0.025
 82610,-0.14580647,0.17137816,-0.00147348,-0.00393325,-0.08297604,-0.01
 898392,0.00321529,0.01407464,-0.02193929,0.03146359,0.00469128,-0.0094
 2535,0.00289358,0.08107014,-0.08930144,0.00981643,0.03470330,0.0067308
 5,-0.01880890,-0.04060126,0.01126850,-0.00422040,0.01666781,-0.0243574
 7,0.03234793,0.04904376,0.09811572,0.00746334,-0.10260023,-0.06207871,
 -0.00825374,-0.01284089,-0.04841195,-0.00740285,0.00790141,0.04170003,
 0.02870233,-0.00935606,-0.03441775,-0.01542720,0.11672159,0.02878539,-
 0.06532343,-0.28643439,-0.01427148,-0.03353294,-0.05233356,0.01567791,
 0.02335836,-0.07206675,0.03303424,-0.02580898,-0.01911525,-0.05873857,
 0.10399587,0.42704306,0.00410971,-0.01455976,-0.04006203,-0.04856074,0
 .01752196,0.10632971,-0.00100705,0.00049816,0.00114936,-0.00138118,0.0
 0139005,0.00277827,-0.00245616,-0.00508189,-0.00448749,0.04929541,0.00
 147090,-0.01004337,-0.03059575,-0.00086793,-0.05473763,-0.12550850,0.0
 0086767,0.00133993,0.00334367,0.00200573,-0.00102482,0.00077854,-0.003
 70785,0.00017417,-0.00268887,0.00023148,0.06429172,-0.00011105,-0.0079
 7665,-0.01832936,0.06052393,-0.15139843,-0.46622017,0.00218987,0.00442
 043,-0.00050433,0.00418012,0.00107122,0.00225522,-0.00107504,-0.000787
 48,0.00290688,-0.06570783,0.15467091,0.47989176\\-0.00000057,0.0000005
 1,0.00000097,0.00000036,0.,-0.00000535,0.00000433,-0.00000055,0.000000
 15,-0.00000136,-0.00000083,0.00000912,-0.00000934,0.00000171,-0.000001
 09,0.00000658,-0.00000083,-0.00000379\\\@
 The archive entry for this job was punched.


 BOOKS ARE LIGHTHOUSES ERECTED IN THE GREAT SEA OF TIME.
     -- E.P.WHIPPLE
 Job cpu time:       0 days  0 hours  3 minutes 42.7 seconds.
 Elapsed time:       0 days  0 hours  0 minutes 28.8 seconds.
 File lengths (MBytes):  RWF=     23 Int=      0 D2E=      0 Chk=      3 Scr=      1
 Normal termination of Gaussian 16 at Sat May 24 10:47:27 2025.
done
