 Entering Gaussian System, Link 0=g16
 Initial command:
 /apps/easybuild-2022/easybuild/software/Compiler/NVHPC/22.11-CUDA-11.7.0/Gaussian/g16c01-CUDA-11.7.0/g16/l1.exe "/tmp/Gau-279316.inp" -scrdir="/tmp/"
 Entering Link 1 = /apps/easybuild-2022/easybuild/software/Compiler/NVHPC/22.11-CUDA-11.7.0/Gaussian/g16c01-CUDA-11.7.0/g16/l1.exe PID=    279318.
  
 Copyright (c) 1988-2019, Gaussian, Inc.  All Rights Reserved.
  
 This is part of the Gaussian(R) 16 program.  It is based on
 the Gaussian(R) 09 system (copyright 2009, Gaussian, Inc.),
 the Gaussian(R) 03 system (copyright 2003, Gaussian, Inc.),
 the Gaussian(R) 98 system (copyright 1998, Gaussian, Inc.),
 the Gaussian(R) 94 system (copyright 1995, Gaussian, Inc.),
 the Gaussian 92(TM) system (copyright 1992, Gaussian, Inc.),
 the Gaussian 90(TM) system (copyright 1990, Gaussian, Inc.),
 the Gaussian 88(TM) system (copyright 1988, Gaussian, Inc.),
 the Gaussian 86(TM) system (copyright 1986, Carnegie Mellon
 University), and the Gaussian 82(TM) system (copyright 1983,
 Carnegie Mellon University). Gaussian is a federally registered
 trademark of Gaussian, Inc.
  
 This software contains proprietary and confidential information,
 including trade secrets, belonging to Gaussian, Inc.
  
 This software is provided under written license and may be
 used, copied, transmitted, or stored only in accord with that
 written license.
  
 The following legend is applicable only to US Government
 contracts under FAR:
  
                    RESTRICTED RIGHTS LEGEND
  
 Use, reproduction and disclosure by the US Government is
 subject to restrictions as set forth in subparagraphs (a)
 and (c) of the Commercial Computer Software - Restricted
 Rights clause in FAR 52.227-19.
  
 Gaussian, Inc.
 340 Quinnipiac St., Bldg. 40, Wallingford CT 06492
  
  
 ---------------------------------------------------------------
 Warning -- This program may not be used in any manner that
 competes with the business of Gaussian, Inc. or will provide
 assistance to any competitor of Gaussian, Inc.  The licensee
 of this program is prohibited from giving any competitor of
 Gaussian, Inc. access to this program.  By using this program,
 the user acknowledges that Gaussian, Inc. is engaged in the
 business of creating and licensing software in the field of
 computational chemistry and represents and warrants to the
 licensee that it is not a competitor of Gaussian, Inc. and that
 it will not use this program in any manner prohibited above.
 ---------------------------------------------------------------
  

 Cite this work as:
 Gaussian 16, Revision C.01,
 M. J. Frisch, G. W. Trucks, H. B. Schlegel, G. E. Scuseria, 
 M. A. Robb, J. R. Cheeseman, G. Scalmani, V. Barone, 
 G. A. Petersson, H. Nakatsuji, X. Li, M. Caricato, A. V. Marenich, 
 J. Bloino, B. G. Janesko, R. Gomperts, B. Mennucci, H. P. Hratchian, 
 J. V. Ortiz, A. F. Izmaylov, J. L. Sonnenberg, D. Williams-Young, 
 F. Ding, F. Lipparini, F. Egidi, J. Goings, B. Peng, A. Petrone, 
 T. Henderson, D. Ranasinghe, V. G. Zakrzewski, J. Gao, N. Rega, 
 G. Zheng, W. Liang, M. Hada, M. Ehara, K. Toyota, R. Fukuda, 
 J. Hasegawa, M. Ishida, T. Nakajima, Y. Honda, O. Kitao, H. Nakai, 
 T. Vreven, K. Throssell, J. A. Montgomery, Jr., J. E. Peralta, 
 F. Ogliaro, M. J. Bearpark, J. J. Heyd, E. N. Brothers, K. N. Kudin, 
 V. N. Staroverov, T. A. Keith, R. Kobayashi, J. Normand, 
 K. Raghavachari, A. P. Rendell, J. C. Burant, S. S. Iyengar, 
 J. Tomasi, M. Cossi, J. M. Millam, M. Klene, C. Adamo, R. Cammi, 
 J. W. Ochterski, R. L. Martin, K. Morokuma, O. Farkas, 
 J. B. Foresman, and D. J. Fox, Gaussian, Inc., Wallingford CT, 2019.
 
 ******************************************
 Gaussian 16:  ES64L-G16RevC.01  3-Jul-2019
                25-May-2025 
 ******************************************
 %mem=28GB
 %chk=1002122340540000000001_well
 %nprocshared=8
 Will use up to    8 processors via shared memory.
 -----------------------------------------------------------------
 #P M062X/Def2TZVPP Symm(None) scf(xqc) pop(None) freq opt(CalcFC)
 -----------------------------------------------------------------
 1/10=4,18=20,19=15,26=3,38=1/1,3;
 2/9=110,12=2,15=3,17=6,18=5,40=1/2;
 3/5=44,7=202,11=2,25=1,30=1,71=2,74=-55,140=1/1,2,3;
 4//1;
 5/5=2,8=3,13=1,38=5/2,8;
 8/6=4,10=90,11=11/1;
 11/6=1,8=1,9=11,15=111,16=1,31=1/1,2,10;
 10/6=1,13=1,31=1/2;
 7/10=1,25=1,30=1/1,2,3,16;
 1/10=4,18=20,19=15,26=3/3(2);
 2/9=110,15=3/2;
 99//99;
 2/9=110,15=3/2;
 3/5=44,7=202,11=2,25=1,30=1,71=1,74=-55/1,2,3;
 4/5=5,16=3,69=1/1;
 5/5=2,8=3,13=1,38=5/2,8;
 7/30=1/1,2,3,16;
 1/18=20,19=15,26=3/3(-5);
 2/9=110,15=3/2;
 99/9=1/99;
 Leave Link    1 at Sun May 25 04:30:20 2025, MaxMem=  3758096384 cpu:               0.0 elap:               0.0
 (Enter /apps/easybuild-2022/easybuild/software/Compiler/NVHPC/22.11-CUDA-11.7.0/Gaussian/g16c01-CUDA-11.7.0/g16/l101.exe)
 ------------------------------
 Gaussian input prepared by ASE
 ------------------------------
 Symbolic Z-matrix:
 Charge =  0 Multiplicity = 1
 F                    -0.07929   1.15687  -1.46505 
 S                     0.85533   0.67029  -0.3363 
 O                     0.11484   0.71665   0.85881 
 O                     1.50316  -0.48732  -0.81468 
 O                     1.85256   1.8699   -0.31687 
 H                     2.57306   1.71507  -0.94398 
 
 ITRead=  0  0  0  0  0  0
 MicOpt= -1 -1 -1 -1 -1 -1
 NAtoms=      6 NQM=        6 NQMF=       0 NMMI=      0 NMMIF=      0
                NMic=       0 NMicF=      0.
                    Isotopes and Nuclear Properties:
 (Nuclear quadrupole moments (NQMom) in fm**2, nuclear magnetic moments (NMagM)
  in nuclear magnetons)

  Atom         1           2           3           4           5           6
 IAtWgt=          19          32          16          16          16           1
 AtmWgt=  18.9984032  31.9720718  15.9949146  15.9949146  15.9949146   1.0078250
 NucSpn=           1           0           0           0           0           1
 AtZEff=  -0.0000000  -0.0000000  -0.0000000  -0.0000000  -0.0000000  -0.0000000
 NQMom=    0.0000000   0.0000000   0.0000000   0.0000000   0.0000000   0.0000000
 NMagM=    2.6288670   0.0000000   0.0000000   0.0000000   0.0000000   2.7928460
 AtZNuc=   9.0000000  16.0000000   8.0000000   8.0000000   8.0000000   1.0000000
 Leave Link  101 at Sun May 25 04:30:20 2025, MaxMem=  3758096384 cpu:               0.2 elap:               0.2
 (Enter /apps/easybuild-2022/easybuild/software/Compiler/NVHPC/22.11-CUDA-11.7.0/Gaussian/g16c01-CUDA-11.7.0/g16/l103.exe)

 GradGradGradGradGradGradGradGradGradGradGradGradGradGradGradGradGradGrad
 Berny optimization.
 Initialization pass.
                           ----------------------------
                           !    Initial Parameters    !
                           ! (Angstroms and Degrees)  !
 --------------------------                            --------------------------
 ! Name  Definition              Value          Derivative Info.                !
 --------------------------------------------------------------------------------
 ! R1    R(1,2)                  1.5441         calculate D2E/DX2 analytically  !
 ! R2    R(2,3)                  1.4067         calculate D2E/DX2 analytically  !
 ! R3    R(2,4)                  1.4102         calculate D2E/DX2 analytically  !
 ! R4    R(2,5)                  1.5601         calculate D2E/DX2 analytically  !
 ! R5    R(5,6)                  0.9677         calculate D2E/DX2 analytically  !
 ! A1    A(1,2,3)              106.9805         calculate D2E/DX2 analytically  !
 ! A2    A(1,2,4)              106.7837         calculate D2E/DX2 analytically  !
 ! A3    A(1,2,5)               98.8408         calculate D2E/DX2 analytically  !
 ! A4    A(3,2,4)              123.8556         calculate D2E/DX2 analytically  !
 ! A5    A(3,2,5)              107.4913         calculate D2E/DX2 analytically  !
 ! A6    A(4,2,5)              109.9855         calculate D2E/DX2 analytically  !
 ! A7    A(2,5,6)              110.1719         calculate D2E/DX2 analytically  !
 ! D1    D(1,2,5,6)            -88.4154         calculate D2E/DX2 analytically  !
 ! D2    D(3,2,5,6)            160.5518         calculate D2E/DX2 analytically  !
 ! D3    D(4,2,5,6)             23.1476         calculate D2E/DX2 analytically  !
 --------------------------------------------------------------------------------
 Trust Radius=3.00D-01 FncErr=1.00D-07 GrdErr=1.00D-06 EigMax=2.50D+02 EigMin=1.00D-04
 Number of steps in this run=     25 maximum allowed number of steps=    100.
 GradGradGradGradGradGradGradGradGradGradGradGradGradGradGradGradGradGrad

 Leave Link  103 at Sun May 25 04:30:20 2025, MaxMem=  3758096384 cpu:               0.0 elap:               0.0
 (Enter /apps/easybuild-2022/easybuild/software/Compiler/NVHPC/22.11-CUDA-11.7.0/Gaussian/g16c01-CUDA-11.7.0/g16/l202.exe)
                          Input orientation:                          
 ---------------------------------------------------------------------
 Center     Atomic      Atomic             Coordinates (Angstroms)
 Number     Number       Type             X           Y           Z
 ---------------------------------------------------------------------
      1          9           0       -0.079285    1.156874   -1.465053
      2         16           0        0.855325    0.670288   -0.336296
      3          8           0        0.114835    0.716653    0.858814
      4          8           0        1.503163   -0.487321   -0.814677
      5          8           0        1.852562    1.869901   -0.316868
      6          1           0        2.573061    1.715067   -0.943982
 ---------------------------------------------------------------------
                    Distance matrix (angstroms):
                    1          2          3          4          5
     1  F    0.000000
     2  S    1.544135   0.000000
     3  O    2.373149   1.406685   0.000000
     4  O    2.372869   1.410178   2.485474   0.000000
     5  O    2.357704   1.560106   2.394140   2.434418   0.000000
     6  H    2.760079   2.100348   3.207769   2.451921   0.967659
                    6
     6  H    0.000000
 Symmetry turned off by external request.
 Stoichiometry    FHO3S
 Rotational constants (GHZ):           5.1181430           5.0739376           5.0031099
 Leave Link  202 at Sun May 25 04:30:20 2025, MaxMem=  3758096384 cpu:               0.0 elap:               0.0
 (Enter /apps/easybuild-2022/easybuild/software/Compiler/NVHPC/22.11-CUDA-11.7.0/Gaussian/g16c01-CUDA-11.7.0/g16/l301.exe)
 Standard basis: def2TZVPP (5D, 7F)
 Ernie: Thresh=  0.10000D-02 Tol=  0.10000D-05 Strict=F.
   180 basis functions,   290 primitive gaussians,   207 cartesian basis functions
    25 alpha electrons       25 beta electrons
       nuclear repulsion energy       292.0841405124 Hartrees.
 IExCor= 4336 DFT=T Ex+Corr=M062X ExCW=0 ScaHFX=  0.540000
 ScaDFX=  1.000000  1.000000  1.000000  1.000000 ScalE2=  1.000000  1.000000
 IRadAn=      5 IRanWt=     -1 IRanGd=            0 ICorTp=0 IEmpDi=  4
 NAtoms=    6 NActive=    6 NUniq=    6 SFac= 1.00D+00 NAtFMM=   60 NAOKFM=F Big=F
 Integral buffers will be    131072 words long.
 Raffenetti 2 integral format.
 Two-electron integral symmetry is turned off.
 Leave Link  301 at Sun May 25 04:30:20 2025, MaxMem=  3758096384 cpu:               0.0 elap:               0.0
 (Enter /apps/easybuild-2022/easybuild/software/Compiler/NVHPC/22.11-CUDA-11.7.0/Gaussian/g16c01-CUDA-11.7.0/g16/l302.exe)
 NPDir=0 NMtPBC=     1 NCelOv=     1 NCel=       1 NClECP=     1 NCelD=      1
         NCelK=      1 NCelE2=     1 NClLst=     1 CellRange=     0.0.
 One-electron integrals computed using PRISM.
   1 Symmetry operations used in ECPInt.
 ECPInt:  NShTT=    2080 NPrTT=    6796 LenC2=    2059 LenP2D=    5515.
 LDataN:  DoStor=T MaxTD1= 6 Len=  172
 NBasis=   180 RedAO= T EigKep=  9.07D-04  NBF=   180
 NBsUse=   180 1.00D-06 EigRej= -1.00D+00 NBFU=   180
 Precomputing XC quadrature grid using
 IXCGrd= 4 IRadAn=           5 IRanWt=          -1 IRanGd=           0 AccXCQ= 0.00D+00.
 Generated NRdTot=       0 NPtTot=           0 NUsed=           0 NTot=          32
 NSgBfM=   206   206   206   206   206 MxSgAt=     6 MxSgA2=     6.
 Leave Link  302 at Sun May 25 04:30:20 2025, MaxMem=  3758096384 cpu:               0.4 elap:               0.1
 (Enter /apps/easybuild-2022/easybuild/software/Compiler/NVHPC/22.11-CUDA-11.7.0/Gaussian/g16c01-CUDA-11.7.0/g16/l303.exe)
 DipDrv:  MaxL=1.
 Leave Link  303 at Sun May 25 04:30:20 2025, MaxMem=  3758096384 cpu:               0.0 elap:               0.0
 (Enter /apps/easybuild-2022/easybuild/software/Compiler/NVHPC/22.11-CUDA-11.7.0/Gaussian/g16c01-CUDA-11.7.0/g16/l401.exe)
 ExpMin= 1.03D-01 ExpMax= 6.07D+04 ExpMxC= 2.07D+03 IAcc=3 IRadAn=         5 AccDes= 0.00D+00
 Harris functional with IExCor= 1009 and IRadAn=       5 diagonalized for initial guess.
 HarFok:  IExCor= 1009 AccDes= 0.00D+00 IRadAn=         5 IDoV= 1 UseB2=F ITyADJ=14
 ICtDFT=  3500011 ScaDFX=  1.000000  1.000000  1.000000  1.000000
 FoFCou: FMM=F IPFlag=           0 FMFlag=      100000 FMFlg1=           0
         NFxFlg=           0 DoJE=T BraDBF=F KetDBF=T FulRan=T
         wScrn=  0.000000 ICntrl=       500 IOpCl=  0 I1Cent=   200000004 NGrid=           0
         NMat0=    1 NMatS0=      1 NMatT0=    0 NMatD0=    1 NMtDS0=    0 NMtDT0=    0
 Symmetry not used in FoFCou.
 Harris En= -724.051311082545    
 JPrj=0 DoOrth=F DoCkMO=F.
 Leave Link  401 at Sun May 25 04:30:20 2025, MaxMem=  3758096384 cpu:               1.2 elap:               0.2
 (Enter /apps/easybuild-2022/easybuild/software/Compiler/NVHPC/22.11-CUDA-11.7.0/Gaussian/g16c01-CUDA-11.7.0/g16/l502.exe)
 Keep R1 ints in memory in canonical form, NReq=140972698.
 FoFCou: FMM=F IPFlag=           0 FMFlag=           0 FMFlg1=           0
         NFxFlg=           0 DoJE=F BraDBF=F KetDBF=F FulRan=T
         wScrn=  0.000000 ICntrl=       600 IOpCl=  0 I1Cent=           0 NGrid=           0
         NMat0=    1 NMatS0=  16290 NMatT0=    0 NMatD0=    1 NMtDS0=    0 NMtDT0=    0
 Symmetry not used in FoFCou.
 Two-electron integral symmetry not used.
 Closed shell SCF:
 Using DIIS extrapolation, IDIIS=  1040.
 NGot=  3758096384 LenX=  3625317310 LenY=  3625274020
 Requested convergence on RMS density matrix=1.00D-08 within  32 cycles.
 Requested convergence on MAX density matrix=1.00D-06.
 Requested convergence on             energy=1.00D-06.
 No special actions if energy rises.
 Integral accuracy reduced to 1.0D-05 until final iterations.

 Cycle   1  Pass 0  IDiag  1:
 E= -724.074299952429    
 DIIS: error= 3.57D-02 at cycle   1 NSaved=   1.
 NSaved= 1 IEnMin= 1 EnMin= -724.074299952429     IErMin= 1 ErrMin= 3.57D-02
 ErrMax= 3.57D-02  0.00D+00 EMaxC= 1.00D-01 BMatC= 4.65D-01 BMatP= 4.65D-01
 IDIUse=3 WtCom= 6.43D-01 WtEn= 3.57D-01
 Coeff-Com:  0.100D+01
 Coeff-En:   0.100D+01
 Coeff:      0.100D+01
 Gap=     0.364 Goal=   None    Shift=    0.000
 GapD=    0.364 DampG=1.000 DampE=0.500 DampFc=0.5000 IDamp=-1.
 Damping current iteration by 5.00D-01
 RMSDP=4.12D-03 MaxDP=3.01D-01              OVMax= 1.83D-01

 Cycle   2  Pass 0  IDiag  1:
 E= -724.165421250810     Delta-E=       -0.091121298381 Rises=F Damp=T
 DIIS: error= 9.52D-03 at cycle   2 NSaved=   2.
 NSaved= 2 IEnMin= 2 EnMin= -724.165421250810     IErMin= 2 ErrMin= 9.52D-03
 ErrMax= 9.52D-03  0.00D+00 EMaxC= 1.00D-01 BMatC= 3.30D-02 BMatP= 4.65D-01
 IDIUse=3 WtCom= 9.05D-01 WtEn= 9.52D-02
 Coeff-Com:  0.986D-01 0.901D+00
 Coeff-En:   0.256D+00 0.744D+00
 Coeff:      0.114D+00 0.886D+00
 Gap=     0.457 Goal=   None    Shift=    0.000
 RMSDP=7.70D-04 MaxDP=5.13D-02 DE=-9.11D-02 OVMax= 1.14D-01

 Cycle   3  Pass 0  IDiag  1:
 E= -724.318612589620     Delta-E=       -0.153191338810 Rises=F Damp=F
 DIIS: error= 4.47D-03 at cycle   3 NSaved=   3.
 NSaved= 3 IEnMin= 3 EnMin= -724.318612589620     IErMin= 3 ErrMin= 4.47D-03
 ErrMax= 4.47D-03  0.00D+00 EMaxC= 1.00D-01 BMatC= 7.10D-03 BMatP= 3.30D-02
 IDIUse=3 WtCom= 9.55D-01 WtEn= 4.47D-02
 Coeff-Com: -0.242D-01 0.259D+00 0.765D+00
 Coeff-En:   0.000D+00 0.000D+00 0.100D+01
 Coeff:     -0.231D-01 0.247D+00 0.776D+00
 Gap=     0.452 Goal=   None    Shift=    0.000
 RMSDP=3.52D-04 MaxDP=1.64D-02 DE=-1.53D-01 OVMax= 2.20D-02

 Cycle   4  Pass 0  IDiag  1:
 E= -724.321850836277     Delta-E=       -0.003238246656 Rises=F Damp=F
 DIIS: error= 2.91D-03 at cycle   4 NSaved=   4.
 NSaved= 4 IEnMin= 4 EnMin= -724.321850836277     IErMin= 4 ErrMin= 2.91D-03
 ErrMax= 2.91D-03  0.00D+00 EMaxC= 1.00D-01 BMatC= 2.49D-03 BMatP= 7.10D-03
 IDIUse=3 WtCom= 9.71D-01 WtEn= 2.91D-02
 Coeff-Com: -0.214D-01 0.542D-01 0.412D+00 0.555D+00
 Coeff-En:   0.000D+00 0.000D+00 0.224D+00 0.776D+00
 Coeff:     -0.208D-01 0.526D-01 0.407D+00 0.561D+00
 Gap=     0.458 Goal=   None    Shift=    0.000
 RMSDP=1.28D-04 MaxDP=4.30D-03 DE=-3.24D-03 OVMax= 8.09D-03

 Cycle   5  Pass 0  IDiag  1:
 E= -724.323319306482     Delta-E=       -0.001468470205 Rises=F Damp=F
 DIIS: error= 2.65D-04 at cycle   5 NSaved=   5.
 NSaved= 5 IEnMin= 5 EnMin= -724.323319306482     IErMin= 5 ErrMin= 2.65D-04
 ErrMax= 2.65D-04  0.00D+00 EMaxC= 1.00D-01 BMatC= 3.23D-05 BMatP= 2.49D-03
 IDIUse=3 WtCom= 9.97D-01 WtEn= 2.65D-03
 Coeff-Com: -0.377D-02 0.493D-02 0.782D-01 0.164D+00 0.757D+00
 Coeff-En:   0.000D+00 0.000D+00 0.000D+00 0.000D+00 0.100D+01
 Coeff:     -0.376D-02 0.492D-02 0.780D-01 0.163D+00 0.758D+00
 Gap=     0.456 Goal=   None    Shift=    0.000
 RMSDP=2.22D-05 MaxDP=1.18D-03 DE=-1.47D-03 OVMax= 1.11D-03

 Cycle   6  Pass 0  IDiag  1:
 E= -724.323342445168     Delta-E=       -0.000023138686 Rises=F Damp=F
 DIIS: error= 6.49D-05 at cycle   6 NSaved=   6.
 NSaved= 6 IEnMin= 6 EnMin= -724.323342445168     IErMin= 6 ErrMin= 6.49D-05
 ErrMax= 6.49D-05  0.00D+00 EMaxC= 1.00D-01 BMatC= 2.46D-06 BMatP= 3.23D-05
 IDIUse=1 WtCom= 1.00D+00 WtEn= 0.00D+00
 Coeff-Com: -0.427D-03-0.915D-03 0.454D-02 0.245D-01 0.265D+00 0.707D+00
 Coeff:     -0.427D-03-0.915D-03 0.454D-02 0.245D-01 0.265D+00 0.707D+00
 Gap=     0.456 Goal=   None    Shift=    0.000
 RMSDP=6.26D-06 MaxDP=2.94D-04 DE=-2.31D-05 OVMax= 2.78D-04

 Initial convergence to 1.0D-05 achieved.  Increase integral accuracy.
 Cycle   7  Pass 1  IDiag  1:
 E= -724.323364266602     Delta-E=       -0.000021821434 Rises=F Damp=F
 DIIS: error= 2.98D-05 at cycle   1 NSaved=   1.
 NSaved= 1 IEnMin= 1 EnMin= -724.323364266602     IErMin= 1 ErrMin= 2.98D-05
 ErrMax= 2.98D-05  0.00D+00 EMaxC= 1.00D-01 BMatC= 5.65D-07 BMatP= 5.65D-07
 IDIUse=1 WtCom= 1.00D+00 WtEn= 0.00D+00
 Coeff-Com:  0.100D+01
 Coeff:      0.100D+01
 Gap=     0.456 Goal=   None    Shift=    0.000
 RMSDP=6.26D-06 MaxDP=2.94D-04 DE=-2.18D-05 OVMax= 1.81D-04

 Cycle   8  Pass 1  IDiag  1:
 E= -724.323364466910     Delta-E=       -0.000000200308 Rises=F Damp=F
 DIIS: error= 3.24D-05 at cycle   2 NSaved=   2.
 NSaved= 2 IEnMin= 2 EnMin= -724.323364466910     IErMin= 1 ErrMin= 2.98D-05
 ErrMax= 3.24D-05  0.00D+00 EMaxC= 1.00D-01 BMatC= 3.82D-07 BMatP= 5.65D-07
 IDIUse=1 WtCom= 1.00D+00 WtEn= 0.00D+00
 Coeff-Com:  0.437D+00 0.563D+00
 Coeff:      0.437D+00 0.563D+00
 Gap=     0.456 Goal=   None    Shift=    0.000
 RMSDP=2.11D-06 MaxDP=8.14D-05 DE=-2.00D-07 OVMax= 1.18D-04

 Cycle   9  Pass 1  IDiag  1:
 E= -724.323364678846     Delta-E=       -0.000000211937 Rises=F Damp=F
 DIIS: error= 8.19D-06 at cycle   3 NSaved=   3.
 NSaved= 3 IEnMin= 3 EnMin= -724.323364678846     IErMin= 3 ErrMin= 8.19D-06
 ErrMax= 8.19D-06  0.00D+00 EMaxC= 1.00D-01 BMatC= 4.26D-08 BMatP= 3.82D-07
 IDIUse=1 WtCom= 1.00D+00 WtEn= 0.00D+00
 Coeff-Com: -0.365D-01 0.232D+00 0.804D+00
 Coeff:     -0.365D-01 0.232D+00 0.804D+00
 Gap=     0.456 Goal=   None    Shift=    0.000
 RMSDP=7.27D-07 MaxDP=1.94D-05 DE=-2.12D-07 OVMax= 4.52D-05

 Cycle  10  Pass 1  IDiag  1:
 E= -724.323364705398     Delta-E=       -0.000000026551 Rises=F Damp=F
 DIIS: error= 2.68D-06 at cycle   4 NSaved=   4.
 NSaved= 4 IEnMin= 4 EnMin= -724.323364705398     IErMin= 4 ErrMin= 2.68D-06
 ErrMax= 2.68D-06  0.00D+00 EMaxC= 1.00D-01 BMatC= 3.12D-09 BMatP= 4.26D-08
 IDIUse=1 WtCom= 1.00D+00 WtEn= 0.00D+00
 Coeff-Com: -0.277D-01 0.111D+00 0.418D+00 0.498D+00
 Coeff:     -0.277D-01 0.111D+00 0.418D+00 0.498D+00
 Gap=     0.456 Goal=   None    Shift=    0.000
 RMSDP=1.81D-07 MaxDP=6.28D-06 DE=-2.66D-08 OVMax= 1.11D-05

 Cycle  11  Pass 1  IDiag  1:
 E= -724.323364707395     Delta-E=       -0.000000001997 Rises=F Damp=F
 DIIS: error= 5.89D-07 at cycle   5 NSaved=   5.
 NSaved= 5 IEnMin= 5 EnMin= -724.323364707395     IErMin= 5 ErrMin= 5.89D-07
 ErrMax= 5.89D-07  0.00D+00 EMaxC= 1.00D-01 BMatC= 1.23D-10 BMatP= 3.12D-09
 IDIUse=1 WtCom= 1.00D+00 WtEn= 0.00D+00
 Coeff-Com: -0.212D-02-0.124D-01-0.401D-01 0.110D+00 0.944D+00
 Coeff:     -0.212D-02-0.124D-01-0.401D-01 0.110D+00 0.944D+00
 Gap=     0.456 Goal=   None    Shift=    0.000
 RMSDP=7.09D-08 MaxDP=2.09D-06 DE=-2.00D-09 OVMax= 4.27D-06

 Cycle  12  Pass 1  IDiag  1:
 E= -724.323364707501     Delta-E=       -0.000000000106 Rises=F Damp=F
 DIIS: error= 1.82D-07 at cycle   6 NSaved=   6.
 NSaved= 6 IEnMin= 6 EnMin= -724.323364707501     IErMin= 6 ErrMin= 1.82D-07
 ErrMax= 1.82D-07  0.00D+00 EMaxC= 1.00D-01 BMatC= 1.22D-11 BMatP= 1.23D-10
 IDIUse=1 WtCom= 1.00D+00 WtEn= 0.00D+00
 Coeff-Com:  0.107D-02-0.110D-01-0.387D-01 0.550D-02 0.291D+00 0.752D+00
 Coeff:      0.107D-02-0.110D-01-0.387D-01 0.550D-02 0.291D+00 0.752D+00
 Gap=     0.456 Goal=   None    Shift=    0.000
 RMSDP=1.73D-08 MaxDP=4.66D-07 DE=-1.06D-10 OVMax= 1.17D-06

 Cycle  13  Pass 1  IDiag  1:
 E= -724.323364707554     Delta-E=       -0.000000000053 Rises=F Damp=F
 DIIS: error= 1.01D-07 at cycle   7 NSaved=   7.
 NSaved= 7 IEnMin= 7 EnMin= -724.323364707554     IErMin= 7 ErrMin= 1.01D-07
 ErrMax= 1.01D-07  0.00D+00 EMaxC= 1.00D-01 BMatC= 2.64D-12 BMatP= 1.22D-11
 IDIUse=1 WtCom= 1.00D+00 WtEn= 0.00D+00
 Coeff-Com:  0.800D-03-0.424D-02-0.152D-01-0.675D-02 0.438D-01 0.339D+00
 Coeff-Com:  0.643D+00
 Coeff:      0.800D-03-0.424D-02-0.152D-01-0.675D-02 0.438D-01 0.339D+00
 Coeff:      0.643D+00
 Gap=     0.456 Goal=   None    Shift=    0.000
 RMSDP=6.12D-09 MaxDP=1.97D-07 DE=-5.31D-11 OVMax= 4.23D-07

 SCF Done:  E(RM062X) =  -724.323364708     A.U. after   13 cycles
            NFock= 13  Conv=0.61D-08     -V/T= 2.0024
 KE= 7.225964436785D+02 PE=-2.301684903246D+03 EE= 5.626809543474D+02
 Leave Link  502 at Sun May 25 04:30:24 2025, MaxMem=  3758096384 cpu:              21.5 elap:               3.9
 (Enter /apps/easybuild-2022/easybuild/software/Compiler/NVHPC/22.11-CUDA-11.7.0/Gaussian/g16c01-CUDA-11.7.0/g16/l508.exe)
 QCSCF skips out because SCF is already converged.
 Leave Link  508 at Sun May 25 04:30:24 2025, MaxMem=  3758096384 cpu:               0.0 elap:               0.0
 (Enter /apps/easybuild-2022/easybuild/software/Compiler/NVHPC/22.11-CUDA-11.7.0/Gaussian/g16c01-CUDA-11.7.0/g16/l801.exe)
 DoSCS=F DFT=T ScalE2(SS,OS)=  1.000000  1.000000
 Range of M.O.s used for correlation:     1   180
 NBasis=   180 NAE=    25 NBE=    25 NFC=     0 NFV=     0
 NROrb=    180 NOA=    25 NOB=    25 NVA=   155 NVB=   155

 **** Warning!!: The largest alpha MO coefficient is  0.14182860D+02

 Leave Link  801 at Sun May 25 04:30:24 2025, MaxMem=  3758096384 cpu:               0.0 elap:               0.0
 (Enter /apps/easybuild-2022/easybuild/software/Compiler/NVHPC/22.11-CUDA-11.7.0/Gaussian/g16c01-CUDA-11.7.0/g16/l1101.exe)
 Using compressed storage, NAtomX=     6.
 Will process      7 centers per pass.
   1 Symmetry operations used in ECPInt.
 ECPInt:  NShTT=    2080 NPrTT=    6796 LenC2=    2059 LenP2D=    5515.
 LDataN:  DoStor=T MaxTD1= 7 Len=  274
 Leave Link 1101 at Sun May 25 04:30:24 2025, MaxMem=  3758096384 cpu:               0.5 elap:               0.1
 (Enter /apps/easybuild-2022/easybuild/software/Compiler/NVHPC/22.11-CUDA-11.7.0/Gaussian/g16c01-CUDA-11.7.0/g16/l1102.exe)
 Symmetrizing basis deriv contribution to polar:
 IMax=3 JMax=2 DiffMx= 0.00D+00
 Leave Link 1102 at Sun May 25 04:30:25 2025, MaxMem=  3758096384 cpu:               0.1 elap:               0.0
 (Enter /apps/easybuild-2022/easybuild/software/Compiler/NVHPC/22.11-CUDA-11.7.0/Gaussian/g16c01-CUDA-11.7.0/g16/l1110.exe)
 Forming Gx(P) for the SCF density, NAtomX=     6.
 Integral derivatives from FoFJK, PRISM(SPDF).
 Do as many integral derivatives as possible in FoFJK.
 G2DrvN: MDV=    3758095630.
 G2DrvN: will do     7 centers at a time, making    1 passes.
 Calling FoFCou, ICntrl=  3107 FMM=F I1Cent=   0 AccDes= 0.00D+00.
 FoFJK:  IHMeth= 1 ICntrl=    3107 DoSepK=F KAlg= 0 I1Cent=           0 FoldK=F
 IRaf=         0 NMat=       1 IRICut=       1 DoRegI=T DoRafI=F ISym2E= 0 IDoP0=0 IntGTp=1.
 FoFCou: FMM=F IPFlag=           0 FMFlag=      100000 FMFlg1=           0
         NFxFlg=           0 DoJE=F BraDBF=F KetDBF=F FulRan=T
         wScrn=  0.000000 ICntrl=      3107 IOpCl=  0 I1Cent=           0 NGrid=           0
         NMat0=    1 NMatS0=      1 NMatT0=    0 NMatD0=    1 NMtDS0=    0 NMtDT0=    0
 Symmetry not used in FoFCou.
 End of G2Drv F.D. properties file   721 does not exist.
 End of G2Drv F.D. properties file   722 does not exist.
 End of G2Drv F.D. properties file   788 does not exist.
 Leave Link 1110 at Sun May 25 04:30:30 2025, MaxMem=  3758096384 cpu:              44.5 elap:               5.6
 (Enter /apps/easybuild-2022/easybuild/software/Compiler/NVHPC/22.11-CUDA-11.7.0/Gaussian/g16c01-CUDA-11.7.0/g16/l1002.exe)
 Minotr:  Closed shell wavefunction.
          IDoAtm=111111
          Direct CPHF calculation.
          Differentiating once with respect to nuclear coordinates.
          Requested convergence is 1.0D-08 RMS, and 1.0D-07 maximum.
          Secondary convergence is 1.0D-12 RMS, and 1.0D-12 maximum.
          NewPWx=T KeepS1=F KeepF1=F KeepIn=T MapXYZ=F SortEE=F KeepMc=T.
         1782 words used for storage of precomputed grid.
 Keep R1 ints in memory in canonical form, NReq=140950614.
 FoFCou: FMM=F IPFlag=           0 FMFlag=           0 FMFlg1=           0
         NFxFlg=           0 DoJE=F BraDBF=F KetDBF=F FulRan=T
         wScrn=  0.000000 ICntrl=       600 IOpCl=  0 I1Cent=           0 NGrid=           0
         NMat0=    1 NMatS0=  16290 NMatT0=    0 NMatD0=    1 NMtDS0=    0 NMtDT0=    0
 Symmetry not used in FoFCou.
 Two-electron integral symmetry not used.
          MDV=    3758096384 using IRadAn=       1.
          Solving linear equations simultaneously, MaxMat=       0.
          There are    21 degrees of freedom in the 1st order CPHF.  IDoFFX=6 NUNeed=     0.
     15 vectors produced by pass  0 Test12= 1.85D-14 4.76D-09 XBig12= 1.62D-01 1.18D-01.
 AX will form    15 AO Fock derivatives at one time.
     15 vectors produced by pass  1 Test12= 1.85D-14 4.76D-09 XBig12= 2.14D-02 3.81D-02.
     15 vectors produced by pass  2 Test12= 1.85D-14 4.76D-09 XBig12= 3.97D-04 4.53D-03.
     15 vectors produced by pass  3 Test12= 1.85D-14 4.76D-09 XBig12= 7.00D-06 4.86D-04.
     15 vectors produced by pass  4 Test12= 1.85D-14 4.76D-09 XBig12= 1.21D-07 9.83D-05.
     15 vectors produced by pass  5 Test12= 1.85D-14 4.76D-09 XBig12= 1.61D-09 8.66D-06.
     15 vectors produced by pass  6 Test12= 1.85D-14 4.76D-09 XBig12= 1.92D-11 7.40D-07.
     12 vectors produced by pass  7 Test12= 1.85D-14 4.76D-09 XBig12= 1.28D-13 5.99D-08.
 InvSVY:  IOpt=1 It=  1 EMax= 1.22D-15
 Solved reduced A of dimension   117 with    15 vectors.
 End of Minotr F.D. properties file   721 does not exist.
 End of Minotr F.D. properties file   722 does not exist.
 End of Minotr F.D. properties file   788 does not exist.
 Leave Link 1002 at Sun May 25 04:30:37 2025, MaxMem=  3758096384 cpu:              55.8 elap:               7.1
 (Enter /apps/easybuild-2022/easybuild/software/Compiler/NVHPC/22.11-CUDA-11.7.0/Gaussian/g16c01-CUDA-11.7.0/g16/l701.exe)
 ... and contract with generalized density number  0.
 Compute integral second derivatives.
   1 Symmetry operations used in ECPInt.
 ECPInt:  NShTT=    2080 NPrTT=    6796 LenC2=    2059 LenP2D=    5515.
 LDataN:  DoStor=T MaxTD1= 8 Len=  415
 Leave Link  701 at Sun May 25 04:30:37 2025, MaxMem=  3758096384 cpu:               0.5 elap:               0.1
 (Enter /apps/easybuild-2022/easybuild/software/Compiler/NVHPC/22.11-CUDA-11.7.0/Gaussian/g16c01-CUDA-11.7.0/g16/l702.exe)
 L702 exits ... SP integral derivatives will be done elsewhere.
 Leave Link  702 at Sun May 25 04:30:37 2025, MaxMem=  3758096384 cpu:               0.0 elap:               0.0
 (Enter /apps/easybuild-2022/easybuild/software/Compiler/NVHPC/22.11-CUDA-11.7.0/Gaussian/g16c01-CUDA-11.7.0/g16/l703.exe)
 Integral derivatives from FoFJK, PRISM(SPDF).
 Compute integral second derivatives, UseDBF=F ICtDFT=           0.
 Calling FoFJK, ICntrl=    100127 FMM=F ISym2X=0 I1Cent= 0 IOpClX= 0 NMat=1 NMatS=1 NMatT=0.
 FoFJK:  IHMeth= 1 ICntrl=  100127 DoSepK=F KAlg= 0 I1Cent=           0 FoldK=F
 IRaf=         0 NMat=       1 IRICut=       1 DoRegI=T DoRafI=F ISym2E= 0 IDoP0=0 IntGTp=1.
 FoFCou: FMM=F IPFlag=           0 FMFlag=      100000 FMFlg1=         800
         NFxFlg=           0 DoJE=F BraDBF=F KetDBF=F FulRan=T
         wScrn=  0.000000 ICntrl=    100127 IOpCl=  0 I1Cent=           0 NGrid=           0
         NMat0=    1 NMatS0=      1 NMatT0=    0 NMatD0=    1 NMtDS0=    0 NMtDT0=    0
 Symmetry not used in FoFCou.
 Leave Link  703 at Sun May 25 04:30:50 2025, MaxMem=  3758096384 cpu:              98.0 elap:              12.3
 (Enter /apps/easybuild-2022/easybuild/software/Compiler/NVHPC/22.11-CUDA-11.7.0/Gaussian/g16c01-CUDA-11.7.0/g16/l716.exe)
 Dipole        = 7.95297766D-01 6.05062824D-01-6.68109104D-01
 Polarizability= 0.00000000D+00 0.00000000D+00 0.00000000D+00
                 0.00000000D+00 0.00000000D+00 0.00000000D+00
 -------------------------------------------------------------------
 Center     Atomic                   Forces (Hartrees/Bohr)
 Number     Number              X              Y              Z
 -------------------------------------------------------------------
      1        9          -0.001226163   -0.000014477   -0.002098189
      2       16          -0.001069858    0.000810418    0.009310903
      3        8           0.001381357   -0.000509759   -0.004326591
      4        8           0.000095150   -0.000491126   -0.001809178
      5        8           0.000805918    0.000013769   -0.001159917
      6        1           0.000013596    0.000191175    0.000082972
 -------------------------------------------------------------------
 Cartesian Forces:  Max     0.009310903 RMS     0.002591116
 Force constants in Cartesian coordinates: 
                1             2             3             4             5 
      1  0.177717D+00
      2 -0.600022D-01  0.867188D-01
      3  0.137109D+00 -0.656534D-01  0.224571D+00
      4 -0.153683D+00  0.476117D-01 -0.919505D-01  0.857434D+00
      5  0.494108D-01 -0.964981D-01  0.539995D-01 -0.177851D+00  0.935989D+00
      6 -0.965773D-01  0.530286D-01 -0.197804D+00 -0.335164D+00  0.146511D+00
      7  0.139426D-01  0.393814D-02 -0.222196D-01 -0.274437D+00  0.156035D-01
      8 -0.228608D-02  0.131254D-01  0.166372D-01  0.195782D-01 -0.103205D+00
      9  0.980087D-02  0.453027D-02 -0.375011D-01  0.289355D+00 -0.230362D-01
     10 -0.985590D-02  0.311793D-01 -0.250758D-02 -0.230212D+00  0.230830D+00
     11  0.189964D-01 -0.989454D-02 -0.178712D-02  0.232198D+00 -0.520735D+00
     12 -0.206236D-01  0.236505D-01  0.107149D-01  0.108385D+00 -0.178521D+00
     13 -0.294056D-01 -0.228074D-01 -0.186644D-01 -0.169288D+00 -0.111383D+00
     14 -0.637740D-02  0.803383D-02 -0.216455D-02 -0.879821D-01 -0.220175D+00
     15 -0.255591D-01 -0.143850D-01  0.464381D-02  0.244862D-01 -0.268145D-02
     16  0.128460D-02  0.804340D-04 -0.176683D-02 -0.298141D-01 -0.661108D-02
     17  0.258518D-03 -0.148529D-02 -0.103161D-02 -0.335554D-01  0.462439D-02
     18 -0.414981D-02 -0.117085D-02 -0.462459D-02  0.488818D-02  0.372780D-02
                6             7             8             9            10 
      6  0.101843D+01
      7  0.291608D+00  0.272508D+00
      8 -0.280845D-01 -0.100458D-01  0.787624D-01
      9 -0.555148D+00 -0.321360D+00  0.152570D-01  0.592828D+00
     10  0.106795D+00  0.627827D-02  0.234771D-01  0.122879D-01  0.216535D+00
     11 -0.176716D+00  0.230931D-02  0.905568D-02  0.334253D-02 -0.264224D+00
     12 -0.176534D+00  0.217117D-01 -0.302738D-01 -0.910642D-03 -0.108313D+00
     13  0.117054D-01 -0.212078D-01 -0.291434D-01  0.118680D-01  0.150220D-01
     14 -0.191145D-01 -0.611429D-02  0.741977D-02 -0.204968D-02 -0.264994D-01
     15 -0.907114D-01  0.304935D-01  0.270283D-01 -0.276882D-02 -0.589907D-02
     16  0.216322D-01  0.291664D-02 -0.158001D-02 -0.195221D-02  0.223235D-02
     17  0.243751D-01 -0.569083D-02 -0.515823D-02  0.195608D-02  0.523664D-02
     18  0.177200D-02 -0.233699D-03 -0.564335D-03  0.350033D-02 -0.236372D-02
               11            12            13            14            15 
     11  0.558595D+00
     12  0.193461D+00  0.152572D+00
     13  0.360576D-02  0.241359D-03  0.489917D+00
     14 -0.362835D-01 -0.546259D-02  0.870682D-01  0.283694D+00
     15 -0.141700D-01  0.160641D-01 -0.253687D+00  0.825504D-01  0.291434D+00
     16  0.711422D-02 -0.140120D-02 -0.285038D+00  0.399050D-01  0.230166D+00
     17 -0.737244D-03 -0.285459D-02  0.726596D-01 -0.426891D-01 -0.783423D-01
     18 -0.413086D-02 -0.190648D-02  0.248537D+00 -0.537591D-01 -0.218662D+00
               16            17            18 
     16  0.308418D+00
     17 -0.389086D-01  0.454455D-01
     18 -0.246678D+00  0.558973D-01  0.219921D+00
 FormGI is forming the generalized inverse of G from B-inverse, IUseBI=4.
 Force constants in internal coordinates: 
                1             2             3             4             5 
      1  0.368262D+00
      2  0.144993D-01  0.792146D+00
      3  0.149154D-01  0.650813D-02  0.780504D+00
      4  0.222279D-01  0.154853D-01  0.178251D-01  0.395205D+00
      5 -0.321448D-02 -0.516491D-02 -0.581122D-02  0.591891D-02  0.523460D+00
      6  0.163101D-01  0.140293D-01 -0.118921D-01 -0.227968D-01  0.346261D-02
      7  0.173940D-01 -0.111281D-01  0.124535D-01 -0.258542D-01  0.356532D-02
      8  0.292923D-01 -0.121386D-01 -0.139785D-01  0.370710D-01 -0.507919D-02
      9 -0.122322D-01  0.819889D-02  0.491821D-02 -0.283125D-01  0.523114D-02
     10 -0.181402D-01  0.191537D-01 -0.232814D-01  0.366388D-01  0.298756D-02
     11 -0.204606D-01 -0.223465D-01  0.268427D-01  0.152759D-01 -0.119869D-01
     12  0.316042D-02  0.624277D-02  0.457726D-02  0.505207D-01  0.242413D-01
     13 -0.316536D-02  0.143618D-01 -0.125381D-01  0.273629D-02  0.970713D-03
     14 -0.273195D-01 -0.158020D-02  0.126481D-01  0.224395D-02 -0.163529D-02
     15  0.230101D-01 -0.104165D-01  0.328935D-02 -0.439983D-02 -0.110274D-02
                6             7             8             9            10 
      6  0.173538D+00
      7  0.717299D-02  0.172574D+00
      8 -0.801653D-01 -0.843575D-01  0.308268D+00
      9  0.178087D-01  0.190241D-01 -0.573017D-01  0.173825D+00
     10 -0.659627D-01 -0.628930D-01 -0.362391D-02 -0.981101D-01  0.275298D+00
     11 -0.647006D-01 -0.682523D-01  0.114168D-02 -0.982091D-01 -0.364289D-01
     12  0.122910D-02 -0.549396D-02  0.435585D-02 -0.194644D-03  0.282621D-01
     13  0.604865D-01 -0.570225D-01 -0.574521D-02  0.962972D-03  0.336750D-01
     14 -0.773504D-01 -0.131933D-01 -0.400575D-01  0.326114D-01  0.275991D-01
     15  0.120426D-01  0.748930D-01  0.405887D-01 -0.344166D-01 -0.490152D-01
               11            12            13            14            15 
     11  0.274734D+00
     12 -0.270356D-01  0.155225D+00
     13 -0.326883D-01  0.669626D-02  0.505191D-01
     14  0.476895D-01 -0.450555D-02 -0.226546D-01  0.694225D-01
     15 -0.224030D-01 -0.583028D-02 -0.254599D-01 -0.405775D-01  0.689659D-01
 Leave Link  716 at Sun May 25 04:30:50 2025, MaxMem=  3758096384 cpu:               0.0 elap:               0.0
 (Enter /apps/easybuild-2022/easybuild/software/Compiler/NVHPC/22.11-CUDA-11.7.0/Gaussian/g16c01-CUDA-11.7.0/g16/l103.exe)

 GradGradGradGradGradGradGradGradGradGradGradGradGradGradGradGradGradGrad
 Berny optimization.
 Red2BG is reusing G-inverse.
 Internal  Forces:  Max     0.004417697 RMS     0.001678213
 Search for a local minimum.
 Step number   1 out of a maximum of   25
 All quantities printed in internal units (Hartrees-Bohrs-Radians)
 RMS Force = .16782D-02 SwitMx=.10000D-02 MixMth= 1
 Mixed Optimization -- RFO/linear search
 Second derivative matrix not updated -- analytic derivatives used.
 The second derivative matrix:
                          R1        R2        R3        R4        R5
           R1           0.36826
           R2           0.01450   0.79215
           R3           0.01492   0.00651   0.78050
           R4           0.02223   0.01549   0.01783   0.39521
           R5          -0.00321  -0.00516  -0.00581   0.00592   0.52346
           A1           0.01631   0.01403  -0.01189  -0.02280   0.00346
           A2           0.01739  -0.01113   0.01245  -0.02585   0.00357
           A3           0.02929  -0.01214  -0.01398   0.03707  -0.00508
           A4          -0.01223   0.00820   0.00492  -0.02831   0.00523
           A5          -0.01814   0.01915  -0.02328   0.03664   0.00299
           A6          -0.02046  -0.02235   0.02684   0.01528  -0.01199
           A7           0.00316   0.00624   0.00458   0.05052   0.02424
           D1          -0.00317   0.01436  -0.01254   0.00274   0.00097
           D2          -0.02732  -0.00158   0.01265   0.00224  -0.00164
           D3           0.02301  -0.01042   0.00329  -0.00440  -0.00110
                          A1        A2        A3        A4        A5
           A1           0.17354
           A2           0.00717   0.17257
           A3          -0.08017  -0.08436   0.30827
           A4           0.01781   0.01902  -0.05730   0.17383
           A5          -0.06596  -0.06289  -0.00362  -0.09811   0.27530
           A6          -0.06470  -0.06825   0.00114  -0.09821  -0.03643
           A7           0.00123  -0.00549   0.00436  -0.00019   0.02826
           D1           0.06049  -0.05702  -0.00575   0.00096   0.03368
           D2          -0.07735  -0.01319  -0.04006   0.03261   0.02760
           D3           0.01204   0.07489   0.04059  -0.03442  -0.04902
                          A6        A7        D1        D2        D3
           A6           0.27473
           A7          -0.02704   0.15523
           D1          -0.03269   0.00670   0.05052
           D2           0.04769  -0.00451  -0.02265   0.06942
           D3          -0.02240  -0.00583  -0.02546  -0.04058   0.06897
 ITU=  0
     Eigenvalues ---    0.00338   0.13638   0.21050   0.22688   0.29303
     Eigenvalues ---    0.31336   0.35969   0.41632   0.51135   0.52770
     Eigenvalues ---    0.78444   0.79891
 RFO step:  Lambda=-1.05324328D-04 EMin= 3.38380803D-03
 Linear search not attempted -- first point.
 Iteration  1 RMS(Cart)=  0.00391453 RMS(Int)=  0.00002170
 Iteration  2 RMS(Cart)=  0.00002401 RMS(Int)=  0.00000959
 Iteration  3 RMS(Cart)=  0.00000000 RMS(Int)=  0.00000959
 ITry= 1 IFail=0 DXMaxC= 1.01D-02 DCOld= 1.00D+10 DXMaxT= 3.00D-01 DXLimC= 3.00D+00 Rises=F
 Variable       Old X    -DE/DX   Delta X   Delta X   Delta X     New X
                                 (Linear)    (Quad)   (Total)
    R1        2.91799   0.00227   0.00000   0.00799   0.00799   2.92598
    R2        2.65825  -0.00442   0.00000  -0.00627  -0.00627   2.65198
    R3        2.66485   0.00106   0.00000   0.00162   0.00162   2.66647
    R4        2.94817   0.00066   0.00000   0.00046   0.00046   2.94864
    R5        1.82861  -0.00007   0.00000  -0.00021  -0.00021   1.82841
    A1        1.86716  -0.00074   0.00000  -0.00197  -0.00198   1.86518
    A2        1.86373  -0.00217   0.00000  -0.00845  -0.00847   1.85526
    A3        1.72510   0.00022   0.00000  -0.00067  -0.00068   1.72442
    A4        2.16169   0.00040   0.00000   0.00471   0.00469   2.16638
    A5        1.87608   0.00252   0.00000   0.00713   0.00711   1.88319
    A6        1.91961  -0.00039   0.00000  -0.00229  -0.00231   1.91730
    A7        1.92286   0.00034   0.00000  -0.00015  -0.00015   1.92271
    D1       -1.54314   0.00082   0.00000   0.00335   0.00335  -1.53979
    D2        2.80216   0.00081   0.00000   0.00371   0.00372   2.80588
    D3        0.40400  -0.00161   0.00000  -0.00704  -0.00704   0.39696
         Item               Value     Threshold  Converged?
 Maximum Force            0.004418     0.000450     NO 
 RMS     Force            0.001678     0.000300     NO 
 Maximum Displacement     0.010118     0.001800     NO 
 RMS     Displacement     0.003913     0.001200     NO 
 Predicted change in Energy=-5.267979D-05
 Lowest energy point so far.  Saving SCF results.
 GradGradGradGradGradGradGradGradGradGradGradGradGradGradGradGradGradGrad

 Leave Link  103 at Sun May 25 04:30:50 2025, MaxMem=  3758096384 cpu:               0.0 elap:               0.0
 (Enter /apps/easybuild-2022/easybuild/software/Compiler/NVHPC/22.11-CUDA-11.7.0/Gaussian/g16c01-CUDA-11.7.0/g16/l202.exe)
                          Input orientation:                          
 ---------------------------------------------------------------------
 Center     Atomic      Atomic             Coordinates (Angstroms)
 Number     Number       Type             X           Y           Z
 ---------------------------------------------------------------------
      1          9           0       -0.079629    1.155028   -1.465500
      2         16           0        0.856403    0.671243   -0.330942
      3          8           0        0.112016    0.715802    0.857899
      4          8           0        1.503179   -0.484783   -0.817052
      5          8           0        1.854433    1.870591   -0.317072
      6          1           0        2.573260    1.713581   -0.945395
 ---------------------------------------------------------------------
                    Distance matrix (angstroms):
                    1          2          3          4          5
     1  F    0.000000
     2  S    1.548362   0.000000
     3  O    2.372304   1.403367   0.000000
     4  O    2.369546   1.411035   2.486403   0.000000
     5  O    2.360405   1.560351   2.397939   2.433341   0.000000
     6  H    2.760492   2.100386   3.210164   2.448337   0.967551
                    6
     6  H    0.000000
 Symmetry turned off by external request.
 Stoichiometry    FHO3S
 Rotational constants (GHZ):           5.1216653           5.0728378           4.9937245
 Leave Link  202 at Sun May 25 04:30:50 2025, MaxMem=  3758096384 cpu:               0.0 elap:               0.0
 (Enter /apps/easybuild-2022/easybuild/software/Compiler/NVHPC/22.11-CUDA-11.7.0/Gaussian/g16c01-CUDA-11.7.0/g16/l301.exe)
 Standard basis: def2TZVPP (5D, 7F)
 Ernie: Thresh=  0.10000D-02 Tol=  0.10000D-05 Strict=F.
   180 basis functions,   290 primitive gaussians,   207 cartesian basis functions
    25 alpha electrons       25 beta electrons
       nuclear repulsion energy       292.0173802307 Hartrees.
 IExCor= 4336 DFT=T Ex+Corr=M062X ExCW=0 ScaHFX=  0.540000
 ScaDFX=  1.000000  1.000000  1.000000  1.000000 ScalE2=  1.000000  1.000000
 IRadAn=      5 IRanWt=     -1 IRanGd=            0 ICorTp=0 IEmpDi=  4
 NAtoms=    6 NActive=    6 NUniq=    6 SFac= 1.00D+00 NAtFMM=   60 NAOKFM=F Big=F
 Integral buffers will be    131072 words long.
 Raffenetti 2 integral format.
 Two-electron integral symmetry is turned off.
 Leave Link  301 at Sun May 25 04:30:50 2025, MaxMem=  3758096384 cpu:               0.1 elap:               0.0
 (Enter /apps/easybuild-2022/easybuild/software/Compiler/NVHPC/22.11-CUDA-11.7.0/Gaussian/g16c01-CUDA-11.7.0/g16/l302.exe)
 NPDir=0 NMtPBC=     1 NCelOv=     1 NCel=       1 NClECP=     1 NCelD=      1
         NCelK=      1 NCelE2=     1 NClLst=     1 CellRange=     0.0.
 One-electron integrals computed using PRISM.
   1 Symmetry operations used in ECPInt.
 ECPInt:  NShTT=    2080 NPrTT=    6796 LenC2=    2059 LenP2D=    5513.
 LDataN:  DoStor=T MaxTD1= 6 Len=  172
 NBasis=   180 RedAO= T EigKep=  9.05D-04  NBF=   180
 NBsUse=   180 1.00D-06 EigRej= -1.00D+00 NBFU=   180
 Precomputing XC quadrature grid using
 IXCGrd= 4 IRadAn=           5 IRanWt=          -1 IRanGd=           0 AccXCQ= 0.00D+00.
 Generated NRdTot=       0 NPtTot=           0 NUsed=           0 NTot=          32
 NSgBfM=   206   206   206   206   206 MxSgAt=     6 MxSgA2=     6.
 Leave Link  302 at Sun May 25 04:30:50 2025, MaxMem=  3758096384 cpu:               0.3 elap:               0.1
 (Enter /apps/easybuild-2022/easybuild/software/Compiler/NVHPC/22.11-CUDA-11.7.0/Gaussian/g16c01-CUDA-11.7.0/g16/l303.exe)
 DipDrv:  MaxL=1.
 Leave Link  303 at Sun May 25 04:30:50 2025, MaxMem=  3758096384 cpu:               0.0 elap:               0.0
 (Enter /apps/easybuild-2022/easybuild/software/Compiler/NVHPC/22.11-CUDA-11.7.0/Gaussian/g16c01-CUDA-11.7.0/g16/l401.exe)
 Initial guess from the checkpoint file:  "1002122340540000000001_well.chk"
 B after Tr=     0.000660   -0.000178    0.001330
         Rot=    1.000000   -0.000058    0.000144   -0.000212 Ang=  -0.03 deg.
 Guess basis will be translated and rotated to current coordinates.
 JPrj=2 DoOrth=T DoCkMO=T.
 Leave Link  401 at Sun May 25 04:30:50 2025, MaxMem=  3758096384 cpu:               0.1 elap:               0.1
 (Enter /apps/easybuild-2022/easybuild/software/Compiler/NVHPC/22.11-CUDA-11.7.0/Gaussian/g16c01-CUDA-11.7.0/g16/l502.exe)
 Keep R1 ints in memory in canonical form, NReq=140972698.
 FoFCou: FMM=F IPFlag=           0 FMFlag=           0 FMFlg1=           0
         NFxFlg=           0 DoJE=F BraDBF=F KetDBF=F FulRan=T
         wScrn=  0.000000 ICntrl=       600 IOpCl=  0 I1Cent=           0 NGrid=           0
         NMat0=    1 NMatS0=  16290 NMatT0=    0 NMatD0=    1 NMtDS0=    0 NMtDT0=    0
 Symmetry not used in FoFCou.
 Two-electron integral symmetry not used.
 Closed shell SCF:
 Using DIIS extrapolation, IDIIS=  1040.
 NGot=  3758096384 LenX=  3625317310 LenY=  3625274020
 Requested convergence on RMS density matrix=1.00D-08 within  32 cycles.
 Requested convergence on MAX density matrix=1.00D-06.
 Requested convergence on             energy=1.00D-06.
 No special actions if energy rises.

 Cycle   1  Pass 1  IDiag  1:
 E= -724.323348090880    
 DIIS: error= 4.52D-04 at cycle   1 NSaved=   1.
 NSaved= 1 IEnMin= 1 EnMin= -724.323348090880     IErMin= 1 ErrMin= 4.52D-04
 ErrMax= 4.52D-04  0.00D+00 EMaxC= 1.00D-01 BMatC= 7.36D-05 BMatP= 7.36D-05
 IDIUse=3 WtCom= 9.95D-01 WtEn= 4.52D-03
 Coeff-Com:  0.100D+01
 Coeff-En:   0.100D+01
 Coeff:      0.100D+01
 Gap=     1.106 Goal=   None    Shift=    0.000
 RMSDP=4.38D-05 MaxDP=8.15D-04              OVMax= 1.81D-03

 Cycle   2  Pass 1  IDiag  1:
 E= -724.323409142223     Delta-E=       -0.000061051343 Rises=F Damp=F
 DIIS: error= 1.66D-04 at cycle   2 NSaved=   2.
 NSaved= 2 IEnMin= 2 EnMin= -724.323409142223     IErMin= 2 ErrMin= 1.66D-04
 ErrMax= 1.66D-04  0.00D+00 EMaxC= 1.00D-01 BMatC= 1.09D-05 BMatP= 7.36D-05
 IDIUse=3 WtCom= 9.98D-01 WtEn= 1.66D-03
 Coeff-Com:  0.143D+00 0.857D+00
 Coeff-En:   0.000D+00 0.100D+01
 Coeff:      0.143D+00 0.857D+00
 Gap=     0.457 Goal=   None    Shift=    0.000
 RMSDP=1.57D-05 MaxDP=5.74D-04 DE=-6.11D-05 OVMax= 1.07D-03

 Cycle   3  Pass 1  IDiag  1:
 E= -724.323410649487     Delta-E=       -0.000001507264 Rises=F Damp=F
 DIIS: error= 1.73D-04 at cycle   3 NSaved=   3.
 NSaved= 3 IEnMin= 3 EnMin= -724.323410649487     IErMin= 2 ErrMin= 1.66D-04
 ErrMax= 1.73D-04  0.00D+00 EMaxC= 1.00D-01 BMatC= 1.00D-05 BMatP= 1.09D-05
 IDIUse=3 WtCom= 9.98D-01 WtEn= 1.73D-03
 Coeff-Com: -0.560D-01 0.499D+00 0.557D+00
 Coeff-En:   0.000D+00 0.444D+00 0.556D+00
 Coeff:     -0.559D-01 0.499D+00 0.557D+00
 Gap=     0.457 Goal=   None    Shift=    0.000
 RMSDP=1.03D-05 MaxDP=3.17D-04 DE=-1.51D-06 OVMax= 6.60D-04

 Cycle   4  Pass 1  IDiag  1:
 E= -724.323417207326     Delta-E=       -0.000006557839 Rises=F Damp=F
 DIIS: error= 1.99D-05 at cycle   4 NSaved=   4.
 NSaved= 4 IEnMin= 4 EnMin= -724.323417207326     IErMin= 4 ErrMin= 1.99D-05
 ErrMax= 1.99D-05  0.00D+00 EMaxC= 1.00D-01 BMatC= 1.62D-07 BMatP= 1.00D-05
 IDIUse=1 WtCom= 1.00D+00 WtEn= 0.00D+00
 Coeff-Com: -0.182D-01 0.478D-01 0.141D+00 0.829D+00
 Coeff:     -0.182D-01 0.478D-01 0.141D+00 0.829D+00
 Gap=     0.457 Goal=   None    Shift=    0.000
 RMSDP=1.69D-06 MaxDP=4.47D-05 DE=-6.56D-06 OVMax= 1.21D-04

 Cycle   5  Pass 1  IDiag  1:
 E= -724.323417327460     Delta-E=       -0.000000120133 Rises=F Damp=F
 DIIS: error= 1.34D-05 at cycle   5 NSaved=   5.
 NSaved= 5 IEnMin= 5 EnMin= -724.323417327460     IErMin= 5 ErrMin= 1.34D-05
 ErrMax= 1.34D-05  0.00D+00 EMaxC= 1.00D-01 BMatC= 3.69D-08 BMatP= 1.62D-07
 IDIUse=1 WtCom= 1.00D+00 WtEn= 0.00D+00
 Coeff-Com: -0.393D-02-0.224D-01 0.204D-01 0.408D+00 0.598D+00
 Coeff:     -0.393D-02-0.224D-01 0.204D-01 0.408D+00 0.598D+00
 Gap=     0.457 Goal=   None    Shift=    0.000
 RMSDP=6.41D-07 MaxDP=2.01D-05 DE=-1.20D-07 OVMax= 3.27D-05

 Cycle   6  Pass 1  IDiag  1:
 E= -724.323417350509     Delta-E=       -0.000000023050 Rises=F Damp=F
 DIIS: error= 3.04D-06 at cycle   6 NSaved=   6.
 NSaved= 6 IEnMin= 6 EnMin= -724.323417350509     IErMin= 6 ErrMin= 3.04D-06
 ErrMax= 3.04D-06  0.00D+00 EMaxC= 1.00D-01 BMatC= 2.18D-09 BMatP= 3.69D-08
 IDIUse=1 WtCom= 1.00D+00 WtEn= 0.00D+00
 Coeff-Com:  0.109D-02-0.152D-01-0.154D-01 0.209D-01 0.207D+00 0.802D+00
 Coeff:      0.109D-02-0.152D-01-0.154D-01 0.209D-01 0.207D+00 0.802D+00
 Gap=     0.457 Goal=   None    Shift=    0.000
 RMSDP=2.39D-07 MaxDP=6.28D-06 DE=-2.30D-08 OVMax= 1.32D-05

 Cycle   7  Pass 1  IDiag  1:
 E= -724.323417352190     Delta-E=       -0.000000001681 Rises=F Damp=F
 DIIS: error= 6.82D-07 at cycle   7 NSaved=   7.
 NSaved= 7 IEnMin= 7 EnMin= -724.323417352190     IErMin= 7 ErrMin= 6.82D-07
 ErrMax= 6.82D-07  0.00D+00 EMaxC= 1.00D-01 BMatC= 1.43D-10 BMatP= 2.18D-09
 IDIUse=1 WtCom= 1.00D+00 WtEn= 0.00D+00
 Coeff-Com:  0.521D-03-0.408D-02-0.655D-02-0.826D-02 0.469D-01 0.272D+00
 Coeff-Com:  0.700D+00
 Coeff:      0.521D-03-0.408D-02-0.655D-02-0.826D-02 0.469D-01 0.272D+00
 Coeff:      0.700D+00
 Gap=     0.457 Goal=   None    Shift=    0.000
 RMSDP=5.81D-08 MaxDP=3.19D-06 DE=-1.68D-09 OVMax= 3.03D-06

 Cycle   8  Pass 1  IDiag  1:
 E= -724.323417352334     Delta-E=       -0.000000000144 Rises=F Damp=F
 DIIS: error= 3.73D-07 at cycle   8 NSaved=   8.
 NSaved= 8 IEnMin= 8 EnMin= -724.323417352334     IErMin= 8 ErrMin= 3.73D-07
 ErrMax= 3.73D-07  0.00D+00 EMaxC= 1.00D-01 BMatC= 4.05D-11 BMatP= 1.43D-10
 IDIUse=1 WtCom= 1.00D+00 WtEn= 0.00D+00
 Coeff-Com:  0.533D-04 0.964D-03-0.431D-03-0.823D-02-0.171D-01-0.211D-01
 Coeff-Com:  0.358D+00 0.688D+00
 Coeff:      0.533D-04 0.964D-03-0.431D-03-0.823D-02-0.171D-01-0.211D-01
 Coeff:      0.358D+00 0.688D+00
 Gap=     0.457 Goal=   None    Shift=    0.000
 RMSDP=2.72D-08 MaxDP=1.39D-06 DE=-1.44D-10 OVMax= 1.32D-06

 Cycle   9  Pass 1  IDiag  1:
 E= -724.323417352310     Delta-E=        0.000000000024 Rises=F Damp=F
 DIIS: error= 5.12D-08 at cycle   9 NSaved=   9.
 NSaved= 9 IEnMin= 8 EnMin= -724.323417352334     IErMin= 9 ErrMin= 5.12D-08
 ErrMax= 5.12D-08  0.00D+00 EMaxC= 1.00D-01 BMatC= 1.42D-12 BMatP= 4.05D-11
 IDIUse=1 WtCom= 1.00D+00 WtEn= 0.00D+00
 Coeff-Com: -0.191D-04 0.555D-03 0.388D-03-0.164D-02-0.881D-02-0.266D-01
 Coeff-Com:  0.539D-01 0.204D+00 0.778D+00
 Coeff:     -0.191D-04 0.555D-03 0.388D-03-0.164D-02-0.881D-02-0.266D-01
 Coeff:      0.539D-01 0.204D+00 0.778D+00
 Gap=     0.457 Goal=   None    Shift=    0.000
 RMSDP=6.84D-09 MaxDP=1.69D-07 DE= 2.42D-11 OVMax= 3.39D-07

 SCF Done:  E(RM062X) =  -724.323417352     A.U. after    9 cycles
            NFock=  9  Conv=0.68D-08     -V/T= 2.0024
 KE= 7.225973536290D+02 PE=-2.301560588513D+03 EE= 5.626224373009D+02
 Leave Link  502 at Sun May 25 04:30:53 2025, MaxMem=  3758096384 cpu:              17.3 elap:               2.9
 (Enter /apps/easybuild-2022/easybuild/software/Compiler/NVHPC/22.11-CUDA-11.7.0/Gaussian/g16c01-CUDA-11.7.0/g16/l508.exe)
 QCSCF skips out because SCF is already converged.
 Leave Link  508 at Sun May 25 04:30:53 2025, MaxMem=  3758096384 cpu:               0.0 elap:               0.0
 (Enter /apps/easybuild-2022/easybuild/software/Compiler/NVHPC/22.11-CUDA-11.7.0/Gaussian/g16c01-CUDA-11.7.0/g16/l701.exe)
 ... and contract with generalized density number  0.
 Compute integral first derivatives.
   1 Symmetry operations used in ECPInt.
 ECPInt:  NShTT=    2080 NPrTT=    6796 LenC2=    2059 LenP2D=    5513.
 LDataN:  DoStor=T MaxTD1= 7 Len=  274
 Leave Link  701 at Sun May 25 04:30:53 2025, MaxMem=  3758096384 cpu:               0.4 elap:               0.1
 (Enter /apps/easybuild-2022/easybuild/software/Compiler/NVHPC/22.11-CUDA-11.7.0/Gaussian/g16c01-CUDA-11.7.0/g16/l702.exe)
 L702 exits ... SP integral derivatives will be done elsewhere.
 Leave Link  702 at Sun May 25 04:30:53 2025, MaxMem=  3758096384 cpu:               0.0 elap:               0.0
 (Enter /apps/easybuild-2022/easybuild/software/Compiler/NVHPC/22.11-CUDA-11.7.0/Gaussian/g16c01-CUDA-11.7.0/g16/l703.exe)
 Integral derivatives from FoFJK, PRISM(SPDF).
 Compute integral first derivatives, UseDBF=F ICtDFT=           0.
 Calling FoFJK, ICntrl=      2127 FMM=F ISym2X=0 I1Cent= 0 IOpClX= 0 NMat=1 NMatS=1 NMatT=0.
 FoFJK:  IHMeth= 1 ICntrl=    2127 DoSepK=F KAlg= 0 I1Cent=           0 FoldK=F
 IRaf=         0 NMat=       1 IRICut=       1 DoRegI=T DoRafI=F ISym2E= 0 IDoP0=0 IntGTp=1.
 FoFCou: FMM=F IPFlag=           0 FMFlag=      100000 FMFlg1=         800
         NFxFlg=           0 DoJE=F BraDBF=F KetDBF=F FulRan=T
         wScrn=  0.000000 ICntrl=      2127 IOpCl=  0 I1Cent=           0 NGrid=           0
         NMat0=    1 NMatS0=      1 NMatT0=    0 NMatD0=    1 NMtDS0=    0 NMtDT0=    0
 Symmetry not used in FoFCou.
 Leave Link  703 at Sun May 25 04:30:54 2025, MaxMem=  3758096384 cpu:              10.2 elap:               1.3
 (Enter /apps/easybuild-2022/easybuild/software/Compiler/NVHPC/22.11-CUDA-11.7.0/Gaussian/g16c01-CUDA-11.7.0/g16/l716.exe)
 Dipole        = 7.99946174D-01 6.04789509D-01-6.40683878D-01
 -------------------------------------------------------------------
 Center     Atomic                   Forces (Hartrees/Bohr)
 Number     Number              X              Y              Z
 -------------------------------------------------------------------
      1        9          -0.000030213    0.000010438   -0.000024790
      2       16           0.000049994   -0.000010016   -0.000020969
      3        8          -0.000029223   -0.000016466    0.000052078
      4        8           0.000016744   -0.000006772   -0.000007065
      5        8          -0.000000449    0.000009593    0.000001110
      6        1          -0.000006852    0.000013223   -0.000000364
 -------------------------------------------------------------------
 Cartesian Forces:  Max     0.000052078 RMS     0.000022613
 Leave Link  716 at Sun May 25 04:30:54 2025, MaxMem=  3758096384 cpu:               0.0 elap:               0.0
 (Enter /apps/easybuild-2022/easybuild/software/Compiler/NVHPC/22.11-CUDA-11.7.0/Gaussian/g16c01-CUDA-11.7.0/g16/l103.exe)

 GradGradGradGradGradGradGradGradGradGradGradGradGradGradGradGradGradGrad
 Berny optimization.
 Using GEDIIS/GDIIS optimizer.
 FormGI is forming the generalized inverse of G from B-inverse, IUseBI=4.
 Internal  Forces:  Max     0.000061009 RMS     0.000019672
 Search for a local minimum.
 Step number   2 out of a maximum of   25
 All quantities printed in internal units (Hartrees-Bohrs-Radians)
 RMS Force = .19672D-04 SwitMx=.10000D-02 MixMth= 2
 Mixed Optimization -- En-DIIS/RFO-DIIS
 Update second derivatives using D2CorX and points    1    2
 DE= -5.26D-05 DEPred=-5.27D-05 R= 9.99D-01
 TightC=F SS=  1.41D+00  RLast= 1.83D-02 DXNew= 5.0454D-01 5.4877D-02
 Trust test= 9.99D-01 RLast= 1.83D-02 DXMaxT set to 3.00D-01
 The second derivative matrix:
                          R1        R2        R3        R4        R5
           R1           0.36647
           R2           0.01499   0.79718
           R3           0.01424   0.00643   0.78026
           R4           0.02179   0.01546   0.01767   0.39510
           R5          -0.00320  -0.00511  -0.00581   0.00592   0.52346
           A1           0.01666   0.01433  -0.01178  -0.02272   0.00346
           A2           0.01815  -0.00968   0.01265  -0.02572   0.00358
           A3           0.02924  -0.01232  -0.01399   0.03706  -0.00508
           A4          -0.01226   0.00770   0.00493  -0.02830   0.00523
           A5          -0.01931   0.01806  -0.02365   0.03639   0.00298
           A6          -0.02027  -0.02220   0.02691   0.01532  -0.01199
           A7           0.00302   0.00606   0.00454   0.05049   0.02424
           D1          -0.00346   0.01383  -0.01262   0.00268   0.00097
           D2          -0.02764  -0.00205   0.01256   0.00218  -0.00164
           D3           0.02359  -0.00938   0.00345  -0.00429  -0.00109
                          A1        A2        A3        A4        A5
           A1           0.17350
           A2           0.00715   0.17279
           A3          -0.08017  -0.08440   0.30827
           A4           0.01777   0.01887  -0.05728   0.17387
           A5          -0.06584  -0.06286  -0.00361  -0.09799   0.27492
           A6          -0.06472  -0.06827   0.00114  -0.09823  -0.03636
           A7           0.00124  -0.00551   0.00436  -0.00018   0.02823
           D1           0.06050  -0.05710  -0.00573   0.00102   0.03365
           D2          -0.07733  -0.01324  -0.04005   0.03266   0.02755
           D3           0.01202   0.07503   0.04056  -0.03452  -0.04897
                          A6        A7        D1        D2        D3
           A6           0.27472
           A7          -0.02703   0.15522
           D1          -0.03268   0.00670   0.05054
           D2           0.04770  -0.00451  -0.02264   0.06943
           D3          -0.02242  -0.00584  -0.02551  -0.04061   0.06906
 ITU=  1  0
 Use linear search instead of GDIIS.
     Eigenvalues ---    0.00338   0.13637   0.21048   0.22701   0.29219
     Eigenvalues ---    0.31312   0.35984   0.41575   0.51102   0.52770
     Eigenvalues ---    0.78468   0.80322
 RFO step:  Lambda= 0.00000000D+00 EMin= 3.38380800D-03
 Quartic linear search produced a step of -0.00061.
 Iteration  1 RMS(Cart)=  0.00004836 RMS(Int)=  0.00000001
 Iteration  2 RMS(Cart)=  0.00000000 RMS(Int)=  0.00000001
 ITry= 1 IFail=0 DXMaxC= 7.93D-05 DCOld= 1.00D+10 DXMaxT= 3.00D-01 DXLimC= 3.00D+00 Rises=F
 Variable       Old X    -DE/DX   Delta X   Delta X   Delta X     New X
                                 (Linear)    (Quad)   (Total)
    R1        2.92598   0.00004  -0.00000   0.00012   0.00011   2.92609
    R2        2.65198   0.00006   0.00000   0.00007   0.00007   2.65205
    R3        2.66647   0.00001  -0.00000   0.00001   0.00001   2.66648
    R4        2.94864   0.00001  -0.00000   0.00001   0.00001   2.94864
    R5        1.82841   0.00000   0.00000   0.00000   0.00000   1.82841
    A1        1.86518  -0.00000   0.00000  -0.00002  -0.00002   1.86517
    A2        1.85526   0.00001   0.00001   0.00002   0.00002   1.85528
    A3        1.72442  -0.00000   0.00000  -0.00001  -0.00001   1.72441
    A4        2.16638  -0.00001  -0.00000  -0.00002  -0.00002   2.16636
    A5        1.88319   0.00001  -0.00000   0.00003   0.00002   1.88321
    A6        1.91730  -0.00000   0.00000   0.00000   0.00000   1.91730
    A7        1.92271   0.00000   0.00000  -0.00001  -0.00001   1.92270
    D1       -1.53979  -0.00000  -0.00000   0.00008   0.00008  -1.53971
    D2        2.80588  -0.00000  -0.00000   0.00010   0.00010   2.80597
    D3        0.39696   0.00000   0.00000   0.00009   0.00010   0.39706
         Item               Value     Threshold  Converged?
 Maximum Force            0.000061     0.000450     YES
 RMS     Force            0.000020     0.000300     YES
 Maximum Displacement     0.000079     0.001800     YES
 RMS     Displacement     0.000048     0.001200     YES
 Predicted change in Energy=-5.016080D-09
 Optimization completed.
    -- Stationary point found.
                           ----------------------------
                           !   Optimized Parameters   !
                           ! (Angstroms and Degrees)  !
 --------------------------                            --------------------------
 ! Name  Definition              Value          Derivative Info.                !
 --------------------------------------------------------------------------------
 ! R1    R(1,2)                  1.5484         -DE/DX =    0.0                 !
 ! R2    R(2,3)                  1.4034         -DE/DX =    0.0001              !
 ! R3    R(2,4)                  1.411          -DE/DX =    0.0                 !
 ! R4    R(2,5)                  1.5604         -DE/DX =    0.0                 !
 ! R5    R(5,6)                  0.9676         -DE/DX =    0.0                 !
 ! A1    A(1,2,3)              106.8672         -DE/DX =    0.0                 !
 ! A2    A(1,2,4)              106.2987         -DE/DX =    0.0                 !
 ! A3    A(1,2,5)               98.802          -DE/DX =    0.0                 !
 ! A4    A(3,2,4)              124.1243         -DE/DX =    0.0                 !
 ! A5    A(3,2,5)              107.8988         -DE/DX =    0.0                 !
 ! A6    A(4,2,5)              109.853          -DE/DX =    0.0                 !
 ! A7    A(2,5,6)              110.163          -DE/DX =    0.0                 !
 ! D1    D(1,2,5,6)            -88.2236         -DE/DX =    0.0                 !
 ! D2    D(3,2,5,6)            160.765          -DE/DX =    0.0                 !
 ! D3    D(4,2,5,6)             22.7443         -DE/DX =    0.0                 !
 --------------------------------------------------------------------------------
 Lowest energy point so far.  Saving SCF results.
 Largest change from initial coordinates is atom    2       0.002 Angstoms.
 GradGradGradGradGradGradGradGradGradGradGradGradGradGradGradGradGradGrad

 Leave Link  103 at Sun May 25 04:30:54 2025, MaxMem=  3758096384 cpu:               0.0 elap:               0.0
 (Enter /apps/easybuild-2022/easybuild/software/Compiler/NVHPC/22.11-CUDA-11.7.0/Gaussian/g16c01-CUDA-11.7.0/g16/l202.exe)
                          Input orientation:                          
 ---------------------------------------------------------------------
 Center     Atomic      Atomic             Coordinates (Angstroms)
 Number     Number       Type             X           Y           Z
 ---------------------------------------------------------------------
      1          9           0       -0.079629    1.155028   -1.465500
      2         16           0        0.856403    0.671243   -0.330942
      3          8           0        0.112016    0.715802    0.857899
      4          8           0        1.503179   -0.484783   -0.817052
      5          8           0        1.854433    1.870591   -0.317072
      6          1           0        2.573260    1.713581   -0.945395
 ---------------------------------------------------------------------
                    Distance matrix (angstroms):
                    1          2          3          4          5
     1  F    0.000000
     2  S    1.548362   0.000000
     3  O    2.372304   1.403367   0.000000
     4  O    2.369546   1.411035   2.486403   0.000000
     5  O    2.360405   1.560351   2.397939   2.433341   0.000000
     6  H    2.760492   2.100386   3.210164   2.448337   0.967551
                    6
     6  H    0.000000
 Symmetry turned off by external request.
 Stoichiometry    FHO3S
 Rotational constants (GHZ):           5.1216653           5.0728378           4.9937245
 Leave Link  202 at Sun May 25 04:30:54 2025, MaxMem=  3758096384 cpu:               0.0 elap:               0.0
 (Enter /apps/easybuild-2022/easybuild/software/Compiler/NVHPC/22.11-CUDA-11.7.0/Gaussian/g16c01-CUDA-11.7.0/g16/l9999.exe)
 Unable to Open any file for archive entry.
 1\1\GINC-SPARTAN-BM187\FOpt\RM062X\def2TZVPP\F1H1O3S1\AKHALILOV\25-May
 -2025\0\\#P M062X/Def2TZVPP Symm(None) scf(xqc) pop(None) freq opt(Cal
 cFC)\\Gaussian input prepared by ASE\\0,1\F,-0.0796292204,1.1550279799
 ,-1.4654997503\S,0.8564025687,0.6712426603,-0.3309416708\O,0.112015539
 8,0.7158021617,0.8578985374\O,1.5031790055,-0.4847833994,-0.8170523617
 \O,1.8544327608,1.8705912778,-0.3170721782\H,2.5732603455,1.7135813197
 ,-0.9453945764\\Version=ES64L-G16RevC.01\HF=-724.3234174\RMSD=6.836e-0
 9\RMSF=2.261e-05\Dipole=0.7999462,0.6047895,-0.6406839\PG=Unknown\\@
 The archive entry for this job was punched.


 The theorems and results in mathematical physics are
 not theorems and results about Nature, but about our
 description of it.
                   --Gerard 't Hooft
 Leave Link 9999 at Sun May 25 04:30:55 2025, MaxMem=  3758096384 cpu:               0.0 elap:               0.0
 Job cpu time:       0 days  0 hours  4 minutes 11.8 seconds.
 Elapsed time:       0 days  0 hours  0 minutes 34.5 seconds.
 File lengths (MBytes):  RWF=     26 Int=      0 D2E=      0 Chk=      3 Scr=      1
 Normal termination of Gaussian 16 at Sun May 25 04:30:55 2025.
 (Enter /apps/easybuild-2022/easybuild/software/Compiler/NVHPC/22.11-CUDA-11.7.0/Gaussian/g16c01-CUDA-11.7.0/g16/l1.exe)
 Link1:  Proceeding to internal job step number  2.
 ---------------------------------------------------------------------
 #P Geom=AllCheck Guess=TCheck SCRF=Check GenChk RM062X/def2TZVPP Freq
 ---------------------------------------------------------------------
 1/10=4,29=7,30=1,38=1,40=1/1,3;
 2/12=2,15=3,40=1/2;
 3/5=44,7=202,11=2,14=-4,25=1,30=1,70=2,71=2,74=-55,116=1,140=1/1,2,3;
 4/5=101/1;
 5/5=2,8=3,13=1,38=6,98=1/2,8;
 8/6=4,10=90,11=11/1;
 11/6=1,8=1,9=11,15=111,16=1,31=1/1,2,10;
 10/6=1,31=1/2;
 7/8=1,10=1,25=1,30=1/1,2,3,16;
 1/10=4,30=1/3;
 99//99;
 Leave Link    1 at Sun May 25 04:30:55 2025, MaxMem=  3758096384 cpu:               0.0 elap:               0.0
 (Enter /apps/easybuild-2022/easybuild/software/Compiler/NVHPC/22.11-CUDA-11.7.0/Gaussian/g16c01-CUDA-11.7.0/g16/l101.exe)
 Structure from the checkpoint file:  "1002122340540000000001_well.chk"
 ------------------------------
 Gaussian input prepared by ASE
 ------------------------------
 Charge =  0 Multiplicity = 1
 Redundant internal coordinates found in file.  (old form).
 F,0,-0.0796292204,1.1550279799,-1.4654997503
 S,0,0.8564025687,0.6712426603,-0.3309416708
 O,0,0.1120155398,0.7158021617,0.8578985374
 O,0,1.5031790055,-0.4847833994,-0.8170523617
 O,0,1.8544327608,1.8705912778,-0.3170721782
 H,0,2.5732603455,1.7135813197,-0.9453945764
 Recover connectivity data from disk.
 ITRead=  0  0  0  0  0  0
 MicOpt= -1 -1 -1 -1 -1 -1
 NAtoms=      6 NQM=        6 NQMF=       0 NMMI=      0 NMMIF=      0
                NMic=       0 NMicF=      0.
                    Isotopes and Nuclear Properties:
 (Nuclear quadrupole moments (NQMom) in fm**2, nuclear magnetic moments (NMagM)
  in nuclear magnetons)

  Atom         1           2           3           4           5           6
 IAtWgt=          19          32          16          16          16           1
 AtmWgt=  18.9984032  31.9720718  15.9949146  15.9949146  15.9949146   1.0078250
 NucSpn=           1           0           0           0           0           1
 AtZEff=   6.7500000  13.6000000   5.6000000   5.6000000   5.6000000   1.0000000
 NQMom=    0.0000000   0.0000000   0.0000000   0.0000000   0.0000000   0.0000000
 NMagM=    2.6288670   0.0000000   0.0000000   0.0000000   0.0000000   2.7928460
 AtZNuc=   9.0000000  16.0000000   8.0000000   8.0000000   8.0000000   1.0000000
 Leave Link  101 at Sun May 25 04:30:55 2025, MaxMem=  3758096384 cpu:               0.2 elap:               0.2
 (Enter /apps/easybuild-2022/easybuild/software/Compiler/NVHPC/22.11-CUDA-11.7.0/Gaussian/g16c01-CUDA-11.7.0/g16/l103.exe)

 GradGradGradGradGradGradGradGradGradGradGradGradGradGradGradGradGradGrad
 Berny optimization.
 Initialization pass.
                           ----------------------------
                           !    Initial Parameters    !
                           ! (Angstroms and Degrees)  !
 --------------------------                            --------------------------
 ! Name  Definition              Value          Derivative Info.                !
 --------------------------------------------------------------------------------
 ! R1    R(1,2)                  1.5484         calculate D2E/DX2 analytically  !
 ! R2    R(2,3)                  1.4034         calculate D2E/DX2 analytically  !
 ! R3    R(2,4)                  1.411          calculate D2E/DX2 analytically  !
 ! R4    R(2,5)                  1.5604         calculate D2E/DX2 analytically  !
 ! R5    R(5,6)                  0.9676         calculate D2E/DX2 analytically  !
 ! A1    A(1,2,3)              106.8672         calculate D2E/DX2 analytically  !
 ! A2    A(1,2,4)              106.2987         calculate D2E/DX2 analytically  !
 ! A3    A(1,2,5)               98.802          calculate D2E/DX2 analytically  !
 ! A4    A(3,2,4)              124.1243         calculate D2E/DX2 analytically  !
 ! A5    A(3,2,5)              107.8988         calculate D2E/DX2 analytically  !
 ! A6    A(4,2,5)              109.853          calculate D2E/DX2 analytically  !
 ! A7    A(2,5,6)              110.163          calculate D2E/DX2 analytically  !
 ! D1    D(1,2,5,6)            -88.2236         calculate D2E/DX2 analytically  !
 ! D2    D(3,2,5,6)            160.765          calculate D2E/DX2 analytically  !
 ! D3    D(4,2,5,6)             22.7443         calculate D2E/DX2 analytically  !
 --------------------------------------------------------------------------------
 Trust Radius=3.00D-01 FncErr=1.00D-07 GrdErr=1.00D-07 EigMax=2.50D+02 EigMin=1.00D-04
 Number of steps in this run=      2 maximum allowed number of steps=      2.
 GradGradGradGradGradGradGradGradGradGradGradGradGradGradGradGradGradGrad

 Leave Link  103 at Sun May 25 04:30:55 2025, MaxMem=  3758096384 cpu:               0.0 elap:               0.0
 (Enter /apps/easybuild-2022/easybuild/software/Compiler/NVHPC/22.11-CUDA-11.7.0/Gaussian/g16c01-CUDA-11.7.0/g16/l202.exe)
                          Input orientation:                          
 ---------------------------------------------------------------------
 Center     Atomic      Atomic             Coordinates (Angstroms)
 Number     Number       Type             X           Y           Z
 ---------------------------------------------------------------------
      1          9           0       -0.079629    1.155028   -1.465500
      2         16           0        0.856403    0.671243   -0.330942
      3          8           0        0.112016    0.715802    0.857899
      4          8           0        1.503179   -0.484783   -0.817052
      5          8           0        1.854433    1.870591   -0.317072
      6          1           0        2.573260    1.713581   -0.945395
 ---------------------------------------------------------------------
                    Distance matrix (angstroms):
                    1          2          3          4          5
     1  F    0.000000
     2  S    1.548362   0.000000
     3  O    2.372304   1.403367   0.000000
     4  O    2.369546   1.411035   2.486403   0.000000
     5  O    2.360405   1.560351   2.397939   2.433341   0.000000
     6  H    2.760492   2.100386   3.210164   2.448337   0.967551
                    6
     6  H    0.000000
 Symmetry turned off by external request.
 Stoichiometry    FHO3S
 Rotational constants (GHZ):           5.1216653           5.0728378           4.9937245
 Leave Link  202 at Sun May 25 04:30:55 2025, MaxMem=  3758096384 cpu:               0.0 elap:               0.0
 (Enter /apps/easybuild-2022/easybuild/software/Compiler/NVHPC/22.11-CUDA-11.7.0/Gaussian/g16c01-CUDA-11.7.0/g16/l301.exe)
 Standard basis: def2TZVPP (5D, 7F)
 Ernie: Thresh=  0.10000D-02 Tol=  0.10000D-05 Strict=F.
   180 basis functions,   290 primitive gaussians,   207 cartesian basis functions
    25 alpha electrons       25 beta electrons
       nuclear repulsion energy       292.0173802307 Hartrees.
 IExCor= 4336 DFT=T Ex+Corr=M062X ExCW=0 ScaHFX=  0.540000
 ScaDFX=  1.000000  1.000000  1.000000  1.000000 ScalE2=  1.000000  1.000000
 IRadAn=      5 IRanWt=     -1 IRanGd=            0 ICorTp=0 IEmpDi=  4
 NAtoms=    6 NActive=    6 NUniq=    6 SFac= 1.00D+00 NAtFMM=   60 NAOKFM=F Big=F
 Integral buffers will be    131072 words long.
 Raffenetti 2 integral format.
 Two-electron integral symmetry is turned off.
 Leave Link  301 at Sun May 25 04:30:55 2025, MaxMem=  3758096384 cpu:               0.0 elap:               0.0
 (Enter /apps/easybuild-2022/easybuild/software/Compiler/NVHPC/22.11-CUDA-11.7.0/Gaussian/g16c01-CUDA-11.7.0/g16/l302.exe)
 NPDir=0 NMtPBC=     1 NCelOv=     1 NCel=       1 NClECP=     1 NCelD=      1
         NCelK=      1 NCelE2=     1 NClLst=     1 CellRange=     0.0.
 One-electron integrals computed using PRISM.
   1 Symmetry operations used in ECPInt.
 ECPInt:  NShTT=    2080 NPrTT=    6796 LenC2=    2059 LenP2D=    5513.
 LDataN:  DoStor=T MaxTD1= 6 Len=  172
 NBasis=   180 RedAO= T EigKep=  9.05D-04  NBF=   180
 NBsUse=   180 1.00D-06 EigRej= -1.00D+00 NBFU=   180
 Precomputing XC quadrature grid using
 IXCGrd= 4 IRadAn=           5 IRanWt=          -1 IRanGd=           0 AccXCQ= 0.00D+00.
 Generated NRdTot=       0 NPtTot=           0 NUsed=           0 NTot=          32
 NSgBfM=   206   206   206   206   206 MxSgAt=     6 MxSgA2=     6.
 Leave Link  302 at Sun May 25 04:30:55 2025, MaxMem=  3758096384 cpu:               0.3 elap:               0.1
 (Enter /apps/easybuild-2022/easybuild/software/Compiler/NVHPC/22.11-CUDA-11.7.0/Gaussian/g16c01-CUDA-11.7.0/g16/l303.exe)
 DipDrv:  MaxL=1.
 Leave Link  303 at Sun May 25 04:30:55 2025, MaxMem=  3758096384 cpu:               0.0 elap:               0.0
 (Enter /apps/easybuild-2022/easybuild/software/Compiler/NVHPC/22.11-CUDA-11.7.0/Gaussian/g16c01-CUDA-11.7.0/g16/l401.exe)
 Initial guess from the checkpoint file:  "1002122340540000000001_well.chk"
 B after Tr=     0.000000    0.000000    0.000000
         Rot=    1.000000    0.000000    0.000000    0.000000 Ang=   0.00 deg.
 Guess basis will be translated and rotated to current coordinates.
 JPrj=2 DoOrth=T DoCkMO=T.
 Leave Link  401 at Sun May 25 04:30:55 2025, MaxMem=  3758096384 cpu:               0.1 elap:               0.1
 (Enter /apps/easybuild-2022/easybuild/software/Compiler/NVHPC/22.11-CUDA-11.7.0/Gaussian/g16c01-CUDA-11.7.0/g16/l502.exe)
 Keep R1 ints in memory in canonical form, NReq=140972698.
 FoFCou: FMM=F IPFlag=           0 FMFlag=           0 FMFlg1=           0
         NFxFlg=           0 DoJE=F BraDBF=F KetDBF=F FulRan=T
         wScrn=  0.000000 ICntrl=       600 IOpCl=  0 I1Cent=           0 NGrid=           0
         NMat0=    1 NMatS0=  16290 NMatT0=    0 NMatD0=    1 NMtDS0=    0 NMtDT0=    0
 Symmetry not used in FoFCou.
 Two-electron integral symmetry not used.
 Closed shell SCF:
 Using DIIS extrapolation, IDIIS=  1040.
 NGot=  3758096384 LenX=  3625317310 LenY=  3625274020
 Requested convergence on RMS density matrix=1.00D-08 within  32 cycles.
 Requested convergence on MAX density matrix=1.00D-06.
 Requested convergence on             energy=1.00D-06.
 No special actions if energy rises.

 Cycle   1  Pass 1  IDiag  1:
 E= -724.323417352343    
 DIIS: error= 2.73D-08 at cycle   1 NSaved=   1.
 NSaved= 1 IEnMin= 1 EnMin= -724.323417352343     IErMin= 1 ErrMin= 2.73D-08
 ErrMax= 2.73D-08  0.00D+00 EMaxC= 1.00D-01 BMatC= 2.09D-13 BMatP= 2.09D-13
 IDIUse=1 WtCom= 1.00D+00 WtEn= 0.00D+00
 Coeff-Com:  0.100D+01
 Coeff:      0.100D+01
 Gap=     0.457 Goal=   None    Shift=    0.000
 RMSDP=2.97D-09 MaxDP=1.10D-07              OVMax= 1.59D-07

 SCF Done:  E(RM062X) =  -724.323417352     A.U. after    1 cycles
            NFock=  1  Conv=0.30D-08     -V/T= 2.0024
 KE= 7.225973537754D+02 PE=-2.301560579476D+03 EE= 5.626224281179D+02
 Leave Link  502 at Sun May 25 04:30:56 2025, MaxMem=  3758096384 cpu:               5.0 elap:               0.7
 (Enter /apps/easybuild-2022/easybuild/software/Compiler/NVHPC/22.11-CUDA-11.7.0/Gaussian/g16c01-CUDA-11.7.0/g16/l508.exe)
 QCSCF skips out because SCF is already converged.
 Leave Link  508 at Sun May 25 04:30:56 2025, MaxMem=  3758096384 cpu:               0.0 elap:               0.0
 (Enter /apps/easybuild-2022/easybuild/software/Compiler/NVHPC/22.11-CUDA-11.7.0/Gaussian/g16c01-CUDA-11.7.0/g16/l801.exe)
 DoSCS=F DFT=T ScalE2(SS,OS)=  1.000000  1.000000
 Range of M.O.s used for correlation:     1   180
 NBasis=   180 NAE=    25 NBE=    25 NFC=     0 NFV=     0
 NROrb=    180 NOA=    25 NOB=    25 NVA=   155 NVB=   155

 **** Warning!!: The largest alpha MO coefficient is  0.14164160D+02

 Leave Link  801 at Sun May 25 04:30:56 2025, MaxMem=  3758096384 cpu:               0.0 elap:               0.0
 (Enter /apps/easybuild-2022/easybuild/software/Compiler/NVHPC/22.11-CUDA-11.7.0/Gaussian/g16c01-CUDA-11.7.0/g16/l1101.exe)
 Using compressed storage, NAtomX=     6.
 Will process      7 centers per pass.
   1 Symmetry operations used in ECPInt.
 ECPInt:  NShTT=    2080 NPrTT=    6796 LenC2=    2059 LenP2D=    5513.
 LDataN:  DoStor=T MaxTD1= 7 Len=  274
 Leave Link 1101 at Sun May 25 04:30:56 2025, MaxMem=  3758096384 cpu:               0.4 elap:               0.1
 (Enter /apps/easybuild-2022/easybuild/software/Compiler/NVHPC/22.11-CUDA-11.7.0/Gaussian/g16c01-CUDA-11.7.0/g16/l1102.exe)
 Symmetrizing basis deriv contribution to polar:
 IMax=3 JMax=2 DiffMx= 0.00D+00
 Leave Link 1102 at Sun May 25 04:30:56 2025, MaxMem=  3758096384 cpu:               0.0 elap:               0.0
 (Enter /apps/easybuild-2022/easybuild/software/Compiler/NVHPC/22.11-CUDA-11.7.0/Gaussian/g16c01-CUDA-11.7.0/g16/l1110.exe)
 Forming Gx(P) for the SCF density, NAtomX=     6.
 Integral derivatives from FoFJK, PRISM(SPDF).
 Do as many integral derivatives as possible in FoFJK.
 G2DrvN: MDV=    3758095630.
 G2DrvN: will do     7 centers at a time, making    1 passes.
 Calling FoFCou, ICntrl=  3107 FMM=F I1Cent=   0 AccDes= 0.00D+00.
 FoFJK:  IHMeth= 1 ICntrl=    3107 DoSepK=F KAlg= 0 I1Cent=           0 FoldK=F
 IRaf=         0 NMat=       1 IRICut=       1 DoRegI=T DoRafI=F ISym2E= 0 IDoP0=0 IntGTp=1.
 FoFCou: FMM=F IPFlag=           0 FMFlag=      100000 FMFlg1=           0
         NFxFlg=           0 DoJE=F BraDBF=F KetDBF=F FulRan=T
         wScrn=  0.000000 ICntrl=      3107 IOpCl=  0 I1Cent=           0 NGrid=           0
         NMat0=    1 NMatS0=      1 NMatT0=    0 NMatD0=    1 NMtDS0=    0 NMtDT0=    0
 Symmetry not used in FoFCou.
 End of G2Drv F.D. properties file   721 does not exist.
 End of G2Drv F.D. properties file   722 does not exist.
 End of G2Drv F.D. properties file   788 does not exist.
 Leave Link 1110 at Sun May 25 04:31:01 2025, MaxMem=  3758096384 cpu:              39.5 elap:               5.0
 (Enter /apps/easybuild-2022/easybuild/software/Compiler/NVHPC/22.11-CUDA-11.7.0/Gaussian/g16c01-CUDA-11.7.0/g16/l1002.exe)
 Minotr:  Closed shell wavefunction.
          IDoAtm=111111
          Direct CPHF calculation.
          Differentiating once with respect to electric field.
                with respect to dipole field.
          Differentiating once with respect to nuclear coordinates.
          Requested convergence is 1.0D-08 RMS, and 1.0D-07 maximum.
          Secondary convergence is 1.0D-12 RMS, and 1.0D-12 maximum.
          NewPWx=T KeepS1=F KeepF1=F KeepIn=T MapXYZ=F SortEE=F KeepMc=T.
         1782 words used for storage of precomputed grid.
 Keep R1 ints in memory in canonical form, NReq=140950614.
 FoFCou: FMM=F IPFlag=           0 FMFlag=           0 FMFlg1=           0
         NFxFlg=           0 DoJE=F BraDBF=F KetDBF=F FulRan=T
         wScrn=  0.000000 ICntrl=       600 IOpCl=  0 I1Cent=           0 NGrid=           0
[...]
 Number     Number              X              Y              Z
 -------------------------------------------------------------------
      1        9          -0.000030296    0.000010427   -0.000024874
      2       16           0.000050118   -0.000009716   -0.000020890
      3        8          -0.000029275   -0.000016497    0.000052136
      4        8           0.000016811   -0.000006966   -0.000007139
      5        8          -0.000000420    0.000009533    0.000001079
      6        1          -0.000006939    0.000013219   -0.000000313
 -------------------------------------------------------------------
 Cartesian Forces:  Max     0.000052136 RMS     0.000022648
 Force constants in Cartesian coordinates: 
                1             2             3             4             5 
      1  0.174953D+00
      2 -0.584674D-01  0.863170D-01
      3  0.133147D+00 -0.635091D-01  0.220755D+00
      4 -0.150622D+00  0.454473D-01 -0.879565D-01  0.859488D+00
      5  0.474409D-01 -0.956914D-01  0.517330D-01 -0.173608D+00  0.929137D+00
      6 -0.926771D-01  0.505117D-01 -0.193493D+00 -0.349980D+00  0.149231D+00
      7  0.139060D-01  0.388977D-02 -0.222242D-01 -0.280946D+00  0.158407D-01
      8 -0.233212D-02  0.131671D-01  0.166006D-01  0.197039D-01 -0.101900D+00
      9  0.984267D-02  0.467855D-02 -0.378133D-01  0.299196D+00 -0.232307D-01
     10 -0.103482D-01  0.317274D-01 -0.272348D-02 -0.229016D+00  0.227970D+00
     11  0.195242D-01 -0.103112D-01 -0.164009D-02  0.229613D+00 -0.516273D+00
     12 -0.208463D-01  0.237710D-01  0.105458D-01  0.108892D+00 -0.179241D+00
     13 -0.291749D-01 -0.226736D-01 -0.184907D-01 -0.169127D+00 -0.111047D+00
     14 -0.642760D-02  0.801212D-02 -0.215386D-02 -0.876231D-01 -0.219966D+00
     15 -0.253420D-01 -0.142889D-01  0.463259D-02  0.248433D-01 -0.229480D-02
     16  0.128608D-02  0.765121D-04 -0.175193D-02 -0.297757D-01 -0.659697D-02
     17  0.261978D-03 -0.149374D-02 -0.103061D-02 -0.335332D-01  0.469382D-02
     18 -0.412407D-02 -0.116325D-02 -0.462727D-02  0.500433D-02  0.380321D-02
                6             7             8             9            10 
      6  0.102640D+01
      7  0.301977D+00  0.278554D+00
      8 -0.282291D-01 -0.103364D-01  0.770071D-01
      9 -0.565539D+00 -0.330969D+00  0.154515D-01  0.602915D+00
     10  0.106926D+00  0.632798D-02  0.233862D-01  0.123908D-01  0.215803D+00
     11 -0.177067D+00  0.196539D-02  0.927060D-02  0.339591D-02 -0.261730D+00
     12 -0.178185D+00  0.214007D-01 -0.301069D-01 -0.629407D-03 -0.108381D+00
     13  0.121827D-01 -0.207908D-01 -0.288717D-01  0.114766D-01  0.150178D-01
     14 -0.189805D-01 -0.568166D-02  0.765054D-02 -0.219592D-02 -0.265876D-01
     15 -0.909036D-01  0.301017D-01  0.269052D-01 -0.242839D-02 -0.583566D-02
     16  0.215707D-01  0.294900D-02 -0.154987D-02 -0.193747D-02  0.221505D-02
     17  0.245341D-01 -0.567772D-02 -0.519518D-02  0.190074D-02  0.523428D-02
     18  0.172246D-02 -0.286243D-03 -0.621230D-03  0.349518D-02 -0.237642D-02
               11            12            13            14            15 
     11  0.554539D+00
     12  0.193881D+00  0.154162D+00
     13  0.347628D-02  0.304718D-03  0.488032D+00
     14 -0.364564D-01 -0.541319D-02  0.855875D-01  0.283744D+00
     15 -0.143868D-01  0.160433D-01 -0.254275D+00  0.832925D-01  0.292302D+00
     16  0.715124D-02 -0.136965D-02 -0.283957D+00  0.407324D-01  0.230508D+00
     17 -0.768576D-03 -0.289098D-02  0.735280D-01 -0.429844D-01 -0.792271D-01
     18 -0.418362D-02 -0.193634D-02  0.248802D+00 -0.545490D-01 -0.219646D+00
               16            17            18 
     16  0.307282D+00
     17 -0.398133D-01  0.457481D-01
     18 -0.247019D+00  0.567139D-01  0.220992D+00
 FormGI is forming the generalized inverse of G from B-inverse, IUseBI=4.
 Force constants in internal coordinates: 
                1             2             3             4             5 
      1  0.360112D+00
      2  0.146509D-01  0.809713D+00
      3  0.154119D-01  0.628174D-02  0.776128D+00
      4  0.220765D-01  0.149934D-01  0.179126D-01  0.394129D+00
      5 -0.322978D-02 -0.521486D-02 -0.587807D-02  0.583680D-02  0.523923D+00
      6  0.164585D-01  0.145270D-01 -0.117362D-01 -0.225480D-01  0.346136D-02
      7  0.184966D-01 -0.107202D-01  0.134347D-01 -0.254607D-01  0.357103D-02
      8  0.287570D-01 -0.121552D-01 -0.139647D-01  0.367809D-01 -0.504430D-02
      9 -0.121185D-01  0.845155D-02  0.437334D-02 -0.282449D-01  0.531510D-02
     10 -0.183631D-01  0.178024D-01 -0.237014D-01  0.352794D-01  0.288601D-02
     11 -0.204450D-01 -0.222830D-01  0.268892D-01  0.156001D-01 -0.119557D-01
     12  0.311907D-02  0.622678D-02  0.461884D-02  0.506178D-01  0.241667D-01
     13 -0.342742D-02  0.141560D-01 -0.129138D-01  0.272161D-02  0.930390D-03
     14 -0.277048D-01 -0.191321D-02  0.124136D-01  0.216057D-02 -0.163444D-02
     15  0.236337D-01 -0.989858D-02  0.389408D-02 -0.428391D-02 -0.100724D-02
                6             7             8             9            10 
      6  0.173714D+00
      7  0.673345D-02  0.173981D+00
      8 -0.800558D-01 -0.837258D-01  0.306533D+00
      9  0.178428D-01  0.188230D-01 -0.565862D-01  0.173607D+00
     10 -0.650195D-01 -0.622572D-01 -0.386508D-02 -0.968693D-01  0.271170D+00
     11 -0.639841D-01 -0.677161D-01  0.143019D-02 -0.984544D-01 -0.381810D-01
     12  0.120742D-02 -0.552345D-02  0.427708D-02 -0.205098D-03  0.283241D-01
     13  0.603270D-01 -0.581427D-01 -0.459287D-02  0.650938D-03  0.334797D-01
     14 -0.777334D-01 -0.134867D-01 -0.404849D-01  0.322275D-01  0.273074D-01
     15  0.126039D-01  0.763123D-01  0.399713D-01 -0.337209D-01 -0.487057D-01
               11            12            13            14            15 
     11  0.273441D+00
     12 -0.271259D-01  0.154756D+00
     13 -0.321904D-01  0.673840D-02  0.507065D-01
     14  0.480497D-01 -0.452380D-02 -0.229017D-01  0.703346D-01
     15 -0.232576D-01 -0.571359D-02 -0.254311D-01 -0.412562D-01  0.697117D-01
 Leave Link  716 at Sun May 25 04:31:23 2025, MaxMem=  3758096384 cpu:               0.0 elap:               0.0
 (Enter /apps/easybuild-2022/easybuild/software/Compiler/NVHPC/22.11-CUDA-11.7.0/Gaussian/g16c01-CUDA-11.7.0/g16/l103.exe)

 GradGradGradGradGradGradGradGradGradGradGradGradGradGradGradGradGradGrad
 Berny optimization.
 Red2BG is reusing G-inverse.
 Internal  Forces:  Max     0.000061085 RMS     0.000019710
 Search for a local minimum.
 Step number   1 out of a maximum of    2
 All quantities printed in internal units (Hartrees-Bohrs-Radians)
 Second derivative matrix not updated -- analytic derivatives used.
 The second derivative matrix:
                          R1        R2        R3        R4        R5
           R1           0.36011
           R2           0.01465   0.80971
           R3           0.01541   0.00628   0.77613
           R4           0.02208   0.01499   0.01791   0.39413
           R5          -0.00323  -0.00521  -0.00588   0.00584   0.52392
           A1           0.01646   0.01453  -0.01174  -0.02255   0.00346
           A2           0.01850  -0.01072   0.01343  -0.02546   0.00357
           A3           0.02876  -0.01216  -0.01396   0.03678  -0.00504
           A4          -0.01212   0.00845   0.00437  -0.02824   0.00532
           A5          -0.01836   0.01780  -0.02370   0.03528   0.00289
           A6          -0.02045  -0.02228   0.02689   0.01560  -0.01196
           A7           0.00312   0.00623   0.00462   0.05062   0.02417
           D1          -0.00343   0.01416  -0.01291   0.00272   0.00093
           D2          -0.02770  -0.00191   0.01241   0.00216  -0.00163
           D3           0.02363  -0.00990   0.00389  -0.00428  -0.00101
                          A1        A2        A3        A4        A5
           A1           0.17371
           A2           0.00673   0.17398
           A3          -0.08006  -0.08373   0.30653
           A4           0.01784   0.01882  -0.05659   0.17361
           A5          -0.06502  -0.06226  -0.00387  -0.09687   0.27117
           A6          -0.06398  -0.06772   0.00143  -0.09845  -0.03818
           A7           0.00121  -0.00552   0.00428  -0.00021   0.02832
           D1           0.06033  -0.05814  -0.00459   0.00065   0.03348
           D2          -0.07773  -0.01349  -0.04048   0.03223   0.02731
           D3           0.01260   0.07631   0.03997  -0.03372  -0.04871
                          A6        A7        D1        D2        D3
           A6           0.27344
           A7          -0.02713   0.15476
           D1          -0.03219   0.00674   0.05071
           D2           0.04805  -0.00452  -0.02290   0.07033
           D3          -0.02326  -0.00571  -0.02543  -0.04126   0.06971
 ITU=  0
     Eigenvalues ---    0.00341   0.13574   0.21044   0.22844   0.28944
     Eigenvalues ---    0.31275   0.35772   0.41164   0.50795   0.52803
     Eigenvalues ---    0.78144   0.81496
 Angle between quadratic step and forces=  52.45 degrees.
 Linear search not attempted -- first point.
 Iteration  1 RMS(Cart)=  0.00004907 RMS(Int)=  0.00000000
 Iteration  2 RMS(Cart)=  0.00000000 RMS(Int)=  0.00000000
 ITry= 1 IFail=0 DXMaxC= 8.08D-05 DCOld= 1.00D+10 DXMaxT= 3.00D-01 DXLimC= 3.00D+00 Rises=F
 Variable       Old X    -DE/DX   Delta X   Delta X   Delta X     New X
                                 (Linear)    (Quad)   (Total)
    R1        2.92598   0.00004   0.00000   0.00012   0.00012   2.92610
    R2        2.65198   0.00006   0.00000   0.00007   0.00007   2.65205
    R3        2.66647   0.00001   0.00000   0.00001   0.00001   2.66648
    R4        2.94864   0.00001   0.00000   0.00001   0.00001   2.94864
    R5        1.82841   0.00000   0.00000   0.00000   0.00000   1.82841
    A1        1.86518  -0.00000   0.00000  -0.00002  -0.00002   1.86517
    A2        1.85526   0.00001   0.00000   0.00002   0.00002   1.85528
    A3        1.72442  -0.00000   0.00000  -0.00001  -0.00001   1.72441
    A4        2.16638  -0.00001   0.00000  -0.00002  -0.00002   2.16636
    A5        1.88319   0.00001   0.00000   0.00002   0.00002   1.88321
    A6        1.91730  -0.00000   0.00000   0.00000   0.00000   1.91730
    A7        1.92271  -0.00000   0.00000  -0.00001  -0.00001   1.92270
    D1       -1.53979  -0.00000   0.00000   0.00008   0.00008  -1.53971
    D2        2.80588  -0.00000   0.00000   0.00010   0.00010   2.80598
    D3        0.39696   0.00000   0.00000   0.00010   0.00010   0.39706
         Item               Value     Threshold  Converged?
 Maximum Force            0.000061     0.000450     YES
 RMS     Force            0.000020     0.000300     YES
 Maximum Displacement     0.000081     0.001800     YES
 RMS     Displacement     0.000049     0.001200     YES
 Predicted change in Energy=-5.047405D-09
 Optimization completed.
    -- Stationary point found.
                           ----------------------------
                           !   Optimized Parameters   !
                           ! (Angstroms and Degrees)  !
 --------------------------                            --------------------------
 ! Name  Definition              Value          Derivative Info.                !
 --------------------------------------------------------------------------------
 ! R1    R(1,2)                  1.5484         -DE/DX =    0.0                 !
 ! R2    R(2,3)                  1.4034         -DE/DX =    0.0001              !
 ! R3    R(2,4)                  1.411          -DE/DX =    0.0                 !
 ! R4    R(2,5)                  1.5604         -DE/DX =    0.0                 !
 ! R5    R(5,6)                  0.9676         -DE/DX =    0.0                 !
 ! A1    A(1,2,3)              106.8672         -DE/DX =    0.0                 !
 ! A2    A(1,2,4)              106.2987         -DE/DX =    0.0                 !
 ! A3    A(1,2,5)               98.802          -DE/DX =    0.0                 !
 ! A4    A(3,2,4)              124.1243         -DE/DX =    0.0                 !
 ! A5    A(3,2,5)              107.8988         -DE/DX =    0.0                 !
 ! A6    A(4,2,5)              109.853          -DE/DX =    0.0                 !
 ! A7    A(2,5,6)              110.163          -DE/DX =    0.0                 !
 ! D1    D(1,2,5,6)            -88.2236         -DE/DX =    0.0                 !
 ! D2    D(3,2,5,6)            160.765          -DE/DX =    0.0                 !
 ! D3    D(4,2,5,6)             22.7443         -DE/DX =    0.0                 !
 --------------------------------------------------------------------------------
 GradGradGradGradGradGradGradGradGradGradGradGradGradGradGradGradGradGrad

 Leave Link  103 at Sun May 25 04:31:23 2025, MaxMem=  3758096384 cpu:               0.0 elap:               0.0
 (Enter /apps/easybuild-2022/easybuild/software/Compiler/NVHPC/22.11-CUDA-11.7.0/Gaussian/g16c01-CUDA-11.7.0/g16/l9999.exe)

 ----------------------------------------------------------------------

 Electric dipole moment (input orientation):
 (Debye = 10**-18 statcoulomb cm , SI units = C m)
                  (au)            (Debye)         (10**-30 SI)
   Tot        0.119003D+01      0.302474D+01      0.100895D+02
   x          0.799947D+00      0.203326D+01      0.678223D+01
   y          0.604791D+00      0.153722D+01      0.512763D+01
   z         -0.640684D+00     -0.162846D+01     -0.543194D+01

 Dipole polarizability, Alpha (input orientation).
 (esu units = cm**3 , SI units = C**2 m**2 J**-1)
 Alpha(0;0):
               (au)            (10**-24 esu)      (10**-40 SI)
   iso        0.273702D+02      0.405585D+01      0.451274D+01
   aniso      0.551021D+01      0.816529D+00      0.908511D+00
   xx         0.277341D+02      0.410977D+01      0.457273D+01
   yx         0.306045D-01      0.453512D-02      0.504600D-02
   yy         0.272331D+02      0.403552D+01      0.449012D+01
   zx        -0.304481D+01     -0.451195D+00     -0.502022D+00
   zy         0.864671D+00      0.128131D+00      0.142565D+00
   zz         0.271435D+02      0.402225D+01      0.447536D+01

 ----------------------------------------------------------------------

 Dipole orientation:
     9         -2.45259989         -0.44219278          2.49910421
    16          0.44092504         -0.37827358          2.06923130
     8          0.93889633         -1.90247475         -0.04307275
     8          1.17177744          2.17779981          2.27515285
     8          1.28726484         -1.85868780          4.47475242
     1          1.51439162         -0.70670522          5.87632908

 Electric dipole moment (dipole orientation):
 (Debye = 10**-18 statcoulomb cm , SI units = C m)
                  (au)            (Debye)         (10**-30 SI)
   Tot        0.119003D+01      0.302474D+01      0.100895D+02
   x          0.000000D+00      0.000000D+00      0.000000D+00
   y          0.000000D+00      0.000000D+00      0.000000D+00
   z          0.119003D+01      0.302474D+01      0.100895D+02

 Dipole polarizability, Alpha (dipole orientation).
 (esu units = cm**3 , SI units = C**2 m**2 J**-1)
 Alpha(0;0):
               (au)            (10**-24 esu)      (10**-40 SI)
   iso        0.273702D+02      0.405585D+01      0.451274D+01
   aniso      0.551021D+01      0.816529D+00      0.908511D+00
   xx         0.242836D+02      0.359846D+01      0.400383D+01
   yx         0.341991D+00      0.506779D-01      0.563867D-01
   yy         0.286419D+02      0.424429D+01      0.472241D+01
   zx         0.457387D+00      0.677778D-01      0.754129D-01
   zy         0.160488D+01      0.237819D+00      0.264610D+00
   zz         0.291851D+02      0.432478D+01      0.481197D+01

 ----------------------------------------------------------------------
 Unable to Open any file for archive entry.
 1\1\GINC-SPARTAN-BM187\Freq\RM062X\def2TZVPP\F1H1O3S1\AKHALILOV\25-May
 -2025\0\\#P Geom=AllCheck Guess=TCheck SCRF=Check GenChk RM062X/def2TZ
 VPP Freq\\Gaussian input prepared by ASE\\0,1\F,-0.0796292204,1.155027
 9799,-1.4654997503\S,0.8564025687,0.6712426603,-0.3309416708\O,0.11201
 55398,0.7158021617,0.8578985374\O,1.5031790055,-0.4847833994,-0.817052
 3617\O,1.8544327608,1.8705912778,-0.3170721782\H,2.5732603455,1.713581
 3197,-0.9453945764\\Version=ES64L-G16RevC.01\HF=-724.3234174\RMSD=2.96
 7e-09\RMSF=2.265e-05\ZeroPoint=0.0281811\Thermal=0.0327673\ETot=-724.2
 906501\HTot=-724.2897059\GTot=-724.3231564\Dipole=0.7999469,0.6047908,
 -0.6406836\DipoleDeriv=-0.6821865,0.1495216,-0.349539,0.1941721,-0.419
 1122,0.2086927,-0.3963532,0.1730579,-0.8113643,2.5995629,0.0189441,-0.
 101736,0.0633865,2.578874,-0.0506855,-0.0483196,-0.0034983,2.5055995,-
 0.7169118,-0.0064939,0.2850296,0.0410253,-0.5769053,-0.0610728,0.23996
 53,0.0078319,-0.9039146,-0.695881,0.2056082,0.1194275,0.1294747,-0.980
 9975,-0.1122871,0.1353323,-0.221149,-0.6464273,-0.9285117,-0.4307496,0
 .0531371,-0.4394969,-0.9101295,0.0554151,0.1039651,0.1202854,-0.471911
 8,0.4239281,0.0631695,-0.0063193,0.0114383,0.3082704,-0.0400623,-0.034
 5898,-0.0765279,0.3280184\Polar=27.7340928,0.0306045,27.233053,-3.0448
 148,0.8646711,27.1435091\PG=Unknown\NImag=0\\0.17495332,-0.05846738,0.
 08631705,0.13314678,-0.06350908,0.22075494,-0.15062230,0.04544731,-0.0
 8795646,0.85948762,0.04744094,-0.09569137,0.05173300,-0.17360816,0.929
 13733,-0.09267709,0.05051166,-0.19349276,-0.34997970,0.14923067,1.0263
 9768,0.01390595,0.00388977,-0.02222417,-0.28094619,0.01584067,0.301977
 13,0.27855406,-0.00233212,0.01316710,0.01660064,0.01970388,-0.10190016
 ,-0.02822915,-0.01033644,0.07700710,0.00984267,0.00467855,-0.03781329,
 0.29919646,-0.02323074,-0.56553888,-0.33096903,0.01545145,0.60291479,-
 0.01034818,0.03172738,-0.00272348,-0.22901591,0.22797010,0.10692626,0.
 00632798,0.02338623,0.01239079,0.21580324,0.01952419,-0.01031116,-0.00
 164009,0.22961331,-0.51627333,-0.17706675,0.00196539,0.00927060,0.0033
 9591,-0.26173041,0.55453882,-0.02084628,0.02377105,0.01054579,0.108892
 03,-0.17924133,-0.17818487,0.02140066,-0.03010688,-0.00062941,-0.10838
 149,0.19388132,0.15416154,-0.02917487,-0.02267359,-0.01849074,-0.16912
 748,-0.11104659,0.01218274,-0.02079079,-0.02887167,0.01147657,0.015017
 83,0.00347628,0.00030472,0.48803195,-0.00642760,0.00801212,-0.00215386
 ,-0.08762310,-0.21996629,-0.01898052,-0.00568166,0.00765054,-0.0021959
 2,-0.02658758,-0.03645635,-0.00541319,0.08558752,0.28374440,-0.0253420
 1,-0.01428893,0.00463259,0.02484334,-0.00229480,-0.09090363,0.03010165
 ,0.02690516,-0.00242839,-0.00583566,-0.01438678,0.01604329,-0.25427482
 ,0.08329246,0.29230246,0.00128608,0.00007651,-0.00175193,-0.02977574,-
 0.00659697,0.02157067,0.00294900,-0.00154987,-0.00193747,0.00221505,0.
 00715124,-0.00136965,-0.28395664,0.04073243,0.23050751,0.30728224,0.00
 026198,-0.00149374,-0.00103061,-0.03353323,0.00469382,0.02453409,-0.00
 567772,-0.00519518,0.00190074,0.00523428,-0.00076858,-0.00289098,0.073
 52805,-0.04298442,-0.07922710,-0.03981335,0.04574810,-0.00412407,-0.00
 116325,-0.00462727,0.00500433,0.00380321,0.00172246,-0.00028624,-0.000
 62123,0.00349518,-0.00237642,-0.00418362,-0.00193634,0.24880154,-0.054
 54897,-0.21964632,-0.24701914,0.05671386,0.22099229\\0.00003030,-0.000
 01043,0.00002487,-0.00005012,0.00000972,0.00002089,0.00002927,0.000016
 50,-0.00005214,-0.00001681,0.00000697,0.00000714,0.00000042,-0.0000095
 3,-0.00000108,0.00000694,-0.00001322,0.00000031\\\@
 The archive entry for this job was punched.


 CHARLIE BROWN -- WHICH DO YOU THINK LASTS LONGER IN LIFE, THE GOOD THINGS 
                  OR THE BAD THINGS?
 LINUS --         GOOD THINGS LAST EIGHT SECONDS ..
                  BAD THINGS LAST THREE WEEKS
 CHARLIE BROWN -- WHAT ABOUT IN BETWEEN?
 SNOOPY --        IN BETWEEN YOU SHOULD TAKE A NAP ...
 Job cpu time:       0 days  0 hours  3 minutes 42.0 seconds.
 Elapsed time:       0 days  0 hours  0 minutes 28.7 seconds.
 File lengths (MBytes):  RWF=     26 Int=      0 D2E=      0 Chk=      3 Scr=      1
 Normal termination of Gaussian 16 at Sun May 25 04:31:23 2025.
done
