 Entering Gaussian System, Link 0=g16
 Initial command:
 /apps/easybuild-2022/easybuild/software/Compiler/NVHPC/22.11-CUDA-11.7.0/Gaussian/g16c01-CUDA-11.7.0/g16/l1.exe "/tmp/Gau-164346.inp" -scrdir="/tmp/"
 Entering Link 1 = /apps/easybuild-2022/easybuild/software/Compiler/NVHPC/22.11-CUDA-11.7.0/Gaussian/g16c01-CUDA-11.7.0/g16/l1.exe PID=    164350.
  
 Copyright (c) 1988-2019, Gaussian, Inc.  All Rights Reserved.
  
 This is part of the Gaussian(R) 16 program.  It is based on
 the Gaussian(R) 09 system (copyright 2009, Gaussian, Inc.),
 the Gaussian(R) 03 system (copyright 2003, Gaussian, Inc.),
 the Gaussian(R) 98 system (copyright 1998, Gaussian, Inc.),
 the Gaussian(R) 94 system (copyright 1995, Gaussian, Inc.),
 the Gaussian 92(TM) system (copyright 1992, Gaussian, Inc.),
 the Gaussian 90(TM) system (copyright 1990, Gaussian, Inc.),
 the Gaussian 88(TM) system (copyright 1988, Gaussian, Inc.),
 the Gaussian 86(TM) system (copyright 1986, Carnegie Mellon
 University), and the Gaussian 82(TM) system (copyright 1983,
 Carnegie Mellon University). Gaussian is a federally registered
 trademark of Gaussian, Inc.
  
 This software contains proprietary and confidential information,
 including trade secrets, belonging to Gaussian, Inc.
  
 This software is provided under written license and may be
 used, copied, transmitted, or stored only in accord with that
 written license.
  
 The following legend is applicable only to US Government
 contracts under FAR:
  
                    RESTRICTED RIGHTS LEGEND
  
 Use, reproduction and disclosure by the US Government is
 subject to restrictions as set forth in subparagraphs (a)
 and (c) of the Commercial Computer Software - Restricted
 Rights clause in FAR 52.227-19.
  
 Gaussian, Inc.
 340 Quinnipiac St., Bldg. 40, Wallingford CT 06492
  
  
 ---------------------------------------------------------------
 Warning -- This program may not be used in any manner that
 competes with the business of Gaussian, Inc. or will provide
 assistance to any competitor of Gaussian, Inc.  The licensee
 of this program is prohibited from giving any competitor of
 Gaussian, Inc. access to this program.  By using this program,
 the user acknowledges that Gaussian, Inc. is engaged in the
 business of creating and licensing software in the field of
 computational chemistry and represents and warrants to the
 licensee that it is not a competitor of Gaussian, Inc. and that
 it will not use this program in any manner prohibited above.
 ---------------------------------------------------------------
  

 Cite this work as:
 Gaussian 16, Revision C.01,
 M. J. Frisch, G. W. Trucks, H. B. Schlegel, G. E. Scuseria, 
 M. A. Robb, J. R. Cheeseman, G. Scalmani, V. Barone, 
 G. A. Petersson, H. Nakatsuji, X. Li, M. Caricato, A. V. Marenich, 
 J. Bloino, B. G. Janesko, R. Gomperts, B. Mennucci, H. P. Hratchian, 
 J. V. Ortiz, A. F. Izmaylov, J. L. Sonnenberg, D. Williams-Young, 
 F. Ding, F. Lipparini, F. Egidi, J. Goings, B. Peng, A. Petrone, 
 T. Henderson, D. Ranasinghe, V. G. Zakrzewski, J. Gao, N. Rega, 
 G. Zheng, W. Liang, M. Hada, M. Ehara, K. Toyota, R. Fukuda, 
 J. Hasegawa, M. Ishida, T. Nakajima, Y. Honda, O. Kitao, H. Nakai, 
 T. Vreven, K. Throssell, J. A. Montgomery, Jr., J. E. Peralta, 
 F. Ogliaro, M. J. Bearpark, J. J. Heyd, E. N. Brothers, K. N. Kudin, 
 V. N. Staroverov, T. A. Keith, R. Kobayashi, J. Normand, 
 K. Raghavachari, A. P. Rendell, J. C. Burant, S. S. Iyengar, 
 J. Tomasi, M. Cossi, J. M. Millam, M. Klene, C. Adamo, R. Cammi, 
 J. W. Ochterski, R. L. Martin, K. Morokuma, O. Farkas, 
 J. B. Foresman, and D. J. Fox, Gaussian, Inc., Wallingford CT, 2019.
 
 ******************************************
 Gaussian 16:  ES64L-G16RevC.01  3-Jul-2019
                25-May-2025 
 ******************************************
 %mem=28GB
 %chk=1332333552100000000002_well
 %nprocshared=8
 Will use up to    8 processors via shared memory.
 -----------------------------------------------------------------
 #P M062X/Def2TZVPP Symm(None) scf(xqc) pop(None) freq opt(CalcFC)
 -----------------------------------------------------------------
 1/10=4,18=20,19=15,26=3,38=1/1,3;
 2/9=110,12=2,15=3,17=6,18=5,40=1/2;
 3/5=44,7=202,11=2,25=1,30=1,71=2,74=-55,140=1/1,2,3;
 4//1;
 5/5=2,8=3,13=1,38=5/2,8;
 8/6=4,10=90,11=11/1;
 11/6=1,8=1,9=11,15=111,16=1,31=1/1,2,10;
 10/6=1,13=1,31=1/2;
 7/10=1,25=1,30=1/1,2,3,16;
 1/10=4,18=20,19=15,26=3/3(2);
 2/9=110,15=3/2;
 99//99;
 2/9=110,15=3/2;
 3/5=44,7=202,11=2,25=1,30=1,71=1,74=-55/1,2,3;
 4/5=5,16=3,69=1/1;
 5/5=2,8=3,13=1,38=5/2,8;
 7/30=1/1,2,3,16;
 1/18=20,19=15,26=3/3(-5);
 2/9=110,15=3/2;
 99/9=1/99;
 Leave Link    1 at Sun May 25 03:22:02 2025, MaxMem=  3758096384 cpu:               0.0 elap:               0.0
 (Enter /apps/easybuild-2022/easybuild/software/Compiler/NVHPC/22.11-CUDA-11.7.0/Gaussian/g16c01-CUDA-11.7.0/g16/l101.exe)
 ------------------------------
 Gaussian input prepared by ASE
 ------------------------------
 Symbolic Z-matrix:
 Charge =  0 Multiplicity = 2
 C                    -0.06931  -0.06028   0.06302 
 F                    -0.57094   0.61859  -0.95996 
 F                    -0.54418   0.43635   1.1886 
 F                    -0.411    -1.32967  -0.04256 
 S                     1.76608   0.06697   0.03233 
 O                     2.2417   -0.46416   1.25031 
 O                     2.1856   -0.38699  -1.2449 
 
 ITRead=  0  0  0  0  0  0  0
 MicOpt= -1 -1 -1 -1 -1 -1 -1
 NAtoms=      7 NQM=        7 NQMF=       0 NMMI=      0 NMMIF=      0
                NMic=       0 NMicF=      0.
                    Isotopes and Nuclear Properties:
 (Nuclear quadrupole moments (NQMom) in fm**2, nuclear magnetic moments (NMagM)
  in nuclear magnetons)

  Atom         1           2           3           4           5           6           7
 IAtWgt=          12          19          19          19          32          16          16
 AtmWgt=  12.0000000  18.9984032  18.9984032  18.9984032  31.9720718  15.9949146  15.9949146
 NucSpn=           0           1           1           1           0           0           0
 AtZEff=  -0.0000000  -0.0000000  -0.0000000  -0.0000000  -0.0000000  -0.0000000  -0.0000000
 NQMom=    0.0000000   0.0000000   0.0000000   0.0000000   0.0000000   0.0000000   0.0000000
 NMagM=    0.0000000   2.6288670   2.6288670   2.6288670   0.0000000   0.0000000   0.0000000
 AtZNuc=   6.0000000   9.0000000   9.0000000   9.0000000  16.0000000   8.0000000   8.0000000
 Leave Link  101 at Sun May 25 03:22:02 2025, MaxMem=  3758096384 cpu:               0.2 elap:               0.2
 (Enter /apps/easybuild-2022/easybuild/software/Compiler/NVHPC/22.11-CUDA-11.7.0/Gaussian/g16c01-CUDA-11.7.0/g16/l103.exe)

 GradGradGradGradGradGradGradGradGradGradGradGradGradGradGradGradGradGrad
 Berny optimization.
 Initialization pass.
                           ----------------------------
                           !    Initial Parameters    !
                           ! (Angstroms and Degrees)  !
 --------------------------                            --------------------------
 ! Name  Definition              Value          Derivative Info.                !
 --------------------------------------------------------------------------------
 ! R1    R(1,2)                  1.3263         calculate D2E/DX2 analytically  !
 ! R2    R(1,3)                  1.3187         calculate D2E/DX2 analytically  !
 ! R3    R(1,4)                  1.3188         calculate D2E/DX2 analytically  !
 ! R4    R(1,5)                  1.8401         calculate D2E/DX2 analytically  !
 ! R5    R(5,6)                  1.4113         calculate D2E/DX2 analytically  !
 ! R6    R(5,7)                  1.4189         calculate D2E/DX2 analytically  !
 ! A1    A(2,1,3)              109.2314         calculate D2E/DX2 analytically  !
 ! A2    A(2,1,4)              109.4474         calculate D2E/DX2 analytically  !
 ! A3    A(2,1,5)              109.2084         calculate D2E/DX2 analytically  !
 ! A4    A(3,1,4)              109.7254         calculate D2E/DX2 analytically  !
 ! A5    A(3,1,5)              110.3272         calculate D2E/DX2 analytically  !
 ! A6    A(4,1,5)              108.8843         calculate D2E/DX2 analytically  !
 ! A7    A(1,5,6)              107.2011         calculate D2E/DX2 analytically  !
 ! A8    A(1,5,7)              106.7264         calculate D2E/DX2 analytically  !
 ! A9    A(6,5,7)              123.8341         calculate D2E/DX2 analytically  !
 ! D1    D(2,1,5,6)            170.0297         calculate D2E/DX2 analytically  !
 ! D2    D(2,1,5,7)            -55.4114         calculate D2E/DX2 analytically  !
 ! D3    D(3,1,5,6)             49.9613         calculate D2E/DX2 analytically  !
 ! D4    D(3,1,5,7)           -175.4798         calculate D2E/DX2 analytically  !
 ! D5    D(4,1,5,6)            -70.5111         calculate D2E/DX2 analytically  !
 ! D6    D(4,1,5,7)             64.0478         calculate D2E/DX2 analytically  !
 --------------------------------------------------------------------------------
 Trust Radius=3.00D-01 FncErr=1.00D-07 GrdErr=1.00D-06 EigMax=2.50D+02 EigMin=1.00D-04
 Number of steps in this run=     31 maximum allowed number of steps=    100.
 GradGradGradGradGradGradGradGradGradGradGradGradGradGradGradGradGradGrad

 Leave Link  103 at Sun May 25 03:22:02 2025, MaxMem=  3758096384 cpu:               0.0 elap:               0.0
 (Enter /apps/easybuild-2022/easybuild/software/Compiler/NVHPC/22.11-CUDA-11.7.0/Gaussian/g16c01-CUDA-11.7.0/g16/l202.exe)
                          Input orientation:                          
 ---------------------------------------------------------------------
 Center     Atomic      Atomic             Coordinates (Angstroms)
 Number     Number       Type             X           Y           Z
 ---------------------------------------------------------------------
      1          6           0       -0.069311   -0.060278    0.063021
      2          9           0       -0.570942    0.618588   -0.959963
      3          9           0       -0.544184    0.436346    1.188595
      4          9           0       -0.410996   -1.329667   -0.042555
      5         16           0        1.766083    0.066968    0.032326
      6          8           0        2.241697   -0.464158    1.250313
      7          8           0        2.185604   -0.386988   -1.244897
 ---------------------------------------------------------------------
                    Distance matrix (angstroms):
                    1          2          3          4          5
     1  C    0.000000
     2  F    1.326269   0.000000
     3  F    1.318733   2.156439   0.000000
     4  F    1.318804   2.159379   2.156912   0.000000
     5  S    1.840056   2.598193   2.609738   2.587638   0.000000
     6  O    2.629361   3.737459   2.928455   3.075288   1.411310
     7  O    2.627172   2.948036   3.748534   3.012740   1.418934
                    6          7
     6  O    0.000000
     7  O    2.497033   0.000000
 Symmetry turned off by external request.
 Stoichiometry    CF3O2S
 Rotational constants (GHZ):           3.5879382           2.0346134           1.7097049
 Leave Link  202 at Sun May 25 03:22:02 2025, MaxMem=  3758096384 cpu:               0.0 elap:               0.0
 (Enter /apps/easybuild-2022/easybuild/software/Compiler/NVHPC/22.11-CUDA-11.7.0/Gaussian/g16c01-CUDA-11.7.0/g16/l301.exe)
 Standard basis: def2TZVPP (5D, 7F)
 Ernie: Thresh=  0.10000D-02 Tol=  0.10000D-05 Strict=F.
   228 basis functions,   375 primitive gaussians,   264 cartesian basis functions
    33 alpha electrons       32 beta electrons
       nuclear repulsion energy       440.0174602860 Hartrees.
 IExCor= 4336 DFT=T Ex+Corr=M062X ExCW=0 ScaHFX=  0.540000
 ScaDFX=  1.000000  1.000000  1.000000  1.000000 ScalE2=  1.000000  1.000000
 IRadAn=      5 IRanWt=     -1 IRanGd=            0 ICorTp=0 IEmpDi=  4
 NAtoms=    7 NActive=    7 NUniq=    7 SFac= 1.00D+00 NAtFMM=   60 NAOKFM=F Big=F
 Integral buffers will be    131072 words long.
 Raffenetti 2 integral format.
 Two-electron integral symmetry is turned off.
 Leave Link  301 at Sun May 25 03:22:02 2025, MaxMem=  3758096384 cpu:               0.0 elap:               0.0
 (Enter /apps/easybuild-2022/easybuild/software/Compiler/NVHPC/22.11-CUDA-11.7.0/Gaussian/g16c01-CUDA-11.7.0/g16/l302.exe)
 NPDir=0 NMtPBC=     1 NCelOv=     1 NCel=       1 NClECP=     1 NCelD=      1
         NCelK=      1 NCelE2=     1 NClLst=     1 CellRange=     0.0.
 One-electron integrals computed using PRISM.
   1 Symmetry operations used in ECPInt.
 ECPInt:  NShTT=    3240 NPrTT=   11045 LenC2=    3134 LenP2D=    8226.
 LDataN:  DoStor=T MaxTD1= 6 Len=  172
 NBasis=   228 RedAO= T EigKep=  1.29D-03  NBF=   228
 NBsUse=   228 1.00D-06 EigRej= -1.00D+00 NBFU=   228
 Precomputing XC quadrature grid using
 IXCGrd= 4 IRadAn=           5 IRanWt=          -1 IRanGd=           0 AccXCQ= 0.00D+00.
 Generated NRdTot=       0 NPtTot=           0 NUsed=           0 NTot=          32
 NSgBfM=   261   261   261   261   261 MxSgAt=     7 MxSgA2=     7.
 Leave Link  302 at Sun May 25 03:22:02 2025, MaxMem=  3758096384 cpu:               0.5 elap:               0.1
 (Enter /apps/easybuild-2022/easybuild/software/Compiler/NVHPC/22.11-CUDA-11.7.0/Gaussian/g16c01-CUDA-11.7.0/g16/l303.exe)
 DipDrv:  MaxL=1.
 Leave Link  303 at Sun May 25 03:22:02 2025, MaxMem=  3758096384 cpu:               0.1 elap:               0.0
 (Enter /apps/easybuild-2022/easybuild/software/Compiler/NVHPC/22.11-CUDA-11.7.0/Gaussian/g16c01-CUDA-11.7.0/g16/l401.exe)
 ExpMin= 9.52D-02 ExpMax= 6.07D+04 ExpMxC= 2.07D+03 IAcc=3 IRadAn=         5 AccDes= 0.00D+00
 Harris functional with IExCor= 1009 and IRadAn=       5 diagonalized for initial guess.
 HarFok:  IExCor= 1009 AccDes= 0.00D+00 IRadAn=         5 IDoV= 1 UseB2=F ITyADJ=14
 ICtDFT=  3500011 ScaDFX=  1.000000  1.000000  1.000000  1.000000
 FoFCou: FMM=F IPFlag=           0 FMFlag=      100000 FMFlg1=           0
         NFxFlg=           0 DoJE=T BraDBF=F KetDBF=T FulRan=T
         wScrn=  0.000000 ICntrl=       500 IOpCl=  0 I1Cent=   200000004 NGrid=           0
         NMat0=    1 NMatS0=      1 NMatT0=    0 NMatD0=    1 NMtDS0=    0 NMtDT0=    0
 Symmetry not used in FoFCou.
 Harris En= -885.816875849777    
 JPrj=0 DoOrth=F DoCkMO=F.
 Initial guess <Sx>= 0.0000 <Sy>= 0.0000 <Sz>= 0.5000 <S**2>= 0.7500 S= 0.5000
 Leave Link  401 at Sun May 25 03:22:02 2025, MaxMem=  3758096384 cpu:               1.8 elap:               0.3
 (Enter /apps/easybuild-2022/easybuild/software/Compiler/NVHPC/22.11-CUDA-11.7.0/Gaussian/g16c01-CUDA-11.7.0/g16/l502.exe)
 Keep R1 and R2 ints in memory in canonical form, NReq=690854758.
 FoFCou: FMM=F IPFlag=           0 FMFlag=           0 FMFlg1=           0
         NFxFlg=           0 DoJE=F BraDBF=F KetDBF=F FulRan=T
         wScrn=  0.000000 ICntrl=       600 IOpCl=  0 I1Cent=           0 NGrid=           0
         NMat0=    1 NMatS0=  26106 NMatT0=    0 NMatD0=    1 NMtDS0=    0 NMtDT0=    0
 Symmetry not used in FoFCou.
 Two-electron integral symmetry not used.
 UHF open shell SCF:
 Using DIIS extrapolation, IDIIS=  1040.
 NGot=  3758096384 LenX=  3076403674 LenY=  3076333537
 Requested convergence on RMS density matrix=1.00D-08 within  32 cycles.
 Requested convergence on MAX density matrix=1.00D-06.
 Requested convergence on             energy=1.00D-06.
 No special actions if energy rises.
 Integral accuracy reduced to 1.0D-05 until final iterations.

 Cycle   1  Pass 0  IDiag  1:
 E= -885.988785986248    
 DIIS: error= 3.46D-02 at cycle   1 NSaved=   1.
 NSaved= 1 IEnMin= 1 EnMin= -885.988785986248     IErMin= 1 ErrMin= 3.46D-02
 ErrMax= 3.46D-02  0.00D+00 EMaxC= 1.00D-01 BMatC= 1.78D+00 BMatP= 1.78D+00
 IDIUse=3 WtCom= 6.54D-01 WtEn= 3.46D-01
 Coeff-Com:  0.100D+01
 Coeff-En:   0.100D+01
 Coeff:      0.100D+01
 Gap=     0.400 Goal=   None    Shift=    0.000
 Gap=     0.274 Goal=   None    Shift=    0.000
 GapD=    0.274 DampG=1.000 DampE=0.500 DampFc=0.5000 IDamp=-1.
 Damping current iteration by 5.00D-01
 RMSDP=3.56D-03 MaxDP=2.14D-01              OVMax= 3.01D-01

 Cycle   2  Pass 0  IDiag  1:
 E= -886.052829858844     Delta-E=       -0.064043872596 Rises=F Damp=T
 DIIS: error= 1.30D-02 at cycle   2 NSaved=   2.
 NSaved= 2 IEnMin= 2 EnMin= -886.052829858844     IErMin= 2 ErrMin= 1.30D-02
 ErrMax= 1.30D-02  0.00D+00 EMaxC= 1.00D-01 BMatC= 2.10D-01 BMatP= 1.78D+00
 IDIUse=3 WtCom= 8.70D-01 WtEn= 1.30D-01
 Coeff-Com:  0.165D+00 0.835D+00
 Coeff-En:   0.362D+00 0.638D+00
 Coeff:      0.191D+00 0.809D+00
 Gap=     0.425 Goal=   None    Shift=    0.000
 Gap=     0.311 Goal=   None    Shift=    0.000
 RMSDP=7.87D-04 MaxDP=4.66D-02 DE=-6.40D-02 OVMax= 1.71D-01

 Cycle   3  Pass 0  IDiag  1:
 E= -886.235034943376     Delta-E=       -0.182205084532 Rises=F Damp=F
 DIIS: error= 4.99D-03 at cycle   3 NSaved=   3.
 NSaved= 3 IEnMin= 3 EnMin= -886.235034943376     IErMin= 3 ErrMin= 4.99D-03
 ErrMax= 4.99D-03  0.00D+00 EMaxC= 1.00D-01 BMatC= 1.77D-02 BMatP= 2.10D-01
 IDIUse=3 WtCom= 9.50D-01 WtEn= 4.99D-02
 Coeff-Com: -0.391D-01 0.152D+00 0.887D+00
 Coeff-En:   0.000D+00 0.000D+00 0.100D+01
 Coeff:     -0.371D-01 0.144D+00 0.893D+00
 Gap=     0.383 Goal=   None    Shift=    0.000
 Gap=     0.306 Goal=   None    Shift=    0.000
 RMSDP=2.66D-04 MaxDP=1.34D-02 DE=-1.82D-01 OVMax= 2.91D-02

 Cycle   4  Pass 0  IDiag  1:
 E= -886.238311927301     Delta-E=       -0.003276983925 Rises=F Damp=F
 DIIS: error= 1.54D-03 at cycle   4 NSaved=   4.
 NSaved= 4 IEnMin= 4 EnMin= -886.238311927301     IErMin= 4 ErrMin= 1.54D-03
 ErrMax= 1.54D-03  0.00D+00 EMaxC= 1.00D-01 BMatC= 3.06D-03 BMatP= 1.77D-02
 IDIUse=3 WtCom= 9.85D-01 WtEn= 1.54D-02
 Coeff-Com: -0.172D-01 0.315D-01 0.368D+00 0.618D+00
 Coeff-En:   0.000D+00 0.000D+00 0.000D+00 0.100D+01
 Coeff:     -0.170D-01 0.310D-01 0.362D+00 0.624D+00
 Gap=     0.384 Goal=   None    Shift=    0.000
 Gap=     0.301 Goal=   None    Shift=    0.000
 RMSDP=7.15D-05 MaxDP=2.68D-03 DE=-3.28D-03 OVMax= 5.20D-03

 Cycle   5  Pass 0  IDiag  1:
 E= -886.238770629185     Delta-E=       -0.000458701884 Rises=F Damp=F
 DIIS: error= 5.30D-04 at cycle   5 NSaved=   5.
 NSaved= 5 IEnMin= 5 EnMin= -886.238770629185     IErMin= 5 ErrMin= 5.30D-04
 ErrMax= 5.30D-04  0.00D+00 EMaxC= 1.00D-01 BMatC= 3.32D-04 BMatP= 3.06D-03
 IDIUse=3 WtCom= 9.95D-01 WtEn= 5.30D-03
 Coeff-Com: -0.169D-02-0.516D-02 0.449D-01 0.245D+00 0.717D+00
 Coeff-En:   0.000D+00 0.000D+00 0.000D+00 0.000D+00 0.100D+01
 Coeff:     -0.168D-02-0.514D-02 0.447D-01 0.244D+00 0.719D+00
 Gap=     0.385 Goal=   None    Shift=    0.000
 Gap=     0.301 Goal=   None    Shift=    0.000
 RMSDP=3.31D-05 MaxDP=1.77D-03 DE=-4.59D-04 OVMax= 3.61D-03

 Cycle   6  Pass 0  IDiag  1:
 E= -886.238844807599     Delta-E=       -0.000074178414 Rises=F Damp=F
 DIIS: error= 2.34D-04 at cycle   6 NSaved=   6.
 NSaved= 6 IEnMin= 6 EnMin= -886.238844807599     IErMin= 6 ErrMin= 2.34D-04
 ErrMax= 2.34D-04  0.00D+00 EMaxC= 1.00D-01 BMatC= 7.11D-05 BMatP= 3.32D-04
 IDIUse=3 WtCom= 9.98D-01 WtEn= 2.34D-03
 Coeff-Com:  0.159D-02-0.628D-02-0.283D-01 0.110D-01 0.307D+00 0.715D+00
 Coeff-En:   0.000D+00 0.000D+00 0.000D+00 0.000D+00 0.000D+00 0.100D+01
 Coeff:      0.159D-02-0.627D-02-0.283D-01 0.110D-01 0.307D+00 0.715D+00
 Gap=     0.385 Goal=   None    Shift=    0.000
 Gap=     0.301 Goal=   None    Shift=    0.000
 RMSDP=1.96D-05 MaxDP=1.05D-03 DE=-7.42D-05 OVMax= 2.56D-03

 Cycle   7  Pass 0  IDiag  1:
 E= -886.238863977669     Delta-E=       -0.000019170071 Rises=F Damp=F
 DIIS: error= 1.60D-04 at cycle   7 NSaved=   7.
 NSaved= 7 IEnMin= 7 EnMin= -886.238863977669     IErMin= 7 ErrMin= 1.60D-04
 ErrMax= 1.60D-04  0.00D+00 EMaxC= 1.00D-01 BMatC= 2.91D-05 BMatP= 7.11D-05
 IDIUse=3 WtCom= 9.98D-01 WtEn= 1.60D-03
 Coeff-Com:  0.160D-02-0.220D-02-0.320D-01-0.804D-01-0.550D-01 0.455D+00
 Coeff-Com:  0.714D+00
 Coeff-En:   0.000D+00 0.000D+00 0.000D+00 0.000D+00 0.000D+00 0.000D+00
 Coeff-En:   0.100D+01
 Coeff:      0.160D-02-0.220D-02-0.320D-01-0.803D-01-0.549D-01 0.454D+00
 Coeff:      0.714D+00
 Gap=     0.386 Goal=   None    Shift=    0.000
 Gap=     0.300 Goal=   None    Shift=    0.000
 RMSDP=1.26D-05 MaxDP=6.21D-04 DE=-1.92D-05 OVMax= 1.86D-03

 Cycle   8  Pass 0  IDiag  1:
 E= -886.238872897857     Delta-E=       -0.000008920187 Rises=F Damp=F
 DIIS: error= 4.11D-05 at cycle   8 NSaved=   8.
 NSaved= 8 IEnMin= 8 EnMin= -886.238872897857     IErMin= 8 ErrMin= 4.11D-05
 ErrMax= 4.11D-05  0.00D+00 EMaxC= 1.00D-01 BMatC= 1.81D-06 BMatP= 2.91D-05
 IDIUse=1 WtCom= 1.00D+00 WtEn= 0.00D+00
 Coeff-Com:  0.266D-03 0.235D-03-0.304D-02-0.214D-01-0.610D-01 0.183D-01
 Coeff-Com:  0.196D+00 0.871D+00
 Coeff:      0.266D-03 0.235D-03-0.304D-02-0.214D-01-0.610D-01 0.183D-01
 Coeff:      0.196D+00 0.871D+00
 Gap=     0.386 Goal=   None    Shift=    0.000
 Gap=     0.300 Goal=   None    Shift=    0.000
 RMSDP=4.57D-06 MaxDP=2.01D-04 DE=-8.92D-06 OVMax= 7.84D-04

 Initial convergence to 1.0D-05 achieved.  Increase integral accuracy.
 Cycle   9  Pass 1  IDiag  1:
 E= -886.238900280609     Delta-E=       -0.000027382752 Rises=F Damp=F
 DIIS: error= 3.87D-05 at cycle   1 NSaved=   1.
 NSaved= 1 IEnMin= 1 EnMin= -886.238900280609     IErMin= 1 ErrMin= 3.87D-05
 ErrMax= 3.87D-05  0.00D+00 EMaxC= 1.00D-01 BMatC= 2.15D-06 BMatP= 2.15D-06
 IDIUse=1 WtCom= 1.00D+00 WtEn= 0.00D+00
 Coeff-Com:  0.100D+01
 Coeff:      0.100D+01
 Gap=     0.386 Goal=   None    Shift=    0.000
 Gap=     0.300 Goal=   None    Shift=    0.000
 RMSDP=4.57D-06 MaxDP=2.01D-04 DE=-2.74D-05 OVMax= 3.94D-04

 Cycle  10  Pass 1  IDiag  1:
 E= -886.238900789106     Delta-E=       -0.000000508498 Rises=F Damp=F
 DIIS: error= 1.83D-05 at cycle   2 NSaved=   2.
 NSaved= 2 IEnMin= 2 EnMin= -886.238900789106     IErMin= 2 ErrMin= 1.83D-05
 ErrMax= 1.83D-05  0.00D+00 EMaxC= 1.00D-01 BMatC= 2.73D-07 BMatP= 2.15D-06
 IDIUse=1 WtCom= 1.00D+00 WtEn= 0.00D+00
 Coeff-Com:  0.999D-01 0.900D+00
 Coeff:      0.999D-01 0.900D+00
 Gap=     0.386 Goal=   None    Shift=    0.000
 Gap=     0.300 Goal=   None    Shift=    0.000
 RMSDP=1.55D-06 MaxDP=7.93D-05 DE=-5.08D-07 OVMax= 1.97D-04

 Cycle  11  Pass 1  IDiag  1:
 E= -886.238900841193     Delta-E=       -0.000000052087 Rises=F Damp=F
 DIIS: error= 1.19D-05 at cycle   3 NSaved=   3.
 NSaved= 3 IEnMin= 3 EnMin= -886.238900841193     IErMin= 3 ErrMin= 1.19D-05
 ErrMax= 1.19D-05  0.00D+00 EMaxC= 1.00D-01 BMatC= 2.76D-07 BMatP= 2.73D-07
 IDIUse=1 WtCom= 1.00D+00 WtEn= 0.00D+00
 Coeff-Com: -0.543D-01 0.517D+00 0.538D+00
 Coeff:     -0.543D-01 0.517D+00 0.538D+00
 Gap=     0.386 Goal=   None    Shift=    0.000
 Gap=     0.300 Goal=   None    Shift=    0.000
 RMSDP=7.57D-07 MaxDP=4.11D-05 DE=-5.21D-08 OVMax= 9.84D-05

 Cycle  12  Pass 1  IDiag  1:
 E= -886.238900895930     Delta-E=       -0.000000054736 Rises=F Damp=F
 DIIS: error= 5.64D-06 at cycle   4 NSaved=   4.
 NSaved= 4 IEnMin= 4 EnMin= -886.238900895930     IErMin= 4 ErrMin= 5.64D-06
 ErrMax= 5.64D-06  0.00D+00 EMaxC= 1.00D-01 BMatC= 1.38D-08 BMatP= 2.73D-07
 IDIUse=1 WtCom= 1.00D+00 WtEn= 0.00D+00
 Coeff-Com: -0.179D-01-0.325D-03 0.750D-01 0.943D+00
 Coeff:     -0.179D-01-0.325D-03 0.750D-01 0.943D+00
 Gap=     0.386 Goal=   None    Shift=    0.000
 Gap=     0.300 Goal=   None    Shift=    0.000
 RMSDP=4.96D-07 MaxDP=2.02D-05 DE=-5.47D-08 OVMax= 1.16D-04

 Cycle  13  Pass 1  IDiag  1:
 E= -886.238900907014     Delta-E=       -0.000000011084 Rises=F Damp=F
 DIIS: error= 3.10D-06 at cycle   5 NSaved=   5.
 NSaved= 5 IEnMin= 5 EnMin= -886.238900907014     IErMin= 5 ErrMin= 3.10D-06
 ErrMax= 3.10D-06  0.00D+00 EMaxC= 1.00D-01 BMatC= 9.77D-09 BMatP= 1.38D-08
 IDIUse=1 WtCom= 1.00D+00 WtEn= 0.00D+00
 Coeff-Com:  0.123D-01-0.235D+00-0.200D+00 0.600D+00 0.823D+00
 Coeff:      0.123D-01-0.235D+00-0.200D+00 0.600D+00 0.823D+00
 Gap=     0.386 Goal=   None    Shift=    0.000
 Gap=     0.300 Goal=   None    Shift=    0.000
 RMSDP=4.49D-07 MaxDP=1.89D-05 DE=-1.11D-08 OVMax= 9.59D-05

 Cycle  14  Pass 1  IDiag  1:
 E= -886.238900912948     Delta-E=       -0.000000005935 Rises=F Damp=F
 DIIS: error= 1.07D-06 at cycle   6 NSaved=   6.
 NSaved= 6 IEnMin= 6 EnMin= -886.238900912948     IErMin= 6 ErrMin= 1.07D-06
 ErrMax= 1.07D-06  0.00D+00 EMaxC= 1.00D-01 BMatC= 1.57D-09 BMatP= 9.77D-09
 IDIUse=1 WtCom= 1.00D+00 WtEn= 0.00D+00
 Coeff-Com:  0.969D-02-0.124D+00-0.113D+00 0.144D+00 0.415D+00 0.669D+00
 Coeff:      0.969D-02-0.124D+00-0.113D+00 0.144D+00 0.415D+00 0.669D+00
 Gap=     0.386 Goal=   None    Shift=    0.000
 Gap=     0.300 Goal=   None    Shift=    0.000
 RMSDP=1.49D-07 MaxDP=4.93D-06 DE=-5.93D-09 OVMax= 3.07D-05

 Cycle  15  Pass 1  IDiag  1:
 E= -886.238900913663     Delta-E=       -0.000000000715 Rises=F Damp=F
 DIIS: error= 5.41D-07 at cycle   7 NSaved=   7.
 NSaved= 7 IEnMin= 7 EnMin= -886.238900913663     IErMin= 7 ErrMin= 5.41D-07
 ErrMax= 5.41D-07  0.00D+00 EMaxC= 1.00D-01 BMatC= 2.52D-10 BMatP= 1.57D-09
 IDIUse=1 WtCom= 1.00D+00 WtEn= 0.00D+00
 Coeff-Com:  0.137D-02 0.138D-03 0.204D-02-0.800D-01-0.975D-02 0.296D+00
 Coeff-Com:  0.790D+00
 Coeff:      0.137D-02 0.138D-03 0.204D-02-0.800D-01-0.975D-02 0.296D+00
 Coeff:      0.790D+00
 Gap=     0.386 Goal=   None    Shift=    0.000
 Gap=     0.300 Goal=   None    Shift=    0.000
 RMSDP=6.37D-08 MaxDP=3.03D-06 DE=-7.15D-10 OVMax= 1.48D-05

 Cycle  16  Pass 1  IDiag  1:
 E= -886.238900913766     Delta-E=       -0.000000000102 Rises=F Damp=F
 DIIS: error= 1.82D-07 at cycle   8 NSaved=   8.
 NSaved= 8 IEnMin= 8 EnMin= -886.238900913766     IErMin= 8 ErrMin= 1.82D-07
 ErrMax= 1.82D-07  0.00D+00 EMaxC= 1.00D-01 BMatC= 5.03D-11 BMatP= 2.52D-10
 IDIUse=1 WtCom= 1.00D+00 WtEn= 0.00D+00
 Coeff-Com: -0.930D-03 0.181D-01 0.183D-01-0.598D-01-0.645D-01 0.308D-01
 Coeff-Com:  0.379D+00 0.679D+00
 Coeff:     -0.930D-03 0.181D-01 0.183D-01-0.598D-01-0.645D-01 0.308D-01
 Coeff:      0.379D+00 0.679D+00
 Gap=     0.386 Goal=   None    Shift=    0.000
 Gap=     0.300 Goal=   None    Shift=    0.000
 RMSDP=2.14D-08 MaxDP=5.80D-07 DE=-1.02D-10 OVMax= 4.53D-06

 Cycle  17  Pass 1  IDiag  1:
 E= -886.238900913776     Delta-E=       -0.000000000010 Rises=F Damp=F
 DIIS: error= 6.90D-08 at cycle   9 NSaved=   9.
 NSaved= 9 IEnMin= 9 EnMin= -886.238900913776     IErMin= 9 ErrMin= 6.90D-08
 ErrMax= 6.90D-08  0.00D+00 EMaxC= 1.00D-01 BMatC= 5.56D-12 BMatP= 5.03D-11
 IDIUse=1 WtCom= 1.00D+00 WtEn= 0.00D+00
 Coeff-Com: -0.416D-03 0.390D-02 0.379D-02 0.252D-02-0.107D-01-0.623D-01
 Coeff-Com: -0.551D-01 0.175D+00 0.944D+00
 Coeff:     -0.416D-03 0.390D-02 0.379D-02 0.252D-02-0.107D-01-0.623D-01
 Coeff:     -0.551D-01 0.175D+00 0.944D+00
 Gap=     0.386 Goal=   None    Shift=    0.000
 Gap=     0.300 Goal=   None    Shift=    0.000
 RMSDP=1.02D-08 MaxDP=3.31D-07 DE=-1.00D-11 OVMax= 1.95D-06

 Cycle  18  Pass 1  IDiag  1:
 E= -886.238900913779     Delta-E=       -0.000000000004 Rises=F Damp=F
 DIIS: error= 3.01D-08 at cycle  10 NSaved=  10.
 NSaved=10 IEnMin=10 EnMin= -886.238900913779     IErMin=10 ErrMin= 3.01D-08
 ErrMax= 3.01D-08  0.00D+00 EMaxC= 1.00D-01 BMatC= 6.68D-13 BMatP= 5.56D-12
 IDIUse=1 WtCom= 1.00D+00 WtEn= 0.00D+00
 Coeff-Com:  0.135D-03-0.309D-02-0.279D-02 0.952D-02 0.120D-01-0.996D-02
 Coeff-Com: -0.558D-01-0.114D+00-0.217D-01 0.119D+01
 Coeff:      0.135D-03-0.309D-02-0.279D-02 0.952D-02 0.120D-01-0.996D-02
 Coeff:     -0.558D-01-0.114D+00-0.217D-01 0.119D+01
 Gap=     0.386 Goal=   None    Shift=    0.000
 Gap=     0.300 Goal=   None    Shift=    0.000
 RMSDP=4.85D-09 MaxDP=1.72D-07 DE=-3.64D-12 OVMax= 8.94D-07

 SCF Done:  E(UM062X) =  -886.238900914     A.U. after   18 cycles
            NFock= 18  Conv=0.48D-08     -V/T= 2.0023
 <Sx>= 0.0000 <Sy>= 0.0000 <Sz>= 0.5000 <S**2>= 0.7561 S= 0.5031
 <L.S>=  0.00000000000    
 KE= 8.842169356602D+02 PE=-2.983516657937D+03 EE= 7.730433610769D+02
 Annihilation of the first spin contaminant:
 S**2 before annihilation     0.7561,   after     0.7500
 Leave Link  502 at Sun May 25 03:22:20 2025, MaxMem=  3758096384 cpu:              79.7 elap:              17.3
 (Enter /apps/easybuild-2022/easybuild/software/Compiler/NVHPC/22.11-CUDA-11.7.0/Gaussian/g16c01-CUDA-11.7.0/g16/l508.exe)
 QCSCF skips out because SCF is already converged.
 Leave Link  508 at Sun May 25 03:22:20 2025, MaxMem=  3758096384 cpu:               0.0 elap:               0.0
 (Enter /apps/easybuild-2022/easybuild/software/Compiler/NVHPC/22.11-CUDA-11.7.0/Gaussian/g16c01-CUDA-11.7.0/g16/l801.exe)
 DoSCS=F DFT=T ScalE2(SS,OS)=  1.000000  1.000000
 Range of M.O.s used for correlation:     1   228
 NBasis=   228 NAE=    33 NBE=    32 NFC=     0 NFV=     0
 NROrb=    228 NOA=    33 NOB=    32 NVA=   195 NVB=   196

 **** Warning!!: The largest alpha MO coefficient is  0.10012839D+02


 **** Warning!!: The largest beta MO coefficient is  0.10027266D+02

 Leave Link  801 at Sun May 25 03:22:20 2025, MaxMem=  3758096384 cpu:               0.0 elap:               0.0
 (Enter /apps/easybuild-2022/easybuild/software/Compiler/NVHPC/22.11-CUDA-11.7.0/Gaussian/g16c01-CUDA-11.7.0/g16/l1101.exe)
 Using compressed storage, NAtomX=     7.
 Will process      8 centers per pass.
   1 Symmetry operations used in ECPInt.
 ECPInt:  NShTT=    3240 NPrTT=   11045 LenC2=    3134 LenP2D=    8226.
 LDataN:  DoStor=T MaxTD1= 7 Len=  274
 Leave Link 1101 at Sun May 25 03:22:20 2025, MaxMem=  3758096384 cpu:               0.6 elap:               0.1
 (Enter /apps/easybuild-2022/easybuild/software/Compiler/NVHPC/22.11-CUDA-11.7.0/Gaussian/g16c01-CUDA-11.7.0/g16/l1102.exe)
 Symmetrizing basis deriv contribution to polar:
 IMax=3 JMax=2 DiffMx= 0.00D+00
 Leave Link 1102 at Sun May 25 03:22:20 2025, MaxMem=  3758096384 cpu:               0.1 elap:               0.0
 (Enter /apps/easybuild-2022/easybuild/software/Compiler/NVHPC/22.11-CUDA-11.7.0/Gaussian/g16c01-CUDA-11.7.0/g16/l1110.exe)
 Forming Gx(P) for the SCF density, NAtomX=     7.
 Integral derivatives from FoFJK, PRISM(SPDF).
 Do as many integral derivatives as possible in FoFJK.
 G2DrvN: MDV=    3758095527.
 G2DrvN: will do     8 centers at a time, making    1 passes.
 Calling FoFCou, ICntrl=  3107 FMM=F I1Cent=   0 AccDes= 0.00D+00.
 FoFJK:  IHMeth= 1 ICntrl=    3107 DoSepK=F KAlg= 0 I1Cent=           0 FoldK=F
 IRaf=         0 NMat=       1 IRICut=       1 DoRegI=T DoRafI=F ISym2E= 0 IDoP0=0 IntGTp=1.
 FoFCou: FMM=F IPFlag=           0 FMFlag=      100000 FMFlg1=           0
         NFxFlg=           0 DoJE=F BraDBF=F KetDBF=F FulRan=T
         wScrn=  0.000000 ICntrl=      3107 IOpCl=  1 I1Cent=           0 NGrid=           0
         NMat0=    1 NMatS0=      1 NMatT0=    0 NMatD0=    1 NMtDS0=    0 NMtDT0=    0
 Symmetry not used in FoFCou.
 End of G2Drv F.D. properties file   721 does not exist.
 End of G2Drv F.D. properties file   722 does not exist.
 End of G2Drv F.D. properties file   788 does not exist.
 Leave Link 1110 at Sun May 25 03:22:37 2025, MaxMem=  3758096384 cpu:             135.7 elap:              17.1
 (Enter /apps/easybuild-2022/easybuild/software/Compiler/NVHPC/22.11-CUDA-11.7.0/Gaussian/g16c01-CUDA-11.7.0/g16/l1002.exe)
 Minotr:  UHF open shell wavefunction.
          IDoAtm=1111111
          Direct CPHF calculation.
          Differentiating once with respect to nuclear coordinates.
          Requested convergence is 1.0D-08 RMS, and 1.0D-07 maximum.
          Secondary convergence is 1.0D-12 RMS, and 1.0D-12 maximum.
          NewPWx=T KeepS1=F KeepF1=F KeepIn=T MapXYZ=F SortEE=F KeepMc=T.
         2087 words used for storage of precomputed grid.
 Keep R1 and R2 ints in memory in canonical form, NReq=690858549.
 FoFCou: FMM=F IPFlag=           0 FMFlag=           0 FMFlg1=           0
         NFxFlg=           0 DoJE=F BraDBF=F KetDBF=F FulRan=T
         wScrn=  0.000000 ICntrl=       600 IOpCl=  0 I1Cent=           0 NGrid=           0
         NMat0=    1 NMatS0=  26106 NMatT0=    0 NMatD0=    1 NMtDS0=    0 NMtDT0=    0
 Symmetry not used in FoFCou.
 Two-electron integral symmetry not used.
          MDV=    3758096384 using IRadAn=       1.
          Solving linear equations simultaneously, MaxMat=       0.
          There are    24 degrees of freedom in the 1st order CPHF.  IDoFFX=6 NUNeed=     0.
     18 vectors produced by pass  0 Test12= 5.29D-14 4.17D-09 XBig12= 4.19D-01 2.09D-01.
 AX will form    18 AO Fock derivatives at one time.
     18 vectors produced by pass  1 Test12= 5.29D-14 4.17D-09 XBig12= 3.80D-02 6.49D-02.
     18 vectors produced by pass  2 Test12= 5.29D-14 4.17D-09 XBig12= 4.73D-03 2.21D-02.
     18 vectors produced by pass  3 Test12= 5.29D-14 4.17D-09 XBig12= 1.26D-04 2.80D-03.
     18 vectors produced by pass  4 Test12= 5.29D-14 4.17D-09 XBig12= 4.80D-06 6.76D-04.
     18 vectors produced by pass  5 Test12= 5.29D-14 4.17D-09 XBig12= 1.30D-07 7.79D-05.
     18 vectors produced by pass  6 Test12= 5.29D-14 4.17D-09 XBig12= 2.69D-09 9.83D-06.
     18 vectors produced by pass  7 Test12= 5.29D-14 4.17D-09 XBig12= 3.91D-11 1.31D-06.
     15 vectors produced by pass  8 Test12= 5.29D-14 4.17D-09 XBig12= 6.03D-13 1.65D-07.
      3 vectors produced by pass  9 Test12= 5.29D-14 4.17D-09 XBig12= 9.89D-15 1.55D-08.
 InvSVY:  IOpt=1 It=  1 EMax= 1.11D-15
 Solved reduced A of dimension   162 with    18 vectors.
 End of Minotr F.D. properties file   721 does not exist.
 End of Minotr F.D. properties file   722 does not exist.
 End of Minotr F.D. properties file   788 does not exist.
 Leave Link 1002 at Sun May 25 03:23:06 2025, MaxMem=  3758096384 cpu:             226.1 elap:              28.7
 (Enter /apps/easybuild-2022/easybuild/software/Compiler/NVHPC/22.11-CUDA-11.7.0/Gaussian/g16c01-CUDA-11.7.0/g16/l701.exe)
 ... and contract with generalized density number  0.
 Compute integral second derivatives.
   1 Symmetry operations used in ECPInt.
 ECPInt:  NShTT=    3240 NPrTT=   11045 LenC2=    3134 LenP2D=    8226.
 LDataN:  DoStor=T MaxTD1= 8 Len=  415
 Leave Link  701 at Sun May 25 03:23:06 2025, MaxMem=  3758096384 cpu:               0.5 elap:               0.1
 (Enter /apps/easybuild-2022/easybuild/software/Compiler/NVHPC/22.11-CUDA-11.7.0/Gaussian/g16c01-CUDA-11.7.0/g16/l702.exe)
 L702 exits ... SP integral derivatives will be done elsewhere.
 Leave Link  702 at Sun May 25 03:23:06 2025, MaxMem=  3758096384 cpu:               0.0 elap:               0.0
 (Enter /apps/easybuild-2022/easybuild/software/Compiler/NVHPC/22.11-CUDA-11.7.0/Gaussian/g16c01-CUDA-11.7.0/g16/l703.exe)
 Integral derivatives from FoFJK, PRISM(SPDF).
 Compute integral second derivatives, UseDBF=F ICtDFT=           0.
 Calling FoFJK, ICntrl=    100127 FMM=F ISym2X=0 I1Cent= 0 IOpClX= 1 NMat=1 NMatS=1 NMatT=0.
 FoFJK:  IHMeth= 1 ICntrl=  100127 DoSepK=F KAlg= 0 I1Cent=           0 FoldK=F
 IRaf=         0 NMat=       1 IRICut=       1 DoRegI=T DoRafI=F ISym2E= 0 IDoP0=0 IntGTp=1.
 FoFCou: FMM=F IPFlag=           0 FMFlag=      100000 FMFlg1=         800
         NFxFlg=           0 DoJE=F BraDBF=F KetDBF=F FulRan=T
         wScrn=  0.000000 ICntrl=    100127 IOpCl=  1 I1Cent=           0 NGrid=           0
         NMat0=    1 NMatS0=      1 NMatT0=    0 NMatD0=    1 NMtDS0=    0 NMtDT0=    0
 Symmetry not used in FoFCou.
 Leave Link  703 at Sun May 25 03:23:41 2025, MaxMem=  3758096384 cpu:             278.8 elap:              35.1
 (Enter /apps/easybuild-2022/easybuild/software/Compiler/NVHPC/22.11-CUDA-11.7.0/Gaussian/g16c01-CUDA-11.7.0/g16/l716.exe)
 Dipole        =-4.06650298D-01 4.47051958D-01 5.34031614D-02
 Polarizability= 0.00000000D+00 0.00000000D+00 0.00000000D+00
                 0.00000000D+00 0.00000000D+00 0.00000000D+00
 -------------------------------------------------------------------
 Center     Atomic                   Forces (Hartrees/Bohr)
 Number     Number              X              Y              Z
 -------------------------------------------------------------------
      1        6          -0.021805280   -0.002665908   -0.004303685
      2        9           0.004542912   -0.002762444    0.004324204
      3        9           0.003793924   -0.000497759   -0.001142808
      4        9          -0.001722694   -0.001768948    0.000309328
      5       16           0.002447560    0.037963173   -0.007752355
      6        8           0.008872881   -0.018135514    0.031748594
      7        8           0.003870697   -0.012132599   -0.023183277
 -------------------------------------------------------------------
 Cartesian Forces:  Max     0.037963173 RMS     0.014129914
 Force constants in Cartesian coordinates: 
                1             2             3             4             5 
      1  0.487041D+00
      2  0.191611D-02  0.558446D+00
      3 -0.601615D-02  0.776340D-02  0.566657D+00
      4 -0.132303D+00  0.566222D-01 -0.865138D-01  0.115971D+00
      5  0.492168D-01 -0.129229D+00  0.840076D-01 -0.688055D-01  0.175309D+00
      6 -0.792203D-01  0.851947D-01 -0.205532D+00  0.102031D+00 -0.140229D+00
      7 -0.129846D+00  0.419327D-01  0.983134D-01  0.187028D-01 -0.401752D-02
      8  0.362195D-01 -0.105844D+00 -0.739755D-01 -0.548084D-02  0.170419D-01
      9  0.903844D-01 -0.753852D-01 -0.249455D+00  0.746516D-02  0.296672D-02
     10 -0.108122D+00 -0.964773D-01 -0.742092D-02  0.183512D-01  0.173606D-01
     11 -0.795391D-01 -0.298139D+00 -0.184236D-01  0.104137D-02 -0.636719D-01
     12 -0.645284D-02 -0.184942D-01 -0.734180D-01  0.513271D-02  0.455920D-01
     13 -0.130876D+00 -0.430632D-01  0.136437D-02 -0.619881D-02  0.459460D-02
     14  0.170312D-01 -0.305984D-01 -0.847110D-03  0.144187D-01  0.586633D-03
     15  0.279424D-02  0.185474D-03 -0.906209D-03 -0.272250D-01  0.853580D-02
     16  0.679752D-02  0.207618D-01 -0.206398D-01 -0.122093D-01  0.217310D-02
     17 -0.123725D-01  0.274102D-02  0.451421D-02  0.118032D-02  0.300425D-03
     18  0.143344D-02  0.572226D-02 -0.178895D-01 -0.496117D-02  0.127803D-02
     19  0.730818D-02  0.183076D-01  0.209129D-01 -0.231439D-02 -0.522067D-03
     20 -0.124719D-01  0.262283D-02 -0.303895D-02  0.102375D-02 -0.337586D-03
     21 -0.292274D-02 -0.498639D-02 -0.194555D-01  0.407148D-02 -0.215120D-02
                6             7             8             9            10 
      6  0.297856D+00
      7 -0.107953D-01  0.111309D+00
      8  0.142360D-01 -0.507479D-01  0.135126D+00
      9 -0.833503D-01 -0.112176D+00  0.120176D+00  0.359671D+00
     10 -0.153166D-02  0.182099D-01  0.159921D-01  0.379341D-02  0.879600D-01
     11  0.323629D-01  0.112520D-02 -0.492605D-01 -0.410628D-01  0.922009D-01
     12  0.169876D-03 -0.541564D-02 -0.548109D-01 -0.145311D-01  0.717578D-02
     13 -0.360579D-02 -0.497129D-02  0.400175D-02  0.326801D-02 -0.202446D-01
     14  0.830987D-02  0.906133D-02  0.328238D-02 -0.533279D-02 -0.424243D-01
     15 -0.163433D-01  0.279514D-01 -0.559957D-02 -0.195733D-01 -0.166473D-02
     16 -0.565093D-02 -0.198710D-02 -0.924855D-03  0.117123D-02  0.172200D-02
     17 -0.371300D-03  0.157744D-02 -0.573490D-03 -0.156232D-02  0.698573D-02
     18  0.209283D-03 -0.371231D-02  0.125505D-02  0.765569D-02 -0.235045D-02
     19 -0.122670D-02 -0.114177D-01  0.940260D-03  0.609425D-02  0.212359D-02
     20  0.496821D-03  0.106870D-02  0.228116D-03  0.200712D-03  0.636222D-02
     21  0.699078D-02  0.583491D-02 -0.128071D-02 -0.416256D-03  0.199858D-02
               11            12            13            14            15 
     11  0.428490D+00
     12  0.291203D-01  0.818848D-01
     13 -0.133046D-01 -0.816947D-03  0.404354D+00
     14 -0.334303D-01 -0.272552D-02 -0.157058D+00  0.353473D+00
     15 -0.194093D-02 -0.545777D-03  0.263676D-01 -0.371833D-01  0.119967D+01
     16 -0.135936D-02  0.168292D-02 -0.130124D+00  0.925908D-01 -0.211046D+00
     17  0.814028D-02 -0.538593D-03  0.115636D+00 -0.161354D+00  0.255698D+00
     18 -0.510640D-02  0.276530D-02 -0.195255D+00  0.217611D+00 -0.573845D+00
     19 -0.164405D-03 -0.130598D-02 -0.111939D+00  0.663804D-01  0.182822D+00
     20  0.787146D-02  0.185699D-02  0.891936D-01 -0.131960D+00 -0.219695D+00
     21  0.505060D-02  0.367502D-02  0.168677D+00 -0.179832D+00 -0.588456D+00
               16            17            18            19            20 
     16  0.120779D+00
     17 -0.107401D+00  0.125225D+00
     18  0.220520D+00 -0.240555D+00  0.594579D+00
     19  0.150217D-01 -0.560614D-02 -0.156752D-01  0.101217D+00
     20 -0.584076D-02  0.255204D-01  0.197959D-01 -0.793356D-01  0.960547D-01
     21  0.139620D-01 -0.171846D-01 -0.134753D-01 -0.191622D+00  0.200384D+00
               21 
     21  0.611138D+00
 FormGI is forming the generalized inverse of G from B-inverse, IUseBI=4.
 Force constants in internal coordinates: 
                1             2             3             4             5 
      1  0.436630D+00
      2  0.539901D-01  0.455577D+00
      3  0.532610D-01  0.537703D-01  0.454183D+00
      4  0.178454D-01  0.168603D-01  0.201633D-01  0.172819D+00
      5  0.538325D-02  0.851429D-02  0.844141D-02  0.855266D-02  0.785880D+00
      6  0.798245D-02  0.552077D-02  0.806728D-02  0.798567D-02 -0.312969D-02
      7  0.280731D-01  0.290662D-01 -0.175136D-02 -0.169522D-01 -0.510914D-02
      8  0.256310D-01 -0.124473D-02  0.257655D-01 -0.161467D-01 -0.356671D-02
      9  0.935471D-02 -0.311537D-01 -0.296059D-01  0.167941D-01  0.142332D-01
     10 -0.116360D-02  0.269555D-01  0.258920D-01 -0.163952D-01 -0.504879D-02
     11 -0.314014D-01  0.711427D-02 -0.303954D-01  0.151589D-01 -0.111539D-02
     12 -0.301731D-01 -0.312461D-01  0.102925D-01  0.175472D-01  0.694768D-03
     13  0.204830D-01 -0.665048D-02 -0.691892D-02  0.449519D-02  0.242064D-01
     14 -0.488297D-02  0.199921D-01 -0.877083D-02  0.504953D-02 -0.136843D-01
     15 -0.521040D-02 -0.462765D-02  0.836219D-04  0.151200D-02  0.106635D-02
     16 -0.921053D-03  0.171706D-01 -0.142652D-01 -0.473146D-02 -0.502966D-02
     17  0.375595D-02  0.210435D-01 -0.255921D-01  0.414962D-02  0.392268D-02
     18 -0.220240D-01 -0.341128D-02  0.252926D-01 -0.377524D-02 -0.701010D-02
     19 -0.173470D-01  0.461646D-03  0.139657D-01  0.510584D-02  0.194223D-02
     20  0.177579D-01 -0.212478D-01  0.561385D-02 -0.398783D-02 -0.547832D-03
     21  0.224350D-01 -0.173748D-01 -0.571308D-02  0.489325D-02  0.840450D-02
                6             7             8             9            10 
      6  0.746098D+00
      7 -0.519549D-02  0.133578D+00
      8 -0.464048D-02  0.263198D-01  0.130493D+00
      9 -0.138911D-03 -0.845182D-01 -0.826463D-01  0.169554D+00
     10 -0.322819D-02  0.265568D-01  0.267082D-01 -0.198080D-01  0.132731D+00
     11  0.145166D-01 -0.818863D-01 -0.191596D-01  0.492285D-02 -0.820449D-01
     12 -0.140005D-02 -0.206042D-01 -0.809240D-01  0.129576D-01 -0.843273D-01
     13 -0.136717D-01 -0.758772D-02 -0.542315D-02  0.322624D-01  0.272825D-02
     14  0.252206D-01 -0.715908D-02  0.263743D-02 -0.232267D-02 -0.566198D-02
     15  0.215629D-03  0.632987D-02  0.326654D-02 -0.111402D-01  0.329757D-02
     16 -0.188466D-02  0.316270D-01 -0.322309D-01 -0.504555D-02 -0.133571D-02
     17  0.687717D-02  0.289508D-01 -0.300825D-01  0.250430D-02  0.713184D-03
     18 -0.435345D-02 -0.291953D-01 -0.788856D-03 -0.107296D-01  0.290444D-01
     19  0.440838D-02 -0.318715D-01  0.135952D-02 -0.317980D-02  0.310933D-01
     20 -0.842180D-02  0.146609D-02  0.291853D-01  0.244901D-02 -0.306792D-01
     21  0.340027D-03 -0.121011D-02  0.313337D-01  0.999886D-02 -0.286303D-01
               11            12            13            14            15 
     11  0.167022D+00
     12  0.109012D-01  0.161743D+00
     13 -0.329907D-02 -0.185503D-01  0.176469D+00
     14  0.303193D-01 -0.179060D-01  0.409036D-02  0.176154D+00
     15 -0.101757D-01  0.841428D-02 -0.817596D-01 -0.818132D-01  0.108182D+00
     16  0.370334D-02  0.272270D-02 -0.972062D-02 -0.904024D-02 -0.120101D-01
     17  0.104846D-01 -0.131124D-01  0.173053D-01  0.183410D-01  0.668080D-02
     18 -0.156793D-02  0.132216D-01 -0.186540D-01 -0.174655D-01 -0.651440D-02
     19  0.521333D-02 -0.261342D-02  0.837188D-02  0.991577D-02  0.121765D-01
     20 -0.101481D-01  0.824866D-02 -0.827692D-02 -0.178376D-01 -0.962714D-02
     21 -0.336683D-02 -0.758639D-02  0.187490D-01  0.954368D-02  0.906380D-02
               16            17            18            19            20 
     16  0.412200D-01
     17  0.122497D-01  0.467332D-01
     18  0.314591D-02 -0.314660D-01  0.468409D-01
     19 -0.258243D-01  0.301744D-02  0.122290D-01  0.410708D-01
     20  0.794800D-03 -0.305154D-01  0.370804D-02 -0.276022D-01  0.425073D-01
     21 -0.281755D-01  0.396807D-02 -0.309039D-01  0.123961D-02  0.111971D-01
               21 
     21  0.433406D-01
 Leave Link  716 at Sun May 25 03:23:41 2025, MaxMem=  3758096384 cpu:               0.0 elap:               0.0
 (Enter /apps/easybuild-2022/easybuild/software/Compiler/NVHPC/22.11-CUDA-11.7.0/Gaussian/g16c01-CUDA-11.7.0/g16/l103.exe)

 GradGradGradGradGradGradGradGradGradGradGradGradGradGradGradGradGradGrad
 Berny optimization.
 Red2BG is reusing G-inverse.
 Internal  Forces:  Max     0.037215761 RMS     0.011341625
 Search for a local minimum.
 Step number   1 out of a maximum of   31
 All quantities printed in internal units (Hartrees-Bohrs-Radians)
 RMS Force = .11342D-01 SwitMx=.10000D-02 MixMth= 1
 Mixed Optimization -- RFO/linear search
 Second derivative matrix not updated -- analytic derivatives used.
 ITU=  0
     Eigenvalues ---    0.00241   0.09704   0.11758   0.12056   0.15770
     Eigenvalues ---    0.16224   0.19621   0.22332   0.27825   0.35976
     Eigenvalues ---    0.41050   0.42281   0.58236   0.74904   0.78903
 RFO step:  Lambda=-6.20135495D-03 EMin= 2.41235815D-03
 Linear search not attempted -- first point.
 Iteration  1 RMS(Cart)=  0.02752172 RMS(Int)=  0.00137362
 Iteration  2 RMS(Cart)=  0.00138909 RMS(Int)=  0.00084998
 Iteration  3 RMS(Cart)=  0.00000448 RMS(Int)=  0.00084997
 Iteration  4 RMS(Cart)=  0.00000002 RMS(Int)=  0.00084997
 ITry= 1 IFail=0 DXMaxC= 7.12D-02 DCOld= 1.00D+10 DXMaxT= 3.00D-01 DXLimC= 3.00D+00 Rises=F
 Variable       Old X    -DE/DX   Delta X   Delta X   Delta X     New X
                                 (Linear)    (Quad)   (Total)
    R1        2.50628  -0.00646   0.00000  -0.01957  -0.01957   2.48671
    R2        2.49204  -0.00253   0.00000  -0.00614  -0.00614   2.48590
    R3        2.49218   0.00212   0.00000  -0.00596  -0.00596   2.48622
    R4        3.47720   0.01567   0.00000   0.09979   0.09979   3.57699
    R5        2.66699   0.03722   0.00000   0.04833   0.04833   2.71532
    R6        2.68140   0.02589   0.00000   0.03647   0.03647   2.71786
    A1        1.90645   0.00329   0.00000   0.01545   0.01526   1.92171
    A2        1.91022   0.00094   0.00000   0.01090   0.01090   1.92112
    A3        1.90605  -0.00356   0.00000  -0.01054  -0.01063   1.89542
    A4        1.91507   0.00092   0.00000   0.00675   0.00671   1.92178
    A5        1.92557  -0.00557   0.00000  -0.02683  -0.02694   1.89863
    A6        1.90039   0.00398   0.00000   0.00437   0.00435   1.90474
    A7        1.87101  -0.00879   0.00000  -0.03940  -0.04074   1.83027
    A8        1.86273  -0.00908   0.00000  -0.03624  -0.03759   1.82514
    A9        2.16131   0.00389   0.00000  -0.01124  -0.01402   2.14729
    D1        2.96758   0.00313   0.00000   0.04570   0.04500   3.01258
    D2       -0.96711  -0.00492   0.00000  -0.02371  -0.02285  -0.98996
    D3        0.87199   0.00475   0.00000   0.04986   0.04901   0.92100
    D4       -3.06270  -0.00330   0.00000  -0.01956  -0.01884  -3.08154
    D5       -1.23065   0.00453   0.00000   0.05529   0.05448  -1.17617
    D6        1.11784  -0.00352   0.00000  -0.01413  -0.01336   1.10448
         Item               Value     Threshold  Converged?
 Maximum Force            0.037216     0.000450     NO 
 RMS     Force            0.011342     0.000300     NO 
 Maximum Displacement     0.071214     0.001800     NO 
 RMS     Displacement     0.027475     0.001200     NO 
 Predicted change in Energy=-3.184505D-03
 Lowest energy point so far.  Saving SCF results.
 GradGradGradGradGradGradGradGradGradGradGradGradGradGradGradGradGradGrad

 Leave Link  103 at Sun May 25 03:23:41 2025, MaxMem=  3758096384 cpu:               0.1 elap:               0.0
 (Enter /apps/easybuild-2022/easybuild/software/Compiler/NVHPC/22.11-CUDA-11.7.0/Gaussian/g16c01-CUDA-11.7.0/g16/l202.exe)
                          Input orientation:                          
 ---------------------------------------------------------------------
 Center     Atomic      Atomic             Coordinates (Angstroms)
 Number     Number       Type             X           Y           Z
 ---------------------------------------------------------------------
      1          6           0       -0.088012   -0.059419    0.058488
      2          9           0       -0.580721    0.607351   -0.963410
      3          9           0       -0.542088    0.441826    1.186789
      4          9           0       -0.411442   -1.331336   -0.034027
      5         16           0        1.797564    0.104653    0.033834
      6          8           0        2.235760   -0.493109    1.264812
      7          8           0        2.186890   -0.389154   -1.259646
 ---------------------------------------------------------------------
                    Distance matrix (angstroms):
                    1          2          3          4          5
     1  C    0.000000
     2  F    1.315910   0.000000
     3  F    1.315483   2.156907   0.000000
     4  F    1.315652   2.156598   2.156748   0.000000
     5  S    1.892861   2.627440   2.630012   2.635598   0.000000
     6  O    2.653906   3.756135   2.932001   3.065499   1.436886
     7  O    2.649788   2.956425   3.758043   3.023438   1.438231
                    6          7
     6  O    0.000000
     7  O    2.527070   0.000000
 Symmetry turned off by external request.
 Stoichiometry    CF3O2S
 Rotational constants (GHZ):           3.5350866           2.0075185           1.6884690
 Leave Link  202 at Sun May 25 03:23:41 2025, MaxMem=  3758096384 cpu:               0.0 elap:               0.0
 (Enter /apps/easybuild-2022/easybuild/software/Compiler/NVHPC/22.11-CUDA-11.7.0/Gaussian/g16c01-CUDA-11.7.0/g16/l301.exe)
 Standard basis: def2TZVPP (5D, 7F)
 Ernie: Thresh=  0.10000D-02 Tol=  0.10000D-05 Strict=F.
   228 basis functions,   375 primitive gaussians,   264 cartesian basis functions
    33 alpha electrons       32 beta electrons
       nuclear repulsion energy       436.4958096073 Hartrees.
 IExCor= 4336 DFT=T Ex+Corr=M062X ExCW=0 ScaHFX=  0.540000
 ScaDFX=  1.000000  1.000000  1.000000  1.000000 ScalE2=  1.000000  1.000000
 IRadAn=      5 IRanWt=     -1 IRanGd=            0 ICorTp=0 IEmpDi=  4
 NAtoms=    7 NActive=    7 NUniq=    7 SFac= 1.00D+00 NAtFMM=   60 NAOKFM=F Big=F
 Integral buffers will be    131072 words long.
 Raffenetti 2 integral format.
 Two-electron integral symmetry is turned off.
 Leave Link  301 at Sun May 25 03:23:41 2025, MaxMem=  3758096384 cpu:               0.0 elap:               0.0
 (Enter /apps/easybuild-2022/easybuild/software/Compiler/NVHPC/22.11-CUDA-11.7.0/Gaussian/g16c01-CUDA-11.7.0/g16/l302.exe)
 NPDir=0 NMtPBC=     1 NCelOv=     1 NCel=       1 NClECP=     1 NCelD=      1
         NCelK=      1 NCelE2=     1 NClLst=     1 CellRange=     0.0.
 One-electron integrals computed using PRISM.
   1 Symmetry operations used in ECPInt.
 ECPInt:  NShTT=    3240 NPrTT=   11045 LenC2=    3130 LenP2D=    8210.
 LDataN:  DoStor=T MaxTD1= 6 Len=  172
 NBasis=   228 RedAO= T EigKep=  1.44D-03  NBF=   228
 NBsUse=   228 1.00D-06 EigRej= -1.00D+00 NBFU=   228
 Precomputing XC quadrature grid using
 IXCGrd= 4 IRadAn=           5 IRanWt=          -1 IRanGd=           0 AccXCQ= 0.00D+00.
 Generated NRdTot=       0 NPtTot=           0 NUsed=           0 NTot=          32
 NSgBfM=   261   261   261   261   261 MxSgAt=     7 MxSgA2=     7.
 Leave Link  302 at Sun May 25 03:23:41 2025, MaxMem=  3758096384 cpu:               0.5 elap:               0.1
 (Enter /apps/easybuild-2022/easybuild/software/Compiler/NVHPC/22.11-CUDA-11.7.0/Gaussian/g16c01-CUDA-11.7.0/g16/l303.exe)
 DipDrv:  MaxL=1.
 Leave Link  303 at Sun May 25 03:23:41 2025, MaxMem=  3758096384 cpu:               0.0 elap:               0.0
 (Enter /apps/easybuild-2022/easybuild/software/Compiler/NVHPC/22.11-CUDA-11.7.0/Gaussian/g16c01-CUDA-11.7.0/g16/l401.exe)
 Initial guess from the checkpoint file:  "1332333552100000000002_well.chk"
 B after Tr=     0.007622    0.005297    0.000714
         Rot=    0.999999    0.000213   -0.000038   -0.001101 Ang=   0.13 deg.
 Guess basis will be translated and rotated to current coordinates.
 JPrj=2 DoOrth=T DoCkMO=T.
 Initial guess <Sx>= 0.0000 <Sy>= 0.0000 <Sz>= 0.5000 <S**2>= 0.7564 S= 0.5032
 Generating alternative initial guess.
 ExpMin= 9.52D-02 ExpMax= 6.07D+04 ExpMxC= 2.07D+03 IAcc=3 IRadAn=         5 AccDes= 0.00D+00
 Harris functional with IExCor= 1009 and IRadAn=       5 diagonalized for initial guess.
 HarFok:  IExCor= 1009 AccDes= 0.00D+00 IRadAn=         5 IDoV= 1 UseB2=F ITyADJ=14
 ICtDFT=  3500011 ScaDFX=  1.000000  1.000000  1.000000  1.000000
 FoFCou: FMM=F IPFlag=           0 FMFlag=      100000 FMFlg1=           0
         NFxFlg=           0 DoJE=T BraDBF=F KetDBF=T FulRan=T
         wScrn=  0.000000 ICntrl=       500 IOpCl=  0 I1Cent=   200000004 NGrid=           0
         NMat0=    1 NMatS0=      1 NMatT0=    0 NMatD0=    1 NMtDS0=    0 NMtDT0=    0
 Symmetry not used in FoFCou.
 Harris En= -885.824318885170    
 Leave Link  401 at Sun May 25 03:23:42 2025, MaxMem=  3758096384 cpu:               2.0 elap:               0.3
 (Enter /apps/easybuild-2022/easybuild/software/Compiler/NVHPC/22.11-CUDA-11.7.0/Gaussian/g16c01-CUDA-11.7.0/g16/l502.exe)
 Keep R1 and R2 ints in memory in canonical form, NReq=690854758.
 FoFCou: FMM=F IPFlag=           0 FMFlag=           0 FMFlg1=           0
         NFxFlg=           0 DoJE=F BraDBF=F KetDBF=F FulRan=T
         wScrn=  0.000000 ICntrl=       600 IOpCl=  0 I1Cent=           0 NGrid=           0
         NMat0=    1 NMatS0=  26106 NMatT0=    0 NMatD0=    1 NMtDS0=    0 NMtDT0=    0
 Symmetry not used in FoFCou.
 Two-electron integral symmetry not used.
 UHF open shell SCF:
 Using DIIS extrapolation, IDIIS=  1040.
 NGot=  3758096384 LenX=  3076403674 LenY=  3076333537
 Requested convergence on RMS density matrix=1.00D-08 within  32 cycles.
 Requested convergence on MAX density matrix=1.00D-06.
 Requested convergence on             energy=1.00D-06.
 No special actions if energy rises.
 Integral accuracy reduced to 1.0D-05 until final iterations.

 Cycle   1  Pass 0  IDiag  1:
 E= -886.237563030950    
 DIIS: error= 3.78D-03 at cycle   1 NSaved=   1.
 NSaved= 1 IEnMin= 1 EnMin= -886.237563030950     IErMin= 1 ErrMin= 3.78D-03
 ErrMax= 3.78D-03  0.00D+00 EMaxC= 1.00D-01 BMatC= 1.72D-02 BMatP= 1.72D-02
 IDIUse=3 WtCom= 9.62D-01 WtEn= 3.78D-02
 Coeff-Com:  0.100D+01
 Coeff-En:   0.100D+01
 Coeff:      0.100D+01
 Gap=     1.096 Goal=   None    Shift=    0.000
 Gap=     1.148 Goal=   None    Shift=    0.000
 GapD=    1.096 DampG=2.000 DampE=1.000 DampFc=2.0000 IDamp=-1.
 RMSDP=3.19D-04 MaxDP=1.03D-02              OVMax= 2.68D-02

 Cycle   2  Pass 0  IDiag  1:
 E= -886.241752259003     Delta-E=       -0.004189228053 Rises=F Damp=F
 DIIS: error= 8.42D-04 at cycle   2 NSaved=   2.
 NSaved= 2 IEnMin= 2 EnMin= -886.241752259003     IErMin= 2 ErrMin= 8.42D-04
 ErrMax= 8.42D-04  0.00D+00 EMaxC= 1.00D-01 BMatC= 1.35D-03 BMatP= 1.72D-02
 IDIUse=3 WtCom= 9.92D-01 WtEn= 8.42D-03
 Coeff-Com:  0.272D-01 0.973D+00
 Coeff-En:   0.000D+00 0.100D+01
 Coeff:      0.270D-01 0.973D+00
 Gap=     0.383 Goal=   None    Shift=    0.000
 Gap=     0.283 Goal=   None    Shift=    0.000
 RMSDP=9.63D-05 MaxDP=4.90D-03 DE=-4.19D-03 OVMax= 1.23D-02

 Cycle   3  Pass 0  IDiag  1:
 E= -886.241981260178     Delta-E=       -0.000229001175 Rises=F Damp=F
 DIIS: error= 1.03D-03 at cycle   3 NSaved=   3.
 NSaved= 3 IEnMin= 3 EnMin= -886.241981260178     IErMin= 2 ErrMin= 8.42D-04
 ErrMax= 1.03D-03  0.00D+00 EMaxC= 1.00D-01 BMatC= 1.16D-03 BMatP= 1.35D-03
 IDIUse=3 WtCom= 9.90D-01 WtEn= 1.03D-02
 Coeff-Com: -0.552D-01 0.499D+00 0.556D+00
 Coeff-En:   0.000D+00 0.673D-01 0.933D+00
 Coeff:     -0.547D-01 0.495D+00 0.560D+00
 Gap=     0.382 Goal=   None    Shift=    0.000
 Gap=     0.280 Goal=   None    Shift=    0.000
 RMSDP=4.78D-05 MaxDP=2.59D-03 DE=-2.29D-04 OVMax= 5.76D-03

 Cycle   4  Pass 0  IDiag  1:
 E= -886.242187508816     Delta-E=       -0.000206248638 Rises=F Damp=F
 DIIS: error= 3.20D-04 at cycle   4 NSaved=   4.
 NSaved= 4 IEnMin= 4 EnMin= -886.242187508816     IErMin= 4 ErrMin= 3.20D-04
 ErrMax= 3.20D-04  0.00D+00 EMaxC= 1.00D-01 BMatC= 8.54D-05 BMatP= 1.16D-03
 IDIUse=3 WtCom= 9.97D-01 WtEn= 3.20D-03
 Coeff-Com: -0.188D-01 0.502D-01 0.211D+00 0.758D+00
 Coeff-En:   0.000D+00 0.000D+00 0.000D+00 0.100D+01
 Coeff:     -0.187D-01 0.500D-01 0.210D+00 0.759D+00
 Gap=     0.382 Goal=   None    Shift=    0.000
 Gap=     0.280 Goal=   None    Shift=    0.000
 RMSDP=2.47D-05 MaxDP=1.55D-03 DE=-2.06D-04 OVMax= 4.99D-03

 Cycle   5  Pass 0  IDiag  1:
 E= -886.242215460866     Delta-E=       -0.000027952050 Rises=F Damp=F
 DIIS: error= 1.79D-04 at cycle   5 NSaved=   5.
 NSaved= 5 IEnMin= 5 EnMin= -886.242215460866     IErMin= 5 ErrMin= 1.79D-04
 ErrMax= 1.79D-04  0.00D+00 EMaxC= 1.00D-01 BMatC= 2.99D-05 BMatP= 8.54D-05
 IDIUse=3 WtCom= 9.98D-01 WtEn= 1.79D-03
 Coeff-Com:  0.126D-02-0.789D-01 0.832D-02 0.431D+00 0.638D+00
 Coeff-En:   0.000D+00 0.000D+00 0.000D+00 0.000D+00 0.100D+01
 Coeff:      0.126D-02-0.787D-01 0.830D-02 0.430D+00 0.639D+00
 Gap=     0.382 Goal=   None    Shift=    0.000
 Gap=     0.280 Goal=   None    Shift=    0.000
 RMSDP=1.40D-05 MaxDP=6.05D-04 DE=-2.80D-05 OVMax= 3.04D-03

 Cycle   6  Pass 0  IDiag  1:
 E= -886.242227107981     Delta-E=       -0.000011647116 Rises=F Damp=F
 DIIS: error= 1.22D-04 at cycle   6 NSaved=   6.
 NSaved= 6 IEnMin= 6 EnMin= -886.242227107981     IErMin= 6 ErrMin= 1.22D-04
 ErrMax= 1.22D-04  0.00D+00 EMaxC= 1.00D-01 BMatC= 5.40D-06 BMatP= 2.99D-05
 IDIUse=3 WtCom= 9.99D-01 WtEn= 1.22D-03
 Coeff-Com:  0.591D-02-0.524D-01-0.477D-01 0.170D-01 0.272D+00 0.805D+00
 Coeff-En:   0.000D+00 0.000D+00 0.000D+00 0.000D+00 0.000D+00 0.100D+01
 Coeff:      0.590D-02-0.523D-01-0.477D-01 0.170D-01 0.272D+00 0.805D+00
 Gap=     0.382 Goal=   None    Shift=    0.000
 Gap=     0.280 Goal=   None    Shift=    0.000
 RMSDP=1.02D-05 MaxDP=3.54D-04 DE=-1.16D-05 OVMax= 2.52D-03

 Cycle   7  Pass 0  IDiag  1:
 E= -886.242231287293     Delta-E=       -0.000004179312 Rises=F Damp=F
 DIIS: error= 7.19D-05 at cycle   7 NSaved=   7.
 NSaved= 7 IEnMin= 7 EnMin= -886.242231287293     IErMin= 7 ErrMin= 7.19D-05
 ErrMax= 7.19D-05  0.00D+00 EMaxC= 1.00D-01 BMatC= 1.78D-06 BMatP= 5.40D-06
 IDIUse=1 WtCom= 1.00D+00 WtEn= 0.00D+00
 Coeff-Com:  0.258D-02-0.898D-03-0.249D-01-0.127D+00-0.802D-01 0.379D+00
 Coeff-Com:  0.852D+00
 Coeff:      0.258D-02-0.898D-03-0.249D-01-0.127D+00-0.802D-01 0.379D+00
 Coeff:      0.852D+00
 Gap=     0.382 Goal=   None    Shift=    0.000
 Gap=     0.280 Goal=   None    Shift=    0.000
 RMSDP=7.31D-06 MaxDP=2.87D-04 DE=-4.18D-06 OVMax= 1.95D-03

 Initial convergence to 1.0D-05 achieved.  Increase integral accuracy.
 Cycle   8  Pass 1  IDiag  1:
 E= -886.242246326606     Delta-E=       -0.000015039313 Rises=F Damp=F
 DIIS: error= 3.52D-05 at cycle   1 NSaved=   1.
 NSaved= 1 IEnMin= 1 EnMin= -886.242246326606     IErMin= 1 ErrMin= 3.52D-05
 ErrMax= 3.52D-05  0.00D+00 EMaxC= 1.00D-01 BMatC= 2.33D-06 BMatP= 2.33D-06
 IDIUse=1 WtCom= 1.00D+00 WtEn= 0.00D+00
 Coeff-Com:  0.100D+01
 Coeff:      0.100D+01
 Gap=     0.382 Goal=   None    Shift=    0.000
 Gap=     0.280 Goal=   None    Shift=    0.000
 RMSDP=7.31D-06 MaxDP=2.87D-04 DE=-1.50D-05 OVMax= 5.34D-04

 Cycle   9  Pass 1  IDiag  1:
 E= -886.242246817649     Delta-E=       -0.000000491043 Rises=F Damp=F
 DIIS: error= 2.73D-05 at cycle   2 NSaved=   2.
 NSaved= 2 IEnMin= 2 EnMin= -886.242246817649     IErMin= 2 ErrMin= 2.73D-05
 ErrMax= 2.73D-05  0.00D+00 EMaxC= 1.00D-01 BMatC= 1.05D-06 BMatP= 2.33D-06
 IDIUse=1 WtCom= 1.00D+00 WtEn= 0.00D+00
 Coeff-Com:  0.347D+00 0.653D+00
 Coeff:      0.347D+00 0.653D+00
 Gap=     0.382 Goal=   None    Shift=    0.000
 Gap=     0.280 Goal=   None    Shift=    0.000
 RMSDP=2.02D-06 MaxDP=1.14D-04 DE=-4.91D-07 OVMax= 2.85D-04

 Cycle  10  Pass 1  IDiag  1:
 E= -886.242246956591     Delta-E=       -0.000000138942 Rises=F Damp=F
 DIIS: error= 1.67D-05 at cycle   3 NSaved=   3.
 NSaved= 3 IEnMin= 3 EnMin= -886.242246956591     IErMin= 3 ErrMin= 1.67D-05
 ErrMax= 1.67D-05  0.00D+00 EMaxC= 1.00D-01 BMatC= 5.74D-07 BMatP= 1.05D-06
 IDIUse=1 WtCom= 1.00D+00 WtEn= 0.00D+00
 Coeff-Com: -0.481D-01 0.423D+00 0.625D+00
 Coeff:     -0.481D-01 0.423D+00 0.625D+00
 Gap=     0.382 Goal=   None    Shift=    0.000
 Gap=     0.280 Goal=   None    Shift=    0.000
 RMSDP=1.32D-06 MaxDP=5.43D-05 DE=-1.39D-07 OVMax= 2.24D-04

 Cycle  11  Pass 1  IDiag  1:
 E= -886.242247090915     Delta-E=       -0.000000134324 Rises=F Damp=F
 DIIS: error= 9.46D-06 at cycle   4 NSaved=   4.
 NSaved= 4 IEnMin= 4 EnMin= -886.242247090915     IErMin= 4 ErrMin= 9.46D-06
 ErrMax= 9.46D-06  0.00D+00 EMaxC= 1.00D-01 BMatC= 4.13D-08 BMatP= 5.74D-07
 IDIUse=1 WtCom= 1.00D+00 WtEn= 0.00D+00
 Coeff-Com: -0.407D-01 0.148D+00 0.271D+00 0.622D+00
 Coeff:     -0.407D-01 0.148D+00 0.271D+00 0.622D+00
 Gap=     0.382 Goal=   None    Shift=    0.000
 Gap=     0.280 Goal=   None    Shift=    0.000
 RMSDP=5.26D-07 MaxDP=2.00D-05 DE=-1.34D-07 OVMax= 1.25D-04

 Cycle  12  Pass 1  IDiag  1:
 E= -886.242247111708     Delta-E=       -0.000000020793 Rises=F Damp=F
 DIIS: error= 7.17D-06 at cycle   5 NSaved=   5.
 NSaved= 5 IEnMin= 5 EnMin= -886.242247111708     IErMin= 5 ErrMin= 7.17D-06
 ErrMax= 7.17D-06  0.00D+00 EMaxC= 1.00D-01 BMatC= 1.46D-08 BMatP= 4.13D-08
 IDIUse=1 WtCom= 1.00D+00 WtEn= 0.00D+00
 Coeff-Com:  0.111D-01-0.187D+00-0.267D+00 0.264D+00 0.118D+01
 Coeff:      0.111D-01-0.187D+00-0.267D+00 0.264D+00 0.118D+01
 Gap=     0.382 Goal=   None    Shift=    0.000
 Gap=     0.280 Goal=   None    Shift=    0.000
 RMSDP=8.89D-07 MaxDP=2.85D-05 DE=-2.08D-08 OVMax= 2.44D-04

 Cycle  13  Pass 1  IDiag  1:
 E= -886.242247131489     Delta-E=       -0.000000019781 Rises=F Damp=F
 DIIS: error= 2.49D-06 at cycle   6 NSaved=   6.
 NSaved= 6 IEnMin= 6 EnMin= -886.242247131489     IErMin= 6 ErrMin= 2.49D-06
 ErrMax= 2.49D-06  0.00D+00 EMaxC= 1.00D-01 BMatC= 3.69D-09 BMatP= 1.46D-08
 IDIUse=1 WtCom= 1.00D+00 WtEn= 0.00D+00
 Coeff-Com:  0.148D-01-0.125D+00-0.197D+00-0.213D-01 0.574D+00 0.754D+00
 Coeff:      0.148D-01-0.125D+00-0.197D+00-0.213D-01 0.574D+00 0.754D+00
 Gap=     0.382 Goal=   None    Shift=    0.000
 Gap=     0.280 Goal=   None    Shift=    0.000
 RMSDP=3.56D-07 MaxDP=9.96D-06 DE=-1.98D-08 OVMax= 9.39D-05

 Cycle  14  Pass 1  IDiag  1:
 E= -886.242247134544     Delta-E=       -0.000000003055 Rises=F Damp=F
 DIIS: error= 8.71D-07 at cycle   7 NSaved=   7.
 NSaved= 7 IEnMin= 7 EnMin= -886.242247134544     IErMin= 7 ErrMin= 8.71D-07
 ErrMax= 8.71D-07  0.00D+00 EMaxC= 1.00D-01 BMatC= 5.14D-10 BMatP= 3.69D-09
 IDIUse=1 WtCom= 1.00D+00 WtEn= 0.00D+00
 Coeff-Com:  0.396D-02-0.118D-01-0.255D-01-0.661D-01-0.206D-01 0.300D+00
 Coeff-Com:  0.820D+00
 Coeff:      0.396D-02-0.118D-01-0.255D-01-0.661D-01-0.206D-01 0.300D+00
 Coeff:      0.820D+00
 Gap=     0.382 Goal=   None    Shift=    0.000
 Gap=     0.280 Goal=   None    Shift=    0.000
 RMSDP=1.38D-07 MaxDP=4.57D-06 DE=-3.05D-09 OVMax= 3.66D-05

 Cycle  15  Pass 1  IDiag  1:
 E= -886.242247134905     Delta-E=       -0.000000000361 Rises=F Damp=F
 DIIS: error= 2.57D-07 at cycle   8 NSaved=   8.
 NSaved= 8 IEnMin= 8 EnMin= -886.242247134905     IErMin= 8 ErrMin= 2.57D-07
 ErrMax= 2.57D-07  0.00D+00 EMaxC= 1.00D-01 BMatC= 5.13D-11 BMatP= 5.14D-10
 IDIUse=1 WtCom= 1.00D+00 WtEn= 0.00D+00
 Coeff-Com: -0.122D-02 0.163D-01 0.236D-01-0.132D-01-0.953D-01-0.306D-01
 Coeff-Com:  0.250D+00 0.851D+00
 Coeff:     -0.122D-02 0.163D-01 0.236D-01-0.132D-01-0.953D-01-0.306D-01
 Coeff:      0.250D+00 0.851D+00
 Gap=     0.382 Goal=   None    Shift=    0.000
 Gap=     0.280 Goal=   None    Shift=    0.000
 RMSDP=3.36D-08 MaxDP=1.22D-06 DE=-3.61D-10 OVMax= 7.32D-06

 Cycle  16  Pass 1  IDiag  1:
 E= -886.242247134927     Delta-E=       -0.000000000022 Rises=F Damp=F
 DIIS: error= 4.56D-08 at cycle   9 NSaved=   9.
 NSaved= 9 IEnMin= 9 EnMin= -886.242247134927     IErMin= 9 ErrMin= 4.56D-08
 ErrMax= 4.56D-08  0.00D+00 EMaxC= 1.00D-01 BMatC= 3.24D-12 BMatP= 5.13D-11
 IDIUse=1 WtCom= 1.00D+00 WtEn= 0.00D+00
 Coeff-Com: -0.282D-03 0.201D-02 0.333D-02 0.400D-02-0.631D-02-0.263D-01
 Coeff-Com: -0.454D-01 0.137D+00 0.932D+00
 Coeff:     -0.282D-03 0.201D-02 0.333D-02 0.400D-02-0.631D-02-0.263D-01
 Coeff:     -0.454D-01 0.137D+00 0.932D+00
 Gap=     0.382 Goal=   None    Shift=    0.000
 Gap=     0.280 Goal=   None    Shift=    0.000
 RMSDP=7.60D-09 MaxDP=1.97D-07 DE=-2.18D-11 OVMax= 1.11D-06

 SCF Done:  E(UM062X) =  -886.242247135     A.U. after   16 cycles
            NFock= 16  Conv=0.76D-08     -V/T= 2.0025
 <Sx>= 0.0000 <Sy>= 0.0000 <Sz>= 0.5000 <S**2>= 0.7577 S= 0.5038
 <L.S>=  0.00000000000    
 KE= 8.840386704202D+02 PE=-2.976404231634D+03 EE= 7.696275044713D+02
 Annihilation of the first spin contaminant:
 S**2 before annihilation     0.7577,   after     0.7500
 Leave Link  502 at Sun May 25 03:23:57 2025, MaxMem=  3758096384 cpu:              70.7 elap:              15.3
 (Enter /apps/easybuild-2022/easybuild/software/Compiler/NVHPC/22.11-CUDA-11.7.0/Gaussian/g16c01-CUDA-11.7.0/g16/l508.exe)
 QCSCF skips out because SCF is already converged.
 Leave Link  508 at Sun May 25 03:23:57 2025, MaxMem=  3758096384 cpu:               0.0 elap:               0.0
 (Enter /apps/easybuild-2022/easybuild/software/Compiler/NVHPC/22.11-CUDA-11.7.0/Gaussian/g16c01-CUDA-11.7.0/g16/l701.exe)
 ... and contract with generalized density number  0.
 Compute integral first derivatives.
   1 Symmetry operations used in ECPInt.
 ECPInt:  NShTT=    3240 NPrTT=   11045 LenC2=    3130 LenP2D=    8210.
 LDataN:  DoStor=T MaxTD1= 7 Len=  274
 Leave Link  701 at Sun May 25 03:23:57 2025, MaxMem=  3758096384 cpu:               0.5 elap:               0.1
 (Enter /apps/easybuild-2022/easybuild/software/Compiler/NVHPC/22.11-CUDA-11.7.0/Gaussian/g16c01-CUDA-11.7.0/g16/l702.exe)
 L702 exits ... SP integral derivatives will be done elsewhere.
 Leave Link  702 at Sun May 25 03:23:57 2025, MaxMem=  3758096384 cpu:               0.0 elap:               0.0
 (Enter /apps/easybuild-2022/easybuild/software/Compiler/NVHPC/22.11-CUDA-11.7.0/Gaussian/g16c01-CUDA-11.7.0/g16/l703.exe)
 Integral derivatives from FoFJK, PRISM(SPDF).
 Compute integral first derivatives, UseDBF=F ICtDFT=           0.
 Calling FoFJK, ICntrl=      2127 FMM=F ISym2X=0 I1Cent= 0 IOpClX= 1 NMat=1 NMatS=1 NMatT=0.
 FoFJK:  IHMeth= 1 ICntrl=    2127 DoSepK=F KAlg= 0 I1Cent=           0 FoldK=F
 IRaf=         0 NMat=       1 IRICut=       1 DoRegI=T DoRafI=F ISym2E= 0 IDoP0=0 IntGTp=1.
 FoFCou: FMM=F IPFlag=           0 FMFlag=      100000 FMFlg1=         800
         NFxFlg=           0 DoJE=F BraDBF=F KetDBF=F FulRan=T
         wScrn=  0.000000 ICntrl=      2127 IOpCl=  1 I1Cent=           0 NGrid=           0
         NMat0=    1 NMatS0=      1 NMatT0=    0 NMatD0=    1 NMtDS0=    0 NMtDT0=    0
 Symmetry not used in FoFCou.
 Leave Link  703 at Sun May 25 03:24:00 2025, MaxMem=  3758096384 cpu:              26.5 elap:               3.4
 (Enter /apps/easybuild-2022/easybuild/software/Compiler/NVHPC/22.11-CUDA-11.7.0/Gaussian/g16c01-CUDA-11.7.0/g16/l716.exe)
 Dipole        =-4.51422724D-01 5.25214172D-01 3.50717157D-02
 -------------------------------------------------------------------
 Center     Atomic                   Forces (Hartrees/Bohr)
 Number     Number              X              Y              Z
 -------------------------------------------------------------------
      1        6          -0.003332453   -0.000355564    0.000047189
      2        9           0.000134202   -0.000080604   -0.000044923
      3        9           0.000206269   -0.000027527   -0.000075911
      4        9          -0.000095725   -0.000103600    0.000091214
      5       16           0.001451733    0.003476483   -0.001181963
      6        8           0.001047699   -0.001953221    0.002849495
      7        8           0.000588276   -0.000955967   -0.001685101
 -------------------------------------------------------------------
 Cartesian Forces:  Max     0.003476483 RMS     0.001448481
 Leave Link  716 at Sun May 25 03:24:00 2025, MaxMem=  3758096384 cpu:               0.0 elap:               0.0
 (Enter /apps/easybuild-2022/easybuild/software/Compiler/NVHPC/22.11-CUDA-11.7.0/Gaussian/g16c01-CUDA-11.7.0/g16/l103.exe)

 GradGradGradGradGradGradGradGradGradGradGradGradGradGradGradGradGradGrad
 Berny optimization.
 Using GEDIIS/GDIIS optimizer.
 FormGI is forming the generalized inverse of G from B-inverse, IUseBI=4.
 Internal  Forces:  Max     0.003570048 RMS     0.001144317
 Search for a local minimum.
 Step number   2 out of a maximum of   31
 All quantities printed in internal units (Hartrees-Bohrs-Radians)
 RMS Force = .11443D-02 SwitMx=.10000D-02 MixMth= 1
 Mixed Optimization -- RFO/linear search
 Update second derivatives using D2CorX and points    1    2
 DE= -3.35D-03 DEPred=-3.18D-03 R= 1.05D+00
 TightC=F SS=  1.41D+00  RLast= 1.64D-01 DXNew= 5.0454D-01 4.9345D-01
 Trust test= 1.05D+00 RLast= 1.64D-01 DXMaxT set to 4.93D-01
 ITU=  1  0
 Use linear search instead of GDIIS.
     Eigenvalues ---    0.00241   0.09636   0.11724   0.11952   0.15456
     Eigenvalues ---    0.15782   0.19606   0.22338   0.27939   0.36120
     Eigenvalues ---    0.41112   0.42305   0.58254   0.73515   0.77460
 RFO step:  Lambda=-6.44417793D-05 EMin= 2.41354729D-03
 Quartic linear search produced a step of  0.13217.
 Iteration  1 RMS(Cart)=  0.03041772 RMS(Int)=  0.00043808
 Iteration  2 RMS(Cart)=  0.00042098 RMS(Int)=  0.00011957
 Iteration  3 RMS(Cart)=  0.00000009 RMS(Int)=  0.00011957
 ITry= 1 IFail=0 DXMaxC= 7.51D-02 DCOld= 1.00D+10 DXMaxT= 4.93D-01 DXLimC= 3.00D+00 Rises=F
 Variable       Old X    -DE/DX   Delta X   Delta X   Delta X     New X
                                 (Linear)    (Quad)   (Total)
    R1        2.48671  -0.00006  -0.00259   0.00051  -0.00208   2.48463
    R2        2.48590  -0.00015  -0.00081   0.00015  -0.00067   2.48524
    R3        2.48622   0.00012  -0.00079  -0.00052  -0.00131   2.48492
    R4        3.57699   0.00312   0.01319   0.00998   0.02317   3.60015
    R5        2.71532   0.00357   0.00639  -0.00094   0.00545   2.72077
    R6        2.71786   0.00201   0.00482  -0.00140   0.00342   2.72128
    A1        1.92171   0.00021   0.00202   0.00027   0.00226   1.92397
    A2        1.92112   0.00003   0.00144   0.00067   0.00211   1.92323
    A3        1.89542  -0.00016  -0.00140   0.00215   0.00074   1.89615
    A4        1.92178   0.00002   0.00089  -0.00004   0.00084   1.92262
    A5        1.89863  -0.00031  -0.00356  -0.00121  -0.00479   1.89384
    A6        1.90474   0.00021   0.00057  -0.00185  -0.00128   1.90345
    A7        1.83027  -0.00034  -0.00539  -0.00076  -0.00634   1.82393
    A8        1.82514  -0.00009  -0.00497   0.00610   0.00095   1.82609
    A9        2.14729  -0.00027  -0.00185  -0.00291  -0.00516   2.14213
    D1        3.01258   0.00033   0.00595   0.04862   0.05446   3.06704
    D2       -0.98996  -0.00023  -0.00302   0.04824   0.04534  -0.94462
    D3        0.92100   0.00036   0.00648   0.04774   0.05410   0.97510
    D4       -3.08154  -0.00020  -0.00249   0.04736   0.04498  -3.03656
    D5       -1.17617   0.00040   0.00720   0.04961   0.05670  -1.11947
    D6        1.10448  -0.00016  -0.00177   0.04923   0.04757   1.15206
         Item               Value     Threshold  Converged?
 Maximum Force            0.003570     0.000450     NO 
 RMS     Force            0.001144     0.000300     NO 
 Maximum Displacement     0.075073     0.001800     NO 
 RMS     Displacement     0.030431     0.001200     NO 
 Predicted change in Energy=-5.745012D-05
 Lowest energy point so far.  Saving SCF results.
 GradGradGradGradGradGradGradGradGradGradGradGradGradGradGradGradGradGrad

 Leave Link  103 at Sun May 25 03:24:00 2025, MaxMem=  3758096384 cpu:               0.0 elap:               0.0
 (Enter /apps/easybuild-2022/easybuild/software/Compiler/NVHPC/22.11-CUDA-11.7.0/Gaussian/g16c01-CUDA-11.7.0/g16/l202.exe)
                          Input orientation:                          
 ---------------------------------------------------------------------
 Center     Atomic      Atomic             Coordinates (Angstroms)
 Number     Number       Type             X           Y           Z
 ---------------------------------------------------------------------
      1          6           0       -0.093687   -0.058940    0.059964
      2          9           0       -0.582831    0.584817   -0.976875
      3          9           0       -0.547898    0.465975    1.176981
      4          9           0       -0.413049   -1.332887   -0.004760
      5         16           0        1.803967    0.108470    0.040884
      6          8           0        2.234755   -0.532836    1.255825
      7          8           0        2.196694   -0.353787   -1.265180
 ---------------------------------------------------------------------
                    Distance matrix (angstroms):
                    1          2          3          4          5
     1  C    0.000000
     2  F    1.314808   0.000000
     3  F    1.315131   2.157415   0.000000
     4  F    1.314961   2.156716   2.156525   0.000000
     5  S    1.905120   2.638095   2.636246   2.644760   0.000000
     6  O    2.660132   3.764689   2.957532   3.039740   1.439768
     7  O    2.662478   2.947856   3.764165   3.059094   1.440041
                    6          7
     6  O    0.000000
     7  O    2.527641   0.000000
 Symmetry turned off by external request.
 Stoichiometry    CF3O2S
 Rotational constants (GHZ):           3.5314408           1.9953780           1.6802040
 Leave Link  202 at Sun May 25 03:24:01 2025, MaxMem=  3758096384 cpu:               0.0 elap:               0.0
 (Enter /apps/easybuild-2022/easybuild/software/Compiler/NVHPC/22.11-CUDA-11.7.0/Gaussian/g16c01-CUDA-11.7.0/g16/l301.exe)
 Standard basis: def2TZVPP (5D, 7F)
 Ernie: Thresh=  0.10000D-02 Tol=  0.10000D-05 Strict=F.
   228 basis functions,   375 primitive gaussians,   264 cartesian basis functions
    33 alpha electrons       32 beta electrons
       nuclear repulsion energy       435.6885437283 Hartrees.
 IExCor= 4336 DFT=T Ex+Corr=M062X ExCW=0 ScaHFX=  0.540000
 ScaDFX=  1.000000  1.000000  1.000000  1.000000 ScalE2=  1.000000  1.000000
 IRadAn=      5 IRanWt=     -1 IRanGd=            0 ICorTp=0 IEmpDi=  4
 NAtoms=    7 NActive=    7 NUniq=    7 SFac= 1.00D+00 NAtFMM=   60 NAOKFM=F Big=F
 Integral buffers will be    131072 words long.
 Raffenetti 2 integral format.
 Two-electron integral symmetry is turned off.
 Leave Link  301 at Sun May 25 03:24:01 2025, MaxMem=  3758096384 cpu:               0.0 elap:               0.0
 (Enter /apps/easybuild-2022/easybuild/software/Compiler/NVHPC/22.11-CUDA-11.7.0/Gaussian/g16c01-CUDA-11.7.0/g16/l302.exe)
 NPDir=0 NMtPBC=     1 NCelOv=     1 NCel=       1 NClECP=     1 NCelD=      1
         NCelK=      1 NCelE2=     1 NClLst=     1 CellRange=     0.0.
 One-electron integrals computed using PRISM.
   1 Symmetry operations used in ECPInt.
 ECPInt:  NShTT=    3240 NPrTT=   11045 LenC2=    3129 LenP2D=    8206.
 LDataN:  DoStor=T MaxTD1= 6 Len=  172
 NBasis=   228 RedAO= T EigKep=  1.46D-03  NBF=   228
 NBsUse=   228 1.00D-06 EigRej= -1.00D+00 NBFU=   228
 Precomputing XC quadrature grid using
 IXCGrd= 4 IRadAn=           5 IRanWt=          -1 IRanGd=           0 AccXCQ= 0.00D+00.
 Generated NRdTot=       0 NPtTot=           0 NUsed=           0 NTot=          32
 NSgBfM=   261   261   261   261   261 MxSgAt=     7 MxSgA2=     7.
 Leave Link  302 at Sun May 25 03:24:01 2025, MaxMem=  3758096384 cpu:               0.4 elap:               0.1
 (Enter /apps/easybuild-2022/easybuild/software/Compiler/NVHPC/22.11-CUDA-11.7.0/Gaussian/g16c01-CUDA-11.7.0/g16/l303.exe)
 DipDrv:  MaxL=1.
 Leave Link  303 at Sun May 25 03:24:01 2025, MaxMem=  3758096384 cpu:               0.0 elap:               0.0
 (Enter /apps/easybuild-2022/easybuild/software/Compiler/NVHPC/22.11-CUDA-11.7.0/Gaussian/g16c01-CUDA-11.7.0/g16/l401.exe)
 Initial guess from the checkpoint file:  "1332333552100000000002_well.chk"
 B after Tr=     0.001521    0.000471    0.000899
         Rot=    1.000000    0.000616    0.000184   -0.000102 Ang=   0.07 deg.
 Guess basis will be translated and rotated to current coordinates.
 JPrj=2 DoOrth=T DoCkMO=T.
 Initial guess <Sx>= 0.0000 <Sy>= 0.0000 <Sz>= 0.5000 <S**2>= 0.7577 S= 0.5039
 Generating alternative initial guess.
 ExpMin= 9.52D-02 ExpMax= 6.07D+04 ExpMxC= 2.07D+03 IAcc=3 IRadAn=         5 AccDes= 0.00D+00
 Harris functional with IExCor= 1009 and IRadAn=       5 diagonalized for initial guess.
 HarFok:  IExCor= 1009 AccDes= 0.00D+00 IRadAn=         5 IDoV= 1 UseB2=F ITyADJ=14
 ICtDFT=  3500011 ScaDFX=  1.000000  1.000000  1.000000  1.000000
 FoFCou: FMM=F IPFlag=           0 FMFlag=      100000 FMFlg1=           0
         NFxFlg=           0 DoJE=T BraDBF=F KetDBF=T FulRan=T
         wScrn=  0.000000 ICntrl=       500 IOpCl=  0 I1Cent=   200000004 NGrid=           0
         NMat0=    1 NMatS0=      1 NMatT0=    0 NMatD0=    1 NMtDS0=    0 NMtDT0=    0
 Symmetry not used in FoFCou.
 Harris En= -885.825247120744    
 Leave Link  401 at Sun May 25 03:24:01 2025, MaxMem=  3758096384 cpu:               2.0 elap:               0.3
 (Enter /apps/easybuild-2022/easybuild/software/Compiler/NVHPC/22.11-CUDA-11.7.0/Gaussian/g16c01-CUDA-11.7.0/g16/l502.exe)
 Keep R1 and R2 ints in memory in canonical form, NReq=690854758.
 FoFCou: FMM=F IPFlag=           0 FMFlag=           0 FMFlg1=           0
         NFxFlg=           0 DoJE=F BraDBF=F KetDBF=F FulRan=T
         wScrn=  0.000000 ICntrl=       600 IOpCl=  0 I1Cent=           0 NGrid=           0
         NMat0=    1 NMatS0=  26106 NMatT0=    0 NMatD0=    1 NMtDS0=    0 NMtDT0=    0
 Symmetry not used in FoFCou.
 Two-electron integral symmetry not used.
 UHF open shell SCF:
 Using DIIS extrapolation, IDIIS=  1040.
 NGot=  3758096384 LenX=  3076403674 LenY=  3076333537
 Requested convergence on RMS density matrix=1.00D-08 within  32 cycles.
 Requested convergence on MAX density matrix=1.00D-06.
 Requested convergence on             energy=1.00D-06.
 No special actions if energy rises.
 Integral accuracy reduced to 1.0D-05 until final iterations.

 Cycle   1  Pass 0  IDiag  1:
 E= -886.240436633458    
 DIIS: error= 3.56D-03 at cycle   1 NSaved=   1.
 NSaved= 1 IEnMin= 1 EnMin= -886.240436633458     IErMin= 1 ErrMin= 3.56D-03
 ErrMax= 3.56D-03  0.00D+00 EMaxC= 1.00D-01 BMatC= 6.58D-03 BMatP= 6.58D-03
 IDIUse=3 WtCom= 9.64D-01 WtEn= 3.56D-02
 Coeff-Com:  0.100D+01
 Coeff-En:   0.100D+01
 Coeff:      0.100D+01
 Gap=     1.097 Goal=   None    Shift=    0.000
 Gap=     1.143 Goal=   None    Shift=    0.000
 GapD=    1.097 DampG=2.000 DampE=1.000 DampFc=2.0000 IDamp=-1.
 RMSDP=1.56D-04 MaxDP=3.73D-03              OVMax= 1.14D-02

 Cycle   2  Pass 0  IDiag  1:
 E= -886.242197527933     Delta-E=       -0.001760894475 Rises=F Damp=F
 DIIS: error= 3.96D-04 at cycle   2 NSaved=   2.
 NSaved= 2 IEnMin= 2 EnMin= -886.242197527933     IErMin= 2 ErrMin= 3.96D-04
 ErrMax= 3.96D-04  0.00D+00 EMaxC= 1.00D-01 BMatC= 2.13D-04 BMatP= 6.58D-03
 IDIUse=3 WtCom= 9.96D-01 WtEn= 3.96D-03
 Coeff-Com: -0.107D+00 0.111D+01
 Coeff-En:   0.000D+00 0.100D+01
 Coeff:     -0.107D+00 0.111D+01
 Gap=     0.381 Goal=   None    Shift=    0.000
 Gap=     0.278 Goal=   None    Shift=    0.000
 RMSDP=4.29D-05 MaxDP=1.05D-03 DE=-1.76D-03 OVMax= 4.55D-03

 Cycle   3  Pass 0  IDiag  1:
 E= -886.242265924145     Delta-E=       -0.000068396212 Rises=F Damp=F
 DIIS: error= 3.79D-04 at cycle   3 NSaved=   3.
[...]
     12 -0.144762D-02 -0.534429D-02 -0.542550D-01 -0.119932D-01  0.508633D-02
     13 -0.466392D-02 -0.755428D-02  0.473219D-02  0.499181D-02 -0.186558D-01
     14  0.541713D-02  0.637765D-02  0.399261D-02 -0.327548D-02 -0.377454D-01
     15 -0.154467D-01  0.252969D-01 -0.479337D-02 -0.175901D-01 -0.211079D-02
     16 -0.545288D-02 -0.131659D-02 -0.117520D-02  0.853173D-03  0.193188D-02
     17  0.630710D-03  0.207756D-02 -0.553241D-03 -0.222421D-02  0.606356D-02
     18 -0.520420D-03 -0.338930D-02  0.998406D-03  0.714023D-02 -0.125075D-02
     19 -0.660741D-03 -0.110108D-01  0.886721D-03  0.594517D-02  0.190651D-02
     20  0.121683D-02  0.221670D-02 -0.175286D-03 -0.637782D-03  0.593715D-02
     21  0.713780D-02  0.645290D-02 -0.155354D-02 -0.117411D-02  0.215199D-02
               11            12            13            14            15 
     11  0.438728D+00
     12  0.200375D-01  0.824647D-01
     13 -0.118770D-01 -0.422110D-03  0.310668D+00
     14 -0.311804D-01 -0.110663D-02 -0.135212D+00  0.347889D+00
     15 -0.162534D-02 -0.137677D-02  0.391864D-02 -0.386371D-01  0.998735D+00
     16 -0.476599D-03  0.132644D-02 -0.107550D+00  0.788853D-01 -0.150037D+00
     17  0.836543D-02 -0.122378D-02  0.994937D-01 -0.172456D+00  0.229430D+00
     18 -0.429126D-02  0.288810D-02 -0.133212D+00  0.192130D+00 -0.452718D+00
     19 -0.236864D-03 -0.136036D-02 -0.977754D-01  0.538441D-01  0.144808D+00
     20  0.756027D-02  0.152224D-02  0.753089D-01 -0.123623D+00 -0.190131D+00
     21  0.492149D-02  0.361503D-02  0.130684D+00 -0.152227D+00 -0.512996D+00
               16            17            18            19            20 
     16  0.101032D+00
     17 -0.924833D-01  0.143535D+00
     18  0.159560D+00 -0.217963D+00  0.477265D+00
     19  0.136350D-01 -0.493179D-02 -0.133050D-01  0.900900D-01
     20 -0.599505D-02  0.223400D-01  0.206712D-01 -0.655190D-01  0.937361D-01
     21  0.115825D-01 -0.155286D-01 -0.159260D-01 -0.154834D+00  0.171261D+00
               21 
     21  0.539641D+00
 FormGI is forming the generalized inverse of G from B-inverse, IUseBI=4.
 Force constants in internal coordinates: 
                1             2             3             4             5 
      1  0.462230D+00
      2  0.531310D-01  0.462140D+00
      3  0.529927D-01  0.529969D-01  0.458779D+00
      4  0.181356D-01  0.181640D-01  0.175589D-01  0.118331D+00
      5  0.646297D-02  0.791072D-02  0.775659D-02  0.113932D-01  0.646862D+00
      6  0.801433D-02  0.635215D-02  0.787333D-02  0.115001D-01 -0.400838D-03
      7  0.286300D-01  0.286490D-01 -0.151232D-02 -0.176314D-01 -0.512653D-02
      8  0.267033D-01 -0.114792D-02  0.285071D-01 -0.164114D-01 -0.347522D-02
      9  0.653322D-02 -0.310325D-01 -0.305834D-01  0.175835D-01  0.147613D-01
     10 -0.119617D-02  0.268142D-01  0.285290D-01 -0.163888D-01 -0.487489D-02
     11 -0.310525D-01  0.654437D-02 -0.304923D-01  0.175061D-01 -0.376146D-03
     12 -0.310806D-01 -0.312917D-01  0.379224D-02  0.167834D-01 -0.515216D-03
     13  0.191199D-01 -0.637585D-02 -0.855084D-02  0.735056D-02  0.344471D-01
     14 -0.658421D-02  0.191765D-01 -0.844839D-02  0.725568D-02 -0.118986D-01
     15 -0.381186D-02 -0.389204D-02 -0.823870D-03  0.222206D-02 -0.153642D-03
     16  0.255532D-03  0.173772D-01 -0.133739D-01 -0.586142D-02 -0.691809D-02
     17  0.280732D-02  0.199754D-01 -0.238747D-01  0.494130D-02  0.555223D-02
     18 -0.199914D-01 -0.290812D-02  0.238582D-01 -0.498340D-02 -0.908832D-02
     19 -0.174397D-01 -0.309972D-03  0.133574D-01  0.581931D-02  0.338200D-02
     20  0.181814D-01 -0.208499D-01  0.520098D-02 -0.541288D-02 -0.266038D-02
     21  0.207332D-01 -0.182518D-01 -0.529978D-02  0.538984D-02  0.980993D-02
                6             7             8             9            10 
      6  0.647678D+00
      7 -0.514635D-02  0.129041D+00
      8 -0.494446D-02  0.249939D-01  0.129750D+00
      9 -0.801224D-03 -0.810649D-01 -0.834143D-01  0.167806D+00
     10 -0.354986D-02  0.249717D-01  0.249230D-01 -0.221149D-01  0.129773D+00
     11  0.155574D-01 -0.811715D-01 -0.221692D-01  0.947959D-02 -0.834776D-01
     12 -0.715313D-03 -0.215825D-01 -0.793923D-01  0.146484D-01 -0.793920D-01
     13 -0.118369D-01 -0.651014D-02 -0.594929D-02  0.323659D-01  0.260525D-02
     14  0.302749D-01 -0.650784D-02  0.261319D-02 -0.340863D-02 -0.591554D-02
     15  0.949882D-03  0.511290D-02  0.334276D-02 -0.929156D-02  0.333947D-02
     16 -0.290036D-02  0.312630D-01 -0.318519D-01 -0.364955D-02 -0.135707D-02
     17  0.854886D-02  0.299743D-01 -0.297940D-01  0.166972D-02  0.714120D-03
     18 -0.526079D-02 -0.299992D-01 -0.717603D-03 -0.886703D-02  0.298050D-01
     19  0.618843D-02 -0.312879D-01  0.134035D-02 -0.354776D-02  0.318762D-01
     20 -0.978262D-02  0.675479D-03  0.289770D-01  0.365845D-02 -0.310183D-01
     21  0.166659D-02 -0.613179D-03  0.310350D-01  0.897773D-02 -0.289471D-01
               11            12            13            14            15 
     11  0.168051D+00
     12  0.146490D-01  0.156252D+00
     13 -0.345243D-02 -0.187478D-01  0.183127D+00
     14  0.322248D-01 -0.186926D-01  0.234837D-01  0.184363D+00
     15 -0.914832D-02  0.629047D-02 -0.762384D-01 -0.768248D-01  0.934107D-01
     16  0.353641D-02  0.229839D-02 -0.962381D-02 -0.783058D-02 -0.142192D-01
     17  0.890937D-02 -0.113004D-01  0.166249D-01  0.183725D-01  0.977173D-02
     18 -0.168422D-02  0.112907D-01 -0.185528D-01 -0.167035D-01 -0.968215D-02
     19  0.368875D-02 -0.230816D-02  0.769594D-02  0.949961D-02  0.143088D-01
     20 -0.905421D-02  0.679289D-02 -0.862863D-02 -0.176863D-01 -0.119915D-01
     21 -0.368124D-02 -0.680595D-02  0.176201D-01  0.851677D-02  0.119994D-01
               16            17            18            19            20 
     16  0.394385D-01
     17  0.129338D-01  0.440463D-01
     18  0.187300D-02 -0.292799D-01  0.441010D-01
     19 -0.246316D-01  0.183262D-02  0.129481D-01  0.394124D-01
     20  0.635458D-04 -0.287889D-01  0.237851D-02 -0.264739D-01  0.413108D-01
     21 -0.264411D-01  0.232358D-02 -0.287743D-01 -0.966218D-05  0.124584D-01
               21 
     21  0.412230D-01
 Leave Link  716 at Sun May 25 03:26:05 2025, MaxMem=  3758096384 cpu:               0.0 elap:               0.0
 (Enter /apps/easybuild-2022/easybuild/software/Compiler/NVHPC/22.11-CUDA-11.7.0/Gaussian/g16c01-CUDA-11.7.0/g16/l103.exe)

 GradGradGradGradGradGradGradGradGradGradGradGradGradGradGradGradGradGrad
 Berny optimization.
 Red2BG is reusing G-inverse.
 Internal  Forces:  Max     0.000137187 RMS     0.000044005
 Search for a local minimum.
 Step number   1 out of a maximum of    2
 All quantities printed in internal units (Hartrees-Bohrs-Radians)
 Second derivative matrix not updated -- analytic derivatives used.
 ITU=  0
     Eigenvalues ---    0.00227   0.08887   0.11058   0.11334   0.12447
     Eigenvalues ---    0.14928   0.19085   0.21880   0.28185   0.35368
     Eigenvalues ---    0.42680   0.42728   0.59240   0.65262   0.65404
 Angle between quadratic step and forces=  70.22 degrees.
 Linear search not attempted -- first point.
 Iteration  1 RMS(Cart)=  0.00049644 RMS(Int)=  0.00000010
 Iteration  2 RMS(Cart)=  0.00000010 RMS(Int)=  0.00000001
 ITry= 1 IFail=0 DXMaxC= 1.14D-03 DCOld= 1.00D+10 DXMaxT= 3.00D-01 DXLimC= 3.00D+00 Rises=F
 Variable       Old X    -DE/DX   Delta X   Delta X   Delta X     New X
                                 (Linear)    (Quad)   (Total)
    R1        2.48477   0.00001   0.00000  -0.00002  -0.00002   2.48475
    R2        2.48498  -0.00001   0.00000  -0.00007  -0.00007   2.48491
    R3        2.48476   0.00001   0.00000   0.00002   0.00002   2.48478
    R4        3.60428   0.00008   0.00000   0.00082   0.00082   3.60509
    R5        2.72112  -0.00014   0.00000  -0.00022  -0.00022   2.72090
    R6        2.72105  -0.00011   0.00000  -0.00018  -0.00018   2.72087
    A1        1.92412  -0.00000   0.00000   0.00005   0.00005   1.92416
    A2        1.92311   0.00000   0.00000   0.00004   0.00004   1.92315
    A3        1.89467   0.00002   0.00000   0.00015   0.00015   1.89482
    A4        1.92292   0.00001   0.00000   0.00004   0.00004   1.92297
    A5        1.89477  -0.00001   0.00000  -0.00007  -0.00007   1.89470
    A6        1.90367  -0.00002   0.00000  -0.00022  -0.00022   1.90345
    A7        1.82513  -0.00002   0.00000  -0.00012  -0.00012   1.82501
    A8        1.82575  -0.00000   0.00000  -0.00002  -0.00002   1.82573
    A9        2.14246   0.00001   0.00000   0.00004   0.00004   2.14250
    D1        3.05634  -0.00000   0.00000  -0.00073  -0.00073   3.05561
    D2       -0.95445  -0.00000   0.00000  -0.00076  -0.00076  -0.95521
    D3        0.96454  -0.00001   0.00000  -0.00083  -0.00083   0.96371
    D4       -3.04625  -0.00001   0.00000  -0.00086  -0.00086  -3.04711
    D5       -1.13108   0.00000   0.00000  -0.00071  -0.00071  -1.13179
    D6        1.14132   0.00001   0.00000  -0.00074  -0.00074   1.14058
         Item               Value     Threshold  Converged?
 Maximum Force            0.000137     0.000450     YES
 RMS     Force            0.000044     0.000300     YES
 Maximum Displacement     0.001141     0.001800     YES
 RMS     Displacement     0.000496     0.001200     YES
 Predicted change in Energy=-7.195208D-08
 Optimization completed.
    -- Stationary point found.
                           ----------------------------
                           !   Optimized Parameters   !
                           ! (Angstroms and Degrees)  !
 --------------------------                            --------------------------
 ! Name  Definition              Value          Derivative Info.                !
 --------------------------------------------------------------------------------
 ! R1    R(1,2)                  1.3149         -DE/DX =    0.0                 !
 ! R2    R(1,3)                  1.315          -DE/DX =    0.0                 !
 ! R3    R(1,4)                  1.3149         -DE/DX =    0.0                 !
 ! R4    R(1,5)                  1.9073         -DE/DX =    0.0001              !
 ! R5    R(5,6)                  1.44           -DE/DX =   -0.0001              !
 ! R6    R(5,7)                  1.4399         -DE/DX =   -0.0001              !
 ! A1    A(2,1,3)              110.2437         -DE/DX =    0.0                 !
 ! A2    A(2,1,4)              110.1858         -DE/DX =    0.0                 !
 ! A3    A(2,1,5)              108.5566         -DE/DX =    0.0                 !
 ! A4    A(3,1,4)              110.1754         -DE/DX =    0.0                 !
 ! A5    A(3,1,5)              108.5626         -DE/DX =    0.0                 !
 ! A6    A(4,1,5)              109.0721         -DE/DX =    0.0                 !
 ! A7    A(1,5,6)              104.5722         -DE/DX =    0.0                 !
 ! A8    A(1,5,7)              104.6078         -DE/DX =    0.0                 !
 ! A9    A(6,5,7)              122.7538         -DE/DX =    0.0                 !
 ! D1    D(2,1,5,6)            175.1153         -DE/DX =    0.0                 !
 ! D2    D(2,1,5,7)            -54.686          -DE/DX =    0.0                 !
 ! D3    D(3,1,5,6)             55.264          -DE/DX =    0.0                 !
 ! D4    D(3,1,5,7)           -174.5373         -DE/DX =    0.0                 !
 ! D5    D(4,1,5,6)            -64.8058         -DE/DX =    0.0                 !
 ! D6    D(4,1,5,7)             65.3929         -DE/DX =    0.0                 !
 --------------------------------------------------------------------------------
 GradGradGradGradGradGradGradGradGradGradGradGradGradGradGradGradGradGrad

 Leave Link  103 at Sun May 25 03:26:05 2025, MaxMem=  3758096384 cpu:               0.0 elap:               0.0
 (Enter /apps/easybuild-2022/easybuild/software/Compiler/NVHPC/22.11-CUDA-11.7.0/Gaussian/g16c01-CUDA-11.7.0/g16/l9999.exe)

 ----------------------------------------------------------------------

 Electric dipole moment (input orientation):
 (Debye = 10**-18 statcoulomb cm , SI units = C m)
                  (au)            (Debye)         (10**-30 SI)
   Tot        0.709921D+00      0.180444D+01      0.601896D+01
   x         -0.466606D+00     -0.118599D+01     -0.395605D+01
   y          0.533405D+00      0.135578D+01      0.452240D+01
   z          0.417807D-01      0.106196D+00      0.354231D+00

 Dipole polarizability, Alpha (input orientation).
 (esu units = cm**3 , SI units = C**2 m**2 J**-1)
 Alpha(0;0):
               (au)            (10**-24 esu)      (10**-40 SI)
   iso        0.395935D+02      0.586715D+01      0.652809D+01
   aniso      0.137181D+02      0.203281D+01      0.226181D+01
   xx         0.436651D+02      0.647050D+01      0.719940D+01
   yx        -0.172104D+01     -0.255032D+00     -0.283762D+00
   yy         0.307329D+02      0.455414D+01      0.506716D+01
   zx        -0.109096D+00     -0.161663D-01     -0.179874D-01
   zy        -0.861653D+00     -0.127684D+00     -0.142067D+00
   zz         0.443826D+02      0.657683D+01      0.731771D+01

 ----------------------------------------------------------------------

 Dipole orientation:
     6         -0.08374429         -0.22082332          0.04049009
     9         -1.34297416          1.38925208          1.45330977
     9          1.25704596         -1.75110846          1.46724075
     9         -1.65188068         -1.52571207         -1.37804046
    16          2.16344504          1.63064386         -2.08389449
     8          3.60326185         -0.27691612         -3.38490682
     8          0.56864456          3.41247261         -3.38227863

 Electric dipole moment (dipole orientation):
 (Debye = 10**-18 statcoulomb cm , SI units = C m)
                  (au)            (Debye)         (10**-30 SI)
   Tot        0.709921D+00      0.180444D+01      0.601896D+01
   x          0.000000D+00      0.000000D+00      0.000000D+00
   y          0.000000D+00      0.000000D+00      0.000000D+00
   z          0.709921D+00      0.180444D+01      0.601896D+01

 Dipole polarizability, Alpha (dipole orientation).
 (esu units = cm**3 , SI units = C**2 m**2 J**-1)
 Alpha(0;0):
               (au)            (10**-24 esu)      (10**-40 SI)
   iso        0.395935D+02      0.586715D+01      0.652809D+01
   aniso      0.137181D+02      0.203281D+01      0.226181D+01
   xx         0.395984D+02      0.586788D+01      0.652890D+01
   yx        -0.396748D+01     -0.587919D+00     -0.654148D+00
   yy         0.411832D+02      0.610272D+01      0.679020D+01
   zx        -0.514787D+01     -0.762836D+00     -0.848769D+00
   zy        -0.423700D+01     -0.627859D+00     -0.698588D+00
   zz         0.379989D+02      0.563085D+01      0.626517D+01

 ----------------------------------------------------------------------
 Unable to Open any file for archive entry.
 1\1\GINC-SPARTAN-BM189\Freq\UM062X\def2TZVPP\C1F3O2S1\AKHALILOV\25-May
 -2025\0\\#P Geom=AllCheck Guess=TCheck SCRF=Check GenChk UM062X/def2TZ
 VPP Freq\\Gaussian input prepared by ASE\\0,2\C,-0.0948184719,-0.05912
 18151,0.0599336587\F,-0.5833286987,0.5895876543,-0.9742071732\F,-0.548
 6941386,0.4610275796,1.1791512445\F,-0.4147586552,-1.3325153102,-0.010
 8311435\S,1.8050134509,0.1082228967,0.0392204777\O,2.2377897973,-0.524
 9528007,1.2579336179\O,2.1967477163,-0.3614372046,-1.2643606821\\Versi
 on=ES64L-G16RevC.01\HF=-886.2423189\S2=0.757982\S2-1=0.\S2A=0.750046\R
 MSD=1.521e-09\RMSF=6.213e-05\ZeroPoint=0.0231231\Thermal=0.0297553\ETo
 t=-886.2125637\HTot=-886.2116195\GTot=-886.2517025\Dipole=-0.4666061,0
 .533405,0.0417807\DipoleDeriv=2.0060275,-0.0845127,-0.0124774,-0.06551
 29,1.6783308,0.0048834,-0.0106337,0.0049554,1.624868,-0.6423661,0.1672
 09,-0.2371177,0.194212,-0.4151508,0.2271802,-0.315898,0.2491404,-0.611
 5782,-0.6235242,0.1300982,0.2550624,0.1480482,-0.3610401,-0.2018867,0.
 3358324,-0.223007,-0.6850392,-0.5986754,-0.2067902,-0.006759,-0.354858
 5,-0.8183658,-0.0284153,-0.0156827,-0.0305854,-0.2537625,0.897469,-0.0
 853047,0.0039523,-0.3775284,0.6965757,-0.0388737,-0.0169774,-0.0443423
 ,1.3945579,-0.525635,0.0488569,-0.1365353,0.2474049,-0.405758,0.233028
 8,-0.2423038,0.040287,-0.7129348,-0.5132956,0.0304434,0.1338747,0.2082
 347,-0.3745919,-0.1959168,0.2656633,0.0035519,-0.7561113\Polar=43.6650
 676,-1.7210434,30.7328529,-0.1090956,-0.861653,44.3826431\PG=Unknown\N
 Imag=0\\0.41576857,-0.01127054,0.58111232,0.00257507,-0.00079891,0.595
 50249,-0.12885594,0.06057531,-0.09709617,0.11403449,0.05003261,-0.1319
 3466,0.09334562,-0.07003795,0.17407795,-0.08537181,0.09558711,-0.22864
 671,0.11072133,-0.14827031,0.32119865,-0.12295777,0.04586588,0.0995142
 3,0.01833049,-0.00432631,-0.01202220,0.10695524,0.03680790,-0.11083238
 ,-0.08019234,-0.00533160,0.01767888,0.01170031,-0.05226799,0.14088622,
 0.08660082,-0.08274850,-0.25567006,0.00817295,0.00052059,-0.08227499,-
 0.11050821,0.12809556,0.36156229,-0.10140023,-0.09392409,-0.00527128,0
 .01764647,0.01832909,-0.00254979,0.01755374,0.01634797,0.00394429,0.08
 101740,-0.07303761,-0.31090400,-0.01303039,0.00057989,-0.06157213,0.03
 371822,0.00005651,-0.05099680,-0.03973018,0.08499171,0.43872759,-0.004
 00210,-0.01266739,-0.07415023,0.00471608,0.04769312,-0.00144762,-0.005
 34429,-0.05425502,-0.01199322,0.00508633,0.02003745,0.08246470,-0.0705
 5027,-0.03798724,-0.00129604,-0.00858260,0.00554171,-0.00466392,-0.007
 55428,0.00473219,0.00499181,-0.01865578,-0.01187704,-0.00042211,0.3106
 6823,0.02439642,-0.02741897,-0.00230067,0.00945416,0.00279691,0.005417
 13,0.00637765,0.00399261,-0.00327548,-0.03774539,-0.03118036,-0.001106
 63,-0.13521230,0.34788901,0.00273581,-0.00129598,0.00139166,-0.0246115
 0,0.00705281,-0.01544671,0.02529686,-0.00479337,-0.01759014,-0.0021107
 9,-0.00162534,-0.00137677,0.00391864,-0.03863713,0.99873538,0.00363641
 ,0.01963791,-0.01783258,-0.01136834,0.00160685,-0.00545288,-0.00131659
 ,-0.00117520,0.00085317,0.00193188,-0.00047660,0.00132644,-0.10754994,
 0.07888534,-0.15003698,0.10103159,-0.01327186,-0.00078055,0.00687905,0
 .00305204,-0.00045058,0.00063071,0.00207756,-0.00055324,-0.00222421,0.
 00606356,0.00836543,-0.00122378,0.09949373,-0.17245628,0.22943016,-0.0
 9248325,0.14353528,-0.00260586,0.00689214,-0.01812888,-0.00579706,0.00
 156266,-0.00052042,-0.00338930,0.00099841,0.00714023,-0.00125075,-0.00
 429126,0.00288810,-0.13321235,0.19213021,-0.45271762,0.15956028,-0.217
 96337,0.47726458,0.00435923,0.01710276,0.01940677,-0.00120457,-0.00114
 600,-0.00066074,-0.01101082,0.00088672,0.00594517,0.00190651,-0.000236
 86,-0.00136036,-0.09777536,0.05384412,0.14480795,0.01363499,-0.0049317
 9,-0.01330495,0.09009002,-0.01365693,0.00075824,-0.00390237,0.00170816
 ,-0.00059635,0.00121683,0.00221670,-0.00017529,-0.00063778,0.00593715,
 0.00756027,0.00152224,0.07530894,-0.12362292,-0.19013116,-0.00599505,0
 .02233995,0.02067122,-0.06551896,0.09373608,0.00006807,-0.00496848,-0.
 02029827,0.00389437,-0.00190449,0.00713780,0.00645290,-0.00155354,-0.0
 0117411,0.00215199,0.00492149,0.00361503,0.13068396,-0.15222743,-0.512
 99580,0.01158254,-0.01552856,-0.01592599,-0.15483383,0.17126102,0.5396
 4133\\0.00008986,-0.00001255,-0.00000171,0.00000983,-0.00001683,0.0000
 0379,-0.00000446,0.00002123,0.00000672,-0.00000909,0.00001655,0.000015
 10,-0.00016944,0.00010102,-0.00002726,0.00005631,-0.00005485,0.0001060
 5,0.00002699,-0.00005457,-0.00010269\\\@
 The archive entry for this job was punched.


 The earth never tires,
 The earth is rude, silent, incomprehensible at first,
 Nature is rude and incomprehensible at first,
 Be not discouraged, keep on,
 There are divine things well envelop'd,
 I swear to you there are divine things more beautiful than words can tell.
                                 -- Walt Whitman
 Job cpu time:       0 days  0 hours 11 minutes 26.0 seconds.
 Elapsed time:       0 days  0 hours  1 minutes 27.7 seconds.
 File lengths (MBytes):  RWF=     84 Int=      0 D2E=      0 Chk=      6 Scr=      1
 Normal termination of Gaussian 16 at Sun May 25 03:26:05 2025.
done
