 Entering Gaussian System, Link 0=g16
 Initial command:
 /apps/easybuild-2022/easybuild/software/Compiler/NVHPC/22.11-CUDA-11.7.0/Gaussian/g16c01-CUDA-11.7.0/g16/l1.exe "/tmp/Gau-47350.inp" -scrdir="/tmp/"
 Entering Link 1 = /apps/easybuild-2022/easybuild/software/Compiler/NVHPC/22.11-CUDA-11.7.0/Gaussian/g16c01-CUDA-11.7.0/g16/l1.exe PID=     47351.
  
 Copyright (c) 1988-2019, Gaussian, Inc.  All Rights Reserved.
  
 This is part of the Gaussian(R) 16 program.  It is based on
 the Gaussian(R) 09 system (copyright 2009, Gaussian, Inc.),
 the Gaussian(R) 03 system (copyright 2003, Gaussian, Inc.),
 the Gaussian(R) 98 system (copyright 1998, Gaussian, Inc.),
 the Gaussian(R) 94 system (copyright 1995, Gaussian, Inc.),
 the Gaussian 92(TM) system (copyright 1992, Gaussian, Inc.),
 the Gaussian 90(TM) system (copyright 1990, Gaussian, Inc.),
 the Gaussian 88(TM) system (copyright 1988, Gaussian, Inc.),
 the Gaussian 86(TM) system (copyright 1986, Carnegie Mellon
 University), and the Gaussian 82(TM) system (copyright 1983,
 Carnegie Mellon University). Gaussian is a federally registered
 trademark of Gaussian, Inc.
  
 This software contains proprietary and confidential information,
 including trade secrets, belonging to Gaussian, Inc.
  
 This software is provided under written license and may be
 used, copied, transmitted, or stored only in accord with that
 written license.
  
 The following legend is applicable only to US Government
 contracts under FAR:
  
                    RESTRICTED RIGHTS LEGEND
  
 Use, reproduction and disclosure by the US Government is
 subject to restrictions as set forth in subparagraphs (a)
 and (c) of the Commercial Computer Software - Restricted
 Rights clause in FAR 52.227-19.
  
 Gaussian, Inc.
 340 Quinnipiac St., Bldg. 40, Wallingford CT 06492
  
  
 ---------------------------------------------------------------
 Warning -- This program may not be used in any manner that
 competes with the business of Gaussian, Inc. or will provide
 assistance to any competitor of Gaussian, Inc.  The licensee
 of this program is prohibited from giving any competitor of
 Gaussian, Inc. access to this program.  By using this program,
 the user acknowledges that Gaussian, Inc. is engaged in the
 business of creating and licensing software in the field of
 computational chemistry and represents and warrants to the
 licensee that it is not a competitor of Gaussian, Inc. and that
 it will not use this program in any manner prohibited above.
 ---------------------------------------------------------------
  

 Cite this work as:
 Gaussian 16, Revision C.01,
 M. J. Frisch, G. W. Trucks, H. B. Schlegel, G. E. Scuseria, 
 M. A. Robb, J. R. Cheeseman, G. Scalmani, V. Barone, 
 G. A. Petersson, H. Nakatsuji, X. Li, M. Caricato, A. V. Marenich, 
 J. Bloino, B. G. Janesko, R. Gomperts, B. Mennucci, H. P. Hratchian, 
 J. V. Ortiz, A. F. Izmaylov, J. L. Sonnenberg, D. Williams-Young, 
 F. Ding, F. Lipparini, F. Egidi, J. Goings, B. Peng, A. Petrone, 
 T. Henderson, D. Ranasinghe, V. G. Zakrzewski, J. Gao, N. Rega, 
 G. Zheng, W. Liang, M. Hada, M. Ehara, K. Toyota, R. Fukuda, 
 J. Hasegawa, M. Ishida, T. Nakajima, Y. Honda, O. Kitao, H. Nakai, 
 T. Vreven, K. Throssell, J. A. Montgomery, Jr., J. E. Peralta, 
 F. Ogliaro, M. J. Bearpark, J. J. Heyd, E. N. Brothers, K. N. Kudin, 
 V. N. Staroverov, T. A. Keith, R. Kobayashi, J. Normand, 
 K. Raghavachari, A. P. Rendell, J. C. Burant, S. S. Iyengar, 
 J. Tomasi, M. Cossi, J. M. Millam, M. Klene, C. Adamo, R. Cammi, 
 J. W. Ochterski, R. L. Martin, K. Morokuma, O. Farkas, 
 J. B. Foresman, and D. J. Fox, Gaussian, Inc., Wallingford CT, 2019.
 
 ******************************************
 Gaussian 16:  ES64L-G16RevC.01  3-Jul-2019
                25-May-2025 
 ******************************************
 %mem=28GB
 %chk=1502984803620600000001_intra_H_migration_5_9_IRC_F_prod
 %nprocshared=8
 Will use up to    8 processors via shared memory.
 -----------------------------------------------------------------
 #P M062X/Def2TZVPP Symm(None) scf(xqc) pop(None) freq opt(CalcFC)
 -----------------------------------------------------------------
 1/10=4,18=20,19=15,26=3,38=1/1,3;
 2/9=110,12=2,15=3,17=6,18=5,40=1/2;
 3/5=44,7=202,11=2,25=1,30=1,71=2,74=-55,140=1/1,2,3;
 4//1;
 5/5=2,8=3,13=1,38=5/2,8;
 8/6=4,10=90,11=11/1;
 11/6=1,8=1,9=11,15=111,16=1,31=1/1,2,10;
 10/6=1,13=1,31=1/2;
 7/10=1,25=1,30=1/1,2,3,16;
 1/10=4,18=20,19=15,26=3/3(2);
 2/9=110,15=3/2;
 99//99;
 2/9=110,15=3/2;
 3/5=44,7=202,11=2,25=1,30=1,71=1,74=-55/1,2,3;
 4/5=5,16=3,69=1/1;
 5/5=2,8=3,13=1,38=5/2,8;
 7/30=1/1,2,3,16;
 1/18=20,19=15,26=3/3(-5);
 2/9=110,15=3/2;
 99/9=1/99;
 Leave Link    1 at Sun May 25 04:06:42 2025, MaxMem=  3758096384 cpu:               0.1 elap:               0.0
 (Enter /apps/easybuild-2022/easybuild/software/Compiler/NVHPC/22.11-CUDA-11.7.0/Gaussian/g16c01-CUDA-11.7.0/g16/l101.exe)
 ------------------------------
 Gaussian input prepared by ASE
 ------------------------------
 Symbolic Z-matrix:
 Charge =  0 Multiplicity = 1
 C                    -0.94285  -0.19283   0.02033 
 F                    -1.48863   0.53925  -0.93265 
 F                    -1.45911   0.14949   1.18739 
 F                    -1.17837  -1.4701   -0.20769 
 S                     0.87235   0.15697   0.09355 
 O                     1.39388  -0.72548   1.06845 
 O                     1.35175  -0.13283  -1.37585 
 O                     1.02057   1.57067   0.15909 
 H                     1.56052   0.74016  -1.74276 
 
 ITRead=  0  0  0  0  0  0  0  0  0
 MicOpt= -1 -1 -1 -1 -1 -1 -1 -1 -1
 NAtoms=      9 NQM=        9 NQMF=       0 NMMI=      0 NMMIF=      0
                NMic=       0 NMicF=      0.
                    Isotopes and Nuclear Properties:
 (Nuclear quadrupole moments (NQMom) in fm**2, nuclear magnetic moments (NMagM)
  in nuclear magnetons)

  Atom         1           2           3           4           5           6           7           8           9
 IAtWgt=          12          19          19          19          32          16          16          16           1
 AtmWgt=  12.0000000  18.9984032  18.9984032  18.9984032  31.9720718  15.9949146  15.9949146  15.9949146   1.0078250
 NucSpn=           0           1           1           1           0           0           0           0           1
 AtZEff=  -0.0000000  -0.0000000  -0.0000000  -0.0000000  -0.0000000  -0.0000000  -0.0000000  -0.0000000  -0.0000000
 NQMom=    0.0000000   0.0000000   0.0000000   0.0000000   0.0000000   0.0000000   0.0000000   0.0000000   0.0000000
 NMagM=    0.0000000   2.6288670   2.6288670   2.6288670   0.0000000   0.0000000   0.0000000   0.0000000   2.7928460
 AtZNuc=   6.0000000   9.0000000   9.0000000   9.0000000  16.0000000   8.0000000   8.0000000   8.0000000   1.0000000
 Leave Link  101 at Sun May 25 04:06:42 2025, MaxMem=  3758096384 cpu:               0.2 elap:               0.2
 (Enter /apps/easybuild-2022/easybuild/software/Compiler/NVHPC/22.11-CUDA-11.7.0/Gaussian/g16c01-CUDA-11.7.0/g16/l103.exe)

 GradGradGradGradGradGradGradGradGradGradGradGradGradGradGradGradGradGrad
 Berny optimization.
 Initialization pass.
                           ----------------------------
                           !    Initial Parameters    !
                           ! (Angstroms and Degrees)  !
 --------------------------                            --------------------------
 ! Name  Definition              Value          Derivative Info.                !
 --------------------------------------------------------------------------------
 ! R1    R(1,2)                  1.3198         calculate D2E/DX2 analytically  !
 ! R2    R(1,3)                  1.3213         calculate D2E/DX2 analytically  !
 ! R3    R(1,4)                  1.3187         calculate D2E/DX2 analytically  !
 ! R4    R(1,5)                  1.85           calculate D2E/DX2 analytically  !
 ! R5    R(5,6)                  1.4146         calculate D2E/DX2 analytically  !
 ! R6    R(5,7)                  1.5726         calculate D2E/DX2 analytically  !
 ! R7    R(5,8)                  1.423          calculate D2E/DX2 analytically  !
 ! R8    R(7,9)                  0.9697         calculate D2E/DX2 analytically  !
 ! A1    A(2,1,3)              109.4203         calculate D2E/DX2 analytically  !
 ! A2    A(2,1,4)              109.7887         calculate D2E/DX2 analytically  !
 ! A3    A(2,1,5)              109.2342         calculate D2E/DX2 analytically  !
 ! A4    A(3,1,4)              109.5058         calculate D2E/DX2 analytically  !
 ! A5    A(3,1,5)              107.423          calculate D2E/DX2 analytically  !
 ! A6    A(4,1,5)              111.421          calculate D2E/DX2 analytically  !
 ! A7    A(1,5,6)              105.7272         calculate D2E/DX2 analytically  !
 ! A8    A(1,5,7)              103.1374         calculate D2E/DX2 analytically  !
 ! A9    A(1,5,8)              106.9699         calculate D2E/DX2 analytically  !
 ! A10   A(6,5,7)              114.6207         calculate D2E/DX2 analytically  !
 ! A11   A(6,5,8)              123.3397         calculate D2E/DX2 analytically  !
 ! A12   A(7,5,8)              101.2076         calculate D2E/DX2 analytically  !
 ! A13   A(5,7,9)              104.6716         calculate D2E/DX2 analytically  !
 ! D1    D(2,1,5,6)           -176.1387         calculate D2E/DX2 analytically  !
 ! D2    D(2,1,5,7)            -55.4637         calculate D2E/DX2 analytically  !
 ! D3    D(2,1,5,8)             50.7903         calculate D2E/DX2 analytically  !
 ! D4    D(3,1,5,6)             65.2685         calculate D2E/DX2 analytically  !
 ! D5    D(3,1,5,7)           -174.0565         calculate D2E/DX2 analytically  !
 ! D6    D(3,1,5,8)            -67.8025         calculate D2E/DX2 analytically  !
 ! D7    D(4,1,5,6)            -54.6683         calculate D2E/DX2 analytically  !
 ! D8    D(4,1,5,7)             66.0067         calculate D2E/DX2 analytically  !
 ! D9    D(4,1,5,8)            172.2607         calculate D2E/DX2 analytically  !
 ! D10   D(1,5,7,9)            109.1413         calculate D2E/DX2 analytically  !
 ! D11   D(6,5,7,9)           -136.4566         calculate D2E/DX2 analytically  !
 ! D12   D(8,5,7,9)             -1.4553         calculate D2E/DX2 analytically  !
 --------------------------------------------------------------------------------
 Trust Radius=3.00D-01 FncErr=1.00D-07 GrdErr=1.00D-06 EigMax=2.50D+02 EigMin=1.00D-04
 Number of steps in this run=     43 maximum allowed number of steps=    100.
 GradGradGradGradGradGradGradGradGradGradGradGradGradGradGradGradGradGrad

 Leave Link  103 at Sun May 25 04:06:42 2025, MaxMem=  3758096384 cpu:               0.1 elap:               0.0
 (Enter /apps/easybuild-2022/easybuild/software/Compiler/NVHPC/22.11-CUDA-11.7.0/Gaussian/g16c01-CUDA-11.7.0/g16/l202.exe)
                          Input orientation:                          
 ---------------------------------------------------------------------
 Center     Atomic      Atomic             Coordinates (Angstroms)
 Number     Number       Type             X           Y           Z
 ---------------------------------------------------------------------
      1          6           0       -0.942854   -0.192831    0.020326
      2          9           0       -1.488628    0.539245   -0.932653
      3          9           0       -1.459110    0.149487    1.187389
      4          9           0       -1.178365   -1.470096   -0.207691
      5         16           0        0.872350    0.156965    0.093549
      6          8           0        1.393876   -0.725477    1.068452
      7          8           0        1.351753   -0.132831   -1.375852
      8          8           0        1.020573    1.570670    0.159086
      9          1           0        1.560515    0.740160   -1.742760
 ---------------------------------------------------------------------
                    Distance matrix (angstroms):
                    1          2          3          4          5
     1  C    0.000000
     2  F    1.319838   0.000000
     3  F    1.321264   2.155774   0.000000
     4  F    1.318660   2.158538   2.155949   0.000000
     5  S    1.850050   2.602584   2.575315   2.635053   0.000000
     6  O    2.615834   3.729983   2.986509   2.966382   1.414613
     7  O    2.686659   2.952266   3.814559   3.091015   1.572561
     8  O    2.642770   2.924350   3.037432   3.770426   1.422964
     9  H    3.200906   3.161315   4.248859   3.839679   2.045903
                    6          7          8          9
     6  O    0.000000
     7  O    2.515477   0.000000
     8  O    2.497717   2.316815   0.000000
     9  H    3.174708   0.969699   2.144365   0.000000
 Symmetry turned off by external request.
 Stoichiometry    CHF3O3S
 Rotational constants (GHZ):           2.7002180           1.5934645           1.5355754
 Leave Link  202 at Sun May 25 04:06:42 2025, MaxMem=  3758096384 cpu:               0.1 elap:               0.0
 (Enter /apps/easybuild-2022/easybuild/software/Compiler/NVHPC/22.11-CUDA-11.7.0/Gaussian/g16c01-CUDA-11.7.0/g16/l301.exe)
 Standard basis: def2TZVPP (5D, 7F)
 Ernie: Thresh=  0.10000D-02 Tol=  0.10000D-05 Strict=F.
   273 basis functions,   443 primitive gaussians,   315 cartesian basis functions
    37 alpha electrons       37 beta electrons
       nuclear repulsion energy       572.1754459532 Hartrees.
 IExCor= 4336 DFT=T Ex+Corr=M062X ExCW=0 ScaHFX=  0.540000
 ScaDFX=  1.000000  1.000000  1.000000  1.000000 ScalE2=  1.000000  1.000000
 IRadAn=      5 IRanWt=     -1 IRanGd=            0 ICorTp=0 IEmpDi=  4
 NAtoms=    9 NActive=    9 NUniq=    9 SFac= 1.00D+00 NAtFMM=   60 NAOKFM=F Big=F
 Integral buffers will be    131072 words long.
 Raffenetti 2 integral format.
 Two-electron integral symmetry is turned off.
 Leave Link  301 at Sun May 25 04:06:42 2025, MaxMem=  3758096384 cpu:               0.1 elap:               0.0
 (Enter /apps/easybuild-2022/easybuild/software/Compiler/NVHPC/22.11-CUDA-11.7.0/Gaussian/g16c01-CUDA-11.7.0/g16/l302.exe)
 NPDir=0 NMtPBC=     1 NCelOv=     1 NCel=       1 NClECP=     1 NCelD=      1
         NCelK=      1 NCelE2=     1 NClLst=     1 CellRange=     0.0.
 One-electron integrals computed using PRISM.
   1 Symmetry operations used in ECPInt.
 ECPInt:  NShTT=    4753 NPrTT=   15592 LenC2=    4595 LenP2D=   11562.
 LDataN:  DoStor=T MaxTD1= 6 Len=  172
 NBasis=   273 RedAO= T EigKep=  9.41D-04  NBF=   273
 NBsUse=   273 1.00D-06 EigRej= -1.00D+00 NBFU=   273
 Precomputing XC quadrature grid using
 IXCGrd= 4 IRadAn=           5 IRanWt=          -1 IRanGd=           0 AccXCQ= 0.00D+00.
 Generated NRdTot=       0 NPtTot=           0 NUsed=           0 NTot=          32
 NSgBfM=   311   311   311   311   311 MxSgAt=     9 MxSgA2=     9.
 Leave Link  302 at Sun May 25 04:06:42 2025, MaxMem=  3758096384 cpu:               0.7 elap:               0.2
 (Enter /apps/easybuild-2022/easybuild/software/Compiler/NVHPC/22.11-CUDA-11.7.0/Gaussian/g16c01-CUDA-11.7.0/g16/l303.exe)
 DipDrv:  MaxL=1.
 Leave Link  303 at Sun May 25 04:06:42 2025, MaxMem=  3758096384 cpu:               0.1 elap:               0.0
 (Enter /apps/easybuild-2022/easybuild/software/Compiler/NVHPC/22.11-CUDA-11.7.0/Gaussian/g16c01-CUDA-11.7.0/g16/l401.exe)
 ExpMin= 9.52D-02 ExpMax= 6.07D+04 ExpMxC= 2.07D+03 IAcc=3 IRadAn=         5 AccDes= 0.00D+00
 Harris functional with IExCor= 1009 and IRadAn=       5 diagonalized for initial guess.
 HarFok:  IExCor= 1009 AccDes= 0.00D+00 IRadAn=         5 IDoV= 1 UseB2=F ITyADJ=14
 ICtDFT=  3500011 ScaDFX=  1.000000  1.000000  1.000000  1.000000
 FoFCou: FMM=F IPFlag=           0 FMFlag=      100000 FMFlg1=           0
         NFxFlg=           0 DoJE=T BraDBF=F KetDBF=T FulRan=T
         wScrn=  0.000000 ICntrl=       500 IOpCl=  0 I1Cent=   200000004 NGrid=           0
         NMat0=    1 NMatS0=      1 NMatT0=    0 NMatD0=    1 NMtDS0=    0 NMtDT0=    0
 Symmetry not used in FoFCou.
 Harris En= -961.688037120283    
 JPrj=0 DoOrth=F DoCkMO=F.
 Leave Link  401 at Sun May 25 04:06:43 2025, MaxMem=  3758096384 cpu:               2.7 elap:               0.5
 (Enter /apps/easybuild-2022/easybuild/software/Compiler/NVHPC/22.11-CUDA-11.7.0/Gaussian/g16c01-CUDA-11.7.0/g16/l502.exe)
 Keep R1 ints in memory in canonical form, NReq=715214082.
 FoFCou: FMM=F IPFlag=           0 FMFlag=           0 FMFlg1=           0
         NFxFlg=           0 DoJE=F BraDBF=F KetDBF=F FulRan=T
         wScrn=  0.000000 ICntrl=       600 IOpCl=  0 I1Cent=           0 NGrid=           0
         NMat0=    1 NMatS0=  37401 NMatT0=    0 NMatD0=    1 NMtDS0=    0 NMtDT0=    0
 Symmetry not used in FoFCou.
 Two-electron integral symmetry not used.
 Closed shell SCF:
 Using DIIS extrapolation, IDIIS=  1040.
 NGot=  3758096384 LenX=  3058457086 LenY=  3058357420
 Requested convergence on RMS density matrix=1.00D-08 within  32 cycles.
 Requested convergence on MAX density matrix=1.00D-06.
 Requested convergence on             energy=1.00D-06.
 No special actions if energy rises.
 Integral accuracy reduced to 1.0D-05 until final iterations.

 Cycle   1  Pass 0  IDiag  1:
 E= -961.825906987993    
 DIIS: error= 2.74D-02 at cycle   1 NSaved=   1.
 NSaved= 1 IEnMin= 1 EnMin= -961.825906987993     IErMin= 1 ErrMin= 2.74D-02
 ErrMax= 2.74D-02  0.00D+00 EMaxC= 1.00D-01 BMatC= 5.50D-01 BMatP= 5.50D-01
 IDIUse=3 WtCom= 7.26D-01 WtEn= 2.74D-01
 Coeff-Com:  0.100D+01
 Coeff-En:   0.100D+01
 Coeff:      0.100D+01
 Gap=     0.476 Goal=   None    Shift=    0.000
 GapD=    0.476 DampG=2.000 DampE=0.500 DampFc=1.0000 IDamp=-1.
 RMSDP=3.09D-03 MaxDP=2.59D-01              OVMax= 2.24D-01

 Cycle   2  Pass 0  IDiag  1:
 E= -961.526465406918     Delta-E=        0.299441581075 Rises=F Damp=F
 DIIS: error= 3.40D-02 at cycle   2 NSaved=   2.
 NSaved= 2 IEnMin= 1 EnMin= -961.825906987993     IErMin= 1 ErrMin= 2.74D-02
 ErrMax= 3.40D-02  0.00D+00 EMaxC= 1.00D-01 BMatC= 9.26D-01 BMatP= 5.50D-01
 IDIUse=2 WtCom= 0.00D+00 WtEn= 1.00D+00
 Coeff-En:   0.654D+00 0.346D+00
 Coeff:      0.654D+00 0.346D+00
 Gap=     0.456 Goal=   None    Shift=    0.000
 RMSDP=1.60D-03 MaxDP=1.53D-01 DE= 2.99D-01 OVMax= 1.25D-01

 Cycle   3  Pass 0  IDiag  1:
 E= -962.110474049836     Delta-E=       -0.584008642918 Rises=F Damp=F
 DIIS: error= 4.69D-03 at cycle   3 NSaved=   3.
 NSaved= 3 IEnMin= 3 EnMin= -962.110474049836     IErMin= 3 ErrMin= 4.69D-03
 ErrMax= 4.69D-03  0.00D+00 EMaxC= 1.00D-01 BMatC= 1.67D-02 BMatP= 5.50D-01
 IDIUse=3 WtCom= 9.53D-01 WtEn= 4.69D-02
 Coeff-Com:  0.908D-01-0.479D-01 0.957D+00
 Coeff-En:   0.000D+00 0.000D+00 0.100D+01
 Coeff:      0.866D-01-0.457D-01 0.959D+00
 Gap=     0.451 Goal=   None    Shift=    0.000
 RMSDP=2.56D-04 MaxDP=1.44D-02 DE=-5.84D-01 OVMax= 2.15D-02

 Cycle   4  Pass 0  IDiag  1:
 E= -962.117696247234     Delta-E=       -0.007222197398 Rises=F Damp=F
 DIIS: error= 2.92D-03 at cycle   4 NSaved=   4.
 NSaved= 4 IEnMin= 4 EnMin= -962.117696247234     IErMin= 4 ErrMin= 2.92D-03
 ErrMax= 2.92D-03  0.00D+00 EMaxC= 1.00D-01 BMatC= 3.39D-03 BMatP= 1.67D-02
 IDIUse=3 WtCom= 9.71D-01 WtEn= 2.92D-02
 Coeff-Com:  0.106D-01-0.521D-01 0.506D+00 0.536D+00
 Coeff-En:   0.000D+00 0.000D+00 0.515D-01 0.949D+00
 Coeff:      0.103D-01-0.506D-01 0.493D+00 0.548D+00
 Gap=     0.453 Goal=   None    Shift=    0.000
 RMSDP=1.10D-04 MaxDP=6.57D-03 DE=-7.22D-03 OVMax= 1.11D-02

 Cycle   5  Pass 0  IDiag  1:
 E= -962.119799764410     Delta-E=       -0.002103517176 Rises=F Damp=F
 DIIS: error= 4.48D-04 at cycle   5 NSaved=   5.
 NSaved= 5 IEnMin= 5 EnMin= -962.119799764410     IErMin= 5 ErrMin= 4.48D-04
 ErrMax= 4.48D-04  0.00D+00 EMaxC= 1.00D-01 BMatC= 1.23D-04 BMatP= 3.39D-03
 IDIUse=3 WtCom= 9.96D-01 WtEn= 4.48D-03
 Coeff-Com: -0.613D-03-0.157D-01 0.119D+00 0.214D+00 0.684D+00
 Coeff-En:   0.000D+00 0.000D+00 0.000D+00 0.000D+00 0.100D+01
 Coeff:     -0.610D-03-0.156D-01 0.118D+00 0.213D+00 0.685D+00
 Gap=     0.451 Goal=   None    Shift=    0.000
 RMSDP=2.74D-05 MaxDP=1.45D-03 DE=-2.10D-03 OVMax= 2.23D-03

 Cycle   6  Pass 0  IDiag  1:
 E= -962.119882229381     Delta-E=       -0.000082464971 Rises=F Damp=F
 DIIS: error= 8.09D-05 at cycle   6 NSaved=   6.
 NSaved= 6 IEnMin= 6 EnMin= -962.119882229381     IErMin= 6 ErrMin= 8.09D-05
 ErrMax= 8.09D-05  0.00D+00 EMaxC= 1.00D-01 BMatC= 5.07D-06 BMatP= 1.23D-04
 IDIUse=1 WtCom= 1.00D+00 WtEn= 0.00D+00
 Coeff-Com: -0.693D-03-0.327D-02 0.190D-01 0.477D-01 0.246D+00 0.691D+00
 Coeff:     -0.693D-03-0.327D-02 0.190D-01 0.477D-01 0.246D+00 0.691D+00
 Gap=     0.451 Goal=   None    Shift=    0.000
 RMSDP=6.63D-06 MaxDP=2.43D-04 DE=-8.25D-05 OVMax= 5.13D-04

 Initial convergence to 1.0D-05 achieved.  Increase integral accuracy.
 Cycle   7  Pass 1  IDiag  1:
 E= -962.119897918474     Delta-E=       -0.000015689093 Rises=F Damp=F
 DIIS: error= 3.35D-05 at cycle   1 NSaved=   1.
 NSaved= 1 IEnMin= 1 EnMin= -962.119897918474     IErMin= 1 ErrMin= 3.35D-05
 ErrMax= 3.35D-05  0.00D+00 EMaxC= 1.00D-01 BMatC= 1.17D-06 BMatP= 1.17D-06
 IDIUse=1 WtCom= 1.00D+00 WtEn= 0.00D+00
 Coeff-Com:  0.100D+01
 Coeff:      0.100D+01
 Gap=     0.451 Goal=   None    Shift=    0.000
 RMSDP=6.63D-06 MaxDP=2.43D-04 DE=-1.57D-05 OVMax= 4.42D-04

 Cycle   8  Pass 1  IDiag  1:
 E= -962.119897605438     Delta-E=        0.000000313036 Rises=F Damp=F
 DIIS: error= 5.24D-05 at cycle   2 NSaved=   2.
 NSaved= 2 IEnMin= 1 EnMin= -962.119897918474     IErMin= 1 ErrMin= 3.35D-05
 ErrMax= 5.24D-05  0.00D+00 EMaxC= 1.00D-01 BMatC= 1.76D-06 BMatP= 1.17D-06
 IDIUse=1 WtCom= 1.00D+00 WtEn= 0.00D+00
 Coeff-Com:  0.557D+00 0.443D+00
 Coeff:      0.557D+00 0.443D+00
 Gap=     0.451 Goal=   None    Shift=    0.000
 RMSDP=2.72D-06 MaxDP=1.11D-04 DE= 3.13D-07 OVMax= 2.91D-04

 Cycle   9  Pass 1  IDiag  1:
 E= -962.119898768475     Delta-E=       -0.000001163037 Rises=F Damp=F
 DIIS: error= 7.62D-06 at cycle   3 NSaved=   3.
 NSaved= 3 IEnMin= 3 EnMin= -962.119898768475     IErMin= 3 ErrMin= 7.62D-06
 ErrMax= 7.62D-06  0.00D+00 EMaxC= 1.00D-01 BMatC= 3.32D-08 BMatP= 1.17D-06
 IDIUse=1 WtCom= 1.00D+00 WtEn= 0.00D+00
 Coeff-Com: -0.308D-01 0.991D-01 0.932D+00
 Coeff:     -0.308D-01 0.991D-01 0.932D+00
 Gap=     0.451 Goal=   None    Shift=    0.000
 RMSDP=6.04D-07 MaxDP=1.84D-05 DE=-1.16D-06 OVMax= 4.98D-05

 Cycle  10  Pass 1  IDiag  1:
 E= -962.119898793139     Delta-E=       -0.000000024664 Rises=F Damp=F
 DIIS: error= 2.58D-06 at cycle   4 NSaved=   4.
 NSaved= 4 IEnMin= 4 EnMin= -962.119898793139     IErMin= 4 ErrMin= 2.58D-06
 ErrMax= 2.58D-06  0.00D+00 EMaxC= 1.00D-01 BMatC= 3.39D-09 BMatP= 3.32D-08
 IDIUse=1 WtCom= 1.00D+00 WtEn= 0.00D+00
 Coeff-Com: -0.261D-01 0.377D-01 0.440D+00 0.548D+00
 Coeff:     -0.261D-01 0.377D-01 0.440D+00 0.548D+00
 Gap=     0.451 Goal=   None    Shift=    0.000
 RMSDP=1.25D-07 MaxDP=5.62D-06 DE=-2.47D-08 OVMax= 1.01D-05

 Cycle  11  Pass 1  IDiag  1:
 E= -962.119898795340     Delta-E=       -0.000000002200 Rises=F Damp=F
 DIIS: error= 4.77D-07 at cycle   5 NSaved=   5.
 NSaved= 5 IEnMin= 5 EnMin= -962.119898795340     IErMin= 5 ErrMin= 4.77D-07
 ErrMax= 4.77D-07  0.00D+00 EMaxC= 1.00D-01 BMatC= 1.86D-10 BMatP= 3.39D-09
 IDIUse=1 WtCom= 1.00D+00 WtEn= 0.00D+00
 Coeff-Com: -0.262D-02-0.850D-02-0.518D-01 0.126D+00 0.937D+00
 Coeff:     -0.262D-02-0.850D-02-0.518D-01 0.126D+00 0.937D+00
 Gap=     0.451 Goal=   None    Shift=    0.000
 RMSDP=6.41D-08 MaxDP=1.74D-06 DE=-2.20D-09 OVMax= 5.60D-06

 Cycle  12  Pass 1  IDiag  1:
 E= -962.119898795576     Delta-E=       -0.000000000236 Rises=F Damp=F
 DIIS: error= 1.75D-07 at cycle   6 NSaved=   6.
 NSaved= 6 IEnMin= 6 EnMin= -962.119898795576     IErMin= 6 ErrMin= 1.75D-07
 ErrMax= 1.75D-07  0.00D+00 EMaxC= 1.00D-01 BMatC= 2.46D-11 BMatP= 1.86D-10
 IDIUse=1 WtCom= 1.00D+00 WtEn= 0.00D+00
 Coeff-Com:  0.114D-02-0.578D-02-0.514D-01 0.204D-02 0.335D+00 0.719D+00
 Coeff:      0.114D-02-0.578D-02-0.514D-01 0.204D-02 0.335D+00 0.719D+00
 Gap=     0.451 Goal=   None    Shift=    0.000
 RMSDP=1.56D-08 MaxDP=5.20D-07 DE=-2.36D-10 OVMax= 1.74D-06

 Cycle  13  Pass 1  IDiag  1:
 E= -962.119898795582     Delta-E=       -0.000000000006 Rises=F Damp=F
 DIIS: error= 8.79D-08 at cycle   7 NSaved=   7.
 NSaved= 7 IEnMin= 7 EnMin= -962.119898795582     IErMin= 7 ErrMin= 8.79D-08
 ErrMax= 8.79D-08  0.00D+00 EMaxC= 1.00D-01 BMatC= 5.74D-12 BMatP= 2.46D-11
 IDIUse=1 WtCom= 1.00D+00 WtEn= 0.00D+00
 Coeff-Com:  0.915D-03-0.215D-02-0.218D-01-0.115D-01 0.773D-01 0.366D+00
 Coeff-Com:  0.591D+00
 Coeff:      0.915D-03-0.215D-02-0.218D-01-0.115D-01 0.773D-01 0.366D+00
 Coeff:      0.591D+00
 Gap=     0.451 Goal=   None    Shift=    0.000
 RMSDP=5.90D-09 MaxDP=3.79D-07 DE=-5.91D-12 OVMax= 6.22D-07

 SCF Done:  E(RM062X) =  -962.119898796     A.U. after   13 cycles
            NFock= 13  Conv=0.59D-08     -V/T= 2.0027
 KE= 9.595549333453D+02 PE=-3.426197796659D+03 EE= 9.323475185652D+02
 Leave Link  502 at Sun May 25 04:06:57 2025, MaxMem=  3758096384 cpu:              61.5 elap:              13.8
 (Enter /apps/easybuild-2022/easybuild/software/Compiler/NVHPC/22.11-CUDA-11.7.0/Gaussian/g16c01-CUDA-11.7.0/g16/l508.exe)
 QCSCF skips out because SCF is already converged.
 Leave Link  508 at Sun May 25 04:06:57 2025, MaxMem=  3758096384 cpu:               0.0 elap:               0.0
 (Enter /apps/easybuild-2022/easybuild/software/Compiler/NVHPC/22.11-CUDA-11.7.0/Gaussian/g16c01-CUDA-11.7.0/g16/l801.exe)
 DoSCS=F DFT=T ScalE2(SS,OS)=  1.000000  1.000000
 Range of M.O.s used for correlation:     1   273
 NBasis=   273 NAE=    37 NBE=    37 NFC=     0 NFV=     0
 NROrb=    273 NOA=    37 NOB=    37 NVA=   236 NVB=   236
 Leave Link  801 at Sun May 25 04:06:57 2025, MaxMem=  3758096384 cpu:               0.1 elap:               0.0
 (Enter /apps/easybuild-2022/easybuild/software/Compiler/NVHPC/22.11-CUDA-11.7.0/Gaussian/g16c01-CUDA-11.7.0/g16/l1101.exe)
 Using compressed storage, NAtomX=     9.
 Will process     10 centers per pass.
   1 Symmetry operations used in ECPInt.
 ECPInt:  NShTT=    4753 NPrTT=   15592 LenC2=    4595 LenP2D=   11562.
 LDataN:  DoStor=T MaxTD1= 7 Len=  274
 Leave Link 1101 at Sun May 25 04:06:57 2025, MaxMem=  3758096384 cpu:               1.1 elap:               0.2
 (Enter /apps/easybuild-2022/easybuild/software/Compiler/NVHPC/22.11-CUDA-11.7.0/Gaussian/g16c01-CUDA-11.7.0/g16/l1102.exe)
 Symmetrizing basis deriv contribution to polar:
 IMax=3 JMax=2 DiffMx= 0.00D+00
 Leave Link 1102 at Sun May 25 04:06:57 2025, MaxMem=  3758096384 cpu:               0.1 elap:               0.0
 (Enter /apps/easybuild-2022/easybuild/software/Compiler/NVHPC/22.11-CUDA-11.7.0/Gaussian/g16c01-CUDA-11.7.0/g16/l1110.exe)
 Forming Gx(P) for the SCF density, NAtomX=     9.
 Integral derivatives from FoFJK, PRISM(SPDF).
 Do as many integral derivatives as possible in FoFJK.
 G2DrvN: MDV=    3758095321.
 G2DrvN: will do    10 centers at a time, making    1 passes.
 Calling FoFCou, ICntrl=  3107 FMM=F I1Cent=   0 AccDes= 0.00D+00.
 FoFJK:  IHMeth= 1 ICntrl=    3107 DoSepK=F KAlg= 0 I1Cent=           0 FoldK=F
 IRaf=         0 NMat=       1 IRICut=       1 DoRegI=T DoRafI=F ISym2E= 0 IDoP0=0 IntGTp=1.
 FoFCou: FMM=F IPFlag=           0 FMFlag=      100000 FMFlg1=           0
         NFxFlg=           0 DoJE=F BraDBF=F KetDBF=F FulRan=T
         wScrn=  0.000000 ICntrl=      3107 IOpCl=  0 I1Cent=           0 NGrid=           0
         NMat0=    1 NMatS0=      1 NMatT0=    0 NMatD0=    1 NMtDS0=    0 NMtDT0=    0
 Symmetry not used in FoFCou.
 End of G2Drv F.D. properties file   721 does not exist.
 End of G2Drv F.D. properties file   722 does not exist.
 End of G2Drv F.D. properties file   788 does not exist.
 Leave Link 1110 at Sun May 25 04:07:17 2025, MaxMem=  3758096384 cpu:             156.6 elap:              20.1
 (Enter /apps/easybuild-2022/easybuild/software/Compiler/NVHPC/22.11-CUDA-11.7.0/Gaussian/g16c01-CUDA-11.7.0/g16/l1002.exe)
 Minotr:  Closed shell wavefunction.
          IDoAtm=111111111
          Direct CPHF calculation.
          Differentiating once with respect to nuclear coordinates.
          Requested convergence is 1.0D-08 RMS, and 1.0D-07 maximum.
          Secondary convergence is 1.0D-12 RMS, and 1.0D-12 maximum.
          NewPWx=T KeepS1=F KeepF1=F KeepIn=T MapXYZ=F SortEE=F KeepMc=T.
         2683 words used for storage of precomputed grid.
 Keep R1 ints in memory in canonical form, NReq=715218544.
 FoFCou: FMM=F IPFlag=           0 FMFlag=           0 FMFlg1=           0
         NFxFlg=           0 DoJE=F BraDBF=F KetDBF=F FulRan=T
         wScrn=  0.000000 ICntrl=       600 IOpCl=  0 I1Cent=           0 NGrid=           0
         NMat0=    1 NMatS0=  37401 NMatT0=    0 NMatD0=    1 NMtDS0=    0 NMtDT0=    0
 Symmetry not used in FoFCou.
 Two-electron integral symmetry not used.
          MDV=    3758096384 using IRadAn=       1.
          Solving linear equations simultaneously, MaxMat=       0.
          There are    30 degrees of freedom in the 1st order CPHF.  IDoFFX=6 NUNeed=     0.
     24 vectors produced by pass  0 Test12= 2.91D-14 3.33D-09 XBig12= 1.95D-01 9.66D-02.
 AX will form    24 AO Fock derivatives at one time.
     24 vectors produced by pass  1 Test12= 2.91D-14 3.33D-09 XBig12= 1.82D-02 2.93D-02.
     24 vectors produced by pass  2 Test12= 2.91D-14 3.33D-09 XBig12= 1.43D-03 1.08D-02.
     24 vectors produced by pass  3 Test12= 2.91D-14 3.33D-09 XBig12= 2.91D-05 9.74D-04.
     24 vectors produced by pass  4 Test12= 2.91D-14 3.33D-09 XBig12= 4.05D-07 8.09D-05.
     24 vectors produced by pass  5 Test12= 2.91D-14 3.33D-09 XBig12= 4.15D-09 7.46D-06.
     24 vectors produced by pass  6 Test12= 2.91D-14 3.33D-09 XBig12= 3.57D-11 1.02D-06.
     17 vectors produced by pass  7 Test12= 2.91D-14 3.33D-09 XBig12= 2.17D-13 6.12D-08.
      1 vectors produced by pass  8 Test12= 2.91D-14 3.33D-09 XBig12= 1.38D-15 6.30D-09.
 InvSVY:  IOpt=1 It=  1 EMax= 1.78D-15
 Solved reduced A of dimension   186 with    24 vectors.
 End of Minotr F.D. properties file   721 does not exist.
 End of Minotr F.D. properties file   722 does not exist.
 End of Minotr F.D. properties file   788 does not exist.
 Leave Link 1002 at Sun May 25 04:07:46 2025, MaxMem=  3758096384 cpu:             222.8 elap:              29.2
 (Enter /apps/easybuild-2022/easybuild/software/Compiler/NVHPC/22.11-CUDA-11.7.0/Gaussian/g16c01-CUDA-11.7.0/g16/l701.exe)
 ... and contract with generalized density number  0.
 Compute integral second derivatives.
   1 Symmetry operations used in ECPInt.
 ECPInt:  NShTT=    4753 NPrTT=   15592 LenC2=    4595 LenP2D=   11562.
 LDataN:  DoStor=T MaxTD1= 8 Len=  415
 Leave Link  701 at Sun May 25 04:07:46 2025, MaxMem=  3758096384 cpu:               0.8 elap:               0.2
 (Enter /apps/easybuild-2022/easybuild/software/Compiler/NVHPC/22.11-CUDA-11.7.0/Gaussian/g16c01-CUDA-11.7.0/g16/l702.exe)
 L702 exits ... SP integral derivatives will be done elsewhere.
 Leave Link  702 at Sun May 25 04:07:47 2025, MaxMem=  3758096384 cpu:               0.1 elap:               0.0
 (Enter /apps/easybuild-2022/easybuild/software/Compiler/NVHPC/22.11-CUDA-11.7.0/Gaussian/g16c01-CUDA-11.7.0/g16/l703.exe)
 Integral derivatives from FoFJK, PRISM(SPDF).
 Compute integral second derivatives, UseDBF=F ICtDFT=           0.
 Calling FoFJK, ICntrl=    100127 FMM=F ISym2X=0 I1Cent= 0 IOpClX= 0 NMat=1 NMatS=1 NMatT=0.
 FoFJK:  IHMeth= 1 ICntrl=  100127 DoSepK=F KAlg= 0 I1Cent=           0 FoldK=F
 IRaf=         0 NMat=       1 IRICut=       1 DoRegI=T DoRafI=F ISym2E= 0 IDoP0=0 IntGTp=1.
 FoFCou: FMM=F IPFlag=           0 FMFlag=      100000 FMFlg1=         800
         NFxFlg=           0 DoJE=F BraDBF=F KetDBF=F FulRan=T
         wScrn=  0.000000 ICntrl=    100127 IOpCl=  0 I1Cent=           0 NGrid=           0
         NMat0=    1 NMatS0=      1 NMatT0=    0 NMatD0=    1 NMtDS0=    0 NMtDT0=    0
 Symmetry not used in FoFCou.
 Leave Link  703 at Sun May 25 04:08:31 2025, MaxMem=  3758096384 cpu:             351.2 elap:              44.4
 (Enter /apps/easybuild-2022/easybuild/software/Compiler/NVHPC/22.11-CUDA-11.7.0/Gaussian/g16c01-CUDA-11.7.0/g16/l716.exe)
 Dipole        =-9.47912195D-02 1.34141585D-01-9.38298850D-01
 Polarizability= 0.00000000D+00 0.00000000D+00 0.00000000D+00
                 0.00000000D+00 0.00000000D+00 0.00000000D+00
 -------------------------------------------------------------------
 Center     Atomic                   Forces (Hartrees/Bohr)
 Number     Number              X              Y              Z
 -------------------------------------------------------------------
      1        6           0.001680926    0.000606790   -0.001037535
      2        9          -0.000907823   -0.000366713   -0.001604532
      3        9           0.001433166   -0.000629921   -0.001433528
      4        9           0.001526915    0.000526387   -0.000794987
      5       16           0.002561071    0.018277496    0.000523482
      6        8           0.001177203   -0.002441414   -0.011116400
      7        8          -0.001799633   -0.020448032    0.001695917
      8        8          -0.005169367    0.006855191    0.016371968
      9        1          -0.000502458   -0.002379784   -0.002604385
 -------------------------------------------------------------------
 Cartesian Forces:  Max     0.020448032 RMS     0.006847717
 Force constants in Cartesian coordinates: 
                1             2             3             4             5 
      1  0.525542D+00
      2 -0.517584D-02  0.587564D+00
      3  0.582365D-02 -0.506512D-02  0.580150D+00
      4 -0.146035D+00  0.658588D-01 -0.920859D-01  0.132827D+00
      5  0.643995D-01 -0.141505D+00  0.919850D-01 -0.880025D-01  0.197074D+00
      6 -0.874497D-01  0.913447D-01 -0.196415D+00  0.112764D+00 -0.150677D+00
      7 -0.142584D+00  0.286643D-01  0.107437D+00  0.208614D-01 -0.332125D-02
      8  0.255728D-01 -0.878899D-01 -0.481114D-01 -0.610717D-02  0.134652D-01
      9  0.100675D+00 -0.500198D-01 -0.255378D+00  0.682280D-02  0.131473D-01
     10 -0.102106D+00 -0.723374D-01 -0.142570D-01  0.155820D-01  0.233042D-01
     11 -0.665011D-01 -0.307059D+00 -0.418733D-01  0.725284D-02 -0.690991D-01
     12 -0.107549D-01 -0.389251D-01 -0.808376D-01  0.179165D-02  0.392049D-01
     13 -0.185991D+00 -0.295326D-01 -0.815135D-02 -0.405164D-02 -0.114087D-02
     14 -0.349844D-01 -0.307582D-01 -0.623680D-02  0.277794D-01 -0.919492D-02
     15 -0.415375D-02 -0.405370D-02 -0.207901D-01 -0.314955D-01  0.114192D-01
     16  0.188062D-01  0.214315D-01 -0.191204D-01 -0.145511D-01  0.348538D-02
     17 -0.105482D-01 -0.626748D-02  0.720295D-02  0.176478D-02  0.180068D-02
     18  0.147906D-01  0.153542D-01 -0.872132D-02 -0.621354D-02 -0.127227D-04
     19  0.138436D-01  0.871672D-02  0.183026D-01 -0.211743D-02  0.152804D-03
     20  0.248334D-02  0.416992D-02  0.632228D-02 -0.279131D-02  0.165291D-02
     21 -0.202039D-01 -0.622829D-02 -0.179742D-01  0.559614D-02 -0.265122D-02
     22  0.170176D-01 -0.172408D-01 -0.381101D-02 -0.200329D-02  0.889132D-04
     23  0.268770D-01 -0.172742D-01 -0.141529D-02 -0.662385D-02  0.638987D-02
     24 -0.707793D-03 -0.803123D-03  0.489295D-04  0.294322D-02 -0.255805D-02
     25  0.150702D-02 -0.384555D-03  0.586249D-02 -0.511682D-03  0.103388D-02
     26 -0.212311D-02 -0.979719D-03 -0.280826D-02  0.869083D-03 -0.583938D-03
     27  0.198055D-02 -0.160376D-02 -0.827016D-04 -0.123182D-03  0.142828D-03
                6             7             8             9            10 
      6  0.278339D+00
      7 -0.116081D-01  0.124641D+00
      8  0.229563D-01 -0.396435D-01  0.107369D+00
      9 -0.810490D-01 -0.129096D+00  0.848994D-01  0.374735D+00
     10 -0.175277D-02  0.169965D-01  0.197496D-01  0.875418D-02  0.764951D-01
     11  0.259083D-01  0.730659D-02 -0.384793D-01 -0.433430D-01  0.611383D-01
     12  0.716503D-02  0.746916D-04 -0.579107D-01 -0.245717D-01  0.118136D-01
     13 -0.139404D-02 -0.254171D-02 -0.156396D-03  0.186045D-02  0.843368D-02
     14  0.179231D-01  0.149814D-01  0.929970D-04 -0.989345D-02 -0.302963D-01
     15 -0.181559D-01  0.359778D-01 -0.317646D-02 -0.246269D-01 -0.681102D-02
     16 -0.708291D-02 -0.422602D-02 -0.515459D-03  0.374302D-02 -0.324661D-02
     17 -0.716811D-03  0.418630D-03  0.102061D-02 -0.145103D-02  0.395677D-02
     18 -0.112353D-02 -0.637195D-02 -0.431949D-03  0.822627D-02 -0.141176D-02
     19 -0.914116D-03 -0.974070D-02  0.171561D-03  0.559322D-02 -0.248699D-02
     20 -0.301889D-02 -0.417826D-02  0.582149D-03  0.235297D-02  0.215753D-02
     21  0.806991D-02  0.685796D-02  0.506026D-03 -0.927499D-03  0.471455D-02
     22 -0.470764D-03 -0.184641D-02  0.835042D-03  0.142767D-02 -0.983418D-02
     23 -0.449209D-02 -0.636121D-02  0.390478D-02  0.530123D-02 -0.780929D-02
     24  0.347734D-02 -0.300017D-02  0.122643D-02  0.371124D-02  0.978823D-04
     25 -0.209182D-02 -0.156005D-02  0.934563D-04  0.219092D-03  0.166972D-03
     26  0.772510D-03  0.213320D-02 -0.656235D-04 -0.993546D-03  0.136629D-03
     27 -0.308116D-03 -0.271242D-03  0.423520D-04 -0.119324D-03 -0.114764D-02
               11            12            13            14            15 
     11  0.437674D+00
     12  0.630714D-01  0.929089D-01
     13  0.857998D-02  0.184062D-03  0.593255D+00
     14 -0.311963D-01 -0.464912D-02 -0.611156D-01  0.117667D+01
     15 -0.536478D-02  0.763358D-03  0.973893D-01 -0.232917D+00  0.820815D+00
     16 -0.473371D-02  0.360772D-03 -0.198085D+00  0.153558D+00 -0.168650D+00
     17  0.857732D-02 -0.209178D-03  0.149028D+00 -0.344291D+00  0.268072D+00
     18 -0.336000D-02  0.989624D-03 -0.170381D+00  0.276094D+00 -0.378295D+00
     19 -0.421715D-02 -0.185965D-02 -0.980234D-01  0.130334D-01  0.676551D-01
     20  0.277521D-02  0.988785D-04 -0.109851D-02 -0.110028D+00 -0.163706D-01
     21  0.539804D-02  0.276324D-02  0.653947D-01 -0.540257D-01 -0.246761D+00
     22 -0.931490D-02 -0.117402D-02 -0.107309D+00 -0.728130D-01 -0.424053D-02
     23 -0.310673D-02 -0.801515D-03 -0.655600D-01 -0.667994D+00 -0.256211D-01
     24  0.675923D-04  0.769845D-03 -0.170400D-02 -0.278468D-01 -0.976235D-01
     25  0.489085D-03 -0.436127D-03 -0.568741D-02 -0.101427D-01  0.143285D-01
     26 -0.864569D-04  0.120427D-03  0.995920D-03  0.166956D-01  0.801237D-02
     27 -0.504223D-03  0.492872D-04  0.168016D-01  0.415518D-01 -0.353268D-01
               16            17            18            19            20 
     16  0.163382D+00
     17 -0.163790D+00  0.340946D+00
     18  0.181016D+00 -0.300620D+00  0.386661D+00
     19  0.145703D-01  0.384565D-03 -0.535415D-02  0.905720D-01
     20 -0.236378D-02  0.101670D-01  0.267956D-01  0.736110D-01  0.531633D+00
     21  0.934867D-02 -0.122112D-02 -0.153264D-01 -0.131100D+00 -0.897924D-01
     22  0.222437D-01  0.181459D-01 -0.208449D-02  0.204797D-01  0.167840D-01
     23 -0.621163D-02 -0.123287D-01 -0.781107D-02  0.506025D-02 -0.232171D-01
     24 -0.497965D-04  0.317305D-01  0.123560D-01  0.532738D-02 -0.587045D-01
     25  0.110615D-02  0.639798D-03 -0.399032D-02 -0.270971D-01 -0.846041D-01
     26 -0.859709D-03  0.375614D-03 -0.600733D-02 -0.969132D-01 -0.417735D+00
     27  0.434161D-03 -0.278661D-02 -0.476732D-02  0.423499D-01  0.132317D+00
               21            22            23            24            25 
     21  0.381086D+00
     22  0.133072D-01  0.631534D-01
     23 -0.246736D-01  0.624917D-01  0.725185D+00
     24 -0.221775D-01  0.109580D-02  0.614241D-01  0.920998D-01
     25  0.460850D-01 -0.190194D-02 -0.186289D-02 -0.400252D-02  0.339780D-01
     26  0.172688D+00  0.102317D-02 -0.115589D-01 -0.453610D-02  0.947380D-01
     27 -0.887529D-01 -0.404988D-02 -0.191076D-02  0.733785D-02 -0.559743D-01
               26            27 
     26  0.413939D+00
     27 -0.167248D+00  0.121970D+00
 FormGI is forming the generalized inverse of G from B-inverse, IUseBI=4.
 Force constants in internal coordinates: 
                1             2             3             4             5 
      1  0.456840D+00
      2  0.547563D-01  0.454570D+00
      3  0.540389D-01  0.547658D-01  0.458831D+00
      4  0.176528D-01  0.168267D-01  0.160855D-01  0.189482D+00
      5  0.661011D-02  0.917057D-02  0.981137D-02 -0.390583D-02  0.764252D+00
      6  0.929104D-02  0.565363D-02  0.738677D-02 -0.393926D-02  0.566533D-02
      7  0.937519D-02  0.860269D-02  0.559442D-02 -0.376159D-02 -0.926255D-03
      8 -0.755301D-03 -0.137086D-02 -0.311304D-03 -0.469968D-03 -0.430664D-02
      9  0.221376D-01  0.220755D-01  0.316502D-02 -0.152405D-01 -0.638259D-02
     10  0.222648D-01  0.344005D-02  0.246171D-01 -0.165128D-01 -0.696319D-02
     11  0.113216D-01 -0.278513D-01 -0.313789D-01  0.196778D-01  0.157389D-01
     12  0.367796D-02  0.213339D-01  0.238554D-01 -0.130557D-01 -0.563927D-02
     13 -0.283595D-01  0.996842D-02 -0.293597D-01  0.144351D-01  0.251068D-02
     14 -0.311855D-01 -0.280741D-01  0.785433D-02  0.109173D-01  0.823750D-03
     15  0.168535D-01 -0.272015D-02 -0.295896D-02  0.205694D-02  0.125888D-01
     16 -0.155818D-02  0.197929D-01  0.383171D-03 -0.185305D-02 -0.873207D-02
     17 -0.356027D-02 -0.224027D-02  0.162057D-01  0.279500D-02 -0.833124D-02
     18 -0.417575D-02 -0.349413D-02 -0.379345D-02 -0.100955D-02  0.624515D-03
     19 -0.340977D-02 -0.322585D-02 -0.314958D-02 -0.218276D-02  0.473755D-02
     20 -0.457956D-02 -0.330016D-02 -0.462711D-02  0.294176D-03 -0.445611D-02
     21  0.150802D-02  0.167624D-02 -0.132662D-02  0.483358D-03  0.465100D-02
     22  0.864074D-03  0.126363D-01 -0.110081D-01  0.833688D-03  0.224917D-02
     23  0.281820D-02  0.167244D-01 -0.164043D-01 -0.266174D-03  0.440447D-02
     24 -0.398916D-02  0.199985D-01 -0.159508D-01  0.269594D-03 -0.662028D-02
     25 -0.156101D-01 -0.409964D-02  0.190894D-01  0.245280D-04 -0.186358D-03
     26 -0.136559D-01 -0.114979D-04  0.136932D-01 -0.107533D-02  0.196894D-02
     27 -0.204633D-01  0.326253D-02  0.141468D-01 -0.539566D-03 -0.905581D-02
     28  0.161891D-01 -0.200309D-01  0.385411D-02  0.449074D-03  0.464490D-02
     29  0.181432D-01 -0.159428D-01 -0.154212D-02 -0.650788D-03  0.680020D-02
     30  0.113359D-01 -0.126687D-01 -0.108857D-02 -0.115020D-03 -0.422455D-02
     31 -0.625957D-02 -0.101400D-02  0.689813D-02  0.602383D-03 -0.922922D-02
     32  0.109750D-01  0.617242D-02  0.183781D-02  0.146090D-02  0.772158D-03
     33 -0.502061D-03 -0.347485D-02 -0.905241D-02 -0.192770D-02  0.373922D-02
                6             7             8             9            10 
      6  0.368746D+00
      7  0.326035D-01  0.735192D+00
      8  0.835812D-02 -0.102236D-01  0.514346D+00
      9 -0.535839D-02 -0.535457D-02  0.108184D-02  0.114297D+00
     10 -0.496287D-02 -0.589078D-02  0.554312D-03  0.356788D-01  0.122834D+00
     11  0.809617D-03  0.799982D-03 -0.243343D-03 -0.849497D-01 -0.942640D-01
     12 -0.620650D-02 -0.578730D-02  0.117173D-02  0.346798D-01  0.350269D-01
     13  0.134402D-01  0.215497D-02 -0.201914D-02 -0.861257D-01 -0.156714D-01
     14  0.248665D-02  0.139811D-01 -0.563080D-03 -0.131604D-01 -0.854029D-01
     15 -0.934064D-02 -0.509949D-02  0.777115D-03 -0.578372D-02 -0.629779D-02
     16  0.107086D-01 -0.204643D-01  0.142638D-02 -0.749774D-02  0.205501D-02
     17 -0.150837D-01 -0.454440D-03  0.401762D-02  0.168403D-02 -0.643203D-02
     18  0.106605D-02 -0.898658D-02 -0.695188D-04  0.407838D-02  0.283938D-02
     19 -0.494945D-02 -0.223164D-02  0.166071D-02  0.277557D-02  0.417554D-02
     20  0.195143D-01  0.332729D-01 -0.738232D-02  0.284878D-02  0.306384D-02
     21  0.541276D-01  0.112455D-01  0.259899D-01 -0.957197D-03  0.722188D-03
     22 -0.622518D-02  0.282332D-02  0.140049D-02  0.213389D-01 -0.193428D-01
     23 -0.412941D-02 -0.190791D-01  0.232728D-02  0.199092D-01 -0.179447D-01
     24  0.164012D-01  0.937291D-02 -0.388646D-02  0.207001D-01 -0.159266D-01
     25 -0.791939D-02  0.754460D-02  0.139157D-02 -0.194646D-01 -0.135732D-02
     26 -0.582361D-02 -0.143578D-01  0.231836D-02 -0.208943D-01  0.407491D-04
     27  0.147070D-01  0.140942D-01 -0.389538D-02 -0.201034D-01  0.205886D-02
     28 -0.102946D-01  0.504506D-02  0.156677D-02  0.360286D-03  0.158971D-01
     29 -0.819886D-02 -0.168573D-01  0.249356D-02 -0.106938D-02  0.172952D-01
     30  0.123318D-01  0.115946D-01 -0.372018D-02 -0.278476D-03  0.193133D-01
     31 -0.816726D-03  0.795408D-02 -0.119955D-03  0.299048D-02 -0.234407D-03
     32 -0.495133D-02 -0.147709D-01  0.164442D-02 -0.658871D-02 -0.518383D-02
     33  0.579257D-02  0.379320D-02 -0.245398D-02  0.251147D-02  0.503817D-02
               11            12            13            14            15 
     11  0.181002D+00
     12 -0.145367D-01  0.118063D+00
     13  0.105331D-01 -0.922384D-01  0.173787D+00
     14  0.300525D-02 -0.818638D-01  0.109800D-01  0.166714D+00
     15  0.216030D-01  0.139770D-02 -0.604202D-02 -0.487306D-02  0.106479D+00
     16 -0.872325D-02 -0.764163D-02  0.290921D-01 -0.694600D-02 -0.332789D-01
     17 -0.500950D-02 -0.587291D-02 -0.614910D-02  0.216322D-01 -0.358537D-02
     18 -0.386872D-02  0.311028D-02 -0.563274D-02 -0.599285D-03 -0.373455D-01
     19 -0.577365D-02  0.263179D-02  0.561881D-03 -0.436295D-02 -0.404395D-01
     20 -0.176708D-03  0.369877D-02 -0.564833D-02 -0.385323D-02  0.464473D-02
     21  0.299475D-03  0.155850D-03  0.326246D-02 -0.342911D-02 -0.230515D-02
     22  0.251735D-03 -0.813078D-04 -0.135620D-02  0.208315D-03  0.943214D-02
     23  0.129639D-02  0.478709D-03  0.319620D-02 -0.583965D-02 -0.150143D-02
     24 -0.392739D-02 -0.363004D-03  0.618488D-02 -0.556351D-02 -0.104394D-01
     25 -0.356341D-02  0.189600D-01 -0.322019D-02  0.801255D-02  0.793301D-02
     26 -0.251875D-02  0.195201D-01  0.133221D-02  0.196459D-02 -0.300056D-02
     27 -0.774253D-02  0.186784D-01  0.432089D-02  0.224073D-02 -0.119385D-01
     28  0.579928D-02 -0.190554D-01 -0.680331D-02  0.327190D-02  0.129143D-01
     29  0.684393D-02 -0.184954D-01 -0.225091D-02 -0.277606D-02  0.198074D-02
     30  0.162016D-02 -0.193371D-01  0.737764D-03 -0.249992D-02 -0.695721D-02
     31 -0.967762D-02 -0.247108D-02 -0.798820D-03  0.101290D-01 -0.337671D-01
     32  0.900581D-02 -0.401314D-02  0.709300D-02 -0.198162D-03  0.557559D-01
     33 -0.165049D-02  0.490089D-02 -0.110239D-02 -0.968215D-02 -0.214728D-01
               16            17            18            19            20 
     16  0.161091D+00
     17  0.761828D-02  0.996918D-01
     18 -0.484355D-01 -0.642578D-02  0.709977D-01
     19  0.134809D-01 -0.354199D-01  0.510695D-02  0.608067D-01
     20 -0.635635D-01 -0.466786D-01  0.282799D-02 -0.109272D-01  0.967531D-01
     21  0.135851D-01  0.110538D-02  0.823209D-02 -0.317098D-03 -0.173092D-01
     22  0.842671D-03  0.687510D-02 -0.217213D-01  0.105228D-01 -0.615201D-02
     23  0.668204D-02  0.160654D-02  0.193998D-01  0.483277D-02 -0.305384D-01
     24  0.164909D-02 -0.135540D-01  0.167656D-02 -0.137141D-01  0.355686D-01
     25 -0.197757D-02  0.111056D-01 -0.212638D-01  0.100556D-01 -0.624123D-02
     26  0.386181D-02  0.583705D-02  0.198573D-01  0.436562D-02 -0.306276D-01
     27 -0.117115D-02 -0.932348D-02  0.213411D-02 -0.141813D-01  0.354793D-01
     28 -0.696287D-02  0.947174D-02 -0.211523D-01  0.904243D-02 -0.492702D-02
     29 -0.112350D-02  0.420318D-02  0.199688D-01  0.335242D-02 -0.293134D-01
     30 -0.615645D-02 -0.109574D-01  0.224560D-02 -0.151945D-01  0.367935D-01
     31  0.440861D-02  0.299451D-01  0.352264D-02  0.170584D-02 -0.189421D-02
     32  0.403142D-01  0.273220D-01 -0.376115D-01 -0.359944D-01 -0.337532D-01
     33 -0.313865D-01 -0.638545D-01  0.239810D-01  0.390941D-01  0.357362D-01
               21            22            23            24            25 
     21  0.164757D+00
     22 -0.472626D-02  0.314151D-01
     23  0.987441D-02  0.114497D-01  0.357796D-01
     24 -0.350404D-02  0.730923D-02  0.539131D-02  0.405452D-01
     25 -0.560342D-02  0.660578D-02 -0.148148D-01 -0.187366D-01  0.335952D-01
     26  0.899725D-02 -0.133597D-01  0.951517D-02 -0.206545D-01  0.121746D-01
     27 -0.438120D-02 -0.175001D-01 -0.208731D-01  0.144994D-01  0.825284D-02
     28 -0.584432D-02  0.744193D-02 -0.139915D-01 -0.189381D-01  0.770390D-02
     29  0.875635D-02 -0.125235D-01  0.103384D-01 -0.208560D-01 -0.137167D-01
     30 -0.462210D-02 -0.166640D-01 -0.200499D-01  0.142979D-01 -0.176385D-01
     31 -0.266852D-02  0.237951D-02 -0.639817D-02  0.316941D-02  0.456732D-02
     32  0.667536D-02  0.407131D-02  0.488455D-02 -0.751184D-02  0.296381D-02
     33 -0.231337D-02 -0.323458D-02 -0.228843D-03  0.565646D-02 -0.469861D-02
               26            27            28            29            30 
     26  0.350495D-01
     27  0.487980D-02  0.402523D-01
     28 -0.137296D-01 -0.186761D-01  0.334253D-01
     29  0.914528D-02 -0.220492D-01  0.119918D-01  0.348537D-01
     30 -0.210244D-01  0.133234D-01  0.704525D-02  0.365932D-02  0.380071D-01
     31 -0.421035D-02  0.535723D-02  0.214294D-02 -0.663473D-02  0.293285D-02
     32  0.377705D-02 -0.861934D-02  0.350195D-02  0.431519D-02 -0.808120D-02
     33 -0.169288D-02  0.419243D-02 -0.430837D-02 -0.130264D-02  0.458267D-02
               31            32            33 
     31  0.237620D-01
     32 -0.122333D-01  0.614326D-01
     33 -0.897470D-02 -0.425980D-01  0.571512D-01
 Leave Link  716 at Sun May 25 04:08:31 2025, MaxMem=  3758096384 cpu:               0.1 elap:               0.1
 (Enter /apps/easybuild-2022/easybuild/software/Compiler/NVHPC/22.11-CUDA-11.7.0/Gaussian/g16c01-CUDA-11.7.0/g16/l103.exe)

 GradGradGradGradGradGradGradGradGradGradGradGradGradGradGradGradGradGrad
 Berny optimization.
 Red2BG is reusing G-inverse.
 Internal  Forces:  Max     0.024035584 RMS     0.007567587
 Search for a local minimum.
 Step number   1 out of a maximum of   43
 All quantities printed in internal units (Hartrees-Bohrs-Radians)
 RMS Force = .75676D-02 SwitMx=.10000D-02 MixMth= 1
 Mixed Optimization -- RFO/linear search
 Second derivative matrix not updated -- analytic derivatives used.
 ITU=  0
     Eigenvalues ---    0.00218   0.00406   0.08491   0.09583   0.10498
     Eigenvalues ---    0.12661   0.13499   0.16097   0.17711   0.19588
     Eigenvalues ---    0.21500   0.23259   0.28430   0.37398   0.39006
     Eigenvalues ---    0.41832   0.42210   0.51749   0.58929   0.74691
     Eigenvalues ---    0.76723
 RFO step:  Lambda=-1.01423913D-02 EMin= 2.17808277D-03
 Linear search not attempted -- first point.
 Iteration  1 RMS(Cart)=  0.08629155 RMS(Int)=  0.00502236
 Iteration  2 RMS(Cart)=  0.00526979 RMS(Int)=  0.00139108
 Iteration  3 RMS(Cart)=  0.00001265 RMS(Int)=  0.00139099
 Iteration  4 RMS(Cart)=  0.00000000 RMS(Int)=  0.00139099
 ITry= 1 IFail=0 DXMaxC= 2.14D-01 DCOld= 1.00D+10 DXMaxT= 3.00D-01 DXLimC= 3.00D+00 Rises=F
 Variable       Old X    -DE/DX   Delta X   Delta X   Delta X     New X
                                 (Linear)    (Quad)   (Total)
    R1        2.49413   0.00133   0.00000   0.00718   0.00718   2.50131
    R2        2.49683  -0.00199   0.00000  -0.00262  -0.00262   2.49421
    R3        2.49191  -0.00065   0.00000   0.00114   0.00114   2.49305
    R4        3.49609  -0.00350   0.00000  -0.02240  -0.02240   3.47369
    R5        2.67323  -0.00570   0.00000  -0.00721  -0.00721   2.66602
    R6        2.97171   0.00436   0.00000  -0.00529  -0.00529   2.96642
    R7        2.68901   0.00703   0.00000  -0.00829  -0.00829   2.68072
    R8        1.83247  -0.00127   0.00000  -0.00371  -0.00371   1.82876
    A1        1.90975   0.00055   0.00000   0.00054   0.00034   1.91009
    A2        1.91618  -0.00016   0.00000  -0.00711  -0.00721   1.90897
    A3        1.90650   0.00171   0.00000   0.00597   0.00582   1.91232
    A4        1.91124   0.00150   0.00000   0.00362   0.00376   1.91500
    A5        1.87488  -0.00062   0.00000   0.02135   0.02132   1.89621
    A6        1.94466  -0.00293   0.00000  -0.02351  -0.02349   1.92117
    A7        1.84529   0.00665   0.00000   0.02009   0.01582   1.86111
    A8        1.80009  -0.01780   0.00000  -0.07749  -0.07880   1.72129
    A9        1.86698  -0.00485   0.00000   0.01303   0.01405   1.88102
   A10        2.00051  -0.00993   0.00000  -0.09657  -0.09789   1.90261
   A11        2.15268  -0.00209   0.00000   0.01169   0.01235   2.16503
   A12        1.76641   0.02404   0.00000   0.11378   0.11493   1.88133
   A13        1.82686   0.00576   0.00000   0.07865   0.07865   1.90551
    D1       -3.07420   0.00581   0.00000   0.06451   0.06435  -3.00985
    D2       -0.96802  -0.01076   0.00000  -0.07167  -0.07129  -1.03931
    D3        0.88646   0.00713   0.00000   0.02757   0.02744   0.91390
    D4        1.13915   0.00457   0.00000   0.04847   0.04818   1.18733
    D5       -3.03786  -0.01200   0.00000  -0.08771  -0.08746  -3.12532
    D6       -1.18338   0.00589   0.00000   0.01152   0.01128  -1.17210
    D7       -0.95414   0.00485   0.00000   0.04434   0.04421  -0.90993
    D8        1.15203  -0.01172   0.00000  -0.09184  -0.09143   1.06061
    D9        3.00652   0.00617   0.00000   0.00739   0.00730   3.01382
   D10        1.90488   0.00094   0.00000  -0.03810  -0.04265   1.86222
   D11       -2.38162  -0.00657   0.00000  -0.10614  -0.10191  -2.48353
   D12       -0.02540   0.00367   0.00000  -0.06568  -0.06535  -0.09075
         Item               Value     Threshold  Converged?
 Maximum Force            0.024036     0.000450     NO 
 RMS     Force            0.007568     0.000300     NO 
 Maximum Displacement     0.214139     0.001800     NO 
 RMS     Displacement     0.087893     0.001200     NO 
 Predicted change in Energy=-5.499532D-03
 Lowest energy point so far.  Saving SCF results.
 GradGradGradGradGradGradGradGradGradGradGradGradGradGradGradGradGradGrad

 Leave Link  103 at Sun May 25 04:08:31 2025, MaxMem=  3758096384 cpu:               0.1 elap:               0.1
 (Enter /apps/easybuild-2022/easybuild/software/Compiler/NVHPC/22.11-CUDA-11.7.0/Gaussian/g16c01-CUDA-11.7.0/g16/l202.exe)
                          Input orientation:                          
 ---------------------------------------------------------------------
 Center     Atomic      Atomic             Coordinates (Angstroms)
 Number     Number       Type             X           Y           Z
 ---------------------------------------------------------------------
      1          6           0       -0.918544   -0.166134    0.013719
      2          9           0       -1.461988    0.571384   -0.941660
      3          9           0       -1.490484    0.119774    1.168370
      4          9           0       -1.094249   -1.443389   -0.265936
      5         16           0        0.876164    0.211610    0.137408
      6          8           0        1.424322   -0.723310    1.040622
      7          8           0        1.300028   -0.178844   -1.322743
      8          8           0        1.014853    1.617359    0.267774
      9          1           0        1.480009    0.626843   -1.827708
 ---------------------------------------------------------------------
                    Distance matrix (angstroms):
                    1          2          3          4          5
     1  C    0.000000
     2  F    1.323636   0.000000
     3  F    1.319878   2.158006   0.000000
     4  F    1.319265   2.156651   2.158173   0.000000
     5  S    1.838196   2.600150   2.583086   2.604656   0.000000
     6  O    2.618014   3.733157   3.036973   2.927253   1.410797
     7  O    2.590049   2.887352   3.752569   2.906627   1.569763
     8  O    2.642615   2.948141   3.054594   3.755175   1.418577
     9  H    3.126136   3.073028   4.249403   3.654011   2.097315
                    6          7          8          9
     6  O    0.000000
     7  O    2.428453   0.000000
     8  O    2.498738   2.416074   0.000000
     9  H    3.170699   0.967737   2.364009   0.000000
 Symmetry turned off by external request.
 Stoichiometry    CHF3O3S
 Rotational constants (GHZ):           2.6850770           1.6004097           1.5812745
 Leave Link  202 at Sun May 25 04:08:31 2025, MaxMem=  3758096384 cpu:               0.0 elap:               0.0
 (Enter /apps/easybuild-2022/easybuild/software/Compiler/NVHPC/22.11-CUDA-11.7.0/Gaussian/g16c01-CUDA-11.7.0/g16/l301.exe)
 Standard basis: def2TZVPP (5D, 7F)
 Ernie: Thresh=  0.10000D-02 Tol=  0.10000D-05 Strict=F.
   273 basis functions,   443 primitive gaussians,   315 cartesian basis functions
    37 alpha electrons       37 beta electrons
       nuclear repulsion energy       574.0394349274 Hartrees.
 IExCor= 4336 DFT=T Ex+Corr=M062X ExCW=0 ScaHFX=  0.540000
 ScaDFX=  1.000000  1.000000  1.000000  1.000000 ScalE2=  1.000000  1.000000
 IRadAn=      5 IRanWt=     -1 IRanGd=            0 ICorTp=0 IEmpDi=  4
 NAtoms=    9 NActive=    9 NUniq=    9 SFac= 1.00D+00 NAtFMM=   60 NAOKFM=F Big=F
 Integral buffers will be    131072 words long.
 Raffenetti 2 integral format.
 Two-electron integral symmetry is turned off.
 Leave Link  301 at Sun May 25 04:08:31 2025, MaxMem=  3758096384 cpu:               0.1 elap:               0.0
 (Enter /apps/easybuild-2022/easybuild/software/Compiler/NVHPC/22.11-CUDA-11.7.0/Gaussian/g16c01-CUDA-11.7.0/g16/l302.exe)
 NPDir=0 NMtPBC=     1 NCelOv=     1 NCel=       1 NClECP=     1 NCelD=      1
         NCelK=      1 NCelE2=     1 NClLst=     1 CellRange=     0.0.
 One-electron integrals computed using PRISM.
   1 Symmetry operations used in ECPInt.
 ECPInt:  NShTT=    4753 NPrTT=   15592 LenC2=    4601 LenP2D=   11598.
 LDataN:  DoStor=T MaxTD1= 6 Len=  172
 NBasis=   273 RedAO= T EigKep=  9.36D-04  NBF=   273
 NBsUse=   273 1.00D-06 EigRej= -1.00D+00 NBFU=   273
 Precomputing XC quadrature grid using
 IXCGrd= 4 IRadAn=           5 IRanWt=          -1 IRanGd=           0 AccXCQ= 0.00D+00.
 Generated NRdTot=       0 NPtTot=           0 NUsed=           0 NTot=          32
 NSgBfM=   311   311   311   311   311 MxSgAt=     9 MxSgA2=     9.
 Leave Link  302 at Sun May 25 04:08:31 2025, MaxMem=  3758096384 cpu:               1.0 elap:               0.4
 (Enter /apps/easybuild-2022/easybuild/software/Compiler/NVHPC/22.11-CUDA-11.7.0/Gaussian/g16c01-CUDA-11.7.0/g16/l303.exe)
 DipDrv:  MaxL=1.
 Leave Link  303 at Sun May 25 04:08:32 2025, MaxMem=  3758096384 cpu:               0.1 elap:               0.0
 (Enter /apps/easybuild-2022/easybuild/software/Compiler/NVHPC/22.11-CUDA-11.7.0/Gaussian/g16c01-CUDA-11.7.0/g16/l401.exe)
 Initial guess from the checkpoint file:  "1502984803620600000001_intra_H_migration_5_9_IRC_F_prod.chk"
 B after Tr=     0.015818    0.029805    0.020918
         Rot=    0.999926   -0.009216    0.006812   -0.004044 Ang=  -1.39 deg.
 Guess basis will be translated and rotated to current coordinates.
 JPrj=2 DoOrth=T DoCkMO=T.
 Generating alternative initial guess.
 ExpMin= 9.52D-02 ExpMax= 6.07D+04 ExpMxC= 2.07D+03 IAcc=3 IRadAn=         5 AccDes= 0.00D+00
 Harris functional with IExCor= 1009 and IRadAn=       5 diagonalized for initial guess.
 HarFok:  IExCor= 1009 AccDes= 0.00D+00 IRadAn=         5 IDoV= 1 UseB2=F ITyADJ=14
 ICtDFT=  3500011 ScaDFX=  1.000000  1.000000  1.000000  1.000000
 FoFCou: FMM=F IPFlag=           0 FMFlag=      100000 FMFlg1=           0
         NFxFlg=           0 DoJE=T BraDBF=F KetDBF=T FulRan=T
         wScrn=  0.000000 ICntrl=       500 IOpCl=  0 I1Cent=   200000004 NGrid=           0
         NMat0=    1 NMatS0=      1 NMatT0=    0 NMatD0=    1 NMtDS0=    0 NMtDT0=    0
 Symmetry not used in FoFCou.
 Harris En= -961.690664898887    
 Leave Link  401 at Sun May 25 04:08:33 2025, MaxMem=  3758096384 cpu:               2.9 elap:               1.0
 (Enter /apps/easybuild-2022/easybuild/software/Compiler/NVHPC/22.11-CUDA-11.7.0/Gaussian/g16c01-CUDA-11.7.0/g16/l502.exe)
 Keep R1 ints in memory in canonical form, NReq=715214082.
 FoFCou: FMM=F IPFlag=           0 FMFlag=           0 FMFlg1=           0
         NFxFlg=           0 DoJE=F BraDBF=F KetDBF=F FulRan=T
         wScrn=  0.000000 ICntrl=       600 IOpCl=  0 I1Cent=           0 NGrid=           0
         NMat0=    1 NMatS0=  37401 NMatT0=    0 NMatD0=    1 NMtDS0=    0 NMtDT0=    0
 Symmetry not used in FoFCou.
 Two-electron integral symmetry not used.
 Closed shell SCF:
 Using DIIS extrapolation, IDIIS=  1040.
 NGot=  3758096384 LenX=  3058457086 LenY=  3058357420
 Requested convergence on RMS density matrix=1.00D-08 within  32 cycles.
 Requested convergence on MAX density matrix=1.00D-06.
 Requested convergence on             energy=1.00D-06.
 No special actions if energy rises.
 Integral accuracy reduced to 1.0D-05 until final iterations.

 Cycle   1  Pass 0  IDiag  1:
 E= -962.112486550132    
 DIIS: error= 4.51D-03 at cycle   1 NSaved=   1.
 NSaved= 1 IEnMin= 1 EnMin= -962.112486550132     IErMin= 1 ErrMin= 4.51D-03
 ErrMax= 4.51D-03  0.00D+00 EMaxC= 1.00D-01 BMatC= 1.13D-02 BMatP= 1.13D-02
 IDIUse=3 WtCom= 9.55D-01 WtEn= 4.51D-02
 Coeff-Com:  0.100D+01
 Coeff-En:   0.100D+01
 Coeff:      0.100D+01
 Gap=     1.063 Goal=   None    Shift=    0.000
 GapD=    1.063 DampG=2.000 DampE=1.000 DampFc=2.0000 IDamp=-1.
 RMSDP=3.67D-04 MaxDP=1.31D-02              OVMax= 2.42D-02

 Cycle   2  Pass 0  IDiag  1:
 E= -962.124774044233     Delta-E=       -0.012287494101 Rises=F Damp=F
 DIIS: error= 1.10D-03 at cycle   2 NSaved=   2.
 NSaved= 2 IEnMin= 2 EnMin= -962.124774044233     IErMin= 2 ErrMin= 1.10D-03
 ErrMax= 1.10D-03  0.00D+00 EMaxC= 1.00D-01 BMatC= 4.03D-04 BMatP= 1.13D-02
 IDIUse=3 WtCom= 9.89D-01 WtEn= 1.10D-02
 Coeff-Com: -0.881D-01 0.109D+01
 Coeff-En:   0.000D+00 0.100D+01
 Coeff:     -0.871D-01 0.109D+01
 Gap=     0.455 Goal=   None    Shift=    0.000
 RMSDP=9.57D-05 MaxDP=2.79D-03 DE=-1.23D-02 OVMax= 6.92D-03

 Cycle   3  Pass 0  IDiag  1:
 E= -962.125179456016     Delta-E=       -0.000405411783 Rises=F Damp=F
 DIIS: error= 8.18D-04 at cycle   3 NSaved=   3.
 NSaved= 3 IEnMin= 3 EnMin= -962.125179456016     IErMin= 3 ErrMin= 8.18D-04
 ErrMax= 8.18D-04  0.00D+00 EMaxC= 1.00D-01 BMatC= 3.44D-04 BMatP= 4.03D-04
 IDIUse=3 WtCom= 9.92D-01 WtEn= 8.18D-03
 Coeff-Com: -0.718D-01 0.565D+00 0.507D+00
 Coeff-En:   0.000D+00 0.000D+00 0.100D+01
 Coeff:     -0.712D-01 0.560D+00 0.511D+00
 Gap=     0.456 Goal=   None    Shift=    0.000
 RMSDP=4.19D-05 MaxDP=1.44D-03 DE=-4.05D-04 OVMax= 3.85D-03

 Cycle   4  Pass 0  IDiag  1:
 E= -962.125404498494     Delta-E=       -0.000225042478 Rises=F Damp=F
 DIIS: error= 1.80D-04 at cycle   4 NSaved=   4.
 NSaved= 4 IEnMin= 4 EnMin= -962.125404498494     IErMin= 4 ErrMin= 1.80D-04
 ErrMax= 1.80D-04  0.00D+00 EMaxC= 1.00D-01 BMatC= 2.06D-05 BMatP= 3.44D-04
 IDIUse=3 WtCom= 9.98D-01 WtEn= 1.80D-03
 Coeff-Com: -0.661D-02-0.222D-01 0.178D+00 0.851D+00
 Coeff-En:   0.000D+00 0.000D+00 0.000D+00 0.100D+01
 Coeff:     -0.660D-02-0.222D-01 0.177D+00 0.851D+00
 Gap=     0.456 Goal=   None    Shift=    0.000
 RMSDP=1.28D-05 MaxDP=4.95D-04 DE=-2.25D-04 OVMax= 1.25D-03

 Cycle   5  Pass 0  IDiag  1:
 E= -962.125420074795     Delta-E=       -0.000015576301 Rises=F Damp=F
 DIIS: error= 6.18D-05 at cycle   5 NSaved=   5.
 NSaved= 5 IEnMin= 5 EnMin= -962.125420074795     IErMin= 5 ErrMin= 6.18D-05
 ErrMax= 6.18D-05  0.00D+00 EMaxC= 1.00D-01 BMatC= 2.74D-06 BMatP= 2.06D-05
 IDIUse=1 WtCom= 1.00D+00 WtEn= 0.00D+00
 Coeff-Com:  0.774D-03-0.438D-01 0.574D-01 0.418D+00 0.568D+00
 Coeff:      0.774D-03-0.438D-01 0.574D-01 0.418D+00 0.568D+00
 Gap=     0.456 Goal=   None    Shift=    0.000
 RMSDP=3.86D-06 MaxDP=2.45D-04 DE=-1.56D-05 OVMax= 2.95D-04

 Initial convergence to 1.0D-05 achieved.  Increase integral accuracy.
 Cycle   6  Pass 1  IDiag  1:
 E= -962.125441111374     Delta-E=       -0.000021036579 Rises=F Damp=F
 DIIS: error= 2.83D-05 at cycle   1 NSaved=   1.
 NSaved= 1 IEnMin= 1 EnMin= -962.125441111374     IErMin= 1 ErrMin= 2.83D-05
 ErrMax= 2.83D-05  0.00D+00 EMaxC= 1.00D-01 BMatC= 6.35D-07 BMatP= 6.35D-07
 IDIUse=1 WtCom= 1.00D+00 WtEn= 0.00D+00
 Coeff-Com:  0.100D+01
 Coeff:      0.100D+01
 Gap=     0.456 Goal=   None    Shift=    0.000
 RMSDP=3.86D-06 MaxDP=2.45D-04 DE=-2.10D-05 OVMax= 1.73D-04

 Cycle   7  Pass 1  IDiag  1:
 E= -962.125441437488     Delta-E=       -0.000000326114 Rises=F Damp=F
 DIIS: error= 1.83D-05 at cycle   2 NSaved=   2.
 NSaved= 2 IEnMin= 2 EnMin= -962.125441437488     IErMin= 2 ErrMin= 1.83D-05
 ErrMax= 1.83D-05  0.00D+00 EMaxC= 1.00D-01 BMatC= 2.33D-07 BMatP= 6.35D-07
 IDIUse=1 WtCom= 1.00D+00 WtEn= 0.00D+00
 Coeff-Com:  0.325D+00 0.675D+00
 Coeff:      0.325D+00 0.675D+00
 Gap=     0.456 Goal=   None    Shift=    0.000
 RMSDP=1.37D-06 MaxDP=5.74D-05 DE=-3.26D-07 OVMax= 1.16D-04

 Cycle   8  Pass 1  IDiag  1:
 E= -962.125441538238     Delta-E=       -0.000000100750 Rises=F Damp=F
 DIIS: error= 1.06D-05 at cycle   3 NSaved=   3.
 NSaved= 3 IEnMin= 3 EnMin= -962.125441538238     IErMin= 3 ErrMin= 1.06D-05
 ErrMax= 1.06D-05  0.00D+00 EMaxC= 1.00D-01 BMatC= 8.25D-08 BMatP= 2.33D-07
 IDIUse=1 WtCom= 1.00D+00 WtEn= 0.00D+00
 Coeff-Com: -0.277D-01 0.367D+00 0.660D+00
 Coeff:     -0.277D-01 0.367D+00 0.660D+00
 Gap=     0.456 Goal=   None    Shift=    0.000
 RMSDP=6.24D-07 MaxDP=2.50D-05 DE=-1.01D-07 OVMax= 6.15D-05

 Cycle   9  Pass 1  IDiag  1:
 E= -962.125441592640     Delta-E=       -0.000000054401 Rises=F Damp=F
 DIIS: error= 2.07D-06 at cycle   4 NSaved=   4.
 NSaved= 4 IEnMin= 4 EnMin= -962.125441592640     IErMin= 4 ErrMin= 2.07D-06
 ErrMax= 2.07D-06  0.00D+00 EMaxC= 1.00D-01 BMatC= 2.68D-09 BMatP= 8.25D-08
 IDIUse=1 WtCom= 1.00D+00 WtEn= 0.00D+00
 Coeff-Com: -0.212D-01 0.152D+00 0.307D+00 0.562D+00
 Coeff:     -0.212D-01 0.152D+00 0.307D+00 0.562D+00
 Gap=     0.456 Goal=   None    Shift=    0.000
 RMSDP=1.21D-07 MaxDP=5.41D-06 DE=-5.44D-08 OVMax= 1.19D-05

 Cycle  10  Pass 1  IDiag  1:
 E= -962.125441594332     Delta-E=       -0.000000001692 Rises=F Damp=F
 DIIS: error= 6.17D-07 at cycle   5 NSaved=   5.
 NSaved= 5 IEnMin= 5 EnMin= -962.125441594332     IErMin= 5 ErrMin= 6.17D-07
 ErrMax= 6.17D-07  0.00D+00 EMaxC= 1.00D-01 BMatC= 2.92D-10 BMatP= 2.68D-09
 IDIUse=1 WtCom= 1.00D+00 WtEn= 0.00D+00
 Coeff-Com: -0.222D-02-0.182D-01-0.193D-01 0.219D+00 0.820D+00
 Coeff:     -0.222D-02-0.182D-01-0.193D-01 0.219D+00 0.820D+00
 Gap=     0.456 Goal=   None    Shift=    0.000
 RMSDP=6.26D-08 MaxDP=2.71D-06 DE=-1.69D-09 OVMax= 6.09D-06

 Cycle  11  Pass 1  IDiag  1:
 E= -962.125441594632     Delta-E=       -0.000000000301 Rises=F Damp=F
 DIIS: error= 2.19D-07 at cycle   6 NSaved=   6.
 NSaved= 6 IEnMin= 6 EnMin= -962.125441594632     IErMin= 6 ErrMin= 2.19D-07
 ErrMax= 2.19D-07  0.00D+00 EMaxC= 1.00D-01 BMatC= 2.11D-11 BMatP= 2.92D-10
 IDIUse=1 WtCom= 1.00D+00 WtEn= 0.00D+00
 Coeff-Com:  0.153D-02-0.215D-01-0.388D-01-0.728D-03 0.256D+00 0.803D+00
 Coeff:      0.153D-02-0.215D-01-0.388D-01-0.728D-03 0.256D+00 0.803D+00
 Gap=     0.456 Goal=   None    Shift=    0.000
 RMSDP=1.79D-08 MaxDP=5.12D-07 DE=-3.01D-10 OVMax= 1.70D-06

 Cycle  12  Pass 1  IDiag  1:
 E= -962.125441594703     Delta-E=       -0.000000000071 Rises=F Damp=F
 DIIS: error= 5.24D-08 at cycle   7 NSaved=   7.
 NSaved= 7 IEnMin= 7 EnMin= -962.125441594703     IErMin= 7 ErrMin= 5.24D-08
 ErrMax= 5.24D-08  0.00D+00 EMaxC= 1.00D-01 BMatC= 1.16D-12 BMatP= 2.11D-11
 IDIUse=1 WtCom= 1.00D+00 WtEn= 0.00D+00
 Coeff-Com:  0.558D-03-0.487D-02-0.959D-02-0.127D-01 0.260D-01 0.215D+00
 Coeff-Com:  0.785D+00
 Coeff:      0.558D-03-0.487D-02-0.959D-02-0.127D-01 0.260D-01 0.215D+00
 Coeff:      0.785D+00
 Gap=     0.456 Goal=   None    Shift=    0.000
 RMSDP=4.20D-09 MaxDP=2.03D-07 DE=-7.09D-11 OVMax= 4.16D-07

 SCF Done:  E(RM062X) =  -962.125441595     A.U. after   12 cycles
            NFock= 12  Conv=0.42D-08     -V/T= 2.0026
 KE= 9.595842242434D+02 PE=-3.430021193507D+03 EE= 9.342720927418D+02
 Leave Link  502 at Sun May 25 04:08:49 2025, MaxMem=  3758096384 cpu:              63.8 elap:              16.1
 (Enter /apps/easybuild-2022/easybuild/software/Compiler/NVHPC/22.11-CUDA-11.7.0/Gaussian/g16c01-CUDA-11.7.0/g16/l508.exe)
 QCSCF skips out because SCF is already converged.
 Leave Link  508 at Sun May 25 04:08:49 2025, MaxMem=  3758096384 cpu:               0.1 elap:               0.0
 (Enter /apps/easybuild-2022/easybuild/software/Compiler/NVHPC/22.11-CUDA-11.7.0/Gaussian/g16c01-CUDA-11.7.0/g16/l701.exe)
 ... and contract with generalized density number  0.
 Compute integral first derivatives.
   1 Symmetry operations used in ECPInt.
 ECPInt:  NShTT=    4753 NPrTT=   15592 LenC2=    4601 LenP2D=   11598.
 LDataN:  DoStor=T MaxTD1= 7 Len=  274
 Leave Link  701 at Sun May 25 04:08:49 2025, MaxMem=  3758096384 cpu:               1.0 elap:               0.2
 (Enter /apps/easybuild-2022/easybuild/software/Compiler/NVHPC/22.11-CUDA-11.7.0/Gaussian/g16c01-CUDA-11.7.0/g16/l702.exe)
 L702 exits ... SP integral derivatives will be done elsewhere.
 Leave Link  702 at Sun May 25 04:08:49 2025, MaxMem=  3758096384 cpu:               0.0 elap:               0.0
 (Enter /apps/easybuild-2022/easybuild/software/Compiler/NVHPC/22.11-CUDA-11.7.0/Gaussian/g16c01-CUDA-11.7.0/g16/l703.exe)
 Integral derivatives from FoFJK, PRISM(SPDF).
 Compute integral first derivatives, UseDBF=F ICtDFT=           0.
 Calling FoFJK, ICntrl=      2127 FMM=F ISym2X=0 I1Cent= 0 IOpClX= 0 NMat=1 NMatS=1 NMatT=0.
 FoFJK:  IHMeth= 1 ICntrl=    2127 DoSepK=F KAlg= 0 I1Cent=           0 FoldK=F
 IRaf=         0 NMat=       1 IRICut=       1 DoRegI=T DoRafI=F ISym2E= 0 IDoP0=0 IntGTp=1.
 FoFCou: FMM=F IPFlag=           0 FMFlag=      100000 FMFlg1=         800
         NFxFlg=           0 DoJE=F BraDBF=F KetDBF=F FulRan=T
         wScrn=  0.000000 ICntrl=      2127 IOpCl=  0 I1Cent=           0 NGrid=           0
         NMat0=    1 NMatS0=      1 NMatT0=    0 NMatD0=    1 NMtDS0=    0 NMtDT0=    0
 Symmetry not used in FoFCou.
 Leave Link  703 at Sun May 25 04:08:54 2025, MaxMem=  3758096384 cpu:              37.0 elap:               4.8
 (Enter /apps/easybuild-2022/easybuild/software/Compiler/NVHPC/22.11-CUDA-11.7.0/Gaussian/g16c01-CUDA-11.7.0/g16/l716.exe)
 Dipole        =-8.13388572D-02 2.20308343D-01-1.03014629D+00
 -------------------------------------------------------------------
 Center     Atomic                   Forces (Hartrees/Bohr)
 Number     Number              X              Y              Z
 -------------------------------------------------------------------
      1        6          -0.000665818    0.000712915    0.000454006
      2        9          -0.000099308   -0.000006259   -0.000196189
      3        9          -0.000079139   -0.000174188   -0.000049758
      4        9          -0.000049763    0.000252056    0.000080637
      5       16          -0.000411961    0.000417522   -0.001970131
      6        8           0.000607246   -0.000455667    0.000782360
      7        8           0.002418492   -0.002660495   -0.001563352
      8        8          -0.000617837    0.002179444    0.003436562
      9        1          -0.001101912   -0.000265328   -0.000974136
 -------------------------------------------------------------------
 Cartesian Forces:  Max     0.003436562 RMS     0.001236456
 Leave Link  716 at Sun May 25 04:08:54 2025, MaxMem=  3758096384 cpu:               0.1 elap:               0.0
 (Enter /apps/easybuild-2022/easybuild/software/Compiler/NVHPC/22.11-CUDA-11.7.0/Gaussian/g16c01-CUDA-11.7.0/g16/l103.exe)

 GradGradGradGradGradGradGradGradGradGradGradGradGradGradGradGradGradGrad
 Berny optimization.
 Using GEDIIS/GDIIS optimizer.
 FormGI is forming the generalized inverse of G from B-inverse, IUseBI=4.
 Internal  Forces:  Max     0.003444692 RMS     0.001242010
 Search for a local minimum.
 Step number   2 out of a maximum of   43
 All quantities printed in internal units (Hartrees-Bohrs-Radians)
 RMS Force = .12420D-02 SwitMx=.10000D-02 MixMth= 1
 Mixed Optimization -- RFO/linear search
 Update second derivatives using D2CorX and points    1    2
 DE= -5.54D-03 DEPred=-5.50D-03 R= 1.01D+00
 TightC=F SS=  1.41D+00  RLast= 2.91D-01 DXNew= 5.0454D-01 8.7224D-01
 Trust test= 1.01D+00 RLast= 2.91D-01 DXMaxT set to 5.05D-01
 ITU=  1  0
 Use linear search instead of GDIIS.
     Eigenvalues ---    0.00218   0.00405   0.09005   0.09814   0.10623
     Eigenvalues ---    0.12312   0.13252   0.16100   0.17739   0.19007
     Eigenvalues ---    0.21487   0.23191   0.27856   0.36903   0.39059
     Eigenvalues ---    0.41891   0.42183   0.51767   0.58920   0.74087
     Eigenvalues ---    0.76885
 RFO step:  Lambda=-6.02141532D-04 EMin= 2.17643973D-03
 Quartic linear search produced a step of  0.10648.
 Iteration  1 RMS(Cart)=  0.04720249 RMS(Int)=  0.00497760
 Iteration  2 RMS(Cart)=  0.00452339 RMS(Int)=  0.00013361
 Iteration  3 RMS(Cart)=  0.00003519 RMS(Int)=  0.00013135
 Iteration  4 RMS(Cart)=  0.00000000 RMS(Int)=  0.00013135
 ITry= 1 IFail=0 DXMaxC= 1.96D-01 DCOld= 1.00D+10 DXMaxT= 5.05D-01 DXLimC= 3.00D+00 Rises=F
 Variable       Old X    -DE/DX   Delta X   Delta X   Delta X     New X
                                 (Linear)    (Quad)   (Total)
    R1        2.50131   0.00018   0.00076   0.00249   0.00325   2.50456
    R2        2.49421  -0.00005  -0.00028  -0.00108  -0.00136   2.49284
    R3        2.49305  -0.00025   0.00012  -0.00086  -0.00073   2.49231
    R4        3.47369   0.00069  -0.00239   0.00637   0.00399   3.47768
    R5        2.66602   0.00104  -0.00077   0.00125   0.00048   2.66650
    R6        2.96642   0.00344  -0.00056   0.00493   0.00437   2.97079
    R7        2.68072   0.00242  -0.00088   0.00148   0.00060   2.68132
    R8        1.82876   0.00008  -0.00039   0.00020  -0.00019   1.82857
    A1        1.91009  -0.00004   0.00004   0.00045   0.00046   1.91055
    A2        1.90897  -0.00012  -0.00077  -0.00110  -0.00188   1.90709
    A3        1.91232   0.00007   0.00062  -0.00452  -0.00391   1.90841
    A4        1.91500  -0.00019   0.00040  -0.00089  -0.00049   1.91451
    A5        1.89621   0.00023   0.00227  -0.00025   0.00201   1.89822
    A6        1.92117   0.00004  -0.00250   0.00629   0.00379   1.92496
    A7        1.86111   0.00076   0.00168   0.00617   0.00746   1.86857
    A8        1.72129  -0.00014  -0.00839   0.02559   0.01710   1.73839
    A9        1.88102  -0.00176   0.00150  -0.02216  -0.02064   1.86039
   A10        1.90261  -0.00100  -0.01042  -0.01112  -0.02171   1.88091
   A11        2.16503  -0.00089   0.00131  -0.00026   0.00113   2.16616
   A12        1.88133   0.00311   0.01224   0.00789   0.02040   1.90174
   A13        1.90551   0.00125   0.00837   0.00591   0.01428   1.91979
    D1       -3.00985  -0.00025   0.00685   0.01988   0.02671  -2.98315
    D2       -1.03931  -0.00117  -0.00759   0.01957   0.01209  -1.02723
    D3        0.91390   0.00164   0.00292   0.03209   0.03495   0.94885
    D4        1.18733  -0.00039   0.00513   0.02215   0.02724   1.21457
    D5       -3.12532  -0.00131  -0.00931   0.02183   0.01262  -3.11270
    D6       -1.17210   0.00150   0.00120   0.03436   0.03548  -1.13662
    D7       -0.90993  -0.00032   0.00471   0.01960   0.02428  -0.88565
    D8        1.06061  -0.00124  -0.00974   0.01929   0.00966   1.07027
    D9        3.01382   0.00157   0.00078   0.03182   0.03252   3.04635
   D10        1.86222  -0.00128  -0.00454  -0.19295  -0.19779   1.66443
   D11       -2.48353  -0.00081  -0.01085  -0.17852  -0.18899  -2.67252
   D12       -0.09075  -0.00021  -0.00696  -0.18151  -0.18856  -0.27931
         Item               Value     Threshold  Converged?
 Maximum Force            0.003445     0.000450     NO 
 RMS     Force            0.001242     0.000300     NO 
 Maximum Displacement     0.195673     0.001800     NO 
 RMS     Displacement     0.047187     0.001200     NO 
 Predicted change in Energy=-3.841752D-04
 Lowest energy point so far.  Saving SCF results.
 GradGradGradGradGradGradGradGradGradGradGradGradGradGradGradGradGradGrad

 Leave Link  103 at Sun May 25 04:08:54 2025, MaxMem=  3758096384 cpu:               0.1 elap:               0.1
 (Enter /apps/easybuild-2022/easybuild/software/Compiler/NVHPC/22.11-CUDA-11.7.0/Gaussian/g16c01-CUDA-11.7.0/g16/l202.exe)
                          Input orientation:                          
 ---------------------------------------------------------------------
 Center     Atomic      Atomic             Coordinates (Angstroms)
 Number     Number       Type             X           Y           Z
 ---------------------------------------------------------------------
      1          6           0       -0.908088   -0.160575    0.007637
      2          9           0       -1.431243    0.572519   -0.964708
      3          9           0       -1.494942    0.140947    1.149942
      4          9           0       -1.092472   -1.438120   -0.263128
      5         16           0        0.889150    0.208745    0.149993
      6          8           0        1.436895   -0.737635    1.041850
      7          8           0        1.351888   -0.176634   -1.302169
      8          8           0        1.002460    1.613757    0.312346
      9          1           0        1.376463    0.612287   -1.861917
 ---------------------------------------------------------------------
                    Distance matrix (angstroms):
                    1          2          3          4          5
     1  C    0.000000
     2  F    1.325358   0.000000
     3  F    1.319157   2.159180   0.000000
     4  F    1.318876   2.156305   2.156896   0.000000
     5  S    1.840307   2.599831   2.586192   2.609533   0.000000
     6  O    2.627079   3.737512   3.062558   2.931100   1.411052
     7  O    2.612152   2.901884   3.770696   2.940382   1.572075
     8  O    2.625128   2.939040   3.017905   3.746180   1.418893
     9  H    3.051511   2.947843   4.187890   3.585517   2.109053
                    6          7          8          9
     6  O    0.000000
     7  O    2.411716   0.000000
     8  O    2.499991   2.436034   0.000000
     9  H    3.202781   0.967636   2.422859   0.000000
 Symmetry turned off by external request.
 Stoichiometry    CHF3O3S
 Rotational constants (GHZ):           2.6801384           1.5942059           1.5819976
 Leave Link  202 at Sun May 25 04:08:54 2025, MaxMem=  3758096384 cpu:               0.0 elap:               0.0
 (Enter /apps/easybuild-2022/easybuild/software/Compiler/NVHPC/22.11-CUDA-11.7.0/Gaussian/g16c01-CUDA-11.7.0/g16/l301.exe)
 Standard basis: def2TZVPP (5D, 7F)
 Ernie: Thresh=  0.10000D-02 Tol=  0.10000D-05 Strict=F.
   273 basis functions,   443 primitive gaussians,   315 cartesian basis functions
    37 alpha electrons       37 beta electrons
       nuclear repulsion energy       573.6255294906 Hartrees.
 IExCor= 4336 DFT=T Ex+Corr=M062X ExCW=0 ScaHFX=  0.540000
 ScaDFX=  1.000000  1.000000  1.000000  1.000000 ScalE2=  1.000000  1.000000
 IRadAn=      5 IRanWt=     -1 IRanGd=            0 ICorTp=0 IEmpDi=  4
 NAtoms=    9 NActive=    9 NUniq=    9 SFac= 1.00D+00 NAtFMM=   60 NAOKFM=F Big=F
 Integral buffers will be    131072 words long.
 Raffenetti 2 integral format.
 Two-electron integral symmetry is turned off.
 Leave Link  301 at Sun May 25 04:08:54 2025, MaxMem=  3758096384 cpu:               0.0 elap:               0.0
 (Enter /apps/easybuild-2022/easybuild/software/Compiler/NVHPC/22.11-CUDA-11.7.0/Gaussian/g16c01-CUDA-11.7.0/g16/l302.exe)
 NPDir=0 NMtPBC=     1 NCelOv=     1 NCel=       1 NClECP=     1 NCelD=      1
         NCelK=      1 NCelE2=     1 NClLst=     1 CellRange=     0.0.
 One-electron integrals computed using PRISM.
   1 Symmetry operations used in ECPInt.
 ECPInt:  NShTT=    4753 NPrTT=   15592 LenC2=    4602 LenP2D=   11598.
 LDataN:  DoStor=T MaxTD1= 6 Len=  172
 NBasis=   273 RedAO= T EigKep=  9.60D-04  NBF=   273
 NBsUse=   273 1.00D-06 EigRej= -1.00D+00 NBFU=   273
 Precomputing XC quadrature grid using
 IXCGrd= 4 IRadAn=           5 IRanWt=          -1 IRanGd=           0 AccXCQ= 0.00D+00.
 Generated NRdTot=       0 NPtTot=           0 NUsed=           0 NTot=          32
 NSgBfM=   311   311   311   311   311 MxSgAt=     9 MxSgA2=     9.
 Leave Link  302 at Sun May 25 04:08:54 2025, MaxMem=  3758096384 cpu:               0.7 elap:               0.2
 (Enter /apps/easybuild-2022/easybuild/software/Compiler/NVHPC/22.11-CUDA-11.7.0/Gaussian/g16c01-CUDA-11.7.0/g16/l303.exe)
 DipDrv:  MaxL=1.
[...]
     27  0.558502D-02 -0.730481D-02  0.216173D-02 -0.105731D-01  0.248082D-01
     28 -0.831392D-02  0.994514D-02 -0.241381D-01  0.983793D-02 -0.193612D-02
     29 -0.433005D-02  0.107522D-02  0.232611D-01 -0.528820D-03 -0.223145D-01
     30  0.865816D-03 -0.942363D-02  0.243652D-02 -0.113695D-01  0.259931D-01
     31  0.435339D-02  0.334855D-01  0.514586D-03  0.774886D-03 -0.364577D-02
     32  0.423201D-01  0.210816D-01 -0.348461D-01 -0.390459D-01 -0.269908D-01
     33 -0.386651D-01 -0.589521D-01  0.259390D-01  0.395773D-01  0.329735D-01
               21            22            23            24            25 
     21  0.148672D+00
     22 -0.458046D-02  0.340412D-01
     23  0.928744D-02  0.918709D-02  0.345592D-01
     24 -0.398513D-02  0.772835D-02  0.976173D-02  0.364007D-01
     25 -0.501539D-02  0.878339D-02 -0.172548D-01 -0.183643D-01  0.351041D-01
     26  0.885251D-02 -0.160707D-01  0.811729D-02 -0.163309D-01  0.906594D-02
     27 -0.442006D-02 -0.175295D-01 -0.166801D-01  0.103080D-01  0.795641D-02
     28 -0.523956D-02  0.946756D-02 -0.165773D-01 -0.189333D-01  0.992182D-02
     29  0.862834D-02 -0.153866D-01  0.879476D-02 -0.168999D-01 -0.161164D-01
     30 -0.464423D-02 -0.168453D-01 -0.160027D-01  0.973911D-02 -0.172259D-01
     31 -0.141131D-02  0.270306D-02 -0.547867D-02  0.262272D-02  0.498863D-02
     32  0.201648D-02  0.449535D-02  0.139384D-02 -0.460662D-02  0.336532D-02
     33  0.113607D-02 -0.429947D-02  0.194465D-02  0.423024D-02 -0.577912D-02
               26            27            28            29            30 
     26  0.332540D-01
     27  0.880576D-02  0.357939D-01
     28 -0.161231D-01 -0.184790D-01  0.359003D-01
     29  0.806498D-02 -0.176297D-01  0.985540D-02  0.340367D-01
     30 -0.163832D-01  0.935854D-02  0.749946D-02  0.834211D-02  0.340839D-01
     31 -0.319310D-02  0.490829D-02  0.189984D-02 -0.628190D-02  0.181949D-02
     32  0.263800D-03 -0.573666D-02  0.416752D-02  0.106600D-02 -0.493446D-02
     33  0.465003D-03  0.275059D-02 -0.481941D-02  0.142471D-02  0.371029D-02
               31            32            33 
     31  0.257806D-01
     32 -0.104007D-01  0.617027D-01
     33 -0.119905D-01 -0.438810D-01  0.598462D-01
 Leave Link  716 at Sun May 25 04:11:56 2025, MaxMem=  3758096384 cpu:               0.1 elap:               0.0
 (Enter /apps/easybuild-2022/easybuild/software/Compiler/NVHPC/22.11-CUDA-11.7.0/Gaussian/g16c01-CUDA-11.7.0/g16/l103.exe)

 GradGradGradGradGradGradGradGradGradGradGradGradGradGradGradGradGradGrad
 Berny optimization.
 Red2BG is reusing G-inverse.
 Internal  Forces:  Max     0.000002954 RMS     0.000001331
 Search for a local minimum.
 Step number   1 out of a maximum of    2
 All quantities printed in internal units (Hartrees-Bohrs-Radians)
 Second derivative matrix not updated -- analytic derivatives used.
 ITU=  0
     Eigenvalues ---    0.00246   0.00464   0.09419   0.09925   0.11022
     Eigenvalues ---    0.11319   0.13660   0.16844   0.17805   0.19265
     Eigenvalues ---    0.22365   0.23162   0.27621   0.36822   0.39425
     Eigenvalues ---    0.41172   0.42472   0.52356   0.58647   0.75131
     Eigenvalues ---    0.78396
 Angle between quadratic step and forces=  71.13 degrees.
 Linear search not attempted -- first point.
 Iteration  1 RMS(Cart)=  0.00004070 RMS(Int)=  0.00000000
 Iteration  2 RMS(Cart)=  0.00000000 RMS(Int)=  0.00000000
 ITry= 1 IFail=0 DXMaxC= 1.76D-04 DCOld= 1.00D+10 DXMaxT= 3.00D-01 DXLimC= 3.00D+00 Rises=F
 Variable       Old X    -DE/DX   Delta X   Delta X   Delta X     New X
                                 (Linear)    (Quad)   (Total)
    R1        2.50622   0.00000   0.00000   0.00000   0.00000   2.50623
    R2        2.49225   0.00000   0.00000   0.00000   0.00000   2.49225
    R3        2.49201   0.00000   0.00000   0.00000   0.00000   2.49201
    R4        3.47727  -0.00000   0.00000  -0.00001  -0.00001   3.47726
    R5        2.66698  -0.00000   0.00000  -0.00000  -0.00000   2.66698
    R6        2.97171  -0.00000   0.00000  -0.00000  -0.00000   2.97170
    R7        2.68136  -0.00000   0.00000  -0.00000  -0.00000   2.68135
    R8        1.82941  -0.00000   0.00000  -0.00000  -0.00000   1.82940
    A1        1.91021  -0.00000   0.00000  -0.00001  -0.00001   1.91021
    A2        1.90649   0.00000   0.00000  -0.00000  -0.00000   1.90649
    A3        1.90630  -0.00000   0.00000  -0.00001  -0.00001   1.90629
    A4        1.91510  -0.00000   0.00000   0.00000   0.00000   1.91510
    A5        1.90036   0.00000   0.00000   0.00001   0.00001   1.90038
    A6        1.92528  -0.00000   0.00000  -0.00000  -0.00000   1.92528
    A7        1.87055  -0.00000   0.00000   0.00000   0.00000   1.87056
    A8        1.73246  -0.00000   0.00000  -0.00001  -0.00001   1.73246
    A9        1.86305   0.00000   0.00000  -0.00000  -0.00000   1.86305
   A10        1.88051  -0.00000   0.00000  -0.00001  -0.00001   1.88050
   A11        2.16147   0.00000   0.00000   0.00002   0.00002   2.16149
   A12        1.90755  -0.00000   0.00000  -0.00002  -0.00002   1.90753
   A13        1.92170  -0.00000   0.00000  -0.00001  -0.00001   1.92169
    D1       -2.96707   0.00000   0.00000   0.00005   0.00005  -2.96703
    D2       -1.01336   0.00000   0.00000   0.00003   0.00003  -1.01332
    D3        0.96752  -0.00000   0.00000   0.00001   0.00001   0.96753
    D4        1.23103   0.00000   0.00000   0.00005   0.00005   1.23108
    D5       -3.09844   0.00000   0.00000   0.00004   0.00004  -3.09840
    D6       -1.11756  -0.00000   0.00000   0.00002   0.00002  -1.11755
    D7       -0.87145   0.00000   0.00000   0.00004   0.00004  -0.87141
    D8        1.08227   0.00000   0.00000   0.00003   0.00003   1.08229
    D9        3.06314  -0.00000   0.00000   0.00001   0.00001   3.06315
   D10        1.61209  -0.00000   0.00000  -0.00013  -0.00013   1.61197
   D11       -2.72524  -0.00000   0.00000  -0.00013  -0.00013  -2.72537
   D12       -0.33382   0.00000   0.00000  -0.00011  -0.00011  -0.33394
         Item               Value     Threshold  Converged?
 Maximum Force            0.000003     0.000450     YES
 RMS     Force            0.000001     0.000300     YES
 Maximum Displacement     0.000176     0.001800     YES
 RMS     Displacement     0.000041     0.001200     YES
 Predicted change in Energy=-2.926284D-10
 Optimization completed.
    -- Stationary point found.
                           ----------------------------
                           !   Optimized Parameters   !
                           ! (Angstroms and Degrees)  !
 --------------------------                            --------------------------
 ! Name  Definition              Value          Derivative Info.                !
 --------------------------------------------------------------------------------
 ! R1    R(1,2)                  1.3262         -DE/DX =    0.0                 !
 ! R2    R(1,3)                  1.3188         -DE/DX =    0.0                 !
 ! R3    R(1,4)                  1.3187         -DE/DX =    0.0                 !
 ! R4    R(1,5)                  1.8401         -DE/DX =    0.0                 !
 ! R5    R(5,6)                  1.4113         -DE/DX =    0.0                 !
 ! R6    R(5,7)                  1.5726         -DE/DX =    0.0                 !
 ! R7    R(5,8)                  1.4189         -DE/DX =    0.0                 !
 ! R8    R(7,9)                  0.9681         -DE/DX =    0.0                 !
 ! A1    A(2,1,3)              109.447          -DE/DX =    0.0                 !
 ! A2    A(2,1,4)              109.234          -DE/DX =    0.0                 !
 ! A3    A(2,1,5)              109.2227         -DE/DX =    0.0                 !
 ! A4    A(3,1,4)              109.7272         -DE/DX =    0.0                 !
 ! A5    A(3,1,5)              108.8828         -DE/DX =    0.0                 !
 ! A6    A(4,1,5)              110.3105         -DE/DX =    0.0                 !
 ! A7    A(1,5,6)              107.1748         -DE/DX =    0.0                 !
 ! A8    A(1,5,7)               99.2627         -DE/DX =    0.0                 !
 ! A9    A(1,5,8)              106.7449         -DE/DX =    0.0                 !
 ! A10   A(6,5,7)              107.7453         -DE/DX =    0.0                 !
 ! A11   A(6,5,8)              123.8429         -DE/DX =    0.0                 !
 ! A12   A(7,5,8)              109.2944         -DE/DX =    0.0                 !
 ! A13   A(5,7,9)              110.1051         -DE/DX =    0.0                 !
 ! D1    D(2,1,5,6)           -170.0008         -DE/DX =    0.0                 !
 ! D2    D(2,1,5,7)            -58.061          -DE/DX =    0.0                 !
 ! D3    D(2,1,5,8)             55.4347         -DE/DX =    0.0                 !
 ! D4    D(3,1,5,6)             70.5329         -DE/DX =    0.0                 !
 ! D5    D(3,1,5,7)           -177.5273         -DE/DX =    0.0                 !
 ! D6    D(3,1,5,8)            -64.0316         -DE/DX =    0.0                 !
 ! D7    D(4,1,5,6)            -49.9305         -DE/DX =    0.0                 !
 ! D8    D(4,1,5,7)             62.0093         -DE/DX =    0.0                 !
 ! D9    D(4,1,5,8)            175.5049         -DE/DX =    0.0                 !
 ! D10   D(1,5,7,9)             92.3661         -DE/DX =    0.0                 !
 ! D11   D(6,5,7,9)           -156.1447         -DE/DX =    0.0                 !
 ! D12   D(8,5,7,9)            -19.1267         -DE/DX =    0.0                 !
 --------------------------------------------------------------------------------
 GradGradGradGradGradGradGradGradGradGradGradGradGradGradGradGradGradGrad

 Leave Link  103 at Sun May 25 04:11:56 2025, MaxMem=  3758096384 cpu:               0.1 elap:               0.0
 (Enter /apps/easybuild-2022/easybuild/software/Compiler/NVHPC/22.11-CUDA-11.7.0/Gaussian/g16c01-CUDA-11.7.0/g16/l9999.exe)

 ----------------------------------------------------------------------

 Electric dipole moment (input orientation):
 (Debye = 10**-18 statcoulomb cm , SI units = C m)
                  (au)            (Debye)         (10**-30 SI)
   Tot        0.112106D+01      0.284946D+01      0.950476D+01
   x         -0.188934D+00     -0.480223D+00     -0.160185D+01
   y          0.220955D+00      0.561612D+00      0.187333D+01
   z         -0.108271D+01     -0.275198D+01     -0.917960D+01

 Dipole polarizability, Alpha (input orientation).
 (esu units = cm**3 , SI units = C**2 m**2 J**-1)
 Alpha(0;0):
               (au)            (10**-24 esu)      (10**-40 SI)
   iso        0.412122D+02      0.610702D+01      0.679497D+01
   aniso      0.281295D+01      0.416836D+00      0.463793D+00
   xx         0.412526D+02      0.611301D+01      0.680164D+01
   yx         0.313298D+00      0.464259D-01      0.516558D-01
   yy         0.416343D+02      0.616957D+01      0.686458D+01
   zx         0.499870D-01      0.740730D-02      0.824174D-02
   zy        -0.152971D+01     -0.226680D+00     -0.252215D+00
   zz         0.407496D+02      0.603847D+01      0.671871D+01

 ----------------------------------------------------------------------

 Dipole orientation:
     6         -1.68724962          0.32312478          0.21983919
     9         -2.30652133         -0.64033500          2.44905191
     9         -3.15025052         -0.65772335         -1.54336562
     9         -1.98761859          2.79618128          0.28229909
    16          1.62186364         -0.47321826         -0.49219406
     8          2.32764231          0.94133477         -2.64015127
     8          2.93031934          0.75946437          1.87412879
     8          1.82679301         -3.14169010         -0.32806954
     1          3.10106577         -0.47562505          3.21283160

 Electric dipole moment (dipole orientation):
 (Debye = 10**-18 statcoulomb cm , SI units = C m)
                  (au)            (Debye)         (10**-30 SI)
   Tot        0.112106D+01      0.284946D+01      0.950476D+01
   x          0.000000D+00      0.000000D+00      0.000000D+00
   y          0.000000D+00      0.000000D+00      0.000000D+00
   z          0.112106D+01      0.284946D+01      0.950476D+01

 Dipole polarizability, Alpha (dipole orientation).
 (esu units = cm**3 , SI units = C**2 m**2 J**-1)
 Alpha(0;0):
               (au)            (10**-24 esu)      (10**-40 SI)
   iso        0.412122D+02      0.610702D+01      0.679497D+01
   aniso      0.281295D+01      0.416836D+00      0.463793D+00
   xx         0.412410D+02      0.611128D+01      0.679972D+01
   yx        -0.582971D+00     -0.863874D-01     -0.961189D-01
   yy         0.410195D+02      0.607846D+01      0.676320D+01
   zx         0.898651D-02      0.133166D-02      0.148167D-02
   zy        -0.150506D+01     -0.223027D+00     -0.248151D+00
   zz         0.413761D+02      0.613131D+01      0.682200D+01

 ----------------------------------------------------------------------
 Unable to Open any file for archive entry.
 1\1\GINC-SPARTAN-BM197\Freq\RM062X\def2TZVPP\C1H1F3O3S1\AKHALILOV\25-M
 ay-2025\0\\#P Geom=AllCheck Guess=TCheck SCRF=Check GenChk RM062X/def2
 TZVPP Freq\\Gaussian input prepared by ASE\\0,1\C,-0.9024487852,-0.159
 7693966,0.0044185555\F,-1.4156112618,0.5669613086,-0.9791593652\F,-1.4
 994313838,0.1520360753,1.1383222222\F,-1.0867842546,-1.4387648399,-0.2
 586497707\S,0.893979451,0.2086352143,0.1562607448\O,1.4409778815,-0.74
 28383265,1.0435480665\O,1.3543222033,-0.1722798514,-1.2983640141\O,1.0
 100800441,1.6117753957,0.332420595\H,1.3350261055,0.6095364206,-1.8689
 510341\\Version=ES64L-G16RevC.01\HF=-962.1258915\RMSD=3.888e-09\RMSF=4
 .804e-06\ZeroPoint=0.0405295\Thermal=0.0479898\ETot=-962.0779017\HTot=
 -962.0769575\GTot=-962.1179407\Dipole=-0.1889341,0.220955,-1.0827108\D
 ipoleDeriv=1.5663056,0.0266676,-0.0384505,0.0116553,1.5002442,0.006821
 7,-0.0383046,0.0049182,1.4984473,-0.5908176,0.1481198,-0.2556198,0.137
 4747,-0.4261394,0.2379442,-0.2503155,0.2492212,-0.6121544,-0.5973415,0
 .0506371,0.3352704,0.0442752,-0.2757633,-0.1115898,0.2900827,-0.112277
 1,-0.7017116,-0.4474861,-0.2277572,-0.0389673,-0.20247,-0.8762035,-0.1
 239592,-0.0439196,-0.1386003,-0.2740095,1.7567793,-0.0445914,-0.032144
 3,-0.080306,2.1349081,0.0106898,-0.0774848,-0.0692318,2.2880144,-0.748
 5272,0.1274027,-0.1810191,0.1996358,-0.7562409,0.2734447,-0.2032184,0.
 1929737,-0.7380408,-0.6422563,-0.0078802,0.2462535,0.0040697,-0.436308
 ,-0.0564579,0.376919,-0.0814229,-1.2950331,-0.6322197,-0.1051485,-0.01
 50164,-0.1712411,-1.138097,-0.1496693,-0.0126473,-0.0200333,-0.5870029
 ,0.3355635,0.0325502,-0.0203066,0.0569063,0.2735998,-0.0872242,-0.0411
 115,-0.0255476,0.4214907\Polar=41.2526113,0.3132977,41.6343454,0.04998
 7,-1.5297097,40.7496468\PG=Unknown\NImag=0\\0.54403169,-0.00210685,0.5
 8285103,-0.00860160,0.00563027,0.57666482,-0.13902082,0.05880394,-0.08
 754937,0.12376416,0.05643405,-0.13414045,0.08667692,-0.07993277,0.1905
 6453,-0.08324225,0.08617742,-0.19655095,0.10321439,-0.14657367,0.27826
 066,-0.16130782,0.02768474,0.11804704,0.02123524,-0.00377897,-0.005943
 52,0.14545135,0.02664894,-0.08525458,-0.04300622,-0.00775951,0.0125459
 6,0.02292572,-0.04306917,0.10242227,0.11327409,-0.04399856,-0.24626501
 ,0.01234118,0.01411990,-0.07972278,-0.15019849,0.07717249,0.36247535,-
 0.09715594,-0.06264433,-0.01356251,0.01481266,0.02349977,-0.00183472,0
 .01507947,0.02472139,0.01255603,0.07479885,-0.05977166,-0.30915920,-0.
 04970890,0.00842838,-0.06954169,0.02599022,0.01169925,-0.03571328,-0.0
 4266354,0.04742974,0.43929698,-0.01216567,-0.04774436,-0.08376222,0.00
 131381,0.03997400,0.00775133,0.00440734,-0.05643859,-0.02530527,0.0091
 4539,0.07185920,0.09682537,-0.19400299,-0.03545546,-0.01912015,-0.0023
 8521,-0.00111788,0.00012667,-0.00151829,-0.00035747,0.00175049,0.00758
 642,0.00991540,0.00157813,0.60149132,-0.03373270,-0.02988178,-0.002556
 11,0.02618664,-0.00823532,0.01818411,0.01281361,0.00066601,-0.00846573
 ,-0.03015606,-0.03443090,-0.00806652,-0.09925394,1.24171057,-0.0076206
 7,-0.00117576,-0.02154310,-0.03207380,0.01060060,-0.02155873,0.0371966
 1,-0.00225756,-0.02140074,-0.00731890,-0.00739350,-0.00073545,0.115452
 87,-0.17598876,0.78659008,0.01834965,0.02298375,-0.01666671,-0.0137855
 7,0.00298673,-0.00786259,-0.00414596,-0.00090793,0.00404467,-0.0029638
 0,-0.00435300,-0.00001865,-0.20628106,0.17452259,-0.16750218,0.1703421
 0,-0.01185350,-0.00863568,0.00514921,0.00200028,0.00182674,-0.00032516
 ,0.00160069,0.00116219,-0.00199828,0.00330350,0.00917776,0.00012677,0.
 17115950,-0.38611361,0.27046292,-0.18700030,0.38687653,0.01131234,0.01
 374562,-0.00617945,-0.00495533,-0.00016614,-0.00088164,-0.00672994,-0.
 00058169,0.00681219,-0.00093978,-0.00232264,0.00095526,-0.16342585,0.2
 7134923,-0.33380084,0.17793335,-0.30038917,0.35443519,0.00999752,0.009
 17740,0.02365921,-0.00163378,0.00003715,-0.00037371,-0.01152318,-0.000
 01111,0.00549736,-0.00237061,-0.00388021,-0.00166226,-0.09638483,0.020
 38124,0.06273172,0.01411245,0.00117791,-0.01096262,0.07751914,-0.00197
 747,0.00210355,0.00067849,-0.00193039,0.00135148,-0.00184665,-0.001807
 36,0.00056419,0.00127429,0.00203093,0.00410079,0.00164191,0.01357851,-
 0.10788305,-0.02412831,-0.00229102,0.00677741,0.03489197,-0.03921838,0
 .45353377,-0.01839776,-0.00873189,-0.02387453,0.00577749,-0.00266606,0
 .00971033,0.00824469,0.00070200,-0.00079673,0.00428934,0.00580170,0.00
 385545,0.06888076,-0.05348342,-0.24805099,0.00902876,-0.00010200,-0.03
 115632,-0.08278247,-0.17498677,0.48698471,0.01807175,-0.01716675,-0.00
 260261,-0.00209329,0.00043302,-0.00102888,-0.00218901,0.00070116,0.001
 17417,-0.00962026,-0.01006848,-0.00221241,-0.10687796,-0.06408419,-0.0
 1025823,0.02228480,0.01923827,-0.00081464,0.01703936,0.01341600,0.0079
 6087,0.06537994,0.02799358,-0.01758208,-0.00147137,-0.00680315,0.00630
 111,-0.00501012,-0.00664841,0.00368899,0.00520838,-0.00830175,-0.00367
 580,-0.00141078,-0.05898546,-0.68950418,-0.06858109,-0.00566580,-0.013
 19093,-0.00985854,0.00195579,-0.00922963,-0.01076733,0.05752708,0.7294
 0800,0.00232019,-0.00332685,0.00076062,0.00230655,-0.00200484,0.003318
 32,-0.00404190,0.00144772,0.00395634,-0.00109091,-0.00079332,0.0005388
 8,-0.00785943,-0.07327275,-0.10273992,-0.00053013,0.02916012,0.0137835
 0,0.00019153,-0.04156641,-0.01033183,0.00969004,0.09207720,0.08282574,
 0.00103695,-0.00127644,0.00639672,-0.00089339,0.00143890,-0.00305540,-
 0.00108180,0.00003369,-0.00043950,-0.00016678,0.00060058,-0.00038568,-
 0.00162740,-0.00667721,0.00939257,0.00208740,0.00037365,-0.00141754,-0
 .00675606,0.01819919,-0.00300169,-0.00199533,-0.00107187,-0.00098594,0
 .00939641,-0.00163439,-0.00030081,-0.00139229,0.00100657,-0.00067237,0
 .00047813,0.00150562,-0.00008175,-0.00064895,0.00011680,-0.00005466,0.
 00005835,0.00051680,0.01367225,-0.00153853,-0.00027502,0.00211957,-0.0
 0666864,0.01038020,-0.35131852,0.24423376,0.00000390,-0.00621548,-0.00
 172088,-0.01162048,0.34285177,0.00312132,-0.00057590,0.00074982,-0.000
 37491,0.00003929,-0.00032654,-0.00098183,0.00003612,0.00024666,-0.0012
 4395,-0.00076922,-0.00012335,0.00261651,0.03229994,-0.03676030,0.00157
 347,-0.00208441,-0.00396789,0.00370123,0.20404148,-0.18634008,-0.00190
 831,-0.00018636,0.00788835,-0.00650354,-0.23280094,0.21863333\\-0.0000
 0194,-0.00000212,0.00000246,-0.00000242,-0.00000944,-0.00000018,0.0000
 0258,0.00000065,0.00000168,0.00000456,-0.00000391,0.00000892,-0.000000
 04,0.00000317,-0.00000703,0.00000506,0.00001210,0.00000456,-0.00000095
 ,-0.00000325,-0.00000167,-0.00000396,0.00000664,-0.00000404,-0.0000028
 9,-0.00000382,-0.00000472\\\@
 The archive entry for this job was punched.


      SCIENCE SANS CONSCIENCE N'EST QUE RUINE DE L'AME.

                                                  -- RABELAIS
 Job cpu time:       0 days  0 hours 13 minutes 52.7 seconds.
 Elapsed time:       0 days  0 hours  1 minutes 48.0 seconds.
 File lengths (MBytes):  RWF=     75 Int=      0 D2E=      0 Chk=      6 Scr=      1
 Normal termination of Gaussian 16 at Sun May 25 04:11:56 2025.
done
