 Entering Gaussian System, Link 0=g16
 Initial command:
 /apps/easybuild-2022/easybuild/software/Compiler/NVHPC/22.11-CUDA-11.7.0/Gaussian/g16c01-CUDA-11.7.0/g16/l1.exe "/tmp/Gau-46243.inp" -scrdir="/tmp/"
 Entering Link 1 = /apps/easybuild-2022/easybuild/software/Compiler/NVHPC/22.11-CUDA-11.7.0/Gaussian/g16c01-CUDA-11.7.0/g16/l1.exe PID=     46244.
  
 Copyright (c) 1988-2019, Gaussian, Inc.  All Rights Reserved.
  
 This is part of the Gaussian(R) 16 program.  It is based on
 the Gaussian(R) 09 system (copyright 2009, Gaussian, Inc.),
 the Gaussian(R) 03 system (copyright 2003, Gaussian, Inc.),
 the Gaussian(R) 98 system (copyright 1998, Gaussian, Inc.),
 the Gaussian(R) 94 system (copyright 1995, Gaussian, Inc.),
 the Gaussian 92(TM) system (copyright 1992, Gaussian, Inc.),
 the Gaussian 90(TM) system (copyright 1990, Gaussian, Inc.),
 the Gaussian 88(TM) system (copyright 1988, Gaussian, Inc.),
 the Gaussian 86(TM) system (copyright 1986, Carnegie Mellon
 University), and the Gaussian 82(TM) system (copyright 1983,
 Carnegie Mellon University). Gaussian is a federally registered
 trademark of Gaussian, Inc.
  
 This software contains proprietary and confidential information,
 including trade secrets, belonging to Gaussian, Inc.
  
 This software is provided under written license and may be
 used, copied, transmitted, or stored only in accord with that
 written license.
  
 The following legend is applicable only to US Government
 contracts under FAR:
  
                    RESTRICTED RIGHTS LEGEND
  
 Use, reproduction and disclosure by the US Government is
 subject to restrictions as set forth in subparagraphs (a)
 and (c) of the Commercial Computer Software - Restricted
 Rights clause in FAR 52.227-19.
  
 Gaussian, Inc.
 340 Quinnipiac St., Bldg. 40, Wallingford CT 06492
  
  
 ---------------------------------------------------------------
 Warning -- This program may not be used in any manner that
 competes with the business of Gaussian, Inc. or will provide
 assistance to any competitor of Gaussian, Inc.  The licensee
 of this program is prohibited from giving any competitor of
 Gaussian, Inc. access to this program.  By using this program,
 the user acknowledges that Gaussian, Inc. is engaged in the
 business of creating and licensing software in the field of
 computational chemistry and represents and warrants to the
 licensee that it is not a competitor of Gaussian, Inc. and that
 it will not use this program in any manner prohibited above.
 ---------------------------------------------------------------
  

 Cite this work as:
 Gaussian 16, Revision C.01,
 M. J. Frisch, G. W. Trucks, H. B. Schlegel, G. E. Scuseria, 
 M. A. Robb, J. R. Cheeseman, G. Scalmani, V. Barone, 
 G. A. Petersson, H. Nakatsuji, X. Li, M. Caricato, A. V. Marenich, 
 J. Bloino, B. G. Janesko, R. Gomperts, B. Mennucci, H. P. Hratchian, 
 J. V. Ortiz, A. F. Izmaylov, J. L. Sonnenberg, D. Williams-Young, 
 F. Ding, F. Lipparini, F. Egidi, J. Goings, B. Peng, A. Petrone, 
 T. Henderson, D. Ranasinghe, V. G. Zakrzewski, J. Gao, N. Rega, 
 G. Zheng, W. Liang, M. Hada, M. Ehara, K. Toyota, R. Fukuda, 
 J. Hasegawa, M. Ishida, T. Nakajima, Y. Honda, O. Kitao, H. Nakai, 
 T. Vreven, K. Throssell, J. A. Montgomery, Jr., J. E. Peralta, 
 F. Ogliaro, M. J. Bearpark, J. J. Heyd, E. N. Brothers, K. N. Kudin, 
 V. N. Staroverov, T. A. Keith, R. Kobayashi, J. Normand, 
 K. Raghavachari, A. P. Rendell, J. C. Burant, S. S. Iyengar, 
 J. Tomasi, M. Cossi, J. M. Millam, M. Klene, C. Adamo, R. Cammi, 
 J. W. Ochterski, R. L. Martin, K. Morokuma, O. Farkas, 
 J. B. Foresman, and D. J. Fox, Gaussian, Inc., Wallingford CT, 2019.
 
 ******************************************
 Gaussian 16:  ES64L-G16RevC.01  3-Jul-2019
                25-May-2025 
 ******************************************
 %mem=28GB
 %chk=1502984803620600000001_r12_insertion_R_1_5_8
 %nprocshared=8
 Will use up to    8 processors via shared memory.
 ----------------------------------------------------------------------
 #P M062X/Def2TZVPP Symm(None) scf(xqc) pop(None) opt(NoFreeze,TS,CalcA
 ll,NoEigentest,MaxCycle=999)
 ----------------------------------------------------------------------
 1/5=1,6=999,10=4,11=1,18=20,26=3,29=2000,38=1/1,3;
 2/9=110,12=2,15=3,17=6,18=5,40=1/2;
 3/5=44,7=202,11=2,25=1,30=1,71=2,74=-55,140=1/1,2,3;
 4//1;
 5/5=2,8=3,13=1,38=5/2,8;
 8/6=4,10=90,11=11/1;
 11/6=1,8=1,9=11,15=111,16=1,31=1/1,2,10;
 10/6=1,31=1/2;
 7/10=1,25=1,30=1/1,2,3,16;
 1/5=1,6=999,10=4,11=1,18=20,26=3/3(3);
 2/9=110,15=3/2;
 7/8=1,9=1,25=1,30=1,44=-1/16;
 99//99;
 2/9=110,15=3/2;
 3/5=44,7=202,11=2,25=1,30=1,71=2,74=-55,140=1/1,2,3;
 4/5=5,16=3,69=1/1;
 5/5=2,8=3,13=1,38=5/2,8;
 8/6=4,10=90,11=11/1;
 11/6=1,8=1,9=11,15=111,16=1,31=1/1,2,10;
 10/6=1,31=1/2;
 7/10=1,25=1,30=1/1,2,3,16;
 1/5=1,6=999,10=4,11=1,18=20,26=3/3(-8);
 2/9=110,15=3/2;
 7/8=1,9=1,25=1,30=1,44=-1/16;
 99//99;
 Leave Link    1 at Sun May 25 03:28:12 2025, MaxMem=  3758096384 cpu:               0.0 elap:               0.0
 (Enter /apps/easybuild-2022/easybuild/software/Compiler/NVHPC/22.11-CUDA-11.7.0/Gaussian/g16c01-CUDA-11.7.0/g16/l101.exe)
 ------------------------------
 Gaussian input prepared by ASE
 ------------------------------
 Symbolic Z-matrix:
 Charge =  0 Multiplicity = 1
 C                     0.13421   0.00706   0.01936 
 F                    -0.46131   0.53901  -1.07223 
 F                    -0.36158   0.68678   1.06756 
 F                    -0.52763  -1.17086   0.12946 
 S                     1.78994  -0.20018  -0.04777 
 O                     2.41811  -0.47209   1.15476 
 O                     2.29869  -0.6388   -1.27139 
 O                     1.27117   1.52097  -0.13999 
 H                     1.90892   2.24094  -0.24289 
 
 ITRead=  0  0  0  0  0  0  0  0  0
 MicOpt= -1 -1 -1 -1 -1 -1 -1 -1 -1
 NAtoms=      9 NQM=        9 NQMF=       0 NMMI=      0 NMMIF=      0
                NMic=       0 NMicF=      0.
                    Isotopes and Nuclear Properties:
 (Nuclear quadrupole moments (NQMom) in fm**2, nuclear magnetic moments (NMagM)
  in nuclear magnetons)

  Atom         1           2           3           4           5           6           7           8           9
 IAtWgt=          12          19          19          19          32          16          16          16           1
 AtmWgt=  12.0000000  18.9984032  18.9984032  18.9984032  31.9720718  15.9949146  15.9949146  15.9949146   1.0078250
 NucSpn=           0           1           1           1           0           0           0           0           1
 AtZEff=  -0.0000000  -0.0000000  -0.0000000  -0.0000000  -0.0000000  -0.0000000  -0.0000000  -0.0000000  -0.0000000
 NQMom=    0.0000000   0.0000000   0.0000000   0.0000000   0.0000000   0.0000000   0.0000000   0.0000000   0.0000000
 NMagM=    0.0000000   2.6288670   2.6288670   2.6288670   0.0000000   0.0000000   0.0000000   0.0000000   2.7928460
 AtZNuc=   6.0000000   9.0000000   9.0000000   9.0000000  16.0000000   8.0000000   8.0000000   8.0000000   1.0000000
 Leave Link  101 at Sun May 25 03:28:12 2025, MaxMem=  3758096384 cpu:               0.2 elap:               0.2
 (Enter /apps/easybuild-2022/easybuild/software/Compiler/NVHPC/22.11-CUDA-11.7.0/Gaussian/g16c01-CUDA-11.7.0/g16/l103.exe)

 GradGradGradGradGradGradGradGradGradGradGradGradGradGradGradGradGradGrad
 Berny optimization.
 Initialization pass.
                           ----------------------------
                           !    Initial Parameters    !
                           ! (Angstroms and Degrees)  !
 --------------------------                            --------------------------
 ! Name  Definition              Value          Derivative Info.                !
 --------------------------------------------------------------------------------
 ! R1    R(1,2)                  1.3525         calculate D2E/DX2 analytically  !
 ! R2    R(1,3)                  1.3441         calculate D2E/DX2 analytically  !
 ! R3    R(1,4)                  1.3556         calculate D2E/DX2 analytically  !
 ! R4    R(1,5)                  1.67           calculate D2E/DX2 analytically  !
 ! R5    R(5,6)                  1.3837         calculate D2E/DX2 analytically  !
 ! R6    R(5,7)                  1.3959         calculate D2E/DX2 analytically  !
 ! R7    R(5,8)                  1.8            calculate D2E/DX2 analytically  !
 ! R8    R(8,9)                  0.9673         calculate D2E/DX2 analytically  !
 ! A1    A(2,1,3)              105.552          calculate D2E/DX2 analytically  !
 ! A2    A(2,1,4)              101.0894         calculate D2E/DX2 analytically  !
 ! A3    A(2,1,5)              116.931          calculate D2E/DX2 analytically  !
 ! A4    A(3,1,4)              101.3032         calculate D2E/DX2 analytically  !
 ! A5    A(3,1,5)              117.3757         calculate D2E/DX2 analytically  !
 ! A6    A(4,1,5)              112.302          calculate D2E/DX2 analytically  !
 ! A7    A(1,5,6)              116.0749         calculate D2E/DX2 analytically  !
 ! A8    A(1,5,7)              115.8228         calculate D2E/DX2 analytically  !
 ! A9    A(1,5,8)               66.275          calculate D2E/DX2 analytically  !
 ! A10   A(6,5,7)              122.3181         calculate D2E/DX2 analytically  !
 ! A11   A(6,5,8)              111.3008         calculate D2E/DX2 analytically  !
 ! A12   A(7,5,8)              111.1369         calculate D2E/DX2 analytically  !
 ! A13   A(5,8,9)              121.8123         calculate D2E/DX2 analytically  !
 ! D1    D(2,1,5,6)            166.7658         calculate D2E/DX2 analytically  !
 ! D2    D(2,1,5,7)            -39.3343         calculate D2E/DX2 analytically  !
 ! D3    D(2,1,5,8)             63.6631         calculate D2E/DX2 analytically  !
 ! D4    D(3,1,5,6)             39.7737         calculate D2E/DX2 analytically  !
 ! D5    D(3,1,5,7)           -166.3264         calculate D2E/DX2 analytically  !
 ! D6    D(3,1,5,8)            -63.329          calculate D2E/DX2 analytically  !
 ! D7    D(4,1,5,6)            -77.0314         calculate D2E/DX2 analytically  !
 ! D8    D(4,1,5,7)             76.8686         calculate D2E/DX2 analytically  !
 ! D9    D(4,1,5,8)            179.866          calculate D2E/DX2 analytically  !
 ! D10   D(1,5,8,9)           -178.4472         calculate D2E/DX2 analytically  !
 ! D11   D(6,5,8,9)             71.4339         calculate D2E/DX2 analytically  !
 ! D12   D(7,5,8,9)            -68.5575         calculate D2E/DX2 analytically  !
 --------------------------------------------------------------------------------
 Trust Radius=3.00D-01 FncErr=1.00D-07 GrdErr=1.00D-06 EigMax=2.50D+02 EigMin=1.00D-04
 Number of steps in this run=    100 maximum allowed number of steps=    100.
 Search for a saddle point of order  1.
 GradGradGradGradGradGradGradGradGradGradGradGradGradGradGradGradGradGrad

 Leave Link  103 at Sun May 25 03:28:12 2025, MaxMem=  3758096384 cpu:               0.0 elap:               0.0
 (Enter /apps/easybuild-2022/easybuild/software/Compiler/NVHPC/22.11-CUDA-11.7.0/Gaussian/g16c01-CUDA-11.7.0/g16/l202.exe)
                          Input orientation:                          
 ---------------------------------------------------------------------
 Center     Atomic      Atomic             Coordinates (Angstroms)
 Number     Number       Type             X           Y           Z
 ---------------------------------------------------------------------
      1          6           0        0.134207    0.007061    0.019363
      2          9           0       -0.461311    0.539010   -1.072229
      3          9           0       -0.361577    0.686780    1.067562
      4          9           0       -0.527634   -1.170862    0.129463
      5         16           0        1.789943   -0.200182   -0.047774
      6          8           0        2.418106   -0.472092    1.154755
      7          8           0        2.298694   -0.638801   -1.271390
      8          8           0        1.271168    1.520971   -0.139987
      9          1           0        1.908915    2.240941   -0.242887
 ---------------------------------------------------------------------
                    Distance matrix (angstroms):
                    1          2          3          4          5
     1  C    0.000000
     2  F    1.352473   0.000000
     3  F    1.344076   2.147205   0.000000
     4  F    1.355602   2.090963   2.087687   0.000000
     5  S    1.670006   2.581484   2.580642   2.518888   0.000000
     6  O    2.595168   3.777940   3.012843   3.196387   1.383691
     7  O    2.601574   3.007413   3.782182   3.199001   1.395869
     8  O    1.899999   2.198819   2.195428   3.248732   1.800000
     9  H    2.865063   3.033537   3.047594   4.209016   2.451796
                    6          7          8          9
     6  O    0.000000
     7  O    2.434796   0.000000
     8  O    2.638963   2.645845   0.000000
     9  H    3.094063   3.082638   0.967299   0.000000
 Symmetry turned off by external request.
 Stoichiometry    CHF3O3S
 Rotational constants (GHZ):           2.7756967           1.6743242           1.6723959
 Leave Link  202 at Sun May 25 03:28:12 2025, MaxMem=  3758096384 cpu:               0.0 elap:               0.0
 (Enter /apps/easybuild-2022/easybuild/software/Compiler/NVHPC/22.11-CUDA-11.7.0/Gaussian/g16c01-CUDA-11.7.0/g16/l301.exe)
 Standard basis: def2TZVPP (5D, 7F)
 Ernie: Thresh=  0.10000D-02 Tol=  0.10000D-05 Strict=F.
   273 basis functions,   443 primitive gaussians,   315 cartesian basis functions
    37 alpha electrons       37 beta electrons
       nuclear repulsion energy       583.4091231565 Hartrees.
 IExCor= 4336 DFT=T Ex+Corr=M062X ExCW=0 ScaHFX=  0.540000
 ScaDFX=  1.000000  1.000000  1.000000  1.000000 ScalE2=  1.000000  1.000000
 IRadAn=      5 IRanWt=     -1 IRanGd=            0 ICorTp=0 IEmpDi=  4
 NAtoms=    9 NActive=    9 NUniq=    9 SFac= 1.00D+00 NAtFMM=   60 NAOKFM=F Big=F
 Integral buffers will be    131072 words long.
 Raffenetti 2 integral format.
 Two-electron integral symmetry is turned off.
 Leave Link  301 at Sun May 25 03:28:12 2025, MaxMem=  3758096384 cpu:               0.0 elap:               0.0
 (Enter /apps/easybuild-2022/easybuild/software/Compiler/NVHPC/22.11-CUDA-11.7.0/Gaussian/g16c01-CUDA-11.7.0/g16/l302.exe)
 NPDir=0 NMtPBC=     1 NCelOv=     1 NCel=       1 NClECP=     1 NCelD=      1
         NCelK=      1 NCelE2=     1 NClLst=     1 CellRange=     0.0.
 One-electron integrals computed using PRISM.
   1 Symmetry operations used in ECPInt.
 ECPInt:  NShTT=    4753 NPrTT=   15592 LenC2=    4606 LenP2D=   11661.
 LDataN:  DoStor=T MaxTD1= 6 Len=  172
 NBasis=   273 RedAO= T EigKep=  6.63D-04  NBF=   273
 NBsUse=   273 1.00D-06 EigRej= -1.00D+00 NBFU=   273
 Precomputing XC quadrature grid using
 IXCGrd= 4 IRadAn=           5 IRanWt=          -1 IRanGd=           0 AccXCQ= 0.00D+00.
 Generated NRdTot=       0 NPtTot=           0 NUsed=           0 NTot=          32
 NSgBfM=   312   312   312   312   312 MxSgAt=     9 MxSgA2=     9.
 Leave Link  302 at Sun May 25 03:28:12 2025, MaxMem=  3758096384 cpu:               0.5 elap:               0.1
 (Enter /apps/easybuild-2022/easybuild/software/Compiler/NVHPC/22.11-CUDA-11.7.0/Gaussian/g16c01-CUDA-11.7.0/g16/l303.exe)
 DipDrv:  MaxL=1.
 Leave Link  303 at Sun May 25 03:28:12 2025, MaxMem=  3758096384 cpu:               0.1 elap:               0.0
 (Enter /apps/easybuild-2022/easybuild/software/Compiler/NVHPC/22.11-CUDA-11.7.0/Gaussian/g16c01-CUDA-11.7.0/g16/l401.exe)
 ExpMin= 9.52D-02 ExpMax= 6.07D+04 ExpMxC= 2.07D+03 IAcc=3 IRadAn=         5 AccDes= 0.00D+00
 Harris functional with IExCor= 1009 and IRadAn=       5 diagonalized for initial guess.
 HarFok:  IExCor= 1009 AccDes= 0.00D+00 IRadAn=         5 IDoV= 1 UseB2=F ITyADJ=14
 ICtDFT=  3500011 ScaDFX=  1.000000  1.000000  1.000000  1.000000
 FoFCou: FMM=F IPFlag=           0 FMFlag=      100000 FMFlg1=           0
         NFxFlg=           0 DoJE=T BraDBF=F KetDBF=T FulRan=T
         wScrn=  0.000000 ICntrl=       500 IOpCl=  0 I1Cent=   200000004 NGrid=           0
         NMat0=    1 NMatS0=      1 NMatT0=    0 NMatD0=    1 NMtDS0=    0 NMtDT0=    0
 Symmetry not used in FoFCou.
 Harris En= -961.595619664473    
 JPrj=0 DoOrth=F DoCkMO=F.
 Leave Link  401 at Sun May 25 03:28:13 2025, MaxMem=  3758096384 cpu:               2.3 elap:               0.3
 (Enter /apps/easybuild-2022/easybuild/software/Compiler/NVHPC/22.11-CUDA-11.7.0/Gaussian/g16c01-CUDA-11.7.0/g16/l502.exe)
 Keep R1 ints in memory in canonical form, NReq=715214082.
 FoFCou: FMM=F IPFlag=           0 FMFlag=           0 FMFlg1=           0
         NFxFlg=           0 DoJE=F BraDBF=F KetDBF=F FulRan=T
         wScrn=  0.000000 ICntrl=       600 IOpCl=  0 I1Cent=           0 NGrid=           0
         NMat0=    1 NMatS0=  37401 NMatT0=    0 NMatD0=    1 NMtDS0=    0 NMtDT0=    0
 Symmetry not used in FoFCou.
 Two-electron integral symmetry not used.
 Closed shell SCF:
 Using DIIS extrapolation, IDIIS=  1040.
 NGot=  3758096384 LenX=  3058457086 LenY=  3058357420
 Requested convergence on RMS density matrix=1.00D-08 within  32 cycles.
 Requested convergence on MAX density matrix=1.00D-06.
 Requested convergence on             energy=1.00D-06.
 No special actions if energy rises.
 Integral accuracy reduced to 1.0D-05 until final iterations.

 Cycle   1  Pass 0  IDiag  1:
 E= -961.705155831409    
 DIIS: error= 3.12D-02 at cycle   1 NSaved=   1.
 NSaved= 1 IEnMin= 1 EnMin= -961.705155831409     IErMin= 1 ErrMin= 3.12D-02
 ErrMax= 3.12D-02  0.00D+00 EMaxC= 1.00D-01 BMatC= 5.70D-01 BMatP= 5.70D-01
 IDIUse=3 WtCom= 6.88D-01 WtEn= 3.12D-01
 Coeff-Com:  0.100D+01
 Coeff-En:   0.100D+01
 Coeff:      0.100D+01
 Gap=     0.311 Goal=   None    Shift=    0.000
 GapD=    0.311 DampG=1.000 DampE=0.500 DampFc=0.5000 IDamp=-1.
 Damping current iteration by 5.00D-01
 RMSDP=3.09D-03 MaxDP=2.76D-01              OVMax= 2.04D-01

 Cycle   2  Pass 0  IDiag  1:
 E= -961.804507578350     Delta-E=       -0.099351746941 Rises=F Damp=T
 DIIS: error= 9.96D-03 at cycle   2 NSaved=   2.
 NSaved= 2 IEnMin= 2 EnMin= -961.804507578350     IErMin= 2 ErrMin= 9.96D-03
 ErrMax= 9.96D-03  0.00D+00 EMaxC= 1.00D-01 BMatC= 5.19D-02 BMatP= 5.70D-01
 IDIUse=3 WtCom= 9.00D-01 WtEn= 9.96D-02
 Coeff-Com:  0.130D+00 0.870D+00
 Coeff-En:   0.305D+00 0.695D+00
 Coeff:      0.147D+00 0.853D+00
 Gap=     0.428 Goal=   None    Shift=    0.000
 RMSDP=6.60D-04 MaxDP=5.58D-02 DE=-9.94D-02 OVMax= 1.33D-01

 Cycle   3  Pass 0  IDiag  1:
 E= -962.008599461115     Delta-E=       -0.204091882764 Rises=F Damp=F
 DIIS: error= 4.83D-03 at cycle   3 NSaved=   3.
 NSaved= 3 IEnMin= 3 EnMin= -962.008599461115     IErMin= 3 ErrMin= 4.83D-03
 ErrMax= 4.83D-03  0.00D+00 EMaxC= 1.00D-01 BMatC= 6.05D-03 BMatP= 5.19D-02
 IDIUse=3 WtCom= 9.52D-01 WtEn= 4.83D-02
 Coeff-Com: -0.373D-01 0.177D+00 0.860D+00
 Coeff-En:   0.000D+00 0.000D+00 0.100D+01
 Coeff:     -0.355D-01 0.168D+00 0.867D+00
 Gap=     0.428 Goal=   None    Shift=    0.000
 RMSDP=2.74D-04 MaxDP=2.08D-02 DE=-2.04D-01 OVMax= 1.81D-02

 Cycle   4  Pass 0  IDiag  1:
 E= -962.011537829077     Delta-E=       -0.002938367962 Rises=F Damp=F
 DIIS: error= 1.87D-03 at cycle   4 NSaved=   4.
 NSaved= 4 IEnMin= 4 EnMin= -962.011537829077     IErMin= 4 ErrMin= 1.87D-03
 ErrMax= 1.87D-03  0.00D+00 EMaxC= 1.00D-01 BMatC= 2.25D-03 BMatP= 6.05D-03
 IDIUse=3 WtCom= 9.81D-01 WtEn= 1.87D-02
 Coeff-Com: -0.223D-01 0.527D-01 0.456D+00 0.513D+00
 Coeff-En:   0.000D+00 0.000D+00 0.223D+00 0.777D+00
 Coeff:     -0.219D-01 0.517D-01 0.452D+00 0.518D+00
 Gap=     0.419 Goal=   None    Shift=    0.000
 RMSDP=1.08D-04 MaxDP=4.95D-03 DE=-2.94D-03 OVMax= 1.40D-02

 Cycle   5  Pass 0  IDiag  1:
 E= -962.012987692593     Delta-E=       -0.001449863516 Rises=F Damp=F
 DIIS: error= 5.50D-04 at cycle   5 NSaved=   5.
 NSaved= 5 IEnMin= 5 EnMin= -962.012987692593     IErMin= 5 ErrMin= 5.50D-04
 ErrMax= 5.50D-04  0.00D+00 EMaxC= 1.00D-01 BMatC= 1.60D-04 BMatP= 2.25D-03
 IDIUse=3 WtCom= 9.95D-01 WtEn= 5.50D-03
 Coeff-Com: -0.571D-02 0.706D-02 0.121D+00 0.252D+00 0.626D+00
 Coeff-En:   0.000D+00 0.000D+00 0.000D+00 0.000D+00 0.100D+01
 Coeff:     -0.568D-02 0.702D-02 0.120D+00 0.251D+00 0.628D+00
 Gap=     0.422 Goal=   None    Shift=    0.000
 RMSDP=2.77D-05 MaxDP=1.16D-03 DE=-1.45D-03 OVMax= 3.23D-03

 Cycle   6  Pass 0  IDiag  1:
 E= -962.013099393470     Delta-E=       -0.000111700877 Rises=F Damp=F
 DIIS: error= 1.02D-04 at cycle   6 NSaved=   6.
 NSaved= 6 IEnMin= 6 EnMin= -962.013099393470     IErMin= 6 ErrMin= 1.02D-04
 ErrMax= 1.02D-04  0.00D+00 EMaxC= 1.00D-01 BMatC= 5.36D-06 BMatP= 1.60D-04
 IDIUse=3 WtCom= 9.99D-01 WtEn= 1.02D-03
 Coeff-Com: -0.317D-03-0.178D-02-0.144D-02 0.356D-01 0.187D+00 0.781D+00
 Coeff-En:   0.000D+00 0.000D+00 0.000D+00 0.000D+00 0.000D+00 0.100D+01
 Coeff:     -0.317D-03-0.178D-02-0.144D-02 0.356D-01 0.187D+00 0.781D+00
 Gap=     0.421 Goal=   None    Shift=    0.000
 RMSDP=7.50D-06 MaxDP=2.47D-04 DE=-1.12D-04 OVMax= 6.52D-04

 Initial convergence to 1.0D-05 achieved.  Increase integral accuracy.
 Cycle   7  Pass 1  IDiag  1:
 E= -962.013098841753     Delta-E=        0.000000551716 Rises=F Damp=F
 DIIS: error= 2.88D-05 at cycle   1 NSaved=   1.
 NSaved= 1 IEnMin= 1 EnMin= -962.013098841753     IErMin= 1 ErrMin= 2.88D-05
 ErrMax= 2.88D-05  0.00D+00 EMaxC= 1.00D-01 BMatC= 9.72D-07 BMatP= 9.72D-07
 IDIUse=1 WtCom= 1.00D+00 WtEn= 0.00D+00
 Coeff-Com:  0.100D+01
 Coeff:      0.100D+01
 Gap=     0.421 Goal=   None    Shift=    0.000
 RMSDP=7.50D-06 MaxDP=2.47D-04 DE= 5.52D-07 OVMax= 2.57D-04

 Cycle   8  Pass 1  IDiag  1:
 E= -962.013099298812     Delta-E=       -0.000000457059 Rises=F Damp=F
 DIIS: error= 3.26D-05 at cycle   2 NSaved=   2.
 NSaved= 2 IEnMin= 2 EnMin= -962.013099298812     IErMin= 1 ErrMin= 2.88D-05
 ErrMax= 3.26D-05  0.00D+00 EMaxC= 1.00D-01 BMatC= 5.91D-07 BMatP= 9.72D-07
 IDIUse=1 WtCom= 1.00D+00 WtEn= 0.00D+00
 Coeff-Com:  0.420D+00 0.580D+00
 Coeff:      0.420D+00 0.580D+00
 Gap=     0.421 Goal=   None    Shift=    0.000
 RMSDP=1.64D-06 MaxDP=8.45D-05 DE=-4.57D-07 OVMax= 1.11D-04

 Cycle   9  Pass 1  IDiag  1:
 E= -962.013099602812     Delta-E=       -0.000000304000 Rises=F Damp=F
 DIIS: error= 9.90D-06 at cycle   3 NSaved=   3.
 NSaved= 3 IEnMin= 3 EnMin= -962.013099602812     IErMin= 3 ErrMin= 9.90D-06
 ErrMax= 9.90D-06  0.00D+00 EMaxC= 1.00D-01 BMatC= 7.75D-08 BMatP= 5.91D-07
 IDIUse=1 WtCom= 1.00D+00 WtEn= 0.00D+00
 Coeff-Com: -0.310D-01 0.244D+00 0.787D+00
 Coeff:     -0.310D-01 0.244D+00 0.787D+00
 Gap=     0.421 Goal=   None    Shift=    0.000
 RMSDP=7.93D-07 MaxDP=2.72D-05 DE=-3.04D-07 OVMax= 7.02D-05

 Cycle  10  Pass 1  IDiag  1:
 E= -962.013099651934     Delta-E=       -0.000000049122 Rises=F Damp=F
 DIIS: error= 3.78D-06 at cycle   4 NSaved=   4.
 NSaved= 4 IEnMin= 4 EnMin= -962.013099651934     IErMin= 4 ErrMin= 3.78D-06
 ErrMax= 3.78D-06  0.00D+00 EMaxC= 1.00D-01 BMatC= 1.01D-08 BMatP= 7.75D-08
 IDIUse=1 WtCom= 1.00D+00 WtEn= 0.00D+00
 Coeff-Com: -0.359D-01 0.101D+00 0.416D+00 0.520D+00
 Coeff:     -0.359D-01 0.101D+00 0.416D+00 0.520D+00
 Gap=     0.421 Goal=   None    Shift=    0.000
 RMSDP=2.31D-07 MaxDP=1.14D-05 DE=-4.91D-08 OVMax= 2.54D-05

 Cycle  11  Pass 1  IDiag  1:
 E= -962.013099659214     Delta-E=       -0.000000007280 Rises=F Damp=F
 DIIS: error= 8.24D-07 at cycle   5 NSaved=   5.
 NSaved= 5 IEnMin= 5 EnMin= -962.013099659214     IErMin= 5 ErrMin= 8.24D-07
 ErrMax= 8.24D-07  0.00D+00 EMaxC= 1.00D-01 BMatC= 6.36D-10 BMatP= 1.01D-08
 IDIUse=1 WtCom= 1.00D+00 WtEn= 0.00D+00
 Coeff-Com: -0.333D-02-0.263D-01-0.606D-01 0.144D+00 0.946D+00
 Coeff:     -0.333D-02-0.263D-01-0.606D-01 0.144D+00 0.946D+00
 Gap=     0.421 Goal=   None    Shift=    0.000
 RMSDP=1.06D-07 MaxDP=2.42D-06 DE=-7.28D-09 OVMax= 1.17D-05

 Cycle  12  Pass 1  IDiag  1:
 E= -962.013099659921     Delta-E=       -0.000000000707 Rises=F Damp=F
 DIIS: error= 2.82D-07 at cycle   6 NSaved=   6.
 NSaved= 6 IEnMin= 6 EnMin= -962.013099659921     IErMin= 6 ErrMin= 2.82D-07
 ErrMax= 2.82D-07  0.00D+00 EMaxC= 1.00D-01 BMatC= 5.94D-11 BMatP= 6.36D-10
 IDIUse=1 WtCom= 1.00D+00 WtEn= 0.00D+00
 Coeff-Com:  0.183D-02-0.182D-01-0.586D-01 0.974D-02 0.337D+00 0.728D+00
 Coeff:      0.183D-02-0.182D-01-0.586D-01 0.974D-02 0.337D+00 0.728D+00
 Gap=     0.421 Goal=   None    Shift=    0.000
 RMSDP=2.98D-08 MaxDP=8.74D-07 DE=-7.07D-10 OVMax= 3.36D-06

 Cycle  13  Pass 1  IDiag  1:
 E= -962.013099659996     Delta-E=       -0.000000000076 Rises=F Damp=F
 DIIS: error= 1.20D-07 at cycle   7 NSaved=   7.
 NSaved= 7 IEnMin= 7 EnMin= -962.013099659996     IErMin= 7 ErrMin= 1.20D-07
 ErrMax= 1.20D-07  0.00D+00 EMaxC= 1.00D-01 BMatC= 6.44D-12 BMatP= 5.94D-11
 IDIUse=1 WtCom= 1.00D+00 WtEn= 0.00D+00
 Coeff-Com:  0.954D-03-0.477D-02-0.171D-01-0.580D-02 0.525D-01 0.280D+00
 Coeff-Com:  0.694D+00
 Coeff:      0.954D-03-0.477D-02-0.171D-01-0.580D-02 0.525D-01 0.280D+00
 Coeff:      0.694D+00
 Gap=     0.421 Goal=   None    Shift=    0.000
 RMSDP=7.37D-09 MaxDP=4.08D-07 DE=-7.57D-11 OVMax= 7.40D-07

 SCF Done:  E(RM062X) =  -962.013099660     A.U. after   13 cycles
            NFock= 13  Conv=0.74D-08     -V/T= 2.0022
 KE= 9.599023828002D+02 PE=-3.449227758352D+03 EE= 9.439031527351D+02
 Leave Link  502 at Sun May 25 03:28:25 2025, MaxMem=  3758096384 cpu:              61.8 elap:              12.9
 (Enter /apps/easybuild-2022/easybuild/software/Compiler/NVHPC/22.11-CUDA-11.7.0/Gaussian/g16c01-CUDA-11.7.0/g16/l508.exe)
 QCSCF skips out because SCF is already converged.
 Leave Link  508 at Sun May 25 03:28:26 2025, MaxMem=  3758096384 cpu:               0.0 elap:               0.0
 (Enter /apps/easybuild-2022/easybuild/software/Compiler/NVHPC/22.11-CUDA-11.7.0/Gaussian/g16c01-CUDA-11.7.0/g16/l801.exe)
 DoSCS=F DFT=T ScalE2(SS,OS)=  1.000000  1.000000
 Range of M.O.s used for correlation:     1   273
 NBasis=   273 NAE=    37 NBE=    37 NFC=     0 NFV=     0
 NROrb=    273 NOA=    37 NOB=    37 NVA=   236 NVB=   236
 Leave Link  801 at Sun May 25 03:28:26 2025, MaxMem=  3758096384 cpu:               0.0 elap:               0.0
 (Enter /apps/easybuild-2022/easybuild/software/Compiler/NVHPC/22.11-CUDA-11.7.0/Gaussian/g16c01-CUDA-11.7.0/g16/l1101.exe)
 Using compressed storage, NAtomX=     9.
 Will process     10 centers per pass.
   1 Symmetry operations used in ECPInt.
 ECPInt:  NShTT=    4753 NPrTT=   15592 LenC2=    4606 LenP2D=   11661.
 LDataN:  DoStor=T MaxTD1= 7 Len=  274
 Leave Link 1101 at Sun May 25 03:28:26 2025, MaxMem=  3758096384 cpu:               0.7 elap:               0.1
 (Enter /apps/easybuild-2022/easybuild/software/Compiler/NVHPC/22.11-CUDA-11.7.0/Gaussian/g16c01-CUDA-11.7.0/g16/l1102.exe)
 Symmetrizing basis deriv contribution to polar:
 IMax=3 JMax=2 DiffMx= 0.00D+00
 Leave Link 1102 at Sun May 25 03:28:26 2025, MaxMem=  3758096384 cpu:               0.1 elap:               0.0
 (Enter /apps/easybuild-2022/easybuild/software/Compiler/NVHPC/22.11-CUDA-11.7.0/Gaussian/g16c01-CUDA-11.7.0/g16/l1110.exe)
 Forming Gx(P) for the SCF density, NAtomX=     9.
 Integral derivatives from FoFJK, PRISM(SPDF).
 Do as many integral derivatives as possible in FoFJK.
 G2DrvN: MDV=    3758095321.
 G2DrvN: will do    10 centers at a time, making    1 passes.
 Calling FoFCou, ICntrl=  3107 FMM=F I1Cent=   0 AccDes= 0.00D+00.
 FoFJK:  IHMeth= 1 ICntrl=    3107 DoSepK=F KAlg= 0 I1Cent=           0 FoldK=F
 IRaf=         0 NMat=       1 IRICut=       1 DoRegI=T DoRafI=F ISym2E= 0 IDoP0=0 IntGTp=1.
 FoFCou: FMM=F IPFlag=           0 FMFlag=      100000 FMFlg1=           0
         NFxFlg=           0 DoJE=F BraDBF=F KetDBF=F FulRan=T
         wScrn=  0.000000 ICntrl=      3107 IOpCl=  0 I1Cent=           0 NGrid=           0
         NMat0=    1 NMatS0=      1 NMatT0=    0 NMatD0=    1 NMtDS0=    0 NMtDT0=    0
 Symmetry not used in FoFCou.
 End of G2Drv F.D. properties file   721 does not exist.
 End of G2Drv F.D. properties file   722 does not exist.
 End of G2Drv F.D. properties file   788 does not exist.
 Leave Link 1110 at Sun May 25 03:28:47 2025, MaxMem=  3758096384 cpu:             167.5 elap:              21.1
 (Enter /apps/easybuild-2022/easybuild/software/Compiler/NVHPC/22.11-CUDA-11.7.0/Gaussian/g16c01-CUDA-11.7.0/g16/l1002.exe)
 Minotr:  Closed shell wavefunction.
          IDoAtm=111111111
          Direct CPHF calculation.
          Differentiating once with respect to electric field.
                with respect to dipole field.
          Differentiating once with respect to nuclear coordinates.
          Requested convergence is 1.0D-08 RMS, and 1.0D-07 maximum.
          Secondary convergence is 1.0D-12 RMS, and 1.0D-12 maximum.
          NewPWx=T KeepS1=F KeepF1=F KeepIn=T MapXYZ=F SortEE=F KeepMc=T.
         2683 words used for storage of precomputed grid.
 Keep R1 ints in memory in canonical form, NReq=715218544.
 FoFCou: FMM=F IPFlag=           0 FMFlag=           0 FMFlg1=           0
         NFxFlg=           0 DoJE=F BraDBF=F KetDBF=F FulRan=T
         wScrn=  0.000000 ICntrl=       600 IOpCl=  0 I1Cent=           0 NGrid=           0
         NMat0=    1 NMatS0=  37401 NMatT0=    0 NMatD0=    1 NMtDS0=    0 NMtDT0=    0
 Symmetry not used in FoFCou.
 Two-electron integral symmetry not used.
          MDV=    3758096384 using IRadAn=       1.
          Solving linear equations simultaneously, MaxMat=       0.
          There are    30 degrees of freedom in the 1st order CPHF.  IDoFFX=6 NUNeed=     3.
     27 vectors produced by pass  0 Test12= 2.91D-14 3.33D-09 XBig12= 1.91D+01 1.85D+00.
 AX will form    27 AO Fock derivatives at one time.
     27 vectors produced by pass  1 Test12= 2.91D-14 3.33D-09 XBig12= 4.47D+00 3.94D-01.
     27 vectors produced by pass  2 Test12= 2.91D-14 3.33D-09 XBig12= 1.69D-01 1.03D-01.
     27 vectors produced by pass  3 Test12= 2.91D-14 3.33D-09 XBig12= 8.52D-03 1.64D-02.
     27 vectors produced by pass  4 Test12= 2.91D-14 3.33D-09 XBig12= 9.89D-05 1.76D-03.
     27 vectors produced by pass  5 Test12= 2.91D-14 3.33D-09 XBig12= 9.10D-07 1.57D-04.
     27 vectors produced by pass  6 Test12= 2.91D-14 3.33D-09 XBig12= 5.53D-09 1.41D-05.
     13 vectors produced by pass  7 Test12= 2.91D-14 3.33D-09 XBig12= 3.81D-11 1.13D-06.
      3 vectors produced by pass  8 Test12= 2.91D-14 3.33D-09 XBig12= 2.29D-13 8.92D-08.
      2 vectors produced by pass  9 Test12= 2.91D-14 3.33D-09 XBig12= 1.31D-15 6.26D-09.
 InvSVY:  IOpt=1 It=  1 EMax= 1.78D-15
 Solved reduced A of dimension   207 with    30 vectors.
 FullF1:  Do perturbations      1 to       3.
 Isotropic polarizability for W=    0.000000       42.44 Bohr**3.
 End of Minotr F.D. properties file   721 does not exist.
 End of Minotr F.D. properties file   722 does not exist.
 End of Minotr F.D. properties file   788 does not exist.
 Leave Link 1002 at Sun May 25 03:29:20 2025, MaxMem=  3758096384 cpu:             257.3 elap:              32.7
 (Enter /apps/easybuild-2022/easybuild/software/Compiler/NVHPC/22.11-CUDA-11.7.0/Gaussian/g16c01-CUDA-11.7.0/g16/l701.exe)
 ... and contract with generalized density number  0.
 Compute integral second derivatives.
   1 Symmetry operations used in ECPInt.
 ECPInt:  NShTT=    4753 NPrTT=   15592 LenC2=    4606 LenP2D=   11661.
 LDataN:  DoStor=T MaxTD1= 8 Len=  415
 Leave Link  701 at Sun May 25 03:29:20 2025, MaxMem=  3758096384 cpu:               0.6 elap:               0.1
 (Enter /apps/easybuild-2022/easybuild/software/Compiler/NVHPC/22.11-CUDA-11.7.0/Gaussian/g16c01-CUDA-11.7.0/g16/l702.exe)
 L702 exits ... SP integral derivatives will be done elsewhere.
 Leave Link  702 at Sun May 25 03:29:20 2025, MaxMem=  3758096384 cpu:               0.0 elap:               0.0
 (Enter /apps/easybuild-2022/easybuild/software/Compiler/NVHPC/22.11-CUDA-11.7.0/Gaussian/g16c01-CUDA-11.7.0/g16/l703.exe)
 Integral derivatives from FoFJK, PRISM(SPDF).
 Compute integral second derivatives, UseDBF=F ICtDFT=           0.
 Calling FoFJK, ICntrl=    100127 FMM=F ISym2X=0 I1Cent= 0 IOpClX= 0 NMat=1 NMatS=1 NMatT=0.
 FoFJK:  IHMeth= 1 ICntrl=  100127 DoSepK=F KAlg= 0 I1Cent=           0 FoldK=F
 IRaf=         0 NMat=       1 IRICut=       1 DoRegI=T DoRafI=F ISym2E= 0 IDoP0=0 IntGTp=1.
 FoFCou: FMM=F IPFlag=           0 FMFlag=      100000 FMFlg1=         800
         NFxFlg=           0 DoJE=F BraDBF=F KetDBF=F FulRan=T
         wScrn=  0.000000 ICntrl=    100127 IOpCl=  0 I1Cent=           0 NGrid=           0
         NMat0=    1 NMatS0=      1 NMatT0=    0 NMatD0=    1 NMtDS0=    0 NMtDT0=    0
 Symmetry not used in FoFCou.
 Leave Link  703 at Sun May 25 03:30:07 2025, MaxMem=  3758096384 cpu:             377.7 elap:              47.6
 (Enter /apps/easybuild-2022/easybuild/software/Compiler/NVHPC/22.11-CUDA-11.7.0/Gaussian/g16c01-CUDA-11.7.0/g16/l716.exe)
 Dipole        = 5.57326040D-01 5.91604542D-01-4.57857414D-02
 Polarizability= 4.22574782D+01-2.40518057D+00 4.40707655D+01
                 1.46177683D-02-9.50544343D-02 4.09809505D+01
 -------------------------------------------------------------------
 Center     Atomic                   Forces (Hartrees/Bohr)
 Number     Number              X              Y              Z
 -------------------------------------------------------------------
      1        6          -0.196506345   -0.031004033    0.007133318
      2        9           0.016281611   -0.014784459   -0.001890260
      3        9           0.015355601   -0.012179189    0.006161735
      4        9           0.017163316   -0.019547291    0.000702125
      5       16           0.039717966    0.108293350   -0.027277810
      6        8           0.009828668   -0.012818628    0.039323742
      7        8          -0.001408376   -0.011563461   -0.020122760
      8        8           0.094078549   -0.000096449   -0.003981211
      9        1           0.005489009   -0.006299838   -0.000048879
 -------------------------------------------------------------------
 Cartesian Forces:  Max     0.196506345 RMS     0.049645701
 Force constants in Cartesian coordinates: 
                1             2             3             4             5 
      1  0.728504D+00
      2 -0.511211D-01  0.411798D+00
      3 -0.154648D-01  0.124875D-01  0.454326D+00
      4 -0.118576D+00  0.410960D-01 -0.658984D-01  0.138683D+00
      5  0.406893D-01 -0.967102D-01  0.535543D-01 -0.104165D-01  0.163430D+00
      6 -0.587957D-01  0.578633D-01 -0.175885D+00  0.990680D-01 -0.981403D-01
      7 -0.110249D+00  0.471989D-01  0.597726D-01  0.151274D-01 -0.529934D-02
      8  0.462935D-01 -0.118182D+00 -0.740285D-01 -0.388017D-02  0.148557D-01
      9  0.529049D-01 -0.784687D-01 -0.178893D+00  0.251368D-02 -0.125807D-01
     10 -0.146707D+00 -0.776571D-01  0.880992D-02  0.192554D-01  0.459744D-02
     11 -0.816431D-01 -0.174305D+00  0.107901D-01 -0.807979D-02 -0.672876D-01
     12  0.917101D-02  0.108702D-01 -0.714912D-01  0.102705D-01  0.656345D-01
     13 -0.382829D+00  0.619009D-01  0.147103D-01 -0.802425D-02 -0.149816D-04
     14  0.548266D-01  0.675016D-01 -0.851575D-02  0.100337D-01 -0.147827D-01
     15  0.142750D-01 -0.919971D-02 -0.124503D-01 -0.257209D-01  0.111964D-01
     16  0.141837D-01 -0.944446D-03 -0.257933D-01 -0.705440D-02  0.297323D-02
     17 -0.130109D-02 -0.783031D-02  0.246518D-02 -0.117395D-03  0.279081D-02
     18  0.120573D-01  0.197339D-02 -0.938934D-02 -0.141153D-02 -0.741881D-03
     19  0.153256D-01  0.211414D-02  0.225165D-01 -0.124858D-02  0.667878D-03
     20 -0.345182D-02 -0.864321D-02 -0.217436D-02  0.586596D-03  0.239240D-02
     21 -0.142904D-01 -0.205815D-02 -0.993308D-02  0.331399D-02 -0.443221D-03
     22  0.198385D-02 -0.358531D-01  0.204863D-02 -0.355595D-01 -0.301252D-01
     23 -0.192100D-05 -0.548115D-01  0.406744D-02 -0.325637D-01 -0.602262D-02
     24 -0.884012D-03  0.575304D-02  0.493106D-02 -0.173369D-01 -0.161560D-01
     25 -0.163607D-02  0.132657D-01 -0.701354D-03 -0.260226D-02 -0.307173D-02
     26 -0.429036D-02 -0.188176D-01  0.135414D-02  0.334128D-02  0.133388D-02
     27  0.102673D-02  0.779106D-03 -0.121537D-02 -0.479831D-02 -0.232307D-02
                6             7             8             9            10 
      6  0.293603D+00
      7 -0.114003D-01  0.123505D+00
      8 -0.114104D-02 -0.169710D-01  0.198408D+00
      9 -0.867400D-01 -0.884046D-01  0.122410D+00  0.290898D+00
     10 -0.101275D-02  0.183492D-01 -0.109195D-02 -0.222091D-02  0.132417D+00
     11  0.531201D-01 -0.141604D-01 -0.837513D-01 -0.442012D-01  0.125024D+00
     12 -0.232605D-01 -0.117685D-01 -0.581210D-01 -0.694779D-02 -0.106607D-01
     13 -0.348342D-02 -0.545465D-02 -0.521975D-03  0.274625D-02 -0.318795D-02
     14  0.510218D-02  0.135162D-01 -0.170671D-01 -0.624131D-02 -0.374828D-01
     15 -0.142552D-01  0.238814D-01 -0.111451D-01 -0.144513D-01  0.275105D-02
     16 -0.200729D-02 -0.133398D-02  0.749697D-03  0.123520D-02 -0.395112D-02
     17 -0.453706D-03  0.231578D-04  0.253646D-02  0.351735D-03  0.338758D-02
     18  0.190350D-02 -0.289426D-02  0.848906D-03  0.521075D-02 -0.385680D-02
     19 -0.522013D-03 -0.667706D-02  0.332629D-02  0.239997D-02 -0.367302D-02
     20 -0.199951D-04  0.874056D-04  0.291143D-02  0.328067D-03  0.388068D-02
     21  0.509512D-02  0.222859D-02  0.283543D-03  0.137364D-02  0.389905D-02
     22 -0.201696D-01 -0.312204D-01 -0.251746D-01  0.268329D-01 -0.160387D-01
     23 -0.184706D-01 -0.283793D-01 -0.108808D-02  0.215796D-01 -0.186337D-01
     24  0.199315D-02  0.243744D-01  0.187068D-01 -0.780411D-02  0.257140D-02
     25 -0.167699D-02 -0.204613D-02 -0.272975D-02  0.199258D-02  0.353584D-02
     26  0.214002D-02  0.398435D-02  0.137698D-02 -0.317708D-02 -0.202420D-02
     27 -0.245400D-02  0.421069D-02  0.218681D-02 -0.264634D-02 -0.280280D-03
               11            12            13            14            15 
     11  0.346817D+00
     12 -0.227875D-01  0.935509D-01
     13 -0.670320D-02  0.721756D-03  0.918445D+00
     14 -0.246466D-01  0.361041D-02 -0.162371D+00  0.290555D+00
     15  0.221438D-02  0.288555D-02  0.664617D-01  0.695934D-01  0.145061D+01
     16 -0.353458D-02  0.237480D-02 -0.254816D+00  0.754323D-01 -0.328893D+00
     17  0.372265D-02 -0.995055D-03  0.720589D-01 -0.931985D-01  0.144034D+00
     18 -0.378686D-02  0.219153D-02 -0.318210D+00  0.134317D+00 -0.696783D+00
     19 -0.332601D-02 -0.129995D-02 -0.190486D+00  0.882464D-01  0.243029D+00
     20  0.432705D-02  0.362733D-03  0.825235D-01 -0.141609D+00 -0.210754D+00
     21  0.377131D-02  0.142306D-02  0.232625D+00 -0.201080D+00 -0.655615D+00
     22 -0.844944D-02  0.143190D-02 -0.915650D-01 -0.398209D-01  0.517877D-02
     23 -0.504957D-02  0.134986D-02 -0.226215D-01 -0.559070D-01  0.118801D-02
     24  0.103877D-02  0.170269D-02  0.381700D-02  0.251659D-02 -0.638050D-01
     25  0.872405D-03 -0.240770D-03  0.179173D-01 -0.238007D-02 -0.963257D-03
     26  0.172780D-03  0.757283D-04 -0.242501D-01 -0.108463D-01  0.287253D-02
     27 -0.159090D-03 -0.542794D-04  0.610652D-03  0.697368D-03  0.386265D-02
               16            17            18            19            20 
     16  0.220738D+00
     17 -0.931224D-01  0.726095D-01
     18  0.339341D+00 -0.146667D+00  0.719106D+00
     19  0.218856D-01 -0.279716D-03 -0.250615D-01  0.154532D+00
     20  0.437739D-02  0.203533D-01  0.118815D-01 -0.105123D+00  0.123951D+00
     21  0.204582D-01 -0.182496D-01 -0.236712D-01 -0.244988D+00  0.221099D+00
     22  0.136626D-01  0.183227D-01  0.381169D-02  0.130577D-01  0.158821D-01
     23  0.120470D-01 -0.385945D-02  0.200168D-02  0.123224D-01 -0.663159D-02
     24 -0.581149D-02  0.195676D-01  0.378343D-02  0.317298D-02 -0.202101D-01
     25 -0.331490D-02  0.102827D-02 -0.377612D-02 -0.271650D-02  0.123681D-02
     26  0.202175D-02  0.287547D-02  0.173397D-03  0.205120D-02  0.294769D-02
     27 -0.904352D-03 -0.531382D-04 -0.235130D-02  0.753471D-03 -0.512784D-03
               21            22            23            24            25 
     21  0.677315D+00
     22 -0.682680D-02  0.395882D+00
     23 -0.207017D-02  0.328572D+00  0.415299D+00
     24  0.682597D-02 -0.486665D-01 -0.507558D-01  0.480022D-01
     25  0.358026D-02 -0.250203D+00 -0.250741D+00  0.387632D-01  0.241066D+00
     26 -0.125271D-02 -0.223353D+00 -0.281929D+00  0.395391D-01  0.242519D+00
     27 -0.281396D-02  0.363590D-01  0.411100D-01  0.437064D-02 -0.369776D-01
               26            27 
     26  0.302886D+00
     27 -0.417252D-01  0.330195D-02
 FormGI is forming the generalized inverse of G from B-inverse, IUseBI=4.
 Force constants in internal coordinates: 
                1             2             3             4             5 
      1  0.379726D+00
      2  0.539999D-01  0.398214D+00
      3  0.632891D-01  0.641776D-01  0.404148D+00
      4  0.321345D-01  0.322108D-01  0.245028D-01  0.463979D+00
      5  0.128785D-02  0.538866D-02  0.799394D-02 -0.453729D-02  0.925919D+00
      6  0.529635D-02  0.125709D-02  0.789452D-02 -0.491682D-02 -0.141538D-03
      7  0.168467D-01  0.169343D-01  0.101546D-01  0.445469D-01  0.816093D-02
      8 -0.148151D-02 -0.154203D-02 -0.103379D-02  0.316321D-03 -0.266780D-02
      9  0.350956D-01  0.350996D-01  0.140826D-01 -0.287531D-01 -0.301332D-02
     10  0.398763D-01  0.125639D-01  0.358038D-01 -0.340250D-01 -0.337983D-02
     11 -0.519871D-02 -0.313430D-01 -0.327150D-01  0.495789D-01  0.722498D-02
     12  0.126557D-01  0.409088D-01  0.362127D-01 -0.338114D-01 -0.326465D-02
     13 -0.315122D-01 -0.538489D-02 -0.333685D-01  0.492356D-01 -0.125896D-02
     14 -0.380398D-01 -0.391852D-01 -0.140501D-02 -0.244757D-01  0.197983D-02
     15  0.751803D-03 -0.103848D-01 -0.247152D-02 -0.228301D-01  0.307282D-02
     16 -0.101630D-01  0.109908D-02 -0.240377D-02 -0.224469D-01 -0.160520D-01
     17  0.697760D-01  0.695149D-01  0.386641D-01  0.229896D+00  0.505254D-02
     18  0.316155D-02  0.310697D-02 -0.757074D-03  0.170703D-01  0.121911D-01
     19 -0.220730D-01 -0.180580D-01 -0.879257D-02 -0.622405D-01  0.257896D-02
     20 -0.178706D-01 -0.217841D-01 -0.872726D-02 -0.613431D-01 -0.113048D-01
     21 -0.493048D-02 -0.523562D-02  0.433122D-02 -0.885239D-02  0.750141D-02
     22  0.584011D-02  0.220420D-01 -0.172309D-01  0.562334D-01  0.722184D-03
     23 -0.641390D-02  0.993579D-02 -0.292651D-01  0.173219D-02  0.242472D-02
     24  0.385118D-02  0.117300D-01 -0.233072D-01  0.289460D-01 -0.326305D-02
     25 -0.993286D-02  0.640819D-02  0.292839D-01 -0.159919D-02 -0.844204D-03
     26 -0.221869D-01 -0.569801D-02  0.172497D-01 -0.561004D-01  0.858331D-03
     27 -0.119218D-01 -0.390376D-02  0.232075D-01 -0.288867D-01 -0.482944D-02
     28  0.258214D-01 -0.135594D-01  0.602944D-02  0.273794D-01  0.287046D-02
     29  0.135674D-01 -0.256656D-01 -0.600470D-02 -0.271218D-01  0.457300D-02
     30  0.238325D-01 -0.238713D-01 -0.468978D-04  0.919560D-04 -0.111477D-02
     31  0.300839D-02 -0.326727D-02 -0.740751D-04  0.202650D-03  0.713730D-02
     32 -0.227535D-01 -0.151671D-01 -0.999185D-02 -0.528845D-01  0.324525D-02
     33  0.150604D-01  0.226257D-01  0.983768D-02  0.530919D-01 -0.588142D-02
                6             7             8             9            10 
      6  0.855603D+00
      7  0.837845D-02  0.100043D+00
      8 -0.261495D-02  0.746041D-02  0.522439D+00
      9 -0.296972D-02 -0.124300D-01  0.117438D-02  0.133406D+00
     10 -0.324095D-02 -0.137494D-01  0.564428D-03  0.454093D-01  0.160622D+00
     11 -0.125447D-02  0.851444D-02 -0.837011D-03 -0.928158D-01 -0.117542D+00
     12 -0.337041D-02 -0.140432D-01  0.503794D-03  0.453461D-01  0.325243D-01
     13  0.715497D-02  0.859684D-02 -0.678330D-03 -0.917643D-01  0.116084D-01
     14  0.193347D-02  0.167969D-01 -0.367206D-03 -0.155910D-02 -0.910528D-01
     15 -0.159668D-01 -0.625099D-02 -0.120615D-02  0.216913D-02  0.610754D-02
     16  0.229386D-02 -0.644343D-02 -0.122729D-02  0.181276D-02  0.964035D-02
     17  0.504940D-02  0.127964D+00  0.183474D-01 -0.477941D-01 -0.913916D-01
     18  0.128080D-01 -0.250246D-02  0.163649D-02 -0.915084D-04 -0.501263D-02
     19 -0.113384D-01 -0.314215D-01 -0.607256D-02  0.136519D-01  0.367813D-01
     20  0.243712D-02 -0.317829D-01 -0.613849D-02  0.132020D-01  0.121172D-01
     21  0.740553D-02  0.250319D-01  0.108654D-01  0.401061D-02  0.817383D-03
     22 -0.891637D-03  0.157324D-01  0.723144D-03  0.256619D-02 -0.475926D-01
     23  0.843645D-03 -0.168646D-01 -0.497774D-03  0.107084D-01 -0.264373D-01
     24  0.489168D-02 -0.102699D-02  0.389500D-04  0.654092D-02 -0.517506D-01
     25 -0.241575D-02  0.170697D-01  0.492986D-03 -0.108226D-01 -0.749886D-02
     26 -0.680467D-03 -0.155274D-01 -0.727932D-03 -0.268037D-02  0.136564D-01
     27  0.336756D-02  0.310300D-03 -0.191207D-03 -0.684786D-02 -0.116569D-01
     28 -0.459107D-02  0.164233D-01  0.597620D-03 -0.405576D-02  0.123306D-01
     29 -0.285579D-02 -0.161738D-01 -0.623298D-03  0.408646D-02  0.334858D-01
     30  0.119225D-02 -0.336145D-03 -0.865740D-04 -0.810333D-04  0.817260D-02
     31 -0.672969D-02  0.151580D-03  0.807016D-04  0.368975D-04 -0.214978D-02
     32  0.620598D-02 -0.355908D-01 -0.520622D-02  0.141954D-01  0.261983D-01
     33 -0.368325D-02  0.356004D-01  0.534111D-02 -0.143048D-01 -0.183533D-01
               11            12            13            14            15 
     11  0.194250D+00
     12  0.114884D-01  0.162244D+00
     13 -0.254457D-01 -0.117306D+00  0.193470D+00
     14 -0.725248D-02 -0.926877D-01 -0.806371D-02  0.175994D+00
     15 -0.166278D-02  0.992559D-02 -0.166105D-01  0.465313D-02  0.794599D-01
     16 -0.159321D-01  0.582602D-02 -0.162722D-02  0.462939D-02 -0.186251D-01
     17  0.110133D+00 -0.913118D-01  0.110806D+00 -0.443204D-01 -0.646702D-01
     18  0.550593D-02 -0.505867D-02  0.604069D-02 -0.422676D-02 -0.498122D-01
     19 -0.535168D-01  0.125626D-01 -0.730729D-02  0.124856D-01  0.513167D-01
     20 -0.640129D-02  0.364025D-01 -0.532484D-01  0.124132D-01  0.250396D-02
     21 -0.919293D-02  0.121035D-02 -0.102925D-01  0.161693D-01 -0.991923D-03
     22  0.374565D-01 -0.134954D-01  0.192350D-01 -0.138047D-01 -0.888870D-02
     23  0.135887D-01  0.755345D-02 -0.469330D-02 -0.435846D-02  0.424633D-03
     24  0.550831D-01  0.117762D-01 -0.222053D-01 -0.902522D-02 -0.159035D-01
     25  0.469815D-02  0.259456D-01 -0.132511D-01  0.432232D-02  0.656530D-02
     26 -0.191697D-01  0.469944D-01 -0.371794D-01  0.137685D-01  0.158786D-01
     27  0.223248D-01  0.512171D-01 -0.546914D-01  0.910178D-02 -0.449452D-03
     28  0.133966D-01 -0.334344D-01  0.104398D-01 -0.449247D-02  0.160757D-02
     29 -0.104712D-01 -0.123855D-01 -0.134885D-01  0.495377D-02  0.109209D-01
     30  0.310232D-01 -0.816282D-02 -0.310005D-01  0.286997D-03 -0.540719D-02
     31  0.719281D-02  0.232938D-02 -0.722085D-02 -0.132423D-03  0.307335D-01
     32 -0.363477D-01  0.184988D-01 -0.191400D-01  0.997779D-02 -0.252506D-01
     33  0.191964D-01 -0.260835D-01  0.363309D-01 -0.101824D-01 -0.727112D-02
               16            17            18            19            20 
     16  0.798768D-01
     17 -0.658305D-01  0.972495D+00
     18 -0.500256D-01  0.407686D-01  0.941223D-01
     19  0.300296D-02 -0.276661D+00 -0.345410D-01  0.123986D+00
     20  0.515504D-01 -0.274316D+00 -0.344654D-01  0.535346D-01  0.122762D+00
     21 -0.139887D-02  0.435420D-01  0.374609D-03 -0.133245D-01 -0.136100D-01
     22 -0.161687D-01  0.166119D+00 -0.108802D-02 -0.322655D-01 -0.412135D-01
     23 -0.636311D-02 -0.110037D-01  0.129244D-01 -0.317223D-03 -0.958138D-02
     24  0.396293D-03  0.770103D-01  0.597678D-02 -0.484841D-01  0.711873D-02
     25 -0.834537D-03  0.116859D-01 -0.128237D-01  0.961018D-02 -0.877421D-04
     26  0.897107D-02 -0.165437D+00  0.118870D-02  0.415585D-01  0.315444D-01
     27  0.157305D-01 -0.774233D-01 -0.575894D-02 -0.660837D-02  0.482445D-01
     28 -0.110970D-01  0.887795D-01 -0.708734D-02 -0.117504D-01 -0.201395D-01
     29 -0.129137D-02 -0.883437D-01  0.692510D-02  0.201979D-01  0.114926D-01
     30  0.546804D-02 -0.329634D-03 -0.225390D-04 -0.279689D-01  0.281927D-01
     31 -0.310498D-01  0.157941D-02  0.728031D-04  0.111976D-01 -0.119845D-01
     32  0.755200D-02 -0.263118D+00  0.343393D-01  0.643071D-01  0.723609D-01
     33  0.250146D-01  0.262812D+00 -0.344414D-01 -0.727224D-01 -0.635617D-01
               21            22            23            24            25 
     21  0.898530D-01
     22 -0.471743D-02  0.676286D-01
     23 -0.884708D-02  0.124318D-01  0.306661D-01
     24 -0.697445D-02  0.356937D-01  0.173471D-01  0.559156D-01
     25  0.921176D-02  0.536353D-02 -0.130766D-01 -0.827721D-02  0.306051D-01
     26  0.508211D-02 -0.498332D-01  0.515770D-02 -0.266239D-01  0.121649D-01
     27  0.695473D-02 -0.265713D-01 -0.816136D-02  0.119446D-01  0.169643D-01
     28  0.228438D-02  0.204081D-01 -0.163610D-01 -0.904520D-03  0.206250D-02
     29 -0.184527D-02 -0.347887D-01  0.187338D-02 -0.192512D-01 -0.163777D-01
     30  0.273565D-04 -0.115267D-01 -0.114457D-01  0.193173D-01 -0.115782D-01
     31  0.211782D-03  0.139450D-02  0.864271D-03 -0.189607D-02  0.133189D-02
     32 -0.140794D-01 -0.413649D-01  0.308250D-02 -0.194075D-01 -0.587680D-02
     33  0.140790D-01  0.386495D-01 -0.590548D-02  0.156333D-01  0.337142D-02
               26            27            28            29            30 
     26  0.671558D-01
     27  0.353743D-01  0.554802D-01
     28 -0.347065D-01 -0.192501D-01  0.427808D-01
     29  0.202844D-01 -0.840169D-03  0.601182D-02  0.426739D-01
     30 -0.114972D-01  0.192658D-01  0.214683D-01  0.215493D-01  0.523123D-01
     31  0.801665D-03 -0.195868D-02  0.352870D-02  0.299848D-02  0.238136D-03
     32  0.385706D-01  0.160806D-01 -0.246673D-01  0.197801D-01 -0.270992D-02
     33 -0.411836D-01 -0.196448D-01  0.200681D-01 -0.244869D-01 -0.294815D-02
               31            32            33 
     31  0.198256D-01
     32 -0.114022D-01  0.104727D+00
     33 -0.106592D-01 -0.929737D-01  0.104462D+00
 Leave Link  716 at Sun May 25 03:30:07 2025, MaxMem=  3758096384 cpu:               0.0 elap:               0.0
 (Enter /apps/easybuild-2022/easybuild/software/Compiler/NVHPC/22.11-CUDA-11.7.0/Gaussian/g16c01-CUDA-11.7.0/g16/l103.exe)

 GradGradGradGradGradGradGradGradGradGradGradGradGradGradGradGradGradGrad
 Berny optimization.
 Red2BG is reusing G-inverse.
 Internal  Forces:  Max     0.250866579 RMS     0.058338558
 Search for a saddle point.
 Step number   1 out of a maximum of  100
 All quantities printed in internal units (Hartrees-Bohrs-Radians)
 Swapping is turned off.
 Second derivative matrix not updated -- analytic derivatives used.
 ITU=  0
     Eigenvalues ---   -0.00098   0.01446   0.04264   0.04874   0.06474
     Eigenvalues ---    0.08646   0.11348   0.13767   0.17538   0.20444
     Eigenvalues ---    0.22086   0.27533   0.35243   0.36066   0.37714
     Eigenvalues ---    0.39788   0.52303   0.58801   0.85714   0.92726
     Eigenvalues ---    1.54005
 Eigenvectors required to have negative eigenvalues:
                          D10       D12       D11       D2        D5
   1                   -0.57670  -0.57232  -0.57043  -0.04495  -0.04234
                          D3        D1        D6        D8        D4
   1                   -0.04228  -0.04052  -0.03966  -0.03894  -0.03791
 RFO step:  Lambda0=3.964097677D-04 Lambda=-1.32989943D-01.
 Linear search not attempted -- option 19 set.
 Maximum step size (   0.300) exceeded in Quadratic search.
    -- Step size scaled by   0.559
 Iteration  1 RMS(Cart)=  0.10856972 RMS(Int)=  0.00681377
 Iteration  2 RMS(Cart)=  0.00727992 RMS(Int)=  0.00129775
 Iteration  3 RMS(Cart)=  0.00004198 RMS(Int)=  0.00129680
 Iteration  4 RMS(Cart)=  0.00000001 RMS(Int)=  0.00129680
 ITry= 1 IFail=0 DXMaxC= 3.09D-01 DCOld= 1.00D+10 DXMaxT= 3.00D-01 DXLimC= 3.00D+00 Rises=F
 Variable       Old X    -DE/DX   Delta X   Delta X   Delta X     New X
                                 (Linear)    (Quad)   (Total)
    R1        2.55580  -0.01146   0.00000  -0.04040  -0.04040   2.51540
    R2        2.53994  -0.00702   0.00000  -0.03673  -0.03673   2.50321
    R3        2.56172   0.00866   0.00000  -0.02187  -0.02187   2.53985
    R4        3.15585   0.13731   0.00000   0.10267   0.10267   3.25852
    R5        2.61480   0.04116   0.00000   0.02304   0.02304   2.63783
    R6        2.63781   0.02076   0.00000   0.01501   0.01501   2.65282
    R7        3.40151  -0.03460   0.00000  -0.17613  -0.17613   3.22538
    R8        1.82793  -0.00107   0.00000  -0.00294  -0.00294   1.82499
    A1        1.84223   0.02472   0.00000   0.04009   0.03648   1.87871
    A2        1.76434   0.02061   0.00000   0.05999   0.06037   1.82471
    A3        2.04083  -0.00916   0.00000  -0.06087  -0.06282   1.97801
    A4        1.76807   0.02107   0.00000   0.06074   0.06112   1.82920
    A5        2.04859  -0.00991   0.00000  -0.06202  -0.06395   1.98464
    A6        1.96004  -0.03853   0.00000  -0.00493  -0.00450   1.95553
    A7        2.02589  -0.03141   0.00000  -0.03751  -0.03940   1.98649
    A8        2.02149  -0.03116   0.00000  -0.03845  -0.04032   1.98117
    A9        1.15672   0.25087   0.00000   0.13545   0.13698   1.29370
   A10        2.13485   0.02828   0.00000   0.03035   0.02796   2.16281
   A11        1.94257  -0.06778   0.00000  -0.01951  -0.01765   1.92491
   A12        1.93970  -0.06687   0.00000  -0.02013  -0.01821   1.92149
   A13        2.12603  -0.01514   0.00000  -0.06097  -0.06097   2.06505
    D1        2.91061   0.04111   0.00000   0.02327   0.02326   2.93387
    D2       -0.68651  -0.02306   0.00000  -0.06408  -0.06208  -0.74859
    D3        1.11113   0.00898   0.00000  -0.02088  -0.01992   1.09121
    D4        0.69418   0.02305   0.00000   0.08860   0.08662   0.78080
    D5       -2.90294  -0.04111   0.00000   0.00125   0.00127  -2.90167
    D6       -1.10530  -0.00907   0.00000   0.04444   0.04344  -1.06186
    D7       -1.34445   0.03237   0.00000   0.05598   0.05499  -1.28946
    D8        1.34161  -0.03180   0.00000  -0.03137  -0.03035   1.31126
    D9        3.13925   0.00024   0.00000   0.01183   0.01181  -3.13212
   D10       -3.11449   0.00019   0.00000   0.17329   0.17332  -2.94118
   D11        1.24676  -0.05041   0.00000   0.17457   0.17492   1.42167
   D12       -1.19655   0.05041   0.00000   0.17093   0.17055  -1.02601
         Item               Value     Threshold  Converged?
 Maximum Force            0.250867     0.000450     NO 
 RMS     Force            0.058339     0.000300     NO 
 Maximum Displacement     0.309423     0.001800     NO 
 RMS     Displacement     0.105147     0.001200     NO 
 Predicted change in Energy=-6.053785D-02
 Lowest energy point so far.  Saving SCF results.
 GradGradGradGradGradGradGradGradGradGradGradGradGradGradGradGradGradGrad

 Leave Link  103 at Sun May 25 03:30:07 2025, MaxMem=  3758096384 cpu:               0.0 elap:               0.0
 (Enter /apps/easybuild-2022/easybuild/software/Compiler/NVHPC/22.11-CUDA-11.7.0/Gaussian/g16c01-CUDA-11.7.0/g16/l202.exe)
                          Input orientation:                          
 ---------------------------------------------------------------------
 Center     Atomic      Atomic             Coordinates (Angstroms)
 Number     Number       Type             X           Y           Z
 ---------------------------------------------------------------------
      1          6           0        0.047749   -0.031303    0.028944
      2          9           0       -0.499587    0.506640   -1.058645
      3          9           0       -0.412711    0.631054    1.079626
      4          9           0       -0.510396   -1.250568    0.119968
      5         16           0        1.768831   -0.110975   -0.040782
      6          8           0        2.368596   -0.423413    1.180345
      7          8           0        2.259888   -0.534549   -1.285824
      8          8           0        1.375486    1.548843   -0.099456
      9          1           0        2.072655    2.177099   -0.327299
 ---------------------------------------------------------------------
                    Distance matrix (angstroms):
                    1          2          3          4          5
     1  C    0.000000
     2  F    1.331093   0.000000
     3  F    1.324640   2.143648   0.000000
     4  F    1.344031   2.115898   2.114471   0.000000
     5  S    1.724335   2.561876   2.562234   2.553309   0.000000
     6  O    2.620268   3.755602   2.976191   3.177606   1.395882
     7  O    2.622103   2.958105   3.754566   3.188010   1.403809
     8  O    2.067905   2.349921   2.330284   3.382514   1.706798
     9  H    3.017314   3.153050   3.247573   4.315217   2.325872
                    6          7          8          9
     6  O    0.000000
     7  O    2.471064   0.000000
     8  O    2.552244   2.555417   0.000000
     9  H    3.020469   2.882163   0.965744   0.000000
 Symmetry turned off by external request.
 Stoichiometry    CHF3O3S
 Rotational constants (GHZ):           2.7284422           1.6727161           1.6692917
 Leave Link  202 at Sun May 25 03:30:07 2025, MaxMem=  3758096384 cpu:               0.0 elap:               0.0
 (Enter /apps/easybuild-2022/easybuild/software/Compiler/NVHPC/22.11-CUDA-11.7.0/Gaussian/g16c01-CUDA-11.7.0/g16/l301.exe)
 Standard basis: def2TZVPP (5D, 7F)
 Ernie: Thresh=  0.10000D-02 Tol=  0.10000D-05 Strict=F.
   273 basis functions,   443 primitive gaussians,   315 cartesian basis functions
    37 alpha electrons       37 beta electrons
       nuclear repulsion energy       581.7407155033 Hartrees.
 IExCor= 4336 DFT=T Ex+Corr=M062X ExCW=0 ScaHFX=  0.540000
 ScaDFX=  1.000000  1.000000  1.000000  1.000000 ScalE2=  1.000000  1.000000
 IRadAn=      5 IRanWt=     -1 IRanGd=            0 ICorTp=0 IEmpDi=  4
 NAtoms=    9 NActive=    9 NUniq=    9 SFac= 1.00D+00 NAtFMM=   60 NAOKFM=F Big=F
 Integral buffers will be    131072 words long.
 Raffenetti 2 integral format.
 Two-electron integral symmetry is turned off.
 Leave Link  301 at Sun May 25 03:30:07 2025, MaxMem=  3758096384 cpu:               0.0 elap:               0.0
 (Enter /apps/easybuild-2022/easybuild/software/Compiler/NVHPC/22.11-CUDA-11.7.0/Gaussian/g16c01-CUDA-11.7.0/g16/l302.exe)
 NPDir=0 NMtPBC=     1 NCelOv=     1 NCel=       1 NClECP=     1 NCelD=      1
         NCelK=      1 NCelE2=     1 NClLst=     1 CellRange=     0.0.
 One-electron integrals computed using PRISM.
   1 Symmetry operations used in ECPInt.
 ECPInt:  NShTT=    4753 NPrTT=   15592 LenC2=    4609 LenP2D=   11660.
 LDataN:  DoStor=T MaxTD1= 6 Len=  172
 NBasis=   273 RedAO= T EigKep=  7.78D-04  NBF=   273
 NBsUse=   273 1.00D-06 EigRej= -1.00D+00 NBFU=   273
 Precomputing XC quadrature grid using
 IXCGrd= 4 IRadAn=           5 IRanWt=          -1 IRanGd=           0 AccXCQ= 0.00D+00.
 Generated NRdTot=       0 NPtTot=           0 NUsed=           0 NTot=          32
 NSgBfM=   312   312   312   312   312 MxSgAt=     9 MxSgA2=     9.
 Leave Link  302 at Sun May 25 03:30:08 2025, MaxMem=  3758096384 cpu:               0.5 elap:               0.1
 (Enter /apps/easybuild-2022/easybuild/software/Compiler/NVHPC/22.11-CUDA-11.7.0/Gaussian/g16c01-CUDA-11.7.0/g16/l303.exe)
 DipDrv:  MaxL=1.
 Leave Link  303 at Sun May 25 03:30:08 2025, MaxMem=  3758096384 cpu:               0.1 elap:               0.0
 (Enter /apps/easybuild-2022/easybuild/software/Compiler/NVHPC/22.11-CUDA-11.7.0/Gaussian/g16c01-CUDA-11.7.0/g16/l401.exe)
 Initial guess from the checkpoint file:  "1502984803620600000001_r12_insertion_R_1_5_8.chk"
 B after Tr=    -0.028757   -0.016555    0.009417
         Rot=    0.999890   -0.007649    0.001627   -0.012615 Ang=  -1.70 deg.
 Guess basis will be translated and rotated to current coordinates.
 JPrj=2 DoOrth=T DoCkMO=T.
 Generating alternative initial guess.
 ExpMin= 9.52D-02 ExpMax= 6.07D+04 ExpMxC= 2.07D+03 IAcc=3 IRadAn=         5 AccDes= 0.00D+00
 Harris functional with IExCor= 1009 and IRadAn=       5 diagonalized for initial guess.
 HarFok:  IExCor= 1009 AccDes= 0.00D+00 IRadAn=         5 IDoV= 1 UseB2=F ITyADJ=14
 ICtDFT=  3500011 ScaDFX=  1.000000  1.000000  1.000000  1.000000
 FoFCou: FMM=F IPFlag=           0 FMFlag=      100000 FMFlg1=           0
         NFxFlg=           0 DoJE=T BraDBF=F KetDBF=T FulRan=T
         wScrn=  0.000000 ICntrl=       500 IOpCl=  0 I1Cent=   200000004 NGrid=           0
         NMat0=    1 NMatS0=      1 NMatT0=    0 NMatD0=    1 NMtDS0=    0 NMtDT0=    0
 Symmetry not used in FoFCou.
 Harris En= -961.644753892759    
 Leave Link  401 at Sun May 25 03:30:08 2025, MaxMem=  3758096384 cpu:               2.4 elap:               0.4
 (Enter /apps/easybuild-2022/easybuild/software/Compiler/NVHPC/22.11-CUDA-11.7.0/Gaussian/g16c01-CUDA-11.7.0/g16/l502.exe)
 Keep R1 ints in memory in canonical form, NReq=715214082.
 FoFCou: FMM=F IPFlag=           0 FMFlag=           0 FMFlg1=           0
         NFxFlg=           0 DoJE=F BraDBF=F KetDBF=F FulRan=T
         wScrn=  0.000000 ICntrl=       600 IOpCl=  0 I1Cent=           0 NGrid=           0
         NMat0=    1 NMatS0=  37401 NMatT0=    0 NMatD0=    1 NMtDS0=    0 NMtDT0=    0
 Symmetry not used in FoFCou.
 Two-electron integral symmetry not used.
 Closed shell SCF:
 Using DIIS extrapolation, IDIIS=  1040.
 NGot=  3758096384 LenX=  3058457086 LenY=  3058357420
 Requested convergence on RMS density matrix=1.00D-08 within  32 cycles.
 Requested convergence on MAX density matrix=1.00D-06.
 Requested convergence on             energy=1.00D-06.
 No special actions if energy rises.
 Integral accuracy reduced to 1.0D-05 until final iterations.

 Cycle   1  Pass 0  IDiag  1:
 E= -962.052928235515    
 DIIS: error= 4.92D-03 at cycle   1 NSaved=   1.
 NSaved= 1 IEnMin= 1 EnMin= -962.052928235515     IErMin= 1 ErrMin= 4.92D-03
 ErrMax= 4.92D-03  0.00D+00 EMaxC= 1.00D-01 BMatC= 1.72D-02 BMatP= 1.72D-02
 IDIUse=3 WtCom= 9.51D-01 WtEn= 4.92D-02
 Coeff-Com:  0.100D+01
 Coeff-En:   0.100D+01
 Coeff:      0.100D+01
 Gap=     1.186 Goal=   None    Shift=    0.000
 GapD=    1.186 DampG=2.000 DampE=1.000 DampFc=2.0000 IDamp=-1.
 RMSDP=5.17D-04 MaxDP=1.56D-02              OVMax= 3.35D-02

 Cycle   2  Pass 0  IDiag  1:
 E= -962.072349391642     Delta-E=       -0.019421156127 Rises=F Damp=F
 DIIS: error= 1.32D-03 at cycle   2 NSaved=   2.
 NSaved= 2 IEnMin= 2 EnMin= -962.072349391642     IErMin= 2 ErrMin= 1.32D-03
 ErrMax= 1.32D-03  0.00D+00 EMaxC= 1.00D-01 BMatC= 1.11D-03 BMatP= 1.72D-02
 IDIUse=3 WtCom= 9.87D-01 WtEn= 1.32D-02
 Coeff-Com: -0.117D-01 0.101D+01
 Coeff-En:   0.000D+00 0.100D+01
 Coeff:     -0.115D-01 0.101D+01
 Gap=     0.443 Goal=   None    Shift=    0.000
 RMSDP=1.37D-04 MaxDP=3.94D-03 DE=-1.94D-02 OVMax= 9.97D-03

 Cycle   3  Pass 0  IDiag  1:
 E= -962.072980627952     Delta-E=       -0.000631236310 Rises=F Damp=F
 DIIS: error= 1.03D-03 at cycle   3 NSaved=   3.
 NSaved= 3 IEnMin= 3 EnMin= -962.072980627952     IErMin= 3 ErrMin= 1.03D-03
 ErrMax= 1.03D-03  0.00D+00 EMaxC= 1.00D-01 BMatC= 1.01D-03 BMatP= 1.11D-03
 IDIUse=3 WtCom= 9.90D-01 WtEn= 1.03D-02
 Coeff-Com: -0.669D-01 0.523D+00 0.544D+00
 Coeff-En:   0.000D+00 0.137D+00 0.863D+00
 Coeff:     -0.663D-01 0.519D+00 0.547D+00
 Gap=     0.448 Goal=   None    Shift=    0.000
 RMSDP=6.26D-05 MaxDP=2.43D-03 DE=-6.31D-04 OVMax= 4.90D-03

 Cycle   4  Pass 0  IDiag  1:
 E= -962.073596618627     Delta-E=       -0.000615990675 Rises=F Damp=F
 DIIS: error= 2.07D-04 at cycle   4 NSaved=   4.
 NSaved= 4 IEnMin= 4 EnMin= -962.073596618627     IErMin= 4 ErrMin= 2.07D-04
 ErrMax= 2.07D-04  0.00D+00 EMaxC= 1.00D-01 BMatC= 2.69D-05 BMatP= 1.01D-03
 IDIUse=3 WtCom= 9.98D-01 WtEn= 2.07D-03
 Coeff-Com: -0.121D-01 0.201D-01 0.134D+00 0.858D+00
 Coeff-En:   0.000D+00 0.000D+00 0.000D+00 0.100D+01
 Coeff:     -0.121D-01 0.200D-01 0.134D+00 0.858D+00
 Gap=     0.446 Goal=   None    Shift=    0.000
 RMSDP=1.78D-05 MaxDP=7.17D-04 DE=-6.16D-04 OVMax= 1.55D-03

 Cycle   5  Pass 0  IDiag  1:
 E= -962.073616703530     Delta-E=       -0.000020084903 Rises=F Damp=F
 DIIS: error= 1.14D-04 at cycle   5 NSaved=   5.
 NSaved= 5 IEnMin= 5 EnMin= -962.073616703530     IErMin= 5 ErrMin= 1.14D-04
 ErrMax= 1.14D-04  0.00D+00 EMaxC= 1.00D-01 BMatC= 8.70D-06 BMatP= 2.69D-05
 IDIUse=3 WtCom= 9.99D-01 WtEn= 1.14D-03
 Coeff-Com:  0.101D-04-0.429D-01 0.170D-01 0.460D+00 0.566D+00
 Coeff-En:   0.000D+00 0.000D+00 0.000D+00 0.000D+00 0.100D+01
 Coeff:      0.101D-04-0.428D-01 0.170D-01 0.459D+00 0.567D+00
 Gap=     0.446 Goal=   None    Shift=    0.000
 RMSDP=6.48D-06 MaxDP=2.81D-04 DE=-2.01D-05 OVMax= 5.10D-04

 Initial convergence to 1.0D-05 achieved.  Increase integral accuracy.
 Cycle   6  Pass 1  IDiag  1:
 E= -962.073654307855     Delta-E=       -0.000037604325 Rises=F Damp=F
 DIIS: error= 3.04D-05 at cycle   1 NSaved=   1.
 NSaved= 1 IEnMin= 1 EnMin= -962.073654307855     IErMin= 1 ErrMin= 3.04D-05
 ErrMax= 3.04D-05  0.00D+00 EMaxC= 1.00D-01 BMatC= 9.88D-07 BMatP= 9.88D-07
 IDIUse=1 WtCom= 1.00D+00 WtEn= 0.00D+00
 Coeff-Com:  0.100D+01
 Coeff:      0.100D+01
 Gap=     0.446 Goal=   None    Shift=    0.000
 RMSDP=6.48D-06 MaxDP=2.81D-04 DE=-3.76D-05 OVMax= 2.66D-04

 Cycle   7  Pass 1  IDiag  1:
 E= -962.073654604946     Delta-E=       -0.000000297091 Rises=F Damp=F
 DIIS: error= 3.06D-05 at cycle   2 NSaved=   2.
 NSaved= 2 IEnMin= 2 EnMin= -962.073654604946     IErMin= 1 ErrMin= 3.04D-05
 ErrMax= 3.06D-05  0.00D+00 EMaxC= 1.00D-01 BMatC= 7.59D-07 BMatP= 9.88D-07
 IDIUse=1 WtCom= 1.00D+00 WtEn= 0.00D+00
 Coeff-Com:  0.457D+00 0.543D+00
 Coeff:      0.457D+00 0.543D+00
 Gap=     0.446 Goal=   None    Shift=    0.000
 RMSDP=2.04D-06 MaxDP=9.93D-05 DE=-2.97D-07 OVMax= 1.66D-04

 Cycle   8  Pass 1  IDiag  1:
 E= -962.073655039769     Delta-E=       -0.000000434824 Rises=F Damp=F
 DIIS: error= 1.20D-05 at cycle   3 NSaved=   3.
 NSaved= 3 IEnMin= 3 EnMin= -962.073655039769     IErMin= 3 ErrMin= 1.20D-05
 ErrMax= 1.20D-05  0.00D+00 EMaxC= 1.00D-01 BMatC= 9.78D-08 BMatP= 7.59D-07
 IDIUse=1 WtCom= 1.00D+00 WtEn= 0.00D+00
 Coeff-Com: -0.299D-01 0.249D+00 0.781D+00
 Coeff:     -0.299D-01 0.249D+00 0.781D+00
 Gap=     0.446 Goal=   None    Shift=    0.000
 RMSDP=8.33D-07 MaxDP=4.18D-05 DE=-4.35D-07 OVMax= 6.47D-05

 Cycle   9  Pass 1  IDiag  1:
 E= -962.073655107563     Delta-E=       -0.000000067793 Rises=F Damp=F
 DIIS: error= 3.06D-06 at cycle   4 NSaved=   4.
 NSaved= 4 IEnMin= 4 EnMin= -962.073655107563     IErMin= 4 ErrMin= 3.06D-06
 ErrMax= 3.06D-06  0.00D+00 EMaxC= 1.00D-01 BMatC= 5.79D-09 BMatP= 9.78D-08
 IDIUse=1 WtCom= 1.00D+00 WtEn= 0.00D+00
 Coeff-Com: -0.313D-01 0.894D-01 0.351D+00 0.591D+00
 Coeff:     -0.313D-01 0.894D-01 0.351D+00 0.591D+00
 Gap=     0.446 Goal=   None    Shift=    0.000
 RMSDP=1.76D-07 MaxDP=6.91D-06 DE=-6.78D-08 OVMax= 1.25D-05

 Cycle  10  Pass 1  IDiag  1:
 E= -962.073655111550     Delta-E=       -0.000000003988 Rises=F Damp=F
 DIIS: error= 7.31D-07 at cycle   5 NSaved=   5.
 NSaved= 5 IEnMin= 5 EnMin= -962.073655111550     IErMin= 5 ErrMin= 7.31D-07
 ErrMax= 7.31D-07  0.00D+00 EMaxC= 1.00D-01 BMatC= 4.67D-10 BMatP= 5.79D-09
 IDIUse=1 WtCom= 1.00D+00 WtEn= 0.00D+00
 Coeff-Com: -0.569D-02-0.118D-01-0.950D-02 0.188D+00 0.839D+00
 Coeff:     -0.569D-02-0.118D-01-0.950D-02 0.188D+00 0.839D+00
 Gap=     0.446 Goal=   None    Shift=    0.000
 RMSDP=8.07D-08 MaxDP=2.13D-06 DE=-3.99D-09 OVMax= 5.23D-06

 Cycle  11  Pass 1  IDiag  1:
 E= -962.073655111957     Delta-E=       -0.000000000406 Rises=F Damp=F
 DIIS: error= 3.49D-07 at cycle   6 NSaved=   6.
 NSaved= 6 IEnMin= 6 EnMin= -962.073655111957     IErMin= 6 ErrMin= 3.49D-07
 ErrMax= 3.49D-07  0.00D+00 EMaxC= 1.00D-01 BMatC= 6.76D-11 BMatP= 4.67D-10
 IDIUse=1 WtCom= 1.00D+00 WtEn= 0.00D+00
 Coeff-Com:  0.141D-02-0.144D-01-0.419D-01 0.672D-02 0.324D+00 0.724D+00
 Coeff:      0.141D-02-0.144D-01-0.419D-01 0.672D-02 0.324D+00 0.724D+00
 Gap=     0.446 Goal=   None    Shift=    0.000
 RMSDP=2.97D-08 MaxDP=2.27D-06 DE=-4.06D-10 OVMax= 2.87D-06

 Cycle  12  Pass 1  IDiag  1:
 E= -962.073655111969     Delta-E=       -0.000000000012 Rises=F Damp=F
 DIIS: error= 1.43D-07 at cycle   7 NSaved=   7.
 NSaved= 7 IEnMin= 7 EnMin= -962.073655111969     IErMin= 7 ErrMin= 1.43D-07
 ErrMax= 1.43D-07  0.00D+00 EMaxC= 1.00D-01 BMatC= 1.35D-11 BMatP= 6.76D-11
 IDIUse=1 WtCom= 1.00D+00 WtEn= 0.00D+00
 Coeff-Com:  0.120D-02-0.600D-02-0.199D-01-0.156D-01 0.768D-01 0.369D+00
 Coeff-Com:  0.594D+00
 Coeff:      0.120D-02-0.600D-02-0.199D-01-0.156D-01 0.768D-01 0.369D+00
 Coeff:      0.594D+00
 Gap=     0.446 Goal=   None    Shift=    0.000
 RMSDP=9.46D-09 MaxDP=5.22D-07 DE=-1.18D-11 OVMax= 9.32D-07

 SCF Done:  E(RM062X) =  -962.073655112     A.U. after   12 cycles
            NFock= 12  Conv=0.95D-08     -V/T= 2.0024
 KE= 9.597642517057D+02 PE=-3.445749356407D+03 EE= 9.421707340863D+02
 Leave Link  502 at Sun May 25 03:30:20 2025, MaxMem=  3758096384 cpu:              58.9 elap:              12.1
 (Enter /apps/easybuild-2022/easybuild/software/Compiler/NVHPC/22.11-CUDA-11.7.0/Gaussian/g16c01-CUDA-11.7.0/g16/l508.exe)
 QCSCF skips out because SCF is already converged.
 Leave Link  508 at Sun May 25 03:30:20 2025, MaxMem=  3758096384 cpu:               0.0 elap:               0.0
 (Enter /apps/easybuild-2022/easybuild/software/Compiler/NVHPC/22.11-CUDA-11.7.0/Gaussian/g16c01-CUDA-11.7.0/g16/l801.exe)
 DoSCS=F DFT=T ScalE2(SS,OS)=  1.000000  1.000000
 Range of M.O.s used for correlation:     1   273
 NBasis=   273 NAE=    37 NBE=    37 NFC=     0 NFV=     0
 NROrb=    273 NOA=    37 NOB=    37 NVA=   236 NVB=   236

 **** Warning!!: The largest alpha MO coefficient is  0.10543328D+02

 Leave Link  801 at Sun May 25 03:30:20 2025, MaxMem=  3758096384 cpu:               0.0 elap:               0.0
 (Enter /apps/easybuild-2022/easybuild/software/Compiler/NVHPC/22.11-CUDA-11.7.0/Gaussian/g16c01-CUDA-11.7.0/g16/l1101.exe)
 Using compressed storage, NAtomX=     9.
 Will process     10 centers per pass.
   1 Symmetry operations used in ECPInt.
 ECPInt:  NShTT=    4753 NPrTT=   15592 LenC2=    4609 LenP2D=   11660.
 LDataN:  DoStor=T MaxTD1= 7 Len=  274
 Leave Link 1101 at Sun May 25 03:30:20 2025, MaxMem=  3758096384 cpu:               0.7 elap:               0.1
 (Enter /apps/easybuild-2022/easybuild/software/Compiler/NVHPC/22.11-CUDA-11.7.0/Gaussian/g16c01-CUDA-11.7.0/g16/l1102.exe)
 Symmetrizing basis deriv contribution to polar:
 IMax=3 JMax=2 DiffMx= 0.00D+00
 Leave Link 1102 at Sun May 25 03:30:20 2025, MaxMem=  3758096384 cpu:               0.0 elap:               0.0
 (Enter /apps/easybuild-2022/easybuild/software/Compiler/NVHPC/22.11-CUDA-11.7.0/Gaussian/g16c01-CUDA-11.7.0/g16/l1110.exe)
 Forming Gx(P) for the SCF density, NAtomX=     9.
 Integral derivatives from FoFJK, PRISM(SPDF).
 Do as many integral derivatives as possible in FoFJK.
 G2DrvN: MDV=    3758095321.
 G2DrvN: will do    10 centers at a time, making    1 passes.
 Calling FoFCou, ICntrl=  3107 FMM=F I1Cent=   0 AccDes= 0.00D+00.
 FoFJK:  IHMeth= 1 ICntrl=    3107 DoSepK=F KAlg= 0 I1Cent=           0 FoldK=F
 IRaf=         0 NMat=       1 IRICut=       1 DoRegI=T DoRafI=F ISym2E= 0 IDoP0=0 IntGTp=1.
 FoFCou: FMM=F IPFlag=           0 FMFlag=      100000 FMFlg1=           0
         NFxFlg=           0 DoJE=F BraDBF=F KetDBF=F FulRan=T
         wScrn=  0.000000 ICntrl=      3107 IOpCl=  0 I1Cent=           0 NGrid=           0
         NMat0=    1 NMatS0=      1 NMatT0=    0 NMatD0=    1 NMtDS0=    0 NMtDT0=    0
 Symmetry not used in FoFCou.
 End of G2Drv F.D. properties file   721 does not exist.
 End of G2Drv F.D. properties file   722 does not exist.
 End of G2Drv F.D. properties file   788 does not exist.
 Leave Link 1110 at Sun May 25 03:30:41 2025, MaxMem=  3758096384 cpu:             166.5 elap:              21.0
 (Enter /apps/easybuild-2022/easybuild/software/Compiler/NVHPC/22.11-CUDA-11.7.0/Gaussian/g16c01-CUDA-11.7.0/g16/l1002.exe)
 Minotr:  Closed shell wavefunction.
          IDoAtm=111111111
          Direct CPHF calculation.
          Differentiating once with respect to electric field.
                with respect to dipole field.
          Differentiating once with respect to nuclear coordinates.
          Requested convergence is 1.0D-08 RMS, and 1.0D-07 maximum.
          Secondary convergence is 1.0D-12 RMS, and 1.0D-12 maximum.
          NewPWx=T KeepS1=F KeepF1=F KeepIn=T MapXYZ=F SortEE=F KeepMc=T.
         2683 words used for storage of precomputed grid.
 Keep R1 ints in memory in canonical form, NReq=715218544.
 FoFCou: FMM=F IPFlag=           0 FMFlag=           0 FMFlg1=           0
         NFxFlg=           0 DoJE=F BraDBF=F KetDBF=F FulRan=T
         wScrn=  0.000000 ICntrl=       600 IOpCl=  0 I1Cent=           0 NGrid=           0
         NMat0=    1 NMatS0=  37401 NMatT0=    0 NMatD0=    1 NMtDS0=    0 NMtDT0=    0
 Symmetry not used in FoFCou.
 Two-electron integral symmetry not used.
          MDV=    3758096384 using IRadAn=       1.
          Solving linear equations simultaneously, MaxMat=       0.
          There are    30 degrees of freedom in the 1st order CPHF.  IDoFFX=6 NUNeed=     3.
     27 vectors produced by pass  0 Test12= 2.91D-14 3.33D-09 XBig12= 1.85D+01 1.39D+00.
 AX will form    27 AO Fock derivatives at one time.
     27 vectors produced by pass  1 Test12= 2.91D-14 3.33D-09 XBig12= 4.44D+00 3.72D-01.
     27 vectors produced by pass  2 Test12= 2.91D-14 3.33D-09 XBig12= 1.55D-01 7.97D-02.
     27 vectors produced by pass  3 Test12= 2.91D-14 3.33D-09 XBig12= 7.53D-03 2.19D-02.
     27 vectors produced by pass  4 Test12= 2.91D-14 3.33D-09 XBig12= 9.59D-05 2.18D-03.
     27 vectors produced by pass  5 Test12= 2.91D-14 3.33D-09 XBig12= 8.30D-07 1.47D-04.
     27 vectors produced by pass  6 Test12= 2.91D-14 3.33D-09 XBig12= 5.09D-09 1.06D-05.
     10 vectors produced by pass  7 Test12= 2.91D-14 3.33D-09 XBig12= 3.26D-11 7.69D-07.
      3 vectors produced by pass  8 Test12= 2.91D-14 3.33D-09 XBig12= 1.89D-13 8.77D-08.
      2 vectors produced by pass  9 Test12= 2.91D-14 3.33D-09 XBig12= 9.74D-16 7.36D-09.
 InvSVY:  IOpt=1 It=  1 EMax= 8.88D-16
 Solved reduced A of dimension   204 with    30 vectors.
 FullF1:  Do perturbations      1 to       3.
 Isotropic polarizability for W=    0.000000       41.57 Bohr**3.
 End of Minotr F.D. properties file   721 does not exist.
 End of Minotr F.D. properties file   722 does not exist.
 End of Minotr F.D. properties file   788 does not exist.
 Leave Link 1002 at Sun May 25 03:31:14 2025, MaxMem=  3758096384 cpu:             256.5 elap:              32.6
 (Enter /apps/easybuild-2022/easybuild/software/Compiler/NVHPC/22.11-CUDA-11.7.0/Gaussian/g16c01-CUDA-11.7.0/g16/l701.exe)
 ... and contract with generalized density number  0.
 Compute integral second derivatives.
   1 Symmetry operations used in ECPInt.
 ECPInt:  NShTT=    4753 NPrTT=   15592 LenC2=    4609 LenP2D=   11660.
 LDataN:  DoStor=T MaxTD1= 8 Len=  415
 Leave Link  701 at Sun May 25 03:31:14 2025, MaxMem=  3758096384 cpu:               0.6 elap:               0.1
 (Enter /apps/easybuild-2022/easybuild/software/Compiler/NVHPC/22.11-CUDA-11.7.0/Gaussian/g16c01-CUDA-11.7.0/g16/l702.exe)
 L702 exits ... SP integral derivatives will be done elsewhere.
 Leave Link  702 at Sun May 25 03:31:14 2025, MaxMem=  3758096384 cpu:               0.0 elap:               0.0
 (Enter /apps/easybuild-2022/easybuild/software/Compiler/NVHPC/22.11-CUDA-11.7.0/Gaussian/g16c01-CUDA-11.7.0/g16/l703.exe)
 Integral derivatives from FoFJK, PRISM(SPDF).
 Compute integral second derivatives, UseDBF=F ICtDFT=           0.
 Calling FoFJK, ICntrl=    100127 FMM=F ISym2X=0 I1Cent= 0 IOpClX= 0 NMat=1 NMatS=1 NMatT=0.
 FoFJK:  IHMeth= 1 ICntrl=  100127 DoSepK=F KAlg= 0 I1Cent=           0 FoldK=F
 IRaf=         0 NMat=       1 IRICut=       1 DoRegI=T DoRafI=F ISym2E= 0 IDoP0=0 IntGTp=1.
 FoFCou: FMM=F IPFlag=           0 FMFlag=      100000 FMFlg1=         800
         NFxFlg=           0 DoJE=F BraDBF=F KetDBF=F FulRan=T
         wScrn=  0.000000 ICntrl=    100127 IOpCl=  0 I1Cent=           0 NGrid=           0
         NMat0=    1 NMatS0=      1 NMatT0=    0 NMatD0=    1 NMtDS0=    0 NMtDT0=    0
 Symmetry not used in FoFCou.
 Leave Link  703 at Sun May 25 03:32:02 2025, MaxMem=  3758096384 cpu:             378.4 elap:              47.6
 (Enter /apps/easybuild-2022/easybuild/software/Compiler/NVHPC/22.11-CUDA-11.7.0/Gaussian/g16c01-CUDA-11.7.0/g16/l716.exe)
 Dipole        = 3.44442924D-01 7.05163664D-01-1.30447826D-01
 Polarizability= 4.16609532D+01-1.30865756D+00 4.18425074D+01
                -1.88653679D-01-3.10403273D-01 4.12048405D+01
 -------------------------------------------------------------------
 Center     Atomic                   Forces (Hartrees/Bohr)
 Number     Number              X              Y              Z
 -------------------------------------------------------------------
      1        6          -0.116172687   -0.037999748    0.003233271
      2        9           0.010080246   -0.004577691   -0.002065640
      3        9           0.009439519   -0.002557296    0.004619926
      4        9           0.012179693   -0.008871520    0.000290528
      5       16           0.015999564    0.095742225   -0.015217435
      6        8           0.006171911   -0.012749867    0.019710059
      7        8           0.001246562   -0.010944769   -0.009604766
      8        8           0.056533791   -0.012541422   -0.000564157
      9        1           0.004521403   -0.005499913   -0.000401786
 -------------------------------------------------------------------
 Cartesian Forces:  Max     0.116172687 RMS     0.032932520
 Force constants in Cartesian coordinates: 
                1             2             3             4             5 
      1  0.688574D+00
      2 -0.794740D-02  0.498289D+00
      3 -0.113180D-01  0.854076D-02  0.530385D+00
      4 -0.131752D+00  0.443955D-01 -0.818782D-01  0.132859D+00
      5  0.477909D-01 -0.107636D+00  0.705140D-01 -0.362643D-01  0.161062D+00
      6 -0.796183D-01  0.691960D-01 -0.207148D+00  0.109491D+00 -0.118718D+00
      7 -0.122887D+00  0.503568D-01  0.756677D-01  0.174918D-01 -0.583108D-02
      8  0.534356D-01 -0.129706D+00 -0.916278D-01 -0.441479D-02  0.168729D-01
      9  0.735393D-01 -0.896161D-01 -0.211231D+00  0.313241D-02 -0.125325D-01
     10 -0.143358D+00 -0.880918D-01  0.788439D-02  0.196362D-01  0.837208D-02
     11 -0.902885D-01 -0.212272D+00  0.118224D-01 -0.457395D-02 -0.630252D-01
     12  0.828427D-02  0.120114D-01 -0.730925D-01  0.869791D-02  0.603654D-01
     13 -0.314777D+00  0.281823D-01  0.116609D-01 -0.812086D-02  0.103499D-03
     14 -0.235195D-02  0.272192D-01 -0.363987D-02  0.163676D-01 -0.127245D-01
     15  0.118044D-01 -0.637202D-02 -0.177510D-01 -0.309370D-01  0.123911D-01
     16  0.173226D-01  0.290443D-02 -0.254832D-01 -0.969502D-02  0.345717D-02
     17  0.112661D-02 -0.293900D-02  0.242274D-02 -0.528764D-03  0.224190D-02
     18  0.138583D-01  0.222715D-02 -0.114051D-01 -0.259977D-02 -0.263884D-03
     19  0.177698D-01  0.606593D-02  0.220122D-01 -0.183386D-02  0.483318D-03
     20 -0.395478D-03 -0.440776D-02 -0.236587D-02 -0.375076D-03  0.223637D-02
     21 -0.162619D-01 -0.318067D-02 -0.119279D-01  0.414247D-02 -0.984848D-03
     22 -0.103930D-01 -0.420556D-01  0.418801D-03 -0.180526D-01 -0.165878D-01
     23  0.859657D-03 -0.550083D-01  0.402617D-02 -0.164690D-01 -0.366459D-03
     24 -0.281495D-02  0.792740D-02  0.163095D-02 -0.785595D-02 -0.941299D-02
     25 -0.499582D-03  0.618985D-02  0.103553D-02 -0.533059D-03 -0.152375D-02
     26 -0.222947D-02 -0.135391D-01  0.307494D-03  0.186274D-02  0.133933D-02
     27  0.252685D-02 -0.733885D-03  0.539364D-03 -0.219249D-02 -0.135832D-02
                6             7             8             9            10 
      6  0.322498D+00
      7 -0.112796D-01  0.118365D+00
      8  0.508675D-03 -0.408709D-01  0.195885D+00
      9 -0.887137D-01 -0.948048D-01  0.145412D+00  0.318675D+00
     10 -0.146770D-02  0.191640D-01  0.380172D-02 -0.180935D-02  0.120035D+00
     11  0.485107D-01 -0.909934D-02 -0.753359D-01 -0.415200D-01  0.120119D+00
     12 -0.179318D-01 -0.103205D-01 -0.543796D-01 -0.532357D-02 -0.849543D-02
[...]
     26 -0.812513D-03 -0.150115D+00 -0.961338D-01  0.151262D-01  0.183256D+00
     27 -0.349034D-02  0.354250D-01  0.172570D-01 -0.182745D-02 -0.374950D-01
               26            27 
     26  0.124347D+00
     27 -0.190102D-01  0.425344D-03
 Red2BG is reusing G-inverse.
 Force constants in internal coordinates: 
                1             2             3             4             5 
      1  0.459174D+00
      2  0.543397D-01  0.459385D+00
      3  0.548548D-01  0.548331D-01  0.459139D+00
      4  0.167981D-01  0.169293D-01  0.177401D-01  0.200638D+00
      5  0.574202D-02  0.908726D-02  0.918631D-02 -0.389164D-02  0.752609D+00
      6  0.909110D-02  0.571551D-02  0.917287D-02 -0.387587D-02  0.232815D-02
      7  0.844277D-02  0.841078D-02  0.574239D-02 -0.352344D-03  0.145957D-01
      8 -0.382537D-03 -0.386090D-03 -0.424227D-03 -0.215308D-02 -0.299361D-02
      9  0.237474D-01  0.237469D-01  0.306598D-02 -0.168115D-01 -0.617346D-02
     10  0.229775D-01  0.313195D-02  0.202010D-01 -0.145696D-01 -0.586765D-02
     11  0.894487D-02 -0.311437D-01 -0.281801D-01  0.168645D-01  0.141842D-01
     12  0.318147D-02  0.229953D-01  0.201376D-01 -0.145936D-01 -0.546036D-02
     13 -0.312851D-01  0.879988D-02 -0.279766D-01  0.170401D-01  0.672332D-03
     14 -0.283417D-01 -0.283077D-01  0.134545D-01  0.123352D-01  0.269978D-02
     15  0.167459D-01 -0.397979D-02 -0.279653D-02 -0.168633D-02  0.690632D-02
     16 -0.385888D-02  0.167562D-01 -0.289592D-02 -0.176123D-02 -0.960828D-02
     17 -0.133941D-02 -0.126472D-02  0.227798D-01  0.128142D-01 -0.765055D-02
     18 -0.351512D-02 -0.346563D-02 -0.274049D-02 -0.445634D-03  0.509128D-02
     19 -0.251998D-02 -0.414943D-02 -0.401275D-02 -0.279652D-02  0.100349D-01
     20 -0.413050D-02 -0.251341D-02 -0.404162D-02 -0.282769D-02 -0.810516D-02
     21  0.110367D-02  0.110548D-02  0.296492D-02  0.393226D-03  0.332208D-02
     22 -0.149088D-02  0.113504D-01 -0.125927D-01  0.224622D-02  0.149329D-02
     23  0.372619D-02  0.165474D-01 -0.204656D-01 -0.947143D-03  0.604741D-02
     24 -0.214877D-02  0.172444D-01 -0.165558D-01  0.624282D-03 -0.792577D-02
     25 -0.165533D-01 -0.371079D-02  0.204538D-01  0.102831D-02 -0.534107D-03
     26 -0.113362D-01  0.148619D-02  0.125809D-01 -0.216505D-02  0.402002D-02
     27 -0.172112D-01  0.218318D-02  0.164907D-01 -0.593626D-03 -0.995317D-02
     28  0.143090D-01 -0.194712D-01  0.391193D-02  0.160195D-02  0.405715D-02
     29  0.195260D-01 -0.142742D-01 -0.396101D-02 -0.159142D-02  0.861127D-02
     30  0.136511D-01 -0.135772D-01 -0.511940D-04 -0.199898D-04 -0.536191D-02
     31  0.773066D-02 -0.780124D-02  0.456751D-04  0.320084D-04  0.954240D-02
     32 -0.939472D-02 -0.192547D-02 -0.580292D-02 -0.300693D-02  0.293469D-02
     33  0.195901D-02  0.936929D-02  0.577927D-02  0.298196D-02 -0.618039D-02
                6             7             8             9            10 
      6  0.751608D+00
      7  0.145267D-01  0.353952D+00
      8 -0.298610D-02  0.865670D-02  0.521703D+00
      9 -0.620940D-02 -0.550206D-02  0.625853D-03  0.123005D+00
     10 -0.549245D-02 -0.614896D-02  0.817183D-03  0.355316D-01  0.116683D+00
     11  0.992650D-03  0.237152D-02 -0.893487D-03 -0.901392D-01 -0.843260D-01
     12 -0.579965D-02 -0.611330D-02  0.825921D-03  0.355933D-01  0.351639D-01
     13  0.139031D-01  0.222340D-02 -0.905165D-03 -0.904323D-01 -0.139531D-01
     14  0.266033D-02  0.134000D-01 -0.473263D-03 -0.159089D-01 -0.897164D-01
     15 -0.985339D-02 -0.713926D-02  0.142032D-02 -0.551792D-02 -0.467482D-02
     16  0.748614D-02 -0.702905D-02  0.140811D-02 -0.543991D-02  0.228943D-02
     17 -0.777402D-02  0.260010D-01  0.423435D-02  0.168783D-03 -0.112656D-01
     18  0.498580D-02 -0.793897D-02  0.884183D-03  0.389199D-02  0.228996D-02
     19 -0.803994D-02  0.183480D-02 -0.336833D-02  0.263917D-02  0.419472D-02
     20  0.987819D-02  0.182096D-02 -0.338232D-02  0.263527D-02  0.344843D-02
     21  0.323936D-02  0.473699D-01  0.266077D-01  0.156423D-03 -0.103537D-02
     22 -0.410814D-02  0.856710D-02 -0.183866D-02  0.193070D-01 -0.206336D-01
     23  0.562794D-03 -0.124785D-01  0.145385D-02  0.160425D-01 -0.194731D-01
     24  0.989953D-02 -0.194977D-02 -0.201271D-03  0.176817D-01 -0.196449D-01
     25 -0.611695D-02  0.124388D-01 -0.144095D-02 -0.161171D-01 -0.575579D-03
     26 -0.144601D-02 -0.860673D-02  0.185156D-02 -0.193816D-01  0.585004D-03
     27  0.789072D-02  0.192197D-02  0.196440D-03 -0.177424D-01  0.413137D-03
     28 -0.858053D-02  0.105235D-01 -0.164176D-02  0.164178D-02  0.186801D-01
     29 -0.390960D-02 -0.105221D-01  0.165075D-02 -0.162277D-02  0.198407D-01
     30  0.542714D-02  0.660940D-05 -0.437467D-05  0.164426D-04  0.196689D-01
     31 -0.978396D-02 -0.606943D-04 -0.747867D-05 -0.248063D-04 -0.243560D-02
     32  0.624421D-02 -0.393745D-02 -0.259558D-02  0.530894D-02  0.655481D-02
     33 -0.263291D-02  0.393383D-02  0.256401D-02 -0.527421D-02 -0.399197D-02
               11            12            13            14            15 
     11  0.176289D+00
     12 -0.137901D-01  0.116699D+00
     13  0.325326D-02 -0.844114D-01  0.176338D+00
     14  0.981346D-02 -0.898714D-01  0.103090D-01  0.176823D+00
     15  0.203453D-01  0.217510D-02 -0.631026D-02 -0.603110D-02  0.941468D-01
     16 -0.654434D-02 -0.467457D-02  0.206076D-01 -0.625831D-02 -0.213754D-02
     17 -0.417256D-02 -0.110427D-01 -0.472560D-02  0.313451D-01 -0.236693D-01
     18 -0.458909D-02  0.231596D-02 -0.479142D-02  0.864677D-03 -0.409558D-01
     19 -0.340795D-02  0.339052D-02 -0.674417D-03 -0.622698D-02 -0.177686D-01
     20 -0.727290D-03  0.416394D-02 -0.327138D-02 -0.633537D-02 -0.350394D-03
     21 -0.206448D-02 -0.105183D-02 -0.207539D-02  0.615763D-02  0.303509D-02
     22 -0.825055D-03 -0.533059D-03  0.120806D-02  0.753604D-03 -0.746447D-02
     23  0.369239D-02  0.574832D-03  0.583918D-02 -0.744772D-02  0.921309D-02
     24 -0.252507D-03 -0.360079D-03  0.525811D-02 -0.343129D-02 -0.950432D-03
     25 -0.587628D-02  0.194000D-01 -0.351599D-02  0.745802D-02 -0.977291D-02
     26 -0.135883D-02  0.205078D-01  0.111513D-02 -0.743304D-03  0.690465D-02
     27 -0.530373D-02  0.195729D-01  0.534056D-03  0.327312D-02 -0.325887D-02
     28  0.304251D-02 -0.197911D-01 -0.761032D-02  0.406083D-02 -0.521016D-02
     29  0.755996D-02 -0.186832D-01 -0.297921D-02 -0.414049D-02  0.114674D-01
     30  0.361506D-02 -0.196181D-01 -0.356028D-02 -0.124068D-03  0.130388D-02
     31  0.971877D-02  0.239254D-02 -0.976722D-02  0.119245D-03  0.347156D-01
     32 -0.990502D-02  0.399092D-02 -0.668455D-03 -0.537626D-02 -0.537343D-01
     33  0.590722D-03 -0.650864D-02  0.993627D-02  0.534140D-02  0.220596D-01
               16            17            18            19            20 
     16  0.932131D-01
     17 -0.234240D-01  0.207010D+00
     18 -0.403672D-01  0.196754D-01  0.654758D-01
     19 -0.378819D-03 -0.655887D-01 -0.908312D-02  0.697587D-01
     20 -0.177688D-01 -0.655316D-01 -0.923654D-02  0.564151D-02  0.698749D-01
     21  0.307793D-02  0.264943D-01 -0.283550D-02 -0.107266D-01 -0.107809D-01
     22 -0.678526D-02  0.229795D-02 -0.122750D-01  0.238804D-01  0.233293D-02
     23  0.994585D-02 -0.790724D-02  0.109590D-01 -0.166792D-02 -0.233927D-01
     24  0.331142D-02 -0.274125D-02 -0.672223D-03 -0.214152D-01  0.220481D-01
     25 -0.921118D-02  0.793125D-02 -0.109872D-01  0.232569D-01  0.165950D-02
     26  0.751993D-02 -0.227393D-02  0.122468D-01 -0.229138D-02 -0.240661D-01
     27  0.885505D-03  0.289206D-02  0.615578D-03 -0.220386D-01  0.213747D-01
     28 -0.114787D-01  0.513695D-02 -0.115894D-01  0.232805D-01  0.228425D-02
     29  0.525238D-02 -0.506824D-02  0.116446D-01 -0.226785D-02 -0.234414D-01
     30 -0.138204D-02  0.977512D-04  0.133220D-04 -0.220151D-01  0.219995D-01
     31 -0.343442D-01 -0.175905D-03 -0.198983D-03 -0.243899D-02  0.246515D-02
     32 -0.217882D-01 -0.483537D-01  0.381921D-01  0.288736D-01  0.298578D-01
     33  0.531913D-01  0.482866D-01 -0.379832D-01 -0.298889D-01 -0.287956D-01
               21            22            23            24            25 
     21  0.133039D+00
     22 -0.176162D-02  0.338799D-01
     23 -0.802052D-03  0.714845D-02  0.358972D-01
     24 -0.130550D-02  0.898413D-02  0.990325D-02  0.333566D-01
     25  0.761720D-03  0.945142D-02 -0.192011D-01 -0.164454D-01  0.358029D-01
     26  0.172129D-02 -0.172800D-01  0.954756D-02 -0.155263D-01  0.715029D-02
     27  0.121784D-02 -0.154443D-01 -0.164464D-01  0.792707D-02  0.990605D-02
     28 -0.486824D-03  0.895919D-02 -0.187333D-01 -0.169289D-01  0.990387D-02
     29  0.472745D-03 -0.177722D-01  0.100154D-01 -0.160098D-01 -0.187487D-01
     30 -0.307078D-04 -0.159365D-01 -0.159785D-01  0.744358D-02 -0.159929D-01
     31  0.171317D-04  0.975011D-03  0.999236D-03 -0.441038D-02  0.103836D-02
     32 -0.122254D-01  0.249968D-02 -0.525504D-02  0.287026D-02  0.279650D-02
     33  0.122941D-01 -0.489509D-02  0.292405D-02  0.322913D-02 -0.520530D-02
               26            27            28            29            30 
     26  0.339778D-01
     27  0.890401D-02  0.332774D-01
     28 -0.177886D-01 -0.159842D-01  0.356642D-01
     29  0.903891D-02 -0.169862D-01  0.797165D-02  0.357593D-01
     30 -0.160349D-01  0.738718D-02  0.977610D-02  0.973411D-02  0.331562D-01
     31  0.106258D-02 -0.434703D-02  0.360679D-02  0.363101D-02 -0.177860D-02
     32 -0.495822D-02  0.316709D-02  0.158179D-02 -0.617293D-02  0.195237D-02
     33  0.261384D-02  0.291891D-02 -0.617588D-02  0.164326D-02  0.194833D-02
               31            32            33 
     31  0.243715D-01
     32 -0.129131D-01  0.599019D-01
     33 -0.126535D-01 -0.505862D-01  0.595584D-01
 Leave Link  716 at Sun May 25 03:41:10 2025, MaxMem=  3758096384 cpu:               0.0 elap:               0.0
 (Enter /apps/easybuild-2022/easybuild/software/Compiler/NVHPC/22.11-CUDA-11.7.0/Gaussian/g16c01-CUDA-11.7.0/g16/l9999.exe)

 ----------------------------------------------------------------------

 Electric dipole moment (input orientation):
 (Debye = 10**-18 statcoulomb cm , SI units = C m)
                  (au)            (Debye)         (10**-30 SI)
   Tot        0.987700D+00      0.251048D+01      0.837407D+01
   x          0.125005D+00      0.317731D+00      0.105984D+01
   y          0.977167D+00      0.248371D+01      0.828477D+01
   z         -0.711982D-01     -0.180968D+00     -0.603644D+00

 Dipole polarizability, Alpha (input orientation).
 (esu units = cm**3 , SI units = C**2 m**2 J**-1)
 Alpha(0;0):
               (au)            (10**-24 esu)      (10**-40 SI)
   iso        0.414417D+02      0.614102D+01      0.683281D+01
   aniso      0.298709D+01      0.442641D+00      0.492504D+00
   xx         0.430380D+02      0.637757D+01      0.709601D+01
   yx         0.927725D+00      0.137475D+00      0.152961D+00
   yy         0.402280D+02      0.596117D+01      0.663270D+01
   zx        -0.172285D+00     -0.255300D-01     -0.284059D-01
   zy         0.161577D-02      0.239432D-03      0.266404D-03
   zz         0.410590D+02      0.608432D+01      0.676972D+01

 ----------------------------------------------------------------------

 Dipole orientation:
     6         -0.21702527         -0.03204430         -0.23225860
     9         -1.17330519          2.08409477          0.67267964
     9         -1.49539717         -1.97758997          0.65787186
     9         -0.34743982         -0.01243150         -2.72401593
    16          3.14472768         -0.30189589          0.62743240
     8          4.01099251         -2.71590181         -0.14735193
     8          4.38341424          1.94650981         -0.13977611
     8          2.65561873         -0.26762443          3.56521532
     1          4.22469152         -0.38974134          4.49890156

 Electric dipole moment (dipole orientation):
 (Debye = 10**-18 statcoulomb cm , SI units = C m)
                  (au)            (Debye)         (10**-30 SI)
   Tot        0.987700D+00      0.251048D+01      0.837407D+01
   x          0.000000D+00      0.000000D+00      0.000000D+00
   y          0.000000D+00      0.000000D+00      0.000000D+00
   z          0.987700D+00      0.251048D+01      0.837407D+01

 Dipole polarizability, Alpha (dipole orientation).
 (esu units = cm**3 , SI units = C**2 m**2 J**-1)
 Alpha(0;0):
               (au)            (10**-24 esu)      (10**-40 SI)
   iso        0.414417D+02      0.614102D+01      0.683281D+01
   aniso      0.298709D+01      0.442641D+00      0.492504D+00
   xx         0.427520D+02      0.633519D+01      0.704885D+01
   yx        -0.136881D+00     -0.202836D-01     -0.225686D-01
   yy         0.410604D+02      0.608453D+01      0.676995D+01
   zx         0.125801D+01      0.186417D+00      0.207417D+00
   zy        -0.100691D+00     -0.149208D-01     -0.166017D-01
   zz         0.405125D+02      0.600334D+01      0.667961D+01

 ----------------------------------------------------------------------
 Unable to Open any file for archive entry.
 1\1\GINC-SPARTAN-BM163\Freq\RM062X\def2TZVPP\C1H1F3O3S1\AKHALILOV\25-M
 ay-2025\0\\#P M062X/Def2TZVPP Symm(None) scf(xqc) pop(None) opt(NoFree
 ze,TS,CalcAll,NoEigentest,MaxCycle=999)\\Gaussian input prepared by AS
 E\\0,1\C,-0.126129376,-0.1051685799,0.0401709262\F,-0.7139352285,0.375
 491326,-1.0381739312\F,-0.5923964229,0.5085715297,1.1103930758\F,-0.36
 22331209,-1.4009450074,0.1336870483\S,1.6989706541,0.1126854886,-0.076
 4950171\O,2.2699514595,-0.284765339,1.1588571225\O,2.1312059047,-0.442
 653216,-1.3073057935\O,1.6389201731,1.6846465006,-0.1737435652\H,2.526
 1569569,2.0649632973,-0.2505138657\\Version=ES64L-G16RevC.01\HF=-962.1
 215272\RMSD=8.164e-09\RMSF=2.197e-06\ZeroPoint=0.0395248\Thermal=0.046
 6356\ETot=-962.0748915\HTot=-962.0739474\GTot=-962.1143841\Dipole=0.12
 50052,0.9771671,-0.0711982\DipoleDeriv=1.6176216,0.0381266,-0.0092508,
 0.0655177,1.5491893,-0.0072327,-0.0116195,-0.005655,1.5006859,-0.62927
 9,0.1016113,-0.3029383,0.0994906,-0.3256396,0.1742922,-0.2882029,0.171
 7153,-0.6520285,-0.5645428,0.1163322,0.2823752,0.1114375,-0.3751146,-0
 .2249758,0.2679587,-0.2228499,-0.668062,-0.4450298,-0.2345894,0.025445
 3,-0.2049066,-0.8717434,0.0506485,0.024201,0.0524796,-0.2485582,1.6865
 349,-0.1667292,0.0412155,-0.0553226,2.2822705,-0.0027053,0.0329619,0.0
 037986,2.187995,-0.7673998,0.0840846,-0.213448,0.0613479,-0.6046174,0.
 1072373,-0.291373,0.1728226,-0.972071,-0.7135057,0.0875485,0.1745881,0
 .0807433,-0.6477634,-0.1600303,0.2547534,-0.2278076,-0.9813009,-0.4994
 821,-0.1536377,0.0079607,-0.2282009,-1.4146112,0.0707535,0.0137912,0.0
 667882,-0.5180089,0.3150827,0.127253,-0.0059477,0.0698931,0.4080297,-0
 .0079874,-0.0024709,-0.0112918,0.3513485\Polar=43.0379882,0.9277252,40
 .2279652,-0.1722847,0.0016158,41.0590059\PG=Unknown\NImag=1\\0.5402935
 6,-0.01098735,0.58180260,0.00358294,0.00123800,0.58900664,-0.15535323,
 0.04695160,-0.10835187,0.14189878,0.04330462,-0.10251957,0.06644253,-0
 .06364699,0.13239215,-0.10505523,0.06776879,-0.23050311,0.13833973,-0.
 11280347,0.33604384,-0.13306091,0.05063327,0.09219093,0.01975694,-0.00
 622123,-0.01491477,0.11426545,0.04668155,-0.12164470,-0.08663102,-0.00
 451933,0.01655610,-0.00093436,-0.06448760,0.16399511,0.08935131,-0.088
 44688,-0.23398870,0.00375761,-0.01095398,-0.08326787,-0.10677110,0.143
 45933,0.33227086,-0.10470248,-0.07440220,0.00627571,0.01643205,0.02418
 393,-0.00790607,0.01703073,0.01914432,0.00251044,0.08073629,-0.0687942
 5,-0.30873422,0.01834143,0.00969525,-0.05006507,0.03990258,0.00541274,
 -0.06097301,-0.03472206,0.06602077,0.44569582,0.00598559,0.01868450,-0
 .07559981,-0.00120825,0.05286709,-0.01233737,-0.00246823,-0.04929873,-
 0.00178411,-0.00397211,-0.02621564,0.08365342,-0.19669161,-0.01320601,
 0.01076104,-0.00435414,0.00068454,-0.00140653,-0.00075533,-0.00023055,
 -0.00082836,0.00771758,0.00694130,-0.00079732,0.67248395,-0.02790792,-
 0.02284098,0.00165211,0.01927309,-0.00245788,0.01185414,0.02191259,-0.
 00526449,-0.01645179,-0.03222848,-0.03384710,0.00398130,-0.09878511,0.
 67318201,0.01160577,0.00080663,-0.02227651,-0.03663550,0.00744290,-0.0
 2135696,0.03186922,-0.00973937,-0.02249918,0.00167289,0.00177801,0.001
 36246,0.03882533,0.04207578,1.24929074,0.01850574,0.01209671,-0.025101
 31,-0.01411571,0.00166428,-0.00645082,-0.00277302,0.00019556,0.0030556
 6,-0.00365989,-0.00533436,0.00211736,-0.20924934,0.06620186,-0.2214569
 8,0.17098967,-0.00211996,-0.00009236,0.00366050,-0.00019623,0.00092177
 ,-0.00094115,-0.00147162,0.00134816,0.00125123,0.00291300,0.00580655,-
 0.00159758,0.06628336,-0.13311281,0.14828478,-0.08649456,0.12320252,0.
 01640044,0.00739801,-0.01444789,-0.00474468,-0.00025541,0.00078316,-0.
 00527611,0.00184274,0.00830691,-0.00286360,-0.00508792,0.00271109,-0.2
 1986827,0.14245831,-0.55971939,0.24082956,-0.16681549,0.58637152,0.018
 93440,0.01395516,0.01971013,-0.00241075,-0.00026863,-0.00182389,-0.012
 63481,0.00254550,0.00771676,-0.00342072,-0.00490753,-0.00081714,-0.164
 84763,0.07182975,0.17064635,0.02437610,-0.00024045,-0.01941630,0.12316
 837,-0.00490800,-0.00181507,-0.00491477,-0.00076393,0.00107830,-0.0002
 3685,0.00056805,0.00105187,0.00080656,0.00338864,0.00661045,0.00075864
 ,0.07102926,-0.17810147,-0.20738436,0.00376784,0.01774250,0.01359664,-
 0.09084133,0.17452791,-0.01964794,-0.01051210,-0.01321518,0.00675573,-
 0.00095822,0.00815695,0.00616561,-0.00009485,-0.00074923,0.00309737,0.
 00517477,0.00173253,0.16900799,-0.20163995,-0.55782708,0.01391120,-0.0
 1904928,-0.02279703,-0.18019219,0.23232462,0.58160162,0.01274350,-0.02
 646070,0.00093118,-0.00250975,0.00037979,-0.00111477,-0.00242737,0.000
 76031,0.00159976,-0.01138087,-0.00982975,0.00128461,-0.10762939,-0.014
 04407,0.00283527,0.01780211,0.01819374,-0.00275021,0.01818632,0.014318
 24,-0.00079199,0.51075577,0.02266547,-0.01846123,-0.00007752,-0.007099
 67,0.00315205,-0.00439392,-0.00665541,0.00392917,0.00499092,-0.0075700
 3,-0.00344190,0.00067749,0.00942815,-0.26780937,0.01187833,0.00417778,
 -0.01895911,0.00730647,0.00387987,-0.02428863,-0.00443248,0.16679704,0
 .42201282,-0.00218636,0.00274726,0.00020244,0.00198762,-0.00141450,0.0
 0245267,-0.00058524,0.00113997,0.00167598,0.00117862,0.00081903,0.0003
 3873,0.00139955,0.01334012,-0.07397598,-0.00391402,0.03625477,0.001710
 30,0.00188180,-0.03480654,0.00658776,-0.03741891,-0.03320632,0.0628355
 4,-0.00066898,0.00141951,0.00000125,0.00065581,-0.00008030,0.00033235,
 0.00059832,-0.00008976,-0.00039207,0.00124730,0.00079582,-0.00012450,0
 .00332592,-0.00625170,0.00063766,-0.00187566,0.00313273,-0.00231083,-0
 .00135127,0.00344124,0.00169422,-0.43554032,-0.18562321,0.03765694,0.4
 3360888,0.00206584,-0.00569448,0.00028874,0.00030622,0.00094215,-0.000
 21575,0.00030922,0.00100180,0.00006667,-0.00144994,-0.00105151,0.00014
 292,-0.04214494,-0.02974791,0.00485732,0.00372489,0.00314278,-0.000443
 36,0.00404766,0.00319413,-0.00081251,-0.15011461,-0.09613379,0.0151262
 0,0.18325567,0.12434683,-0.00003651,0.00031579,0.00082213,0.00009961,-
 0.00036693,0.00002869,-0.00021030,0.00025628,0.00003534,0.00000675,0.0
 0000980,-0.00007695,0.00290659,0.00272996,0.00700191,-0.00299065,-0.00
 104777,-0.00291867,0.00229448,-0.00014395,-0.00349034,0.03542505,0.017
 25704,-0.00182745,-0.03749501,-0.01901022,0.00042534\\-0.00000034,-0.0
 0000038,-0.00000079,-0.00000047,0.00000114,0.00000101,0.00000013,-0.00
 000463,0.00000130,0.00000215,-0.00000138,-0.00000417,0.00000061,0.0000
 0075,-0.00000096,0.00000137,-0.00000249,-0.00000201,0.00000029,0.00000
 391,-0.00000226,-0.00000230,0.00000083,0.00000320,-0.00000145,0.000002
 26,0.00000469\\\@
 The archive entry for this job was punched.


 DESK:  A WASTEBASKET WITH DRAWERS.
 Job cpu time:       0 days  1 hours 37 minutes 50.3 seconds.
 Elapsed time:       0 days  0 hours 12 minutes 56.8 seconds.
 File lengths (MBytes):  RWF=     79 Int=      0 D2E=      0 Chk=      7 Scr=      1
 Normal termination of Gaussian 16 at Sun May 25 03:41:10 2025.
done
