 Entering Gaussian System, Link 0=g16
 Initial command:
 /apps/easybuild-2022/easybuild/software/Compiler/NVHPC/22.11-CUDA-11.7.0/Gaussian/g16c01-CUDA-11.7.0/g16/l1.exe "/tmp/Gau-265657.inp" -scrdir="/tmp/"
 Entering Link 1 = /apps/easybuild-2022/easybuild/software/Compiler/NVHPC/22.11-CUDA-11.7.0/Gaussian/g16c01-CUDA-11.7.0/g16/l1.exe PID=    265661.
  
 Copyright (c) 1988-2019, Gaussian, Inc.  All Rights Reserved.
  
 This is part of the Gaussian(R) 16 program.  It is based on
 the Gaussian(R) 09 system (copyright 2009, Gaussian, Inc.),
 the Gaussian(R) 03 system (copyright 2003, Gaussian, Inc.),
 the Gaussian(R) 98 system (copyright 1998, Gaussian, Inc.),
 the Gaussian(R) 94 system (copyright 1995, Gaussian, Inc.),
 the Gaussian 92(TM) system (copyright 1992, Gaussian, Inc.),
 the Gaussian 90(TM) system (copyright 1990, Gaussian, Inc.),
 the Gaussian 88(TM) system (copyright 1988, Gaussian, Inc.),
 the Gaussian 86(TM) system (copyright 1986, Carnegie Mellon
 University), and the Gaussian 82(TM) system (copyright 1983,
 Carnegie Mellon University). Gaussian is a federally registered
 trademark of Gaussian, Inc.
  
 This software contains proprietary and confidential information,
 including trade secrets, belonging to Gaussian, Inc.
  
 This software is provided under written license and may be
 used, copied, transmitted, or stored only in accord with that
 written license.
  
 The following legend is applicable only to US Government
 contracts under FAR:
  
                    RESTRICTED RIGHTS LEGEND
  
 Use, reproduction and disclosure by the US Government is
 subject to restrictions as set forth in subparagraphs (a)
 and (c) of the Commercial Computer Software - Restricted
 Rights clause in FAR 52.227-19.
  
 Gaussian, Inc.
 340 Quinnipiac St., Bldg. 40, Wallingford CT 06492
  
  
 ---------------------------------------------------------------
 Warning -- This program may not be used in any manner that
 competes with the business of Gaussian, Inc. or will provide
 assistance to any competitor of Gaussian, Inc.  The licensee
 of this program is prohibited from giving any competitor of
 Gaussian, Inc. access to this program.  By using this program,
 the user acknowledges that Gaussian, Inc. is engaged in the
 business of creating and licensing software in the field of
 computational chemistry and represents and warrants to the
 licensee that it is not a competitor of Gaussian, Inc. and that
 it will not use this program in any manner prohibited above.
 ---------------------------------------------------------------
  

 Cite this work as:
 Gaussian 16, Revision C.01,
 M. J. Frisch, G. W. Trucks, H. B. Schlegel, G. E. Scuseria, 
 M. A. Robb, J. R. Cheeseman, G. Scalmani, V. Barone, 
 G. A. Petersson, H. Nakatsuji, X. Li, M. Caricato, A. V. Marenich, 
 J. Bloino, B. G. Janesko, R. Gomperts, B. Mennucci, H. P. Hratchian, 
 J. V. Ortiz, A. F. Izmaylov, J. L. Sonnenberg, D. Williams-Young, 
 F. Ding, F. Lipparini, F. Egidi, J. Goings, B. Peng, A. Petrone, 
 T. Henderson, D. Ranasinghe, V. G. Zakrzewski, J. Gao, N. Rega, 
 G. Zheng, W. Liang, M. Hada, M. Ehara, K. Toyota, R. Fukuda, 
 J. Hasegawa, M. Ishida, T. Nakajima, Y. Honda, O. Kitao, H. Nakai, 
 T. Vreven, K. Throssell, J. A. Montgomery, Jr., J. E. Peralta, 
 F. Ogliaro, M. J. Bearpark, J. J. Heyd, E. N. Brothers, K. N. Kudin, 
 V. N. Staroverov, T. A. Keith, R. Kobayashi, J. Normand, 
 K. Raghavachari, A. P. Rendell, J. C. Burant, S. S. Iyengar, 
 J. Tomasi, M. Cossi, J. M. Millam, M. Klene, C. Adamo, R. Cammi, 
 J. W. Ochterski, R. L. Martin, K. Morokuma, O. Farkas, 
 J. B. Foresman, and D. J. Fox, Gaussian, Inc., Wallingford CT, 2019.
 
 ******************************************
 Gaussian 16:  ES64L-G16RevC.01  3-Jul-2019
                25-May-2025 
 ******************************************
 %mem=28GB
 %chk=1502984803620600000001_r12_insertion_R_9_8_5_IRC_R_prod
 %nprocshared=8
 Will use up to    8 processors via shared memory.
 -----------------------------------------------------------------
 #P M062X/Def2TZVPP Symm(None) scf(xqc) pop(None) freq opt(CalcFC)
 -----------------------------------------------------------------
 1/10=4,18=20,19=15,26=3,38=1/1,3;
 2/9=110,12=2,15=3,17=6,18=5,40=1/2;
 3/5=44,7=202,11=2,25=1,30=1,71=2,74=-55,140=1/1,2,3;
 4//1;
 5/5=2,8=3,13=1,38=5/2,8;
 8/6=4,10=90,11=11/1;
 11/6=1,8=1,9=11,15=111,16=1,31=1/1,2,10;
 10/6=1,13=1,31=1/2;
 7/10=1,25=1,30=1/1,2,3,16;
 1/10=4,18=20,19=15,26=3/3(2);
 2/9=110,15=3/2;
 99//99;
 2/9=110,15=3/2;
 3/5=44,7=202,11=2,25=1,30=1,71=1,74=-55/1,2,3;
 4/5=5,16=3,69=1/1;
 5/5=2,8=3,13=1,38=5/2,8;
 7/30=1/1,2,3,16;
 1/18=20,19=15,26=3/3(-5);
 2/9=110,15=3/2;
 99/9=1/99;
 Leave Link    1 at Sun May 25 04:19:02 2025, MaxMem=  3758096384 cpu:               0.1 elap:               0.1
 (Enter /apps/easybuild-2022/easybuild/software/Compiler/NVHPC/22.11-CUDA-11.7.0/Gaussian/g16c01-CUDA-11.7.0/g16/l101.exe)
 ------------------------------
 Gaussian input prepared by ASE
 ------------------------------
 Symbolic Z-matrix:
 Charge =  0 Multiplicity = 1
 C                    -0.93945  -0.20784   0.02817 
 F                    -1.50309   0.50661  -0.92781 
 F                    -1.46822   0.10969   1.19363 
 F                    -1.1356   -1.49263  -0.21004 
 S                     0.88706   0.08587   0.01238 
 O                     1.40154  -0.63817   1.1135 
 O                     1.3275   -0.10856  -1.32583 
 O                     0.99838   1.6494    0.14606 
 H                     1.30532   1.95162  -0.72372 
 
 ITRead=  0  0  0  0  0  0  0  0  0
 MicOpt= -1 -1 -1 -1 -1 -1 -1 -1 -1
 NAtoms=      9 NQM=        9 NQMF=       0 NMMI=      0 NMMIF=      0
                NMic=       0 NMicF=      0.
                    Isotopes and Nuclear Properties:
 (Nuclear quadrupole moments (NQMom) in fm**2, nuclear magnetic moments (NMagM)
  in nuclear magnetons)

  Atom         1           2           3           4           5           6           7           8           9
 IAtWgt=          12          19          19          19          32          16          16          16           1
 AtmWgt=  12.0000000  18.9984032  18.9984032  18.9984032  31.9720718  15.9949146  15.9949146  15.9949146   1.0078250
 NucSpn=           0           1           1           1           0           0           0           0           1
 AtZEff=  -0.0000000  -0.0000000  -0.0000000  -0.0000000  -0.0000000  -0.0000000  -0.0000000  -0.0000000  -0.0000000
 NQMom=    0.0000000   0.0000000   0.0000000   0.0000000   0.0000000   0.0000000   0.0000000   0.0000000   0.0000000
 NMagM=    0.0000000   2.6288670   2.6288670   2.6288670   0.0000000   0.0000000   0.0000000   0.0000000   2.7928460
 AtZNuc=   6.0000000   9.0000000   9.0000000   9.0000000  16.0000000   8.0000000   8.0000000   8.0000000   1.0000000
 Leave Link  101 at Sun May 25 04:19:02 2025, MaxMem=  3758096384 cpu:               0.3 elap:               0.2
 (Enter /apps/easybuild-2022/easybuild/software/Compiler/NVHPC/22.11-CUDA-11.7.0/Gaussian/g16c01-CUDA-11.7.0/g16/l103.exe)

 GradGradGradGradGradGradGradGradGradGradGradGradGradGradGradGradGradGrad
 Berny optimization.
 Initialization pass.
                           ----------------------------
                           !    Initial Parameters    !
                           ! (Angstroms and Degrees)  !
 --------------------------                            --------------------------
 ! Name  Definition              Value          Derivative Info.                !
 --------------------------------------------------------------------------------
 ! R1    R(1,2)                  1.3199         calculate D2E/DX2 analytically  !
 ! R2    R(1,3)                  1.3186         calculate D2E/DX2 analytically  !
 ! R3    R(1,4)                  1.3213         calculate D2E/DX2 analytically  !
 ! R4    R(1,5)                  1.85           calculate D2E/DX2 analytically  !
 ! R5    R(5,6)                  1.4147         calculate D2E/DX2 analytically  !
 ! R6    R(5,7)                  1.4222         calculate D2E/DX2 analytically  !
 ! R7    R(5,8)                  1.5732         calculate D2E/DX2 analytically  !
 ! R8    R(8,9)                  0.9706         calculate D2E/DX2 analytically  !
 ! A1    A(2,1,3)              109.7901         calculate D2E/DX2 analytically  !
 ! A2    A(2,1,4)              109.4126         calculate D2E/DX2 analytically  !
 ! A3    A(2,1,5)              109.2385         calculate D2E/DX2 analytically  !
 ! A4    A(3,1,4)              109.5093         calculate D2E/DX2 analytically  !
 ! A5    A(3,1,5)              111.421          calculate D2E/DX2 analytically  !
 ! A6    A(4,1,5)              107.4213         calculate D2E/DX2 analytically  !
 ! A7    A(1,5,6)              105.7325         calculate D2E/DX2 analytically  !
 ! A8    A(1,5,7)              106.9824         calculate D2E/DX2 analytically  !
 ! A9    A(1,5,8)              103.116          calculate D2E/DX2 analytically  !
 ! A10   A(6,5,7)              123.353          calculate D2E/DX2 analytically  !
 ! A11   A(6,5,8)              114.6316         calculate D2E/DX2 analytically  !
 ! A12   A(7,5,8)              101.1812         calculate D2E/DX2 analytically  !
 ! A13   A(5,8,9)              104.8146         calculate D2E/DX2 analytically  !
 ! D1    D(2,1,5,6)            176.1666         calculate D2E/DX2 analytically  !
 ! D2    D(2,1,5,7)            -50.7339         calculate D2E/DX2 analytically  !
 ! D3    D(2,1,5,8)             55.487          calculate D2E/DX2 analytically  !
 ! D4    D(3,1,5,6)             54.6917         calculate D2E/DX2 analytically  !
 ! D5    D(3,1,5,7)           -172.2089         calculate D2E/DX2 analytically  !
 ! D6    D(3,1,5,8)            -65.988          calculate D2E/DX2 analytically  !
 ! D7    D(4,1,5,6)            -65.2484         calculate D2E/DX2 analytically  !
 ! D8    D(4,1,5,7)             67.851          calculate D2E/DX2 analytically  !
 ! D9    D(4,1,5,8)            174.0719         calculate D2E/DX2 analytically  !
 ! D10   D(1,5,8,9)           -109.3051         calculate D2E/DX2 analytically  !
 ! D11   D(6,5,8,9)            136.2945         calculate D2E/DX2 analytically  !
 ! D12   D(7,5,8,9)              1.2899         calculate D2E/DX2 analytically  !
 --------------------------------------------------------------------------------
 Trust Radius=3.00D-01 FncErr=1.00D-07 GrdErr=1.00D-06 EigMax=2.50D+02 EigMin=1.00D-04
 Number of steps in this run=     43 maximum allowed number of steps=    100.
 GradGradGradGradGradGradGradGradGradGradGradGradGradGradGradGradGradGrad

 Leave Link  103 at Sun May 25 04:19:02 2025, MaxMem=  3758096384 cpu:               0.0 elap:               0.0
 (Enter /apps/easybuild-2022/easybuild/software/Compiler/NVHPC/22.11-CUDA-11.7.0/Gaussian/g16c01-CUDA-11.7.0/g16/l202.exe)
                          Input orientation:                          
 ---------------------------------------------------------------------
 Center     Atomic      Atomic             Coordinates (Angstroms)
 Number     Number       Type             X           Y           Z
 ---------------------------------------------------------------------
      1          6           0       -0.939449   -0.207841    0.028166
      2          9           0       -1.503094    0.506610   -0.927805
      3          9           0       -1.468221    0.109691    1.193626
      4          9           0       -1.135604   -1.492630   -0.210042
      5         16           0        0.887060    0.085869    0.012381
      6          8           0        1.401538   -0.638165    1.113504
      7          8           0        1.327497   -0.108555   -1.325826
      8          8           0        0.998383    1.649403    0.146059
      9          1           0        1.305323    1.951619   -0.723723
 ---------------------------------------------------------------------
                    Distance matrix (angstroms):
                    1          2          3          4          5
     1  C    0.000000
     2  F    1.319855   0.000000
     3  F    1.318607   2.158525   0.000000
     4  F    1.321326   2.155735   2.156003   0.000000
     5  S    1.850041   2.602654   2.635006   2.575325   0.000000
     6  O    2.615981   3.730193   2.966686   2.986465   1.414703
     7  O    2.642385   2.923883   3.769789   3.037681   1.422176
     8  O    2.686717   2.952380   3.090671   3.814850   1.573182
     9  H    3.204311   3.164950   3.842066   4.252628   2.048857
                    6          7          8          9
     6  O    0.000000
     7  O    2.497258   0.000000
     8  O    2.516237   2.316285   0.000000
     9  H    3.176734   2.146471   0.970602   0.000000
 Symmetry turned off by external request.
 Stoichiometry    CHF3O3S
 Rotational constants (GHZ):           2.7001636           1.5935434           1.5354290
 Leave Link  202 at Sun May 25 04:19:03 2025, MaxMem=  3758096384 cpu:               0.1 elap:               0.0
 (Enter /apps/easybuild-2022/easybuild/software/Compiler/NVHPC/22.11-CUDA-11.7.0/Gaussian/g16c01-CUDA-11.7.0/g16/l301.exe)
 Standard basis: def2TZVPP (5D, 7F)
 Ernie: Thresh=  0.10000D-02 Tol=  0.10000D-05 Strict=F.
   273 basis functions,   443 primitive gaussians,   315 cartesian basis functions
    37 alpha electrons       37 beta electrons
       nuclear repulsion energy       572.1673200864 Hartrees.
 IExCor= 4336 DFT=T Ex+Corr=M062X ExCW=0 ScaHFX=  0.540000
 ScaDFX=  1.000000  1.000000  1.000000  1.000000 ScalE2=  1.000000  1.000000
 IRadAn=      5 IRanWt=     -1 IRanGd=            0 ICorTp=0 IEmpDi=  4
 NAtoms=    9 NActive=    9 NUniq=    9 SFac= 1.00D+00 NAtFMM=   60 NAOKFM=F Big=F
 Integral buffers will be    131072 words long.
 Raffenetti 2 integral format.
 Two-electron integral symmetry is turned off.
 Leave Link  301 at Sun May 25 04:19:03 2025, MaxMem=  3758096384 cpu:               0.1 elap:               0.0
 (Enter /apps/easybuild-2022/easybuild/software/Compiler/NVHPC/22.11-CUDA-11.7.0/Gaussian/g16c01-CUDA-11.7.0/g16/l302.exe)
 NPDir=0 NMtPBC=     1 NCelOv=     1 NCel=       1 NClECP=     1 NCelD=      1
         NCelK=      1 NCelE2=     1 NClLst=     1 CellRange=     0.0.
 One-electron integrals computed using PRISM.
   1 Symmetry operations used in ECPInt.
 ECPInt:  NShTT=    4753 NPrTT=   15592 LenC2=    4595 LenP2D=   11562.
 LDataN:  DoStor=T MaxTD1= 6 Len=  172
 NBasis=   273 RedAO= T EigKep=  9.40D-04  NBF=   273
 NBsUse=   273 1.00D-06 EigRej= -1.00D+00 NBFU=   273
 Precomputing XC quadrature grid using
 IXCGrd= 4 IRadAn=           5 IRanWt=          -1 IRanGd=           0 AccXCQ= 0.00D+00.
 Generated NRdTot=       0 NPtTot=           0 NUsed=           0 NTot=          32
 NSgBfM=   311   311   311   311   311 MxSgAt=     9 MxSgA2=     9.
 Leave Link  302 at Sun May 25 04:19:03 2025, MaxMem=  3758096384 cpu:               0.8 elap:               0.2
 (Enter /apps/easybuild-2022/easybuild/software/Compiler/NVHPC/22.11-CUDA-11.7.0/Gaussian/g16c01-CUDA-11.7.0/g16/l303.exe)
 DipDrv:  MaxL=1.
 Leave Link  303 at Sun May 25 04:19:03 2025, MaxMem=  3758096384 cpu:               0.1 elap:               0.0
 (Enter /apps/easybuild-2022/easybuild/software/Compiler/NVHPC/22.11-CUDA-11.7.0/Gaussian/g16c01-CUDA-11.7.0/g16/l401.exe)
 ExpMin= 9.52D-02 ExpMax= 6.07D+04 ExpMxC= 2.07D+03 IAcc=3 IRadAn=         5 AccDes= 0.00D+00
 Harris functional with IExCor= 1009 and IRadAn=       5 diagonalized for initial guess.
 HarFok:  IExCor= 1009 AccDes= 0.00D+00 IRadAn=         5 IDoV= 1 UseB2=F ITyADJ=14
 ICtDFT=  3500011 ScaDFX=  1.000000  1.000000  1.000000  1.000000
 FoFCou: FMM=F IPFlag=           0 FMFlag=      100000 FMFlg1=           0
         NFxFlg=           0 DoJE=T BraDBF=F KetDBF=T FulRan=T
         wScrn=  0.000000 ICntrl=       500 IOpCl=  0 I1Cent=   200000004 NGrid=           0
         NMat0=    1 NMatS0=      1 NMatT0=    0 NMatD0=    1 NMtDS0=    0 NMtDT0=    0
 Symmetry not used in FoFCou.
 Harris En= -961.688028073391    
 JPrj=0 DoOrth=F DoCkMO=F.
 Leave Link  401 at Sun May 25 04:19:03 2025, MaxMem=  3758096384 cpu:               2.8 elap:               0.5
 (Enter /apps/easybuild-2022/easybuild/software/Compiler/NVHPC/22.11-CUDA-11.7.0/Gaussian/g16c01-CUDA-11.7.0/g16/l502.exe)
 Keep R1 ints in memory in canonical form, NReq=715214082.
 FoFCou: FMM=F IPFlag=           0 FMFlag=           0 FMFlg1=           0
         NFxFlg=           0 DoJE=F BraDBF=F KetDBF=F FulRan=T
         wScrn=  0.000000 ICntrl=       600 IOpCl=  0 I1Cent=           0 NGrid=           0
         NMat0=    1 NMatS0=  37401 NMatT0=    0 NMatD0=    1 NMtDS0=    0 NMtDT0=    0
 Symmetry not used in FoFCou.
 Two-electron integral symmetry not used.
 Closed shell SCF:
 Using DIIS extrapolation, IDIIS=  1040.
 NGot=  3758096384 LenX=  3058457086 LenY=  3058357420
 Requested convergence on RMS density matrix=1.00D-08 within  32 cycles.
 Requested convergence on MAX density matrix=1.00D-06.
 Requested convergence on             energy=1.00D-06.
 No special actions if energy rises.
 Integral accuracy reduced to 1.0D-05 until final iterations.

 Cycle   1  Pass 0  IDiag  1:
 E= -961.825956171701    
 DIIS: error= 2.73D-02 at cycle   1 NSaved=   1.
 NSaved= 1 IEnMin= 1 EnMin= -961.825956171701     IErMin= 1 ErrMin= 2.73D-02
 ErrMax= 2.73D-02  0.00D+00 EMaxC= 1.00D-01 BMatC= 5.50D-01 BMatP= 5.50D-01
 IDIUse=3 WtCom= 7.27D-01 WtEn= 2.73D-01
 Coeff-Com:  0.100D+01
 Coeff-En:   0.100D+01
 Coeff:      0.100D+01
 Gap=     0.475 Goal=   None    Shift=    0.000
 GapD=    0.475 DampG=2.000 DampE=0.500 DampFc=1.0000 IDamp=-1.
 RMSDP=3.09D-03 MaxDP=2.59D-01              OVMax= 2.23D-01

 Cycle   2  Pass 0  IDiag  1:
 E= -961.527095124814     Delta-E=        0.298861046887 Rises=F Damp=F
 DIIS: error= 3.41D-02 at cycle   2 NSaved=   2.
 NSaved= 2 IEnMin= 1 EnMin= -961.825956171701     IErMin= 1 ErrMin= 2.73D-02
 ErrMax= 3.41D-02  0.00D+00 EMaxC= 1.00D-01 BMatC= 9.25D-01 BMatP= 5.50D-01
 IDIUse=2 WtCom= 0.00D+00 WtEn= 1.00D+00
 Coeff-En:   0.653D+00 0.347D+00
 Coeff:      0.653D+00 0.347D+00
 Gap=     0.455 Goal=   None    Shift=    0.000
 RMSDP=1.60D-03 MaxDP=1.53D-01 DE= 2.99D-01 OVMax= 1.25D-01

 Cycle   3  Pass 0  IDiag  1:
 E= -962.110445293515     Delta-E=       -0.583350168701 Rises=F Damp=F
 DIIS: error= 4.68D-03 at cycle   3 NSaved=   3.
 NSaved= 3 IEnMin= 3 EnMin= -962.110445293515     IErMin= 3 ErrMin= 4.68D-03
 ErrMax= 4.68D-03  0.00D+00 EMaxC= 1.00D-01 BMatC= 1.66D-02 BMatP= 5.50D-01
 IDIUse=3 WtCom= 9.53D-01 WtEn= 4.68D-02
 Coeff-Com:  0.908D-01-0.478D-01 0.957D+00
 Coeff-En:   0.000D+00 0.000D+00 0.100D+01
 Coeff:      0.865D-01-0.456D-01 0.959D+00
 Gap=     0.451 Goal=   None    Shift=    0.000
 RMSDP=2.56D-04 MaxDP=1.45D-02 DE=-5.83D-01 OVMax= 2.15D-02

 Cycle   4  Pass 0  IDiag  1:
 E= -962.117639428471     Delta-E=       -0.007194134956 Rises=F Damp=F
 DIIS: error= 2.92D-03 at cycle   4 NSaved=   4.
 NSaved= 4 IEnMin= 4 EnMin= -962.117639428471     IErMin= 4 ErrMin= 2.92D-03
 ErrMax= 2.92D-03  0.00D+00 EMaxC= 1.00D-01 BMatC= 3.40D-03 BMatP= 1.66D-02
 IDIUse=3 WtCom= 9.71D-01 WtEn= 2.92D-02
 Coeff-Com:  0.106D-01-0.521D-01 0.506D+00 0.535D+00
 Coeff-En:   0.000D+00 0.000D+00 0.525D-01 0.947D+00
 Coeff:      0.103D-01-0.505D-01 0.493D+00 0.547D+00
 Gap=     0.453 Goal=   None    Shift=    0.000
 RMSDP=1.10D-04 MaxDP=6.57D-03 DE=-7.19D-03 OVMax= 1.11D-02

 Cycle   5  Pass 0  IDiag  1:
 E= -962.119745002850     Delta-E=       -0.002105574379 Rises=F Damp=F
 DIIS: error= 4.45D-04 at cycle   5 NSaved=   5.
 NSaved= 5 IEnMin= 5 EnMin= -962.119745002850     IErMin= 5 ErrMin= 4.45D-04
 ErrMax= 4.45D-04  0.00D+00 EMaxC= 1.00D-01 BMatC= 1.23D-04 BMatP= 3.40D-03
 IDIUse=3 WtCom= 9.96D-01 WtEn= 4.45D-03
 Coeff-Com: -0.609D-03-0.157D-01 0.119D+00 0.214D+00 0.684D+00
 Coeff-En:   0.000D+00 0.000D+00 0.000D+00 0.000D+00 0.100D+01
 Coeff:     -0.606D-03-0.157D-01 0.118D+00 0.213D+00 0.685D+00
 Gap=     0.450 Goal=   None    Shift=    0.000
 RMSDP=2.75D-05 MaxDP=1.45D-03 DE=-2.11D-03 OVMax= 2.24D-03

 Cycle   6  Pass 0  IDiag  1:
 E= -962.119827510330     Delta-E=       -0.000082507480 Rises=F Damp=F
 DIIS: error= 8.16D-05 at cycle   6 NSaved=   6.
 NSaved= 6 IEnMin= 6 EnMin= -962.119827510330     IErMin= 6 ErrMin= 8.16D-05
 ErrMax= 8.16D-05  0.00D+00 EMaxC= 1.00D-01 BMatC= 5.14D-06 BMatP= 1.23D-04
 IDIUse=1 WtCom= 1.00D+00 WtEn= 0.00D+00
 Coeff-Com: -0.695D-03-0.330D-02 0.192D-01 0.481D-01 0.248D+00 0.689D+00
 Coeff:     -0.695D-03-0.330D-02 0.192D-01 0.481D-01 0.248D+00 0.689D+00
 Gap=     0.451 Goal=   None    Shift=    0.000
 RMSDP=6.65D-06 MaxDP=2.51D-04 DE=-8.25D-05 OVMax= 5.20D-04

 Initial convergence to 1.0D-05 achieved.  Increase integral accuracy.
 Cycle   7  Pass 1  IDiag  1:
 E= -962.119874234735     Delta-E=       -0.000046724406 Rises=F Damp=F
 DIIS: error= 3.53D-05 at cycle   1 NSaved=   1.
 NSaved= 1 IEnMin= 1 EnMin= -962.119874234735     IErMin= 1 ErrMin= 3.53D-05
 ErrMax= 3.53D-05  0.00D+00 EMaxC= 1.00D-01 BMatC= 1.24D-06 BMatP= 1.24D-06
 IDIUse=1 WtCom= 1.00D+00 WtEn= 0.00D+00
 Coeff-Com:  0.100D+01
 Coeff:      0.100D+01
 Gap=     0.451 Goal=   None    Shift=    0.000
 RMSDP=6.65D-06 MaxDP=2.51D-04 DE=-4.67D-05 OVMax= 4.37D-04

 Cycle   8  Pass 1  IDiag  1:
 E= -962.119873905196     Delta-E=        0.000000329539 Rises=F Damp=F
 DIIS: error= 5.45D-05 at cycle   2 NSaved=   2.
 NSaved= 2 IEnMin= 1 EnMin= -962.119874234735     IErMin= 1 ErrMin= 3.53D-05
 ErrMax= 5.45D-05  0.00D+00 EMaxC= 1.00D-01 BMatC= 1.86D-06 BMatP= 1.24D-06
 IDIUse=1 WtCom= 1.00D+00 WtEn= 0.00D+00
 Coeff-Com:  0.556D+00 0.444D+00
 Coeff:      0.556D+00 0.444D+00
 Gap=     0.451 Goal=   None    Shift=    0.000
 RMSDP=2.80D-06 MaxDP=1.11D-04 DE= 3.30D-07 OVMax= 3.01D-04

 Cycle   9  Pass 1  IDiag  1:
 E= -962.119875135277     Delta-E=       -0.000001230081 Rises=F Damp=F
 DIIS: error= 8.09D-06 at cycle   3 NSaved=   3.
 NSaved= 3 IEnMin= 3 EnMin= -962.119875135277     IErMin= 3 ErrMin= 8.09D-06
 ErrMax= 8.09D-06  0.00D+00 EMaxC= 1.00D-01 BMatC= 3.64D-08 BMatP= 1.24D-06
 IDIUse=1 WtCom= 1.00D+00 WtEn= 0.00D+00
 Coeff-Com: -0.299D-01 0.101D+00 0.928D+00
 Coeff:     -0.299D-01 0.101D+00 0.928D+00
 Gap=     0.451 Goal=   None    Shift=    0.000
 RMSDP=6.22D-07 MaxDP=1.89D-05 DE=-1.23D-06 OVMax= 4.74D-05

 Cycle  10  Pass 1  IDiag  1:
 E= -962.119875162363     Delta-E=       -0.000000027087 Rises=F Damp=F
 DIIS: error= 2.62D-06 at cycle   4 NSaved=   4.
 NSaved= 4 IEnMin= 4 EnMin= -962.119875162363     IErMin= 4 ErrMin= 2.62D-06
 ErrMax= 2.62D-06  0.00D+00 EMaxC= 1.00D-01 BMatC= 3.19D-09 BMatP= 3.64D-08
 IDIUse=1 WtCom= 1.00D+00 WtEn= 0.00D+00
 Coeff-Com: -0.274D-01 0.343D-01 0.411D+00 0.582D+00
 Coeff:     -0.274D-01 0.343D-01 0.411D+00 0.582D+00
 Gap=     0.451 Goal=   None    Shift=    0.000
 RMSDP=1.43D-07 MaxDP=6.53D-06 DE=-2.71D-08 OVMax= 1.23D-05

 Cycle  11  Pass 1  IDiag  1:
 E= -962.119875164491     Delta-E=       -0.000000002128 Rises=F Damp=F
 DIIS: error= 7.83D-07 at cycle   5 NSaved=   5.
 NSaved= 5 IEnMin= 5 EnMin= -962.119875164491     IErMin= 5 ErrMin= 7.83D-07
 ErrMax= 7.83D-07  0.00D+00 EMaxC= 1.00D-01 BMatC= 2.76D-10 BMatP= 3.19D-09
 IDIUse=1 WtCom= 1.00D+00 WtEn= 0.00D+00
 Coeff-Com: -0.370D-02-0.710D-02-0.360D-01 0.188D+00 0.859D+00
 Coeff:     -0.370D-02-0.710D-02-0.360D-01 0.188D+00 0.859D+00
 Gap=     0.451 Goal=   None    Shift=    0.000
 RMSDP=6.32D-08 MaxDP=2.08D-06 DE=-2.13D-09 OVMax= 6.37D-06

 Cycle  12  Pass 1  IDiag  1:
 E= -962.119875164747     Delta-E=       -0.000000000256 Rises=F Damp=F
 DIIS: error= 1.68D-07 at cycle   6 NSaved=   6.
 NSaved= 6 IEnMin= 6 EnMin= -962.119875164747     IErMin= 6 ErrMin= 1.68D-07
 ErrMax= 1.68D-07  0.00D+00 EMaxC= 1.00D-01 BMatC= 2.65D-11 BMatP= 2.76D-10
 IDIUse=1 WtCom= 1.00D+00 WtEn= 0.00D+00
 Coeff-Com:  0.133D-02-0.540D-02-0.494D-01 0.122D-01 0.301D+00 0.740D+00
 Coeff:      0.133D-02-0.540D-02-0.494D-01 0.122D-01 0.301D+00 0.740D+00
 Gap=     0.451 Goal=   None    Shift=    0.000
 RMSDP=1.67D-08 MaxDP=6.12D-07 DE=-2.56D-10 OVMax= 1.56D-06

 Cycle  13  Pass 1  IDiag  1:
 E= -962.119875164752     Delta-E=       -0.000000000005 Rises=F Damp=F
 DIIS: error= 8.85D-08 at cycle   7 NSaved=   7.
 NSaved= 7 IEnMin= 7 EnMin= -962.119875164752     IErMin= 7 ErrMin= 8.85D-08
 ErrMax= 8.85D-08  0.00D+00 EMaxC= 1.00D-01 BMatC= 5.45D-12 BMatP= 2.65D-11
 IDIUse=1 WtCom= 1.00D+00 WtEn= 0.00D+00
 Coeff-Com:  0.935D-03-0.213D-02-0.215D-01-0.104D-01 0.785D-01 0.374D+00
 Coeff-Com:  0.581D+00
 Coeff:      0.935D-03-0.213D-02-0.215D-01-0.104D-01 0.785D-01 0.374D+00
 Coeff:      0.581D+00
 Gap=     0.451 Goal=   None    Shift=    0.000
 RMSDP=5.94D-09 MaxDP=3.62D-07 DE=-5.23D-12 OVMax= 5.63D-07

 SCF Done:  E(RM062X) =  -962.119875165     A.U. after   13 cycles
            NFock= 13  Conv=0.59D-08     -V/T= 2.0027
 KE= 9.595541615911D+02 PE=-3.426185590941D+03 EE= 9.323442340984D+02
 Leave Link  502 at Sun May 25 04:19:20 2025, MaxMem=  3758096384 cpu:              72.1 elap:              16.2
 (Enter /apps/easybuild-2022/easybuild/software/Compiler/NVHPC/22.11-CUDA-11.7.0/Gaussian/g16c01-CUDA-11.7.0/g16/l508.exe)
 QCSCF skips out because SCF is already converged.
 Leave Link  508 at Sun May 25 04:19:20 2025, MaxMem=  3758096384 cpu:               0.0 elap:               0.0
 (Enter /apps/easybuild-2022/easybuild/software/Compiler/NVHPC/22.11-CUDA-11.7.0/Gaussian/g16c01-CUDA-11.7.0/g16/l801.exe)
 DoSCS=F DFT=T ScalE2(SS,OS)=  1.000000  1.000000
 Range of M.O.s used for correlation:     1   273
 NBasis=   273 NAE=    37 NBE=    37 NFC=     0 NFV=     0
 NROrb=    273 NOA=    37 NOB=    37 NVA=   236 NVB=   236
 Leave Link  801 at Sun May 25 04:19:20 2025, MaxMem=  3758096384 cpu:               0.1 elap:               0.0
 (Enter /apps/easybuild-2022/easybuild/software/Compiler/NVHPC/22.11-CUDA-11.7.0/Gaussian/g16c01-CUDA-11.7.0/g16/l1101.exe)
 Using compressed storage, NAtomX=     9.
 Will process     10 centers per pass.
   1 Symmetry operations used in ECPInt.
 ECPInt:  NShTT=    4753 NPrTT=   15592 LenC2=    4595 LenP2D=   11562.
 LDataN:  DoStor=T MaxTD1= 7 Len=  274
 Leave Link 1101 at Sun May 25 04:19:20 2025, MaxMem=  3758096384 cpu:               1.1 elap:               0.2
 (Enter /apps/easybuild-2022/easybuild/software/Compiler/NVHPC/22.11-CUDA-11.7.0/Gaussian/g16c01-CUDA-11.7.0/g16/l1102.exe)
 Symmetrizing basis deriv contribution to polar:
 IMax=3 JMax=2 DiffMx= 0.00D+00
 Leave Link 1102 at Sun May 25 04:19:20 2025, MaxMem=  3758096384 cpu:               0.1 elap:               0.0
 (Enter /apps/easybuild-2022/easybuild/software/Compiler/NVHPC/22.11-CUDA-11.7.0/Gaussian/g16c01-CUDA-11.7.0/g16/l1110.exe)
 Forming Gx(P) for the SCF density, NAtomX=     9.
 Integral derivatives from FoFJK, PRISM(SPDF).
 Do as many integral derivatives as possible in FoFJK.
 G2DrvN: MDV=    3758095321.
 G2DrvN: will do    10 centers at a time, making    1 passes.
 Calling FoFCou, ICntrl=  3107 FMM=F I1Cent=   0 AccDes= 0.00D+00.
 FoFJK:  IHMeth= 1 ICntrl=    3107 DoSepK=F KAlg= 0 I1Cent=           0 FoldK=F
 IRaf=         0 NMat=       1 IRICut=       1 DoRegI=T DoRafI=F ISym2E= 0 IDoP0=0 IntGTp=1.
 FoFCou: FMM=F IPFlag=           0 FMFlag=      100000 FMFlg1=           0
         NFxFlg=           0 DoJE=F BraDBF=F KetDBF=F FulRan=T
         wScrn=  0.000000 ICntrl=      3107 IOpCl=  0 I1Cent=           0 NGrid=           0
         NMat0=    1 NMatS0=      1 NMatT0=    0 NMatD0=    1 NMtDS0=    0 NMtDT0=    0
 Symmetry not used in FoFCou.
 End of G2Drv F.D. properties file   721 does not exist.
 End of G2Drv F.D. properties file   722 does not exist.
 End of G2Drv F.D. properties file   788 does not exist.
 Leave Link 1110 at Sun May 25 04:19:43 2025, MaxMem=  3758096384 cpu:             184.5 elap:              23.3
 (Enter /apps/easybuild-2022/easybuild/software/Compiler/NVHPC/22.11-CUDA-11.7.0/Gaussian/g16c01-CUDA-11.7.0/g16/l1002.exe)
 Minotr:  Closed shell wavefunction.
          IDoAtm=111111111
          Direct CPHF calculation.
          Differentiating once with respect to nuclear coordinates.
          Requested convergence is 1.0D-08 RMS, and 1.0D-07 maximum.
          Secondary convergence is 1.0D-12 RMS, and 1.0D-12 maximum.
          NewPWx=T KeepS1=F KeepF1=F KeepIn=T MapXYZ=F SortEE=F KeepMc=T.
         2683 words used for storage of precomputed grid.
 Keep R1 ints in memory in canonical form, NReq=715218544.
 FoFCou: FMM=F IPFlag=           0 FMFlag=           0 FMFlg1=           0
         NFxFlg=           0 DoJE=F BraDBF=F KetDBF=F FulRan=T
         wScrn=  0.000000 ICntrl=       600 IOpCl=  0 I1Cent=           0 NGrid=           0
         NMat0=    1 NMatS0=  37401 NMatT0=    0 NMatD0=    1 NMtDS0=    0 NMtDT0=    0
 Symmetry not used in FoFCou.
 Two-electron integral symmetry not used.
          MDV=    3758096384 using IRadAn=       1.
          Solving linear equations simultaneously, MaxMat=       0.
          There are    30 degrees of freedom in the 1st order CPHF.  IDoFFX=6 NUNeed=     0.
     24 vectors produced by pass  0 Test12= 2.91D-14 3.33D-09 XBig12= 2.05D-01 1.05D-01.
 AX will form    24 AO Fock derivatives at one time.
     24 vectors produced by pass  1 Test12= 2.91D-14 3.33D-09 XBig12= 1.81D-02 3.01D-02.
     24 vectors produced by pass  2 Test12= 2.91D-14 3.33D-09 XBig12= 1.44D-03 1.20D-02.
     24 vectors produced by pass  3 Test12= 2.91D-14 3.33D-09 XBig12= 2.95D-05 1.06D-03.
     24 vectors produced by pass  4 Test12= 2.91D-14 3.33D-09 XBig12= 3.65D-07 8.09D-05.
     24 vectors produced by pass  5 Test12= 2.91D-14 3.33D-09 XBig12= 3.53D-09 7.90D-06.
     24 vectors produced by pass  6 Test12= 2.91D-14 3.33D-09 XBig12= 2.87D-11 8.42D-07.
     16 vectors produced by pass  7 Test12= 2.91D-14 3.33D-09 XBig12= 1.81D-13 5.77D-08.
      2 vectors produced by pass  8 Test12= 2.91D-14 3.33D-09 XBig12= 1.20D-15 4.84D-09.
 InvSVY:  IOpt=1 It=  1 EMax= 1.78D-15
 Solved reduced A of dimension   186 with    24 vectors.
 End of Minotr F.D. properties file   721 does not exist.
 End of Minotr F.D. properties file   722 does not exist.
 End of Minotr F.D. properties file   788 does not exist.
 Leave Link 1002 at Sun May 25 04:20:16 2025, MaxMem=  3758096384 cpu:             256.8 elap:              32.7
 (Enter /apps/easybuild-2022/easybuild/software/Compiler/NVHPC/22.11-CUDA-11.7.0/Gaussian/g16c01-CUDA-11.7.0/g16/l701.exe)
 ... and contract with generalized density number  0.
 Compute integral second derivatives.
   1 Symmetry operations used in ECPInt.
 ECPInt:  NShTT=    4753 NPrTT=   15592 LenC2=    4595 LenP2D=   11562.
 LDataN:  DoStor=T MaxTD1= 8 Len=  415
 Leave Link  701 at Sun May 25 04:20:16 2025, MaxMem=  3758096384 cpu:               1.3 elap:               0.2
 (Enter /apps/easybuild-2022/easybuild/software/Compiler/NVHPC/22.11-CUDA-11.7.0/Gaussian/g16c01-CUDA-11.7.0/g16/l702.exe)
 L702 exits ... SP integral derivatives will be done elsewhere.
 Leave Link  702 at Sun May 25 04:20:16 2025, MaxMem=  3758096384 cpu:               0.1 elap:               0.0
 (Enter /apps/easybuild-2022/easybuild/software/Compiler/NVHPC/22.11-CUDA-11.7.0/Gaussian/g16c01-CUDA-11.7.0/g16/l703.exe)
 Integral derivatives from FoFJK, PRISM(SPDF).
 Compute integral second derivatives, UseDBF=F ICtDFT=           0.
 Calling FoFJK, ICntrl=    100127 FMM=F ISym2X=0 I1Cent= 0 IOpClX= 0 NMat=1 NMatS=1 NMatT=0.
 FoFJK:  IHMeth= 1 ICntrl=  100127 DoSepK=F KAlg= 0 I1Cent=           0 FoldK=F
 IRaf=         0 NMat=       1 IRICut=       1 DoRegI=T DoRafI=F ISym2E= 0 IDoP0=0 IntGTp=1.
 FoFCou: FMM=F IPFlag=           0 FMFlag=      100000 FMFlg1=         800
         NFxFlg=           0 DoJE=F BraDBF=F KetDBF=F FulRan=T
         wScrn=  0.000000 ICntrl=    100127 IOpCl=  0 I1Cent=           0 NGrid=           0
         NMat0=    1 NMatS0=      1 NMatT0=    0 NMatD0=    1 NMtDS0=    0 NMtDT0=    0
 Symmetry not used in FoFCou.
 Leave Link  703 at Sun May 25 04:21:07 2025, MaxMem=  3758096384 cpu:             403.1 elap:              50.8
 (Enter /apps/easybuild-2022/easybuild/software/Compiler/NVHPC/22.11-CUDA-11.7.0/Gaussian/g16c01-CUDA-11.7.0/g16/l716.exe)
 Dipole        =-2.46737547D-01 8.70951689D-01-2.95337659D-01
 Polarizability= 0.00000000D+00 0.00000000D+00 0.00000000D+00
                 0.00000000D+00 0.00000000D+00 0.00000000D+00
 -------------------------------------------------------------------
 Center     Atomic                   Forces (Hartrees/Bohr)
 Number     Number              X              Y              Z
 -------------------------------------------------------------------
      1        6           0.001526232    0.001292471   -0.000493659
      2        9          -0.001244372    0.001395512   -0.000012641
      3        9           0.001413535    0.001047795   -0.000348947
      4        9           0.000967834    0.001794879    0.000637289
      5       16           0.006063355   -0.001326479   -0.016484884
      6        8          -0.001614129    0.011406255    0.000769753
      7        8           0.000009944   -0.018123426   -0.005997487
      8        8          -0.005322747    0.000412886    0.019346990
      9        1          -0.001799652    0.002100106    0.002583585
 -------------------------------------------------------------------
 Cartesian Forces:  Max     0.019346990 RMS     0.006778666
 Force constants in Cartesian coordinates: 
                1             2             3             4             5 
      1  0.529340D+00
      2 -0.157735D-01  0.573425D+00
      3 -0.422177D-02 -0.554729D-02  0.589555D+00
      4 -0.149179D+00  0.665709D-01 -0.930959D-01  0.137630D+00
      5  0.624360D-01 -0.136876D+00  0.882871D-01 -0.902030D-01  0.191606D+00
      6 -0.911546D-01  0.900691D-01 -0.197921D+00  0.115786D+00 -0.147895D+00
      7 -0.144490D+00  0.277906D-01  0.109963D+00  0.202983D-01 -0.291119D-02
      8  0.229435D-01 -0.853981D-01 -0.442971D-01 -0.615827D-02  0.131195D-01
      9  0.105228D+00 -0.475662D-01 -0.260896D+00  0.691759D-02  0.136315D-01
     10 -0.986366D-01 -0.664965D-01 -0.123664D-01  0.153095D-01  0.259879D-01
     11 -0.590662D-01 -0.304107D+00 -0.423234D-01  0.102445D-01 -0.693332D-01
     12 -0.105541D-01 -0.411982D-01 -0.819223D-01  0.544576D-03  0.395830D-01
     13 -0.188029D+00 -0.246903D-01  0.129873D-03 -0.465219D-02  0.335386D-03
     14 -0.282113D-01 -0.259177D-01 -0.366983D-02  0.261822D-01 -0.760062D-02
     15  0.638330D-02 -0.391718D-02 -0.229610D-01 -0.332568D-01  0.113325D-01
     16  0.188908D-01  0.195788D-01 -0.214446D-01 -0.149213D-01  0.317409D-02
     17 -0.979423D-02 -0.415614D-02  0.808188D-02  0.250753D-02  0.901975D-03
     18  0.152729D-01  0.133796D-01 -0.109664D-01 -0.535404D-02 -0.351793D-03
     19  0.158825D-01  0.109763D-01  0.227938D-01 -0.253224D-02 -0.458402D-04
     20  0.898849D-03  0.111210D-02  0.113545D-02 -0.264113D-02  0.208151D-02
     21 -0.193921D-01 -0.747034D-02 -0.172603D-01  0.594504D-02 -0.244593D-02
     22  0.140512D-01 -0.134969D-01 -0.364206D-02 -0.144016D-02 -0.432208D-03
     23  0.271686D-01 -0.159375D-01 -0.167602D-03 -0.638580D-02  0.589125D-02
     24 -0.497450D-02  0.535504D-02  0.195123D-02  0.350843D-02 -0.296594D-02
     25  0.217011D-02 -0.445952D-02  0.188403D-02 -0.513753D-03  0.165896D-02
     26 -0.601746D-03 -0.214472D-02 -0.149917D-02 -0.116911D-03  0.209129D-03
     27  0.341257D-02 -0.310459D-02  0.420496D-03 -0.994467D-03  0.824747D-03
                6             7             8             9            10 
      6  0.278995D+00
      7 -0.120762D-01  0.125145D+00
      8  0.225321D-01 -0.400120D-01  0.103175D+00
      9 -0.797270D-01 -0.133392D+00  0.809260D-01  0.379617D+00
     10 -0.211431D-02  0.160155D-01  0.219121D-01  0.101824D-01  0.761154D-01
     11  0.259156D-01  0.893819D-02 -0.368703D-01 -0.431351D-01  0.509111D-01
     12  0.727346D-02  0.241068D-02 -0.578247D-01 -0.252161D-01  0.931377D-02
     13 -0.299460D-03  0.527139D-03  0.642158D-03 -0.773073D-03  0.620455D-02
     14  0.168687D-01  0.136848D-01  0.156434D-02 -0.844108D-02 -0.299859D-01
     15 -0.191132D-01  0.357615D-01 -0.150948D-02 -0.241972D-01 -0.789665D-02
     16 -0.727226D-02 -0.307838D-02 -0.655005D-03  0.304536D-02 -0.411301D-02
     17 -0.187107D-03  0.242458D-03  0.718432D-03 -0.125014D-02  0.363946D-02
     18  0.129307D-03 -0.624329D-02 -0.297802D-03  0.865265D-02 -0.161724D-02
     19 -0.142230D-02 -0.126672D-01 -0.228302D-03  0.720846D-02 -0.255231D-02
     20 -0.258455D-02 -0.183723D-02  0.785175D-03  0.134051D-02  0.204935D-02
     21  0.831736D-02  0.607612D-02  0.475505D-03 -0.261287D-03  0.363483D-02
     22 -0.222923D-03 -0.170418D-02  0.123429D-02  0.198890D-02 -0.727863D-02
     23 -0.450971D-02 -0.706248D-02  0.256656D-02  0.490683D-02 -0.775087D-02
     24  0.314388D-02 -0.220005D-02 -0.109579D-03  0.218844D-02  0.294845D-02
     25 -0.122347D-02 -0.453905D-04  0.321499D-03 -0.406313D-03 -0.106431D-02
     26 -0.208957D-03  0.116674D-02  0.339322D-03 -0.412298D-03 -0.266588D-03
     27 -0.109841D-02 -0.300115D-03  0.105168D-03 -0.161202D-03 -0.208481D-02
               11            12            13            14            15 
     11  0.434975D+00
     12  0.644402D-01  0.945623D-01
     13  0.671567D-02  0.122731D-02  0.620598D+00
     14 -0.332622D-01 -0.533820D-02 -0.888873D-01  0.720378D+00
     15 -0.783658D-02 -0.621911D-04  0.152026D-02 -0.179898D+00  0.124945D+01
     16 -0.586487D-02  0.241835D-03 -0.194723D+00  0.117699D+00 -0.190602D+00
     17  0.790803D-02 -0.386326D-03  0.118796D+00 -0.241137D+00  0.250760D+00
     18 -0.359264D-02  0.128698D-02 -0.184618D+00  0.243536D+00 -0.481733D+00
     19 -0.412191D-02 -0.190384D-02 -0.160183D+00  0.263275D-01  0.180920D+00
     20  0.467069D-02  0.135968D-02  0.230678D-01 -0.106737D+00 -0.738017D-01
     21  0.578430D-02  0.360765D-02  0.173683D+00 -0.726386D-01 -0.610222D+00
     22 -0.750015D-02 -0.100166D-02 -0.797532D-01 -0.280935D-01  0.801384D-02
     23 -0.364135D-02 -0.634581D-03 -0.172329D-01 -0.273411D+00 -0.406918D-01
     24  0.225265D-02  0.812464D-03  0.129986D-01 -0.217361D-02 -0.100717D+00
     25 -0.256369D-03 -0.278556D-03  0.119020D-04 -0.871567D-02 -0.844004D-03
     26 -0.339123D-03  0.000000D+00 -0.187465D-01 -0.338772D-01  0.455626D-01
     27 -0.150503D-02 -0.342249D-03 -0.386877D-02  0.117546D-01  0.955907D-02
               16            17            18            19            20 
     16  0.160197D+00
     17 -0.130282D+00  0.236302D+00
     18  0.200713D+00 -0.275082D+00  0.491205D+00
     19  0.233695D-01  0.312104D-02 -0.173084D-01  0.121073D+00
     20 -0.184117D-02  0.154134D-01  0.237939D-01 -0.399456D-01  0.109201D+00
     21  0.153378D-01 -0.897758D-02 -0.163677D-01 -0.195969D+00  0.112648D+00
     22  0.146148D-01  0.573649D-02  0.774366D-04  0.214552D-01  0.170499D-01
     23 -0.318080D-02 -0.113352D-01  0.645179D-03  0.158877D-02 -0.341824D-01
     24 -0.179359D-02  0.309619D-01  0.625192D-02  0.446735D-02 -0.575601D-01
     25 -0.235522D-03  0.603295D-02 -0.921847D-03 -0.384489D-02  0.319932D-02
     26  0.137151D-02 -0.461526D-02 -0.203029D-02  0.232806D-02  0.765551D-02
     27  0.177455D-02 -0.392010D-02  0.154142D-02  0.121363D-02 -0.633101D-02
               21            22            23            24            25 
     21  0.654408D+00
     22  0.723584D-02  0.924657D-01
     23 -0.241082D-01  0.645656D-01  0.400803D+00
     24 -0.123869D-01 -0.153619D+00 -0.766297D-01  0.506803D+00
     25  0.344805D-02 -0.524107D-01 -0.517101D-01  0.138664D+00  0.559326D-01
     26 -0.326702D-02 -0.390635D-01 -0.707540D-01  0.100869D+00  0.539289D-01
     27 -0.983404D-02  0.141169D+00  0.141190D+00 -0.408047D+00 -0.140322D+00
               26            27 
     26  0.103526D+00
     27 -0.139013D+00  0.407962D+00
 FormGI is forming the generalized inverse of G from B-inverse, IUseBI=4.
 Force constants in internal coordinates: 
                1             2             3             4             5 
      1  0.456889D+00
      2  0.539714D-01  0.459343D+00
      3  0.547969D-01  0.547444D-01  0.453786D+00
      4  0.176452D-01  0.162036D-01  0.168396D-01  0.189157D+00
      5  0.666294D-02  0.974283D-02  0.917260D-02 -0.386376D-02  0.761961D+00
      6  0.942073D-02  0.556123D-02  0.860537D-02 -0.366626D-02 -0.957354D-03
      7  0.932009D-02  0.743941D-02  0.570113D-02 -0.402217D-02  0.560937D-02
      8 -0.749617D-03 -0.351451D-03 -0.139585D-02 -0.470962D-03 -0.430720D-02
      9  0.223633D-01  0.245840D-01  0.345709D-02 -0.165371D-01 -0.696526D-02
     10  0.221855D-01  0.317084D-02  0.220987D-01 -0.152833D-01 -0.639027D-02
     11  0.111672D-01 -0.314229D-01 -0.277699D-01  0.196632D-01  0.155920D-01
     12  0.369703D-02  0.238381D-01  0.213754D-01 -0.131040D-01 -0.563724D-02
     13 -0.312274D-01  0.780050D-02 -0.282859D-01  0.109694D-01  0.893468D-03
     14 -0.283263D-01 -0.292148D-01  0.100251D-01  0.145121D-01  0.259578D-02
     15  0.168331D-01 -0.284855D-02 -0.278848D-02  0.207374D-02  0.135317D-01
     16 -0.356310D-02  0.162094D-01 -0.215611D-02  0.280440D-02 -0.846068D-02
     17 -0.160283D-02  0.249009D-03  0.197947D-01 -0.190684D-02 -0.882212D-02
     18 -0.340169D-02 -0.320679D-02 -0.324112D-02 -0.217981D-02  0.434675D-02
     19 -0.414224D-02 -0.380967D-02 -0.349411D-02 -0.999955D-03  0.289942D-03
     20 -0.457180D-02 -0.455919D-02 -0.328628D-02  0.296042D-03 -0.445163D-02
     21  0.152665D-02 -0.124641D-02  0.172997D-02  0.478750D-03  0.461584D-02
     22 -0.873716D-03  0.109633D-01 -0.126648D-01 -0.842781D-03 -0.224328D-02
     23  0.398389D-02  0.159218D-01 -0.200419D-01 -0.254237D-03  0.670309D-02
     24 -0.283048D-02  0.163904D-01 -0.167237D-01  0.264430D-03 -0.438856D-02
     25 -0.161893D-01 -0.379260D-02  0.200711D-01 -0.454330D-03 -0.458402D-02
     26 -0.113317D-01  0.116591D-02  0.126940D-01  0.134214D-03  0.436235D-02
     27 -0.181461D-01  0.163458D-02  0.160122D-01  0.652881D-03 -0.672931D-02
     28  0.155909D-01 -0.190663D-01  0.417748D-02 -0.503913D-04  0.149802D-03
     29  0.204485D-01 -0.141078D-01 -0.319959D-02  0.538153D-03  0.909617D-02
     30  0.136341D-01 -0.136392D-01  0.118582D-03  0.105682D-02 -0.199548D-02
     31  0.626720D-02 -0.687577D-02  0.948466D-03 -0.604932D-03  0.955315D-02
     32 -0.109319D-01 -0.185952D-02 -0.615997D-02 -0.145535D-02 -0.136260D-02
     33  0.500651D-03  0.905869D-02  0.349371D-02  0.192004D-02 -0.356833D-02
                6             7             8             9            10 
      6  0.739551D+00
      7  0.326069D-01  0.367510D+00
      8 -0.101585D-01  0.820821D-02  0.510956D+00
      9 -0.588876D-02 -0.497866D-02  0.559357D-03  0.122896D+00
     10 -0.537339D-02 -0.538427D-02  0.107553D-02  0.356802D-01  0.114186D+00
     11  0.750437D-03  0.838094D-03 -0.263963D-03 -0.943372D-01 -0.848706D-01
     12 -0.579718D-02 -0.619387D-02  0.114568D-02  0.350283D-01  0.346557D-01
     13  0.140356D-01  0.244772D-02 -0.521259D-03 -0.854268D-01 -0.131759D-01
     14  0.217417D-02  0.134805D-01 -0.201363D-02 -0.156335D-01 -0.860537D-01
     15 -0.504864D-02 -0.926472D-02  0.835123D-03 -0.627769D-02 -0.578370D-02
     16 -0.697458D-03 -0.150449D-01  0.392898D-02 -0.641448D-02  0.165042D-02
     17 -0.204097D-01  0.105512D-01  0.148326D-02  0.203804D-02 -0.749888D-02
     18 -0.212181D-02 -0.500354D-02  0.166970D-02  0.417658D-02  0.280107D-02
     19 -0.899495D-02  0.967059D-03 -0.101960D-03  0.283000D-02  0.406915D-02
     20  0.332882D-01  0.197001D-01 -0.738408D-02  0.305230D-02  0.286181D-02
     21  0.111920D-01  0.539487D-01  0.255761D-01  0.694757D-03 -0.956411D-03
     22 -0.276848D-02  0.618166D-02 -0.139437D-02  0.193394D-01 -0.213075D-01
     23 -0.931609D-02 -0.164573D-01  0.388861D-02  0.159413D-01 -0.206619D-01
     24  0.190912D-01  0.423515D-02 -0.233611D-02  0.179492D-01 -0.198691D-01
     25 -0.499666D-02  0.102770D-01 -0.158018D-02 -0.158991D-01 -0.365155D-03
     26 -0.115443D-01 -0.123620D-01  0.370280D-02 -0.192972D-01  0.280441D-03
     27  0.168630D-01  0.833045D-02 -0.252192D-02 -0.172893D-01  0.107327D-02
     28 -0.752843D-02  0.788335D-02 -0.140113D-02  0.134431D-02  0.194546D-01
     29 -0.140760D-01 -0.147556D-01  0.388185D-02 -0.205380D-02  0.201001D-01
     30  0.143313D-01  0.593684D-02 -0.234287D-02 -0.458510D-04  0.208930D-01
     31 -0.786149D-02  0.773769D-03  0.254144D-03  0.238721D-03 -0.298015D-02
     32  0.147712D-01  0.495880D-02 -0.159916D-02  0.517940D-02  0.660558D-02
     33 -0.394571D-02 -0.579596D-02  0.251226D-02 -0.502538D-02 -0.253040D-02
               11            12            13            14            15 
     11  0.180890D+00
     12 -0.145349D-01  0.118100D+00
     13  0.306259D-02 -0.820567D-01  0.166954D+00
     14  0.105836D-01 -0.920464D-01  0.108940D-01  0.173515D+00
     15  0.217835D-01  0.144195D-02 -0.502041D-02 -0.613924D-02  0.105656D+00
     16 -0.499100D-02 -0.584905D-02  0.214501D-01 -0.599208D-02 -0.349396D-02
     17 -0.868448D-02 -0.771658D-02 -0.683547D-02  0.290348D-01 -0.333654D-01
     18 -0.589673D-02  0.262836D-02 -0.422791D-02  0.525498D-03 -0.401319D-01
     19 -0.393744D-02  0.307845D-02 -0.538188D-03 -0.557435D-02 -0.369486D-01
     20 -0.205930D-03  0.372571D-02 -0.383988D-02 -0.566028D-02  0.467277D-02
     21  0.258083D-03  0.190077D-03 -0.336871D-02  0.323569D-02 -0.221861D-02
     22 -0.330122D-03  0.184668D-04 -0.120996D-03  0.138089D-02 -0.940819D-02
     23  0.384344D-02  0.339809D-03  0.560726D-02 -0.617632D-02  0.104162D-01
     24 -0.138782D-02 -0.489885D-03  0.586881D-02 -0.316861D-02  0.150966D-02
     25 -0.576116D-02  0.191269D-01 -0.336940D-02  0.680060D-02 -0.129426D-01
     26 -0.158759D-02  0.194483D-01  0.235886D-02 -0.756607D-03  0.688175D-02
     27 -0.681886D-02  0.186186D-01  0.262040D-02  0.225111D-02 -0.202476D-02
     28  0.353353D-02 -0.189399D-01 -0.796138D-02  0.320209D-02 -0.786711D-02
     29  0.770710D-02 -0.186186D-01 -0.223312D-02 -0.435512D-02  0.119572D-01
     30  0.247583D-02 -0.194483D-01 -0.197157D-02 -0.134741D-02  0.305074D-02
     31  0.972212D-02  0.246555D-02 -0.100928D-01  0.708214D-03  0.335118D-01
     32 -0.916831D-02  0.401679D-02  0.314637D-03 -0.706365D-02 -0.551665D-01
     33  0.172424D-02 -0.489012D-02  0.956217D-02  0.114436D-02  0.213190D-01
               16            17            18            19            20 
     16  0.100027D+00
     17  0.755867D-02  0.161666D+00
     18 -0.357487D-01  0.135525D-01  0.608514D-01
     19 -0.650269D-02 -0.485289D-01  0.504416D-02  0.707648D-01
     20 -0.465901D-01 -0.638347D-01 -0.109815D-01  0.289433D-02  0.968623D-01
     21  0.109279D-02  0.136097D-01 -0.388746D-03  0.813171D-02 -0.172189D-01
     22 -0.695781D-02 -0.779118D-03 -0.104312D-01  0.216286D-01  0.615904D-02
     23  0.134116D-01 -0.161174D-02  0.138161D-01 -0.166381D-02 -0.355904D-01
     24 -0.161622D-02 -0.674813D-02 -0.485130D-02 -0.193692D-01  0.305817D-01
     25 -0.947313D-02  0.695176D-02 -0.895596D-02  0.210783D-01  0.495995D-02
     26  0.108963D-01  0.611914D-02  0.152913D-01 -0.221416D-02 -0.367895D-01
     27 -0.413154D-02  0.982746D-03 -0.337604D-02 -0.199195D-01  0.293826D-01
     28 -0.111286D-01  0.202896D-02 -0.100213D-01  0.211559D-01  0.624103D-02
     29  0.924082D-02  0.119634D-02  0.142260D-01 -0.213649D-02 -0.355084D-01
     30 -0.578700D-02 -0.394005D-02 -0.444140D-02 -0.198419D-01  0.306637D-01
     31 -0.300755D-01 -0.440604D-02 -0.148403D-02 -0.342435D-02  0.191052D-02
     32 -0.274923D-01 -0.405432D-01  0.358336D-01  0.374267D-01  0.338753D-01
     33  0.640900D-01  0.313383D-01 -0.392128D-01 -0.239389D-01 -0.356746D-01
               21            22            23            24            25 
     21  0.164399D+00
     22  0.476763D-02  0.313439D-01
     23  0.350566D-02  0.729333D-02  0.405717D-01
     24 -0.976810D-02  0.114419D-01  0.535720D-02  0.357624D-01
     25  0.590925D-02  0.736952D-02 -0.189470D-01 -0.139646D-01  0.333955D-01
     26  0.464728D-02 -0.166811D-01  0.143314D-01 -0.200493D-01  0.707906D-02
     27 -0.862648D-02 -0.125325D-01 -0.208831D-01  0.103559D-01  0.120614D-01
     28  0.560781D-02  0.654331D-02 -0.187481D-01 -0.148087D-01  0.764543D-02
     29  0.434584D-02 -0.175073D-01  0.145303D-01 -0.208935D-01 -0.186711D-01
     30 -0.892791D-02 -0.133587D-01 -0.206842D-01  0.951174D-02 -0.136887D-01
     31  0.288044D-02  0.241073D-02  0.321879D-02 -0.635586D-02  0.211574D-02
     32 -0.653323D-02  0.408541D-02 -0.746341D-02  0.493680D-02  0.355600D-02
     33  0.254954D-02 -0.327185D-02  0.557676D-02 -0.216360D-03 -0.433481D-02
               26            27            28            29            30 
     26  0.380916D-01
     27  0.371081D-02  0.349498D-01
     28 -0.176460D-01 -0.137066D-01  0.334935D-01
     29  0.133665D-01 -0.220572D-01  0.820210D-02  0.402397D-01
     30 -0.210142D-01  0.918173D-02  0.121415D-01  0.481591D-02  0.350119D-01
     31  0.292380D-02 -0.665085D-02  0.458298D-02  0.539104D-02 -0.418361D-02
     32 -0.799282D-02  0.440739D-02  0.292644D-02 -0.862238D-02  0.377782D-02
     33  0.451380D-02 -0.127932D-02 -0.469433D-02  0.415428D-02 -0.163884D-02
               31            32            33 
     31  0.237319D-01
     32 -0.120052D-01  0.611951D-01
     33 -0.912813D-02 -0.425671D-01  0.572385D-01
 Leave Link  716 at Sun May 25 04:21:07 2025, MaxMem=  3758096384 cpu:               0.1 elap:               0.0
 (Enter /apps/easybuild-2022/easybuild/software/Compiler/NVHPC/22.11-CUDA-11.7.0/Gaussian/g16c01-CUDA-11.7.0/g16/l103.exe)

 GradGradGradGradGradGradGradGradGradGradGradGradGradGradGradGradGradGrad
 Berny optimization.
 Red2BG is reusing G-inverse.
 Internal  Forces:  Max     0.024207446 RMS     0.007635523
 Search for a local minimum.
 Step number   1 out of a maximum of   43
 All quantities printed in internal units (Hartrees-Bohrs-Radians)
 RMS Force = .76355D-02 SwitMx=.10000D-02 MixMth= 1
 Mixed Optimization -- RFO/linear search
 Second derivative matrix not updated -- analytic derivatives used.
 ITU=  0
     Eigenvalues ---    0.00212   0.00411   0.08511   0.09555   0.10492
     Eigenvalues ---    0.12678   0.13494   0.16084   0.17678   0.19529
     Eigenvalues ---    0.21501   0.23236   0.28454   0.37366   0.38932
     Eigenvalues ---    0.41784   0.42234   0.51405   0.58926   0.75113
     Eigenvalues ---    0.76500
 RFO step:  Lambda=-1.01553837D-02 EMin= 2.11587641D-03
 Linear search not attempted -- first point.
 Iteration  1 RMS(Cart)=  0.08540030 RMS(Int)=  0.00484716
 Iteration  2 RMS(Cart)=  0.00510147 RMS(Int)=  0.00138309
 Iteration  3 RMS(Cart)=  0.00001175 RMS(Int)=  0.00138302
 Iteration  4 RMS(Cart)=  0.00000000 RMS(Int)=  0.00138302
 ITry= 1 IFail=0 DXMaxC= 2.18D-01 DCOld= 1.00D+10 DXMaxT= 3.00D-01 DXLimC= 3.00D+00 Rises=F
 Variable       Old X    -DE/DX   Delta X   Delta X   Delta X     New X
                                 (Linear)    (Quad)   (Total)
    R1        2.49416   0.00130   0.00000   0.00706   0.00706   2.50123
    R2        2.49181  -0.00062   0.00000   0.00115   0.00115   2.49296
    R3        2.49694  -0.00200   0.00000  -0.00271  -0.00271   2.49423
    R4        3.49607  -0.00351   0.00000  -0.02248  -0.02248   3.47359
    R5        2.67340  -0.00583   0.00000  -0.00736  -0.00736   2.66604
    R6        2.68752   0.00812   0.00000  -0.00665  -0.00665   2.68087
    R7        2.97288   0.00386   0.00000  -0.00658  -0.00658   2.96631
    R8        1.83417  -0.00224   0.00000  -0.00534  -0.00534   1.82883
    A1        1.91620  -0.00016   0.00000  -0.00705  -0.00714   1.90905
    A2        1.90961   0.00056   0.00000   0.00066   0.00046   1.91007
    A3        1.90657   0.00170   0.00000   0.00611   0.00597   1.91254
    A4        1.91130   0.00150   0.00000   0.00342   0.00356   1.91486
    A5        1.94466  -0.00294   0.00000  -0.02353  -0.02351   1.92115
    A6        1.87486  -0.00062   0.00000   0.02125   0.02122   1.89608
    A7        1.84538   0.00664   0.00000   0.02001   0.01577   1.86115
    A8        1.86720  -0.00485   0.00000   0.01264   0.01365   1.88084
    A9        1.79971  -0.01788   0.00000  -0.07681  -0.07811   1.72160
   A10        2.15292  -0.00213   0.00000   0.01168   0.01235   2.16526
   A11        2.00070  -0.00998   0.00000  -0.09680  -0.09811   1.90259
   A12        1.76594   0.02421   0.00000   0.11391   0.11505   1.88099
   A13        1.82936   0.00523   0.00000   0.07581   0.07581   1.90517
    D1        3.07469  -0.00584   0.00000  -0.06657  -0.06641   3.00828
    D2       -0.88547  -0.00722   0.00000  -0.02992  -0.02981  -0.91528
    D3        0.96843   0.01083   0.00000   0.06958   0.06921   1.03764
    D4        0.95455  -0.00488   0.00000  -0.04655  -0.04642   0.90813
    D5       -3.00561  -0.00625   0.00000  -0.00990  -0.00982  -3.01543
    D6       -1.15171   0.01180   0.00000   0.08960   0.08920  -1.06251
    D7       -1.13880  -0.00460   0.00000  -0.05036  -0.05007  -1.18887
    D8        1.18422  -0.00597   0.00000  -0.01371  -0.01347   1.17076
    D9        3.03813   0.01208   0.00000   0.08579   0.08555   3.12367
   D10       -1.90773  -0.00097   0.00000   0.03625   0.04077  -1.86696
   D11        2.37879   0.00663   0.00000   0.10404   0.09983   2.47862
   D12        0.02251  -0.00367   0.00000   0.06363   0.06332   0.08583
         Item               Value     Threshold  Converged?
 Maximum Force            0.024207     0.000450     NO 
 RMS     Force            0.007636     0.000300     NO 
 Maximum Displacement     0.218148     0.001800     NO 
 RMS     Displacement     0.086943     0.001200     NO 
 Predicted change in Energy=-5.499158D-03
 Lowest energy point so far.  Saving SCF results.
 GradGradGradGradGradGradGradGradGradGradGradGradGradGradGradGradGradGrad

 Leave Link  103 at Sun May 25 04:21:07 2025, MaxMem=  3758096384 cpu:               0.1 elap:               0.0
 (Enter /apps/easybuild-2022/easybuild/software/Compiler/NVHPC/22.11-CUDA-11.7.0/Gaussian/g16c01-CUDA-11.7.0/g16/l202.exe)
                          Input orientation:                          
 ---------------------------------------------------------------------
 Center     Atomic      Atomic             Coordinates (Angstroms)
 Number     Number       Type             X           Y           Z
 ---------------------------------------------------------------------
      1          6           0       -0.912200   -0.199019    0.005415
      2          9           0       -1.473518    0.518736   -0.954611
      3          9           0       -1.393866    0.179659    1.173717
      4          9           0       -1.174861   -1.477476   -0.191219
      5         16           0        0.910076    0.038943   -0.032840
      6          8           0        1.425345   -0.602770    1.113056
      7          8           0        1.352794   -0.220509   -1.355438
      8          8           0        0.949778    1.592287    0.189672
      9          1           0        1.189884    2.026149   -0.641414
 ---------------------------------------------------------------------
                    Distance matrix (angstroms):
                    1          2          3          4          5
     1  C    0.000000
     2  F    1.323593   0.000000
     3  F    1.319215   2.156640   0.000000
     4  F    1.319890   2.157968   2.158034   0.000000
     5  S    1.838145   2.600265   2.604559   2.582939   0.000000
     6  O    2.618014   3.733152   2.926402   3.037649   1.410807
     7  O    2.642457   2.948760   3.755117   3.053590   1.418655
     8  O    2.590307   2.886912   2.908012   3.752681   1.569702
     9  H    3.128660   3.076377   3.657867   4.250892   2.097055
                    6          7          8          9
     6  O    0.000000
     7  O    2.498970   0.000000
     8  O    2.428390   2.415785   0.000000
     9  H    3.169356   2.363015   0.967776   0.000000
 Symmetry turned off by external request.
 Stoichiometry    CHF3O3S
 Rotational constants (GHZ):           2.6852792           1.6003864           1.5811577
 Leave Link  202 at Sun May 25 04:21:07 2025, MaxMem=  3758096384 cpu:               0.1 elap:               0.0
 (Enter /apps/easybuild-2022/easybuild/software/Compiler/NVHPC/22.11-CUDA-11.7.0/Gaussian/g16c01-CUDA-11.7.0/g16/l301.exe)
 Standard basis: def2TZVPP (5D, 7F)
 Ernie: Thresh=  0.10000D-02 Tol=  0.10000D-05 Strict=F.
   273 basis functions,   443 primitive gaussians,   315 cartesian basis functions
    37 alpha electrons       37 beta electrons
       nuclear repulsion energy       574.0392456749 Hartrees.
 IExCor= 4336 DFT=T Ex+Corr=M062X ExCW=0 ScaHFX=  0.540000
 ScaDFX=  1.000000  1.000000  1.000000  1.000000 ScalE2=  1.000000  1.000000
 IRadAn=      5 IRanWt=     -1 IRanGd=            0 ICorTp=0 IEmpDi=  4
 NAtoms=    9 NActive=    9 NUniq=    9 SFac= 1.00D+00 NAtFMM=   60 NAOKFM=F Big=F
 Integral buffers will be    131072 words long.
 Raffenetti 2 integral format.
 Two-electron integral symmetry is turned off.
 Leave Link  301 at Sun May 25 04:21:07 2025, MaxMem=  3758096384 cpu:               0.1 elap:               0.0
 (Enter /apps/easybuild-2022/easybuild/software/Compiler/NVHPC/22.11-CUDA-11.7.0/Gaussian/g16c01-CUDA-11.7.0/g16/l302.exe)
 NPDir=0 NMtPBC=     1 NCelOv=     1 NCel=       1 NClECP=     1 NCelD=      1
         NCelK=      1 NCelE2=     1 NClLst=     1 CellRange=     0.0.
 One-electron integrals computed using PRISM.
   1 Symmetry operations used in ECPInt.
 ECPInt:  NShTT=    4753 NPrTT=   15592 LenC2=    4601 LenP2D=   11597.
 LDataN:  DoStor=T MaxTD1= 6 Len=  172
 NBasis=   273 RedAO= T EigKep=  9.36D-04  NBF=   273
 NBsUse=   273 1.00D-06 EigRej= -1.00D+00 NBFU=   273
 Precomputing XC quadrature grid using
 IXCGrd= 4 IRadAn=           5 IRanWt=          -1 IRanGd=           0 AccXCQ= 0.00D+00.
 Generated NRdTot=       0 NPtTot=           0 NUsed=           0 NTot=          32
 NSgBfM=   311   311   311   311   311 MxSgAt=     9 MxSgA2=     9.
 Leave Link  302 at Sun May 25 04:21:07 2025, MaxMem=  3758096384 cpu:               0.8 elap:               0.2
 (Enter /apps/easybuild-2022/easybuild/software/Compiler/NVHPC/22.11-CUDA-11.7.0/Gaussian/g16c01-CUDA-11.7.0/g16/l303.exe)
 DipDrv:  MaxL=1.
 Leave Link  303 at Sun May 25 04:21:08 2025, MaxMem=  3758096384 cpu:               0.1 elap:               0.0
 (Enter /apps/easybuild-2022/easybuild/software/Compiler/NVHPC/22.11-CUDA-11.7.0/Gaussian/g16c01-CUDA-11.7.0/g16/l401.exe)
 Initial guess from the checkpoint file:  "1502984803620600000001_r12_insertion_R_9_8_5_IRC_R_prod.chk"
 B after Tr=     0.025004   -0.019500   -0.022778
         Rot=    0.999929    0.008107   -0.001077    0.008686 Ang=   1.37 deg.
 Guess basis will be translated and rotated to current coordinates.
 JPrj=2 DoOrth=T DoCkMO=T.
 Generating alternative initial guess.
 ExpMin= 9.52D-02 ExpMax= 6.07D+04 ExpMxC= 2.07D+03 IAcc=3 IRadAn=         5 AccDes= 0.00D+00
 Harris functional with IExCor= 1009 and IRadAn=       5 diagonalized for initial guess.
 HarFok:  IExCor= 1009 AccDes= 0.00D+00 IRadAn=         5 IDoV= 1 UseB2=F ITyADJ=14
 ICtDFT=  3500011 ScaDFX=  1.000000  1.000000  1.000000  1.000000
 FoFCou: FMM=F IPFlag=           0 FMFlag=      100000 FMFlg1=           0
         NFxFlg=           0 DoJE=T BraDBF=F KetDBF=T FulRan=T
         wScrn=  0.000000 ICntrl=       500 IOpCl=  0 I1Cent=   200000004 NGrid=           0
         NMat0=    1 NMatS0=      1 NMatT0=    0 NMatD0=    1 NMtDS0=    0 NMtDT0=    0
 Symmetry not used in FoFCou.
 Harris En= -961.690655396020    
 Leave Link  401 at Sun May 25 04:21:08 2025, MaxMem=  3758096384 cpu:               2.8 elap:               0.5
 (Enter /apps/easybuild-2022/easybuild/software/Compiler/NVHPC/22.11-CUDA-11.7.0/Gaussian/g16c01-CUDA-11.7.0/g16/l502.exe)
 Keep R1 ints in memory in canonical form, NReq=715214082.
 FoFCou: FMM=F IPFlag=           0 FMFlag=           0 FMFlg1=           0
         NFxFlg=           0 DoJE=F BraDBF=F KetDBF=F FulRan=T
         wScrn=  0.000000 ICntrl=       600 IOpCl=  0 I1Cent=           0 NGrid=           0
         NMat0=    1 NMatS0=  37401 NMatT0=    0 NMatD0=    1 NMtDS0=    0 NMtDT0=    0
 Symmetry not used in FoFCou.
 Two-electron integral symmetry not used.
 Closed shell SCF:
 Using DIIS extrapolation, IDIIS=  1040.
 NGot=  3758096384 LenX=  3058457086 LenY=  3058357420
 Requested convergence on RMS density matrix=1.00D-08 within  32 cycles.
 Requested convergence on MAX density matrix=1.00D-06.
 Requested convergence on             energy=1.00D-06.
 No special actions if energy rises.
 Integral accuracy reduced to 1.0D-05 until final iterations.

 Cycle   1  Pass 0  IDiag  1:
 E= -962.112647035577    
 DIIS: error= 4.45D-03 at cycle   1 NSaved=   1.
 NSaved= 1 IEnMin= 1 EnMin= -962.112647035577     IErMin= 1 ErrMin= 4.45D-03
 ErrMax= 4.45D-03  0.00D+00 EMaxC= 1.00D-01 BMatC= 1.12D-02 BMatP= 1.12D-02
 IDIUse=3 WtCom= 9.55D-01 WtEn= 4.45D-02
 Coeff-Com:  0.100D+01
 Coeff-En:   0.100D+01
 Coeff:      0.100D+01
 Gap=     1.063 Goal=   None    Shift=    0.000
 GapD=    1.063 DampG=2.000 DampE=1.000 DampFc=2.0000 IDamp=-1.
 RMSDP=3.65D-04 MaxDP=1.23D-02              OVMax= 2.40D-02

 Cycle   2  Pass 0  IDiag  1:
 E= -962.124744138046     Delta-E=       -0.012097102470 Rises=F Damp=F
 DIIS: error= 1.08D-03 at cycle   2 NSaved=   2.
 NSaved= 2 IEnMin= 2 EnMin= -962.124744138046     IErMin= 2 ErrMin= 1.08D-03
 ErrMax= 1.08D-03  0.00D+00 EMaxC= 1.00D-01 BMatC= 3.86D-04 BMatP= 1.12D-02
 IDIUse=3 WtCom= 9.89D-01 WtEn= 1.08D-02
 Coeff-Com: -0.906D-01 0.109D+01
 Coeff-En:   0.000D+00 0.100D+01
 Coeff:     -0.896D-01 0.109D+01
 Gap=     0.455 Goal=   None    Shift=    0.000
 RMSDP=9.44D-05 MaxDP=2.67D-03 DE=-1.21D-02 OVMax= 6.80D-03

 Cycle   3  Pass 0  IDiag  1:
 E= -962.125156484547     Delta-E=       -0.000412346501 Rises=F Damp=F
 DIIS: error= 7.63D-04 at cycle   3 NSaved=   3.
 NSaved= 3 IEnMin= 3 EnMin= -962.125156484547     IErMin= 3 ErrMin= 7.63D-04
 ErrMax= 7.63D-04  0.00D+00 EMaxC= 1.00D-01 BMatC= 3.11D-04 BMatP= 3.86D-04
 IDIUse=3 WtCom= 9.92D-01 WtEn= 7.63D-03
 Coeff-Com: -0.711D-01 0.559D+00 0.513D+00
 Coeff-En:   0.000D+00 0.000D+00 0.100D+01
 Coeff:     -0.706D-01 0.554D+00 0.516D+00
 Gap=     0.456 Goal=   None    Shift=    0.000
 RMSDP=4.05D-05 MaxDP=1.49D-03 DE=-4.12D-04 OVMax= 3.73D-03

 Cycle   4  Pass 0  IDiag  1:
 E= -962.125359441950     Delta-E=       -0.000202957403 Rises=F Damp=F
 DIIS: error= 1.82D-04 at cycle   4 NSaved=   4.
 NSaved= 4 IEnMin= 4 EnMin= -962.125359441950     IErMin= 4 ErrMin= 1.82D-04
 ErrMax= 1.82D-04  0.00D+00 EMaxC= 1.00D-01 BMatC= 2.09D-05 BMatP= 3.11D-04
 IDIUse=3 WtCom= 9.98D-01 WtEn= 1.82D-03
 Coeff-Com: -0.636D-02-0.247D-01 0.187D+00 0.844D+00
 Coeff-En:   0.000D+00 0.000D+00 0.000D+00 0.100D+01
 Coeff:     -0.635D-02-0.246D-01 0.187D+00 0.844D+00
 Gap=     0.456 Goal=   None    Shift=    0.000
 RMSDP=1.27D-05 MaxDP=5.02D-04 DE=-2.03D-04 OVMax= 1.25D-03

 Cycle   5  Pass 0  IDiag  1:
 E= -962.125375254967     Delta-E=       -0.000015813017 Rises=F Damp=F
 DIIS: error= 5.88D-05 at cycle   5 NSaved=   5.
 NSaved= 5 IEnMin= 5 EnMin= -962.125375254967     IErMin= 5 ErrMin= 5.88D-05
 ErrMax= 5.88D-05  0.00D+00 EMaxC= 1.00D-01 BMatC= 2.52D-06 BMatP= 2.09D-05
 IDIUse=1 WtCom= 1.00D+00 WtEn= 0.00D+00
 Coeff-Com:  0.781D-03-0.434D-01 0.612D-01 0.408D+00 0.573D+00
 Coeff:      0.781D-03-0.434D-01 0.612D-01 0.408D+00 0.573D+00
 Gap=     0.456 Goal=   None    Shift=    0.000
 RMSDP=3.75D-06 MaxDP=2.40D-04 DE=-1.58D-05 OVMax= 2.88D-04

 Initial convergence to 1.0D-05 achieved.  Increase integral accuracy.
 Cycle   6  Pass 1  IDiag  1:
 E= -962.125431199931     Delta-E=       -0.000055944964 Rises=F Damp=F
 DIIS: error= 2.18D-05 at cycle   1 NSaved=   1.
 NSaved= 1 IEnMin= 1 EnMin= -962.125431199931     IErMin= 1 ErrMin= 2.18D-05
 ErrMax= 2.18D-05  0.00D+00 EMaxC= 1.00D-01 BMatC= 5.60D-07 BMatP= 5.60D-07
 IDIUse=1 WtCom= 1.00D+00 WtEn= 0.00D+00
 Coeff-Com:  0.100D+01
 Coeff:      0.100D+01
 Gap=     0.456 Goal=   None    Shift=    0.000
 RMSDP=3.75D-06 MaxDP=2.40D-04 DE=-5.59D-05 OVMax= 1.65D-04

 Cycle   7  Pass 1  IDiag  1:
 E= -962.125431463031     Delta-E=       -0.000000263100 Rises=F Damp=F
 DIIS: error= 1.95D-05 at cycle   2 NSaved=   2.
 NSaved= 2 IEnMin= 2 EnMin= -962.125431463031     IErMin= 2 ErrMin= 1.95D-05
 ErrMax= 1.95D-05  0.00D+00 EMaxC= 1.00D-01 BMatC= 2.64D-07 BMatP= 5.60D-07
 IDIUse=1 WtCom= 1.00D+00 WtEn= 0.00D+00
 Coeff-Com:  0.371D+00 0.629D+00
 Coeff:      0.371D+00 0.629D+00
 Gap=     0.456 Goal=   None    Shift=    0.000
 RMSDP=1.29D-06 MaxDP=5.31D-05 DE=-2.63D-07 OVMax= 9.98D-05

 Cycle   8  Pass 1  IDiag  1:
 E= -962.125431596482     Delta-E=       -0.000000133451 Rises=F Damp=F
 DIIS: error= 8.56D-06 at cycle   3 NSaved=   3.
 NSaved= 3 IEnMin= 3 EnMin= -962.125431596482     IErMin= 3 ErrMin= 8.56D-06
 ErrMax= 8.56D-06  0.00D+00 EMaxC= 1.00D-01 BMatC= 5.98D-08 BMatP= 2.64D-07
 IDIUse=1 WtCom= 1.00D+00 WtEn= 0.00D+00
 Coeff-Com: -0.296D-01 0.313D+00 0.717D+00
 Coeff:     -0.296D-01 0.313D+00 0.717D+00
 Gap=     0.456 Goal=   None    Shift=    0.000
 RMSDP=6.24D-07 MaxDP=2.23D-05 DE=-1.33D-07 OVMax= 5.12D-05

 Cycle   9  Pass 1  IDiag  1:
 E= -962.125431635585     Delta-E=       -0.000000039103 Rises=F Damp=F
 DIIS: error= 2.13D-06 at cycle   4 NSaved=   4.
 NSaved= 4 IEnMin= 4 EnMin= -962.125431635585     IErMin= 4 ErrMin= 2.13D-06
 ErrMax= 2.13D-06  0.00D+00 EMaxC= 1.00D-01 BMatC= 2.59D-09 BMatP= 5.98D-08
 IDIUse=1 WtCom= 1.00D+00 WtEn= 0.00D+00
 Coeff-Com: -0.227D-01 0.138D+00 0.346D+00 0.539D+00
 Coeff:     -0.227D-01 0.138D+00 0.346D+00 0.539D+00
 Gap=     0.456 Goal=   None    Shift=    0.000
 RMSDP=1.20D-07 MaxDP=5.87D-06 DE=-3.91D-08 OVMax= 1.19D-05

 Cycle  10  Pass 1  IDiag  1:
 E= -962.125431637284     Delta-E=       -0.000000001700 Rises=F Damp=F
 DIIS: error= 5.44D-07 at cycle   5 NSaved=   5.
 NSaved= 5 IEnMin= 5 EnMin= -962.125431637284     IErMin= 5 ErrMin= 5.44D-07
 ErrMax= 5.44D-07  0.00D+00 EMaxC= 1.00D-01 BMatC= 2.53D-10 BMatP= 2.59D-09
 IDIUse=1 WtCom= 1.00D+00 WtEn= 0.00D+00
 Coeff-Com: -0.187D-02-0.209D-01-0.390D-01 0.198D+00 0.864D+00
 Coeff:     -0.187D-02-0.209D-01-0.390D-01 0.198D+00 0.864D+00
 Gap=     0.456 Goal=   None    Shift=    0.000
 RMSDP=6.58D-08 MaxDP=2.23D-06 DE=-1.70D-09 OVMax= 6.38D-06

 Cycle  11  Pass 1  IDiag  1:
 E= -962.125431637574     Delta-E=       -0.000000000290 Rises=F Damp=F
 DIIS: error= 2.10D-07 at cycle   6 NSaved=   6.
 NSaved= 6 IEnMin= 6 EnMin= -962.125431637574     IErMin= 6 ErrMin= 2.10D-07
 ErrMax= 2.10D-07  0.00D+00 EMaxC= 1.00D-01 BMatC= 1.58D-11 BMatP= 2.53D-10
 IDIUse=1 WtCom= 1.00D+00 WtEn= 0.00D+00
 Coeff-Com:  0.172D-02-0.186D-01-0.438D-01-0.677D-02 0.230D+00 0.837D+00
 Coeff:      0.172D-02-0.186D-01-0.438D-01-0.677D-02 0.230D+00 0.837D+00
 Gap=     0.456 Goal=   None    Shift=    0.000
 RMSDP=1.85D-08 MaxDP=7.05D-07 DE=-2.90D-10 OVMax= 1.89D-06

 Cycle  12  Pass 1  IDiag  1:
 E= -962.125431637634     Delta-E=       -0.000000000059 Rises=F Damp=F
 DIIS: error= 5.21D-08 at cycle   7 NSaved=   7.
 NSaved= 7 IEnMin= 7 EnMin= -962.125431637634     IErMin= 7 ErrMin= 5.21D-08
 ErrMax= 5.21D-08  0.00D+00 EMaxC= 1.00D-01 BMatC= 1.29D-12 BMatP= 1.58D-11
 IDIUse=1 WtCom= 1.00D+00 WtEn= 0.00D+00
 Coeff-Com:  0.658D-03-0.427D-02-0.104D-01-0.134D-01 0.121D-01 0.241D+00
 Coeff-Com:  0.774D+00
 Coeff:      0.658D-03-0.427D-02-0.104D-01-0.134D-01 0.121D-01 0.241D+00
 Coeff:      0.774D+00
 Gap=     0.456 Goal=   None    Shift=    0.000
 RMSDP=4.33D-09 MaxDP=1.64D-07 DE=-5.91D-11 OVMax= 4.28D-07

 SCF Done:  E(RM062X) =  -962.125431638     A.U. after   12 cycles
            NFock= 12  Conv=0.43D-08     -V/T= 2.0026
 KE= 9.595842703402D+02 PE=-3.430021076491D+03 EE= 9.342721288385D+02
 Leave Link  502 at Sun May 25 04:21:23 2025, MaxMem=  3758096384 cpu:              68.5 elap:              14.6
 (Enter /apps/easybuild-2022/easybuild/software/Compiler/NVHPC/22.11-CUDA-11.7.0/Gaussian/g16c01-CUDA-11.7.0/g16/l508.exe)
 QCSCF skips out because SCF is already converged.
 Leave Link  508 at Sun May 25 04:21:23 2025, MaxMem=  3758096384 cpu:               0.1 elap:               0.0
 (Enter /apps/easybuild-2022/easybuild/software/Compiler/NVHPC/22.11-CUDA-11.7.0/Gaussian/g16c01-CUDA-11.7.0/g16/l701.exe)
 ... and contract with generalized density number  0.
 Compute integral first derivatives.
   1 Symmetry operations used in ECPInt.
 ECPInt:  NShTT=    4753 NPrTT=   15592 LenC2=    4601 LenP2D=   11597.
 LDataN:  DoStor=T MaxTD1= 7 Len=  274
 Leave Link  701 at Sun May 25 04:21:23 2025, MaxMem=  3758096384 cpu:               0.8 elap:               0.2
 (Enter /apps/easybuild-2022/easybuild/software/Compiler/NVHPC/22.11-CUDA-11.7.0/Gaussian/g16c01-CUDA-11.7.0/g16/l702.exe)
 L702 exits ... SP integral derivatives will be done elsewhere.
 Leave Link  702 at Sun May 25 04:21:23 2025, MaxMem=  3758096384 cpu:               0.1 elap:               0.0
 (Enter /apps/easybuild-2022/easybuild/software/Compiler/NVHPC/22.11-CUDA-11.7.0/Gaussian/g16c01-CUDA-11.7.0/g16/l703.exe)
 Integral derivatives from FoFJK, PRISM(SPDF).
 Compute integral first derivatives, UseDBF=F ICtDFT=           0.
 Calling FoFJK, ICntrl=      2127 FMM=F ISym2X=0 I1Cent= 0 IOpClX= 0 NMat=1 NMatS=1 NMatT=0.
 FoFJK:  IHMeth= 1 ICntrl=    2127 DoSepK=F KAlg= 0 I1Cent=           0 FoldK=F
 IRaf=         0 NMat=       1 IRICut=       1 DoRegI=T DoRafI=F ISym2E= 0 IDoP0=0 IntGTp=1.
 FoFCou: FMM=F IPFlag=           0 FMFlag=      100000 FMFlg1=         800
         NFxFlg=           0 DoJE=F BraDBF=F KetDBF=F FulRan=T
         wScrn=  0.000000 ICntrl=      2127 IOpCl=  0 I1Cent=           0 NGrid=           0
         NMat0=    1 NMatS0=      1 NMatT0=    0 NMatD0=    1 NMtDS0=    0 NMtDT0=    0
 Symmetry not used in FoFCou.
 Leave Link  703 at Sun May 25 04:21:28 2025, MaxMem=  3758096384 cpu:              41.9 elap:               5.4
 (Enter /apps/easybuild-2022/easybuild/software/Compiler/NVHPC/22.11-CUDA-11.7.0/Gaussian/g16c01-CUDA-11.7.0/g16/l716.exe)
 Dipole        =-2.34298069D-01 9.52425820D-01-3.89708459D-01
 -------------------------------------------------------------------
 Center     Atomic                   Forces (Hartrees/Bohr)
 Number     Number              X              Y              Z
 -------------------------------------------------------------------
      1        6          -0.000427165   -0.000688573   -0.000738589
      2        9          -0.000134352    0.000182706   -0.000029625
      3        9           0.000019908   -0.000091880   -0.000211124
      4        9          -0.000104425    0.000051545    0.000149466
      5       16          -0.000650708    0.001766666   -0.000879297
      6        8           0.000647990   -0.000628422    0.000624804
      7        8           0.000531590   -0.003755694   -0.001594614
      8        8           0.001459002    0.002444275    0.002745139
      9        1          -0.001341839    0.000719378   -0.000066161
 -------------------------------------------------------------------
 Cartesian Forces:  Max     0.003755694 RMS     0.001243630
 Leave Link  716 at Sun May 25 04:21:28 2025, MaxMem=  3758096384 cpu:               0.1 elap:               0.0
 (Enter /apps/easybuild-2022/easybuild/software/Compiler/NVHPC/22.11-CUDA-11.7.0/Gaussian/g16c01-CUDA-11.7.0/g16/l103.exe)

 GradGradGradGradGradGradGradGradGradGradGradGradGradGradGradGradGradGrad
 Berny optimization.
 Using GEDIIS/GDIIS optimizer.
 FormGI is forming the generalized inverse of G from B-inverse, IUseBI=4.
 Internal  Forces:  Max     0.003514047 RMS     0.001249345
 Search for a local minimum.
 Step number   2 out of a maximum of   43
 All quantities printed in internal units (Hartrees-Bohrs-Radians)
 RMS Force = .12493D-02 SwitMx=.10000D-02 MixMth= 1
 Mixed Optimization -- RFO/linear search
 Update second derivatives using D2CorX and points    1    2
 DE= -5.56D-03 DEPred=-5.50D-03 R= 1.01D+00
 TightC=F SS=  1.41D+00  RLast= 2.88D-01 DXNew= 5.0454D-01 8.6467D-01
 Trust test= 1.01D+00 RLast= 2.88D-01 DXMaxT set to 5.05D-01
 ITU=  1  0
 Use linear search instead of GDIIS.
     Eigenvalues ---    0.00211   0.00409   0.09027   0.09780   0.10622
     Eigenvalues ---    0.12322   0.13268   0.16078   0.17707   0.18951
     Eigenvalues ---    0.21488   0.23163   0.27849   0.36852   0.39025
     Eigenvalues ---    0.41843   0.42210   0.51434   0.58917   0.74465
     Eigenvalues ---    0.76666
 RFO step:  Lambda=-6.09947660D-04 EMin= 2.11381262D-03
 Quartic linear search produced a step of  0.10673.
 Iteration  1 RMS(Cart)=  0.04790080 RMS(Int)=  0.00504033
 Iteration  2 RMS(Cart)=  0.00457197 RMS(Int)=  0.00013342
 Iteration  3 RMS(Cart)=  0.00003559 RMS(Int)=  0.00013110
 Iteration  4 RMS(Cart)=  0.00000000 RMS(Int)=  0.00013110
 ITry= 1 IFail=0 DXMaxC= 2.09D-01 DCOld= 1.00D+10 DXMaxT= 5.05D-01 DXLimC= 3.00D+00 Rises=F
 Variable       Old X    -DE/DX   Delta X   Delta X   Delta X     New X
                                 (Linear)    (Quad)   (Total)
    R1        2.50123   0.00018   0.00075   0.00252   0.00328   2.50451
    R2        2.49296  -0.00022   0.00012  -0.00079  -0.00067   2.49229
    R3        2.49423  -0.00005  -0.00029  -0.00111  -0.00140   2.49283
    R4        3.47359   0.00069  -0.00240   0.00642   0.00402   3.47761
    R5        2.66604   0.00103  -0.00079   0.00127   0.00048   2.66652
    R6        2.68087   0.00234  -0.00071   0.00122   0.00051   2.68138
    R7        2.96631   0.00351  -0.00070   0.00539   0.00468   2.97099
    R8        1.82883   0.00005  -0.00057   0.00019  -0.00038   1.82845
    A1        1.90905  -0.00011  -0.00076  -0.00121  -0.00198   1.90707
    A2        1.91007  -0.00002   0.00005   0.00051   0.00054   1.91062
    A3        1.91254   0.00006   0.00064  -0.00459  -0.00396   1.90857
    A4        1.91486  -0.00017   0.00038  -0.00072  -0.00033   1.91453
    A5        1.92115   0.00003  -0.00251   0.00607   0.00356   1.92472
    A6        1.89608   0.00021   0.00227  -0.00009   0.00217   1.89825
    A7        1.86115   0.00075   0.00168   0.00610   0.00739   1.86853
    A8        1.88084  -0.00172   0.00146  -0.02175  -0.02026   1.86058
    A9        1.72160  -0.00027  -0.00834   0.02509   0.01664   1.73824
   A10        2.16526  -0.00095   0.00132  -0.00062   0.00077   2.16603
   A11        1.90259  -0.00093  -0.01047  -0.01074  -0.02137   1.88122
   A12        1.88099   0.00316   0.01228   0.00799   0.02054   1.90153
   A13        1.90517   0.00126   0.00809   0.00554   0.01363   1.91880
    D1        3.00828   0.00027  -0.00709  -0.02116  -0.02822   2.98006
    D2       -0.91528  -0.00167  -0.00318  -0.03359  -0.03670  -0.95198
    D3        1.03764   0.00117   0.00739  -0.02105  -0.01377   1.02387
    D4        0.90813   0.00035  -0.00495  -0.02056  -0.02549   0.88264
    D5       -3.01543  -0.00158  -0.00105  -0.03300  -0.03397  -3.04940
    D6       -1.06251   0.00125   0.00952  -0.02045  -0.01104  -1.07355
    D7       -1.18887   0.00041  -0.00534  -0.02329  -0.02860  -1.21746
    D8        1.17076  -0.00153  -0.00144  -0.03572  -0.03708   1.13368
    D9        3.12367   0.00131   0.00913  -0.02318  -0.01414   3.10953
   D10       -1.86696   0.00128   0.00435   0.19448   0.19913  -1.66784
   D11        2.47862   0.00084   0.01066   0.18023   0.19050   2.66912
   D12        0.08583   0.00022   0.00676   0.18331   0.19015   0.27599
         Item               Value     Threshold  Converged?
 Maximum Force            0.003514     0.000450     NO 
 RMS     Force            0.001249     0.000300     NO 
 Maximum Displacement     0.208737     0.001800     NO 
 RMS     Displacement     0.047849     0.001200     NO 
 Predicted change in Energy=-3.911501D-04
 Lowest energy point so far.  Saving SCF results.
 GradGradGradGradGradGradGradGradGradGradGradGradGradGradGradGradGradGrad

 Leave Link  103 at Sun May 25 04:21:28 2025, MaxMem=  3758096384 cpu:               0.1 elap:               0.0
 (Enter /apps/easybuild-2022/easybuild/software/Compiler/NVHPC/22.11-CUDA-11.7.0/Gaussian/g16c01-CUDA-11.7.0/g16/l202.exe)
                          Input orientation:                          
 ---------------------------------------------------------------------
 Center     Atomic      Atomic             Coordinates (Angstroms)
 Number     Number       Type             X           Y           Z
 ---------------------------------------------------------------------
      1          6           0       -0.902072   -0.191328    0.000883
      2          9           0       -1.448002    0.549230   -0.953070
      3          9           0       -1.390117    0.175827    1.169816
      4          9           0       -1.178681   -1.462635   -0.216870
      5         16           0        0.924663    0.029904   -0.025521
      6          8           0        1.434593   -0.599414    1.129911
      7          8           0        1.349937   -0.266637   -1.346336
      8          8           0        1.003688    1.583890    0.199499
      9          1           0        1.079425    2.037163   -0.651974
 ---------------------------------------------------------------------
                    Distance matrix (angstroms):
                    1          2          3          4          5
     1  C    0.000000
     2  F    1.325328   0.000000
     3  F    1.318861   2.156253   0.000000
     4  F    1.319148   2.159196   2.156887   0.000000
     5  S    1.840272   2.599921   2.609278   2.586183   0.000000
     6  O    2.627021   3.737319   2.929433   3.064012   1.411061
     7  O    2.625302   2.940878   3.746290   3.016623   1.418925
     8  O    2.612042   2.899952   2.941846   3.770599   1.572181
     9  H    3.052658   2.948303   3.589168   4.187714   2.108432
                    6          7          8          9
     6  O    0.000000
     7  O    2.499942   0.000000
     8  O    2.412087   2.435969   0.000000
     9  H    3.201999   2.421324   0.967574   0.000000
 Symmetry turned off by external request.
 Stoichiometry    CHF3O3S
 Rotational constants (GHZ):           2.6801369           1.5942469           1.5819816
 Leave Link  202 at Sun May 25 04:21:28 2025, MaxMem=  3758096384 cpu:               0.1 elap:               0.0
 (Enter /apps/easybuild-2022/easybuild/software/Compiler/NVHPC/22.11-CUDA-11.7.0/Gaussian/g16c01-CUDA-11.7.0/g16/l301.exe)
 Standard basis: def2TZVPP (5D, 7F)
 Ernie: Thresh=  0.10000D-02 Tol=  0.10000D-05 Strict=F.
   273 basis functions,   443 primitive gaussians,   315 cartesian basis functions
    37 alpha electrons       37 beta electrons
       nuclear repulsion energy       573.6259432937 Hartrees.
 IExCor= 4336 DFT=T Ex+Corr=M062X ExCW=0 ScaHFX=  0.540000
 ScaDFX=  1.000000  1.000000  1.000000  1.000000 ScalE2=  1.000000  1.000000
 IRadAn=      5 IRanWt=     -1 IRanGd=            0 ICorTp=0 IEmpDi=  4
 NAtoms=    9 NActive=    9 NUniq=    9 SFac= 1.00D+00 NAtFMM=   60 NAOKFM=F Big=F
 Integral buffers will be    131072 words long.
 Raffenetti 2 integral format.
 Two-electron integral symmetry is turned off.
 Leave Link  301 at Sun May 25 04:21:29 2025, MaxMem=  3758096384 cpu:               0.1 elap:               0.0
 (Enter /apps/easybuild-2022/easybuild/software/Compiler/NVHPC/22.11-CUDA-11.7.0/Gaussian/g16c01-CUDA-11.7.0/g16/l302.exe)
 NPDir=0 NMtPBC=     1 NCelOv=     1 NCel=       1 NClECP=     1 NCelD=      1
         NCelK=      1 NCelE2=     1 NClLst=     1 CellRange=     0.0.
 One-electron integrals computed using PRISM.
   1 Symmetry operations used in ECPInt.
 ECPInt:  NShTT=    4753 NPrTT=   15592 LenC2=    4602 LenP2D=   11599.
 LDataN:  DoStor=T MaxTD1= 6 Len=  172
 NBasis=   273 RedAO= T EigKep=  9.60D-04  NBF=   273
 NBsUse=   273 1.00D-06 EigRej= -1.00D+00 NBFU=   273
 Precomputing XC quadrature grid using
 IXCGrd= 4 IRadAn=           5 IRanWt=          -1 IRanGd=           0 AccXCQ= 0.00D+00.
 Generated NRdTot=       0 NPtTot=           0 NUsed=           0 NTot=          32
 NSgBfM=   311   311   311   311   311 MxSgAt=     9 MxSgA2=     9.
 Leave Link  302 at Sun May 25 04:21:29 2025, MaxMem=  3758096384 cpu:               0.8 elap:               0.2
 (Enter /apps/easybuild-2022/easybuild/software/Compiler/NVHPC/22.11-CUDA-11.7.0/Gaussian/g16c01-CUDA-11.7.0/g16/l303.exe)
 DipDrv:  MaxL=1.
[...]
     27 -0.113825D-02  0.442251D-02  0.527556D-03 -0.233050D-01  0.223092D-01
     28 -0.120432D-01  0.356530D-02 -0.105823D-01  0.244221D-01  0.313328D-02
     29  0.748022D-02 -0.557156D-02  0.105483D-01 -0.215922D-02 -0.249173D-01
     30 -0.319035D-02 -0.341190D-03 -0.279926D-03 -0.230040D-01  0.234781D-01
     31 -0.336892D-01 -0.421969D-02 -0.728459D-03 -0.629189D-03  0.374841D-02
     32 -0.211034D-01 -0.421748D-01  0.391210D-01  0.349301D-01  0.269740D-01
     33  0.593122D-01  0.385511D-01 -0.396858D-01 -0.259432D-01 -0.330849D-01
               21            22            23            24            25 
     21  0.148876D+00
     22  0.464351D-02  0.340583D-01
     23  0.399349D-02  0.773566D-02  0.364457D-01
     24 -0.923919D-02  0.923657D-02  0.978034D-02  0.346109D-01
     25  0.529311D-02  0.944983D-02 -0.189457D-01 -0.165668D-01  0.358780D-01
     26  0.464309D-02 -0.168728D-01  0.976439D-02 -0.160230D-01  0.748246D-02
     27 -0.858959D-02 -0.153719D-01 -0.169010D-01  0.880750D-02  0.986137D-02
     28  0.503729D-02  0.875630D-02 -0.183726D-01 -0.172556D-01  0.990112D-02
     29  0.438727D-02 -0.175663D-01  0.103375D-01 -0.167119D-01 -0.184944D-01
     30 -0.884541D-02 -0.160654D-01 -0.163279D-01  0.811864D-02 -0.161155D-01
     31  0.157594D-02  0.271239D-02  0.258619D-02 -0.541736D-02  0.189057D-02
     32 -0.191415D-02  0.455474D-02 -0.464612D-02  0.137943D-02  0.421268D-02
     33 -0.111177D-02 -0.438505D-02  0.424782D-02  0.191791D-02 -0.486380D-02
               26            27            28            29            30 
     26  0.341196D-01
     27  0.833224D-02  0.340407D-01
     28 -0.172278D-01 -0.161108D-01  0.350562D-01
     29  0.940942D-02 -0.176399D-01  0.792737D-02  0.358312D-01
     30 -0.163780D-01  0.806857D-02  0.904432D-02  0.878182D-02  0.332284D-01
     31  0.176436D-02 -0.623919D-02  0.496117D-02  0.483496D-02 -0.316859D-02
     32 -0.498817D-02  0.103738D-02  0.343504D-02 -0.576582D-02  0.259732D-03
     33  0.376908D-02  0.143916D-02 -0.579258D-02  0.284030D-02  0.510381D-03
               31            32            33 
     31  0.257069D-01
     32 -0.105578D-01  0.617197D-01
     33 -0.121983D-01 -0.440015D-01  0.599492D-01
 Leave Link  716 at Sun May 25 04:24:46 2025, MaxMem=  3758096384 cpu:               0.1 elap:               0.0
 (Enter /apps/easybuild-2022/easybuild/software/Compiler/NVHPC/22.11-CUDA-11.7.0/Gaussian/g16c01-CUDA-11.7.0/g16/l103.exe)

 GradGradGradGradGradGradGradGradGradGradGradGradGradGradGradGradGradGrad
 Berny optimization.
 Red2BG is reusing G-inverse.
 Internal  Forces:  Max     0.000003765 RMS     0.000001705
 Search for a local minimum.
 Step number   1 out of a maximum of    2
 All quantities printed in internal units (Hartrees-Bohrs-Radians)
 Second derivative matrix not updated -- analytic derivatives used.
 ITU=  0
     Eigenvalues ---    0.00241   0.00438   0.09415   0.09952   0.11030
     Eigenvalues ---    0.11310   0.13721   0.16876   0.17802   0.19207
     Eigenvalues ---    0.22361   0.23181   0.27608   0.36808   0.39439
     Eigenvalues ---    0.41218   0.42517   0.52421   0.58685   0.75283
     Eigenvalues ---    0.78484
 Angle between quadratic step and forces=  64.37 degrees.
 Linear search not attempted -- first point.
 Iteration  1 RMS(Cart)=  0.00003060 RMS(Int)=  0.00000000
 Iteration  2 RMS(Cart)=  0.00000000 RMS(Int)=  0.00000000
 ITry= 1 IFail=0 DXMaxC= 1.05D-04 DCOld= 1.00D+10 DXMaxT= 3.00D-01 DXLimC= 3.00D+00 Rises=F
 Variable       Old X    -DE/DX   Delta X   Delta X   Delta X     New X
                                 (Linear)    (Quad)   (Total)
    R1        2.50622   0.00000   0.00000   0.00000   0.00000   2.50622
    R2        2.49197   0.00000   0.00000   0.00000   0.00000   2.49197
    R3        2.49226   0.00000   0.00000   0.00000   0.00000   2.49226
    R4        3.47724  -0.00000   0.00000  -0.00001  -0.00001   3.47723
    R5        2.66695   0.00000   0.00000  -0.00000  -0.00000   2.66694
    R6        2.68129  -0.00000   0.00000  -0.00000  -0.00000   2.68129
    R7        2.97171  -0.00000   0.00000  -0.00001  -0.00001   2.97170
    R8        1.82942  -0.00000   0.00000  -0.00000  -0.00000   1.82942
    A1        1.90649   0.00000   0.00000   0.00000   0.00000   1.90649
    A2        1.91023  -0.00000   0.00000  -0.00001  -0.00001   1.91022
    A3        1.90643  -0.00000   0.00000  -0.00001  -0.00001   1.90643
    A4        1.91505  -0.00000   0.00000   0.00000   0.00000   1.91505
    A5        1.92517  -0.00000   0.00000  -0.00000  -0.00000   1.92517
    A6        1.90038   0.00000   0.00000   0.00001   0.00001   1.90039
    A7        1.87055  -0.00000   0.00000  -0.00000  -0.00000   1.87055
    A8        1.86318   0.00000   0.00000   0.00000   0.00000   1.86318
    A9        1.73251  -0.00000   0.00000  -0.00001  -0.00001   1.73250
   A10        2.16136   0.00000   0.00000   0.00003   0.00003   2.16138
   A11        1.88053  -0.00000   0.00000  -0.00001  -0.00001   1.88052
   A12        1.90750  -0.00000   0.00000  -0.00002  -0.00002   1.90748
   A13        1.92155  -0.00000   0.00000  -0.00001  -0.00001   1.92154
    D1        2.96441  -0.00000   0.00000  -0.00004  -0.00004   2.96437
    D2       -0.97023   0.00000   0.00000  -0.00000  -0.00000  -0.97023
    D3        1.01066  -0.00000   0.00000  -0.00003  -0.00003   1.01062
    D4        0.86877  -0.00000   0.00000  -0.00004  -0.00004   0.86874
    D5       -3.06587   0.00000   0.00000   0.00000   0.00000  -3.06587
    D6       -1.08498  -0.00000   0.00000  -0.00003  -0.00003  -1.08501
    D7       -1.23359  -0.00000   0.00000  -0.00004  -0.00004  -1.23363
    D8        1.11496   0.00000   0.00000  -0.00001  -0.00001   1.11495
    D9        3.09584  -0.00000   0.00000  -0.00003  -0.00003   3.09581
   D10       -1.61193   0.00000   0.00000   0.00007   0.00007  -1.61187
   D11        2.72537   0.00000   0.00000   0.00007   0.00007   2.72545
   D12        0.33413  -0.00000   0.00000   0.00006   0.00006   0.33419
         Item               Value     Threshold  Converged?
 Maximum Force            0.000004     0.000450     YES
 RMS     Force            0.000002     0.000300     YES
 Maximum Displacement     0.000105     0.001800     YES
 RMS     Displacement     0.000031     0.001200     YES
 Predicted change in Energy=-3.179532D-10
 Optimization completed.
    -- Stationary point found.
                           ----------------------------
                           !   Optimized Parameters   !
                           ! (Angstroms and Degrees)  !
 --------------------------                            --------------------------
 ! Name  Definition              Value          Derivative Info.                !
 --------------------------------------------------------------------------------
 ! R1    R(1,2)                  1.3262         -DE/DX =    0.0                 !
 ! R2    R(1,3)                  1.3187         -DE/DX =    0.0                 !
 ! R3    R(1,4)                  1.3188         -DE/DX =    0.0                 !
 ! R4    R(1,5)                  1.8401         -DE/DX =    0.0                 !
 ! R5    R(5,6)                  1.4113         -DE/DX =    0.0                 !
 ! R6    R(5,7)                  1.4189         -DE/DX =    0.0                 !
 ! R7    R(5,8)                  1.5726         -DE/DX =    0.0                 !
 ! R8    R(8,9)                  0.9681         -DE/DX =    0.0                 !
 ! A1    A(2,1,3)              109.2339         -DE/DX =    0.0                 !
 ! A2    A(2,1,4)              109.4479         -DE/DX =    0.0                 !
 ! A3    A(2,1,5)              109.2305         -DE/DX =    0.0                 !
 ! A4    A(3,1,4)              109.7241         -DE/DX =    0.0                 !
 ! A5    A(3,1,5)              110.3044         -DE/DX =    0.0                 !
 ! A6    A(4,1,5)              108.8835         -DE/DX =    0.0                 !
 ! A7    A(1,5,6)              107.1749         -DE/DX =    0.0                 !
 ! A8    A(1,5,7)              106.7521         -DE/DX =    0.0                 !
 ! A9    A(1,5,8)               99.2654         -DE/DX =    0.0                 !
 ! A10   A(6,5,7)              123.8365         -DE/DX =    0.0                 !
 ! A11   A(6,5,8)              107.7463         -DE/DX =    0.0                 !
 ! A12   A(7,5,8)              109.2919         -DE/DX =    0.0                 !
 ! A13   A(5,8,9)              110.0966         -DE/DX =    0.0                 !
 ! D1    D(2,1,5,6)            169.8483         -DE/DX =    0.0                 !
 ! D2    D(2,1,5,7)            -55.59           -DE/DX =    0.0                 !
 ! D3    D(2,1,5,8)             57.9063         -DE/DX =    0.0                 !
 ! D4    D(3,1,5,6)             49.777          -DE/DX =    0.0                 !
 ! D5    D(3,1,5,7)           -175.6613         -DE/DX =    0.0                 !
 ! D6    D(3,1,5,8)            -62.165          -DE/DX =    0.0                 !
 ! D7    D(4,1,5,6)            -70.6793         -DE/DX =    0.0                 !
 ! D8    D(4,1,5,7)             63.8824         -DE/DX =    0.0                 !
 ! D9    D(4,1,5,8)            177.3787         -DE/DX =    0.0                 !
 ! D10   D(1,5,8,9)            -92.3568         -DE/DX =    0.0                 !
 ! D11   D(6,5,8,9)            156.1525         -DE/DX =    0.0                 !
 ! D12   D(7,5,8,9)             19.1443         -DE/DX =    0.0                 !
 --------------------------------------------------------------------------------
 GradGradGradGradGradGradGradGradGradGradGradGradGradGradGradGradGradGrad

 Leave Link  103 at Sun May 25 04:24:46 2025, MaxMem=  3758096384 cpu:               0.1 elap:               0.0
 (Enter /apps/easybuild-2022/easybuild/software/Compiler/NVHPC/22.11-CUDA-11.7.0/Gaussian/g16c01-CUDA-11.7.0/g16/l9999.exe)

 ----------------------------------------------------------------------

 Electric dipole moment (input orientation):
 (Debye = 10**-18 statcoulomb cm , SI units = C m)
                  (au)            (Debye)         (10**-30 SI)
   Tot        0.112109D+01      0.284952D+01      0.950499D+01
   x         -0.350215D+00     -0.890157D+00     -0.296924D+01
   y          0.979331D+00      0.248921D+01      0.830312D+01
   z         -0.418450D+00     -0.106359D+01     -0.354777D+01

 Dipole polarizability, Alpha (input orientation).
 (esu units = cm**3 , SI units = C**2 m**2 J**-1)
 Alpha(0;0):
               (au)            (10**-24 esu)      (10**-40 SI)
   iso        0.412133D+02      0.610718D+01      0.679516D+01
   aniso      0.281928D+01      0.417774D+00      0.464836D+00
   xx         0.412887D+02      0.611836D+01      0.680759D+01
   yx         0.373513D+00      0.553489D-01      0.615839D-01
   yy         0.403954D+02      0.598598D+01      0.666030D+01
   zx        -0.106520D+00     -0.157846D-01     -0.175627D-01
   zy        -0.137317D+01     -0.203483D+00     -0.226406D+00
   zz         0.419558D+02      0.621721D+01      0.691758D+01

 ----------------------------------------------------------------------

 Dipole orientation:
     6         -1.64498747          0.49292370          0.22068004
     9         -1.74924486          1.62757938          2.45290314
     9         -3.05588119         -1.56039646          0.27681969
     9         -2.48702244          2.04420461         -1.53882296
    16          1.65714533         -0.33115322         -0.49208684
     8          1.62838937         -1.91131861         -2.64030676
     8          3.07312818          1.93983413         -0.32798604
     8          2.24781215         -2.02957609          1.87381886
     1          2.97036905         -1.01337294          3.21248339

 Electric dipole moment (dipole orientation):
 (Debye = 10**-18 statcoulomb cm , SI units = C m)
                  (au)            (Debye)         (10**-30 SI)
   Tot        0.112109D+01      0.284952D+01      0.950499D+01
   x          0.000000D+00      0.000000D+00      0.000000D+00
   y          0.000000D+00      0.000000D+00      0.000000D+00
   z          0.112109D+01      0.284952D+01      0.950499D+01

 Dipole polarizability, Alpha (dipole orientation).
 (esu units = cm**3 , SI units = C**2 m**2 J**-1)
 Alpha(0;0):
               (au)            (10**-24 esu)      (10**-40 SI)
   iso        0.412133D+02      0.610718D+01      0.679516D+01
   aniso      0.281928D+01      0.417774D+00      0.464836D+00
   xx         0.416887D+02      0.617763D+01      0.687354D+01
   yx         0.219598D+00      0.325410D-01      0.362068D-01
   yy         0.405844D+02      0.601399D+01      0.669147D+01
   zx         0.705733D+00      0.104579D+00      0.116360D+00
   zy         0.133440D+01      0.197738D+00      0.220013D+00
   zz         0.413667D+02      0.612992D+01      0.682045D+01

 ----------------------------------------------------------------------
 Unable to Open any file for archive entry.
 1\1\GINC-SPARTAN-BM154\Freq\RM062X\def2TZVPP\C1H1F3O3S1\AKHALILOV\25-M
 ay-2025\0\\#P Geom=AllCheck Guess=TCheck SCRF=Check GenChk RM062X/def2
 TZVPP Freq\\Gaussian input prepared by ASE\\0,1\C,-0.8969452735,-0.186
 8648227,0.0004812821\F,-1.4365169198,0.5672674807,-0.9476976633\F,-1.3
 838635684,0.1735025262,1.1718027815\F,-1.183132346,-1.4535055091,-0.22
 98932308\S,0.9307764796,0.0246458058,-0.0236643347\O,1.4379239699,-0.5
 998929926,1.1358541475\O,1.3608997966,-0.2845552946,-1.339948224\O,1.0
 086271017,1.5797683601,0.1965070495\H,1.0356637597,2.0356354463,-0.657
 1018078\\Version=ES64L-G16RevC.01\HF=-962.1258935\RMSD=1.887e-09\RMSF=
 2.837e-06\ZeroPoint=0.0405141\Thermal=0.0479882\ETot=-962.0779053\HTot
 =-962.0769611\GTot=-962.1179742\Dipole=-0.3502148,0.9793313,-0.4184503
 \DipoleDeriv=1.5591702,0.0469779,-0.0217292,0.0468931,1.5193785,0.0060
 192,-0.007993,0.0112958,1.4913935,-0.6065796,0.1645385,-0.2534951,0.15
 94544,-0.4521699,0.2498708,-0.2405981,0.2423879,-0.5707333,-0.5681207,
 0.053926,0.3092981,0.0581876,-0.2905663,-0.1426824,0.2826628,-0.134344
 ,-0.7389225,-0.4621441,-0.2666119,-0.0335154,-0.2214805,-0.8545237,-0.
 1001167,-0.0337595,-0.108578,-0.2610681,1.7433682,-0.0843977,-0.010335
 2,-0.0193184,2.2806359,-0.0800783,-0.0016775,-0.0074832,2.1561258,-0.7
 390523,0.0954835,-0.1743974,0.1183706,-0.6123927,0.1701894,-0.2622084,
 0.2294317,-0.8934111,-0.7160066,0.0504065,0.1891646,0.0373094,-0.60245
 89,-0.0528012,0.2826911,-0.1634902,-1.0378959,-0.5482041,-0.0789832,0.
 0106129,-0.2037521,-1.4012646,-0.0057443,0.0089165,0.0438564,-0.425375
 7,0.337569,0.0186604,-0.0156035,0.0243359,0.4133617,-0.0446565,-0.0280
 339,-0.1130764,0.2798872\Polar=41.288716,0.3735128,40.3953953,-0.10651
 98,-1.3731745,41.9557976\PG=Unknown\NImag=0\\0.54210768,-0.00070283,0.
 58092154,-0.00702111,0.00631227,0.58068990,-0.14423708,0.06575852,-0.0
 8549542,0.12900369,0.06199421,-0.13996480,0.08603742,-0.08529785,0.196
 64733,-0.08264940,0.08779474,-0.18627823,0.10595010,-0.14609609,0.2677
 1490,-0.13748561,0.02953928,0.10370698,0.01975906,-0.00308419,-0.01242
 594,0.11810521,0.02737026,-0.08960862,-0.05360289,-0.00626092,0.013710
 65,0.02331548,-0.03961247,0.10988993,0.10141743,-0.05574575,-0.2631109
 7,0.00571470,0.01347155,-0.08046767,-0.12348636,0.09142683,0.38325525,
 -0.11042727,-0.08265251,-0.01396527,0.01742488,0.02084107,-0.00058221,
 0.01762837,0.01712573,0.00620865,0.08468286,-0.07759012,-0.30138934,-0
 .04081048,0.00520911,-0.07047233,0.02575413,0.00475138,-0.03902246,-0.
 04369649,0.07843578,0.43290979,-0.01371440,-0.04063545,-0.08110681,0.0
 0340471,0.03868233,0.00711281,-0.00238085,-0.05783646,-0.02460313,0.01
 392116,0.06398581,0.09292038,-0.19855708,-0.01649280,0.00195179,-0.003
 32228,-0.00021651,-0.00005959,-0.00025294,0.00009002,-0.00111894,0.007
 15021,0.00609582,0.00141359,0.62580683,-0.02815379,-0.02300507,0.00029
 205,0.02816258,-0.01100219,0.01697044,0.01485719,-0.00069431,-0.010539
 73,-0.03153069,-0.03004022,-0.00507117,-0.10685369,0.69887911,0.001764
 34,0.00092727,-0.02297396,-0.03184154,0.01235812,-0.01778354,0.0367255
 0,-0.00507347,-0.02678419,-0.00581452,-0.00639408,0.00066336,0.0187395
 4,-0.10940858,1.30699649,0.01817199,0.01687038,-0.02196592,-0.01416762
 ,0.00407383,-0.00668980,-0.00277381,-0.00040059,0.00233226,-0.00397239
 ,-0.00571785,0.00063052,-0.19258206,0.10557095,-0.19985928,0.15723511,
 -0.00643082,-0.00199686,0.00627035,0.00138053,0.00109937,-0.00048045,-
 0.00028484,0.00084150,-0.00037283,0.00418964,0.00649204,-0.00012856,0.
 10197855,-0.20408977,0.22943011,-0.11899460,0.21012364,0.01699273,0.01
 058020,-0.01272975,-0.00542693,0.00015288,0.00019169,-0.00565493,0.000
 27711,0.00909005,-0.00275750,-0.00422545,0.00135728,-0.19603418,0.2301
 4772,-0.53057871,0.21218917,-0.25975375,0.54526791,0.01775605,0.010206
 56,0.02374916,-0.00285316,0.00051581,-0.00198713,-0.01318834,0.0009542
 5,0.00797673,-0.00315847,-0.00400030,-0.00190953,-0.16386027,0.0418653
 0,0.18262221,0.02368014,0.00199924,-0.01741320,0.12691374,-0.00147656,
 0.00056615,-0.00186330,-0.00211460,0.00217467,-0.00202789,-0.00045993,
 0.00090893,0.00084445,0.00289254,0.00519873,0.00171605,0.03958644,-0.1
 2023507,-0.11908760,-0.00109049,0.01601016,0.02084710,-0.05163367,0.10
 486947,-0.01973354,-0.00796705,-0.01716156,0.00614923,-0.00283943,0.00
 813861,0.00650632,0.00016823,-0.00040538,0.00373755,0.00569267,0.00341
 579,0.17691642,-0.11512544,-0.61700402,0.01537229,-0.01160193,-0.01676
 712,-0.19483830,0.14348995,0.64794031,0.01053055,-0.01717448,-0.003489
 01,-0.00058663,-0.00133454,0.00025467,-0.00143136,0.00049562,0.0014855
 7,-0.00834176,-0.00746262,-0.00110233,-0.07433703,-0.02195428,0.000243
 14,0.01286785,0.01233902,-0.00136355,0.01733164,0.01478396,0.00398278,
 0.04790797,0.02725390,-0.02407603,-0.00201244,-0.00686999,0.00742226,-
 0.00481656,-0.00699216,0.00384455,0.00526859,-0.00976050,-0.00405240,-
 0.00078147,-0.02185706,-0.27653550,-0.04160129,-0.00055963,-0.02383804
 ,0.00325594,0.00012994,-0.01713306,-0.01019934,0.02738638,0.46413007,0
 .00024791,0.00071135,0.00185783,0.00271708,-0.00241285,0.00263322,-0.0
 0263761,0.00126409,0.00313629,0.00085406,0.00068643,0.00055074,0.00095
 059,-0.01086642,-0.10112408,-0.00348804,0.04162567,0.00087666,0.000706
 14,-0.04044049,-0.00281258,-0.01350728,-0.16141299,0.50590049,0.002140
 77,-0.00535212,0.00252879,-0.00102086,0.00250817,-0.00181069,-0.000360
 56,0.00023810,-0.00053004,-0.00098642,0.00027879,-0.00026289,-0.000045
 39,-0.00196354,-0.00257939,0.00154079,0.00382329,-0.00053163,-0.002621
 33,-0.00048769,0.00190724,-0.00394124,-0.00873087,0.01415716,0.0052942
 2,-0.00226425,-0.00144696,-0.00062299,0.00003262,0.00038504,-0.0004138
 0,0.00128574,0.00012983,-0.00065662,0.00045895,0.00037618,0.00006893,-
 0.00233076,-0.03327697,0.03884951,0.00024800,-0.00464204,-0.00128174,-
 0.00003713,0.00764001,-0.00161766,-0.00707905,-0.12976184,0.17084522,0
 .00968588,0.16059678,0.00269604,-0.00197759,0.00081354,-0.00117192,0.0
 0064608,-0.00126180,-0.00035313,0.00006107,-0.00011025,-0.00160193,-0.
 00099254,-0.00031042,-0.00275923,0.00360113,0.00858866,0.00147880,-0.0
 0498860,0.00329200,0.00109391,-0.00347827,-0.00534404,0.01349601,0.212
 29956,-0.41101858,-0.01287855,-0.20517085,0.40535089\\-0.00000252,-0.0
 0000239,-0.00000073,-0.00000111,-0.00000024,0.00000291,0.00000111,-0.0
 0000448,0.00000081,0.00000286,-0.00000087,-0.00000133,-0.00000168,0.00
 000633,0.00000093,0.00000385,-0.00000309,-0.00000509,0.00000128,-0.000
 00163,-0.00000383,-0.00000155,0.00000302,0.00000410,-0.00000224,0.0000
 0335,0.00000223\\\@
 The archive entry for this job was punched.


 THE WISE MAN HAS THE POWER TO REASON AWAY
 WHAT A FOOL BELIEVES.
                     - DOOBIE BROTHERS
 Job cpu time:       0 days  0 hours 15 minutes 20.1 seconds.
 Elapsed time:       0 days  0 hours  1 minutes 59.1 seconds.
 File lengths (MBytes):  RWF=     75 Int=      0 D2E=      0 Chk=      6 Scr=      1
 Normal termination of Gaussian 16 at Sun May 25 04:24:46 2025.
done
