 Entering Gaussian System, Link 0=g16
 Initial command:
 /apps/easybuild-2022/easybuild/software/Compiler/NVHPC/22.11-CUDA-11.7.0/Gaussian/g16c01-CUDA-11.7.0/g16/l1.exe "/tmp/Gau-274553.inp" -scrdir="/tmp/"
 Entering Link 1 = /apps/easybuild-2022/easybuild/software/Compiler/NVHPC/22.11-CUDA-11.7.0/Gaussian/g16c01-CUDA-11.7.0/g16/l1.exe PID=    274554.
  
 Copyright (c) 1988-2019, Gaussian, Inc.  All Rights Reserved.
  
 This is part of the Gaussian(R) 16 program.  It is based on
 the Gaussian(R) 09 system (copyright 2009, Gaussian, Inc.),
 the Gaussian(R) 03 system (copyright 2003, Gaussian, Inc.),
 the Gaussian(R) 98 system (copyright 1998, Gaussian, Inc.),
 the Gaussian(R) 94 system (copyright 1995, Gaussian, Inc.),
 the Gaussian 92(TM) system (copyright 1992, Gaussian, Inc.),
 the Gaussian 90(TM) system (copyright 1990, Gaussian, Inc.),
 the Gaussian 88(TM) system (copyright 1988, Gaussian, Inc.),
 the Gaussian 86(TM) system (copyright 1986, Carnegie Mellon
 University), and the Gaussian 82(TM) system (copyright 1983,
 Carnegie Mellon University). Gaussian is a federally registered
 trademark of Gaussian, Inc.
  
 This software contains proprietary and confidential information,
 including trade secrets, belonging to Gaussian, Inc.
  
 This software is provided under written license and may be
 used, copied, transmitted, or stored only in accord with that
 written license.
  
 The following legend is applicable only to US Government
 contracts under FAR:
  
                    RESTRICTED RIGHTS LEGEND
  
 Use, reproduction and disclosure by the US Government is
 subject to restrictions as set forth in subparagraphs (a)
 and (c) of the Commercial Computer Software - Restricted
 Rights clause in FAR 52.227-19.
  
 Gaussian, Inc.
 340 Quinnipiac St., Bldg. 40, Wallingford CT 06492
  
  
 ---------------------------------------------------------------
 Warning -- This program may not be used in any manner that
 competes with the business of Gaussian, Inc. or will provide
 assistance to any competitor of Gaussian, Inc.  The licensee
 of this program is prohibited from giving any competitor of
 Gaussian, Inc. access to this program.  By using this program,
 the user acknowledges that Gaussian, Inc. is engaged in the
 business of creating and licensing software in the field of
 computational chemistry and represents and warrants to the
 licensee that it is not a competitor of Gaussian, Inc. and that
 it will not use this program in any manner prohibited above.
 ---------------------------------------------------------------
  

 Cite this work as:
 Gaussian 16, Revision C.01,
 M. J. Frisch, G. W. Trucks, H. B. Schlegel, G. E. Scuseria, 
 M. A. Robb, J. R. Cheeseman, G. Scalmani, V. Barone, 
 G. A. Petersson, H. Nakatsuji, X. Li, M. Caricato, A. V. Marenich, 
 J. Bloino, B. G. Janesko, R. Gomperts, B. Mennucci, H. P. Hratchian, 
 J. V. Ortiz, A. F. Izmaylov, J. L. Sonnenberg, D. Williams-Young, 
 F. Ding, F. Lipparini, F. Egidi, J. Goings, B. Peng, A. Petrone, 
 T. Henderson, D. Ranasinghe, V. G. Zakrzewski, J. Gao, N. Rega, 
 G. Zheng, W. Liang, M. Hada, M. Ehara, K. Toyota, R. Fukuda, 
 J. Hasegawa, M. Ishida, T. Nakajima, Y. Honda, O. Kitao, H. Nakai, 
 T. Vreven, K. Throssell, J. A. Montgomery, Jr., J. E. Peralta, 
 F. Ogliaro, M. J. Bearpark, J. J. Heyd, E. N. Brothers, K. N. Kudin, 
 V. N. Staroverov, T. A. Keith, R. Kobayashi, J. Normand, 
 K. Raghavachari, A. P. Rendell, J. C. Burant, S. S. Iyengar, 
 J. Tomasi, M. Cossi, J. M. Millam, M. Klene, C. Adamo, R. Cammi, 
 J. W. Ochterski, R. L. Martin, K. Morokuma, O. Farkas, 
 J. B. Foresman, and D. J. Fox, Gaussian, Inc., Wallingford CT, 2019.
 
 ******************************************
 Gaussian 16:  ES64L-G16RevC.01  3-Jul-2019
                25-May-2025 
 ******************************************
 %mem=28GB
 %chk=1502984803620600000001_intra_H_migration_suprafacial_6_9_IRC_R_prod
 %nprocshared=8
 Will use up to    8 processors via shared memory.
 -----------------------------------------------------------------
 #P M062X/Def2TZVPP Symm(None) scf(xqc) pop(None) freq opt(CalcFC)
 -----------------------------------------------------------------
 1/10=4,18=20,19=15,26=3,38=1/1,3;
 2/9=110,12=2,15=3,17=6,18=5,40=1/2;
 3/5=44,7=202,11=2,25=1,30=1,71=2,74=-55,140=1/1,2,3;
 4//1;
 5/5=2,8=3,13=1,38=5/2,8;
 8/6=4,10=90,11=11/1;
 11/6=1,8=1,9=11,15=111,16=1,31=1/1,2,10;
 10/6=1,13=1,31=1/2;
 7/10=1,25=1,30=1/1,2,3,16;
 1/10=4,18=20,19=15,26=3/3(2);
 2/9=110,15=3/2;
 99//99;
 2/9=110,15=3/2;
 3/5=44,7=202,11=2,25=1,30=1,71=1,74=-55/1,2,3;
 4/5=5,16=3,69=1/1;
 5/5=2,8=3,13=1,38=5/2,8;
 7/30=1/1,2,3,16;
 1/18=20,19=15,26=3/3(-5);
 2/9=110,15=3/2;
 99/9=1/99;
 Leave Link    1 at Sun May 25 04:51:47 2025, MaxMem=  3758096384 cpu:               0.0 elap:               0.0
 (Enter /apps/easybuild-2022/easybuild/software/Compiler/NVHPC/22.11-CUDA-11.7.0/Gaussian/g16c01-CUDA-11.7.0/g16/l101.exe)
 ------------------------------
 Gaussian input prepared by ASE
 ------------------------------
 Symbolic Z-matrix:
 Charge =  0 Multiplicity = 1
 C                     0.16965  -0.64033  -1.04366 
 F                    -0.34132   0.53663  -1.5027 
 F                    -0.8155   -1.52386  -1.05318 
 F                     1.07118  -1.03463  -1.9227 
 S                    -0.16018   0.78586   1.14048 
 O                     0.68221  -0.447     0.202 
 O                    -1.21293   0.15166   1.8354 
 O                     0.86637   1.51191   1.77741 
 H                    -0.65106   1.49994   0.12759 
 
 ITRead=  0  0  0  0  0  0  0  0  0
 MicOpt= -1 -1 -1 -1 -1 -1 -1 -1 -1
 NAtoms=      9 NQM=        9 NQMF=       0 NMMI=      0 NMMIF=      0
                NMic=       0 NMicF=      0.
                    Isotopes and Nuclear Properties:
 (Nuclear quadrupole moments (NQMom) in fm**2, nuclear magnetic moments (NMagM)
  in nuclear magnetons)

  Atom         1           2           3           4           5           6           7           8           9
 IAtWgt=          12          19          19          19          32          16          16          16           1
 AtmWgt=  12.0000000  18.9984032  18.9984032  18.9984032  31.9720718  15.9949146  15.9949146  15.9949146   1.0078250
 NucSpn=           0           1           1           1           0           0           0           0           1
 AtZEff=  -0.0000000  -0.0000000  -0.0000000  -0.0000000  -0.0000000  -0.0000000  -0.0000000  -0.0000000  -0.0000000
 NQMom=    0.0000000   0.0000000   0.0000000   0.0000000   0.0000000   0.0000000   0.0000000   0.0000000   0.0000000
 NMagM=    0.0000000   2.6288670   2.6288670   2.6288670   0.0000000   0.0000000   0.0000000   0.0000000   2.7928460
 AtZNuc=   6.0000000   9.0000000   9.0000000   9.0000000  16.0000000   8.0000000   8.0000000   8.0000000   1.0000000
 Leave Link  101 at Sun May 25 04:51:47 2025, MaxMem=  3758096384 cpu:               0.2 elap:               0.2
 (Enter /apps/easybuild-2022/easybuild/software/Compiler/NVHPC/22.11-CUDA-11.7.0/Gaussian/g16c01-CUDA-11.7.0/g16/l103.exe)

 GradGradGradGradGradGradGradGradGradGradGradGradGradGradGradGradGradGrad
 Berny optimization.
 Initialization pass.
                           ----------------------------
                           !    Initial Parameters    !
                           ! (Angstroms and Degrees)  !
 --------------------------                            --------------------------
 ! Name  Definition              Value          Derivative Info.                !
 --------------------------------------------------------------------------------
 ! R1    R(1,2)                  1.3627         calculate D2E/DX2 analytically  !
 ! R2    R(1,3)                  1.3233         calculate D2E/DX2 analytically  !
 ! R3    R(1,4)                  1.3195         calculate D2E/DX2 analytically  !
 ! R4    R(1,6)                  1.3608         calculate D2E/DX2 analytically  !
 ! R5    R(5,6)                  1.7636         calculate D2E/DX2 analytically  !
 ! R6    R(5,7)                  1.4119         calculate D2E/DX2 analytically  !
 ! R7    R(5,8)                  1.4095         calculate D2E/DX2 analytically  !
 ! R8    R(5,9)                  1.333          calculate D2E/DX2 analytically  !
 ! A1    A(2,1,3)              107.1623         calculate D2E/DX2 analytically  !
 ! A2    A(2,1,4)              106.8504         calculate D2E/DX2 analytically  !
 ! A3    A(2,1,6)              109.0801         calculate D2E/DX2 analytically  !
 ! A4    A(3,1,4)              107.7179         calculate D2E/DX2 analytically  !
 ! A5    A(3,1,6)              112.4481         calculate D2E/DX2 analytically  !
 ! A6    A(4,1,6)              113.2622         calculate D2E/DX2 analytically  !
 ! A7    A(6,5,7)              107.7018         calculate D2E/DX2 analytically  !
 ! A8    A(6,5,8)              104.6359         calculate D2E/DX2 analytically  !
 ! A9    A(6,5,9)               98.3969         calculate D2E/DX2 analytically  !
 ! A10   A(7,5,8)              123.5062         calculate D2E/DX2 analytically  !
 ! A11   A(7,5,9)              109.8797         calculate D2E/DX2 analytically  !
 ! A12   A(8,5,9)              109.6119         calculate D2E/DX2 analytically  !
 ! A13   A(1,6,5)              113.9856         calculate D2E/DX2 analytically  !
 ! D1    D(2,1,6,5)             31.4657         calculate D2E/DX2 analytically  !
 ! D2    D(3,1,6,5)            -87.2679         calculate D2E/DX2 analytically  !
 ! D3    D(4,1,6,5)            150.3184         calculate D2E/DX2 analytically  !
 ! D4    D(7,5,6,1)             88.833          calculate D2E/DX2 analytically  !
 ! D5    D(8,5,6,1)           -138.1473         calculate D2E/DX2 analytically  !
 ! D6    D(9,5,6,1)            -25.2418         calculate D2E/DX2 analytically  !
 --------------------------------------------------------------------------------
 Trust Radius=3.00D-01 FncErr=1.00D-07 GrdErr=1.00D-06 EigMax=2.50D+02 EigMin=1.00D-04
 Number of steps in this run=     37 maximum allowed number of steps=    100.
 GradGradGradGradGradGradGradGradGradGradGradGradGradGradGradGradGradGrad

 Leave Link  103 at Sun May 25 04:51:47 2025, MaxMem=  3758096384 cpu:               0.0 elap:               0.0
 (Enter /apps/easybuild-2022/easybuild/software/Compiler/NVHPC/22.11-CUDA-11.7.0/Gaussian/g16c01-CUDA-11.7.0/g16/l202.exe)
                          Input orientation:                          
 ---------------------------------------------------------------------
 Center     Atomic      Atomic             Coordinates (Angstroms)
 Number     Number       Type             X           Y           Z
 ---------------------------------------------------------------------
      1          6           0        0.169645   -0.640328   -1.043656
      2          9           0       -0.341319    0.536628   -1.502703
      3          9           0       -0.815503   -1.523864   -1.053179
      4          9           0        1.071179   -1.034634   -1.922698
      5         16           0       -0.160180    0.785863    1.140480
      6          8           0        0.682214   -0.447001    0.202002
      7          8           0       -1.212931    0.151663    1.835403
      8          8           0        0.866373    1.511906    1.777411
      9          1           0       -0.651064    1.499935    0.127587
 ---------------------------------------------------------------------
                    Distance matrix (angstroms):
                    1          2          3          4          5
     1  C    0.000000
     2  F    1.362730   0.000000
     3  F    1.323345   2.161608   0.000000
     4  F    1.319453   2.154161   2.134240   0.000000
     5  S    2.629307   2.661080   3.252142   3.770081   0.000000
     6  O    1.360796   2.218370   2.231204   2.238517   1.763611
     7  O    3.290554   3.471434   3.362922   4.554973   1.411883
     8  O    3.616070   3.628889   4.478487   4.496401   1.409479
     9  H    2.574121   1.918788   3.250324   3.686981   1.332973
                    6          7          8          9
     6  O    0.000000
     7  O    2.572542   0.000000
     8  O    2.520545   2.485383   0.000000
     9  H    2.360874   2.247258   2.241579   0.000000
 Symmetry turned off by external request.
 Stoichiometry    CHF3O3S
 Rotational constants (GHZ):           3.6617313           1.2015438           1.0852541
 Leave Link  202 at Sun May 25 04:51:47 2025, MaxMem=  3758096384 cpu:               0.0 elap:               0.0
 (Enter /apps/easybuild-2022/easybuild/software/Compiler/NVHPC/22.11-CUDA-11.7.0/Gaussian/g16c01-CUDA-11.7.0/g16/l301.exe)
 Standard basis: def2TZVPP (5D, 7F)
 Ernie: Thresh=  0.10000D-02 Tol=  0.10000D-05 Strict=F.
   273 basis functions,   443 primitive gaussians,   315 cartesian basis functions
    37 alpha electrons       37 beta electrons
       nuclear repulsion energy       551.5186579158 Hartrees.
 IExCor= 4336 DFT=T Ex+Corr=M062X ExCW=0 ScaHFX=  0.540000
 ScaDFX=  1.000000  1.000000  1.000000  1.000000 ScalE2=  1.000000  1.000000
 IRadAn=      5 IRanWt=     -1 IRanGd=            0 ICorTp=0 IEmpDi=  4
 NAtoms=    9 NActive=    9 NUniq=    9 SFac= 1.00D+00 NAtFMM=   60 NAOKFM=F Big=F
 Integral buffers will be    131072 words long.
 Raffenetti 2 integral format.
 Two-electron integral symmetry is turned off.
 Leave Link  301 at Sun May 25 04:51:47 2025, MaxMem=  3758096384 cpu:               0.0 elap:               0.0
 (Enter /apps/easybuild-2022/easybuild/software/Compiler/NVHPC/22.11-CUDA-11.7.0/Gaussian/g16c01-CUDA-11.7.0/g16/l302.exe)
 NPDir=0 NMtPBC=     1 NCelOv=     1 NCel=       1 NClECP=     1 NCelD=      1
         NCelK=      1 NCelE2=     1 NClLst=     1 CellRange=     0.0.
 One-electron integrals computed using PRISM.
   1 Symmetry operations used in ECPInt.
 ECPInt:  NShTT=    4753 NPrTT=   15592 LenC2=    4529 LenP2D=   11347.
 LDataN:  DoStor=T MaxTD1= 6 Len=  172
 NBasis=   273 RedAO= T EigKep=  1.16D-03  NBF=   273
 NBsUse=   273 1.00D-06 EigRej= -1.00D+00 NBFU=   273
 Precomputing XC quadrature grid using
 IXCGrd= 4 IRadAn=           5 IRanWt=          -1 IRanGd=           0 AccXCQ= 0.00D+00.
 Generated NRdTot=       0 NPtTot=           0 NUsed=           0 NTot=          32
 NSgBfM=   313   313   313   313   313 MxSgAt=     9 MxSgA2=     9.
 Leave Link  302 at Sun May 25 04:51:47 2025, MaxMem=  3758096384 cpu:               0.6 elap:               0.1
 (Enter /apps/easybuild-2022/easybuild/software/Compiler/NVHPC/22.11-CUDA-11.7.0/Gaussian/g16c01-CUDA-11.7.0/g16/l303.exe)
 DipDrv:  MaxL=1.
 Leave Link  303 at Sun May 25 04:51:48 2025, MaxMem=  3758096384 cpu:               0.1 elap:               0.0
 (Enter /apps/easybuild-2022/easybuild/software/Compiler/NVHPC/22.11-CUDA-11.7.0/Gaussian/g16c01-CUDA-11.7.0/g16/l401.exe)
 ExpMin= 9.52D-02 ExpMax= 6.07D+04 ExpMxC= 2.07D+03 IAcc=3 IRadAn=         5 AccDes= 0.00D+00
 Harris functional with IExCor= 1009 and IRadAn=       5 diagonalized for initial guess.
 HarFok:  IExCor= 1009 AccDes= 0.00D+00 IRadAn=         5 IDoV= 1 UseB2=F ITyADJ=14
 ICtDFT=  3500011 ScaDFX=  1.000000  1.000000  1.000000  1.000000
 FoFCou: FMM=F IPFlag=           0 FMFlag=      100000 FMFlg1=           0
         NFxFlg=           0 DoJE=T BraDBF=F KetDBF=T FulRan=T
         wScrn=  0.000000 ICntrl=       500 IOpCl=  0 I1Cent=   200000004 NGrid=           0
         NMat0=    1 NMatS0=      1 NMatT0=    0 NMatD0=    1 NMtDS0=    0 NMtDT0=    0
 Symmetry not used in FoFCou.
 Harris En= -961.675072953218    
 JPrj=0 DoOrth=F DoCkMO=F.
 Leave Link  401 at Sun May 25 04:51:48 2025, MaxMem=  3758096384 cpu:               2.6 elap:               0.4
 (Enter /apps/easybuild-2022/easybuild/software/Compiler/NVHPC/22.11-CUDA-11.7.0/Gaussian/g16c01-CUDA-11.7.0/g16/l502.exe)
 Keep R1 ints in memory in canonical form, NReq=715214082.
 FoFCou: FMM=F IPFlag=           0 FMFlag=           0 FMFlg1=           0
         NFxFlg=           0 DoJE=F BraDBF=F KetDBF=F FulRan=T
         wScrn=  0.000000 ICntrl=       600 IOpCl=  0 I1Cent=           0 NGrid=           0
         NMat0=    1 NMatS0=  37401 NMatT0=    0 NMatD0=    1 NMtDS0=    0 NMtDT0=    0
 Symmetry not used in FoFCou.
 Two-electron integral symmetry not used.
 Closed shell SCF:
 Using DIIS extrapolation, IDIIS=  1040.
 NGot=  3758096384 LenX=  3058457086 LenY=  3058357420
 Requested convergence on RMS density matrix=1.00D-08 within  32 cycles.
 Requested convergence on MAX density matrix=1.00D-06.
 Requested convergence on             energy=1.00D-06.
 No special actions if energy rises.
 Integral accuracy reduced to 1.0D-05 until final iterations.

 Cycle   1  Pass 0  IDiag  1:
 E= -961.829451208387    
 DIIS: error= 2.82D-02 at cycle   1 NSaved=   1.
 NSaved= 1 IEnMin= 1 EnMin= -961.829451208387     IErMin= 1 ErrMin= 2.82D-02
 ErrMax= 2.82D-02  0.00D+00 EMaxC= 1.00D-01 BMatC= 5.28D-01 BMatP= 5.28D-01
 IDIUse=3 WtCom= 7.18D-01 WtEn= 2.82D-01
 Coeff-Com:  0.100D+01
 Coeff-En:   0.100D+01
 Coeff:      0.100D+01
 Gap=     0.374 Goal=   None    Shift=    0.000
 GapD=    0.374 DampG=1.000 DampE=0.500 DampFc=0.5000 IDamp=-1.
 Damping current iteration by 5.00D-01
 RMSDP=2.82D-03 MaxDP=2.56D-01              OVMax= 2.11D-01

 Cycle   2  Pass 0  IDiag  1:
 E= -961.924473080142     Delta-E=       -0.095021871754 Rises=F Damp=T
 DIIS: error= 8.20D-03 at cycle   2 NSaved=   2.
 NSaved= 2 IEnMin= 2 EnMin= -961.924473080142     IErMin= 2 ErrMin= 8.20D-03
 ErrMax= 8.20D-03  0.00D+00 EMaxC= 1.00D-01 BMatC= 4.62D-02 BMatP= 5.28D-01
 IDIUse=3 WtCom= 9.18D-01 WtEn= 8.20D-02
 Coeff-Com:  0.107D+00 0.893D+00
 Coeff-En:   0.283D+00 0.717D+00
 Coeff:      0.121D+00 0.879D+00
 Gap=     0.457 Goal=   None    Shift=    0.000
 RMSDP=6.42D-04 MaxDP=5.40D-02 DE=-9.50D-02 OVMax= 1.35D-01

 Cycle   3  Pass 0  IDiag  1:
 E= -962.100612827501     Delta-E=       -0.176139747360 Rises=F Damp=F
 DIIS: error= 4.79D-03 at cycle   3 NSaved=   3.
 NSaved= 3 IEnMin= 3 EnMin= -962.100612827501     IErMin= 3 ErrMin= 4.79D-03
 ErrMax= 4.79D-03  0.00D+00 EMaxC= 1.00D-01 BMatC= 1.07D-02 BMatP= 4.62D-02
 IDIUse=3 WtCom= 9.52D-01 WtEn= 4.79D-02
 Coeff-Com: -0.397D-01 0.264D+00 0.775D+00
 Coeff-En:   0.000D+00 0.000D+00 0.100D+01
 Coeff:     -0.378D-01 0.252D+00 0.786D+00
 Gap=     0.440 Goal=   None    Shift=    0.000
 RMSDP=2.80D-04 MaxDP=2.14D-02 DE=-1.76D-01 OVMax= 2.96D-02

 Cycle   4  Pass 0  IDiag  1:
 E= -962.105456442765     Delta-E=       -0.004843615264 Rises=F Damp=F
 DIIS: error= 2.45D-03 at cycle   4 NSaved=   4.
 NSaved= 4 IEnMin= 4 EnMin= -962.105456442765     IErMin= 4 ErrMin= 2.45D-03
 ErrMax= 2.45D-03  0.00D+00 EMaxC= 1.00D-01 BMatC= 4.13D-03 BMatP= 1.07D-02
 IDIUse=3 WtCom= 9.76D-01 WtEn= 2.45D-02
 Coeff-Com: -0.309D-01 0.681D-01 0.443D+00 0.520D+00
 Coeff-En:   0.000D+00 0.000D+00 0.250D+00 0.750D+00
 Coeff:     -0.302D-01 0.664D-01 0.438D+00 0.526D+00
 Gap=     0.436 Goal=   None    Shift=    0.000
 RMSDP=1.10D-04 MaxDP=6.07D-03 DE=-4.84D-03 OVMax= 1.15D-02

 Cycle   5  Pass 0  IDiag  1:
 E= -962.108027827570     Delta-E=       -0.002571384805 Rises=F Damp=F
 DIIS: error= 2.60D-04 at cycle   5 NSaved=   5.
 NSaved= 5 IEnMin= 5 EnMin= -962.108027827570     IErMin= 5 ErrMin= 2.60D-04
 ErrMax= 2.60D-04  0.00D+00 EMaxC= 1.00D-01 BMatC= 5.06D-05 BMatP= 4.13D-03
 IDIUse=3 WtCom= 9.97D-01 WtEn= 2.60D-03
 Coeff-Com: -0.683D-02 0.973D-02 0.100D+00 0.164D+00 0.733D+00
 Coeff-En:   0.000D+00 0.000D+00 0.000D+00 0.000D+00 0.100D+01
 Coeff:     -0.681D-02 0.970D-02 0.998D-01 0.163D+00 0.734D+00
 Gap=     0.436 Goal=   None    Shift=    0.000
 RMSDP=1.85D-05 MaxDP=9.07D-04 DE=-2.57D-03 OVMax= 1.54D-03

 Cycle   6  Pass 0  IDiag  1:
 E= -962.108056214755     Delta-E=       -0.000028387184 Rises=F Damp=F
 DIIS: error= 1.38D-04 at cycle   6 NSaved=   6.
 NSaved= 6 IEnMin= 6 EnMin= -962.108056214755     IErMin= 6 ErrMin= 1.38D-04
 ErrMax= 1.38D-04  0.00D+00 EMaxC= 1.00D-01 BMatC= 1.34D-05 BMatP= 5.06D-05
 IDIUse=3 WtCom= 9.99D-01 WtEn= 1.38D-03
 Coeff-Com: -0.113D-02-0.291D-03 0.142D-01 0.395D-01 0.384D+00 0.564D+00
 Coeff-En:   0.000D+00 0.000D+00 0.000D+00 0.000D+00 0.113D+00 0.887D+00
 Coeff:     -0.112D-02-0.291D-03 0.141D-01 0.394D-01 0.384D+00 0.564D+00
 Gap=     0.436 Goal=   None    Shift=    0.000
 RMSDP=6.45D-06 MaxDP=2.49D-04 DE=-2.84D-05 OVMax= 4.65D-04

 Initial convergence to 1.0D-05 achieved.  Increase integral accuracy.
 Cycle   7  Pass 1  IDiag  1:
 E= -962.108095945866     Delta-E=       -0.000039731112 Rises=F Damp=F
 DIIS: error= 2.79D-05 at cycle   1 NSaved=   1.
 NSaved= 1 IEnMin= 1 EnMin= -962.108095945866     IErMin= 1 ErrMin= 2.79D-05
 ErrMax= 2.79D-05  0.00D+00 EMaxC= 1.00D-01 BMatC= 8.11D-07 BMatP= 8.11D-07
 IDIUse=1 WtCom= 1.00D+00 WtEn= 0.00D+00
 Coeff-Com:  0.100D+01
 Coeff:      0.100D+01
 Gap=     0.436 Goal=   None    Shift=    0.000
 RMSDP=6.45D-06 MaxDP=2.49D-04 DE=-3.97D-05 OVMax= 1.80D-04

 Cycle   8  Pass 1  IDiag  1:
 E= -962.108096372560     Delta-E=       -0.000000426694 Rises=F Damp=F
 DIIS: error= 2.11D-05 at cycle   2 NSaved=   2.
 NSaved= 2 IEnMin= 2 EnMin= -962.108096372560     IErMin= 2 ErrMin= 2.11D-05
 ErrMax= 2.11D-05  0.00D+00 EMaxC= 1.00D-01 BMatC= 2.94D-07 BMatP= 8.11D-07
 IDIUse=1 WtCom= 1.00D+00 WtEn= 0.00D+00
 Coeff-Com:  0.324D+00 0.676D+00
 Coeff:      0.324D+00 0.676D+00
 Gap=     0.436 Goal=   None    Shift=    0.000
 RMSDP=1.41D-06 MaxDP=6.48D-05 DE=-4.27D-07 OVMax= 1.11D-04

 Cycle   9  Pass 1  IDiag  1:
 E= -962.108096499516     Delta-E=       -0.000000126956 Rises=F Damp=F
 DIIS: error= 1.06D-05 at cycle   3 NSaved=   3.
 NSaved= 3 IEnMin= 3 EnMin= -962.108096499516     IErMin= 3 ErrMin= 1.06D-05
 ErrMax= 1.06D-05  0.00D+00 EMaxC= 1.00D-01 BMatC= 1.03D-07 BMatP= 2.94D-07
 IDIUse=1 WtCom= 1.00D+00 WtEn= 0.00D+00
 Coeff-Com: -0.276D-01 0.363D+00 0.664D+00
 Coeff:     -0.276D-01 0.363D+00 0.664D+00
 Gap=     0.436 Goal=   None    Shift=    0.000
 RMSDP=6.75D-07 MaxDP=3.21D-05 DE=-1.27D-07 OVMax= 5.97D-05

 Cycle  10  Pass 1  IDiag  1:
 E= -962.108096564131     Delta-E=       -0.000000064615 Rises=F Damp=F
 DIIS: error= 3.07D-06 at cycle   4 NSaved=   4.
 NSaved= 4 IEnMin= 4 EnMin= -962.108096564131     IErMin= 4 ErrMin= 3.07D-06
 ErrMax= 3.07D-06  0.00D+00 EMaxC= 1.00D-01 BMatC= 6.37D-09 BMatP= 1.03D-07
 IDIUse=1 WtCom= 1.00D+00 WtEn= 0.00D+00
 Coeff-Com: -0.306D-01 0.151D+00 0.329D+00 0.550D+00
 Coeff:     -0.306D-01 0.151D+00 0.329D+00 0.550D+00
 Gap=     0.436 Goal=   None    Shift=    0.000
 RMSDP=1.79D-07 MaxDP=8.51D-06 DE=-6.46D-08 OVMax= 1.70D-05

 Cycle  11  Pass 1  IDiag  1:
 E= -962.108096568376     Delta-E=       -0.000000004245 Rises=F Damp=F
 DIIS: error= 8.96D-07 at cycle   5 NSaved=   5.
 NSaved= 5 IEnMin= 5 EnMin= -962.108096568376     IErMin= 5 ErrMin= 8.96D-07
 ErrMax= 8.96D-07  0.00D+00 EMaxC= 1.00D-01 BMatC= 4.77D-10 BMatP= 6.37D-09
 IDIUse=1 WtCom= 1.00D+00 WtEn= 0.00D+00
 Coeff-Com: -0.725D-02-0.130D-01-0.968D-02 0.182D+00 0.848D+00
 Coeff:     -0.725D-02-0.130D-01-0.968D-02 0.182D+00 0.848D+00
 Gap=     0.436 Goal=   None    Shift=    0.000
 RMSDP=7.82D-08 MaxDP=2.63D-06 DE=-4.25D-09 OVMax= 7.43D-06

 Cycle  12  Pass 1  IDiag  1:
 E= -962.108096568912     Delta-E=       -0.000000000535 Rises=F Damp=F
 DIIS: error= 2.33D-07 at cycle   6 NSaved=   6.
 NSaved= 6 IEnMin= 6 EnMin= -962.108096568912     IErMin= 6 ErrMin= 2.33D-07
 ErrMax= 2.33D-07  0.00D+00 EMaxC= 1.00D-01 BMatC= 4.09D-11 BMatP= 4.77D-10
 IDIUse=1 WtCom= 1.00D+00 WtEn= 0.00D+00
 Coeff-Com:  0.142D-02-0.186D-01-0.370D-01-0.945D-02 0.239D+00 0.824D+00
 Coeff:      0.142D-02-0.186D-01-0.370D-01-0.945D-02 0.239D+00 0.824D+00
 Gap=     0.436 Goal=   None    Shift=    0.000
 RMSDP=2.72D-08 MaxDP=1.13D-06 DE=-5.35D-10 OVMax= 3.02D-06

 Cycle  13  Pass 1  IDiag  1:
 E= -962.108096568946     Delta-E=       -0.000000000034 Rises=F Damp=F
 DIIS: error= 1.59D-07 at cycle   7 NSaved=   7.
 NSaved= 7 IEnMin= 7 EnMin= -962.108096568946     IErMin= 7 ErrMin= 1.59D-07
 ErrMax= 1.59D-07  0.00D+00 EMaxC= 1.00D-01 BMatC= 1.51D-11 BMatP= 4.09D-11
 IDIUse=1 WtCom= 1.00D+00 WtEn= 0.00D+00
 Coeff-Com:  0.132D-02-0.870D-02-0.185D-01-0.193D-01 0.558D-01 0.451D+00
 Coeff-Com:  0.538D+00
 Coeff:      0.132D-02-0.870D-02-0.185D-01-0.193D-01 0.558D-01 0.451D+00
 Coeff:      0.538D+00
 Gap=     0.436 Goal=   None    Shift=    0.000
 RMSDP=8.83D-09 MaxDP=4.86D-07 DE=-3.41D-11 OVMax= 1.00D-06

 SCF Done:  E(RM062X) =  -962.108096569     A.U. after   13 cycles
            NFock= 13  Conv=0.88D-08     -V/T= 2.0028
 KE= 9.594240042871D+02 PE=-3.384619737326D+03 EE= 9.115689785545D+02
 Leave Link  502 at Sun May 25 04:52:02 2025, MaxMem=  3758096384 cpu:              65.2 elap:              13.8
 (Enter /apps/easybuild-2022/easybuild/software/Compiler/NVHPC/22.11-CUDA-11.7.0/Gaussian/g16c01-CUDA-11.7.0/g16/l508.exe)
 QCSCF skips out because SCF is already converged.
 Leave Link  508 at Sun May 25 04:52:02 2025, MaxMem=  3758096384 cpu:               0.0 elap:               0.0
 (Enter /apps/easybuild-2022/easybuild/software/Compiler/NVHPC/22.11-CUDA-11.7.0/Gaussian/g16c01-CUDA-11.7.0/g16/l801.exe)
 DoSCS=F DFT=T ScalE2(SS,OS)=  1.000000  1.000000
 Range of M.O.s used for correlation:     1   273
 NBasis=   273 NAE=    37 NBE=    37 NFC=     0 NFV=     0
 NROrb=    273 NOA=    37 NOB=    37 NVA=   236 NVB=   236

 **** Warning!!: The largest alpha MO coefficient is  0.10651039D+02

 Leave Link  801 at Sun May 25 04:52:02 2025, MaxMem=  3758096384 cpu:               0.0 elap:               0.0
 (Enter /apps/easybuild-2022/easybuild/software/Compiler/NVHPC/22.11-CUDA-11.7.0/Gaussian/g16c01-CUDA-11.7.0/g16/l1101.exe)
 Using compressed storage, NAtomX=     9.
 Will process     10 centers per pass.
   1 Symmetry operations used in ECPInt.
 ECPInt:  NShTT=    4753 NPrTT=   15592 LenC2=    4529 LenP2D=   11347.
 LDataN:  DoStor=T MaxTD1= 7 Len=  274
 Leave Link 1101 at Sun May 25 04:52:02 2025, MaxMem=  3758096384 cpu:               0.7 elap:               0.1
 (Enter /apps/easybuild-2022/easybuild/software/Compiler/NVHPC/22.11-CUDA-11.7.0/Gaussian/g16c01-CUDA-11.7.0/g16/l1102.exe)
 Symmetrizing basis deriv contribution to polar:
 IMax=3 JMax=2 DiffMx= 0.00D+00
 Leave Link 1102 at Sun May 25 04:52:02 2025, MaxMem=  3758096384 cpu:               0.1 elap:               0.0
 (Enter /apps/easybuild-2022/easybuild/software/Compiler/NVHPC/22.11-CUDA-11.7.0/Gaussian/g16c01-CUDA-11.7.0/g16/l1110.exe)
 Forming Gx(P) for the SCF density, NAtomX=     9.
 Integral derivatives from FoFJK, PRISM(SPDF).
 Do as many integral derivatives as possible in FoFJK.
 G2DrvN: MDV=    3758095321.
 G2DrvN: will do    10 centers at a time, making    1 passes.
 Calling FoFCou, ICntrl=  3107 FMM=F I1Cent=   0 AccDes= 0.00D+00.
 FoFJK:  IHMeth= 1 ICntrl=    3107 DoSepK=F KAlg= 0 I1Cent=           0 FoldK=F
 IRaf=         0 NMat=       1 IRICut=       1 DoRegI=T DoRafI=F ISym2E= 0 IDoP0=0 IntGTp=1.
 FoFCou: FMM=F IPFlag=           0 FMFlag=      100000 FMFlg1=           0
         NFxFlg=           0 DoJE=F BraDBF=F KetDBF=F FulRan=T
         wScrn=  0.000000 ICntrl=      3107 IOpCl=  0 I1Cent=           0 NGrid=           0
         NMat0=    1 NMatS0=      1 NMatT0=    0 NMatD0=    1 NMtDS0=    0 NMtDT0=    0
 Symmetry not used in FoFCou.
 End of G2Drv F.D. properties file   721 does not exist.
 End of G2Drv F.D. properties file   722 does not exist.
 End of G2Drv F.D. properties file   788 does not exist.
 Leave Link 1110 at Sun May 25 04:52:24 2025, MaxMem=  3758096384 cpu:             176.5 elap:              22.3
 (Enter /apps/easybuild-2022/easybuild/software/Compiler/NVHPC/22.11-CUDA-11.7.0/Gaussian/g16c01-CUDA-11.7.0/g16/l1002.exe)
 Minotr:  Closed shell wavefunction.
          IDoAtm=111111111
          Direct CPHF calculation.
          Differentiating once with respect to nuclear coordinates.
          Requested convergence is 1.0D-08 RMS, and 1.0D-07 maximum.
          Secondary convergence is 1.0D-12 RMS, and 1.0D-12 maximum.
          NewPWx=T KeepS1=F KeepF1=F KeepIn=T MapXYZ=F SortEE=F KeepMc=T.
         2697 words used for storage of precomputed grid.
 Keep R1 ints in memory in canonical form, NReq=715218558.
 FoFCou: FMM=F IPFlag=           0 FMFlag=           0 FMFlg1=           0
         NFxFlg=           0 DoJE=F BraDBF=F KetDBF=F FulRan=T
         wScrn=  0.000000 ICntrl=       600 IOpCl=  0 I1Cent=           0 NGrid=           0
         NMat0=    1 NMatS0=  37401 NMatT0=    0 NMatD0=    1 NMtDS0=    0 NMtDT0=    0
 Symmetry not used in FoFCou.
 Two-electron integral symmetry not used.
          MDV=    3758096384 using IRadAn=       1.
          Solving linear equations simultaneously, MaxMat=       0.
          There are    30 degrees of freedom in the 1st order CPHF.  IDoFFX=6 NUNeed=     0.
     24 vectors produced by pass  0 Test12= 2.91D-14 3.33D-09 XBig12= 1.92D-01 8.63D-02.
 AX will form    24 AO Fock derivatives at one time.
     24 vectors produced by pass  1 Test12= 2.91D-14 3.33D-09 XBig12= 1.16D-01 1.13D-01.
     24 vectors produced by pass  2 Test12= 2.91D-14 3.33D-09 XBig12= 5.50D-03 1.75D-02.
     24 vectors produced by pass  3 Test12= 2.91D-14 3.33D-09 XBig12= 1.14D-04 2.18D-03.
     24 vectors produced by pass  4 Test12= 2.91D-14 3.33D-09 XBig12= 1.69D-06 2.24D-04.
     24 vectors produced by pass  5 Test12= 2.91D-14 3.33D-09 XBig12= 1.95D-08 2.84D-05.
     24 vectors produced by pass  6 Test12= 2.91D-14 3.33D-09 XBig12= 1.34D-10 1.61D-06.
     12 vectors produced by pass  7 Test12= 2.91D-14 3.33D-09 XBig12= 7.33D-13 9.90D-08.
      4 vectors produced by pass  8 Test12= 2.91D-14 3.33D-09 XBig12= 4.62D-15 8.00D-09.
 InvSVY:  IOpt=1 It=  1 EMax= 1.33D-15
 Solved reduced A of dimension   184 with    24 vectors.
 End of Minotr F.D. properties file   721 does not exist.
 End of Minotr F.D. properties file   722 does not exist.
 End of Minotr F.D. properties file   788 does not exist.
 Leave Link 1002 at Sun May 25 04:52:54 2025, MaxMem=  3758096384 cpu:             234.6 elap:              29.8
 (Enter /apps/easybuild-2022/easybuild/software/Compiler/NVHPC/22.11-CUDA-11.7.0/Gaussian/g16c01-CUDA-11.7.0/g16/l701.exe)
 ... and contract with generalized density number  0.
 Compute integral second derivatives.
   1 Symmetry operations used in ECPInt.
 ECPInt:  NShTT=    4753 NPrTT=   15592 LenC2=    4529 LenP2D=   11347.
 LDataN:  DoStor=T MaxTD1= 8 Len=  415
 Leave Link  701 at Sun May 25 04:52:54 2025, MaxMem=  3758096384 cpu:               0.7 elap:               0.1
 (Enter /apps/easybuild-2022/easybuild/software/Compiler/NVHPC/22.11-CUDA-11.7.0/Gaussian/g16c01-CUDA-11.7.0/g16/l702.exe)
 L702 exits ... SP integral derivatives will be done elsewhere.
 Leave Link  702 at Sun May 25 04:52:54 2025, MaxMem=  3758096384 cpu:               0.0 elap:               0.0
 (Enter /apps/easybuild-2022/easybuild/software/Compiler/NVHPC/22.11-CUDA-11.7.0/Gaussian/g16c01-CUDA-11.7.0/g16/l703.exe)
 Integral derivatives from FoFJK, PRISM(SPDF).
 Compute integral second derivatives, UseDBF=F ICtDFT=           0.
 Calling FoFJK, ICntrl=    100127 FMM=F ISym2X=0 I1Cent= 0 IOpClX= 0 NMat=1 NMatS=1 NMatT=0.
 FoFJK:  IHMeth= 1 ICntrl=  100127 DoSepK=F KAlg= 0 I1Cent=           0 FoldK=F
 IRaf=         0 NMat=       1 IRICut=       1 DoRegI=T DoRafI=F ISym2E= 0 IDoP0=0 IntGTp=1.
 FoFCou: FMM=F IPFlag=           0 FMFlag=      100000 FMFlg1=         800
         NFxFlg=           0 DoJE=F BraDBF=F KetDBF=F FulRan=T
         wScrn=  0.000000 ICntrl=    100127 IOpCl=  0 I1Cent=           0 NGrid=           0
         NMat0=    1 NMatS0=      1 NMatT0=    0 NMatD0=    1 NMtDS0=    0 NMtDT0=    0
 Symmetry not used in FoFCou.
 Leave Link  703 at Sun May 25 04:53:43 2025, MaxMem=  3758096384 cpu:             390.0 elap:              49.1
 (Enter /apps/easybuild-2022/easybuild/software/Compiler/NVHPC/22.11-CUDA-11.7.0/Gaussian/g16c01-CUDA-11.7.0/g16/l716.exe)
 Dipole        =-2.86354632D-01 4.65743256D-01-6.39727288D-01
 Polarizability= 0.00000000D+00 0.00000000D+00 0.00000000D+00
                 0.00000000D+00 0.00000000D+00 0.00000000D+00
 -------------------------------------------------------------------
 Center     Atomic                   Forces (Hartrees/Bohr)
 Number     Number              X              Y              Z
 -------------------------------------------------------------------
      1        6          -0.006893797    0.006953604   -0.003798642
      2        9           0.001627248   -0.011512730   -0.012816031
      3        9          -0.000206333    0.001155076    0.002487973
      4        9           0.003110691    0.001642582    0.012628332
      5       16           0.014967442   -0.018295723   -0.001401314
      6        8          -0.017112728    0.025276725    0.003518216
      7        8           0.001293220   -0.003182883   -0.002810164
      8        8           0.003509477   -0.002954015    0.000849807
      9        1          -0.000295220    0.000917363    0.001341823
 -------------------------------------------------------------------
 Cartesian Forces:  Max     0.025276725 RMS     0.008899055
 Force constants in Cartesian coordinates: 
                1             2             3             4             5 
      1  0.583851D+00
      2  0.170474D-01  0.545329D+00
      3 -0.434921D-01  0.518060D-01  0.584353D+00
      4 -0.948068D-01  0.400576D-01 -0.150017D-01  0.116281D+00
      5  0.364507D-01 -0.166141D+00  0.335041D-01 -0.906288D-01  0.288646D+00
      6 -0.206574D-01  0.455279D-01 -0.102683D+00  0.355566D-01 -0.676937D-01
      7 -0.196151D+00 -0.104284D+00  0.272192D-02  0.129350D-01 -0.129450D-01
      8 -0.107855D+00 -0.175951D+00 -0.146023D-02 -0.290899D-01 -0.772464D-01
      9 -0.283328D-02 -0.569198D-02 -0.799745D-01  0.764918D-02  0.231054D-01
     10 -0.185567D+00  0.421790D-01  0.999172D-01 -0.297846D-01  0.466447D-01
     11  0.471501D-01 -0.999941D-01 -0.449558D-01  0.533765D-01 -0.398545D-01
     12  0.104403D+00 -0.432823D-01 -0.176402D+00  0.673261D-02 -0.960176D-02
     13  0.403207D-01 -0.101805D-01  0.335570D-01 -0.833631D-02  0.130655D-01
     14 -0.282890D-01  0.610907D-02 -0.671629D-01  0.131855D-01 -0.228344D-01
     15 -0.729550D-02 -0.369749D-01 -0.709576D-01  0.499479D-02 -0.805964D-02
     16 -0.125843D+00  0.115037D-01 -0.629245D-01 -0.322114D-02  0.139957D-01
     17  0.190522D-01 -0.914429D-01  0.367045D-03  0.184643D-01  0.456506D-02
     18 -0.434893D-01 -0.156752D-01 -0.187916D+00 -0.405927D-01  0.377274D-01
     19 -0.158632D-01 -0.316903D-02 -0.131900D-01  0.222576D-02 -0.136088D-02
     20  0.184135D-02 -0.588095D-02  0.499901D-02 -0.183022D-02  0.558143D-02
     21  0.451895D-02  0.655131D-02  0.110762D-01 -0.457377D-03 -0.229140D-02
     22 -0.328399D-02  0.420929D-02  0.297989D-02  0.201649D-02 -0.348326D-02
     23  0.806861D-02 -0.715665D-02  0.143190D-01 -0.208588D-02  0.383308D-02
     24  0.373008D-02  0.205152D-02  0.112671D-01  0.850687D-03 -0.195522D-02
     25 -0.265568D-02  0.263675D-02 -0.456753D-02  0.269031D-02 -0.173874D-02
     26  0.653343D-02 -0.487219D-02  0.858369D-02 -0.144907D-02  0.345088D-02
     27  0.511580D-02 -0.431236D-02  0.112368D-01  0.267935D-03 -0.473518D-02
                6             7             8             9            10 
      6  0.156085D+00
      7  0.256956D-02  0.281716D+00
      8  0.153960D-01  0.181626D+00  0.247327D+00
      9  0.108777D-01 -0.584155D-02 -0.664052D-03  0.856461D-01
     10  0.175071D-01 -0.700188D-01 -0.141878D-01  0.446074D-01  0.271617D+00
     11 -0.231103D-01 -0.302016D-01  0.125037D-01  0.162505D-01 -0.753825D-01
     12  0.129700D-01  0.348080D-01  0.677117D-02 -0.120320D-02 -0.168012D+00
     13 -0.292950D-02 -0.161819D-01 -0.670642D-02 -0.715908D-02 -0.117984D-02
     14 -0.115900D-02  0.582766D-02  0.265597D-02  0.792901D-02 -0.139346D-02
     15 -0.581879D-02  0.102415D-01  0.833928D-02  0.622358D-02 -0.295855D-02
     16 -0.312962D-01 -0.190935D-01 -0.265415D-01 -0.386242D-01  0.126587D-01
     17  0.349386D-01 -0.379946D-01 -0.100230D-01 -0.367842D-01  0.247496D-02
     18 -0.434569D-01 -0.388945D-01 -0.248117D-01 -0.175416D-01  0.827429D-02
     19  0.241434D-02  0.452646D-02  0.265014D-02  0.115927D-02  0.921484D-03
     20  0.210265D-02  0.164567D-02  0.146901D-02 -0.861237D-03  0.261143D-04
     21 -0.285946D-02 -0.189313D-02 -0.235874D-02 -0.104788D-02  0.547273D-03
     22 -0.317328D-02  0.169171D-02  0.168671D-03  0.401175D-03  0.119867D-02
     23 -0.864015D-03 -0.271187D-02 -0.932667D-03 -0.244927D-02  0.482997D-03
     24 -0.374648D-02 -0.311433D-02 -0.212197D-02 -0.180548D-02  0.111777D-02
     25  0.869339D-05  0.576168D-03 -0.640100D-04  0.641074D-03  0.154222D-03
     26 -0.513815D-02 -0.961638D-03  0.196638D-03 -0.834150D-03 -0.844009D-03
     27 -0.213682D-01 -0.597458D-03  0.910215D-03 -0.117472D-02 -0.100034D-02
               11            12            13            14            15 
     11  0.120844D+00
     12  0.716846D-01  0.227841D+00
     13 -0.105792D-02 -0.851356D-02  0.104009D+01
     14  0.353035D-02  0.179091D-01  0.415282D+00  0.670069D+00
     15  0.318528D-02  0.833154D-02  0.773495D-01 -0.110481D+00  0.767322D+00
     16  0.571801D-02  0.270093D-01 -0.798605D-01  0.232495D-01 -0.145950D-01
     17  0.257383D-02 -0.365428D-01  0.159266D-01 -0.670460D-01  0.222283D-01
     18 -0.216303D-01 -0.651643D-01 -0.191968D-01  0.189433D-01 -0.388267D-01
     19  0.144830D-02  0.417597D-02 -0.444082D+00 -0.230654D+00  0.223468D+00
     20  0.284638D-04 -0.181177D-02 -0.223590D+00 -0.230362D+00  0.158405D+00
     21 -0.150663D-02 -0.312230D-02  0.239018D+00  0.170719D+00 -0.258800D+00
     22 -0.737670D-03 -0.110502D-02 -0.454272D+00 -0.244164D+00 -0.225891D+00
     23 -0.361622D-03 -0.410298D-02 -0.248369D+00 -0.250715D+00 -0.132821D+00
     24 -0.988777D-03 -0.245693D-02 -0.240219D+00 -0.142352D+00 -0.231190D+00
     25 -0.313219D-03  0.502046D-03 -0.765031D-01  0.469555D-01 -0.653135D-01
     26  0.729852D-03 -0.102323D-02  0.456295D-01 -0.111407D+00  0.961794D-01
     27  0.107143D-02 -0.792855D-03 -0.719055D-01  0.105655D+00 -0.176284D+00
               16            17            18            19            20 
     16  0.204427D+00
     17 -0.285083D-01  0.164349D+00
     18  0.106546D+00  0.481561D-01  0.377006D+00
     19  0.462411D-03 -0.115584D-02  0.218087D-01  0.452876D+00
     20  0.105120D-01  0.105895D-01 -0.153894D-01  0.248187D+00  0.206194D+00
     21  0.155801D-01 -0.142410D-02 -0.881700D-02 -0.262139D+00 -0.162162D+00
     22  0.103727D-01  0.325958D-02  0.641281D-02 -0.596205D-02 -0.205012D-01
     23 -0.168183D-01 -0.528178D-02 -0.278340D-01 -0.163003D-01  0.947209D-02
     24 -0.942701D-02 -0.168717D-01 -0.133369D-01  0.244950D-01  0.900675D-02
     25  0.978562D-04  0.848106D-02 -0.868828D-03  0.489514D-02 -0.162910D-01
     26  0.688915D-02 -0.828381D-02  0.513918D-03  0.354713D-03  0.290789D-02
     27  0.773110D-02 -0.140672D-01 -0.194662D-02 -0.219247D-02  0.571131D-02
               21            22            23            24            25 
     21  0.239896D+00
     22 -0.166950D-01  0.451700D+00
     23 -0.184448D-01  0.274627D+00  0.241070D+00
     24  0.224526D-01  0.241036D+00  0.168433D+00  0.217084D+00
     25  0.215206D-01 -0.346080D-02  0.310673D-02 -0.184689D-01  0.742059D-01
     26  0.109171D-01 -0.133790D-01  0.100729D-01 -0.152017D-01 -0.427731D-01
     27  0.122145D-02 -0.396542D-02  0.376378D-02  0.173181D-02  0.665464D-01
               26            27 
     26  0.107205D+00
     27 -0.939968D-01  0.187376D+00
 FormGI is forming the generalized inverse of G from B-inverse, IUseBI=4.
 Force constants in internal coordinates: 
                1             2             3             4             5 
      1  0.356433D+00
      2  0.532125D-01  0.446898D+00
      3  0.551900D-01  0.579229D-01  0.451020D+00
      4  0.604494D-01  0.557731D-01  0.473768D-01  0.426577D+00
      5 -0.132826D-01 -0.117601D-01 -0.105964D-01  0.575070D-01  0.152794D+00
      6 -0.460440D-03  0.625262D-02  0.283716D-02 -0.623518D-02  0.128008D-01
      7 -0.116051D-04  0.209130D-02  0.412607D-02 -0.501306D-02  0.135458D-01
      8  0.142229D-02  0.580805D-03  0.345236D-03 -0.106242D-01 -0.144177D-01
      9  0.325006D-01  0.353941D-01 -0.120309D-01 -0.542596D-01 -0.169533D-02
     10  0.335543D-01 -0.119907D-01  0.390313D-01 -0.649385D-01 -0.169561D-01
     11  0.314204D-01 -0.382136D-01 -0.374700D-01  0.101783D+00  0.489556D-01
     12 -0.119291D-01  0.360036D-01  0.402506D-01 -0.458758D-01  0.436318D-02
     13 -0.383113D-01  0.215703D-01 -0.378339D-01  0.355060D-01 -0.138532D-01
     14 -0.399853D-01 -0.399225D-01  0.110274D-01  0.174497D-01 -0.206295D-01
     15  0.836859D-02 -0.582186D-03  0.559781D-02 -0.175771D-01  0.109968D-01
     16  0.686008D-02  0.853010D-02  0.280801D-02 -0.112797D-01  0.182627D-01
     17  0.100782D-01  0.322784D-04 -0.168293D-02  0.136331D-01  0.525979D-01
     18 -0.327053D-02 -0.363375D-02 -0.323229D-02  0.615387D-02 -0.244140D-01
     19 -0.804044D-02 -0.168282D-02 -0.137481D-02  0.525473D-02 -0.172709D-01
     20 -0.878953D-02 -0.116214D-02 -0.117630D-02  0.360319D-02 -0.176715D-01
     21  0.929373D-02 -0.824141D-03  0.136066D-02  0.151363D+00  0.152815D+00
     22 -0.318903D-03  0.292074D-01 -0.294761D-01  0.192019D-01  0.161647D-01
     23 -0.378365D-01 -0.309022D-02  0.337868D-01 -0.241517D-02 -0.546792D-02
     24  0.380587D-01 -0.371431D-01  0.108162D-02  0.178517D-01  0.151494D-01
     25 -0.343161D-02 -0.266295D-02 -0.149633D-03  0.557057D-02  0.685754D-03
     26  0.267000D-02 -0.173778D-02  0.142792D-02 -0.600176D-02 -0.989549D-02
     27 -0.137839D-02 -0.660038D-03  0.348925D-03 -0.489047D-03 -0.564110D-02
                6             7             8             9            10 
      6  0.781952D+00
      7 -0.176633D-02  0.791066D+00
      8 -0.298510D-02 -0.261994D-02  0.279741D+00
      9 -0.392007D-02 -0.216729D-02  0.457125D-02  0.178088D+00
     10 -0.420233D-02 -0.501997D-02  0.117542D-01  0.293219D-01  0.202283D+00
     11  0.845956D-02  0.693464D-02 -0.264827D-01 -0.112741D+00 -0.152619D+00
     12 -0.336814D-02 -0.264990D-02  0.172561D-02  0.177112D-01  0.186218D-01
     13 -0.117192D-02  0.192242D-02  0.260903D-02 -0.719177D-01 -0.269742D-01
     14  0.353822D-02  0.400552D-03  0.654360D-02 -0.223365D-01 -0.527226D-01
     15 -0.139662D-02 -0.214848D-01  0.570894D-02  0.764011D-03  0.330145D-02
     16 -0.205530D-01  0.436349D-03  0.611104D-02 -0.334038D-02  0.348893D-02
     17 -0.551481D-02 -0.544540D-02 -0.198638D-01 -0.154059D-01 -0.315041D-01
     18  0.110285D-01  0.109295D-01  0.258141D-02  0.375468D-02  0.476574D-02
     19  0.181014D-01 -0.786880D-02 -0.315794D-03  0.485793D-02  0.417784D-02
     20 -0.781322D-02  0.181759D-01  0.925064D-03  0.394851D-02  0.658975D-02
     21  0.148344D-01  0.183737D-01 -0.481369D-01 -0.482714D-01 -0.115422D+00
     22  0.222419D-03  0.308909D-02 -0.825438D-02  0.460340D-01 -0.746868D-01
     23  0.250400D-03  0.166072D-04  0.192263D-02 -0.569750D-01  0.633502D-02
     24  0.293316D-02  0.174946D-02 -0.737214D-02 -0.799452D-02  0.425940D-01
     25  0.623486D-02 -0.667487D-02 -0.497455D-02 -0.121261D-02 -0.278249D-02
     26  0.498453D-02 -0.692804D-02  0.611604D-02  0.166126D-02  0.765012D-02
     27 -0.108318D-01  0.107252D-01  0.188756D-02 -0.352679D-03  0.473799D-02
               11            12            13            14            15 
     11  0.387836D+00
     12 -0.466762D-01  0.188103D+00
     13 -0.374802D-01 -0.876826D-01  0.236136D+00
     14 -0.527972D-01 -0.794433D-01 -0.274954D-01  0.221604D+00
     15 -0.156110D-01 -0.392716D-02  0.230696D-02  0.128046D-01  0.226867D+00
     16 -0.166844D-01 -0.204799D-02  0.950596D-02  0.835945D-02  0.402860D-02
     17  0.658464D-01 -0.512126D-02 -0.344645D-02 -0.128433D-01 -0.100967D-01
     18 -0.642522D-02  0.344667D-02 -0.309595D-02 -0.166925D-02 -0.749551D-01
     19 -0.426881D-02  0.246505D-02 -0.189173D-02 -0.446901D-02 -0.577490D-01
     20 -0.625321D-02  0.248545D-02 -0.255476D-02 -0.327924D-02 -0.542154D-01
     21  0.239663D+00 -0.191336D-01 -0.189254D-01 -0.462001D-01 -0.274967D-01
     22  0.423325D-01 -0.471188D-02  0.299265D-01 -0.399261D-01 -0.649378D-02
     23 -0.500309D-01  0.584855D-01 -0.222192D-02  0.399016D-01  0.143637D-02
     24  0.811659D-01 -0.632693D-01 -0.469306D-01 -0.225352D-02 -0.488644D-02
     25  0.116690D-01 -0.178687D-04 -0.217509D-02 -0.544770D-02 -0.155657D-01
     26 -0.178563D-01  0.281174D-03  0.197181D-02  0.656084D-02  0.430374D-01
     27 -0.627698D-02  0.611067D-03  0.622564D-03  0.877198D-03 -0.172870D-01
               16            17            18            19            20 
     16  0.238156D+00
     17 -0.129031D-01  0.197747D+00
     18 -0.825690D-01 -0.423872D-01  0.150607D+00
     19 -0.547316D-01 -0.343618D-01 -0.121821D-02  0.104319D+00
     20 -0.547639D-01 -0.361404D-01 -0.217770D-02  0.197494D-01  0.105496D+00
     21 -0.105145D-01  0.112776D+00 -0.125563D-01 -0.120831D-01 -0.194236D-01
     22 -0.460972D-02  0.181474D-01 -0.144366D-02  0.100800D-02 -0.235903D-02
     23  0.467963D-02 -0.400498D-02  0.406305D-04 -0.105680D-02 -0.156628D-02
     24 -0.630606D-02  0.152510D-01 -0.878401D-03  0.533942D-03 -0.398108D-03
     25 -0.454230D-01  0.327693D-01 -0.393921D-01  0.538923D-01  0.215395D-01
     26  0.170578D-01 -0.350679D-01  0.416900D-01 -0.226737D-01 -0.539210D-01
     27  0.185298D-01 -0.877490D-02  0.236017D-02 -0.282689D-01  0.314696D-01
               21            22            23            24            25 
     21  0.663308D+00
     22  0.770880D-01  0.641642D-01
     23 -0.931049D-02 -0.398211D-01  0.656967D-01
     24  0.659394D-01 -0.262113D-01 -0.407301D-01  0.812766D-01
     25  0.978397D-02  0.841195D-03 -0.400631D-02  0.184875D-02  0.482217D-01
     26 -0.309157D-01 -0.833446D-02  0.168152D-03 -0.672858D-02 -0.416137D-01
     27 -0.155060D-01 -0.582541D-02 -0.162417D-02 -0.358531D-02 -0.195584D-01
               26            27 
     26  0.497644D-01
     27 -0.153568D-01  0.202435D-01
 Leave Link  716 at Sun May 25 04:53:43 2025, MaxMem=  3758096384 cpu:               0.0 elap:               0.0
 (Enter /apps/easybuild-2022/easybuild/software/Compiler/NVHPC/22.11-CUDA-11.7.0/Gaussian/g16c01-CUDA-11.7.0/g16/l103.exe)

 GradGradGradGradGradGradGradGradGradGradGradGradGradGradGradGradGradGrad
 Berny optimization.
 Red2BG is reusing G-inverse.
 Internal  Forces:  Max     0.058814865 RMS     0.015853949
 Search for a local minimum.
 Step number   1 out of a maximum of   37
 All quantities printed in internal units (Hartrees-Bohrs-Radians)
 RMS Force = .15854D-01 SwitMx=.10000D-02 MixMth= 1
 Mixed Optimization -- RFO/linear search
 Second derivative matrix not updated -- analytic derivatives used.
 ITU=  0
     Eigenvalues ---   -0.01884  -0.00515   0.08715   0.11550   0.16775
     Eigenvalues ---    0.18430   0.19621   0.22672   0.23337   0.24405
     Eigenvalues ---    0.26221   0.27569   0.29540   0.37546   0.39212
     Eigenvalues ---    0.42967   0.44289   0.59278   0.78295   0.79318
     Eigenvalues ---    1.04298
 Eigenvalue     1 is  -1.88D-02 should be greater than     0.000000 Eigenvector:
                          D6        D4        D5        D1        D2
   1                    0.44345   0.42789   0.42726   0.39293   0.38293
                          D3        A13       R5        A3        A5
   1                    0.36119  -0.04689   0.03791  -0.02400   0.02307
 Eigenvalue     2 is  -5.15D-03 should be greater than     0.000000 Eigenvector:
                          D1        D2        D3        D4        D6
   1                   -0.43916  -0.43475  -0.41533   0.38523   0.38307
                          D5        A13       A3        A5        A7
   1                    0.37334   0.09194   0.02753  -0.02251  -0.02188
 RFO step:  Lambda=-2.35771303D-02 EMin=-1.88405995D-02
 Linear search not attempted -- first point.
 Maximum step size (   0.300) exceeded in Quadratic search.
    -- Step size scaled by   0.757
 Iteration  1 RMS(Cart)=  0.15996599 RMS(Int)=  0.06419962
 Iteration  2 RMS(Cart)=  0.12061676 RMS(Int)=  0.00574044
 Iteration  3 RMS(Cart)=  0.00631279 RMS(Int)=  0.00040440
 Iteration  4 RMS(Cart)=  0.00001590 RMS(Int)=  0.00040431
 Iteration  5 RMS(Cart)=  0.00000001 RMS(Int)=  0.00040431
 ITry= 1 IFail=0 DXMaxC= 5.84D-01 DCOld= 1.00D+10 DXMaxT= 3.00D-01 DXLimC= 3.00D+00 Rises=F
 Variable       Old X    -DE/DX   Delta X   Delta X   Delta X     New X
                                 (Linear)    (Quad)   (Total)
    R1        2.57519  -0.00624   0.00000  -0.04576  -0.04576   2.52942
    R2        2.50076  -0.00064   0.00000  -0.01071  -0.01071   2.49005
    R3        2.49340  -0.00678   0.00000  -0.01148  -0.01148   2.48192
    R4        2.57153   0.00251   0.00000   0.02191   0.02191   2.59344
    R5        3.33274  -0.02681   0.00000  -0.25540  -0.25540   3.07734
    R6        2.66807  -0.00091   0.00000   0.00234   0.00234   2.67041
    R7        2.66353   0.00142   0.00000   0.00327   0.00327   2.66680
    R8        2.51895  -0.00042   0.00000   0.00850   0.00850   2.52746
    A1        1.87034  -0.00466   0.00000   0.00610   0.00605   1.87639
    A2        1.86489  -0.00493   0.00000   0.03533   0.03567   1.90056
    A3        1.90381   0.03517   0.00000   0.03259   0.03274   1.93654
    A4        1.88003   0.00627   0.00000   0.02273   0.02157   1.90160
    A5        1.96259  -0.00441   0.00000  -0.01865  -0.01926   1.94333
    A6        1.97680  -0.02681   0.00000  -0.07177  -0.07220   1.90460
    A7        1.87975  -0.00876   0.00000   0.01588   0.01586   1.89561
    A8        1.82624  -0.00695   0.00000  -0.00887  -0.00888   1.81736
    A9        1.71735   0.00577   0.00000   0.00976   0.00973   1.72708
   A10        2.15559   0.00400   0.00000  -0.00139  -0.00140   2.15419
   A11        1.91776   0.00180   0.00000  -0.00706  -0.00714   1.91063
   A12        1.91309   0.00346   0.00000  -0.00448  -0.00448   1.90860
   A13        1.98942   0.05881   0.00000   0.09193   0.09193   2.08135
    D1        0.54918   0.00941   0.00000  -0.04387  -0.04356   0.50562
    D2       -1.52311  -0.00528   0.00000  -0.06143  -0.06054  -1.58365
    D3        2.62355   0.01024   0.00000  -0.02254  -0.02374   2.59981
    D4        1.55043  -0.00055   0.00000  -0.38738  -0.38732   1.16311
    D5       -2.41113  -0.00607   0.00000  -0.38473  -0.38473  -2.79585
    D6       -0.44055  -0.00226   0.00000  -0.38855  -0.38862  -0.82917
         Item               Value     Threshold  Converged?
 Maximum Force            0.058815     0.000450     NO 
 RMS     Force            0.015854     0.000300     NO 
 Maximum Displacement     0.583594     0.001800     NO 
 RMS     Displacement     0.267755     0.001200     NO 
 Predicted change in Energy=-1.712760D-02
 Lowest energy point so far.  Saving SCF results.
 GradGradGradGradGradGradGradGradGradGradGradGradGradGradGradGradGradGrad

 Leave Link  103 at Sun May 25 04:53:43 2025, MaxMem=  3758096384 cpu:               0.0 elap:               0.0
 (Enter /apps/easybuild-2022/easybuild/software/Compiler/NVHPC/22.11-CUDA-11.7.0/Gaussian/g16c01-CUDA-11.7.0/g16/l202.exe)
                          Input orientation:                          
 ---------------------------------------------------------------------
 Center     Atomic      Atomic             Coordinates (Angstroms)
 Number     Number       Type             X           Y           Z
 ---------------------------------------------------------------------
      1          6           0        0.109653   -0.638522   -1.044859
      2          9           0       -0.650143    0.345248   -1.541372
      3          9           0       -0.657390   -1.701126   -0.907758
      4          9           0        1.066537   -0.910889   -1.902268
      5         16           0       -0.111861    0.798002    1.101501
      6          8           0        0.670190   -0.269270    0.152180
      7          8           0       -1.304354    0.198924    1.566230
      8          8           0        0.892287    1.297415    1.958113
      9          1           0       -0.406503    1.720387    0.178881
 ---------------------------------------------------------------------
                    Distance matrix (angstroms):
                    1          2          3          4          5
     1  C    0.000000
     2  F    1.338513   0.000000
     3  F    1.317679   2.142233   0.000000
     4  F    1.313378   2.157572   2.141366   0.000000
     5  S    2.592205   2.734870   3.252746   3.651241   0.000000
     6  O    1.372389   2.233614   2.221744   2.188498   1.628460
     7  O    3.085210   3.179088   3.185807   4.345491   1.413120
     8  O    3.657623   3.941080   4.427862   4.450788   1.411209
     9  H    2.707103   2.215770   3.598677   3.663965   1.337474
                    6          7          8          9
     6  O    0.000000
     7  O    2.473372   0.000000
     8  O    2.401088   2.487064   0.000000
     9  H    2.262458   2.246269   2.243085   0.000000
 Symmetry turned off by external request.
 Stoichiometry    CHF3O3S
 Rotational constants (GHZ):           3.6752751           1.2382837           1.1227483
 Leave Link  202 at Sun May 25 04:53:43 2025, MaxMem=  3758096384 cpu:               0.0 elap:               0.0
 (Enter /apps/easybuild-2022/easybuild/software/Compiler/NVHPC/22.11-CUDA-11.7.0/Gaussian/g16c01-CUDA-11.7.0/g16/l301.exe)
 Standard basis: def2TZVPP (5D, 7F)
 Ernie: Thresh=  0.10000D-02 Tol=  0.10000D-05 Strict=F.
   273 basis functions,   443 primitive gaussians,   315 cartesian basis functions
    37 alpha electrons       37 beta electrons
       nuclear repulsion energy       558.1480391722 Hartrees.
 IExCor= 4336 DFT=T Ex+Corr=M062X ExCW=0 ScaHFX=  0.540000
 ScaDFX=  1.000000  1.000000  1.000000  1.000000 ScalE2=  1.000000  1.000000
 IRadAn=      5 IRanWt=     -1 IRanGd=            0 ICorTp=0 IEmpDi=  4
 NAtoms=    9 NActive=    9 NUniq=    9 SFac= 1.00D+00 NAtFMM=   60 NAOKFM=F Big=F
 Integral buffers will be    131072 words long.
 Raffenetti 2 integral format.
 Two-electron integral symmetry is turned off.
 Leave Link  301 at Sun May 25 04:53:43 2025, MaxMem=  3758096384 cpu:               0.1 elap:               0.0
 (Enter /apps/easybuild-2022/easybuild/software/Compiler/NVHPC/22.11-CUDA-11.7.0/Gaussian/g16c01-CUDA-11.7.0/g16/l302.exe)
 NPDir=0 NMtPBC=     1 NCelOv=     1 NCel=       1 NClECP=     1 NCelD=      1
         NCelK=      1 NCelE2=     1 NClLst=     1 CellRange=     0.0.
 One-electron integrals computed using PRISM.
   1 Symmetry operations used in ECPInt.
 ECPInt:  NShTT=    4753 NPrTT=   15592 LenC2=    4536 LenP2D=   11392.
 LDataN:  DoStor=T MaxTD1= 6 Len=  172
 NBasis=   273 RedAO= T EigKep=  1.01D-03  NBF=   273
 NBsUse=   273 1.00D-06 EigRej= -1.00D+00 NBFU=   273
 Precomputing XC quadrature grid using
 IXCGrd= 4 IRadAn=           5 IRanWt=          -1 IRanGd=           0 AccXCQ= 0.00D+00.
 Generated NRdTot=       0 NPtTot=           0 NUsed=           0 NTot=          32
 NSgBfM=   312   312   312   312   312 MxSgAt=     9 MxSgA2=     9.
 Leave Link  302 at Sun May 25 04:53:44 2025, MaxMem=  3758096384 cpu:               0.6 elap:               0.1
 (Enter /apps/easybuild-2022/easybuild/software/Compiler/NVHPC/22.11-CUDA-11.7.0/Gaussian/g16c01-CUDA-11.7.0/g16/l303.exe)
 DipDrv:  MaxL=1.
 Leave Link  303 at Sun May 25 04:53:44 2025, MaxMem=  3758096384 cpu:               0.1 elap:               0.0
 (Enter /apps/easybuild-2022/easybuild/software/Compiler/NVHPC/22.11-CUDA-11.7.0/Gaussian/g16c01-CUDA-11.7.0/g16/l401.exe)
 Initial guess from the checkpoint file:  "1502984803620600000001_intra_H_migration_suprafacial_6_9_IRC_R_prod.chk"
 B after Tr=    -0.033595   -0.043342   -0.013619
         Rot=    0.999606    0.003976   -0.010020   -0.025921 Ang=   3.22 deg.
 Guess basis will be translated and rotated to current coordinates.
 JPrj=2 DoOrth=T DoCkMO=T.
 Generating alternative initial guess.
 ExpMin= 9.52D-02 ExpMax= 6.07D+04 ExpMxC= 2.07D+03 IAcc=3 IRadAn=         5 AccDes= 0.00D+00
 Harris functional with IExCor= 1009 and IRadAn=       5 diagonalized for initial guess.
 HarFok:  IExCor= 1009 AccDes= 0.00D+00 IRadAn=         5 IDoV= 1 UseB2=F ITyADJ=14
 ICtDFT=  3500011 ScaDFX=  1.000000  1.000000  1.000000  1.000000
 FoFCou: FMM=F IPFlag=           0 FMFlag=      100000 FMFlg1=           0
         NFxFlg=           0 DoJE=T BraDBF=F KetDBF=T FulRan=T
         wScrn=  0.000000 ICntrl=       500 IOpCl=  0 I1Cent=   200000004 NGrid=           0
         NMat0=    1 NMatS0=      1 NMatT0=    0 NMatD0=    1 NMtDS0=    0 NMtDT0=    0
 Symmetry not used in FoFCou.
 Harris En= -961.683376763408    
 Leave Link  401 at Sun May 25 04:53:44 2025, MaxMem=  3758096384 cpu:               2.7 elap:               0.4
 (Enter /apps/easybuild-2022/easybuild/software/Compiler/NVHPC/22.11-CUDA-11.7.0/Gaussian/g16c01-CUDA-11.7.0/g16/l502.exe)
 Keep R1 ints in memory in canonical form, NReq=715214082.
 FoFCou: FMM=F IPFlag=           0 FMFlag=           0 FMFlg1=           0
         NFxFlg=           0 DoJE=F BraDBF=F KetDBF=F FulRan=T
         wScrn=  0.000000 ICntrl=       600 IOpCl=  0 I1Cent=           0 NGrid=           0
         NMat0=    1 NMatS0=  37401 NMatT0=    0 NMatD0=    1 NMtDS0=    0 NMtDT0=    0
 Symmetry not used in FoFCou.
 Two-electron integral symmetry not used.
 Closed shell SCF:
 Using DIIS extrapolation, IDIIS=  1040.
 NGot=  3758096384 LenX=  3058457086 LenY=  3058357420
 Requested convergence on RMS density matrix=1.00D-08 within  32 cycles.
 Requested convergence on MAX density matrix=1.00D-06.
 Requested convergence on             energy=1.00D-06.
 No special actions if energy rises.
 Integral accuracy reduced to 1.0D-05 until final iterations.

 Cycle   1  Pass 0  IDiag  1:
 E= -961.967458180376    
 DIIS: error= 3.26D-02 at cycle   1 NSaved=   1.
 NSaved= 1 IEnMin= 1 EnMin= -961.967458180376     IErMin= 1 ErrMin= 3.26D-02
 ErrMax= 3.26D-02  0.00D+00 EMaxC= 1.00D-01 BMatC= 1.41D-01 BMatP= 1.41D-01
 IDIUse=3 WtCom= 6.74D-01 WtEn= 3.26D-01
 Coeff-Com:  0.100D+01
 Coeff-En:   0.100D+01
 Coeff:      0.100D+01
 Recover alternate guess density for next cycle.
 RMSDP=1.99D-03 MaxDP=1.06D-01              OVMax= 0.00D+00

 Cycle   2  Pass 0  IDiag  1:
 E= -961.846077873460     Delta-E=        0.121380306916 Rises=F Damp=F
 Switch densities from cycles 1 and 2 for lowest energy.
 DIIS: error= 3.23D-02 at cycle   2 NSaved=   2.
 NSaved= 2 IEnMin= 1 EnMin= -961.967458180376     IErMin= 2 ErrMin= 3.23D-02
 ErrMax= 3.23D-02  0.00D+00 EMaxC= 1.00D+00 BMatC= 5.26D-01 BMatP= 1.41D-01
 IDIUse=1 WtCom= 1.00D+00 WtEn= 0.00D+00
 Coeff-Com:  0.825D+00 0.175D+00
 Coeff:      0.825D+00 0.175D+00
 Gap=     0.490 Goal=   None    Shift=    0.000
 RMSDP=1.26D-03 MaxDP=3.64D-02 DE= 1.21D-01 OVMax= 1.16D-01

 Cycle   3  Pass 0  IDiag  1:
 E= -962.090499944067     Delta-E=       -0.244422070607 Rises=F Damp=F
 DIIS: error= 9.44D-03 at cycle   3 NSaved=   3.
 NSaved= 3 IEnMin= 3 EnMin= -962.090499944067     IErMin= 3 ErrMin= 9.44D-03
 ErrMax= 9.44D-03  0.00D+00 EMaxC= 1.00D+00 BMatC= 4.48D-02 BMatP= 1.41D-01
 IDIUse=1 WtCom= 1.00D+00 WtEn= 0.00D+00
 Coeff-Com:  0.993D-02 0.206D+00 0.784D+00
 Coeff:      0.993D-02 0.206D+00 0.784D+00
 Gap=     0.477 Goal=   None    Shift=    0.000
 RMSDP=5.30D-04 MaxDP=4.85D-02 DE=-2.44D-01 OVMax= 4.34D-02

 Cycle   4  Pass 0  IDiag  1:
 E= -962.118602265057     Delta-E=       -0.028102320990 Rises=F Damp=F
 DIIS: error= 3.00D-03 at cycle   4 NSaved=   4.
 NSaved= 4 IEnMin= 4 EnMin= -962.118602265057     IErMin= 4 ErrMin= 3.00D-03
 ErrMax= 3.00D-03  0.00D+00 EMaxC= 1.00D+00 BMatC= 5.02D-03 BMatP= 4.48D-02
 IDIUse=1 WtCom= 1.00D+00 WtEn= 0.00D+00
 Coeff-Com: -0.372D-01 0.503D-01 0.321D+00 0.666D+00
 Coeff:     -0.372D-01 0.503D-01 0.321D+00 0.666D+00
 Gap=     0.468 Goal=   None    Shift=    0.000
 RMSDP=1.56D-04 MaxDP=1.06D-02 DE=-2.81D-02 OVMax= 1.45D-02

 Cycle   5  Pass 0  IDiag  1:
 E= -962.121575915216     Delta-E=       -0.002973650159 Rises=F Damp=F
 DIIS: error= 9.80D-04 at cycle   5 NSaved=   5.
 NSaved= 5 IEnMin= 5 EnMin= -962.121575915216     IErMin= 5 ErrMin= 9.80D-04
 ErrMax= 9.80D-04  0.00D+00 EMaxC= 1.00D+00 BMatC= 7.34D-04 BMatP= 5.02D-03
 IDIUse=1 WtCom= 1.00D+00 WtEn= 0.00D+00
 Coeff-Com: -0.147D-01-0.290D-02 0.693D-01 0.336D+00 0.612D+00
 Coeff:     -0.147D-01-0.290D-02 0.693D-01 0.336D+00 0.612D+00
 Gap=     0.467 Goal=   None    Shift=    0.000
 RMSDP=4.69D-05 MaxDP=2.81D-03 DE=-2.97D-03 OVMax= 4.32D-03

 Cycle   6  Pass 0  IDiag  1:
 E= -962.122037476242     Delta-E=       -0.000461561026 Rises=F Damp=F
 DIIS: error= 1.24D-04 at cycle   6 NSaved=   6.
 NSaved= 6 IEnMin= 6 EnMin= -962.122037476242     IErMin= 6 ErrMin= 1.24D-04
 ErrMax= 1.24D-04  0.00D+00 EMaxC= 1.00D+00 BMatC= 1.07D-05 BMatP= 7.34D-04
 IDIUse=1 WtCom= 1.00D+00 WtEn= 0.00D+00
 Coeff-Com: -0.203D-02-0.216D-02-0.128D-02 0.428D-01 0.136D+00 0.826D+00
 Coeff:     -0.203D-02-0.216D-02-0.128D-02 0.428D-01 0.136D+00 0.826D+00
 Gap=     0.467 Goal=   None    Shift=    0.000
 RMSDP=1.07D-05 MaxDP=7.81D-04 DE=-4.62D-04 OVMax= 7.36D-04

 Cycle   7  Pass 0  IDiag  1:
 E= -962.122045216262     Delta-E=       -0.000007740020 Rises=F Damp=F
 DIIS: error= 6.69D-05 at cycle   7 NSaved=   7.
 NSaved= 7 IEnMin= 7 EnMin= -962.122045216262     IErMin= 7 ErrMin= 6.69D-05
 ErrMax= 6.69D-05  0.00D+00 EMaxC= 1.00D+00 BMatC= 3.07D-06 BMatP= 1.07D-05
 IDIUse=1 WtCom= 1.00D+00 WtEn= 0.00D+00
 Coeff-Com:  0.352D-04-0.734D-03-0.631D-02-0.635D-02 0.171D-01 0.398D+00
 Coeff-Com:  0.598D+00
 Coeff:      0.352D-04-0.734D-03-0.631D-02-0.635D-02 0.171D-01 0.398D+00
 Coeff:      0.598D+00
 Gap=     0.467 Goal=   None    Shift=    0.000
 RMSDP=3.63D-06 MaxDP=1.70D-04 DE=-7.74D-06 OVMax= 3.00D-04

 Initial convergence to 1.0D-05 achieved.  Increase integral accuracy.
 Cycle   8  Pass 1  IDiag  1:
 E= -962.122037178644     Delta-E=        0.000008037618 Rises=F Damp=F
 DIIS: error= 3.72D-05 at cycle   1 NSaved=   1.
 NSaved= 1 IEnMin= 1 EnMin= -962.122037178644     IErMin= 1 ErrMin= 3.72D-05
 ErrMax= 3.72D-05  0.00D+00 EMaxC= 1.00D+00 BMatC= 7.94D-07 BMatP= 7.94D-07
 IDIUse=1 WtCom= 1.00D+00 WtEn= 0.00D+00
 Coeff-Com:  0.100D+01
 Coeff:      0.100D+01
 Gap=     0.467 Goal=   None    Shift=    0.000
 RMSDP=3.63D-06 MaxDP=1.70D-04 DE= 8.04D-06 OVMax= 1.77D-04

 Cycle   9  Pass 1  IDiag  1:
 E= -962.122037595359     Delta-E=       -0.000000416714 Rises=F Damp=F
 DIIS: error= 1.72D-05 at cycle   2 NSaved=   2.
 NSaved= 2 IEnMin= 2 EnMin= -962.122037595359     IErMin= 2 ErrMin= 1.72D-05
 ErrMax= 1.72D-05  0.00D+00 EMaxC= 1.00D+00 BMatC= 1.75D-07 BMatP= 7.94D-07
 IDIUse=1 WtCom= 1.00D+00 WtEn= 0.00D+00
 Coeff-Com:  0.218D+00 0.782D+00
 Coeff:      0.218D+00 0.782D+00
 Gap=     0.467 Goal=   None    Shift=    0.000
 RMSDP=1.39D-06 MaxDP=5.22D-05 DE=-4.17D-07 OVMax= 1.49D-04

 Cycle  10  Pass 1  IDiag  1:
 E= -962.122037620776     Delta-E=       -0.000000025417 Rises=F Damp=F
 DIIS: error= 1.75D-05 at cycle   3 NSaved=   3.
 NSaved= 3 IEnMin= 3 EnMin= -962.122037620776     IErMin= 2 ErrMin= 1.72D-05
 ErrMax= 1.75D-05  0.00D+00 EMaxC= 1.00D+00 BMatC= 1.33D-07 BMatP= 1.75D-07
 IDIUse=1 WtCom= 1.00D+00 WtEn= 0.00D+00
 Coeff-Com: -0.395D-01 0.471D+00 0.568D+00
 Coeff:     -0.395D-01 0.471D+00 0.568D+00
 Gap=     0.467 Goal=   None    Shift=    0.000
 RMSDP=7.38D-07 MaxDP=2.96D-05 DE=-2.54D-08 OVMax= 8.59D-05

 Cycle  11  Pass 1  IDiag  1:
 E= -962.122037707784     Delta-E=       -0.000000087009 Rises=F Damp=F
 DIIS: error= 2.19D-06 at cycle   4 NSaved=   4.
 NSaved= 4 IEnMin= 4 EnMin= -962.122037707784     IErMin= 4 ErrMin= 2.19D-06
 ErrMax= 2.19D-06  0.00D+00 EMaxC= 1.00D+00 BMatC= 3.05D-09 BMatP= 1.33D-07
 IDIUse=1 WtCom= 1.00D+00 WtEn= 0.00D+00
 Coeff-Com: -0.225D-01 0.178D+00 0.252D+00 0.593D+00
 Coeff:     -0.225D-01 0.178D+00 0.252D+00 0.593D+00
 Gap=     0.467 Goal=   None    Shift=    0.000
 RMSDP=1.24D-07 MaxDP=5.39D-06 DE=-8.70D-08 OVMax= 1.45D-05

 Cycle  12  Pass 1  IDiag  1:
 E= -962.122037709785     Delta-E=       -0.000000002001 Rises=F Damp=F
 DIIS: error= 5.31D-07 at cycle   5 NSaved=   5.
 NSaved= 5 IEnMin= 5 EnMin= -962.122037709785     IErMin= 5 ErrMin= 5.31D-07
 ErrMax= 5.31D-07  0.00D+00 EMaxC= 1.00D+00 BMatC= 2.54D-10 BMatP= 3.05D-09
 IDIUse=1 WtCom= 1.00D+00 WtEn= 0.00D+00
 Coeff-Com: -0.468D-03-0.256D-01-0.153D-01 0.192D+00 0.849D+00
 Coeff:     -0.468D-03-0.256D-01-0.153D-01 0.192D+00 0.849D+00
 Gap=     0.467 Goal=   None    Shift=    0.000
 RMSDP=5.43D-08 MaxDP=2.02D-06 DE=-2.00D-09 OVMax= 5.70D-06

 Cycle  13  Pass 1  IDiag  1:
 E= -962.122037709990     Delta-E=       -0.000000000205 Rises=F Damp=F
 DIIS: error= 2.19D-07 at cycle   6 NSaved=   6.
 NSaved= 6 IEnMin= 6 EnMin= -962.122037709990     IErMin= 6 ErrMin= 2.19D-07
 ErrMax= 2.19D-07  0.00D+00 EMaxC= 1.00D+00 BMatC= 3.05D-11 BMatP= 2.54D-10
 IDIUse=1 WtCom= 1.00D+00 WtEn= 0.00D+00
 Coeff-Com:  0.166D-02-0.246D-01-0.278D-01 0.179D-01 0.322D+00 0.711D+00
 Coeff:      0.166D-02-0.246D-01-0.278D-01 0.179D-01 0.322D+00 0.711D+00
 Gap=     0.467 Goal=   None    Shift=    0.000
 RMSDP=1.89D-08 MaxDP=1.05D-06 DE=-2.05D-10 OVMax= 1.62D-06

 Cycle  14  Pass 1  IDiag  1:
 E= -962.122037710041     Delta-E=       -0.000000000051 Rises=F Damp=F
 DIIS: error= 5.98D-08 at cycle   7 NSaved=   7.
 NSaved= 7 IEnMin= 7 EnMin= -962.122037710041     IErMin= 7 ErrMin= 5.98D-08
 ErrMax= 5.98D-08  0.00D+00 EMaxC= 1.00D+00 BMatC= 2.92D-12 BMatP= 3.05D-11
 IDIUse=1 WtCom= 1.00D+00 WtEn= 0.00D+00
 Coeff-Com:  0.670D-03-0.583D-02-0.853D-02-0.174D-01 0.333D-02 0.234D+00
 Coeff-Com:  0.793D+00
 Coeff:      0.670D-03-0.583D-02-0.853D-02-0.174D-01 0.333D-02 0.234D+00
 Coeff:      0.793D+00
 Gap=     0.467 Goal=   None    Shift=    0.000
 RMSDP=6.62D-09 MaxDP=2.94D-07 DE=-5.09D-11 OVMax= 7.22D-07

 SCF Done:  E(RM062X) =  -962.122037710     A.U. after   14 cycles
            NFock= 14  Conv=0.66D-08     -V/T= 2.0027
 KE= 9.595618103429D+02 PE=-3.397798427547D+03 EE= 9.179665403216D+02
 Leave Link  502 at Sun May 25 04:53:58 2025, MaxMem=  3758096384 cpu:              66.1 elap:              14.2
 (Enter /apps/easybuild-2022/easybuild/software/Compiler/NVHPC/22.11-CUDA-11.7.0/Gaussian/g16c01-CUDA-11.7.0/g16/l508.exe)
 QCSCF skips out because SCF is already converged.
 Leave Link  508 at Sun May 25 04:53:58 2025, MaxMem=  3758096384 cpu:               0.0 elap:               0.0
 (Enter /apps/easybuild-2022/easybuild/software/Compiler/NVHPC/22.11-CUDA-11.7.0/Gaussian/g16c01-CUDA-11.7.0/g16/l701.exe)
 ... and contract with generalized density number  0.
 Compute integral first derivatives.
   1 Symmetry operations used in ECPInt.
 ECPInt:  NShTT=    4753 NPrTT=   15592 LenC2=    4536 LenP2D=   11392.
 LDataN:  DoStor=T MaxTD1= 7 Len=  274
 Leave Link  701 at Sun May 25 04:53:58 2025, MaxMem=  3758096384 cpu:               0.5 elap:               0.1
 (Enter /apps/easybuild-2022/easybuild/software/Compiler/NVHPC/22.11-CUDA-11.7.0/Gaussian/g16c01-CUDA-11.7.0/g16/l702.exe)
 L702 exits ... SP integral derivatives will be done elsewhere.
 Leave Link  702 at Sun May 25 04:53:59 2025, MaxMem=  3758096384 cpu:               0.0 elap:               0.0
 (Enter /apps/easybuild-2022/easybuild/software/Compiler/NVHPC/22.11-CUDA-11.7.0/Gaussian/g16c01-CUDA-11.7.0/g16/l703.exe)
 Integral derivatives from FoFJK, PRISM(SPDF).
 Compute integral first derivatives, UseDBF=F ICtDFT=           0.
 Calling FoFJK, ICntrl=      2127 FMM=F ISym2X=0 I1Cent= 0 IOpClX= 0 NMat=1 NMatS=1 NMatT=0.
 FoFJK:  IHMeth= 1 ICntrl=    2127 DoSepK=F KAlg= 0 I1Cent=           0 FoldK=F
 IRaf=         0 NMat=       1 IRICut=       1 DoRegI=T DoRafI=F ISym2E= 0 IDoP0=0 IntGTp=1.
 FoFCou: FMM=F IPFlag=           0 FMFlag=      100000 FMFlg1=         800
         NFxFlg=           0 DoJE=F BraDBF=F KetDBF=F FulRan=T
         wScrn=  0.000000 ICntrl=      2127 IOpCl=  0 I1Cent=           0 NGrid=           0
         NMat0=    1 NMatS0=      1 NMatT0=    0 NMatD0=    1 NMtDS0=    0 NMtDT0=    0
 Symmetry not used in FoFCou.
 Leave Link  703 at Sun May 25 04:54:04 2025, MaxMem=  3758096384 cpu:              41.2 elap:               5.2
 (Enter /apps/easybuild-2022/easybuild/software/Compiler/NVHPC/22.11-CUDA-11.7.0/Gaussian/g16c01-CUDA-11.7.0/g16/l716.exe)
 Dipole        =-7.10431409D-02 4.55417613D-01-8.67808795D-01
 -------------------------------------------------------------------
 Center     Atomic                   Forces (Hartrees/Bohr)
 Number     Number              X              Y              Z
 -------------------------------------------------------------------
      1        6          -0.006489017   -0.004206838    0.001032511
      2        9           0.002361546   -0.001401254   -0.002949915
      3        9           0.000628581   -0.000794840    0.001203822
      4        9           0.001149941    0.001605863    0.002356582
      5       16           0.003404566   -0.000801104    0.007045768
      6        8           0.000545414    0.005258985   -0.007605226
      7        8          -0.001124686    0.000203887   -0.002113449
      8        8          -0.000245010   -0.001093877    0.001430632
      9        1          -0.000231335    0.001229177   -0.000400725
 -------------------------------------------------------------------
 Cartesian Forces:  Max     0.007605226 RMS     0.003027742
 Leave Link  716 at Sun May 25 04:54:04 2025, MaxMem=  3758096384 cpu:               0.0 elap:               0.0
 (Enter /apps/easybuild-2022/easybuild/software/Compiler/NVHPC/22.11-CUDA-11.7.0/Gaussian/g16c01-CUDA-11.7.0/g16/l103.exe)

 GradGradGradGradGradGradGradGradGradGradGradGradGradGradGradGradGradGrad
 Berny optimization.
 Using GEDIIS/GDIIS optimizer.
 FormGI is forming the generalized inverse of G from B-inverse, IUseBI=4.
 Internal  Forces:  Max     0.015103399 RMS     0.003895111
 Search for a local minimum.
 Step number   2 out of a maximum of   37
 All quantities printed in internal units (Hartrees-Bohrs-Radians)
 RMS Force = .38951D-02 SwitMx=.10000D-02 MixMth= 1
 Mixed Optimization -- RFO/linear search
 Update second derivatives using D2CorX and points    1    2
 DE= -1.39D-02 DEPred=-1.71D-02 R= 8.14D-01
 TightC=F SS=  1.41D+00  RLast= 7.35D-01 DXNew= 5.0454D-01 2.2060D+00
 Trust test= 8.14D-01 RLast= 7.35D-01 DXMaxT set to 5.05D-01
 ITU=  1  0
 Use linear search instead of GDIIS.
     Eigenvalues ---   -0.25976  -0.00552   0.04974   0.11614   0.15576
     Eigenvalues ---    0.17895   0.19605   0.20366   0.23331   0.24167
     Eigenvalues ---    0.24618   0.27264   0.29141   0.33356   0.39138
     Eigenvalues ---    0.40551   0.44183   0.58795   0.75942   0.79200
     Eigenvalues ---    0.79796
 Eigenvalue     1 is  -2.60D-01 should be greater than     0.000000 Eigenvector:
                          A13       R5        D6        A6        D4
   1                    0.44594  -0.41663   0.33133  -0.31202   0.29529
                          D1        D5        D3        A3        D2
   1                    0.28023   0.27851   0.25619   0.22520   0.14332
 Eigenvalue     2 is  -5.52D-03 should be greater than     0.000000 Eigenvector:
                          D1        D2        D3        D4        D6
   1                   -0.49953  -0.49589  -0.47216   0.30291   0.29988
                          D5        A13       A3        A5        A7
   1                    0.29171   0.10720   0.03494  -0.02741  -0.02030
 RFO step:  Lambda=-2.59776406D-01 EMin=-2.59757583D-01
 I=     1 Eig=   -2.60D-01 Dot1= -1.33D-03
 I=     1 Stepn= -6.00D-01 RXN=   6.00D-01 EDone=F
 I=     2 Eig=   -5.52D-03 Dot1= -5.21D-04
 I=     2 Stepn= -3.00D-01 RXN=   6.71D-01 EDone=F
 Mixed    2 eigenvectors in step.  Raw Step.Grad=  1.85D-03.
 RFO eigenvector is Hessian eigenvector with negative curvature.
 Taking step of  6.00D-01 in eigenvector direction(s).  Step.Grad= -1.76D-03.
 Quartic linear search produced a step of  0.21706.
 Iteration  1 RMS(Cart)=  0.20542251 RMS(Int)=  0.05576717
 Iteration  2 RMS(Cart)=  0.10642335 RMS(Int)=  0.00466621
 Iteration  3 RMS(Cart)=  0.00576356 RMS(Int)=  0.00164036
 Iteration  4 RMS(Cart)=  0.00002112 RMS(Int)=  0.00164030
 Iteration  5 RMS(Cart)=  0.00000002 RMS(Int)=  0.00164030
 ITry= 1 IFail=0 DXMaxC= 6.92D-01 DCOld= 1.00D+10 DXMaxT= 5.05D-01 DXLimC= 3.00D+00 Rises=F
 Variable       Old X    -DE/DX   Delta X   Delta X   Delta X     New X
                                 (Linear)    (Quad)   (Total)
    R1        2.52942  -0.00127  -0.00993   0.05380   0.04387   2.57329
    R2        2.49005   0.00041  -0.00232  -0.00378  -0.00611   2.48394
    R3        2.48192  -0.00104  -0.00249   0.02474   0.02225   2.50417
    R4        2.59344   0.00083   0.00476   0.03482   0.03958   2.63302
    R5        3.07734   0.00229  -0.05544   0.22754   0.17211   3.24945
    R6        2.67041   0.00016   0.00051   0.00486   0.00537   2.67578
    R7        2.66680   0.00031   0.00071  -0.00128  -0.00057   2.66623
    R8        2.52746   0.00117   0.00185  -0.02369  -0.02184   2.50562
    A1        1.87639   0.00171   0.00131  -0.00144  -0.00127   1.87511
    A2        1.90056  -0.00188   0.00774  -0.01624  -0.00554   1.89502
    A3        1.93654   0.00657   0.00711  -0.13023  -0.12195   1.81459
    A4        1.90160   0.00192   0.00468  -0.04606  -0.04504   1.85655
    A5        1.94333  -0.00144  -0.00418   0.02466   0.01765   1.96099
    A6        1.90460  -0.00681  -0.01567   0.16594   0.14944   2.05404
    A7        1.89561  -0.00182   0.00344   0.04835   0.05124   1.94685
    A8        1.81736   0.00090  -0.00193   0.01011   0.00773   1.82510
    A9        1.72708   0.00103   0.00211   0.00302   0.00479   1.73187
   A10        2.15419   0.00050  -0.00030  -0.02169  -0.02263   2.13156
   A11        1.91063  -0.00128  -0.00155   0.00141  -0.00072   1.90990
   A12        1.90860   0.00085  -0.00097  -0.03218  -0.03340   1.87521
   A13        2.08135   0.01510   0.01995  -0.26808  -0.24813   1.83322
    D1        0.50562   0.00370  -0.00945  -0.01635  -0.02251   0.48311
    D2       -1.58365  -0.00188  -0.01314   0.05615   0.04462  -1.53903
    D3        2.59981   0.00109  -0.00515  -0.01079  -0.02086   2.57895
    D4        1.16311  -0.00426  -0.08407  -0.23975  -0.32380   0.83932
    D5       -2.79585  -0.00421  -0.08351  -0.22774  -0.31099  -3.10684
    D6       -0.82917  -0.00271  -0.08435  -0.25828  -0.34291  -1.17208
         Item               Value     Threshold  Converged?
 Maximum Force            0.015103     0.000450     NO 
 RMS     Force            0.003895     0.000300     NO 
 Maximum Displacement     0.691946     0.001800     NO 
 RMS     Displacement     0.290118     0.001200     NO 
 Predicted change in Energy=-4.118232D-02
 Lowest energy point so far.  Saving SCF results.
 GradGradGradGradGradGradGradGradGradGradGradGradGradGradGradGradGradGrad

 Leave Link  103 at Sun May 25 04:54:04 2025, MaxMem=  3758096384 cpu:               0.0 elap:               0.0
 (Enter /apps/easybuild-2022/easybuild/software/Compiler/NVHPC/22.11-CUDA-11.7.0/Gaussian/g16c01-CUDA-11.7.0/g16/l202.exe)
                          Input orientation:                          
 ---------------------------------------------------------------------
 Center     Atomic      Atomic             Coordinates (Angstroms)
 Number     Number       Type             X           Y           Z
 ---------------------------------------------------------------------
      1          6           0        0.163216   -0.663448   -0.979356
      2          9           0       -0.714189    0.359342   -1.175210
      3          9           0       -0.541121   -1.741859   -0.717236
      4          9           0        0.797636   -0.899410   -2.118593
      5         16           0       -0.110169    0.791482    1.008033
      6          8           0        0.924333   -0.249367    0.111797
      7          8           0       -1.386657    0.211505    1.205890
      8          8           0        0.684423    1.241518    2.083559
      9          1           0       -0.209058    1.790405    0.141763
 ---------------------------------------------------------------------
                    Distance matrix (angstroms):
                    1          2          3          4          5
     1  C    0.000000
     2  F    1.361726   0.000000
     3  F    1.314446   2.157484   0.000000
     4  F    1.325152   2.181752   2.113242   0.000000
     5  S    2.478159   2.306108   3.095172   3.668653   0.000000
     6  O    1.393333   2.170638   2.249975   2.326639   1.719535
     7  O    2.818324   2.478650   2.868620   4.130067   1.415960
     8  O    3.644448   3.654303   4.271645   4.717465   1.410910
     9  H    2.723397   2.009358   3.650347   3.654825   1.325915
                    6          7          8          9
     6  O    0.000000
     7  O    2.598099   0.000000
     8  O    2.483574   2.473985   0.000000
     9  H    2.333697   2.238757   2.206844   0.000000
 Symmetry turned off by external request.
 Stoichiometry    CHF3O3S
 Rotational constants (GHZ):           3.9537979           1.3065007           1.1989219
 Leave Link  202 at Sun May 25 04:54:04 2025, MaxMem=  3758096384 cpu:               0.0 elap:               0.0
 (Enter /apps/easybuild-2022/easybuild/software/Compiler/NVHPC/22.11-CUDA-11.7.0/Gaussian/g16c01-CUDA-11.7.0/g16/l301.exe)
 Standard basis: def2TZVPP (5D, 7F)
 Ernie: Thresh=  0.10000D-02 Tol=  0.10000D-05 Strict=F.
   273 basis functions,   443 primitive gaussians,   315 cartesian basis functions
    37 alpha electrons       37 beta electrons
       nuclear repulsion energy       567.1441988211 Hartrees.
 IExCor= 4336 DFT=T Ex+Corr=M062X ExCW=0 ScaHFX=  0.540000
 ScaDFX=  1.000000  1.000000  1.000000  1.000000 ScalE2=  1.000000  1.000000
 IRadAn=      5 IRanWt=     -1 IRanGd=            0 ICorTp=0 IEmpDi=  4
 NAtoms=    9 NActive=    9 NUniq=    9 SFac= 1.00D+00 NAtFMM=   60 NAOKFM=F Big=F
 Integral buffers will be    131072 words long.
 Raffenetti 2 integral format.
 Two-electron integral symmetry is turned off.
 Leave Link  301 at Sun May 25 04:54:04 2025, MaxMem=  3758096384 cpu:               0.0 elap:               0.0
 (Enter /apps/easybuild-2022/easybuild/software/Compiler/NVHPC/22.11-CUDA-11.7.0/Gaussian/g16c01-CUDA-11.7.0/g16/l302.exe)
 NPDir=0 NMtPBC=     1 NCelOv=     1 NCel=       1 NClECP=     1 NCelD=      1
         NCelK=      1 NCelE2=     1 NClLst=     1 CellRange=     0.0.
 One-electron integrals computed using PRISM.
   1 Symmetry operations used in ECPInt.
 ECPInt:  NShTT=    4753 NPrTT=   15592 LenC2=    4553 LenP2D=   11507.
 LDataN:  DoStor=T MaxTD1= 6 Len=  172
 NBasis=   273 RedAO= T EigKep=  9.40D-04  NBF=   273
 NBsUse=   273 1.00D-06 EigRej= -1.00D+00 NBFU=   273
 Precomputing XC quadrature grid using
 IXCGrd= 4 IRadAn=           5 IRanWt=          -1 IRanGd=           0 AccXCQ= 0.00D+00.
 Generated NRdTot=       0 NPtTot=           0 NUsed=           0 NTot=          32
 NSgBfM=   313   313   313   313   313 MxSgAt=     9 MxSgA2=     9.
 Leave Link  302 at Sun May 25 04:54:04 2025, MaxMem=  3758096384 cpu:               0.6 elap:               0.1
 (Enter /apps/easybuild-2022/easybuild/software/Compiler/NVHPC/22.11-CUDA-11.7.0/Gaussian/g16c01-CUDA-11.7.0/g16/l303.exe)
 DipDrv:  MaxL=1.
 Leave Link  303 at Sun May 25 04:54:04 2025, MaxMem=  3758096384 cpu:               0.1 elap:               0.0
 (Enter /apps/easybuild-2022/easybuild/software/Compiler/NVHPC/22.11-CUDA-11.7.0/Gaussian/g16c01-CUDA-11.7.0/g16/l401.exe)
 Initial guess from the checkpoint file:  "1502984803620600000001_intra_H_migration_suprafacial_6_9_IRC_R_prod.chk"
 B after Tr=    -0.044039   -0.011639   -0.007891
         Rot=    0.999817    0.000682   -0.009372   -0.016679 Ang=   2.19 deg.
 Guess basis will be translated and rotated to current coordinates.
 JPrj=2 DoOrth=T DoCkMO=T.
 Generating alternative initial guess.
 ExpMin= 9.52D-02 ExpMax= 6.07D+04 ExpMxC= 2.07D+03 IAcc=3 IRadAn=         5 AccDes= 0.00D+00
 Harris functional with IExCor= 1009 and IRadAn=       5 diagonalized for initial guess.
 HarFok:  IExCor= 1009 AccDes= 0.00D+00 IRadAn=         5 IDoV= 1 UseB2=F ITyADJ=14
 ICtDFT=  3500011 ScaDFX=  1.000000  1.000000  1.000000  1.000000
[...]
     21 -0.401080D-02  0.941941D-02  0.470831D-04 -0.195127D-02 -0.150419D-01
     22 -0.300151D-02  0.418701D-03 -0.501140D-03  0.545769D-01 -0.631408D-01
     23  0.293379D-02 -0.201057D-03  0.406414D-03 -0.533248D-01  0.924292D-03
     24  0.118786D-02  0.406084D-03 -0.743117D-03  0.604296D-03  0.572952D-01
     25  0.469875D-02 -0.850776D-02 -0.631246D-03  0.208095D-02 -0.115206D-02
     26  0.727247D-02 -0.435313D-02  0.324298D-03  0.130984D-02 -0.112972D-02
     27 -0.117117D-01  0.124363D-01 -0.170456D-03  0.541179D-03  0.121623D-03
               11            12            13            14            15 
     11  0.264059D+00
     12 -0.385310D-01  0.182652D+00
     13 -0.267405D-01 -0.810461D-01  0.250929D+00
     14 -0.260084D-01 -0.885960D-01 -0.272736D-01  0.261259D+00
     15  0.340271D-02 -0.105454D-01  0.164057D-01 -0.605494D-02  0.283243D+00
     16  0.239178D-03 -0.218374D-02 -0.165481D-02  0.115545D-01 -0.198073D-01
     17  0.141907D-02  0.434492D-03  0.186082D-02  0.227904D-02 -0.114876D-01
     18 -0.441417D-02  0.493670D-02 -0.567274D-02 -0.656928D-03 -0.911229D-01
     19  0.183948D-02  0.313804D-02 -0.559535D-02 -0.301914D-02 -0.683910D-01
     20 -0.110564D-02  0.250927D-02 -0.268362D-02 -0.285565D-02 -0.600436D-01
     21  0.141001D-01 -0.145614D-01  0.199212D-01 -0.379388D-02  0.213048D-01
     22  0.110788D-01 -0.166849D-02  0.348944D-01 -0.403043D-01  0.428841D-02
     23 -0.378144D-01  0.617565D-01 -0.126618D-01  0.446047D-01 -0.114087D-01
     24  0.416159D-01 -0.582171D-01 -0.426422D-01  0.256409D-02 -0.421601D-02
     25  0.447317D-02  0.874399D-03 -0.256298D-02 -0.380533D-02 -0.187112D-01
     26  0.142459D-02 -0.180603D-02  0.444617D-03 -0.374426D-03  0.482707D-01
     27  0.787286D-03  0.442371D-03 -0.221820D-02  0.365645D-03 -0.246931D-01
               16            17            18            19            20 
     16  0.275936D+00
     17 -0.121471D-01  0.193377D+00
     18 -0.898906D-01 -0.376610D-01  0.157598D+00
     19 -0.569228D-01 -0.378358D-01  0.523514D-02  0.112555D+00
     20 -0.643774D-01 -0.347570D-01  0.408876D-02  0.222685D-01  0.113900D+00
     21  0.515164D-02 -0.471197D-03 -0.123974D-01 -0.563931D-02 -0.389839D-02
     22 -0.408218D-02  0.360725D-03 -0.155242D-02  0.120846D-02  0.116981D-03
     23  0.478025D-02  0.219096D-02  0.276098D-02  0.901934D-03  0.440128D-03
     24  0.105761D-02 -0.882179D-03  0.446190D-03  0.225201D-02  0.754388D-03
     25 -0.472461D-01  0.325875D-01 -0.366195D-01  0.563857D-01  0.231735D-01
     26  0.274774D-01 -0.319894D-01  0.336840D-01 -0.262588D-01 -0.605858D-01
     27  0.268144D-01 -0.709045D-02  0.191817D-02 -0.301277D-01  0.322028D-01
               21            22            23            24            25 
     21  0.257364D+00
     22  0.857439D-02  0.684270D-01
     23 -0.125957D-01 -0.333125D-01  0.702270D-01
     24 -0.397807D-02 -0.259718D-01 -0.264871D-01  0.681482D-01
     25  0.242278D-02  0.355833D-02 -0.473504D-03  0.237913D-02  0.562458D-01
     26  0.531147D-02  0.158059D-02 -0.140304D-02  0.788958D-03 -0.377673D-01
     27  0.234575D-02  0.761802D-03  0.104969D-02  0.157118D-02 -0.144498D-01
               26            27 
     26  0.585817D-01
     27 -0.952558D-02  0.293703D-01
 Leave Link  716 at Sun May 25 04:59:19 2025, MaxMem=  3758096384 cpu:               0.1 elap:               0.0
 (Enter /apps/easybuild-2022/easybuild/software/Compiler/NVHPC/22.11-CUDA-11.7.0/Gaussian/g16c01-CUDA-11.7.0/g16/l103.exe)

 GradGradGradGradGradGradGradGradGradGradGradGradGradGradGradGradGradGrad
 Berny optimization.
 Red2BG is reusing G-inverse.
 Internal  Forces:  Max     0.000219918 RMS     0.000052769
 Search for a local minimum.
 Step number   1 out of a maximum of    2
 All quantities printed in internal units (Hartrees-Bohrs-Radians)
 Second derivative matrix not updated -- analytic derivatives used.
 ITU=  0
     Eigenvalues ---    0.00467   0.01231   0.12422   0.16682   0.18803
     Eigenvalues ---    0.19809   0.20092   0.22170   0.25177   0.26641
     Eigenvalues ---    0.27613   0.29009   0.31576   0.34189   0.43952
     Eigenvalues ---    0.45445   0.46862   0.53696   0.61652   0.77808
     Eigenvalues ---    0.79496
 Angle between quadratic step and forces=  71.04 degrees.
 Linear search not attempted -- first point.
 Iteration  1 RMS(Cart)=  0.00097614 RMS(Int)=  0.00000049
 Iteration  2 RMS(Cart)=  0.00000082 RMS(Int)=  0.00000000
 ITry= 1 IFail=0 DXMaxC= 2.39D-03 DCOld= 1.00D+10 DXMaxT= 3.00D-01 DXLimC= 3.00D+00 Rises=F
 Variable       Old X    -DE/DX   Delta X   Delta X   Delta X     New X
                                 (Linear)    (Quad)   (Total)
    R1        2.51432  -0.00002   0.00000  -0.00003  -0.00003   2.51429
    R2        2.48520  -0.00001   0.00000  -0.00003  -0.00003   2.48517
    R3        2.48464   0.00001   0.00000   0.00004   0.00004   2.48469
    R4        2.60090   0.00003   0.00000  -0.00006  -0.00006   2.60084
    R5        3.06232   0.00005   0.00000  -0.00001  -0.00001   3.06231
    R6        2.67124  -0.00002   0.00000  -0.00002  -0.00002   2.67122
    R7        2.66449  -0.00000   0.00000  -0.00001  -0.00001   2.66448
    R8        2.53714   0.00003   0.00000   0.00011   0.00011   2.53725
    A1        1.89744   0.00001   0.00000   0.00003   0.00003   1.89746
    A2        1.90142   0.00002   0.00000   0.00008   0.00008   1.90149
    A3        1.93453  -0.00004   0.00000  -0.00009  -0.00009   1.93444
    A4        1.90814  -0.00003   0.00000  -0.00009  -0.00009   1.90805
    A5        1.95132   0.00008   0.00000   0.00012   0.00012   1.95144
    A6        1.87026  -0.00003   0.00000  -0.00005  -0.00005   1.87021
    A7        1.90435   0.00008   0.00000   0.00014   0.00014   1.90448
    A8        1.82167  -0.00001   0.00000  -0.00006  -0.00006   1.82161
    A9        1.71287  -0.00003   0.00000  -0.00010  -0.00010   1.71277
   A10        2.16190  -0.00002   0.00000  -0.00003  -0.00003   2.16187
   A11        1.90012  -0.00002   0.00000  -0.00006  -0.00006   1.90006
   A12        1.90864  -0.00000   0.00000   0.00010   0.00010   1.90874
   A13        2.09914   0.00022   0.00000   0.00076   0.00076   2.09990
    D1        0.82336   0.00000   0.00000  -0.00157  -0.00157   0.82179
    D2       -1.29670  -0.00004   0.00000  -0.00162  -0.00162  -1.29832
    D3        2.89602  -0.00002   0.00000  -0.00155  -0.00155   2.89447
    D4        0.62773  -0.00001   0.00000   0.00117   0.00117   0.62890
    D5        2.97063   0.00002   0.00000   0.00118   0.00118   2.97181
    D6       -1.34948   0.00001   0.00000   0.00124   0.00124  -1.34824
         Item               Value     Threshold  Converged?
 Maximum Force            0.000220     0.000450     YES
 RMS     Force            0.000053     0.000300     YES
 Maximum Displacement     0.002387     0.001800     NO 
 RMS     Displacement     0.000976     0.001200     YES
 Predicted change in Energy=-1.572471D-07
                           ----------------------------
                           ! Non-Optimized Parameters !
                           ! (Angstroms and Degrees)  !
 --------------------------                            --------------------------
 ! Name  Definition              Value          Derivative Info.                !
 --------------------------------------------------------------------------------
 ! R1    R(1,2)                  1.3305         -DE/DX =    0.0                 !
 ! R2    R(1,3)                  1.3151         -DE/DX =    0.0                 !
 ! R3    R(1,4)                  1.3148         -DE/DX =    0.0                 !
 ! R4    R(1,6)                  1.3763         -DE/DX =    0.0                 !
 ! R5    R(5,6)                  1.6205         -DE/DX =    0.0001              !
 ! R6    R(5,7)                  1.4135         -DE/DX =    0.0                 !
 ! R7    R(5,8)                  1.41           -DE/DX =    0.0                 !
 ! R8    R(5,9)                  1.3427         -DE/DX =    0.0                 !
 ! A1    A(2,1,3)              108.7166         -DE/DX =    0.0                 !
 ! A2    A(2,1,4)              108.9474         -DE/DX =    0.0                 !
 ! A3    A(2,1,6)              110.8354         -DE/DX =    0.0                 !
 ! A4    A(3,1,4)              109.3235         -DE/DX =    0.0                 !
 ! A5    A(3,1,6)              111.8094         -DE/DX =    0.0001              !
 ! A6    A(4,1,6)              107.1552         -DE/DX =    0.0                 !
 ! A7    A(6,5,7)              109.1189         -DE/DX =    0.0001              !
 ! A8    A(6,5,8)              104.3703         -DE/DX =    0.0                 !
 ! A9    A(6,5,9)               98.1345         -DE/DX =    0.0                 !
 ! A10   A(7,5,8)              123.8663         -DE/DX =    0.0                 !
 ! A11   A(7,5,9)              108.8654         -DE/DX =    0.0                 !
 ! A12   A(8,5,9)              109.3626         -DE/DX =    0.0                 !
 ! A13   A(1,6,5)              120.3155         -DE/DX =    0.0002              !
 ! D1    D(2,1,6,5)             47.0851         -DE/DX =    0.0                 !
 ! D2    D(3,1,6,5)            -74.3882         -DE/DX =    0.0                 !
 ! D3    D(4,1,6,5)            165.8408         -DE/DX =    0.0                 !
 ! D4    D(7,5,6,1)             36.0332         -DE/DX =    0.0                 !
 ! D5    D(8,5,6,1)            170.2721         -DE/DX =    0.0                 !
 ! D6    D(9,5,6,1)            -77.2484         -DE/DX =    0.0                 !
 --------------------------------------------------------------------------------
 GradGradGradGradGradGradGradGradGradGradGradGradGradGradGradGradGradGrad

 Leave Link  103 at Sun May 25 04:59:19 2025, MaxMem=  3758096384 cpu:               0.0 elap:               0.0
 (Enter /apps/easybuild-2022/easybuild/software/Compiler/NVHPC/22.11-CUDA-11.7.0/Gaussian/g16c01-CUDA-11.7.0/g16/l9999.exe)

 ----------------------------------------------------------------------

 Electric dipole moment (input orientation):
 (Debye = 10**-18 statcoulomb cm , SI units = C m)
                  (au)            (Debye)         (10**-30 SI)
   Tot        0.953354D+00      0.242318D+01      0.808287D+01
   x         -0.246566D-02     -0.626708D-02     -0.209047D-01
   y          0.615775D+00      0.156514D+01      0.522076D+01
   z         -0.727804D+00     -0.184989D+01     -0.617058D+01

 Dipole polarizability, Alpha (input orientation).
 (esu units = cm**3 , SI units = C**2 m**2 J**-1)
 Alpha(0;0):
               (au)            (10**-24 esu)      (10**-40 SI)
   iso        0.410537D+02      0.608353D+01      0.676884D+01
   aniso      0.101369D+02      0.150213D+01      0.167135D+01
   xx         0.399475D+02      0.591961D+01      0.658646D+01
   yx         0.143258D+01      0.212286D+00      0.236200D+00
   yy         0.388871D+02      0.576247D+01      0.641161D+01
   zx         0.467430D+00      0.692660D-01      0.770688D-01
   zy         0.486484D+01      0.720895D+00      0.802104D+00
   zz         0.443266D+02      0.656852D+01      0.730847D+01

 ----------------------------------------------------------------------

 Dipole orientation:
     6          0.15331808          2.21891647          0.74244023
     9         -1.44562743          1.69671039          2.61125302
     9         -1.11053000          3.28186257         -1.11472506
     9          1.87799877          3.80178643          1.57518251
    16         -0.16603980         -2.50716017         -0.57471826
     8          1.39586003          0.07191469         -0.03930689
     8         -2.53706698         -1.88886395         -1.63840994
     8          1.60542640         -4.12456795         -1.73463412
     1         -0.50967522         -3.22570051          1.83415589

 Electric dipole moment (dipole orientation):
 (Debye = 10**-18 statcoulomb cm , SI units = C m)
                  (au)            (Debye)         (10**-30 SI)
   Tot        0.953354D+00      0.242318D+01      0.808287D+01
   x          0.000000D+00      0.000000D+00      0.000000D+00
   y          0.000000D+00      0.000000D+00      0.000000D+00
   z          0.953354D+00      0.242318D+01      0.808287D+01

 Dipole polarizability, Alpha (dipole orientation).
 (esu units = cm**3 , SI units = C**2 m**2 J**-1)
 Alpha(0;0):
               (au)            (10**-24 esu)      (10**-40 SI)
   iso        0.410537D+02      0.608353D+01      0.676884D+01
   aniso      0.101369D+02      0.150213D+01      0.167135D+01
   xx         0.399478D+02      0.591966D+01      0.658651D+01
   yx        -0.138085D+01     -0.204622D+00     -0.227672D+00
   yy         0.459567D+02      0.681008D+01      0.757723D+01
   zx         0.564814D+00      0.836969D-01      0.931253D-01
   zy         0.349094D+01      0.517304D+00      0.575578D+00
   zz         0.372567D+02      0.552087D+01      0.614279D+01

 ----------------------------------------------------------------------
 Unable to Open any file for archive entry.
 1\1\GINC-SPARTAN-BM178\Freq\RM062X\def2TZVPP\C1H1F3O3S1\AKHALILOV\25-M
 ay-2025\0\\#P Geom=AllCheck Guess=TCheck SCRF=Check GenChk RM062X/def2
 TZVPP Freq\\Gaussian input prepared by ASE\\0,1\C,0.0790036815,-0.6425
 643077,-1.0585623862\F,-0.7694145364,0.2063526181,-1.6328508997\F,-0.5
 877844963,-1.7073852685,-0.6698848758\F,0.9897287516,-0.9965236133,-1.
 9383564935\S,-0.085820753,0.8163305967,1.089344261\O,0.7386722614,-0.0
 417876081,-0.0106114086\O,-1.3393637122,0.2017932358,1.3109687567\O,0.
 8539935119,1.074168039,2.1083304994\H,-0.2706007084,1.929784308,0.3622
 695467\\Version=ES64L-G16RevC.01\HF=-962.1254866\RMSD=2.454e-09\RMSF=2
 .603e-05\ZeroPoint=0.0406641\Thermal=0.047708\ETot=-962.0777787\HTot=-
 962.0768345\GTot=-962.1176668\Dipole=-0.0024657,0.615775,-0.7278039\Di
 poleDeriv=1.7109205,0.2002863,0.2349094,-0.0848762,2.0631595,0.305482,
 -0.1592034,0.3460492,2.3225004,-0.5008208,0.1740303,-0.2427103,0.21828
 4,-0.5276402,0.1258659,-0.1651652,0.0861967,-0.5469225,-0.3986177,-0.2
 893739,0.0030364,-0.2152582,-0.7527816,0.0201898,0.0700649,0.0700766,-
 0.3815867,-0.5573995,0.121749,0.2893533,0.1317587,-0.3832567,-0.184829
 7,0.320655,-0.2123542,-0.6994618,2.1802505,0.003444,-0.2339906,0.17034
 67,1.8055704,0.557781,-0.008529,0.5943334,2.4603529,-0.6552297,0.05995
 14,0.0689565,0.105544,-0.9902191,-0.7245414,0.1372495,-0.7401548,-1.53
 34031,-0.9748862,-0.1490112,0.197775,-0.2541408,-0.6202862,0.0275897,0
 .0671529,-0.0266743,-0.6334736,-0.7742984,-0.1172847,-0.3370833,-0.065
 9511,-0.5521083,-0.1055497,-0.2441773,-0.1404471,-0.910533,-0.0299188,
 -0.0037913,0.0197537,-0.0057071,-0.0424378,-0.0219878,-0.0180474,0.022
 9746,-0.0774726\Polar=39.9475252,1.4325773,38.8870536,0.46743,4.864839
 5,44.3265813\PG=Unknown\NImag=0\\0.60124905,-0.00762885,0.60842341,-0.
 04859068,0.00044534,0.59107632,-0.16008764,0.08115850,-0.05629528,0.22
 761370,0.07441662,-0.15689275,0.05115324,-0.14088713,0.22479933,-0.058
 84446,0.05563120,-0.12482457,0.09730394,-0.09548465,0.15216263,-0.1393
 1159,-0.09557104,0.03701069,0.01760827,0.01742755,-0.00760964,0.183435
 88,-0.09423151,-0.23510764,0.05515847,-0.00054547,-0.06713895,0.038480
 00,0.15495116,0.33541966,0.03255324,0.05155231,-0.10155552,0.00098051,
 0.04413095,-0.00477504,-0.06086464,-0.09321862,0.12071908,-0.19138906,
 0.04296179,0.10866550,-0.05304507,0.04567401,0.01946228,-0.04126586,-0
 .01941409,0.04743185,0.27172784,0.04595934,-0.09886133,-0.04245664,0.0
 4820621,-0.01700465,-0.01511143,-0.03390777,0.00726435,0.02854974,-0.0
 7089065,0.11531372,0.11167226,-0.04075301,-0.18593785,0.00335290,-0.00
 394389,0.01665135,0.04359642,0.01538689,-0.02060646,-0.17880604,0.0707
 5320,0.25764424,0.05791049,0.01593849,0.02444640,-0.01759113,0.0056580
 8,-0.00908645,-0.01586574,-0.01321148,-0.00036649,-0.00166272,-0.00603
 825,-0.01106847,1.12622149,-0.01062975,-0.02059155,-0.04887920,0.01001
 142,-0.00732607,0.00924293,0.00209093,0.00312620,0.00450951,-0.0023891
 1,0.00582700,0.00926268,0.26743749,0.67321628,-0.01910650,-0.05016256,
 -0.07103828,0.00889018,-0.00010758,0.00769442,0.01269574,0.01548187,0.
 00278048,-0.00299949,0.00473591,0.01029356,0.22409977,-0.02062340,0.79
 742124,-0.14072749,-0.02665331,-0.05232067,-0.02270856,0.00051933,-0.0
 4370443,-0.01230682,-0.03358545,-0.01930198,0.01281269,0.01432820,0.02
 776716,-0.12349987,0.04123749,0.03489266,0.28805782,-0.01372071,-0.092
 61319,-0.02992402,0.00571446,0.01844118,0.01078700,-0.04764797,-0.0437
 8232,-0.03007460,0.00319518,-0.01135011,-0.04649901,0.03623819,-0.1104
 6336,-0.03835051,-0.00082042,0.23317026,-0.03230693,-0.03387037,-0.132
 51744,-0.05208744,0.00575613,-0.04037082,-0.02108498,-0.02326005,0.006
 63724,0.00487845,-0.04294968,-0.07106545,0.02827908,-0.04250866,-0.096
 58050,0.03842733,0.17465100,0.37016146,-0.01992412,-0.01113904,-0.0128
 6602,0.00547414,-0.00104711,0.00204244,0.00497222,0.00441823,-0.000014
 75,0.00181543,0.00240159,0.00341986,-0.58631485,-0.25326935,0.07976482
 ,-0.01411472,-0.00156484,0.01953580,0.61936500,-0.00604701,-0.00664278
 ,0.00461199,0.00026989,0.00200046,-0.00081090,0.00392503,0.00080122,-0
 .00452524,0.00095531,0.00044383,-0.00029404,-0.25766381,-0.23153303,0.
 05267722,0.01477936,0.01933389,-0.00907404,0.27672123,0.19695296,-0.00
 031957,0.00750542,0.00775250,0.00104826,-0.00113483,-0.00285321,0.0003
 3755,-0.00354511,-0.00223665,0.00059920,-0.00101343,-0.00141531,0.0911
 7712,0.05519724,-0.10909619,0.02687702,0.00204148,-0.00336966,-0.10359
 349,-0.04811302,0.08865113,-0.00358690,0.00130323,0.00312659,0.0020710
 6,-0.00126526,0.00020647,0.00148348,0.00062650,-0.00054707,0.00098197,
 -0.00027829,-0.00085339,-0.38942034,-0.07610112,-0.32094840,0.01043572
 ,0.00262754,0.01050646,-0.00926376,-0.00823247,-0.03064971,0.38622325,
 0.00691167,0.00349037,0.00462330,-0.00251179,0.00154066,-0.00196234,-0
 .00058412,-0.00046289,-0.00046611,0.00032212,-0.00165322,-0.00285149,-
 0.07186305,-0.11561885,-0.06141783,-0.01491015,-0.00088410,-0.02774024
 ,-0.01518712,0.01925228,-0.01844426,0.08697908,0.08301802,0.01050090,0
 .00770090,0.01066363,-0.00189188,-0.00053321,-0.00207131,-0.00283604,-
 0.00366937,-0.00055631,0.00097382,-0.00254919,-0.00475956,-0.32812725,
 -0.06927388,-0.42811081,-0.02202098,-0.02001251,-0.03346232,0.01285211
 ,0.00121536,0.01494983,0.34744564,0.09458766,0.45102380,-0.00413275,-0
 .00036977,-0.00317654,0.00066523,-0.00049609,0.00022986,0.00125015,0.0
 0099211,0.00012930,0.00002477,0.00021962,0.00091929,-0.04977733,0.0216
 1201,-0.01728877,0.00205124,0.01597856,0.00385222,-0.00200933,-0.02470
 752,0.01452361,0.00107550,0.01084334,-0.01689633,0.05085254,0.00497020
 ,-0.00120454,0.00526753,-0.00141609,0.00158078,-0.00077179,-0.00068376
 ,-0.00011964,-0.00045794,-0.00041456,0.00002041,-0.00106132,0.02350434
 ,-0.19663662,0.09776688,0.00510494,-0.01185225,-0.00100409,-0.00133359
 ,-0.00060883,0.00750651,-0.00565924,0.01131773,-0.00746576,-0.02407226
 ,0.19750296,0.00444173,0.00195077,0.00638120,-0.00130121,0.00016385,-0
 .00161345,-0.00124513,-0.00081409,-0.00040682,-0.00020558,0.00004153,-
 0.00080452,-0.01935371,0.10307277,-0.11336391,0.00938389,-0.02261881,0
 .00056749,-0.00114077,0.00431268,0.00761756,-0.00828658,0.01367131,-0.
 00767695,0.01770735,-0.09978002,0.10929941\\0.00000619,0.00003822,0.00
 001865,-0.00001273,0.00000045,-0.00002216,-0.00002543,0.00001498,0.000
 04210,-0.00001813,0.00000326,-0.00000289,-0.00001779,0.00001973,-0.000
 07153,0.00005439,-0.00002413,0.00002797,-0.00000453,-0.00003177,-0.000
 02034,0.00000421,-0.00000392,0.00000157,0.00001382,-0.00001684,0.00002
 662\\\@
 The archive entry for this job was punched.


 BOOKS ARE LIGHTHOUSES ERECTED IN THE GREAT SEA OF TIME.
     -- E.P.WHIPPLE
 Job cpu time:       0 days  0 hours 14 minutes 39.0 seconds.
 Elapsed time:       0 days  0 hours  1 minutes 52.1 seconds.
 File lengths (MBytes):  RWF=     75 Int=      0 D2E=      0 Chk=      6 Scr=      1
 Normal termination of Gaussian 16 at Sun May 25 04:59:19 2025.
done
