 Entering Gaussian System, Link 0=g16
 Initial command:
 /apps/easybuild-2022/easybuild/software/Compiler/NVHPC/22.11-CUDA-11.7.0/Gaussian/g16c01-CUDA-11.7.0/g16/l1.exe "/tmp/Gau-14542.inp" -scrdir="/tmp/"
 Entering Link 1 = /apps/easybuild-2022/easybuild/software/Compiler/NVHPC/22.11-CUDA-11.7.0/Gaussian/g16c01-CUDA-11.7.0/g16/l1.exe PID=     14543.
  
 Copyright (c) 1988-2019, Gaussian, Inc.  All Rights Reserved.
  
 This is part of the Gaussian(R) 16 program.  It is based on
 the Gaussian(R) 09 system (copyright 2009, Gaussian, Inc.),
 the Gaussian(R) 03 system (copyright 2003, Gaussian, Inc.),
 the Gaussian(R) 98 system (copyright 1998, Gaussian, Inc.),
 the Gaussian(R) 94 system (copyright 1995, Gaussian, Inc.),
 the Gaussian 92(TM) system (copyright 1992, Gaussian, Inc.),
 the Gaussian 90(TM) system (copyright 1990, Gaussian, Inc.),
 the Gaussian 88(TM) system (copyright 1988, Gaussian, Inc.),
 the Gaussian 86(TM) system (copyright 1986, Carnegie Mellon
 University), and the Gaussian 82(TM) system (copyright 1983,
 Carnegie Mellon University). Gaussian is a federally registered
 trademark of Gaussian, Inc.
  
 This software contains proprietary and confidential information,
 including trade secrets, belonging to Gaussian, Inc.
  
 This software is provided under written license and may be
 used, copied, transmitted, or stored only in accord with that
 written license.
  
 The following legend is applicable only to US Government
 contracts under FAR:
  
                    RESTRICTED RIGHTS LEGEND
  
 Use, reproduction and disclosure by the US Government is
 subject to restrictions as set forth in subparagraphs (a)
 and (c) of the Commercial Computer Software - Restricted
 Rights clause in FAR 52.227-19.
  
 Gaussian, Inc.
 340 Quinnipiac St., Bldg. 40, Wallingford CT 06492
  
  
 ---------------------------------------------------------------
 Warning -- This program may not be used in any manner that
 competes with the business of Gaussian, Inc. or will provide
 assistance to any competitor of Gaussian, Inc.  The licensee
 of this program is prohibited from giving any competitor of
 Gaussian, Inc. access to this program.  By using this program,
 the user acknowledges that Gaussian, Inc. is engaged in the
 business of creating and licensing software in the field of
 computational chemistry and represents and warrants to the
 licensee that it is not a competitor of Gaussian, Inc. and that
 it will not use this program in any manner prohibited above.
 ---------------------------------------------------------------
  

 Cite this work as:
 Gaussian 16, Revision C.01,
 M. J. Frisch, G. W. Trucks, H. B. Schlegel, G. E. Scuseria, 
 M. A. Robb, J. R. Cheeseman, G. Scalmani, V. Barone, 
 G. A. Petersson, H. Nakatsuji, X. Li, M. Caricato, A. V. Marenich, 
 J. Bloino, B. G. Janesko, R. Gomperts, B. Mennucci, H. P. Hratchian, 
 J. V. Ortiz, A. F. Izmaylov, J. L. Sonnenberg, D. Williams-Young, 
 F. Ding, F. Lipparini, F. Egidi, J. Goings, B. Peng, A. Petrone, 
 T. Henderson, D. Ranasinghe, V. G. Zakrzewski, J. Gao, N. Rega, 
 G. Zheng, W. Liang, M. Hada, M. Ehara, K. Toyota, R. Fukuda, 
 J. Hasegawa, M. Ishida, T. Nakajima, Y. Honda, O. Kitao, H. Nakai, 
 T. Vreven, K. Throssell, J. A. Montgomery, Jr., J. E. Peralta, 
 F. Ogliaro, M. J. Bearpark, J. J. Heyd, E. N. Brothers, K. N. Kudin, 
 V. N. Staroverov, T. A. Keith, R. Kobayashi, J. Normand, 
 K. Raghavachari, A. P. Rendell, J. C. Burant, S. S. Iyengar, 
 J. Tomasi, M. Cossi, J. M. Millam, M. Klene, C. Adamo, R. Cammi, 
 J. W. Ochterski, R. L. Martin, K. Morokuma, O. Farkas, 
 J. B. Foresman, and D. J. Fox, Gaussian, Inc., Wallingford CT, 2019.
 
 ******************************************
 Gaussian 16:  ES64L-G16RevC.01  3-Jul-2019
                25-May-2025 
 ******************************************
 %mem=28GB
 %chk=1502984803620600000001_r13_insertion_ROR_9_8_5_6_IRC_R_prod
 %nprocshared=8
 Will use up to    8 processors via shared memory.
 -----------------------------------------------------------------
 #P M062X/Def2TZVPP Symm(None) scf(xqc) pop(None) freq opt(CalcFC)
 -----------------------------------------------------------------
 1/10=4,18=20,19=15,26=3,38=1/1,3;
 2/9=110,12=2,15=3,17=6,18=5,40=1/2;
 3/5=44,7=202,11=2,25=1,30=1,71=2,74=-55,140=1/1,2,3;
 4//1;
 5/5=2,8=3,13=1,38=5/2,8;
 8/6=4,10=90,11=11/1;
 11/6=1,8=1,9=11,15=111,16=1,31=1/1,2,10;
 10/6=1,13=1,31=1/2;
 7/10=1,25=1,30=1/1,2,3,16;
 1/10=4,18=20,19=15,26=3/3(2);
 2/9=110,15=3/2;
 99//99;
 2/9=110,15=3/2;
 3/5=44,7=202,11=2,25=1,30=1,71=1,74=-55/1,2,3;
 4/5=5,16=3,69=1/1;
 5/5=2,8=3,13=1,38=5/2,8;
 7/30=1/1,2,3,16;
 1/18=20,19=15,26=3/3(-5);
 2/9=110,15=3/2;
 99/9=1/99;
 Leave Link    1 at Sun May 25 05:11:46 2025, MaxMem=  3758096384 cpu:               0.0 elap:               0.0
 (Enter /apps/easybuild-2022/easybuild/software/Compiler/NVHPC/22.11-CUDA-11.7.0/Gaussian/g16c01-CUDA-11.7.0/g16/l101.exe)
 ------------------------------
 Gaussian input prepared by ASE
 ------------------------------
 Symbolic Z-matrix:
 Charge =  0 Multiplicity = 1
 C                     0.77338  -0.6204    0.68199 
 F                     1.3594   -1.71969   0.25913 
 F                     0.54956  -0.63766   1.99041 
 F                     1.62059   0.38928   0.46975 
 S                    -0.86767   0.92997  -0.53879 
 O                    -2.32375   0.4166   -0.96998 
 O                    -0.10024   1.054    -1.73393 
 O                    -0.43006  -0.55357   0.05258 
 H                    -2.92191   0.43066  -0.21039 
 
 ITRead=  0  0  0  0  0  0  0  0  0
 MicOpt= -1 -1 -1 -1 -1 -1 -1 -1 -1
 NAtoms=      9 NQM=        9 NQMF=       0 NMMI=      0 NMMIF=      0
                NMic=       0 NMicF=      0.
                    Isotopes and Nuclear Properties:
 (Nuclear quadrupole moments (NQMom) in fm**2, nuclear magnetic moments (NMagM)
  in nuclear magnetons)

  Atom         1           2           3           4           5           6           7           8           9
 IAtWgt=          12          19          19          19          32          16          16          16           1
 AtmWgt=  12.0000000  18.9984032  18.9984032  18.9984032  31.9720718  15.9949146  15.9949146  15.9949146   1.0078250
 NucSpn=           0           1           1           1           0           0           0           0           1
 AtZEff=  -0.0000000  -0.0000000  -0.0000000  -0.0000000  -0.0000000  -0.0000000  -0.0000000  -0.0000000  -0.0000000
 NQMom=    0.0000000   0.0000000   0.0000000   0.0000000   0.0000000   0.0000000   0.0000000   0.0000000   0.0000000
 NMagM=    0.0000000   2.6288670   2.6288670   2.6288670   0.0000000   0.0000000   0.0000000   0.0000000   2.7928460
 AtZNuc=   6.0000000   9.0000000   9.0000000   9.0000000  16.0000000   8.0000000   8.0000000   8.0000000   1.0000000
 Leave Link  101 at Sun May 25 05:11:46 2025, MaxMem=  3758096384 cpu:               0.2 elap:               0.2
 (Enter /apps/easybuild-2022/easybuild/software/Compiler/NVHPC/22.11-CUDA-11.7.0/Gaussian/g16c01-CUDA-11.7.0/g16/l103.exe)

 GradGradGradGradGradGradGradGradGradGradGradGradGradGradGradGradGradGrad
 Berny optimization.
 Initialization pass.
                           ----------------------------
                           !    Initial Parameters    !
                           ! (Angstroms and Degrees)  !
 --------------------------                            --------------------------
 ! Name  Definition              Value          Derivative Info.                !
 --------------------------------------------------------------------------------
 ! R1    R(1,2)                  1.3155         calculate D2E/DX2 analytically  !
 ! R2    R(1,3)                  1.3275         calculate D2E/DX2 analytically  !
 ! R3    R(1,4)                  1.335          calculate D2E/DX2 analytically  !
 ! R4    R(1,8)                  1.3597         calculate D2E/DX2 analytically  !
 ! R5    R(5,6)                  1.603          calculate D2E/DX2 analytically  !
 ! R6    R(5,7)                  1.4257         calculate D2E/DX2 analytically  !
 ! R7    R(5,8)                  1.6559         calculate D2E/DX2 analytically  !
 ! R8    R(6,9)                  0.9669         calculate D2E/DX2 analytically  !
 ! A1    A(2,1,3)              112.3982         calculate D2E/DX2 analytically  !
 ! A2    A(2,1,4)              107.3488         calculate D2E/DX2 analytically  !
 ! A3    A(2,1,8)              106.6507         calculate D2E/DX2 analytically  !
 ! A4    A(3,1,4)              105.8736         calculate D2E/DX2 analytically  !
 ! A5    A(3,1,8)              107.9175         calculate D2E/DX2 analytically  !
 ! A6    A(4,1,8)              116.8012         calculate D2E/DX2 analytically  !
 ! A7    A(6,5,7)              106.9363         calculate D2E/DX2 analytically  !
 ! A8    A(6,5,8)               92.8199         calculate D2E/DX2 analytically  !
 ! A9    A(7,5,8)              103.5948         calculate D2E/DX2 analytically  !
 ! A10   A(5,6,9)              110.2399         calculate D2E/DX2 analytically  !
 ! A11   A(1,8,5)              116.3104         calculate D2E/DX2 analytically  !
 ! D1    D(2,1,8,5)           -136.6538         calculate D2E/DX2 analytically  !
 ! D2    D(3,1,8,5)            102.3694         calculate D2E/DX2 analytically  !
 ! D3    D(4,1,8,5)            -16.6684         calculate D2E/DX2 analytically  !
 ! D4    D(7,5,6,9)           -172.2922         calculate D2E/DX2 analytically  !
 ! D5    D(8,5,6,9)             82.5779         calculate D2E/DX2 analytically  !
 ! D6    D(6,5,8,1)           -174.3006         calculate D2E/DX2 analytically  !
 ! D7    D(7,5,8,1)             77.5207         calculate D2E/DX2 analytically  !
 --------------------------------------------------------------------------------
 Trust Radius=3.00D-01 FncErr=1.00D-07 GrdErr=1.00D-06 EigMax=2.50D+02 EigMin=1.00D-04
 Number of steps in this run=     36 maximum allowed number of steps=    100.
 GradGradGradGradGradGradGradGradGradGradGradGradGradGradGradGradGradGrad

 Leave Link  103 at Sun May 25 05:11:46 2025, MaxMem=  3758096384 cpu:               0.0 elap:               0.0
 (Enter /apps/easybuild-2022/easybuild/software/Compiler/NVHPC/22.11-CUDA-11.7.0/Gaussian/g16c01-CUDA-11.7.0/g16/l202.exe)
                          Input orientation:                          
 ---------------------------------------------------------------------
 Center     Atomic      Atomic             Coordinates (Angstroms)
 Number     Number       Type             X           Y           Z
 ---------------------------------------------------------------------
      1          6           0        0.773377   -0.620399    0.681989
      2          9           0        1.359398   -1.719689    0.259133
      3          9           0        0.549555   -0.637656    1.990414
      4          9           0        1.620589    0.389282    0.469749
      5         16           0       -0.867667    0.929967   -0.538791
      6          8           0       -2.323748    0.416603   -0.969980
      7          8           0       -0.100243    1.053996   -1.733933
      8          8           0       -0.430058   -0.553567    0.052576
      9          1           0       -2.921911    0.430661   -0.210390
 ---------------------------------------------------------------------
                    Distance matrix (angstroms):
                    1          2          3          4          5
     1  C    0.000000
     2  F    1.315548   0.000000
     3  F    1.327543   2.196355   0.000000
     4  F    1.335017   2.135495   2.124650   0.000000
     5  S    2.566508   3.552067   3.295882   2.738779   0.000000
     6  O    3.660131   4.431707   4.258082   4.198971   1.603009
     7  O    3.066511   3.714323   4.141821   2.873904   1.425723
     8  O    1.359736   2.145847   2.173000   2.295245   1.655926
     9  H    3.944138   4.813945   4.246871   4.593322   2.139409
                    6          7          8          9
     6  O    0.000000
     7  O    2.435953   0.000000
     8  O    2.360702   2.425830   0.000000
     9  H    0.966940   3.266732   2.692060   0.000000
 Symmetry turned off by external request.
 Stoichiometry    CHF3O3S
 Rotational constants (GHZ):           3.4771111           1.2270190           1.1231269
 Leave Link  202 at Sun May 25 05:11:46 2025, MaxMem=  3758096384 cpu:               0.0 elap:               0.0
 (Enter /apps/easybuild-2022/easybuild/software/Compiler/NVHPC/22.11-CUDA-11.7.0/Gaussian/g16c01-CUDA-11.7.0/g16/l301.exe)
 Standard basis: def2TZVPP (5D, 7F)
 Ernie: Thresh=  0.10000D-02 Tol=  0.10000D-05 Strict=F.
   273 basis functions,   443 primitive gaussians,   315 cartesian basis functions
    37 alpha electrons       37 beta electrons
       nuclear repulsion energy       549.7644531460 Hartrees.
 IExCor= 4336 DFT=T Ex+Corr=M062X ExCW=0 ScaHFX=  0.540000
 ScaDFX=  1.000000  1.000000  1.000000  1.000000 ScalE2=  1.000000  1.000000
 IRadAn=      5 IRanWt=     -1 IRanGd=            0 ICorTp=0 IEmpDi=  4
 NAtoms=    9 NActive=    9 NUniq=    9 SFac= 1.00D+00 NAtFMM=   60 NAOKFM=F Big=F
 Integral buffers will be    131072 words long.
 Raffenetti 2 integral format.
 Two-electron integral symmetry is turned off.
 Leave Link  301 at Sun May 25 05:11:46 2025, MaxMem=  3758096384 cpu:               0.1 elap:               0.0
 (Enter /apps/easybuild-2022/easybuild/software/Compiler/NVHPC/22.11-CUDA-11.7.0/Gaussian/g16c01-CUDA-11.7.0/g16/l302.exe)
 NPDir=0 NMtPBC=     1 NCelOv=     1 NCel=       1 NClECP=     1 NCelD=      1
         NCelK=      1 NCelE2=     1 NClLst=     1 CellRange=     0.0.
 One-electron integrals computed using PRISM.
   1 Symmetry operations used in ECPInt.
 ECPInt:  NShTT=    4753 NPrTT=   15592 LenC2=    4511 LenP2D=   11249.
 LDataN:  DoStor=T MaxTD1= 6 Len=  172
 NBasis=   273 RedAO= T EigKep=  1.12D-03  NBF=   273
 NBsUse=   273 1.00D-06 EigRej= -1.00D+00 NBFU=   273
 Precomputing XC quadrature grid using
 IXCGrd= 4 IRadAn=           5 IRanWt=          -1 IRanGd=           0 AccXCQ= 0.00D+00.
 Generated NRdTot=       0 NPtTot=           0 NUsed=           0 NTot=          32
 NSgBfM=   313   313   313   313   313 MxSgAt=     9 MxSgA2=     9.
 Leave Link  302 at Sun May 25 05:11:46 2025, MaxMem=  3758096384 cpu:               0.6 elap:               0.1
 (Enter /apps/easybuild-2022/easybuild/software/Compiler/NVHPC/22.11-CUDA-11.7.0/Gaussian/g16c01-CUDA-11.7.0/g16/l303.exe)
 DipDrv:  MaxL=1.
 Leave Link  303 at Sun May 25 05:11:46 2025, MaxMem=  3758096384 cpu:               0.1 elap:               0.0
 (Enter /apps/easybuild-2022/easybuild/software/Compiler/NVHPC/22.11-CUDA-11.7.0/Gaussian/g16c01-CUDA-11.7.0/g16/l401.exe)
 ExpMin= 9.52D-02 ExpMax= 6.07D+04 ExpMxC= 2.07D+03 IAcc=3 IRadAn=         5 AccDes= 0.00D+00
 Harris functional with IExCor= 1009 and IRadAn=       5 diagonalized for initial guess.
 HarFok:  IExCor= 1009 AccDes= 0.00D+00 IRadAn=         5 IDoV= 1 UseB2=F ITyADJ=14
 ICtDFT=  3500011 ScaDFX=  1.000000  1.000000  1.000000  1.000000
 FoFCou: FMM=F IPFlag=           0 FMFlag=      100000 FMFlg1=           0
         NFxFlg=           0 DoJE=T BraDBF=F KetDBF=T FulRan=T
         wScrn=  0.000000 ICntrl=       500 IOpCl=  0 I1Cent=   200000004 NGrid=           0
         NMat0=    1 NMatS0=      1 NMatT0=    0 NMatD0=    1 NMtDS0=    0 NMtDT0=    0
 Symmetry not used in FoFCou.
 Harris En= -961.688417495589    
 JPrj=0 DoOrth=F DoCkMO=F.
 Leave Link  401 at Sun May 25 05:11:47 2025, MaxMem=  3758096384 cpu:               2.5 elap:               0.4
 (Enter /apps/easybuild-2022/easybuild/software/Compiler/NVHPC/22.11-CUDA-11.7.0/Gaussian/g16c01-CUDA-11.7.0/g16/l502.exe)
 Keep R1 ints in memory in canonical form, NReq=715214082.
 FoFCou: FMM=F IPFlag=           0 FMFlag=           0 FMFlg1=           0
         NFxFlg=           0 DoJE=F BraDBF=F KetDBF=F FulRan=T
         wScrn=  0.000000 ICntrl=       600 IOpCl=  0 I1Cent=           0 NGrid=           0
         NMat0=    1 NMatS0=  37401 NMatT0=    0 NMatD0=    1 NMtDS0=    0 NMtDT0=    0
 Symmetry not used in FoFCou.
 Two-electron integral symmetry not used.
 Closed shell SCF:
 Using DIIS extrapolation, IDIIS=  1040.
 NGot=  3758096384 LenX=  3058457086 LenY=  3058357420
 Requested convergence on RMS density matrix=1.00D-08 within  32 cycles.
 Requested convergence on MAX density matrix=1.00D-06.
 Requested convergence on             energy=1.00D-06.
 No special actions if energy rises.
 Integral accuracy reduced to 1.0D-05 until final iterations.

 Cycle   1  Pass 0  IDiag  1:
 E= -961.866534679334    
 DIIS: error= 2.86D-02 at cycle   1 NSaved=   1.
 NSaved= 1 IEnMin= 1 EnMin= -961.866534679334     IErMin= 1 ErrMin= 2.86D-02
 ErrMax= 2.86D-02  0.00D+00 EMaxC= 1.00D-01 BMatC= 5.07D-01 BMatP= 5.07D-01
 IDIUse=3 WtCom= 7.14D-01 WtEn= 2.86D-01
 Coeff-Com:  0.100D+01
 Coeff-En:   0.100D+01
 Coeff:      0.100D+01
 Gap=     0.367 Goal=   None    Shift=    0.000
 GapD=    0.367 DampG=1.000 DampE=0.500 DampFc=0.5000 IDamp=-1.
 Damping current iteration by 5.00D-01
 RMSDP=2.86D-03 MaxDP=1.96D-01              OVMax= 2.50D-01

 Cycle   2  Pass 0  IDiag  1:
 E= -961.953312427405     Delta-E=       -0.086777748071 Rises=F Damp=T
 DIIS: error= 7.22D-03 at cycle   2 NSaved=   2.
 NSaved= 2 IEnMin= 2 EnMin= -961.953312427405     IErMin= 2 ErrMin= 7.22D-03
 ErrMax= 7.22D-03  0.00D+00 EMaxC= 1.00D-01 BMatC= 4.85D-02 BMatP= 5.07D-01
 IDIUse=3 WtCom= 9.28D-01 WtEn= 7.22D-02
 Coeff-Com:  0.108D+00 0.892D+00
 Coeff-En:   0.299D+00 0.701D+00
 Coeff:      0.122D+00 0.878D+00
 Gap=     0.421 Goal=   None    Shift=    0.000
 RMSDP=7.45D-04 MaxDP=3.96D-02 DE=-8.68D-02 OVMax= 1.39D-01

 Cycle   3  Pass 0  IDiag  1:
 E= -962.121309193347     Delta-E=       -0.167996765942 Rises=F Damp=F
 DIIS: error= 6.86D-03 at cycle   3 NSaved=   3.
 NSaved= 3 IEnMin= 3 EnMin= -962.121309193347     IErMin= 3 ErrMin= 6.86D-03
 ErrMax= 6.86D-03  0.00D+00 EMaxC= 1.00D-01 BMatC= 2.01D-02 BMatP= 4.85D-02
 IDIUse=3 WtCom= 9.31D-01 WtEn= 6.86D-02
 Coeff-Com: -0.324D-01 0.358D+00 0.675D+00
 Coeff-En:   0.000D+00 0.000D+00 0.100D+01
 Coeff:     -0.302D-01 0.333D+00 0.697D+00
 Gap=     0.386 Goal=   None    Shift=    0.000
 RMSDP=4.07D-04 MaxDP=1.90D-02 DE=-1.68D-01 OVMax= 4.98D-02

 Cycle   4  Pass 0  IDiag  1:
 E= -962.131088701925     Delta-E=       -0.009779508579 Rises=F Damp=F
 DIIS: error= 2.73D-03 at cycle   4 NSaved=   4.
 NSaved= 4 IEnMin= 4 EnMin= -962.131088701925     IErMin= 4 ErrMin= 2.73D-03
 ErrMax= 2.73D-03  0.00D+00 EMaxC= 1.00D-01 BMatC= 6.81D-03 BMatP= 2.01D-02
 IDIUse=3 WtCom= 9.73D-01 WtEn= 2.73D-02
 Coeff-Com: -0.357D-01 0.795D-01 0.407D+00 0.550D+00
 Coeff-En:   0.000D+00 0.000D+00 0.241D+00 0.759D+00
 Coeff:     -0.348D-01 0.773D-01 0.402D+00 0.555D+00
 Gap=     0.385 Goal=   None    Shift=    0.000
 RMSDP=1.64D-04 MaxDP=6.39D-03 DE=-9.78D-03 OVMax= 1.70D-02

 Cycle   5  Pass 0  IDiag  1:
 E= -962.135459996484     Delta-E=       -0.004371294558 Rises=F Damp=F
 DIIS: error= 3.84D-04 at cycle   5 NSaved=   5.
 NSaved= 5 IEnMin= 5 EnMin= -962.135459996484     IErMin= 5 ErrMin= 3.84D-04
 ErrMax= 3.84D-04  0.00D+00 EMaxC= 1.00D-01 BMatC= 8.87D-05 BMatP= 6.81D-03
 IDIUse=3 WtCom= 9.96D-01 WtEn= 3.84D-03
 Coeff-Com: -0.965D-02 0.142D-01 0.104D+00 0.190D+00 0.702D+00
 Coeff-En:   0.000D+00 0.000D+00 0.000D+00 0.000D+00 0.100D+01
 Coeff:     -0.962D-02 0.141D-01 0.104D+00 0.189D+00 0.703D+00
 Gap=     0.384 Goal=   None    Shift=    0.000
 RMSDP=2.39D-05 MaxDP=9.89D-04 DE=-4.37D-03 OVMax= 1.90D-03

 Cycle   6  Pass 0  IDiag  1:
 E= -962.135514428234     Delta-E=       -0.000054431750 Rises=F Damp=F
 DIIS: error= 1.45D-04 at cycle   6 NSaved=   6.
 NSaved= 6 IEnMin= 6 EnMin= -962.135514428234     IErMin= 6 ErrMin= 1.45D-04
 ErrMax= 1.45D-04  0.00D+00 EMaxC= 1.00D-01 BMatC= 1.55D-05 BMatP= 8.87D-05
 IDIUse=3 WtCom= 9.99D-01 WtEn= 1.45D-03
 Coeff-Com: -0.132D-02-0.552D-03 0.938D-02 0.358D-01 0.334D+00 0.623D+00
 Coeff-En:   0.000D+00 0.000D+00 0.000D+00 0.000D+00 0.000D+00 0.100D+01
 Coeff:     -0.132D-02-0.551D-03 0.937D-02 0.358D-01 0.333D+00 0.624D+00
 Gap=     0.384 Goal=   None    Shift=    0.000
 RMSDP=8.36D-06 MaxDP=3.58D-04 DE=-5.44D-05 OVMax= 8.22D-04

 Initial convergence to 1.0D-05 achieved.  Increase integral accuracy.
 Cycle   7  Pass 1  IDiag  1:
 E= -962.135524369082     Delta-E=       -0.000009940847 Rises=F Damp=F
 DIIS: error= 2.93D-05 at cycle   1 NSaved=   1.
 NSaved= 1 IEnMin= 1 EnMin= -962.135524369082     IErMin= 1 ErrMin= 2.93D-05
 ErrMax= 2.93D-05  0.00D+00 EMaxC= 1.00D-01 BMatC= 1.23D-06 BMatP= 1.23D-06
 IDIUse=1 WtCom= 1.00D+00 WtEn= 0.00D+00
 Coeff-Com:  0.100D+01
 Coeff:      0.100D+01
 Gap=     0.384 Goal=   None    Shift=    0.000
 RMSDP=8.36D-06 MaxDP=3.58D-04 DE=-9.94D-06 OVMax= 3.87D-04

 Cycle   8  Pass 1  IDiag  1:
 E= -962.135525227487     Delta-E=       -0.000000858405 Rises=F Damp=F
 DIIS: error= 2.43D-05 at cycle   2 NSaved=   2.
 NSaved= 2 IEnMin= 2 EnMin= -962.135525227487     IErMin= 2 ErrMin= 2.43D-05
 ErrMax= 2.43D-05  0.00D+00 EMaxC= 1.00D-01 BMatC= 4.90D-07 BMatP= 1.23D-06
 IDIUse=1 WtCom= 1.00D+00 WtEn= 0.00D+00
 Coeff-Com:  0.343D+00 0.657D+00
 Coeff:      0.343D+00 0.657D+00
 Gap=     0.384 Goal=   None    Shift=    0.000
 RMSDP=1.86D-06 MaxDP=6.12D-05 DE=-8.58D-07 OVMax= 1.71D-04

 Cycle   9  Pass 1  IDiag  1:
 E= -962.135525480295     Delta-E=       -0.000000252808 Rises=F Damp=F
 DIIS: error= 1.18D-05 at cycle   3 NSaved=   3.
 NSaved= 3 IEnMin= 3 EnMin= -962.135525480295     IErMin= 3 ErrMin= 1.18D-05
 ErrMax= 1.18D-05  0.00D+00 EMaxC= 1.00D-01 BMatC= 1.17D-07 BMatP= 4.90D-07
 IDIUse=1 WtCom= 1.00D+00 WtEn= 0.00D+00
 Coeff-Com: -0.370D-01 0.311D+00 0.726D+00
 Coeff:     -0.370D-01 0.311D+00 0.726D+00
 Gap=     0.384 Goal=   None    Shift=    0.000
 RMSDP=1.06D-06 MaxDP=4.11D-05 DE=-2.53D-07 OVMax= 7.68D-05

 Cycle  10  Pass 1  IDiag  1:
 E= -962.135525558815     Delta-E=       -0.000000078520 Rises=F Damp=F
 DIIS: error= 4.10D-06 at cycle   4 NSaved=   4.
 NSaved= 4 IEnMin= 4 EnMin= -962.135525558815     IErMin= 4 ErrMin= 4.10D-06
 ErrMax= 4.10D-06  0.00D+00 EMaxC= 1.00D-01 BMatC= 9.01D-09 BMatP= 1.17D-07
 IDIUse=1 WtCom= 1.00D+00 WtEn= 0.00D+00
 Coeff-Com: -0.343D-01 0.119D+00 0.343D+00 0.572D+00
 Coeff:     -0.343D-01 0.119D+00 0.343D+00 0.572D+00
 Gap=     0.384 Goal=   None    Shift=    0.000
 RMSDP=2.96D-07 MaxDP=1.33D-05 DE=-7.85D-08 OVMax= 3.61D-05

 Cycle  11  Pass 1  IDiag  1:
 E= -962.135525565456     Delta-E=       -0.000000006641 Rises=F Damp=F
 DIIS: error= 1.23D-06 at cycle   5 NSaved=   5.
 NSaved= 5 IEnMin= 5 EnMin= -962.135525565456     IErMin= 5 ErrMin= 1.23D-06
 ErrMax= 1.23D-06  0.00D+00 EMaxC= 1.00D-01 BMatC= 1.27D-09 BMatP= 9.01D-09
 IDIUse=1 WtCom= 1.00D+00 WtEn= 0.00D+00
 Coeff-Com: -0.659D-02-0.232D-01-0.329D-01 0.242D+00 0.820D+00
 Coeff:     -0.659D-02-0.232D-01-0.329D-01 0.242D+00 0.820D+00
 Gap=     0.384 Goal=   None    Shift=    0.000
 RMSDP=1.75D-07 MaxDP=1.18D-05 DE=-6.64D-09 OVMax= 1.48D-05

 Cycle  12  Pass 1  IDiag  1:
 E= -962.135525566751     Delta-E=       -0.000000001296 Rises=F Damp=F
 DIIS: error= 5.50D-07 at cycle   6 NSaved=   6.
 NSaved= 6 IEnMin= 6 EnMin= -962.135525566751     IErMin= 6 ErrMin= 5.50D-07
 ErrMax= 5.50D-07  0.00D+00 EMaxC= 1.00D-01 BMatC= 1.23D-10 BMatP= 1.27D-09
 IDIUse=1 WtCom= 1.00D+00 WtEn= 0.00D+00
 Coeff-Com:  0.188D-02-0.217D-01-0.528D-01 0.346D-01 0.318D+00 0.720D+00
 Coeff:      0.188D-02-0.217D-01-0.528D-01 0.346D-01 0.318D+00 0.720D+00
 Gap=     0.384 Goal=   None    Shift=    0.000
 RMSDP=4.99D-08 MaxDP=2.75D-06 DE=-1.30D-09 OVMax= 6.03D-06

 Cycle  13  Pass 1  IDiag  1:
 E= -962.135525566839     Delta-E=       -0.000000000087 Rises=F Damp=F
 DIIS: error= 1.58D-07 at cycle   7 NSaved=   7.
 NSaved= 7 IEnMin= 7 EnMin= -962.135525566839     IErMin= 7 ErrMin= 1.58D-07
 ErrMax= 1.58D-07  0.00D+00 EMaxC= 1.00D-01 BMatC= 2.91D-11 BMatP= 1.23D-10
 IDIUse=1 WtCom= 1.00D+00 WtEn= 0.00D+00
 Coeff-Com:  0.179D-02-0.918D-02-0.250D-01-0.704D-02 0.750D-01 0.379D+00
 Coeff-Com:  0.585D+00
 Coeff:      0.179D-02-0.918D-02-0.250D-01-0.704D-02 0.750D-01 0.379D+00
 Coeff:      0.585D+00
 Gap=     0.384 Goal=   None    Shift=    0.000
 RMSDP=1.38D-08 MaxDP=6.58D-07 DE=-8.73D-11 OVMax= 1.25D-06

 Cycle  14  Pass 1  IDiag  1:
 E= -962.135525566880     Delta-E=       -0.000000000041 Rises=F Damp=F
 DIIS: error= 2.90D-08 at cycle   8 NSaved=   8.
 NSaved= 8 IEnMin= 8 EnMin= -962.135525566880     IErMin= 8 ErrMin= 2.90D-08
 ErrMax= 2.90D-08  0.00D+00 EMaxC= 1.00D-01 BMatC= 6.98D-13 BMatP= 2.91D-11
 IDIUse=1 WtCom= 1.00D+00 WtEn= 0.00D+00
 Coeff-Com:  0.191D-04 0.685D-03 0.165D-02-0.309D-02-0.238D-01-0.210D-01
 Coeff-Com:  0.984D-01 0.947D+00
 Coeff:      0.191D-04 0.685D-03 0.165D-02-0.309D-02-0.238D-01-0.210D-01
 Coeff:      0.984D-01 0.947D+00
 Gap=     0.384 Goal=   None    Shift=    0.000
 RMSDP=5.85D-09 MaxDP=1.78D-07 DE=-4.14D-11 OVMax= 6.43D-07

 SCF Done:  E(RM062X) =  -962.135525567     A.U. after   14 cycles
            NFock= 14  Conv=0.58D-08     -V/T= 2.0026
 KE= 9.596557502478D+02 PE=-3.382742618081D+03 EE= 9.111868891205D+02
 Leave Link  502 at Sun May 25 05:12:02 2025, MaxMem=  3758096384 cpu:              75.9 elap:              15.6
 (Enter /apps/easybuild-2022/easybuild/software/Compiler/NVHPC/22.11-CUDA-11.7.0/Gaussian/g16c01-CUDA-11.7.0/g16/l508.exe)
 QCSCF skips out because SCF is already converged.
 Leave Link  508 at Sun May 25 05:12:02 2025, MaxMem=  3758096384 cpu:               0.0 elap:               0.0
 (Enter /apps/easybuild-2022/easybuild/software/Compiler/NVHPC/22.11-CUDA-11.7.0/Gaussian/g16c01-CUDA-11.7.0/g16/l801.exe)
 DoSCS=F DFT=T ScalE2(SS,OS)=  1.000000  1.000000
 Range of M.O.s used for correlation:     1   273
 NBasis=   273 NAE=    37 NBE=    37 NFC=     0 NFV=     0
 NROrb=    273 NOA=    37 NOB=    37 NVA=   236 NVB=   236

 **** Warning!!: The largest alpha MO coefficient is  0.11110257D+02

 Leave Link  801 at Sun May 25 05:12:02 2025, MaxMem=  3758096384 cpu:               0.0 elap:               0.0
 (Enter /apps/easybuild-2022/easybuild/software/Compiler/NVHPC/22.11-CUDA-11.7.0/Gaussian/g16c01-CUDA-11.7.0/g16/l1101.exe)
 Using compressed storage, NAtomX=     9.
 Will process     10 centers per pass.
   1 Symmetry operations used in ECPInt.
 ECPInt:  NShTT=    4753 NPrTT=   15592 LenC2=    4511 LenP2D=   11249.
 LDataN:  DoStor=T MaxTD1= 7 Len=  274
 Leave Link 1101 at Sun May 25 05:12:03 2025, MaxMem=  3758096384 cpu:               0.7 elap:               0.1
 (Enter /apps/easybuild-2022/easybuild/software/Compiler/NVHPC/22.11-CUDA-11.7.0/Gaussian/g16c01-CUDA-11.7.0/g16/l1102.exe)
 Symmetrizing basis deriv contribution to polar:
 IMax=3 JMax=2 DiffMx= 0.00D+00
 Leave Link 1102 at Sun May 25 05:12:03 2025, MaxMem=  3758096384 cpu:               0.1 elap:               0.0
 (Enter /apps/easybuild-2022/easybuild/software/Compiler/NVHPC/22.11-CUDA-11.7.0/Gaussian/g16c01-CUDA-11.7.0/g16/l1110.exe)
 Forming Gx(P) for the SCF density, NAtomX=     9.
 Integral derivatives from FoFJK, PRISM(SPDF).
 Do as many integral derivatives as possible in FoFJK.
 G2DrvN: MDV=    3758095321.
 G2DrvN: will do    10 centers at a time, making    1 passes.
 Calling FoFCou, ICntrl=  3107 FMM=F I1Cent=   0 AccDes= 0.00D+00.
 FoFJK:  IHMeth= 1 ICntrl=    3107 DoSepK=F KAlg= 0 I1Cent=           0 FoldK=F
 IRaf=         0 NMat=       1 IRICut=       1 DoRegI=T DoRafI=F ISym2E= 0 IDoP0=0 IntGTp=1.
 FoFCou: FMM=F IPFlag=           0 FMFlag=      100000 FMFlg1=           0
         NFxFlg=           0 DoJE=F BraDBF=F KetDBF=F FulRan=T
         wScrn=  0.000000 ICntrl=      3107 IOpCl=  0 I1Cent=           0 NGrid=           0
         NMat0=    1 NMatS0=      1 NMatT0=    0 NMatD0=    1 NMtDS0=    0 NMtDT0=    0
 Symmetry not used in FoFCou.
 End of G2Drv F.D. properties file   721 does not exist.
 End of G2Drv F.D. properties file   722 does not exist.
 End of G2Drv F.D. properties file   788 does not exist.
 Leave Link 1110 at Sun May 25 05:12:24 2025, MaxMem=  3758096384 cpu:             171.7 elap:              21.7
 (Enter /apps/easybuild-2022/easybuild/software/Compiler/NVHPC/22.11-CUDA-11.7.0/Gaussian/g16c01-CUDA-11.7.0/g16/l1002.exe)
 Minotr:  Closed shell wavefunction.
          IDoAtm=111111111
          Direct CPHF calculation.
          Differentiating once with respect to nuclear coordinates.
          Requested convergence is 1.0D-08 RMS, and 1.0D-07 maximum.
          Secondary convergence is 1.0D-12 RMS, and 1.0D-12 maximum.
          NewPWx=T KeepS1=F KeepF1=F KeepIn=T MapXYZ=F SortEE=F KeepMc=T.
         2690 words used for storage of precomputed grid.
 Keep R1 ints in memory in canonical form, NReq=715218551.
 FoFCou: FMM=F IPFlag=           0 FMFlag=           0 FMFlg1=           0
         NFxFlg=           0 DoJE=F BraDBF=F KetDBF=F FulRan=T
         wScrn=  0.000000 ICntrl=       600 IOpCl=  0 I1Cent=           0 NGrid=           0
         NMat0=    1 NMatS0=  37401 NMatT0=    0 NMatD0=    1 NMtDS0=    0 NMtDT0=    0
 Symmetry not used in FoFCou.
 Two-electron integral symmetry not used.
          MDV=    3758096384 using IRadAn=       1.
          Solving linear equations simultaneously, MaxMat=       0.
          There are    30 degrees of freedom in the 1st order CPHF.  IDoFFX=6 NUNeed=     0.
     24 vectors produced by pass  0 Test12= 2.91D-14 3.33D-09 XBig12= 1.52D-01 9.62D-02.
 AX will form    24 AO Fock derivatives at one time.
     24 vectors produced by pass  1 Test12= 2.91D-14 3.33D-09 XBig12= 4.37D-02 6.28D-02.
     24 vectors produced by pass  2 Test12= 2.91D-14 3.33D-09 XBig12= 2.06D-03 9.37D-03.
     24 vectors produced by pass  3 Test12= 2.91D-14 3.33D-09 XBig12= 4.64D-05 1.37D-03.
     24 vectors produced by pass  4 Test12= 2.91D-14 3.33D-09 XBig12= 6.17D-07 1.28D-04.
     24 vectors produced by pass  5 Test12= 2.91D-14 3.33D-09 XBig12= 7.28D-09 1.16D-05.
     24 vectors produced by pass  6 Test12= 2.91D-14 3.33D-09 XBig12= 6.62D-11 1.11D-06.
     14 vectors produced by pass  7 Test12= 2.91D-14 3.33D-09 XBig12= 3.81D-13 7.80D-08.
      3 vectors produced by pass  8 Test12= 2.91D-14 3.33D-09 XBig12= 2.19D-15 4.57D-09.
 InvSVY:  IOpt=1 It=  1 EMax= 2.22D-15
 Solved reduced A of dimension   185 with    24 vectors.
 End of Minotr F.D. properties file   721 does not exist.
 End of Minotr F.D. properties file   722 does not exist.
 End of Minotr F.D. properties file   788 does not exist.
 Leave Link 1002 at Sun May 25 05:12:55 2025, MaxMem=  3758096384 cpu:             237.8 elap:              30.4
 (Enter /apps/easybuild-2022/easybuild/software/Compiler/NVHPC/22.11-CUDA-11.7.0/Gaussian/g16c01-CUDA-11.7.0/g16/l701.exe)
 ... and contract with generalized density number  0.
 Compute integral second derivatives.
   1 Symmetry operations used in ECPInt.
 ECPInt:  NShTT=    4753 NPrTT=   15592 LenC2=    4511 LenP2D=   11249.
 LDataN:  DoStor=T MaxTD1= 8 Len=  415
 Leave Link  701 at Sun May 25 05:12:55 2025, MaxMem=  3758096384 cpu:               0.7 elap:               0.1
 (Enter /apps/easybuild-2022/easybuild/software/Compiler/NVHPC/22.11-CUDA-11.7.0/Gaussian/g16c01-CUDA-11.7.0/g16/l702.exe)
 L702 exits ... SP integral derivatives will be done elsewhere.
 Leave Link  702 at Sun May 25 05:12:55 2025, MaxMem=  3758096384 cpu:               0.0 elap:               0.0
 (Enter /apps/easybuild-2022/easybuild/software/Compiler/NVHPC/22.11-CUDA-11.7.0/Gaussian/g16c01-CUDA-11.7.0/g16/l703.exe)
 Integral derivatives from FoFJK, PRISM(SPDF).
 Compute integral second derivatives, UseDBF=F ICtDFT=           0.
 Calling FoFJK, ICntrl=    100127 FMM=F ISym2X=0 I1Cent= 0 IOpClX= 0 NMat=1 NMatS=1 NMatT=0.
 FoFJK:  IHMeth= 1 ICntrl=  100127 DoSepK=F KAlg= 0 I1Cent=           0 FoldK=F
 IRaf=         0 NMat=       1 IRICut=       1 DoRegI=T DoRafI=F ISym2E= 0 IDoP0=0 IntGTp=1.
 FoFCou: FMM=F IPFlag=           0 FMFlag=      100000 FMFlg1=         800
         NFxFlg=           0 DoJE=F BraDBF=F KetDBF=F FulRan=T
         wScrn=  0.000000 ICntrl=    100127 IOpCl=  0 I1Cent=           0 NGrid=           0
         NMat0=    1 NMatS0=      1 NMatT0=    0 NMatD0=    1 NMtDS0=    0 NMtDT0=    0
 Symmetry not used in FoFCou.
 Leave Link  703 at Sun May 25 05:13:42 2025, MaxMem=  3758096384 cpu:             375.6 elap:              47.4
 (Enter /apps/easybuild-2022/easybuild/software/Compiler/NVHPC/22.11-CUDA-11.7.0/Gaussian/g16c01-CUDA-11.7.0/g16/l716.exe)
 Dipole        =-1.10947384D+00 2.65108823D-01 9.15413941D-01
 Polarizability= 0.00000000D+00 0.00000000D+00 0.00000000D+00
                 0.00000000D+00 0.00000000D+00 0.00000000D+00
 -------------------------------------------------------------------
 Center     Atomic                   Forces (Hartrees/Bohr)
 Number     Number              X              Y              Z
 -------------------------------------------------------------------
      1        6           0.000029329   -0.002647194    0.001708864
      2        9           0.004546257   -0.005879637    0.010488359
      3        9           0.006118905   -0.009356202    0.004198529
      4        9          -0.009331995    0.001011545   -0.005654114
      5       16          -0.000806940    0.010001903   -0.003934600
      6        8           0.002615058   -0.000433359   -0.002001509
      7        8          -0.006191537    0.004869095   -0.005353119
      8        8           0.003078678    0.002240013    0.000852149
      9        1          -0.000057755    0.000193836   -0.000304559
 -------------------------------------------------------------------
 Cartesian Forces:  Max     0.010488359 RMS     0.004985594
 Force constants in Cartesian coordinates: 
                1             2             3             4             5 
      1  0.581978D+00
      2 -0.337799D-01  0.620093D+00
      3 -0.433842D-02  0.682166D-02  0.587824D+00
      4 -0.123564D+00  0.914457D-01  0.351715D-01  0.169038D+00
      5  0.872067D-01 -0.245404D+00 -0.600318D-01 -0.144880D+00  0.359591D+00
      6  0.329681D-01 -0.592965D-01 -0.102827D+00 -0.463447D-01  0.985945D-01
      7 -0.826904D-01  0.115314D-02  0.287227D-01  0.123250D-02  0.135111D-01
      8  0.229579D-02 -0.817785D-01  0.788287D-02  0.162341D-01 -0.504809D-02
      9  0.353226D-01  0.739913D-02 -0.278269D+00  0.225337D-01 -0.285846D-01
     10 -0.164806D+00 -0.906269D-01  0.171921D-01  0.171842D-01 -0.355260D-02
     11 -0.833512D-01 -0.183686D+00  0.242763D-01 -0.232084D-01 -0.906422D-01
     12  0.154437D-01  0.223988D-01 -0.864723D-01 -0.345559D-02 -0.137263D-01
     13 -0.179808D-01  0.381527D-01 -0.276254D-01 -0.183592D-02 -0.270661D-02
     14  0.652293D-01  0.535578D-02  0.292547D-01 -0.109162D-01  0.785759D-02
     15 -0.480736D-01  0.160391D-01 -0.187289D-01  0.134959D-01 -0.892853D-02
     16  0.116768D-01 -0.958467D-03  0.895098D-02 -0.416627D-02  0.369436D-02
     17  0.114855D-02 -0.551168D-02  0.936803D-03  0.130516D-03  0.152597D-03
     18  0.263540D-02 -0.176844D-02  0.376959D-02 -0.169553D-02  0.183725D-02
     19 -0.159348D-01 -0.655739D-02  0.150009D-02  0.347856D-02 -0.598046D-03
     20 -0.877129D-02 -0.256230D-02 -0.400198D-02 -0.533514D-03  0.465655D-03
     21  0.225706D-01  0.464935D-03  0.469450D-02 -0.484771D-02  0.293688D-02
     22 -0.186049D+00 -0.175789D-03 -0.572984D-01 -0.621268D-01  0.480947D-01
     23 -0.302716D-01 -0.106903D+00 -0.573856D-02  0.717229D-01 -0.268984D-01
     24 -0.575947D-01  0.784734D-02 -0.111438D+00 -0.144539D-01  0.765199D-02
     25 -0.263057D-02  0.134689D-02 -0.227512D-02  0.759305D-03 -0.769625D-03
     26  0.293675D-03  0.396879D-03  0.600040D-03  0.486085D-05 -0.738699D-04
     27  0.106634D-02  0.940186D-04  0.144763D-02 -0.403741D-03  0.250650D-03
                6             7             8             9            10 
      6  0.110813D+00
      7  0.302469D-01  0.992074D-01
      8 -0.448617D-01  0.969131D-02  0.777936D-01
      9 -0.395060D-01 -0.521958D-01 -0.172013D-01  0.432449D+00
     10 -0.156064D-02 -0.116387D-01 -0.276076D-01  0.348814D-01  0.210818D+00
     11 -0.702729D-02 -0.273169D-01 -0.931178D-02  0.330075D-01  0.158731D+00
     12  0.152850D-01  0.483637D-01  0.482480D-01 -0.402338D-01 -0.426348D-01
     13 -0.285175D-03  0.641306D-03 -0.144564D-02  0.785729D-02 -0.364528D-02
     14 -0.599850D-03 -0.105675D-01 -0.127067D-02 -0.196327D-01 -0.150907D-01
     15  0.397029D-03  0.285683D-02 -0.182922D-02  0.185626D-02  0.802392D-02
     16 -0.412054D-03 -0.113408D-02  0.450029D-03 -0.479642D-02 -0.141826D-02
     17  0.233105D-03  0.561277D-03  0.434542D-03  0.642951D-03  0.127252D-02
     18 -0.132896D-03  0.180101D-04  0.259254D-03 -0.115096D-03 -0.114804D-02
     19 -0.237699D-03  0.215144D-02  0.497244D-03  0.494792D-03  0.218351D-02
     20 -0.198329D-04  0.226264D-02  0.724579D-03  0.407004D-02  0.184660D-02
     21  0.509212D-03 -0.278718D-02 -0.215462D-03 -0.260810D-02 -0.548635D-02
     22 -0.144799D-01 -0.800696D-02  0.531142D-04 -0.447104D-01 -0.495159D-01
     23  0.130655D-01  0.107224D-01  0.185626D-01  0.201773D-01 -0.246724D-01
     24  0.155991D-01 -0.551802D-01  0.772875D-02 -0.726262D-01 -0.917049D-02
     25  0.105237D-03  0.237535D-03 -0.168362D-03  0.612866D-03  0.837556D-03
     26 -0.878922D-04 -0.173709D-04 -0.106310D-03  0.121680D-03 -0.300034D-03
     27 -0.137354D-03 -0.449878D-04 -0.111366D-04 -0.947340D-03 -0.971158D-04
               11            12            13            14            15 
     11  0.284551D+00
     12 -0.471846D-01  0.103573D+00
     13 -0.266628D-02  0.229249D-02  0.513774D+00
     14 -0.143720D-01 -0.235600D-03  0.547996D-01  0.353930D+00
     15  0.629557D-02 -0.307663D-02 -0.211090D+00  0.410669D-02  0.673265D+00
     16  0.676852D-03 -0.100680D-02 -0.194519D+00 -0.711926D-01 -0.617111D-01
     17  0.250176D-02 -0.165368D-03 -0.893277D-01 -0.876599D-01 -0.502516D-01
     18  0.362323D-03 -0.302793D-04 -0.597673D-01 -0.384932D-01 -0.100303D+00
     19  0.505761D-02 -0.470276D-02 -0.229718D+00 -0.254369D-01  0.271917D+00
     20  0.192801D-02  0.102447D-02 -0.123982D-01 -0.730271D-01 -0.402169D-02
     21 -0.193952D-02 -0.773978D-03  0.295411D+00  0.229808D-01 -0.528597D+00
     22 -0.279180D-01 -0.145434D-01 -0.430547D-01  0.105415D-01 -0.277030D-02
     23  0.944991D-02 -0.102752D-01  0.198743D-01 -0.193654D+00  0.301703D-01
     24 -0.788023D-02  0.118884D-01 -0.920215D-03  0.402782D-02 -0.315201D-01
     25 -0.469315D-05  0.243430D-03 -0.236616D-01  0.263356D-02  0.273516D-01
     26 -0.417807D-03 -0.842542D-04 -0.428213D-02  0.284002D-02  0.841941D-02
     27  0.899657D-04 -0.159151D-03 -0.587302D-02 -0.140866D-02  0.670696D-02
               16            17            18            19            20 
     16  0.458263D+00
     17  0.605757D-01  0.681939D-01
     18 -0.180354D+00  0.348506D-01  0.417753D+00
     19 -0.253551D-01  0.227711D-02  0.382335D-01  0.250682D+00
     20 -0.790774D-02  0.910828D-02  0.213494D-01  0.399253D-01  0.648365D-01
     21  0.923243D-02  0.109414D-01  0.166131D-01 -0.305264D+00 -0.612816D-01
     22 -0.352819D-01  0.267838D-01 -0.143203D-01  0.165803D-01 -0.925735D-02
     23  0.114980D-01  0.186322D-01  0.221507D-02 -0.980584D-02 -0.130451D-02
     24 -0.210164D-01  0.143259D-01 -0.373630D-02  0.155093D-02  0.442160D-01
     25 -0.208065D+00 -0.342177D-02  0.216399D+00 -0.406745D-02 -0.516648D-02
     26  0.316385D-02 -0.585176D-02 -0.206123D-01 -0.535915D-02 -0.169116D-03
     27  0.251114D+00 -0.115138D-01 -0.333818D+00 -0.349140D-02 -0.133485D-02
               21            22            23            24            25 
     21  0.528085D+00
     22 -0.535386D-02  0.366067D+00
     23  0.268705D-01 -0.483839D-01  0.284895D+00
     24 -0.206446D-01  0.156667D+00 -0.789193D-01  0.215014D+00
     25 -0.347512D-02  0.138766D-02 -0.683883D-03  0.117682D-03  0.235203D+00
     26 -0.758005D-03  0.261944D-03 -0.278015D-02  0.100172D-02  0.623435D-02
     27  0.272225D-02 -0.319065D-02  0.243426D-02 -0.253557D-02 -0.239079D+00
               26            27 
     26  0.616211D-02
     27  0.113996D-01  0.326721D+00
 FormGI is forming the generalized inverse of G from B-inverse, IUseBI=4.
 Force constants in internal coordinates: 
                1             2             3             4             5 
      1  0.470155D+00
      2  0.490719D-01  0.440736D+00
      3  0.574308D-01  0.591774D-01  0.422616D+00
      4  0.635145D-01  0.643629D-01  0.459732D-01  0.426450D+00
      5  0.421791D-02  0.368822D-02 -0.829584D-03 -0.553395D-02  0.305472D+00
      6  0.512912D-02  0.208381D-02  0.750516D-02 -0.125510D-01  0.216565D-01
      7 -0.127412D-01 -0.122995D-01 -0.163263D-01  0.422803D-01  0.278184D-01
      8 -0.867936D-03 -0.105234D-02 -0.282254D-03  0.127149D-02  0.487092D-02
      9  0.192256D-01  0.183339D-01 -0.143411D-01 -0.483292D-01 -0.253097D-02
     10  0.319275D-01 -0.150379D-01  0.381797D-01 -0.467689D-01 -0.239695D-02
     11  0.389243D-01 -0.349448D-01 -0.427600D-01  0.614082D-01  0.342445D-02
     12 -0.149825D-01  0.357859D-01  0.447796D-01 -0.503517D-01 -0.164074D-02
     13 -0.339492D-01  0.390620D-01 -0.423039D-01  0.550719D-01  0.111958D-02
     14 -0.399543D-01 -0.416391D-01  0.162240D-01  0.236696D-01  0.175448D-02
     15 -0.204534D-02  0.121202D-03  0.210606D-02 -0.215525D-02  0.103999D-01
     16  0.452971D-02  0.453711D-02  0.619335D-02  0.614161D-02  0.368754D-01
     17 -0.162909D-02  0.555924D-02  0.838379D-03 -0.416723D-02 -0.770589D-02
     18 -0.978200D-03  0.114805D-03 -0.377162D-03  0.104635D-02  0.396776D-01
     19  0.411799D-02  0.401611D-02  0.219506D-02  0.717156D-01  0.785531D-02
     20 -0.803703D-02  0.351062D-01 -0.324702D-01  0.121486D-02 -0.564915D-03
     21 -0.340149D-01  0.116631D-01  0.312646D-01 -0.569843D-02 -0.850487D-04
     22  0.370839D-01 -0.371986D-01 -0.525589D-02  0.242944D-02  0.516077D-04
     23 -0.314207D-03  0.382639D-02  0.107961D-02 -0.928779D-03  0.389141D-02
     24  0.186079D-03 -0.353982D-02 -0.212093D-02  0.173095D-02 -0.149848D-02
     25 -0.273036D-04  0.134685D-02 -0.157060D-02  0.528642D-02  0.931434D-02
     26  0.108164D-02 -0.736757D-03 -0.554156D-02  0.640616D-02 -0.104431D-01
                6             7             8             9            10 
      6  0.732328D+00
      7  0.333146D-01  0.244586D+00
      8 -0.342429D-02 -0.314505D-02  0.524128D+00
      9 -0.268915D-02  0.895201D-02  0.700654D-03  0.163155D+00
     10 -0.511500D-02  0.696211D-02  0.688325D-03  0.201370D-01  0.189135D+00
     11  0.504919D-02 -0.115903D-01 -0.732850D-03 -0.790836D-01 -0.104308D+00
     12 -0.315684D-02  0.708078D-02  0.581786D-03  0.191510D-01  0.172296D-01
     13  0.745052D-02 -0.160295D-01 -0.288487D-03 -0.755782D-01 -0.395646D-01
     14 -0.190526D-02  0.568720D-02 -0.879969D-03 -0.323969D-01 -0.788869D-01
     15  0.154795D-01 -0.586621D-02  0.557324D-02  0.106715D-02  0.171186D-02
     16 -0.146467D-01  0.329171D-01 -0.442752D-02 -0.266893D-02 -0.149116D-02
     17  0.205264D-01  0.147932D-01  0.220785D-02 -0.140059D-02 -0.298348D-03
     18  0.540081D-02  0.224204D-02  0.209408D-01  0.625619D-03  0.652954D-03
     19 -0.215129D-04  0.593464D-01 -0.357150D-03 -0.498311D-02 -0.156648D-01
     20  0.188493D-02 -0.234898D-02  0.230545D-03  0.550949D-01 -0.555381D-01
     21 -0.178974D-02  0.221603D-02 -0.337050D-04 -0.528494D-01  0.185075D-03
     22 -0.210370D-02  0.148450D-02  0.334022D-05  0.644214D-03  0.591257D-01
     23  0.836481D-02  0.162487D-01  0.211175D-02 -0.999893D-03 -0.179624D-03
     24 -0.105151D-01 -0.938032D-02  0.497477D-03  0.121121D-02  0.396731D-03
     25  0.705859D-02  0.542691D-02  0.282910D-02 -0.460576D-03  0.143349D-03
     26 -0.772537D-02  0.658515D-03 -0.204249D-02 -0.661054D-03 -0.118930D-02
               11            12            13            14            15 
     11  0.271984D+00
     12 -0.382225D-01  0.197094D+00
     13 -0.311541D-01 -0.108538D+00  0.275245D+00
     14 -0.302834D-01 -0.845995D-01 -0.279727D-01  0.253051D+00
     15  0.525098D-03  0.167945D-02  0.422568D-02 -0.918959D-02  0.165377D+00
     16  0.636855D-02 -0.197958D-02  0.415040D-02 -0.474865D-02 -0.153007D-01
     17 -0.518248D-02 -0.697996D-02  0.458410D-02  0.926498D-02  0.440715D-03
     18  0.601416D-04  0.228345D-03 -0.225572D-03 -0.129206D-02  0.243733D-01
     19  0.208616D-02 -0.190593D-01 -0.570333D-02  0.430819D-01 -0.817137D-02
     20 -0.912121D-02 -0.454112D-03  0.478379D-01 -0.335988D-01  0.207032D-02
     21 -0.500574D-01  0.570964D-01  0.514604D-02  0.367688D-01 -0.177857D-02
     22  0.427408D-01 -0.610102D-01 -0.445064D-01  0.299087D-02 -0.117850D-02
     23 -0.181802D-02 -0.368761D-02  0.346088D-02  0.316797D-02  0.583475D-02
     24  0.147952D-02  0.409479D-02 -0.329795D-02 -0.380882D-02 -0.116541D-01
     25 -0.152545D-02 -0.240560D-02 -0.297972D-03  0.455757D-02  0.838770D-01
     26 -0.311386D-02 -0.269543D-02 -0.640592D-02  0.141581D-01 -0.835618D-01
               16            17            18            19            20 
     16  0.369838D+00
     17 -0.276190D-01  0.170219D+00
     18  0.390299D-02  0.303767D-02  0.139475D+00
     19  0.163732D-01  0.752581D-02  0.945743D-03  0.268491D+00
     20  0.302378D-03 -0.221174D-03  0.301755D-03 -0.575201D-02  0.616181D-01
     21 -0.233891D-02  0.183164D-02 -0.349313D-03  0.207785D-02 -0.244500D-01
     22  0.170248D-03  0.137718D-02  0.365900D-03  0.307148D-02 -0.382410D-01
     23  0.454208D-01  0.881588D-01  0.572126D-02  0.702972D-02  0.209174D-03
     24 -0.450247D-01 -0.821977D-01 -0.201349D-02 -0.519432D-02  0.667372D-04
     25  0.355503D-01  0.124631D-01  0.142177D-01  0.143972D-01  0.249782D-03
     26 -0.450734D-01 -0.285918D-02 -0.125167D-01  0.174521D-01 -0.195031D-02
               21            22            23            24            25 
     21  0.631376D-01
     22 -0.386312D-01  0.721604D-01
     23  0.524978D-03  0.620938D-03  0.570899D-01
     24 -0.399071D-03 -0.729157D-03 -0.515239D-01  0.514538D-01
     25  0.180553D-02  0.218373D-02  0.171418D-01 -0.188657D-01  0.560484D-01
     26  0.404295D-02  0.317919D-02 -0.127768D-01  0.161988D-01 -0.422054D-01
               26 
     26  0.570390D-01
 Leave Link  716 at Sun May 25 05:13:42 2025, MaxMem=  3758096384 cpu:               0.0 elap:               0.0
 (Enter /apps/easybuild-2022/easybuild/software/Compiler/NVHPC/22.11-CUDA-11.7.0/Gaussian/g16c01-CUDA-11.7.0/g16/l103.exe)

 GradGradGradGradGradGradGradGradGradGradGradGradGradGradGradGradGradGrad
 Berny optimization.
 Red2BG is reusing G-inverse.
 Internal  Forces:  Max     0.020974442 RMS     0.009242905
 Search for a local minimum.
 Step number   1 out of a maximum of   36
 All quantities printed in internal units (Hartrees-Bohrs-Radians)
 RMS Force = .92429D-02 SwitMx=.10000D-02 MixMth= 1
 Mixed Optimization -- RFO/linear search
 Second derivative matrix not updated -- analytic derivatives used.
 ITU=  0
     Eigenvalues ---   -0.00334   0.00233   0.01220   0.12378   0.17510
     Eigenvalues ---    0.19079   0.20469   0.20660   0.23422   0.27401
     Eigenvalues ---    0.28496   0.30054   0.31913   0.33672   0.42329
     Eigenvalues ---    0.43711   0.47835   0.52588   0.56158   0.62100
     Eigenvalues ---    0.73913
 Eigenvalue     1 is  -3.34D-03 should be greater than     0.000000 Eigenvector:
                          D3        D2        D1        D7        D6
   1                   -0.56376  -0.55915  -0.55873   0.16773   0.16520
                          A3        A11       A5        D5        D4
   1                   -0.02299  -0.02156   0.01476  -0.01279  -0.01253
 RFO step:  Lambda=-8.56828697D-03 EMin=-3.33881386D-03
 Linear search not attempted -- first point.
 Iteration  1 RMS(Cart)=  0.13434763 RMS(Int)=  0.07201569
 Iteration  2 RMS(Cart)=  0.12130273 RMS(Int)=  0.00727857
 Iteration  3 RMS(Cart)=  0.01018097 RMS(Int)=  0.00039671
 Iteration  4 RMS(Cart)=  0.00005808 RMS(Int)=  0.00039444
 Iteration  5 RMS(Cart)=  0.00000002 RMS(Int)=  0.00039444
 ITry= 1 IFail=0 DXMaxC= 5.43D-01 DCOld= 1.00D+10 DXMaxT= 3.00D-01 DXLimC= 3.00D+00 Rises=F
 Variable       Old X    -DE/DX   Delta X   Delta X   Delta X     New X
                                 (Linear)    (Quad)   (Total)
    R1        2.48603   0.00357   0.00000   0.00411   0.00411   2.49013
    R2        2.50869   0.00323   0.00000   0.01229   0.01229   2.52098
    R3        2.52282  -0.00426   0.00000  -0.00791  -0.00791   2.51490
    R4        2.56953   0.00701   0.00000  -0.01424  -0.01424   2.55528
    R5        3.02925  -0.00163   0.00000  -0.00887  -0.00887   3.02038
    R6        2.69423   0.00159   0.00000  -0.00413  -0.00413   2.69010
    R7        3.12925   0.01842   0.00000   0.07383   0.07383   3.20307
    R8        1.82725  -0.00020   0.00000   0.00009   0.00009   1.82734
    A1        1.96172  -0.01780   0.00000  -0.07243  -0.07262   1.88910
    A2        1.87359   0.00398   0.00000   0.02792   0.02855   1.90214
    A3        1.86141   0.01509   0.00000   0.03517   0.03540   1.89681
    A4        1.84784   0.00502   0.00000   0.02272   0.02371   1.87156
    A5        1.88352   0.01278   0.00000   0.05852   0.05897   1.94248
    A6        2.03857  -0.02097   0.00000  -0.07923  -0.07838   1.96019
    A7        1.86639  -0.00863   0.00000  -0.04065  -0.04038   1.82601
    A8        1.62001  -0.00378   0.00000  -0.01457  -0.01452   1.60550
    A9        1.80807   0.01343   0.00000   0.04841   0.04832   1.85639
   A10        1.92405   0.00026   0.00000   0.01113   0.01113   1.93517
   A11        2.03000   0.01409   0.00000   0.02589   0.02589   2.05589
    D1       -2.38506  -0.00324   0.00000  -0.41965  -0.41899  -2.80405
    D2        1.78668   0.00248   0.00000  -0.38532  -0.38625   1.40043
    D3       -0.29092  -0.00006   0.00000  -0.40754  -0.40725  -0.69817
    D4       -3.00707   0.00611   0.00000  -0.03324  -0.03313  -3.04019
    D5        1.44126  -0.00564   0.00000  -0.07405  -0.07417   1.36709
    D6       -3.04212  -0.00184   0.00000   0.18898   0.18871  -2.85340
    D7        1.35299   0.00637   0.00000   0.22873   0.22900   1.58200
         Item               Value     Threshold  Converged?
 Maximum Force            0.020974     0.000450     NO 
 RMS     Force            0.009243     0.000300     NO 
 Maximum Displacement     0.542534     0.001800     NO 
 RMS     Displacement     0.222800     0.001200     NO 
 Predicted change in Energy=-5.901838D-03
 Lowest energy point so far.  Saving SCF results.
 GradGradGradGradGradGradGradGradGradGradGradGradGradGradGradGradGradGrad

 Leave Link  103 at Sun May 25 05:13:42 2025, MaxMem=  3758096384 cpu:               0.0 elap:               0.0
 (Enter /apps/easybuild-2022/easybuild/software/Compiler/NVHPC/22.11-CUDA-11.7.0/Gaussian/g16c01-CUDA-11.7.0/g16/l202.exe)
                          Input orientation:                          
 ---------------------------------------------------------------------
 Center     Atomic      Atomic             Coordinates (Angstroms)
 Number     Number       Type             X           Y           Z
 ---------------------------------------------------------------------
      1          6           0        0.778146   -0.657688    0.667271
      2          9           0        1.286526   -1.865699    0.530714
      3          9           0        0.481336   -0.472718    1.954658
      4          9           0        1.704584    0.241082    0.343187
      5         16           0       -0.875046    0.990385   -0.511582
      6          8           0       -2.303667    0.428716   -0.956752
      7          8           0       -0.230717    1.341093   -1.731545
      8          8           0       -0.324386   -0.561460   -0.109649
      9          1           0       -2.857483    0.245487   -0.185534
 ---------------------------------------------------------------------
                    Distance matrix (angstroms):
                    1          2          3          4          5
     1  C    0.000000
     2  F    1.317721   0.000000
     3  F    1.334045   2.148568   0.000000
     4  F    1.330829   2.156030   2.145387   0.000000
     5  S    2.615126   3.730415   3.172189   2.818968   0.000000
     6  O    3.649013   4.512913   4.128575   4.217953   1.598314
     7  O    3.281348   4.207535   4.169535   3.043013   1.423539
     8  O    1.352199   2.169365   2.217753   2.228420   1.694992
     9  H    3.841978   4.705627   4.030378   4.592605   2.142717
                    6          7          8          9
     6  O    0.000000
     7  O    2.393712   0.000000
     8  O    2.369722   2.501804   0.000000
     9  H    0.966986   3.238888   2.659605   0.000000
 Symmetry turned off by external request.
 Stoichiometry    CHF3O3S
 Rotational constants (GHZ):           3.5236832           1.1812694           1.0785989
 Leave Link  202 at Sun May 25 05:13:42 2025, MaxMem=  3758096384 cpu:               0.0 elap:               0.0
 (Enter /apps/easybuild-2022/easybuild/software/Compiler/NVHPC/22.11-CUDA-11.7.0/Gaussian/g16c01-CUDA-11.7.0/g16/l301.exe)
 Standard basis: def2TZVPP (5D, 7F)
 Ernie: Thresh=  0.10000D-02 Tol=  0.10000D-05 Strict=F.
   273 basis functions,   443 primitive gaussians,   315 cartesian basis functions
    37 alpha electrons       37 beta electrons
       nuclear repulsion energy       545.2242461185 Hartrees.
 IExCor= 4336 DFT=T Ex+Corr=M062X ExCW=0 ScaHFX=  0.540000
 ScaDFX=  1.000000  1.000000  1.000000  1.000000 ScalE2=  1.000000  1.000000
 IRadAn=      5 IRanWt=     -1 IRanGd=            0 ICorTp=0 IEmpDi=  4
 NAtoms=    9 NActive=    9 NUniq=    9 SFac= 1.00D+00 NAtFMM=   60 NAOKFM=F Big=F
 Integral buffers will be    131072 words long.
 Raffenetti 2 integral format.
 Two-electron integral symmetry is turned off.
 Leave Link  301 at Sun May 25 05:13:42 2025, MaxMem=  3758096384 cpu:               0.0 elap:               0.0
 (Enter /apps/easybuild-2022/easybuild/software/Compiler/NVHPC/22.11-CUDA-11.7.0/Gaussian/g16c01-CUDA-11.7.0/g16/l302.exe)
 NPDir=0 NMtPBC=     1 NCelOv=     1 NCel=       1 NClECP=     1 NCelD=      1
         NCelK=      1 NCelE2=     1 NClLst=     1 CellRange=     0.0.
 One-electron integrals computed using PRISM.
   1 Symmetry operations used in ECPInt.
 ECPInt:  NShTT=    4753 NPrTT=   15592 LenC2=    4500 LenP2D=   11218.
 LDataN:  DoStor=T MaxTD1= 6 Len=  172
 NBasis=   273 RedAO= T EigKep=  1.16D-03  NBF=   273
 NBsUse=   273 1.00D-06 EigRej= -1.00D+00 NBFU=   273
 Precomputing XC quadrature grid using
 IXCGrd= 4 IRadAn=           5 IRanWt=          -1 IRanGd=           0 AccXCQ= 0.00D+00.
 Generated NRdTot=       0 NPtTot=           0 NUsed=           0 NTot=          32
 NSgBfM=   313   313   313   313   313 MxSgAt=     9 MxSgA2=     9.
 Leave Link  302 at Sun May 25 05:13:43 2025, MaxMem=  3758096384 cpu:               0.6 elap:               0.1
 (Enter /apps/easybuild-2022/easybuild/software/Compiler/NVHPC/22.11-CUDA-11.7.0/Gaussian/g16c01-CUDA-11.7.0/g16/l303.exe)
 DipDrv:  MaxL=1.
 Leave Link  303 at Sun May 25 05:13:43 2025, MaxMem=  3758096384 cpu:               0.1 elap:               0.0
 (Enter /apps/easybuild-2022/easybuild/software/Compiler/NVHPC/22.11-CUDA-11.7.0/Gaussian/g16c01-CUDA-11.7.0/g16/l401.exe)
 Initial guess from the checkpoint file:  "1502984803620600000001_r13_insertion_ROR_9_8_5_6_IRC_R_prod.chk"
 B after Tr=    -0.015361    0.042134    0.004422
         Rot=    0.999823    0.009028   -0.004934    0.015769 Ang=   2.16 deg.
 Guess basis will be translated and rotated to current coordinates.
 JPrj=2 DoOrth=T DoCkMO=T.
 Generating alternative initial guess.
 ExpMin= 9.52D-02 ExpMax= 6.07D+04 ExpMxC= 2.07D+03 IAcc=3 IRadAn=         5 AccDes= 0.00D+00
 Harris functional with IExCor= 1009 and IRadAn=       5 diagonalized for initial guess.
 HarFok:  IExCor= 1009 AccDes= 0.00D+00 IRadAn=         5 IDoV= 1 UseB2=F ITyADJ=14
 ICtDFT=  3500011 ScaDFX=  1.000000  1.000000  1.000000  1.000000
 FoFCou: FMM=F IPFlag=           0 FMFlag=      100000 FMFlg1=           0
         NFxFlg=           0 DoJE=T BraDBF=F KetDBF=T FulRan=T
         wScrn=  0.000000 ICntrl=       500 IOpCl=  0 I1Cent=   200000004 NGrid=           0
         NMat0=    1 NMatS0=      1 NMatT0=    0 NMatD0=    1 NMtDS0=    0 NMtDT0=    0
 Symmetry not used in FoFCou.
 Harris En= -961.694074234086    
 Leave Link  401 at Sun May 25 05:13:43 2025, MaxMem=  3758096384 cpu:               2.9 elap:               0.5
 (Enter /apps/easybuild-2022/easybuild/software/Compiler/NVHPC/22.11-CUDA-11.7.0/Gaussian/g16c01-CUDA-11.7.0/g16/l502.exe)
 Keep R1 ints in memory in canonical form, NReq=715214082.
 FoFCou: FMM=F IPFlag=           0 FMFlag=           0 FMFlg1=           0
         NFxFlg=           0 DoJE=F BraDBF=F KetDBF=F FulRan=T
         wScrn=  0.000000 ICntrl=       600 IOpCl=  0 I1Cent=           0 NGrid=           0
         NMat0=    1 NMatS0=  37401 NMatT0=    0 NMatD0=    1 NMtDS0=    0 NMtDT0=    0
 Symmetry not used in FoFCou.
 Two-electron integral symmetry not used.
 Closed shell SCF:
 Using DIIS extrapolation, IDIIS=  1040.
 NGot=  3758096384 LenX=  3058457086 LenY=  3058357420
 Requested convergence on RMS density matrix=1.00D-08 within  32 cycles.
 Requested convergence on MAX density matrix=1.00D-06.
 Requested convergence on             energy=1.00D-06.
 No special actions if energy rises.
 Integral accuracy reduced to 1.0D-05 until final iterations.

 Cycle   1  Pass 0  IDiag  1:
 E= -962.041044607763    
 DIIS: error= 8.56D-03 at cycle   1 NSaved=   1.
 NSaved= 1 IEnMin= 1 EnMin= -962.041044607763     IErMin= 1 ErrMin= 8.56D-03
 ErrMax= 8.56D-03  0.00D+00 EMaxC= 1.00D-01 BMatC= 8.06D-02 BMatP= 8.06D-02
 IDIUse=3 WtCom= 9.14D-01 WtEn= 8.56D-02
 Coeff-Com:  0.100D+01
 Coeff-En:   0.100D+01
 Coeff:      0.100D+01
 Gap=     1.056 Goal=   None    Shift=    0.000
 GapD=    1.056 DampG=2.000 DampE=1.000 DampFc=2.0000 IDamp=-1.
 RMSDP=9.64D-04 MaxDP=2.74D-02              OVMax= 6.66D-02

 Cycle   2  Pass 0  IDiag  1:
 E= -962.134573178117     Delta-E=       -0.093528570354 Rises=F Damp=F
 DIIS: error= 2.65D-03 at cycle   2 NSaved=   2.
 NSaved= 2 IEnMin= 2 EnMin= -962.134573178117     IErMin= 2 ErrMin= 2.65D-03
 ErrMax= 2.65D-03  0.00D+00 EMaxC= 1.00D-01 BMatC= 4.81D-03 BMatP= 8.06D-02
 IDIUse=3 WtCom= 9.74D-01 WtEn= 2.65D-02
 Coeff-Com: -0.557D-01 0.106D+01
 Coeff-En:   0.000D+00 0.100D+01
 Coeff:     -0.543D-01 0.105D+01
 Gap=     0.392 Goal=   None    Shift=    0.000
 RMSDP=3.18D-04 MaxDP=1.20D-02 DE=-9.35D-02 OVMax= 2.38D-02

 Cycle   3  Pass 0  IDiag  1:
 E= -962.136454387690     Delta-E=       -0.001881209573 Rises=F Damp=F
 DIIS: error= 3.64D-03 at cycle   3 NSaved=   3.
 NSaved= 3 IEnMin= 3 EnMin= -962.136454387690     IErMin= 2 ErrMin= 2.65D-03
 ErrMax= 3.64D-03  0.00D+00 EMaxC= 1.00D-01 BMatC= 6.28D-03 BMatP= 4.81D-03
 IDIUse=3 WtCom= 1.42D-01 WtEn= 8.58D-01
 Coeff-Com: -0.856D-01 0.606D+00 0.480D+00
 Coeff-En:   0.000D+00 0.329D+00 0.671D+00
 Coeff:     -0.122D-01 0.368D+00 0.644D+00
 Gap=     0.381 Goal=   None    Shift=    0.000
 RMSDP=2.40D-04 MaxDP=1.31D-02 DE=-1.88D-03 OVMax= 2.81D-02

 Cycle   4  Pass 0  IDiag  1:
 E= -962.138979723287     Delta-E=       -0.002525335597 Rises=F Damp=F
 DIIS: error= 2.47D-03 at cycle   4 NSaved=   4.
 NSaved= 4 IEnMin= 4 EnMin= -962.138979723287     IErMin= 4 ErrMin= 2.47D-03
 ErrMax= 2.47D-03  0.00D+00 EMaxC= 1.00D-01 BMatC= 2.60D-03 BMatP= 4.81D-03
 IDIUse=3 WtCom= 9.75D-01 WtEn= 2.47D-02
 Coeff-Com: -0.181D-01 0.140D-01 0.402D+00 0.603D+00
 Coeff-En:   0.000D+00 0.000D+00 0.310D+00 0.690D+00
 Coeff:     -0.177D-01 0.136D-01 0.399D+00 0.605D+00
 Gap=     0.384 Goal=   None    Shift=    0.000
 RMSDP=1.04D-04 MaxDP=5.28D-03 DE=-2.53D-03 OVMax= 1.13D-02

 Cycle   5  Pass 0  IDiag  1:
 E= -962.140725128311     Delta-E=       -0.001745405024 Rises=F Damp=F
 DIIS: error= 2.83D-04 at cycle   5 NSaved=   5.
 NSaved= 5 IEnMin= 5 EnMin= -962.140725128311     IErMin= 5 ErrMin= 2.83D-04
 ErrMax= 2.83D-04  0.00D+00 EMaxC= 1.00D-01 BMatC= 6.17D-05 BMatP= 2.60D-03
 IDIUse=3 WtCom= 9.97D-01 WtEn= 2.83D-03
 Coeff-Com:  0.318D-02-0.844D-01 0.154D+00 0.343D+00 0.585D+00
 Coeff-En:   0.000D+00 0.000D+00 0.000D+00 0.000D+00 0.100D+01
 Coeff:      0.318D-02-0.841D-01 0.153D+00 0.342D+00 0.586D+00
 Gap=     0.383 Goal=   None    Shift=    0.000
 RMSDP=1.79D-05 MaxDP=6.79D-04 DE=-1.75D-03 OVMax= 2.19D-03

 Cycle   6  Pass 0  IDiag  1:
 E= -962.140768589507     Delta-E=       -0.000043461196 Rises=F Damp=F
 DIIS: error= 3.08D-05 at cycle   6 NSaved=   6.
 NSaved= 6 IEnMin= 6 EnMin= -962.140768589507     IErMin= 6 ErrMin= 3.08D-05
 ErrMax= 3.08D-05  0.00D+00 EMaxC= 1.00D-01 BMatC= 1.06D-06 BMatP= 6.17D-05
 IDIUse=1 WtCom= 1.00D+00 WtEn= 0.00D+00
 Coeff-Com:  0.165D-02-0.183D-01 0.607D-02 0.313D-01 0.126D+00 0.854D+00
 Coeff:      0.165D-02-0.183D-01 0.607D-02 0.313D-01 0.126D+00 0.854D+00
 Gap=     0.383 Goal=   None    Shift=    0.000
 RMSDP=4.62D-06 MaxDP=1.61D-04 DE=-4.35D-05 OVMax= 5.23D-04

 Initial convergence to 1.0D-05 achieved.  Increase integral accuracy.
 Cycle   7  Pass 1  IDiag  1:
 E= -962.140808084233     Delta-E=       -0.000039494726 Rises=F Damp=F
 DIIS: error= 2.94D-05 at cycle   1 NSaved=   1.
 NSaved= 1 IEnMin= 1 EnMin= -962.140808084233     IErMin= 1 ErrMin= 2.94D-05
 ErrMax= 2.94D-05  0.00D+00 EMaxC= 1.00D-01 BMatC= 8.40D-07 BMatP= 8.40D-07
 IDIUse=1 WtCom= 1.00D+00 WtEn= 0.00D+00
 Coeff-Com:  0.100D+01
 Coeff:      0.100D+01
 Gap=     0.383 Goal=   None    Shift=    0.000
 RMSDP=4.62D-06 MaxDP=1.61D-04 DE=-3.95D-05 OVMax= 3.72D-04

 Cycle   8  Pass 1  IDiag  1:
 E= -962.140808536437     Delta-E=       -0.000000452204 Rises=F Damp=F
 DIIS: error= 2.52D-05 at cycle   2 NSaved=   2.
 NSaved= 2 IEnMin= 2 EnMin= -962.140808536437     IErMin= 2 ErrMin= 2.52D-05
 ErrMax= 2.52D-05  0.00D+00 EMaxC= 1.00D-01 BMatC= 4.11D-07 BMatP= 8.40D-07
 IDIUse=1 WtCom= 1.00D+00 WtEn= 0.00D+00
 Coeff-Com:  0.379D+00 0.621D+00
 Coeff:      0.379D+00 0.621D+00
 Gap=     0.383 Goal=   None    Shift=    0.000
 RMSDP=1.59D-06 MaxDP=9.45D-05 DE=-4.52D-07 OVMax= 1.09D-04

 Cycle   9  Pass 1  IDiag  1:
 E= -962.140808758780     Delta-E=       -0.000000222343 Rises=F Damp=F
 DIIS: error= 1.04D-05 at cycle   3 NSaved=   3.
 NSaved= 3 IEnMin= 3 EnMin= -962.140808758780     IErMin= 3 ErrMin= 1.04D-05
 ErrMax= 1.04D-05  0.00D+00 EMaxC= 1.00D-01 BMatC= 7.34D-08 BMatP= 4.11D-07
 IDIUse=1 WtCom= 1.00D+00 WtEn= 0.00D+00
 Coeff-Com: -0.405D-01 0.280D+00 0.761D+00
 Coeff:     -0.405D-01 0.280D+00 0.761D+00
 Gap=     0.383 Goal=   None    Shift=    0.000
 RMSDP=7.49D-07 MaxDP=3.12D-05 DE=-2.22D-07 OVMax= 9.69D-05

 Cycle  10  Pass 1  IDiag  1:
 E= -962.140808813368     Delta-E=       -0.000000054588 Rises=F Damp=F
 DIIS: error= 1.87D-06 at cycle   4 NSaved=   4.
 NSaved= 4 IEnMin= 4 EnMin= -962.140808813368     IErMin= 4 ErrMin= 1.87D-06
 ErrMax= 1.87D-06  0.00D+00 EMaxC= 1.00D-01 BMatC= 3.40D-09 BMatP= 7.34D-08
 IDIUse=1 WtCom= 1.00D+00 WtEn= 0.00D+00
 Coeff-Com: -0.266D-01 0.881D-01 0.301D+00 0.638D+00
 Coeff:     -0.266D-01 0.881D-01 0.301D+00 0.638D+00
 Gap=     0.383 Goal=   None    Shift=    0.000
 RMSDP=1.79D-07 MaxDP=6.69D-06 DE=-5.46D-08 OVMax= 1.85D-05

 Cycle  11  Pass 1  IDiag  1:
 E= -962.140808816415     Delta-E=       -0.000000003047 Rises=F Damp=F
 DIIS: error= 1.23D-06 at cycle   5 NSaved=   5.
 NSaved= 5 IEnMin= 5 EnMin= -962.140808816415     IErMin= 5 ErrMin= 1.23D-06
 ErrMax= 1.23D-06  0.00D+00 EMaxC= 1.00D-01 BMatC= 7.33D-10 BMatP= 3.40D-09
 IDIUse=1 WtCom= 1.00D+00 WtEn= 0.00D+00
 Coeff-Com:  0.212D-02-0.499D-01-0.101D+00 0.273D+00 0.875D+00
 Coeff:      0.212D-02-0.499D-01-0.101D+00 0.273D+00 0.875D+00
 Gap=     0.383 Goal=   None    Shift=    0.000
 RMSDP=1.54D-07 MaxDP=6.50D-06 DE=-3.05D-09 OVMax= 2.67D-05

 Cycle  12  Pass 1  IDiag  1:
 E= -962.140808817464     Delta-E=       -0.000000001049 Rises=F Damp=F
 DIIS: error= 5.18D-07 at cycle   6 NSaved=   6.
 NSaved= 6 IEnMin= 6 EnMin= -962.140808817464     IErMin= 6 ErrMin= 5.18D-07
 ErrMax= 5.18D-07  0.00D+00 EMaxC= 1.00D-01 BMatC= 1.53D-10 BMatP= 7.33D-10
 IDIUse=1 WtCom= 1.00D+00 WtEn= 0.00D+00
 Coeff-Com:  0.375D-02-0.355D-01-0.838D-01 0.555D-01 0.447D+00 0.613D+00
 Coeff:      0.375D-02-0.355D-01-0.838D-01 0.555D-01 0.447D+00 0.613D+00
 Gap=     0.383 Goal=   None    Shift=    0.000
 RMSDP=4.45D-08 MaxDP=1.77D-06 DE=-1.05D-09 OVMax= 6.12D-06

 Cycle  13  Pass 1  IDiag  1:
 E= -962.140808817639     Delta-E=       -0.000000000175 Rises=F Damp=F
 DIIS: error= 1.45D-07 at cycle   7 NSaved=   7.
 NSaved= 7 IEnMin= 7 EnMin= -962.140808817639     IErMin= 7 ErrMin= 1.45D-07
 ErrMax= 1.45D-07  0.00D+00 EMaxC= 1.00D-01 BMatC= 1.44D-11 BMatP= 1.53D-10
 IDIUse=1 WtCom= 1.00D+00 WtEn= 0.00D+00
 Coeff-Com:  0.127D-02-0.687D-02-0.193D-01-0.289D-01 0.427D-01 0.249D+00
 Coeff-Com:  0.762D+00
 Coeff:      0.127D-02-0.687D-02-0.193D-01-0.289D-01 0.427D-01 0.249D+00
 Coeff:      0.762D+00
 Gap=     0.383 Goal=   None    Shift=    0.000
 RMSDP=1.73D-08 MaxDP=7.10D-07 DE=-1.75D-10 OVMax= 2.58D-06

 Cycle  14  Pass 1  IDiag  1:
 E= -962.140808817662     Delta-E=       -0.000000000024 Rises=F Damp=F
 DIIS: error= 4.21D-08 at cycle   8 NSaved=   8.
 NSaved= 8 IEnMin= 8 EnMin= -962.140808817662     IErMin= 8 ErrMin= 4.21D-08
 ErrMax= 4.21D-08  0.00D+00 EMaxC= 1.00D-01 BMatC= 1.46D-12 BMatP= 1.44D-11
 IDIUse=1 WtCom= 1.00D+00 WtEn= 0.00D+00
 Coeff-Com:  0.128D-04 0.169D-02 0.295D-02-0.161D-01-0.326D-01 0.214D-01
 Coeff-Com:  0.282D+00 0.741D+00
 Coeff:      0.128D-04 0.169D-02 0.295D-02-0.161D-01-0.326D-01 0.214D-01
 Coeff:      0.282D+00 0.741D+00
 Gap=     0.383 Goal=   None    Shift=    0.000
 RMSDP=5.39D-09 MaxDP=2.48D-07 DE=-2.36D-11 OVMax= 7.90D-07

 SCF Done:  E(RM062X) =  -962.140808818     A.U. after   14 cycles
            NFock= 14  Conv=0.54D-08     -V/T= 2.0026
 KE= 9.596012803792D+02 PE=-3.373616423475D+03 EE= 9.066500881597D+02
 Leave Link  502 at Sun May 25 05:14:03 2025, MaxMem=  3758096384 cpu:              91.4 elap:              20.0
 (Enter /apps/easybuild-2022/easybuild/software/Compiler/NVHPC/22.11-CUDA-11.7.0/Gaussian/g16c01-CUDA-11.7.0/g16/l508.exe)
 QCSCF skips out because SCF is already converged.
 Leave Link  508 at Sun May 25 05:14:04 2025, MaxMem=  3758096384 cpu:               0.0 elap:               0.0
 (Enter /apps/easybuild-2022/easybuild/software/Compiler/NVHPC/22.11-CUDA-11.7.0/Gaussian/g16c01-CUDA-11.7.0/g16/l701.exe)
 ... and contract with generalized density number  0.
 Compute integral first derivatives.
   1 Symmetry operations used in ECPInt.
 ECPInt:  NShTT=    4753 NPrTT=   15592 LenC2=    4500 LenP2D=   11218.
 LDataN:  DoStor=T MaxTD1= 7 Len=  274
 Leave Link  701 at Sun May 25 05:14:04 2025, MaxMem=  3758096384 cpu:               0.8 elap:               0.2
 (Enter /apps/easybuild-2022/easybuild/software/Compiler/NVHPC/22.11-CUDA-11.7.0/Gaussian/g16c01-CUDA-11.7.0/g16/l702.exe)
 L702 exits ... SP integral derivatives will be done elsewhere.
 Leave Link  702 at Sun May 25 05:14:04 2025, MaxMem=  3758096384 cpu:               0.1 elap:               0.0
 (Enter /apps/easybuild-2022/easybuild/software/Compiler/NVHPC/22.11-CUDA-11.7.0/Gaussian/g16c01-CUDA-11.7.0/g16/l703.exe)
 Integral derivatives from FoFJK, PRISM(SPDF).
 Compute integral first derivatives, UseDBF=F ICtDFT=           0.
 Calling FoFJK, ICntrl=      2127 FMM=F ISym2X=0 I1Cent= 0 IOpClX= 0 NMat=1 NMatS=1 NMatT=0.
 FoFJK:  IHMeth= 1 ICntrl=    2127 DoSepK=F KAlg= 0 I1Cent=           0 FoldK=F
 IRaf=         0 NMat=       1 IRICut=       1 DoRegI=T DoRafI=F ISym2E= 0 IDoP0=0 IntGTp=1.
 FoFCou: FMM=F IPFlag=           0 FMFlag=      100000 FMFlg1=         800
         NFxFlg=           0 DoJE=F BraDBF=F KetDBF=F FulRan=T
         wScrn=  0.000000 ICntrl=      2127 IOpCl=  0 I1Cent=           0 NGrid=           0
         NMat0=    1 NMatS0=      1 NMatT0=    0 NMatD0=    1 NMtDS0=    0 NMtDT0=    0
 Symmetry not used in FoFCou.
 Leave Link  703 at Sun May 25 05:14:11 2025, MaxMem=  3758096384 cpu:              52.6 elap:               6.7
 (Enter /apps/easybuild-2022/easybuild/software/Compiler/NVHPC/22.11-CUDA-11.7.0/Gaussian/g16c01-CUDA-11.7.0/g16/l716.exe)
 Dipole        =-1.08503092D+00 1.05809321D-01 9.01896237D-01
 -------------------------------------------------------------------
 Center     Atomic                   Forces (Hartrees/Bohr)
 Number     Number              X              Y              Z
 -------------------------------------------------------------------
      1        6          -0.000191393   -0.000503515    0.001060431
      2        9           0.000901927   -0.000962282    0.000077458
      3        9          -0.000278105    0.000718268    0.000518616
      4        9           0.000477929    0.000264272   -0.000175554
      5       16          -0.000453698    0.001239854    0.000306372
      6        8          -0.000528048    0.000685595    0.000353846
      7        8           0.000184560    0.000562004   -0.001008743
      8        8          -0.000227247   -0.001457905   -0.001138769
      9        1           0.000114074   -0.000546292    0.000006343
 -------------------------------------------------------------------
 Cartesian Forces:  Max     0.001457905 RMS     0.000672622
 Leave Link  716 at Sun May 25 05:14:11 2025, MaxMem=  3758096384 cpu:               0.0 elap:               0.0
 (Enter /apps/easybuild-2022/easybuild/software/Compiler/NVHPC/22.11-CUDA-11.7.0/Gaussian/g16c01-CUDA-11.7.0/g16/l103.exe)

 GradGradGradGradGradGradGradGradGradGradGradGradGradGradGradGradGradGrad
 Berny optimization.
 Using GEDIIS/GDIIS optimizer.
 FormGI is forming the generalized inverse of G from B-inverse, IUseBI=4.
 Internal  Forces:  Max     0.002082196 RMS     0.000820827
 Search for a local minimum.
 Step number   2 out of a maximum of   36
 All quantities printed in internal units (Hartrees-Bohrs-Radians)
 RMS Force = .82083D-03 SwitMx=.10000D-02 MixMth= 2
 Mixed Optimization -- En-DIIS/RFO-DIIS
 Update second derivatives using D2CorX and points    1    2
 DE= -5.28D-03 DEPred=-5.90D-03 R= 8.95D-01
 TightC=F SS=  1.41D+00  RLast= 7.83D-01 DXNew= 5.0454D-01 2.3502D+00
 Trust test= 8.95D-01 RLast= 7.83D-01 DXMaxT set to 5.05D-01
 ITU=  1  0
 Use linear search instead of GDIIS.
     Eigenvalues ---   -0.00569   0.00232   0.01216   0.12339   0.16666
     Eigenvalues ---    0.18840   0.19409   0.20533   0.21413   0.26956
     Eigenvalues ---    0.28237   0.29983   0.31839   0.33403   0.42177
     Eigenvalues ---    0.43684   0.47832   0.52588   0.55461   0.61376
     Eigenvalues ---    0.73812
 Eigenvalue     1 is  -5.69D-03 should be greater than     0.000000 Eigenvector:
                          D2        D3        D1        D6        D7
   1                   -0.56777  -0.56607  -0.55503   0.14694   0.13244
                          A3        A6        A11       A1        R7
   1                   -0.04861   0.04256  -0.03948   0.03823  -0.03197
 RFO step:  Lambda=-5.90983237D-03 EMin=-5.68768586D-03
 I=     1 Eig=   -5.69D-03 Dot1=  6.74D-04
 I=     1 Stepn=  6.00D-01 RXN=   6.00D-01 EDone=F
 Mixed    1 eigenvectors in step.  Raw Step.Grad=  6.74D-04.
 RFO eigenvector is Hessian eigenvector with negative curvature.
 Taking step of  6.00D-01 in eigenvector direction(s).  Step.Grad=  1.38D-04.
 Quartic linear search produced a step of  0.11224.
 Iteration  1 RMS(Cart)=  0.09865980 RMS(Int)=  0.06323100
 Iteration  2 RMS(Cart)=  0.11395057 RMS(Int)=  0.00537989
 Iteration  3 RMS(Cart)=  0.00607517 RMS(Int)=  0.00005465
 Iteration  4 RMS(Cart)=  0.00001645 RMS(Int)=  0.00005378
 Iteration  5 RMS(Cart)=  0.00000000 RMS(Int)=  0.00005378
 ITry= 1 IFail=0 DXMaxC= 4.43D-01 DCOld= 1.00D+10 DXMaxT= 5.05D-01 DXLimC= 3.00D+00 Rises=F
 Variable       Old X    -DE/DX   Delta X   Delta X   Delta X     New X
                                 (Linear)    (Quad)   (Total)
    R1        2.49013   0.00122   0.00046  -0.00401  -0.00355   2.48658
    R2        2.52098   0.00066   0.00138   0.00538   0.00676   2.52774
    R3        2.51490   0.00055  -0.00089  -0.00352  -0.00441   2.51049
    R4        2.55528   0.00163  -0.00160  -0.00019  -0.00179   2.55349
    R5        3.02038   0.00022  -0.00100   0.00220   0.00120   3.02158
    R6        2.69010   0.00108  -0.00046  -0.00037  -0.00084   2.68926
    R7        3.20307   0.00208   0.00829  -0.01918  -0.01090   3.19217
    R8        1.82734   0.00004   0.00001   0.00003   0.00004   1.82738
    A1        1.88910   0.00030  -0.00815   0.02294   0.01478   1.90388
    A2        1.90214  -0.00043   0.00320  -0.00248   0.00086   1.90299
    A3        1.89681   0.00112   0.00397  -0.02917  -0.02512   1.87168
    A4        1.87156  -0.00024   0.00266  -0.01263  -0.00988   1.86168
    A5        1.94248  -0.00058   0.00662  -0.00349   0.00317   1.94566
    A6        1.96019  -0.00018  -0.00880   0.02554   0.01686   1.97705
    A7        1.82601   0.00021  -0.00453   0.00807   0.00359   1.82960
    A8        1.60550   0.00022  -0.00163   0.00628   0.00466   1.61016
    A9        1.85639   0.00102   0.00542  -0.01462  -0.00921   1.84718
   A10        1.93517   0.00015   0.00125  -0.00237  -0.00112   1.93405
   A11        2.05589  -0.00064   0.00291  -0.02369  -0.02078   2.03511
    D1       -2.80405  -0.00025  -0.04703  -0.33302  -0.37993   3.09920
    D2        1.40043  -0.00098  -0.04335  -0.34066  -0.38409   1.01634
    D3       -0.69817  -0.00015  -0.04571  -0.33964  -0.38539  -1.08356
    D4       -3.04019   0.00010  -0.00372  -0.00761  -0.01131  -3.05151
    D5        1.36709  -0.00105  -0.00832   0.00486  -0.00349   1.36360
    D6       -2.85340   0.00101   0.02118   0.08816   0.10930  -2.74410
    D7        1.58200   0.00060   0.02570   0.07946   0.10521   1.68721
         Item               Value     Threshold  Converged?
 Maximum Force            0.002082     0.000450     NO 
 RMS     Force            0.000821     0.000300     NO 
 Maximum Displacement     0.443002     0.001800     NO 
 RMS     Displacement     0.202569     0.001200     NO 
 Predicted change in Energy=-1.908328D-03
 Lowest energy point so far.  Saving SCF results.
 GradGradGradGradGradGradGradGradGradGradGradGradGradGradGradGradGradGrad

 Leave Link  103 at Sun May 25 05:14:11 2025, MaxMem=  3758096384 cpu:               0.1 elap:               0.0
 (Enter /apps/easybuild-2022/easybuild/software/Compiler/NVHPC/22.11-CUDA-11.7.0/Gaussian/g16c01-CUDA-11.7.0/g16/l202.exe)
                          Input orientation:                          
 ---------------------------------------------------------------------
 Center     Atomic      Atomic             Coordinates (Angstroms)
 Number     Number       Type             X           Y           Z
 ---------------------------------------------------------------------
      1          6           0        0.790398   -0.654101    0.629553
      2          9           0        1.123770   -1.925821    0.684602
      3          9           0        0.448182   -0.238291    1.853982
      4          9           0        1.852911    0.057094    0.268769
      5         16           0       -0.903876    0.993113   -0.438053
      6          8           0       -2.295933    0.396865   -0.951190
      7          8           0       -0.286763    1.530871   -1.602180
      8          8           0       -0.242124   -0.547855   -0.235599
      9          1           0       -2.827273    0.077325   -0.209116
 ---------------------------------------------------------------------
                    Distance matrix (angstroms):
                    1          2          3          4          5
     1  C    0.000000
     2  F    1.315842   0.000000
     3  F    1.337624   2.161395   0.000000
     4  F    1.328494   2.153257   2.138555   0.000000
     5  S    2.593002   3.727181   2.932208   2.995931   0.000000
     6  O    3.623357   4.445790   3.975246   4.337816   1.598951
     7  O    3.303787   4.378092   3.951599   3.201667   1.423096
     8  O    1.351251   2.147376   2.222319   2.238196   1.689226
     9  H    3.784956   4.519078   3.883889   4.704562   2.142554
                    6          7          8          9
     6  O    0.000000
     7  O    2.397190   0.000000
     8  O    2.371223   2.488099   0.000000
     9  H    0.967006   3.241545   2.659802   0.000000
 Symmetry turned off by external request.
 Stoichiometry    CHF3O3S
 Rotational constants (GHZ):           3.5005668           1.1918793           1.0855017
 Leave Link  202 at Sun May 25 05:14:11 2025, MaxMem=  3758096384 cpu:               0.0 elap:               0.0
 (Enter /apps/easybuild-2022/easybuild/software/Compiler/NVHPC/22.11-CUDA-11.7.0/Gaussian/g16c01-CUDA-11.7.0/g16/l301.exe)
 Standard basis: def2TZVPP (5D, 7F)
 Ernie: Thresh=  0.10000D-02 Tol=  0.10000D-05 Strict=F.
   273 basis functions,   443 primitive gaussians,   315 cartesian basis functions
    37 alpha electrons       37 beta electrons
       nuclear repulsion energy       545.8562647317 Hartrees.
 IExCor= 4336 DFT=T Ex+Corr=M062X ExCW=0 ScaHFX=  0.540000
 ScaDFX=  1.000000  1.000000  1.000000  1.000000 ScalE2=  1.000000  1.000000
 IRadAn=      5 IRanWt=     -1 IRanGd=            0 ICorTp=0 IEmpDi=  4
 NAtoms=    9 NActive=    9 NUniq=    9 SFac= 1.00D+00 NAtFMM=   60 NAOKFM=F Big=F
 Integral buffers will be    131072 words long.
 Raffenetti 2 integral format.
 Two-electron integral symmetry is turned off.
 Leave Link  301 at Sun May 25 05:14:11 2025, MaxMem=  3758096384 cpu:               0.0 elap:               0.0
 (Enter /apps/easybuild-2022/easybuild/software/Compiler/NVHPC/22.11-CUDA-11.7.0/Gaussian/g16c01-CUDA-11.7.0/g16/l302.exe)
 NPDir=0 NMtPBC=     1 NCelOv=     1 NCel=       1 NClECP=     1 NCelD=      1
         NCelK=      1 NCelE2=     1 NClLst=     1 CellRange=     0.0.
 One-electron integrals computed using PRISM.
   1 Symmetry operations used in ECPInt.
 ECPInt:  NShTT=    4753 NPrTT=   15592 LenC2=    4506 LenP2D=   11228.
 LDataN:  DoStor=T MaxTD1= 6 Len=  172
 NBasis=   273 RedAO= T EigKep=  1.19D-03  NBF=   273
 NBsUse=   273 1.00D-06 EigRej= -1.00D+00 NBFU=   273
 Precomputing XC quadrature grid using
 IXCGrd= 4 IRadAn=           5 IRanWt=          -1 IRanGd=           0 AccXCQ= 0.00D+00.
 Generated NRdTot=       0 NPtTot=           0 NUsed=           0 NTot=          32
 NSgBfM=   313   313   313   313   313 MxSgAt=     9 MxSgA2=     9.
 Leave Link  302 at Sun May 25 05:14:11 2025, MaxMem=  3758096384 cpu:               0.5 elap:               0.1
 (Enter /apps/easybuild-2022/easybuild/software/Compiler/NVHPC/22.11-CUDA-11.7.0/Gaussian/g16c01-CUDA-11.7.0/g16/l303.exe)
 DipDrv:  MaxL=1.
 Leave Link  303 at Sun May 25 05:14:11 2025, MaxMem=  3758096384 cpu:               0.1 elap:               0.0
 (Enter /apps/easybuild-2022/easybuild/software/Compiler/NVHPC/22.11-CUDA-11.7.0/Gaussian/g16c01-CUDA-11.7.0/g16/l401.exe)
 Initial guess from the checkpoint file:  "1502984803620600000001_r13_insertion_ROR_9_8_5_6_IRC_R_prod.chk"
 B after Tr=    -0.014719    0.027998    0.020213
         Rot=    0.999844    0.007433   -0.007984    0.013879 Ang=   2.02 deg.
 Guess basis will be translated and rotated to current coordinates.
 JPrj=2 DoOrth=T DoCkMO=T.
 Generating alternative initial guess.
 ExpMin= 9.52D-02 ExpMax= 6.07D+04 ExpMxC= 2.07D+03 IAcc=3 IRadAn=         5 AccDes= 0.00D+00
 Harris functional with IExCor= 1009 and IRadAn=       5 diagonalized for initial guess.
 HarFok:  IExCor= 1009 AccDes= 0.00D+00 IRadAn=         5 IDoV= 1 UseB2=F ITyADJ=14
 ICtDFT=  3500011 ScaDFX=  1.000000  1.000000  1.000000  1.000000
 FoFCou: FMM=F IPFlag=           0 FMFlag=      100000 FMFlg1=           0
         NFxFlg=           0 DoJE=T BraDBF=F KetDBF=T FulRan=T
         wScrn=  0.000000 ICntrl=       500 IOpCl=  0 I1Cent=   200000004 NGrid=           0
         NMat0=    1 NMatS0=      1 NMatT0=    0 NMatD0=    1 NMtDS0=    0 NMtDT0=    0
 Symmetry not used in FoFCou.
 Harris En= -961.693773324412    
 Leave Link  401 at Sun May 25 05:14:12 2025, MaxMem=  3758096384 cpu:               2.7 elap:               0.4
 (Enter /apps/easybuild-2022/easybuild/software/Compiler/NVHPC/22.11-CUDA-11.7.0/Gaussian/g16c01-CUDA-11.7.0/g16/l502.exe)
 Keep R1 ints in memory in canonical form, NReq=715214082.
[...]
     17  0.945478D-02  0.384383D-02  0.214446D-02 -0.568563D-04 -0.202332D-02
     18  0.752737D-02  0.252812D-02  0.213833D-01  0.618514D-03  0.789652D-03
     19  0.437209D-02  0.435927D-01 -0.261543D-03 -0.502765D-02 -0.599049D-02
     20  0.197343D-02 -0.942074D-03  0.324512D-03  0.594979D-01 -0.564559D-01
     21 -0.895733D-03  0.236071D-02 -0.247495D-03 -0.595529D-01 -0.123265D-02
     22  0.656620D-03 -0.157194D-02 -0.106071D-03  0.126439D-02  0.582195D-01
     23  0.386357D-02  0.100379D-01  0.814958D-03 -0.144045D-03 -0.908454D-03
     24 -0.478351D-02 -0.435382D-02 -0.270172D-05  0.542173D-03  0.143358D-02
     25  0.109163D-01  0.258252D-02  0.240557D-02  0.218992D-03  0.234162D-03
     26 -0.861387D-02 -0.260098D-02 -0.162815D-02 -0.541985D-04  0.483148D-04
               11            12            13            14            15 
     11  0.248526D+00
     12 -0.327457D-01  0.184802D+00
     13 -0.274002D-01 -0.895094D-01  0.252923D+00
     14 -0.299462D-01 -0.888133D-01 -0.261653D-01  0.252276D+00
     15  0.106216D-02  0.295726D-03  0.103354D-02 -0.412191D-02  0.179734D+00
     16  0.725586D-02 -0.320222D-02 -0.342247D-02  0.291331D-02 -0.358436D-01
     17  0.126411D-03 -0.389718D-02  0.305748D-02  0.259101D-02  0.395390D-02
     18  0.377560D-03  0.732501D-03 -0.125507D-02 -0.116852D-02  0.237703D-01
     19  0.589759D-02 -0.580944D-02  0.337032D-02  0.679849D-02  0.374163D-03
     20 -0.327032D-02  0.377856D-03  0.407422D-01 -0.395649D-01  0.140157D-02
     21 -0.421521D-01  0.563338D-01  0.426618D-02  0.399694D-01 -0.126194D-02
     22  0.394476D-01 -0.567877D-01 -0.392300D-01 -0.174045D-02  0.476595D-03
     23  0.100282D-02 -0.193182D-02  0.100324D-02  0.875638D-03  0.875379D-02
     24 -0.131203D-02  0.298986D-02 -0.133681D-02 -0.213160D-02 -0.750801D-02
     25  0.528418D-03 -0.613144D-03  0.126191D-03 -0.482756D-03  0.914753D-01
     26 -0.293725D-02  0.594179D-03 -0.242839D-03  0.258850D-02 -0.864255D-01
               16            17            18            19            20 
     16  0.362789D+00
     17 -0.919450D-02  0.139482D+00
     18 -0.535475D-02  0.382079D-02  0.139466D+00
     19  0.204068D-01  0.814848D-02  0.681401D-03  0.195972D+00
     20 -0.194819D-02  0.129174D-02 -0.798483D-04 -0.268210D-03  0.666148D-01
     21 -0.118053D-02 -0.589377D-03 -0.319128D-03  0.982854D-04 -0.297544D-01
     22  0.329623D-02  0.487579D-03  0.421130D-03  0.509747D-03 -0.313740D-01
     23  0.395427D-01  0.750799D-01  0.479257D-02  0.780757D-02  0.625103D-03
     24 -0.490342D-01 -0.678650D-01 -0.614019D-03 -0.648315D-02 -0.341153D-03
     25  0.279947D-01  0.146831D-01  0.125404D-01  0.702128D-02  0.332682D-03
     26 -0.498396D-01 -0.399721D-02 -0.112031D-01 -0.955618D-03 -0.676002D-03
               21            22            23            24            25 
     21  0.683168D-01
     22 -0.342692D-01  0.669304D-01
     23 -0.454404D-03  0.717402D-03  0.479007D-01
     24  0.648798D-03 -0.780800D-03 -0.424455D-01  0.429270D-01
     25 -0.354502D-03  0.674723D-03  0.173461D-01 -0.171814D-01  0.559387D-01
     26  0.142551D-02 -0.947357D-03 -0.139812D-01  0.149843D-01 -0.510602D-01
               26 
     26  0.563160D-01
 Leave Link  716 at Sun May 25 05:18:40 2025, MaxMem=  3758096384 cpu:               0.1 elap:               0.0
 (Enter /apps/easybuild-2022/easybuild/software/Compiler/NVHPC/22.11-CUDA-11.7.0/Gaussian/g16c01-CUDA-11.7.0/g16/l103.exe)

 GradGradGradGradGradGradGradGradGradGradGradGradGradGradGradGradGradGrad
 Berny optimization.
 Red2BG is reusing G-inverse.
 Internal  Forces:  Max     0.000020139 RMS     0.000005361
 Search for a local minimum.
 Step number   1 out of a maximum of    2
 All quantities printed in internal units (Hartrees-Bohrs-Radians)
 Second derivative matrix not updated -- analytic derivatives used.
 ITU=  0
     Eigenvalues ---    0.00245   0.00352   0.00383   0.12554   0.13154
     Eigenvalues ---    0.17965   0.19612   0.20089   0.21066   0.27190
     Eigenvalues ---    0.27531   0.28497   0.29757   0.32237   0.41542
     Eigenvalues ---    0.43831   0.45562   0.52375   0.52565   0.60827
     Eigenvalues ---    0.74870
 Angle between quadratic step and forces=  73.24 degrees.
 Linear search not attempted -- first point.
 Iteration  1 RMS(Cart)=  0.00011491 RMS(Int)=  0.00000001
 Iteration  2 RMS(Cart)=  0.00000001 RMS(Int)=  0.00000000
 ITry= 1 IFail=0 DXMaxC= 2.48D-04 DCOld= 1.00D+10 DXMaxT= 3.00D-01 DXLimC= 3.00D+00 Rises=F
 Variable       Old X    -DE/DX   Delta X   Delta X   Delta X     New X
                                 (Linear)    (Quad)   (Total)
    R1        2.49106   0.00000   0.00000   0.00000   0.00000   2.49107
    R2        2.52523  -0.00000   0.00000  -0.00001  -0.00001   2.52522
    R3        2.51575  -0.00000   0.00000   0.00000   0.00000   2.51576
    R4        2.55630  -0.00000   0.00000  -0.00001  -0.00001   2.55629
    R5        3.02209  -0.00000   0.00000  -0.00000  -0.00000   3.02209
    R6        2.69016   0.00000   0.00000  -0.00000  -0.00000   2.69016
    R7        3.22223   0.00000   0.00000   0.00004   0.00004   3.22227
    R8        1.82780  -0.00000   0.00000  -0.00000  -0.00000   1.82780
    A1        1.89145  -0.00000   0.00000  -0.00001  -0.00001   1.89143
    A2        1.90121  -0.00000   0.00000  -0.00000  -0.00000   1.90120
    A3        1.89874   0.00001   0.00000   0.00004   0.00004   1.89878
    A4        1.86980   0.00000   0.00000   0.00001   0.00001   1.86981
    A5        1.94461  -0.00000   0.00000  -0.00000  -0.00000   1.94461
    A6        1.95657  -0.00001   0.00000  -0.00003  -0.00003   1.95654
    A7        1.82250   0.00001   0.00000   0.00002   0.00002   1.82253
    A8        1.61015  -0.00002   0.00000  -0.00006  -0.00006   1.61009
    A9        1.86111   0.00000   0.00000   0.00002   0.00002   1.86113
   A10        1.93993   0.00000   0.00000   0.00000   0.00000   1.93994
   A11        2.03453   0.00000   0.00000   0.00002   0.00002   2.03455
    D1       -2.99362   0.00000   0.00000   0.00019   0.00019  -2.99343
    D2        1.20544  -0.00000   0.00000   0.00018   0.00018   1.20562
    D3       -0.88990   0.00000   0.00000   0.00019   0.00019  -0.88971
    D4        3.03977  -0.00000   0.00000  -0.00007  -0.00007   3.03970
    D5        1.15807   0.00000   0.00000  -0.00007  -0.00007   1.15800
    D6       -2.67608   0.00000   0.00000   0.00003   0.00003  -2.67605
    D7        1.76094   0.00000   0.00000   0.00002   0.00002   1.76096
         Item               Value     Threshold  Converged?
 Maximum Force            0.000020     0.000450     YES
 RMS     Force            0.000005     0.000300     YES
 Maximum Displacement     0.000248     0.001800     YES
 RMS     Displacement     0.000115     0.001200     YES
 Predicted change in Energy=-1.390145D-09
 Optimization completed.
    -- Stationary point found.
                           ----------------------------
                           !   Optimized Parameters   !
                           ! (Angstroms and Degrees)  !
 --------------------------                            --------------------------
 ! Name  Definition              Value          Derivative Info.                !
 --------------------------------------------------------------------------------
 ! R1    R(1,2)                  1.3182         -DE/DX =    0.0                 !
 ! R2    R(1,3)                  1.3363         -DE/DX =    0.0                 !
 ! R3    R(1,4)                  1.3313         -DE/DX =    0.0                 !
 ! R4    R(1,8)                  1.3527         -DE/DX =    0.0                 !
 ! R5    R(5,6)                  1.5992         -DE/DX =    0.0                 !
 ! R6    R(5,7)                  1.4236         -DE/DX =    0.0                 !
 ! R7    R(5,8)                  1.7051         -DE/DX =    0.0                 !
 ! R8    R(6,9)                  0.9672         -DE/DX =    0.0                 !
 ! A1    A(2,1,3)              108.3718         -DE/DX =    0.0                 !
 ! A2    A(2,1,4)              108.9311         -DE/DX =    0.0                 !
 ! A3    A(2,1,8)              108.7896         -DE/DX =    0.0                 !
 ! A4    A(3,1,4)              107.1318         -DE/DX =    0.0                 !
 ! A5    A(3,1,8)              111.4179         -DE/DX =    0.0                 !
 ! A6    A(4,1,8)              112.1031         -DE/DX =    0.0                 !
 ! A7    A(6,5,7)              104.4217         -DE/DX =    0.0                 !
 ! A8    A(6,5,8)               92.2548         -DE/DX =    0.0                 !
 ! A9    A(7,5,8)              106.6338         -DE/DX =    0.0                 !
 ! A10   A(5,6,9)              111.15           -DE/DX =    0.0                 !
 ! A11   A(1,8,5)              116.5699         -DE/DX =    0.0                 !
 ! D1    D(2,1,8,5)           -171.5217         -DE/DX =    0.0                 !
 ! D2    D(3,1,8,5)             69.0669         -DE/DX =    0.0                 !
 ! D3    D(4,1,8,5)            -50.9877         -DE/DX =    0.0                 !
 ! D4    D(7,5,6,9)            174.1663         -DE/DX =    0.0                 !
 ! D5    D(8,5,6,9)             66.3526         -DE/DX =    0.0                 !
 ! D6    D(6,5,8,1)           -153.3283         -DE/DX =    0.0                 !
 ! D7    D(7,5,8,1)            100.8945         -DE/DX =    0.0                 !
 --------------------------------------------------------------------------------
 GradGradGradGradGradGradGradGradGradGradGradGradGradGradGradGradGradGrad

 Leave Link  103 at Sun May 25 05:18:40 2025, MaxMem=  3758096384 cpu:               0.0 elap:               0.0
 (Enter /apps/easybuild-2022/easybuild/software/Compiler/NVHPC/22.11-CUDA-11.7.0/Gaussian/g16c01-CUDA-11.7.0/g16/l9999.exe)

 ----------------------------------------------------------------------

 Electric dipole moment (input orientation):
 (Debye = 10**-18 statcoulomb cm , SI units = C m)
                  (au)            (Debye)         (10**-30 SI)
   Tot        0.133540D+01      0.339424D+01      0.113220D+02
   x         -0.962114D+00     -0.244545D+01     -0.815714D+01
   y         -0.517500D-01     -0.131535D+00     -0.438755D+00
   z          0.924631D+00      0.235018D+01      0.783935D+01

 Dipole polarizability, Alpha (input orientation).
 (esu units = cm**3 , SI units = C**2 m**2 J**-1)
 Alpha(0;0):
               (au)            (10**-24 esu)      (10**-40 SI)
   iso        0.437872D+02      0.648859D+01      0.721953D+01
   aniso      0.142276D+02      0.210831D+01      0.234581D+01
   xx         0.469673D+02      0.695983D+01      0.774386D+01
   yx        -0.228199D+01     -0.338157D+00     -0.376250D+00
   yy         0.426641D+02      0.632216D+01      0.703436D+01
   zx         0.157086D+01      0.232777D+00      0.259000D+00
   zy        -0.721089D+01     -0.106854D+01     -0.118892D+01
   zz         0.417302D+02      0.618378D+01      0.688038D+01

 ----------------------------------------------------------------------

 Dipole orientation:
     6          1.90294370         -1.23016997         -0.14126547
     9          2.48974878         -3.58728616         -0.69358796
     9          3.08651304         -0.59547455          1.99721666
     9          2.78582024          0.27652496         -1.95217824
    16         -1.84648478          1.92060983          0.40687094
     8         -4.25286184          0.91431228          1.93322106
     8         -2.82062815          2.60171711         -2.00645028
     8         -0.63483907         -1.05009626          0.10755736
     1         -3.76610233          0.23608184          3.55923569

 Electric dipole moment (dipole orientation):
 (Debye = 10**-18 statcoulomb cm , SI units = C m)
                  (au)            (Debye)         (10**-30 SI)
   Tot        0.133540D+01      0.339424D+01      0.113220D+02
   x          0.000000D+00      0.000000D+00      0.000000D+00
   y          0.000000D+00      0.000000D+00      0.000000D+00
   z          0.133540D+01      0.339424D+01      0.113220D+02

 Dipole polarizability, Alpha (dipole orientation).
 (esu units = cm**3 , SI units = C**2 m**2 J**-1)
 Alpha(0;0):
               (au)            (10**-24 esu)      (10**-40 SI)
   iso        0.437872D+02      0.648859D+01      0.721953D+01
   aniso      0.142276D+02      0.210831D+01      0.234581D+01
   xx         0.460406D+02      0.682251D+01      0.759106D+01
   yx        -0.681907D+01     -0.101048D+01     -0.112431D+01
   yy         0.421787D+02      0.625024D+01      0.695432D+01
   zx        -0.235874D+01     -0.349529D+00     -0.388903D+00
   zy        -0.337210D+01     -0.499693D+00     -0.555984D+00
   zz         0.431423D+02      0.639304D+01      0.711321D+01

 ----------------------------------------------------------------------
 Unable to Open any file for archive entry.
 1\1\GINC-SPARTAN-BM188\Freq\RM062X\def2TZVPP\C1H1F3O3S1\AKHALILOV\25-M
 ay-2025\0\\#P Geom=AllCheck Guess=TCheck SCRF=Check GenChk RM062X/def2
 TZVPP Freq\\Gaussian input prepared by ASE\\0,1\C,0.7627361317,-0.6641
 160214,0.6485227622\F,1.2091731981,-1.9041377245,0.6215360758\F,0.3761
 041869,-0.3827339822,1.8963289541\F,1.7639086447,0.1619138867,0.352498
 6428\S,-0.8493142717,1.0232172149,-0.5155198993\O,-2.3052948113,0.4808
 868742,-0.8943435386\O,-0.2925523403,1.4413179412,-1.7571998999\O,-0.2
 647448404,-0.5518574516,-0.2241615064\H,-2.7407238977,0.0847072627,-0.
 1268945907\\Version=ES64L-G16RevC.01\HF=-962.1412397\RMSD=1.941e-09\RM
 SF=4.050e-06\ZeroPoint=0.0388846\Thermal=0.0468533\ETot=-962.0943864\H
 Tot=-962.0934422\GTot=-962.1368121\Dipole=-0.9621143,-0.05175,0.924631
 3\DipoleDeriv=2.217086,-0.5034574,0.3433961,-0.0920836,1.8493061,-0.04
 97582,0.3717799,-0.4162454,2.1571296,-0.459256,0.3254959,-0.0750747,0.
 2811495,-0.9158926,0.0543399,-0.062496,0.0738419,-0.3403788,-0.3938715
 ,0.0747742,0.1000714,0.0376332,-0.3194839,-0.1019299,0.0371524,0.00973
 ,-0.951035,-0.7732595,-0.1602037,0.0012473,-0.267852,-0.4705786,0.0620
 256,0.0255934,0.1015086,-0.3562081,1.9852285,0.02979,0.0868617,-0.1242
 938,1.8830151,-0.5485053,0.1208456,-0.5330823,1.4256034,-1.3729702,-0.
 1722632,-0.0541331,-0.46251,-0.5207974,-0.0438523,-0.2058589,-0.062099
 2,-0.3475597,-0.4981006,-0.177663,0.1537823,-0.0293674,-0.5298109,0.06
 74898,0.2436483,0.4608016,-0.9807329,-1.1181585,0.575138,-0.5295085,0.
 6342104,-1.3158117,0.5412321,-0.4454763,0.3505009,-0.8388641,0.4133017
 ,0.0083891,-0.0266424,0.0231135,0.3400539,0.0189583,-0.0851885,0.01504
 4,0.2320456\Polar=46.9672806,-2.2819936,42.6640771,1.5708592,-7.210891
 4,41.7302155\PG=Unknown\NImag=0\\0.58575719,-0.02870532,0.63442460,0.0
 0930670,-0.01235869,0.56200952,-0.10584482,0.07532194,0.00351566,0.127
 10214,0.07156076,-0.28194872,-0.00540560,-0.11998795,0.41910890,0.0023
 9079,-0.00239451,-0.07905669,-0.00172369,0.00949427,0.08572913,-0.0947
 4168,0.01058770,0.04328178,-0.00071223,0.02650288,0.02715252,0.1136574
 0,0.01355523,-0.08775590,-0.03055226,0.02951538,-0.03475147,-0.0538757
 4,-0.01924570,0.09747240,0.05085587,-0.03308276,-0.24136779,0.02008985
 ,-0.03591914,-0.01889228,-0.09182465,0.06432841,0.37679769,-0.19844821
 ,-0.09034024,0.03214031,0.01177549,-0.01638339,0.00160378,-0.02804392,
 -0.01981915,0.04243146,0.28281616,-0.08517215,-0.15169236,0.02879791,-
 0.03598396,-0.07770285,0.01393485,-0.01373764,0.00979093,0.01400189,0.
 16216341,0.21414955,0.02991979,0.02525044,-0.08933190,0.00298278,0.010
 61820,0.01302511,0.05712188,0.02652566,-0.03789618,-0.06051339,-0.0494
 5150,0.10458419,-0.02384061,0.02899818,-0.02650384,0.00281637,-0.00508
 950,0.00057184,-0.00010006,0.00089015,0.00929785,-0.00032289,-0.001874
 62,0.00276494,0.42535332,0.05708078,0.00694626,0.04794516,-0.01245326,
 0.01068282,-0.00624067,-0.00404473,-0.00549619,-0.01836788,-0.01786010
 ,-0.01206465,-0.00298036,0.12474672,0.34000904,-0.03217837,0.02288678,
 -0.01832407,0.00505715,-0.00555930,0.00354185,0.00176491,-0.00154750,-
 0.00044234,0.00709745,0.00319865,-0.00113221,-0.15406881,-0.08959413,0
 .73020435,0.00842520,-0.00038109,0.01530335,-0.00366318,0.00453404,-0.
 00273533,-0.00016924,0.00022005,-0.00383655,-0.00221454,-0.00026631,-0
 .00138948,-0.20249782,-0.07041712,-0.06092753,0.37764669,0.00266231,-0
 .00525335,-0.00174111,-0.00014956,0.00047299,0.00026271,-0.00009155,0.
 00091900,0.00031672,0.00221520,0.00222699,0.00034992,-0.09588430,-0.08
 618900,-0.03329718,0.16757203,0.16112125,0.00151760,-0.00307170,0.0037
 3747,-0.00051113,0.00118685,-0.00038253,-0.00020102,0.00064508,0.00019
 695,-0.00097090,0.00023248,-0.00028362,-0.07003787,-0.02709183,-0.0973
 9455,-0.11663600,-0.16015754,0.41943731,-0.00791501,-0.00385381,-0.001
 01615,0.00200196,-0.00051594,0.00097112,0.00089275,0.00003234,-0.00022
 774,0.00232982,0.00255330,-0.00151063,-0.14735397,-0.06853470,0.202880
 89,-0.02139477,-0.01272806,0.04515835,0.16482669,-0.01166876,-0.005921
 26,-0.00626529,0.00249092,-0.00090697,0.00049734,0.00101584,0.00150661
 ,0.00373522,0.00260181,0.00184667,0.00052060,-0.06586615,-0.10606140,0
 .11868053,-0.01339808,-0.00142637,0.02530971,0.08944821,0.11490567,0.0
 1893521,0.00109637,0.00841494,-0.00442725,0.00295508,-0.00179094,-0.00
 194525,0.00033372,-0.00159310,-0.00486408,-0.00238050,0.00021687,0.231
 20353,0.14647800,-0.58583590,0.01180482,0.01040629,0.01398993,-0.23729
 249,-0.18040446,0.56899162,-0.16031298,0.00715003,-0.07296142,-0.03401
 295,0.04014309,-0.02856322,0.00885670,-0.00509108,-0.02752839,-0.06917
 983,-0.02805595,-0.02976871,-0.03478473,0.00515000,0.00272818,-0.03573
 406,0.02536411,-0.00706686,0.01173107,0.00069998,-0.01104990,0.3104451
 3,-0.01943684,-0.10968793,-0.02025748,0.06101796,-0.03444053,0.0382261
 7,-0.00093250,0.01855348,0.00496099,-0.02220723,0.01385129,-0.01080360
 ,0.01824460,-0.14736298,-0.02251437,0.01252032,0.01665311,0.00627241,-
 0.00361729,-0.00470719,0.02267157,-0.04614827,0.25094002,-0.08148392,0
 .00175247,-0.14925842,-0.02463601,0.02226896,-0.00168760,-0.03566509,-
 0.00573828,-0.07563790,-0.01663080,-0.00829180,0.01119347,0.00854509,-
 0.04632781,-0.03489493,-0.02314404,0.01597817,0.00006656,-0.00518318,0
 .03950945,-0.00613580,0.17764224,-0.02046358,0.25828832,-0.00307908,0.
 00122261,-0.00306641,0.00053723,-0.00076398,0.00033220,0.00036029,-0.0
 0005722,0.00074230,0.00128792,0.00037392,0.00039283,-0.01926961,-0.013
 66759,0.02764612,-0.12039828,-0.08896019,0.14874783,-0.00511856,-0.005
 32378,-0.00236459,0.00299164,0.00055925,0.00055572,0.14268845,0.000123
 99,0.00088866,-0.00016264,0.00022853,-0.00051418,0.00009558,-0.0000543
 1,-0.00023887,0.00002655,-0.00037031,-0.00040559,-0.00002935,-0.004165
 08,-0.00046390,0.00774653,-0.10038384,-0.08852462,0.15667454,-0.002784
 05,0.00076424,-0.00115607,0.00078809,-0.00379926,0.00131242,0.10661697
 ,0.09229352,0.00073633,-0.00007841,0.00317695,-0.00034736,0.00036068,-
 0.00048605,0.00031491,-0.00011908,-0.00116506,-0.00029384,-0.00004197,
 -0.00037574,-0.00177273,-0.00382048,0.00427781,0.18156076,0.16788201,-
 0.33936753,-0.00378016,-0.00158310,0.00374238,-0.00343192,0.00190790,-
 0.00193370,-0.17298599,-0.16450755,0.33213095\\0.00000153,0.00000381,-
 0.00000479,-0.00000367,-0.00000114,-0.00000744,0.00000053,-0.00000165,
 0.00000215,0.00000485,-0.00000048,0.00000201,0.00000003,-0.00000956,0.
 00000731,-0.00000192,0.00001000,-0.00000365,-0.00000285,0.00000096,0.0
 0000286,0.00000145,-0.00000216,-0.00000149,0.00000006,0.00000023,0.000
 00304\\\@
 The archive entry for this job was punched.


 BETTER TO HUNT IN FIELDS, FOR HEALTH UNBOUGHT
 THAN FEE THE DOCTOR FOR A NAUSEOUS DRAUGHT.
 THE WISE, FOR CURE, ON EXERCISE DEPEND;
 GOD NEVER MADE HIS WORK FOR MAN TO MEND.
     -- JOHN DRYDEN (1631-1700)
 Job cpu time:       0 days  0 hours 15 minutes 57.5 seconds.
 Elapsed time:       0 days  0 hours  2 minutes  2.3 seconds.
 File lengths (MBytes):  RWF=     75 Int=      0 D2E=      0 Chk=      6 Scr=      1
 Normal termination of Gaussian 16 at Sun May 25 05:18:40 2025.
done
