 Entering Gaussian System, Link 0=g16
 Initial command:
 /apps/easybuild-2022/easybuild/software/Compiler/NVHPC/22.11-CUDA-11.7.0/Gaussian/g16c01-CUDA-11.7.0/g16/l1.exe "/tmp/Gau-50194.inp" -scrdir="/tmp/"
 Entering Link 1 = /apps/easybuild-2022/easybuild/software/Compiler/NVHPC/22.11-CUDA-11.7.0/Gaussian/g16c01-CUDA-11.7.0/g16/l1.exe PID=     50195.
  
 Copyright (c) 1988-2019, Gaussian, Inc.  All Rights Reserved.
  
 This is part of the Gaussian(R) 16 program.  It is based on
 the Gaussian(R) 09 system (copyright 2009, Gaussian, Inc.),
 the Gaussian(R) 03 system (copyright 2003, Gaussian, Inc.),
 the Gaussian(R) 98 system (copyright 1998, Gaussian, Inc.),
 the Gaussian(R) 94 system (copyright 1995, Gaussian, Inc.),
 the Gaussian 92(TM) system (copyright 1992, Gaussian, Inc.),
 the Gaussian 90(TM) system (copyright 1990, Gaussian, Inc.),
 the Gaussian 88(TM) system (copyright 1988, Gaussian, Inc.),
 the Gaussian 86(TM) system (copyright 1986, Carnegie Mellon
 University), and the Gaussian 82(TM) system (copyright 1983,
 Carnegie Mellon University). Gaussian is a federally registered
 trademark of Gaussian, Inc.
  
 This software contains proprietary and confidential information,
 including trade secrets, belonging to Gaussian, Inc.
  
 This software is provided under written license and may be
 used, copied, transmitted, or stored only in accord with that
 written license.
  
 The following legend is applicable only to US Government
 contracts under FAR:
  
                    RESTRICTED RIGHTS LEGEND
  
 Use, reproduction and disclosure by the US Government is
 subject to restrictions as set forth in subparagraphs (a)
 and (c) of the Commercial Computer Software - Restricted
 Rights clause in FAR 52.227-19.
  
 Gaussian, Inc.
 340 Quinnipiac St., Bldg. 40, Wallingford CT 06492
  
  
 ---------------------------------------------------------------
 Warning -- This program may not be used in any manner that
 competes with the business of Gaussian, Inc. or will provide
 assistance to any competitor of Gaussian, Inc.  The licensee
 of this program is prohibited from giving any competitor of
 Gaussian, Inc. access to this program.  By using this program,
 the user acknowledges that Gaussian, Inc. is engaged in the
 business of creating and licensing software in the field of
 computational chemistry and represents and warrants to the
 licensee that it is not a competitor of Gaussian, Inc. and that
 it will not use this program in any manner prohibited above.
 ---------------------------------------------------------------
  

 Cite this work as:
 Gaussian 16, Revision C.01,
 M. J. Frisch, G. W. Trucks, H. B. Schlegel, G. E. Scuseria, 
 M. A. Robb, J. R. Cheeseman, G. Scalmani, V. Barone, 
 G. A. Petersson, H. Nakatsuji, X. Li, M. Caricato, A. V. Marenich, 
 J. Bloino, B. G. Janesko, R. Gomperts, B. Mennucci, H. P. Hratchian, 
 J. V. Ortiz, A. F. Izmaylov, J. L. Sonnenberg, D. Williams-Young, 
 F. Ding, F. Lipparini, F. Egidi, J. Goings, B. Peng, A. Petrone, 
 T. Henderson, D. Ranasinghe, V. G. Zakrzewski, J. Gao, N. Rega, 
 G. Zheng, W. Liang, M. Hada, M. Ehara, K. Toyota, R. Fukuda, 
 J. Hasegawa, M. Ishida, T. Nakajima, Y. Honda, O. Kitao, H. Nakai, 
 T. Vreven, K. Throssell, J. A. Montgomery, Jr., J. E. Peralta, 
 F. Ogliaro, M. J. Bearpark, J. J. Heyd, E. N. Brothers, K. N. Kudin, 
 V. N. Staroverov, T. A. Keith, R. Kobayashi, J. Normand, 
 K. Raghavachari, A. P. Rendell, J. C. Burant, S. S. Iyengar, 
 J. Tomasi, M. Cossi, J. M. Millam, M. Klene, C. Adamo, R. Cammi, 
 J. W. Ochterski, R. L. Martin, K. Morokuma, O. Farkas, 
 J. B. Foresman, and D. J. Fox, Gaussian, Inc., Wallingford CT, 2019.
 
 ******************************************
 Gaussian 16:  ES64L-G16RevC.01  3-Jul-2019
                25-May-2025 
 ******************************************
 %mem=28GB
 %chk=1502984803620600000001_r13_insertion_ROR_2_1_5_8_IRC_R
 %nprocshared=8
 Will use up to    8 processors via shared memory.
 ----------------------------------------------------------------------
 #P M062X/Def2TZVPP Symm(None) scf(xqc) pop(None) geom(AllCheck,NoKeepC
 onstants) guess(Read) irc(RCFC,reverse,MaxPoints=100,StepSize=2)
 ----------------------------------------------------------------------
 1/10=5,18=10,22=2,26=3,29=20007,38=1,39=2,42=100,44=3,172=1/1,23;
 2/12=2,15=3,29=1,40=1/2;
 3/5=44,7=202,11=2,14=-4,25=1,30=1,71=2,74=-55,116=-2,140=1/1,2,3;
 4/5=1/1;
 5/5=2,8=3,13=1,38=6/2,8;
 8/6=4,10=90,11=11/1;
 11/6=1,8=1,9=11,15=111,16=1,31=1/1,2,10;
 10/6=1,13=1,31=1/2;
 7/10=1,25=1,30=1/1,2,3,16;
 1/18=10,22=2,26=3,39=2,42=100,44=3/23(2);
 2/15=3,29=1/2;
 99/5=20/99;
 2/15=3,29=1/2;
 3/5=44,7=202,11=2,14=-2,25=1,30=1,71=2,74=-55,140=1/1,2,3;
 4/5=5,16=3,69=1/1;
 5/5=2,8=3,13=1,38=5/2,8;
 8/6=4,10=90,11=11/1;
 11/6=1,8=1,9=11,15=111,16=1,31=1/1,2,10;
 10/6=1,13=1,31=1/2;
 7/10=1,25=1,30=1/1,2,3,16;
 1/18=10,22=2,26=3,39=2,42=100,44=3/23(-8);
 2/15=3,29=1/2;
 99/5=20,9=1/99;
 Leave Link    1 at Sun May 25 05:11:25 2025, MaxMem=  3758096384 cpu:               0.0 elap:               0.0
 (Enter /apps/easybuild-2022/easybuild/software/Compiler/NVHPC/22.11-CUDA-11.7.0/Gaussian/g16c01-CUDA-11.7.0/g16/l101.exe)
 Structure from the checkpoint file:  "1502984803620600000001_r13_insertion_ROR_2_1_5_8_IRC_R.chk"
 ------------------------------
 Gaussian input prepared by ASE
 ------------------------------
 Charge =  0 Multiplicity = 1
 Redundant internal coordinates found in file.  (old form).
 C,0,1.5896579017,0.0835648663,-0.0815927935
 F,0,-0.4759853627,0.5604462535,0.0867738041
 F,0,1.618328467,-0.6747385846,0.9209997977
 F,0,1.5197043181,-0.5510013922,-1.1615363724
 S,0,2.0869604715,1.9620061076,0.0252579267
 O,0,3.3154236376,1.7969932984,0.7220971674
 O,0,2.0978101167,2.2907355576,-1.3547940541
 O,0,0.9597810503,2.4291462337,0.8017381124
 H,0,-0.2313336003,1.4305406597,0.4186344117
 Recover connectivity data from disk.
 ITRead=  0  0  0  0  0  0  0  0  0
 MicOpt= -1 -1 -1 -1 -1 -1 -1 -1 -1
 NAtoms=      9 NQM=        9 NQMF=       0 NMMI=      0 NMMIF=      0
                NMic=       0 NMicF=      0.
                    Isotopes and Nuclear Properties:
 (Nuclear quadrupole moments (NQMom) in fm**2, nuclear magnetic moments (NMagM)
  in nuclear magnetons)

  Atom         1           2           3           4           5           6           7           8           9
 IAtWgt=          12          19          19          19          32          16          16          16           1
 AtmWgt=  12.0000000  18.9984032  18.9984032  18.9984032  31.9720718  15.9949146  15.9949146  15.9949146   1.0078250
 NucSpn=           0           1           1           1           0           0           0           0           1
 AtZEff=   3.6000000   6.7500000   6.7500000   6.7500000  13.6000000   5.6000000   5.6000000   5.6000000   1.0000000
 NQMom=    0.0000000   0.0000000   0.0000000   0.0000000   0.0000000   0.0000000   0.0000000   0.0000000   0.0000000
 NMagM=    0.0000000   2.6288670   2.6288670   2.6288670   0.0000000   0.0000000   0.0000000   0.0000000   2.7928460
 AtZNuc=   6.0000000   9.0000000   9.0000000   9.0000000  16.0000000   8.0000000   8.0000000   8.0000000   1.0000000
 Leave Link  101 at Sun May 25 05:11:25 2025, MaxMem=  3758096384 cpu:               0.2 elap:               0.2
 (Enter /apps/easybuild-2022/easybuild/software/Compiler/NVHPC/22.11-CUDA-11.7.0/Gaussian/g16c01-CUDA-11.7.0/g16/l123.exe)
 IRC-IRC-IRC-IRC-IRC-IRC-IRC-IRC-IRC-IRC-IRC-IRC-IRC-IRC-IRC-IRC-IRC-IRC
 ------------------------------------------------------------------------
 INPUT DATA FOR L123
 ------------------------------------------------------------------------
 GENERAL PARAMETERS:
 Rxn path following direction = Reverse
 Maximum points per path      = 100
 Step size                    =   0.020 bohr
 Integration scheme           = HPC                                 
    Redo corrector integration= Yes                                 
    DWI Weight Power          =  2
    DWI will use Hessian update vectors when possible.
    Max correction cycles     =  20
 Initial Hessian              = ReadFC from chk
 Hessian evaluation           = All updating
 Hessian updating method      = Bofill                              
 ------------------------------------------------------------------------
          ******** Start new reaction path calculation ********
 RCFC Option Requested - Data Read From Chk File:
 "1502984803620600000001_r13_insertion_ROR_2_1_5_8_IRC_R.chk"
   Energy From Chk =   -962.0473777

 Current Structure is TS -> form Hessian eigenvectors.
                            Recovering Hessian eigenvectors from chk file.
 Supplied step size of   0.0200 bohr.
    Integration on MW PES will use step size of   0.0626 sqrt(amu)*bohr.
 Point Number:   0          Path Number:   1
 Calculating another point on the path.
 Point Number  1 in REVERSE path direction.
 Using LQA Reaction Path Following.
 IRC-IRC-IRC-IRC-IRC-IRC-IRC-IRC-IRC-IRC-IRC-IRC-IRC-IRC-IRC-IRC-IRC-IRC
 Leave Link  123 at Sun May 25 05:11:25 2025, MaxMem=  3758096384 cpu:               0.0 elap:               0.0
 (Enter /apps/easybuild-2022/easybuild/software/Compiler/NVHPC/22.11-CUDA-11.7.0/Gaussian/g16c01-CUDA-11.7.0/g16/l202.exe)
                          Input orientation:                          
 ---------------------------------------------------------------------
 Center     Atomic      Atomic             Coordinates (Angstroms)
 Number     Number       Type             X           Y           Z
 ---------------------------------------------------------------------
      1          6           0       -0.001023   -0.961193   -0.081762
      2          9           0       -2.057291   -0.485181    0.086978
      3          9           0        0.030278   -1.719789    0.920791
      4          9           0       -0.069553   -1.595704   -1.162036
      5         16           0        0.498853    0.915809    0.024856
      6          8           0        1.726729    0.751588    0.722775
      7          8           0        0.510387    1.245223   -1.355028
      8          8           0       -0.629089    1.383738    0.800734
      9          1           0       -1.811745    0.386112    0.419201
 ---------------------------------------------------------------------
                    Distance matrix (angstroms):
                    1          2          3          4          5
     1  C    0.000000
     2  F    2.117380   0.000000
     3  F    1.257600   2.564653   0.000000
     4  F    1.254708   2.596998   2.088907   0.000000
     5  S    1.945348   2.915562   2.822877   2.835400   0.000000
     6  O    2.562426   4.031457   3.004140   3.505556   1.421879
     7  O    2.598272   3.415647   3.768441   2.905932   1.418706
     8  O    2.583016   2.458061   3.175068   3.611457   1.446789
     9  H    2.311906   0.964270   2.842439   3.076221   2.403113
                    6          7          8          9
     6  O    0.000000
     7  O    2.457728   0.000000
     8  O    2.440404   2.442314   0.000000
     9  H    3.570228   3.046023   1.593581   0.000000
 Symmetry turned off by external request.
 Stoichiometry    CHF3O3S
 Rotational constants (GHZ):           2.3926529           1.5309531           1.3959070
 Leave Link  202 at Sun May 25 05:11:25 2025, MaxMem=  3758096384 cpu:               0.0 elap:               0.0
 (Enter /apps/easybuild-2022/easybuild/software/Compiler/NVHPC/22.11-CUDA-11.7.0/Gaussian/g16c01-CUDA-11.7.0/g16/l301.exe)
 Standard basis: def2TZVPP (5D, 7F)
 Ernie: Thresh=  0.10000D-02 Tol=  0.10000D-05 Strict=F.
   273 basis functions,   443 primitive gaussians,   315 cartesian basis functions
    37 alpha electrons       37 beta electrons
       nuclear repulsion energy       555.8161495219 Hartrees.
 IExCor= 4336 DFT=T Ex+Corr=M062X ExCW=0 ScaHFX=  0.540000
 ScaDFX=  1.000000  1.000000  1.000000  1.000000 ScalE2=  1.000000  1.000000
 IRadAn=      5 IRanWt=     -1 IRanGd=            0 ICorTp=0 IEmpDi=  4
 NAtoms=    9 NActive=    9 NUniq=    9 SFac= 1.00D+00 NAtFMM=   60 NAOKFM=F Big=F
 Integral buffers will be    131072 words long.
 Raffenetti 2 integral format.
 Two-electron integral symmetry is turned off.
 Leave Link  301 at Sun May 25 05:11:25 2025, MaxMem=  3758096384 cpu:               0.0 elap:               0.0
 (Enter /apps/easybuild-2022/easybuild/software/Compiler/NVHPC/22.11-CUDA-11.7.0/Gaussian/g16c01-CUDA-11.7.0/g16/l302.exe)
 NPDir=0 NMtPBC=     1 NCelOv=     1 NCel=       1 NClECP=     1 NCelD=      1
         NCelK=      1 NCelE2=     1 NClLst=     1 CellRange=     0.0.
 One-electron integrals computed using PRISM.
   1 Symmetry operations used in ECPInt.
 ECPInt:  NShTT=    4753 NPrTT=   15592 LenC2=    4578 LenP2D=   11477.
 LDataN:  DoStor=T MaxTD1= 6 Len=  172
 NBasis=   273 RedAO= T EigKep=  8.04D-04  NBF=   273
 NBsUse=   273 1.00D-06 EigRej= -1.00D+00 NBFU=   273
 Precomputing XC quadrature grid using
 IXCGrd= 4 IRadAn=           5 IRanWt=          -1 IRanGd=           0 AccXCQ= 0.00D+00.
 Generated NRdTot=       0 NPtTot=           0 NUsed=           0 NTot=          32
 NSgBfM=   312   312   312   312   312 MxSgAt=     9 MxSgA2=     9.
 Leave Link  302 at Sun May 25 05:11:25 2025, MaxMem=  3758096384 cpu:               0.4 elap:               0.1
 (Enter /apps/easybuild-2022/easybuild/software/Compiler/NVHPC/22.11-CUDA-11.7.0/Gaussian/g16c01-CUDA-11.7.0/g16/l303.exe)
 DipDrv:  MaxL=1.
 Leave Link  303 at Sun May 25 05:11:25 2025, MaxMem=  3758096384 cpu:               0.0 elap:               0.0
 (Enter /apps/easybuild-2022/easybuild/software/Compiler/NVHPC/22.11-CUDA-11.7.0/Gaussian/g16c01-CUDA-11.7.0/g16/l401.exe)
 Initial guess from the checkpoint file:  "1502984803620600000001_r13_insertion_ROR_2_1_5_8_IRC_R.chk"
 B after Tr=    -3.000136   -1.975522   -0.000386
         Rot=    1.000000    0.000001   -0.000003    0.000006 Ang=   0.00 deg.
 Guess basis will be translated and rotated to current coordinates.
 JPrj=2 DoOrth=T DoCkMO=T.
 Leave Link  401 at Sun May 25 05:11:25 2025, MaxMem=  3758096384 cpu:               0.2 elap:               0.1
 (Enter /apps/easybuild-2022/easybuild/software/Compiler/NVHPC/22.11-CUDA-11.7.0/Gaussian/g16c01-CUDA-11.7.0/g16/l502.exe)
 Keep R1 ints in memory in canonical form, NReq=715214082.
 FoFCou: FMM=F IPFlag=           0 FMFlag=           0 FMFlg1=           0
         NFxFlg=           0 DoJE=F BraDBF=F KetDBF=F FulRan=T
         wScrn=  0.000000 ICntrl=       600 IOpCl=  0 I1Cent=           0 NGrid=           0
         NMat0=    1 NMatS0=  37401 NMatT0=    0 NMatD0=    1 NMtDS0=    0 NMtDT0=    0
 Symmetry not used in FoFCou.
 Two-electron integral symmetry not used.
 Closed shell SCF:
 Using DIIS extrapolation, IDIIS=  1040.
 NGot=  3758096384 LenX=  3058457086 LenY=  3058357420
 Requested convergence on RMS density matrix=1.00D-08 within  32 cycles.
 Requested convergence on MAX density matrix=1.00D-06.
 Requested convergence on             energy=1.00D-06.
 No special actions if energy rises.

 Cycle   1  Pass 1  IDiag  1:
 E= -962.047359217573    
 DIIS: error= 1.25D-04 at cycle   1 NSaved=   1.
 NSaved= 1 IEnMin= 1 EnMin= -962.047359217573     IErMin= 1 ErrMin= 1.25D-04
 ErrMax= 1.25D-04  0.00D+00 EMaxC= 1.00D-01 BMatC= 1.17D-05 BMatP= 1.17D-05
 IDIUse=3 WtCom= 9.99D-01 WtEn= 1.25D-03
 Coeff-Com:  0.100D+01
 Coeff-En:   0.100D+01
 Coeff:      0.100D+01
 Gap=     0.292 Goal=   None    Shift=    0.000
 RMSDP=1.42D-05 MaxDP=5.46D-04              OVMax= 1.85D-03

 Cycle   2  Pass 1  IDiag  1:
 E= -962.047376956990     Delta-E=       -0.000017739417 Rises=F Damp=F
 DIIS: error= 6.88D-05 at cycle   2 NSaved=   2.
 NSaved= 2 IEnMin= 2 EnMin= -962.047376956990     IErMin= 2 ErrMin= 6.88D-05
 ErrMax= 6.88D-05  0.00D+00 EMaxC= 1.00D-01 BMatC= 9.42D-07 BMatP= 1.17D-05
 IDIUse=1 WtCom= 1.00D+00 WtEn= 0.00D+00
 Coeff-Com: -0.610D-01 0.106D+01
 Coeff:     -0.610D-01 0.106D+01
 Gap=     0.292 Goal=   None    Shift=    0.000
 RMSDP=4.65D-06 MaxDP=1.67D-04 DE=-1.77D-05 OVMax= 5.11D-04

 Cycle   3  Pass 1  IDiag  1:
 E= -962.047378279564     Delta-E=       -0.000001322574 Rises=F Damp=F
 DIIS: error= 3.57D-05 at cycle   3 NSaved=   3.
 NSaved= 3 IEnMin= 3 EnMin= -962.047378279564     IErMin= 3 ErrMin= 3.57D-05
 ErrMax= 3.57D-05  0.00D+00 EMaxC= 1.00D-01 BMatC= 6.06D-07 BMatP= 9.42D-07
 IDIUse=1 WtCom= 1.00D+00 WtEn= 0.00D+00
 Coeff-Com: -0.857D-01 0.493D+00 0.592D+00
 Coeff:     -0.857D-01 0.493D+00 0.592D+00
 Gap=     0.292 Goal=   None    Shift=    0.000
 RMSDP=1.78D-06 MaxDP=1.03D-04 DE=-1.32D-06 OVMax= 2.68D-04

 Cycle   4  Pass 1  IDiag  1:
 E= -962.047378704111     Delta-E=       -0.000000424547 Rises=F Damp=F
 DIIS: error= 1.49D-05 at cycle   4 NSaved=   4.
 NSaved= 4 IEnMin= 4 EnMin= -962.047378704111     IErMin= 4 ErrMin= 1.49D-05
 ErrMax= 1.49D-05  0.00D+00 EMaxC= 1.00D-01 BMatC= 6.53D-08 BMatP= 6.06D-07
 IDIUse=1 WtCom= 1.00D+00 WtEn= 0.00D+00
 Coeff-Com: -0.164D-01-0.279D-01 0.215D+00 0.830D+00
 Coeff:     -0.164D-01-0.279D-01 0.215D+00 0.830D+00
 Gap=     0.292 Goal=   None    Shift=    0.000
 RMSDP=8.66D-07 MaxDP=3.25D-05 DE=-4.25D-07 OVMax= 1.03D-04

 Cycle   5  Pass 1  IDiag  1:
 E= -962.047378768461     Delta-E=       -0.000000064350 Rises=F Damp=F
 DIIS: error= 5.08D-06 at cycle   5 NSaved=   5.
 NSaved= 5 IEnMin= 5 EnMin= -962.047378768461     IErMin= 5 ErrMin= 5.08D-06
 ErrMax= 5.08D-06  0.00D+00 EMaxC= 1.00D-01 BMatC= 1.18D-08 BMatP= 6.53D-08
 IDIUse=1 WtCom= 1.00D+00 WtEn= 0.00D+00
 Coeff-Com:  0.327D-02-0.782D-01 0.307D-01 0.377D+00 0.667D+00
 Coeff:      0.327D-02-0.782D-01 0.307D-01 0.377D+00 0.667D+00
 Gap=     0.292 Goal=   None    Shift=    0.000
 RMSDP=3.44D-07 MaxDP=1.18D-05 DE=-6.44D-08 OVMax= 3.53D-05

 Cycle   6  Pass 1  IDiag  1:
 E= -962.047378778540     Delta-E=       -0.000000010079 Rises=F Damp=F
 DIIS: error= 1.72D-06 at cycle   6 NSaved=   6.
 NSaved= 6 IEnMin= 6 EnMin= -962.047378778540     IErMin= 6 ErrMin= 1.72D-06
 ErrMax= 1.72D-06  0.00D+00 EMaxC= 1.00D-01 BMatC= 1.94D-09 BMatP= 1.18D-08
 IDIUse=1 WtCom= 1.00D+00 WtEn= 0.00D+00
 Coeff-Com:  0.435D-02-0.264D-01-0.254D-01-0.972D-02 0.311D+00 0.746D+00
 Coeff:      0.435D-02-0.264D-01-0.254D-01-0.972D-02 0.311D+00 0.746D+00
 Gap=     0.292 Goal=   None    Shift=    0.000
 RMSDP=1.30D-07 MaxDP=6.21D-06 DE=-1.01D-08 OVMax= 1.90D-05

 Cycle   7  Pass 1  IDiag  1:
 E= -962.047378780368     Delta-E=       -0.000000001828 Rises=F Damp=F
 DIIS: error= 2.89D-07 at cycle   7 NSaved=   7.
 NSaved= 7 IEnMin= 7 EnMin= -962.047378780368     IErMin= 7 ErrMin= 2.89D-07
 ErrMax= 2.89D-07  0.00D+00 EMaxC= 1.00D-01 BMatC= 4.78D-11 BMatP= 1.94D-09
 IDIUse=1 WtCom= 1.00D+00 WtEn= 0.00D+00
 Coeff-Com:  0.531D-03 0.147D-02-0.561D-02-0.305D-01 0.438D-02 0.121D+00
 Coeff-Com:  0.908D+00
 Coeff:      0.531D-03 0.147D-02-0.561D-02-0.305D-01 0.438D-02 0.121D+00
 Coeff:      0.908D+00
 Gap=     0.292 Goal=   None    Shift=    0.000
 RMSDP=3.17D-08 MaxDP=8.53D-07 DE=-1.83D-09 OVMax= 5.19D-06

 Cycle   8  Pass 1  IDiag  1:
 E= -962.047378780385     Delta-E=       -0.000000000017 Rises=F Damp=F
 DIIS: error= 1.12D-07 at cycle   8 NSaved=   8.
 NSaved= 8 IEnMin= 8 EnMin= -962.047378780385     IErMin= 8 ErrMin= 1.12D-07
 ErrMax= 1.12D-07  0.00D+00 EMaxC= 1.00D-01 BMatC= 1.04D-11 BMatP= 4.78D-11
 IDIUse=1 WtCom= 1.00D+00 WtEn= 0.00D+00
 Coeff-Com: -0.119D-03 0.271D-02-0.133D-03-0.116D-01-0.250D-01-0.142D-01
 Coeff-Com:  0.352D+00 0.697D+00
 Coeff:     -0.119D-03 0.271D-02-0.133D-03-0.116D-01-0.250D-01-0.142D-01
 Coeff:      0.352D+00 0.697D+00
 Gap=     0.292 Goal=   None    Shift=    0.000
 RMSDP=1.12D-08 MaxDP=4.07D-07 DE=-1.68D-11 OVMax= 1.08D-06

 Cycle   9  Pass 1  IDiag  1:
 E= -962.047378780400     Delta-E=       -0.000000000015 Rises=F Damp=F
 DIIS: error= 6.44D-08 at cycle   9 NSaved=   9.
 NSaved= 9 IEnMin= 9 EnMin= -962.047378780400     IErMin= 9 ErrMin= 6.44D-08
 ErrMax= 6.44D-08  0.00D+00 EMaxC= 1.00D-01 BMatC= 2.97D-12 BMatP= 1.04D-11
 IDIUse=1 WtCom= 1.00D+00 WtEn= 0.00D+00
 Coeff-Com: -0.148D-03 0.133D-02 0.771D-03-0.218D-02-0.154D-01-0.256D-01
 Coeff-Com:  0.728D-01 0.386D+00 0.583D+00
 Coeff:     -0.148D-03 0.133D-02 0.771D-03-0.218D-02-0.154D-01-0.256D-01
 Coeff:      0.728D-01 0.386D+00 0.583D+00
 Gap=     0.292 Goal=   None    Shift=    0.000
 RMSDP=4.49D-09 MaxDP=1.87D-07 DE=-1.50D-11 OVMax= 7.69D-07

 SCF Done:  E(RM062X) =  -962.047378780     A.U. after    9 cycles
            NFock=  9  Conv=0.45D-08     -V/T= 2.0027
 KE= 9.594822099702D+02 PE=-3.393048685085D+03 EE= 9.157029468120D+02
 Leave Link  502 at Sun May 25 05:11:35 2025, MaxMem=  3758096384 cpu:              49.7 elap:              10.0
 (Enter /apps/easybuild-2022/easybuild/software/Compiler/NVHPC/22.11-CUDA-11.7.0/Gaussian/g16c01-CUDA-11.7.0/g16/l508.exe)
 QCSCF skips out because SCF is already converged.
 Leave Link  508 at Sun May 25 05:11:35 2025, MaxMem=  3758096384 cpu:               0.0 elap:               0.0
 (Enter /apps/easybuild-2022/easybuild/software/Compiler/NVHPC/22.11-CUDA-11.7.0/Gaussian/g16c01-CUDA-11.7.0/g16/l801.exe)
 DoSCS=F DFT=T ScalE2(SS,OS)=  1.000000  1.000000
 Range of M.O.s used for correlation:     1   273
 NBasis=   273 NAE=    37 NBE=    37 NFC=     0 NFV=     0
 NROrb=    273 NOA=    37 NOB=    37 NVA=   236 NVB=   236

 **** Warning!!: The largest alpha MO coefficient is  0.13074803D+02

 Leave Link  801 at Sun May 25 05:11:35 2025, MaxMem=  3758096384 cpu:               0.0 elap:               0.0
 (Enter /apps/easybuild-2022/easybuild/software/Compiler/NVHPC/22.11-CUDA-11.7.0/Gaussian/g16c01-CUDA-11.7.0/g16/l1101.exe)
 Leave Link 1101 at Sun May 25 05:11:35 2025, MaxMem=  3758096384 cpu:               0.0 elap:               0.0
 (Enter /apps/easybuild-2022/easybuild/software/Compiler/NVHPC/22.11-CUDA-11.7.0/Gaussian/g16c01-CUDA-11.7.0/g16/l1102.exe)
 Symmetrizing basis deriv contribution to polar:
 IMax=3 JMax=2 DiffMx= 0.00D+00
 Leave Link 1102 at Sun May 25 05:11:35 2025, MaxMem=  3758096384 cpu:               0.0 elap:               0.0
 (Enter /apps/easybuild-2022/easybuild/software/Compiler/NVHPC/22.11-CUDA-11.7.0/Gaussian/g16c01-CUDA-11.7.0/g16/l1110.exe)
 Leave Link 1110 at Sun May 25 05:11:35 2025, MaxMem=  3758096384 cpu:               0.0 elap:               0.0
 (Enter /apps/easybuild-2022/easybuild/software/Compiler/NVHPC/22.11-CUDA-11.7.0/Gaussian/g16c01-CUDA-11.7.0/g16/l1002.exe)
 Minotr:  Closed shell wavefunction.
 Leave Link 1002 at Sun May 25 05:11:35 2025, MaxMem=  3758096384 cpu:               0.0 elap:               0.0
 (Enter /apps/easybuild-2022/easybuild/software/Compiler/NVHPC/22.11-CUDA-11.7.0/Gaussian/g16c01-CUDA-11.7.0/g16/l701.exe)
 ... and contract with generalized density number  0.
 Compute integral first derivatives.
   1 Symmetry operations used in ECPInt.
 ECPInt:  NShTT=    4753 NPrTT=   15592 LenC2=    4578 LenP2D=   11477.
 LDataN:  DoStor=T MaxTD1= 7 Len=  274
 Leave Link  701 at Sun May 25 05:11:36 2025, MaxMem=  3758096384 cpu:               0.4 elap:               0.1
 (Enter /apps/easybuild-2022/easybuild/software/Compiler/NVHPC/22.11-CUDA-11.7.0/Gaussian/g16c01-CUDA-11.7.0/g16/l702.exe)
 L702 exits ... SP integral derivatives will be done elsewhere.
 Leave Link  702 at Sun May 25 05:11:36 2025, MaxMem=  3758096384 cpu:               0.0 elap:               0.0
 (Enter /apps/easybuild-2022/easybuild/software/Compiler/NVHPC/22.11-CUDA-11.7.0/Gaussian/g16c01-CUDA-11.7.0/g16/l703.exe)
 Integral derivatives from FoFJK, PRISM(SPDF).
 Compute integral first derivatives, UseDBF=F ICtDFT=           0.
 Calling FoFJK, ICntrl=      2127 FMM=F ISym2X=0 I1Cent= 0 IOpClX= 0 NMat=1 NMatS=1 NMatT=0.
 FoFJK:  IHMeth= 1 ICntrl=    2127 DoSepK=F KAlg= 0 I1Cent=           0 FoldK=F
 IRaf=         0 NMat=       1 IRICut=       1 DoRegI=T DoRafI=F ISym2E= 0 IDoP0=0 IntGTp=1.
 FoFCou: FMM=F IPFlag=           0 FMFlag=      100000 FMFlg1=         800
         NFxFlg=           0 DoJE=F BraDBF=F KetDBF=F FulRan=T
         wScrn=  0.000000 ICntrl=      2127 IOpCl=  0 I1Cent=           0 NGrid=           0
         NMat0=    1 NMatS0=      1 NMatT0=    0 NMatD0=    1 NMtDS0=    0 NMtDT0=    0
 Symmetry not used in FoFCou.
 Leave Link  703 at Sun May 25 05:11:40 2025, MaxMem=  3758096384 cpu:              31.8 elap:               4.0
 (Enter /apps/easybuild-2022/easybuild/software/Compiler/NVHPC/22.11-CUDA-11.7.0/Gaussian/g16c01-CUDA-11.7.0/g16/l716.exe)
 Dipole        =-3.31068399D-01-1.37736500D+00 4.35683579D-02
 Polarizability= 0.00000000D+00 0.00000000D+00 0.00000000D+00
                 0.00000000D+00 0.00000000D+00 0.00000000D+00
 -------------------------------------------------------------------
 Center     Atomic                   Forces (Hartrees/Bohr)
 Number     Number              X              Y              Z
 -------------------------------------------------------------------
      1        6          -0.000049239    0.000017677   -0.000001172
      2        9           0.000109114   -0.000024257   -0.000000636
      3        9          -0.000006105    0.000000334   -0.000002141
      4        9          -0.000030601    0.000013621   -0.000016505
      5       16           0.000000337   -0.000033457   -0.000006879
      6        8          -0.000013538   -0.000001564    0.000013956
      7        8           0.000000801    0.000005692    0.000003637
      8        8          -0.000022808   -0.000001441   -0.000003723
      9        1           0.000012040    0.000023395    0.000013461
 -------------------------------------------------------------------
 Cartesian Forces:  Max     0.000109114 RMS     0.000026993
 Leave Link  716 at Sun May 25 05:11:40 2025, MaxMem=  3758096384 cpu:               0.0 elap:               0.0
 (Enter /apps/easybuild-2022/easybuild/software/Compiler/NVHPC/22.11-CUDA-11.7.0/Gaussian/g16c01-CUDA-11.7.0/g16/l123.exe)
 IRC-IRC-IRC-IRC-IRC-IRC-IRC-IRC-IRC-IRC-IRC-IRC-IRC-IRC-IRC-IRC-IRC-IRC
 Pt  1 Step number   1 out of a maximum of  20
 Using modified Bulirsch-Stoer corrector integration.
   Using distance weighted interpolants to fit PES.
 PreDWI: IReCr0= 2 IReCr1= 1 IReCr2= 1 IReCr3= 1
 Modified Bulirsch-Stoer Extrapolation Cycles:
    EPS =    0.000010000000000
    Cycle     1 NS=    48
      PEZero:  N= 2 I= 1 D=  1.63D-04 Err=  3.76D-03
    Cycle     2 NS=    64 Truncation Error =  0.003755073
      PEZero:  N= 3 I= 2 D=  1.63D-04 Err=  5.87D-03
      PEZero:  N= 3 I= 1 D=  3.26D-04 Err=  5.05D-03
    Cycle     3 NS=    96 Truncation Error =  0.005049085
      PEZero:  N= 4 I= 3 D=  8.15D-05 Err=  1.00D-02
      PEZero:  N= 4 I= 2 D=  2.44D-04 Err=  7.48D-03
      PEZero:  N= 4 I= 1 D=  4.07D-04 Err=  5.94D-03
    Cycle     4 NS=   128 Truncation Error =  0.005944031
      PEZero:  N= 5 I= 4 D=  8.15D-05 Err=  1.52D-02
      PEZero:  N= 5 I= 3 D=  1.63D-04 Err=  1.28D-02
      PEZero:  N= 5 I= 2 D=  3.26D-04 Err=  9.05D-03
      PEZero:  N= 5 I= 1 D=  4.89D-04 Err=  7.07D-03
    Cycle     5 NS=   192 Truncation Error =  0.007070428
      PEZero:  N= 6 I= 5 D=  4.07D-05 Err=  1.44D-02
      PEZero:  N= 6 I= 4 D=  1.22D-04 Err=  3.98D-03
      PEZero:  N= 6 I= 3 D=  2.04D-04 Err=  2.90D-03
      PEZero:  N= 6 I= 2 D=  3.67D-04 Err=  5.60D-03
    Cycle     6 NS=   256 Truncation Error =  0.002901130
      PEZero:  N= 7 I= 6 D=  4.07D-05 Err=  2.49D-03
      PEZero:  N= 7 I= 5 D=  8.15D-05 Err=  1.06D-02
    Cycle     7 NS=   384 Truncation Error =  0.002493266
      PEZero:  N= 8 I= 7 D=  2.04D-05 Err=  6.38D-05
      PEZero:  N= 8 I= 6 D=  6.11D-05 Err=  2.41D-03
    Cycle     8 NS=   512 Truncation Error =  0.000063825
      PEZero:  N= 9 I= 8 D=  2.04D-05 Err=  3.54D-05
      PEZero:  N= 9 I= 7 D=  4.07D-05 Err=  1.07D-05
      PEZero:  N= 9 I= 6 D=  8.15D-05 Err=  2.00D-03
    Cycle     9 NS=   768 Truncation Error =  0.000010706
      PEZero:  N=10 I= 9 D=  1.02D-05 Err=  2.58D-05
      PEZero:  N=10 I= 8 D=  3.06D-05 Err=  9.59D-07
      PEZero:  N=10 I= 7 D=  5.09D-05 Err=  5.27D-06
    Cycle    10 NS=  1024 Truncation Error =  0.000000959
 BS completed in   10 cycles and    3472 integration steps.
 Maximum DWI energy   std dev =  0.000000042 at pt    96
 Maximum DWI gradient std dev =  0.572101690 at pt     4
 SUMMARY OF CORRECTOR INTEGRATION:
   Predictor End Point Energy =  -962.047379
   Old End Point Energy       =  -962.047379
   Corrected End Point Energy =  -962.047379
   Predictor End-Start Dist.  =     0.062580
   Old End-Start Dist.        =     0.062580
   New End-Start Dist.        =     0.062498
   New End-Old End Dist.      =     0.003057
 CORRECTOR INTEGRATION CONVERGENCE:
   Recorrection delta-x convergence threshold:    0.010000
   Delta-x Convergence Met
 Point Number:   1          Path Number:   1
                    CURRENT STRUCTURE
                Cartesian Coordinates (Ang):                
 ---------------------------------------------------------------------
 Center     Atomic                     Coordinates (Angstroms)
 Number     Number                        X           Y           Z
 ---------------------------------------------------------------------
      1          6                   -0.001094   -0.961177   -0.081846
      2          9                   -2.057322   -0.485115    0.087019
      3          9                    0.030253   -1.719842    0.920661
      4          9                   -0.069605   -1.595629   -1.162162
      5         16                    0.498890    0.915781    0.024901
      6          8                    1.726799    0.751482    0.722742
      7          8                    0.510352    1.245356   -1.354943
      8          8                   -0.629015    1.383651    0.800894
      9          1                   -1.811658    0.386137    0.419403
 ---------------------------------------------------------------------
   CHANGE IN THE REACTION COORDINATE =    0.06250
   NET REACTION COORDINATE UP TO THIS POINT =    0.06250
  # OF POINTS ALONG THE PATH =   1
  # OF STEPS =   1

 PES minimum detected on this side of the pathway.
    Magnitude of the gradient =      0.0000345
 Calculation of REVERSE path complete.
 Reaction path calculation complete.
 
 Energies reported relative to the TS energy of        -962.047378
 --------------------------------------------------------------------------
    Summary of reaction path following
 --------------------------------------------------------------------------
                        Energy    RxCoord
   1                   -0.00000  -0.06250
   2                    0.00000   0.00000
 --------------------------------------------------------------------------
 
 Total number of points:                    1
 Total number of gradient calculations:     1
 Total number of Hessian calculations:      0
 IRC-IRC-IRC-IRC-IRC-IRC-IRC-IRC-IRC-IRC-IRC-IRC-IRC-IRC-IRC-IRC-IRC-IRC
 Leave Link  123 at Sun May 25 05:11:40 2025, MaxMem=  3758096384 cpu:               0.6 elap:               0.1
 (Enter /apps/easybuild-2022/easybuild/software/Compiler/NVHPC/22.11-CUDA-11.7.0/Gaussian/g16c01-CUDA-11.7.0/g16/l202.exe)
                          Input orientation:                          
 ---------------------------------------------------------------------
 Center     Atomic      Atomic             Coordinates (Angstroms)
 Number     Number       Type             X           Y           Z
 ---------------------------------------------------------------------
      1          6           0       -0.001023   -0.961193   -0.081762
      2          9           0       -2.057291   -0.485181    0.086978
      3          9           0        0.030278   -1.719789    0.920791
      4          9           0       -0.069553   -1.595704   -1.162036
      5         16           0        0.498853    0.915809    0.024856
      6          8           0        1.726729    0.751588    0.722775
      7          8           0        0.510387    1.245223   -1.355028
      8          8           0       -0.629089    1.383738    0.800734
      9          1           0       -1.811745    0.386112    0.419201
 ---------------------------------------------------------------------
                    Distance matrix (angstroms):
                    1          2          3          4          5
     1  C    0.000000
     2  F    2.117380   0.000000
     3  F    1.257600   2.564653   0.000000
     4  F    1.254708   2.596998   2.088907   0.000000
     5  S    1.945348   2.915562   2.822877   2.835400   0.000000
     6  O    2.562426   4.031457   3.004140   3.505556   1.421879
     7  O    2.598272   3.415647   3.768441   2.905932   1.418706
     8  O    2.583016   2.458061   3.175068   3.611457   1.446789
     9  H    2.311906   0.964270   2.842439   3.076221   2.403113
                    6          7          8          9
     6  O    0.000000
     7  O    2.457728   0.000000
     8  O    2.440404   2.442314   0.000000
     9  H    3.570228   3.046023   1.593581   0.000000
 Symmetry turned off by external request.
 Stoichiometry    CHF3O3S
 Rotational constants (GHZ):           2.3926529           1.5309531           1.3959070
 Leave Link  202 at Sun May 25 05:11:40 2025, MaxMem=  3758096384 cpu:               0.0 elap:               0.0
 (Enter /apps/easybuild-2022/easybuild/software/Compiler/NVHPC/22.11-CUDA-11.7.0/Gaussian/g16c01-CUDA-11.7.0/g16/l9999.exe)

 This type of calculation cannot be archived.


 BUT 'GLORY' DOESN'T MEAN 'A NICE KNOCK DOWN ARGUMENT', ALICE OBJECTED.
 WHEN I USE A WORD, HUMPTY DUMPTY SAID, IN A RATHER SCORNFUL TONE,
 IT MEANS JUST WHAT I CHOOSE IT TO MEAN....
 NEITHER MORE NOR LESS....
 THE QUESTION IS, SAID ALICE,
 WHETHER YOU CAN MAKE WORDS MEAN SO MANY DIFFERENT THINGS...
 THE QUESTION IS, SAID HUMPTY DUMPTY,
 WHICH IS TO BE MASTER....
 THAT IS ALL.....

 ALICE THROUGH THE LOOKING GLASS
 Job cpu time:       0 days  0 hours  1 minutes 23.8 seconds.
 Elapsed time:       0 days  0 hours  0 minutes 15.0 seconds.
 File lengths (MBytes):  RWF=     34 Int=      0 D2E=      0 Chk=      8 Scr=      1
 Normal termination of Gaussian 16 at Sun May 25 05:11:40 2025.
done
