 Entering Gaussian System, Link 0=g16
 Initial command:
 /apps/easybuild-2022/easybuild/software/Compiler/NVHPC/22.11-CUDA-11.7.0/Gaussian/g16c01-CUDA-11.7.0/g16/l1.exe "/tmp/Gau-159169.inp" -scrdir="/tmp/"
 Entering Link 1 = /apps/easybuild-2022/easybuild/software/Compiler/NVHPC/22.11-CUDA-11.7.0/Gaussian/g16c01-CUDA-11.7.0/g16/l1.exe PID=    159170.
  
 Copyright (c) 1988-2019, Gaussian, Inc.  All Rights Reserved.
  
 This is part of the Gaussian(R) 16 program.  It is based on
 the Gaussian(R) 09 system (copyright 2009, Gaussian, Inc.),
 the Gaussian(R) 03 system (copyright 2003, Gaussian, Inc.),
 the Gaussian(R) 98 system (copyright 1998, Gaussian, Inc.),
 the Gaussian(R) 94 system (copyright 1995, Gaussian, Inc.),
 the Gaussian 92(TM) system (copyright 1992, Gaussian, Inc.),
 the Gaussian 90(TM) system (copyright 1990, Gaussian, Inc.),
 the Gaussian 88(TM) system (copyright 1988, Gaussian, Inc.),
 the Gaussian 86(TM) system (copyright 1986, Carnegie Mellon
 University), and the Gaussian 82(TM) system (copyright 1983,
 Carnegie Mellon University). Gaussian is a federally registered
 trademark of Gaussian, Inc.
  
 This software contains proprietary and confidential information,
 including trade secrets, belonging to Gaussian, Inc.
  
 This software is provided under written license and may be
 used, copied, transmitted, or stored only in accord with that
 written license.
  
 The following legend is applicable only to US Government
 contracts under FAR:
  
                    RESTRICTED RIGHTS LEGEND
  
 Use, reproduction and disclosure by the US Government is
 subject to restrictions as set forth in subparagraphs (a)
 and (c) of the Commercial Computer Software - Restricted
 Rights clause in FAR 52.227-19.
  
 Gaussian, Inc.
 340 Quinnipiac St., Bldg. 40, Wallingford CT 06492
  
  
 ---------------------------------------------------------------
 Warning -- This program may not be used in any manner that
 competes with the business of Gaussian, Inc. or will provide
 assistance to any competitor of Gaussian, Inc.  The licensee
 of this program is prohibited from giving any competitor of
 Gaussian, Inc. access to this program.  By using this program,
 the user acknowledges that Gaussian, Inc. is engaged in the
 business of creating and licensing software in the field of
 computational chemistry and represents and warrants to the
 licensee that it is not a competitor of Gaussian, Inc. and that
 it will not use this program in any manner prohibited above.
 ---------------------------------------------------------------
  

 Cite this work as:
 Gaussian 16, Revision C.01,
 M. J. Frisch, G. W. Trucks, H. B. Schlegel, G. E. Scuseria, 
 M. A. Robb, J. R. Cheeseman, G. Scalmani, V. Barone, 
 G. A. Petersson, H. Nakatsuji, X. Li, M. Caricato, A. V. Marenich, 
 J. Bloino, B. G. Janesko, R. Gomperts, B. Mennucci, H. P. Hratchian, 
 J. V. Ortiz, A. F. Izmaylov, J. L. Sonnenberg, D. Williams-Young, 
 F. Ding, F. Lipparini, F. Egidi, J. Goings, B. Peng, A. Petrone, 
 T. Henderson, D. Ranasinghe, V. G. Zakrzewski, J. Gao, N. Rega, 
 G. Zheng, W. Liang, M. Hada, M. Ehara, K. Toyota, R. Fukuda, 
 J. Hasegawa, M. Ishida, T. Nakajima, Y. Honda, O. Kitao, H. Nakai, 
 T. Vreven, K. Throssell, J. A. Montgomery, Jr., J. E. Peralta, 
 F. Ogliaro, M. J. Bearpark, J. J. Heyd, E. N. Brothers, K. N. Kudin, 
 V. N. Staroverov, T. A. Keith, R. Kobayashi, J. Normand, 
 K. Raghavachari, A. P. Rendell, J. C. Burant, S. S. Iyengar, 
 J. Tomasi, M. Cossi, J. M. Millam, M. Klene, C. Adamo, R. Cammi, 
 J. W. Ochterski, R. L. Martin, K. Morokuma, O. Farkas, 
 J. B. Foresman, and D. J. Fox, Gaussian, Inc., Wallingford CT, 2019.
 
 ******************************************
 Gaussian 16:  ES64L-G16RevC.01  3-Jul-2019
                25-May-2025 
 ******************************************
 %mem=28GB
 %chk=1502984803620600000001_r13_insertion_ROR_2_1_5_8_IRC_F_prod
 %nprocshared=8
 Will use up to    8 processors via shared memory.
 -----------------------------------------------------------------
 #P M062X/Def2TZVPP Symm(None) scf(xqc) pop(None) freq opt(CalcFC)
 -----------------------------------------------------------------
 1/10=4,18=20,19=15,26=3,38=1/1,3;
 2/9=110,12=2,15=3,17=6,18=5,40=1/2;
 3/5=44,7=202,11=2,25=1,30=1,71=2,74=-55,140=1/1,2,3;
 4//1;
 5/5=2,8=3,13=1,38=5/2,8;
 8/6=4,10=90,11=11/1;
 11/6=1,8=1,9=11,15=111,16=1,31=1/1,2,10;
 10/6=1,13=1,31=1/2;
 7/10=1,25=1,30=1/1,2,3,16;
 1/10=4,18=20,19=15,26=3/3(2);
 2/9=110,15=3/2;
 99//99;
 2/9=110,15=3/2;
 3/5=44,7=202,11=2,25=1,30=1,71=1,74=-55/1,2,3;
 4/5=5,16=3,69=1/1;
 5/5=2,8=3,13=1,38=5/2,8;
 7/30=1/1,2,3,16;
 1/18=20,19=15,26=3/3(-5);
 2/9=110,15=3/2;
 99/9=1/99;
 Leave Link    1 at Sun May 25 05:11:44 2025, MaxMem=  3758096384 cpu:               0.0 elap:               0.0
 (Enter /apps/easybuild-2022/easybuild/software/Compiler/NVHPC/22.11-CUDA-11.7.0/Gaussian/g16c01-CUDA-11.7.0/g16/l101.exe)
 ------------------------------
 Gaussian input prepared by ASE
 ------------------------------
 Symbolic Z-matrix:
 Charge =  0 Multiplicity = 1
 C                     0.00512  -0.96252  -0.08186 
 F                    -2.0699   -0.48477   0.08613 
 F                     0.03116  -1.72053   0.92077 
 F                    -0.06626  -1.59714  -1.16148 
 S                     0.49985   0.91736   0.02522 
 O                     1.7289    0.75156   0.72098 
 O                     0.51002   1.24541  -1.355 
 O                    -0.62657   1.38371   0.8023 
 H                    -1.82614   0.38413   0.41763 
 
 Add virtual bond connecting atoms H9         and O8         Dist= 3.04D+00.
 ITRead=  0  0  0  0  0  0  0  0  0
 MicOpt= -1 -1 -1 -1 -1 -1 -1 -1 -1
 NAtoms=      9 NQM=        9 NQMF=       0 NMMI=      0 NMMIF=      0
                NMic=       0 NMicF=      0.
                    Isotopes and Nuclear Properties:
 (Nuclear quadrupole moments (NQMom) in fm**2, nuclear magnetic moments (NMagM)
  in nuclear magnetons)

  Atom         1           2           3           4           5           6           7           8           9
 IAtWgt=          12          19          19          19          32          16          16          16           1
 AtmWgt=  12.0000000  18.9984032  18.9984032  18.9984032  31.9720718  15.9949146  15.9949146  15.9949146   1.0078250
 NucSpn=           0           1           1           1           0           0           0           0           1
 AtZEff=  -0.0000000  -0.0000000  -0.0000000  -0.0000000  -0.0000000  -0.0000000  -0.0000000  -0.0000000  -0.0000000
 NQMom=    0.0000000   0.0000000   0.0000000   0.0000000   0.0000000   0.0000000   0.0000000   0.0000000   0.0000000
 NMagM=    0.0000000   2.6288670   2.6288670   2.6288670   0.0000000   0.0000000   0.0000000   0.0000000   2.7928460
 AtZNuc=   6.0000000   9.0000000   9.0000000   9.0000000  16.0000000   8.0000000   8.0000000   8.0000000   1.0000000
 Leave Link  101 at Sun May 25 05:11:44 2025, MaxMem=  3758096384 cpu:               0.2 elap:               0.2
 (Enter /apps/easybuild-2022/easybuild/software/Compiler/NVHPC/22.11-CUDA-11.7.0/Gaussian/g16c01-CUDA-11.7.0/g16/l103.exe)

 GradGradGradGradGradGradGradGradGradGradGradGradGradGradGradGradGradGrad
 Berny optimization.
 Initialization pass.
                           ----------------------------
                           !    Initial Parameters    !
                           ! (Angstroms and Degrees)  !
 --------------------------                            --------------------------
 ! Name  Definition              Value          Derivative Info.                !
 --------------------------------------------------------------------------------
 ! R1    R(1,3)                  1.2572         calculate D2E/DX2 analytically  !
 ! R2    R(1,4)                  1.2544         calculate D2E/DX2 analytically  !
 ! R3    R(1,5)                  1.9468         calculate D2E/DX2 analytically  !
 ! R4    R(2,9)                  0.9614         calculate D2E/DX2 analytically  !
 ! R5    R(5,6)                  1.422          calculate D2E/DX2 analytically  !
 ! R6    R(5,7)                  1.4187         calculate D2E/DX2 analytically  !
 ! R7    R(5,8)                  1.4457         calculate D2E/DX2 analytically  !
 ! R8    R(8,9)                  1.6081         calculate D2E/DX2 analytically  !
 ! A1    A(3,1,4)              112.4915         calculate D2E/DX2 analytically  !
 ! A2    A(3,1,5)              122.2134         calculate D2E/DX2 analytically  !
 ! A3    A(4,1,5)              123.3901         calculate D2E/DX2 analytically  !
 ! A4    A(1,5,6)               97.6985         calculate D2E/DX2 analytically  !
 ! A5    A(1,5,7)               99.88           calculate D2E/DX2 analytically  !
 ! A6    A(1,5,8)               98.2243         calculate D2E/DX2 analytically  !
 ! A7    A(6,5,7)              119.7866         calculate D2E/DX2 analytically  !
 ! A8    A(6,5,8)              116.6172         calculate D2E/DX2 analytically  !
 ! A9    A(7,5,8)              116.9951         calculate D2E/DX2 analytically  !
 ! A10   A(5,8,9)              104.6023         calculate D2E/DX2 analytically  !
 ! A11   A(2,9,8)              146.4474         calculate D2E/DX2 analytically  !
 ! D1    D(3,1,5,6)             49.0225         calculate D2E/DX2 analytically  !
 ! D2    D(3,1,5,7)            171.1888         calculate D2E/DX2 analytically  !
 ! D3    D(3,1,5,8)            -69.4241         calculate D2E/DX2 analytically  !
 ! D4    D(4,1,5,6)           -114.0791         calculate D2E/DX2 analytically  !
 ! D5    D(4,1,5,7)              8.0873         calculate D2E/DX2 analytically  !
 ! D6    D(4,1,5,8)            127.4744         calculate D2E/DX2 analytically  !
 ! D7    D(1,5,8,9)            -28.8375         calculate D2E/DX2 analytically  !
 ! D8    D(6,5,8,9)           -131.7715         calculate D2E/DX2 analytically  !
 ! D9    D(7,5,8,9)             76.7194         calculate D2E/DX2 analytically  !
 ! D10   D(5,8,9,2)             23.7845         calculate D2E/DX2 analytically  !
 --------------------------------------------------------------------------------
 Trust Radius=3.00D-01 FncErr=1.00D-07 GrdErr=1.00D-06 EigMax=2.50D+02 EigMin=1.00D-04
 Number of steps in this run=     39 maximum allowed number of steps=    100.
 GradGradGradGradGradGradGradGradGradGradGradGradGradGradGradGradGradGrad

 Leave Link  103 at Sun May 25 05:11:44 2025, MaxMem=  3758096384 cpu:               0.0 elap:               0.0
 (Enter /apps/easybuild-2022/easybuild/software/Compiler/NVHPC/22.11-CUDA-11.7.0/Gaussian/g16c01-CUDA-11.7.0/g16/l202.exe)
                          Input orientation:                          
 ---------------------------------------------------------------------
 Center     Atomic      Atomic             Coordinates (Angstroms)
 Number     Number       Type             X           Y           Z
 ---------------------------------------------------------------------
      1          6           0        0.005120   -0.962520   -0.081862
      2          9           0       -2.069899   -0.484770    0.086131
      3          9           0        0.031160   -1.720532    0.920770
      4          9           0       -0.066257   -1.597142   -1.161475
      5         16           0        0.499849    0.917360    0.025222
      6          8           0        1.728899    0.751556    0.720981
      7          8           0        0.510015    1.245405   -1.354999
      8          8           0       -0.626568    1.383711    0.802304
      9          1           0       -1.826141    0.384126    0.417629
 ---------------------------------------------------------------------
                    Distance matrix (angstroms):
                    1          2          3          4          5
     1  C    0.000000
     2  F    2.135924   0.000000
     3  F    1.257192   2.576466   0.000000
     4  F    1.254354   2.609305   2.088171   0.000000
     5  S    1.946837   2.928017   2.824916   2.837507   0.000000
     6  O    2.560083   4.045047   3.005570   3.504655   1.422018
     7  O    2.598217   3.424371   3.768980   2.906822   1.418706
     8  O    2.585649   2.467251   3.175368   3.613289   1.445737
     9  H    2.327330   0.961400   2.851719   3.084831   2.418378
                    6          7          8          9
     6  O    0.000000
     7  O    2.457490   0.000000
     8  O    2.440176   2.442316   0.000000
     9  H    3.586828   3.056409   1.608142   0.000000
 Symmetry turned off by external request.
 Stoichiometry    CHF3O3S
 Rotational constants (GHZ):           2.3829384           1.5288444           1.3905811
 Leave Link  202 at Sun May 25 05:11:44 2025, MaxMem=  3758096384 cpu:               0.0 elap:               0.0
 (Enter /apps/easybuild-2022/easybuild/software/Compiler/NVHPC/22.11-CUDA-11.7.0/Gaussian/g16c01-CUDA-11.7.0/g16/l301.exe)
 Standard basis: def2TZVPP (5D, 7F)
 Ernie: Thresh=  0.10000D-02 Tol=  0.10000D-05 Strict=F.
   273 basis functions,   443 primitive gaussians,   315 cartesian basis functions
    37 alpha electrons       37 beta electrons
       nuclear repulsion energy       555.2325350395 Hartrees.
 IExCor= 4336 DFT=T Ex+Corr=M062X ExCW=0 ScaHFX=  0.540000
 ScaDFX=  1.000000  1.000000  1.000000  1.000000 ScalE2=  1.000000  1.000000
 IRadAn=      5 IRanWt=     -1 IRanGd=            0 ICorTp=0 IEmpDi=  4
 NAtoms=    9 NActive=    9 NUniq=    9 SFac= 1.00D+00 NAtFMM=   60 NAOKFM=F Big=F
 Integral buffers will be    131072 words long.
 Raffenetti 2 integral format.
 Two-electron integral symmetry is turned off.
 Leave Link  301 at Sun May 25 05:11:44 2025, MaxMem=  3758096384 cpu:               0.0 elap:               0.0
 (Enter /apps/easybuild-2022/easybuild/software/Compiler/NVHPC/22.11-CUDA-11.7.0/Gaussian/g16c01-CUDA-11.7.0/g16/l302.exe)
 NPDir=0 NMtPBC=     1 NCelOv=     1 NCel=       1 NClECP=     1 NCelD=      1
         NCelK=      1 NCelE2=     1 NClLst=     1 CellRange=     0.0.
 One-electron integrals computed using PRISM.
   1 Symmetry operations used in ECPInt.
 ECPInt:  NShTT=    4753 NPrTT=   15592 LenC2=    4578 LenP2D=   11472.
 LDataN:  DoStor=T MaxTD1= 6 Len=  172
 NBasis=   273 RedAO= T EigKep=  8.04D-04  NBF=   273
 NBsUse=   273 1.00D-06 EigRej= -1.00D+00 NBFU=   273
 Precomputing XC quadrature grid using
 IXCGrd= 4 IRadAn=           5 IRanWt=          -1 IRanGd=           0 AccXCQ= 0.00D+00.
 Generated NRdTot=       0 NPtTot=           0 NUsed=           0 NTot=          32
 NSgBfM=   312   312   312   312   312 MxSgAt=     9 MxSgA2=     9.
 Leave Link  302 at Sun May 25 05:11:44 2025, MaxMem=  3758096384 cpu:               0.6 elap:               0.1
 (Enter /apps/easybuild-2022/easybuild/software/Compiler/NVHPC/22.11-CUDA-11.7.0/Gaussian/g16c01-CUDA-11.7.0/g16/l303.exe)
 DipDrv:  MaxL=1.
 Leave Link  303 at Sun May 25 05:11:44 2025, MaxMem=  3758096384 cpu:               0.1 elap:               0.0
 (Enter /apps/easybuild-2022/easybuild/software/Compiler/NVHPC/22.11-CUDA-11.7.0/Gaussian/g16c01-CUDA-11.7.0/g16/l401.exe)
 ExpMin= 9.52D-02 ExpMax= 6.07D+04 ExpMxC= 2.07D+03 IAcc=3 IRadAn=         5 AccDes= 0.00D+00
 Harris functional with IExCor= 1009 and IRadAn=       5 diagonalized for initial guess.
 HarFok:  IExCor= 1009 AccDes= 0.00D+00 IRadAn=         5 IDoV= 1 UseB2=F ITyADJ=14
 ICtDFT=  3500011 ScaDFX=  1.000000  1.000000  1.000000  1.000000
 FoFCou: FMM=F IPFlag=           0 FMFlag=      100000 FMFlg1=           0
         NFxFlg=           0 DoJE=T BraDBF=F KetDBF=T FulRan=T
         wScrn=  0.000000 ICntrl=       500 IOpCl=  0 I1Cent=   200000004 NGrid=           0
         NMat0=    1 NMatS0=      1 NMatT0=    0 NMatD0=    1 NMtDS0=    0 NMtDT0=    0
 Symmetry not used in FoFCou.
 Harris En= -961.651266839179    
 JPrj=0 DoOrth=F DoCkMO=F.
 Leave Link  401 at Sun May 25 05:11:45 2025, MaxMem=  3758096384 cpu:               2.7 elap:               0.4
 (Enter /apps/easybuild-2022/easybuild/software/Compiler/NVHPC/22.11-CUDA-11.7.0/Gaussian/g16c01-CUDA-11.7.0/g16/l502.exe)
 Keep R1 ints in memory in canonical form, NReq=715214082.
 FoFCou: FMM=F IPFlag=           0 FMFlag=           0 FMFlg1=           0
         NFxFlg=           0 DoJE=F BraDBF=F KetDBF=F FulRan=T
         wScrn=  0.000000 ICntrl=       600 IOpCl=  0 I1Cent=           0 NGrid=           0
         NMat0=    1 NMatS0=  37401 NMatT0=    0 NMatD0=    1 NMtDS0=    0 NMtDT0=    0
 Symmetry not used in FoFCou.
 Two-electron integral symmetry not used.
 Closed shell SCF:
 Using DIIS extrapolation, IDIIS=  1040.
 NGot=  3758096384 LenX=  3058457086 LenY=  3058357420
 Requested convergence on RMS density matrix=1.00D-08 within  32 cycles.
 Requested convergence on MAX density matrix=1.00D-06.
 Requested convergence on             energy=1.00D-06.
 No special actions if energy rises.
 Integral accuracy reduced to 1.0D-05 until final iterations.

 Cycle   1  Pass 0  IDiag  1:
 E= -961.718498923320    
 DIIS: error= 3.40D-02 at cycle   1 NSaved=   1.
 NSaved= 1 IEnMin= 1 EnMin= -961.718498923320     IErMin= 1 ErrMin= 3.40D-02
 ErrMax= 3.40D-02  0.00D+00 EMaxC= 1.00D-01 BMatC= 5.77D-01 BMatP= 5.77D-01
 IDIUse=3 WtCom= 6.60D-01 WtEn= 3.40D-01
 Coeff-Com:  0.100D+01
 Coeff-En:   0.100D+01
 Coeff:      0.100D+01
 Gap=     0.249 Goal=   None    Shift=    0.000
 GapD=    0.249 DampG=1.000 DampE=0.500 DampFc=0.5000 IDamp=-1.
 Damping current iteration by 5.00D-01
 RMSDP=3.45D-03 MaxDP=2.56D-01              OVMax= 3.22D-01

 Cycle   2  Pass 0  IDiag  1:
 E= -961.817215335143     Delta-E=       -0.098716411823 Rises=F Damp=T
 DIIS: error= 7.63D-03 at cycle   2 NSaved=   2.
 NSaved= 2 IEnMin= 2 EnMin= -961.817215335143     IErMin= 2 ErrMin= 7.63D-03
 ErrMax= 7.63D-03  0.00D+00 EMaxC= 1.00D-01 BMatC= 5.59D-02 BMatP= 5.77D-01
 IDIUse=3 WtCom= 9.24D-01 WtEn= 7.63D-02
 Coeff-Com:  0.140D+00 0.860D+00
 Coeff-En:   0.322D+00 0.678D+00
 Coeff:      0.153D+00 0.847D+00
 Gap=     0.288 Goal=   None    Shift=    0.000
 RMSDP=7.30D-04 MaxDP=5.23D-02 DE=-9.87D-02 OVMax= 1.97D-01

 Cycle   3  Pass 0  IDiag  1:
 E= -962.040812883487     Delta-E=       -0.223597548344 Rises=F Damp=F
 DIIS: error= 3.96D-03 at cycle   3 NSaved=   3.
 NSaved= 3 IEnMin= 3 EnMin= -962.040812883487     IErMin= 3 ErrMin= 3.96D-03
 ErrMax= 3.96D-03  0.00D+00 EMaxC= 1.00D-01 BMatC= 8.73D-03 BMatP= 5.59D-02
 IDIUse=3 WtCom= 9.60D-01 WtEn= 3.96D-02
 Coeff-Com: -0.413D-01 0.208D+00 0.833D+00
 Coeff-En:   0.000D+00 0.000D+00 0.100D+01
 Coeff:     -0.397D-01 0.200D+00 0.840D+00
 Gap=     0.286 Goal=   None    Shift=    0.000
 RMSDP=3.14D-04 MaxDP=2.12D-02 DE=-2.24D-01 OVMax= 3.00D-02

 Cycle   4  Pass 0  IDiag  1:
 E= -962.045910914054     Delta-E=       -0.005098030567 Rises=F Damp=F
 DIIS: error= 1.68D-03 at cycle   4 NSaved=   4.
 NSaved= 4 IEnMin= 4 EnMin= -962.045910914054     IErMin= 4 ErrMin= 1.68D-03
 ErrMax= 1.68D-03  0.00D+00 EMaxC= 1.00D-01 BMatC= 2.28D-03 BMatP= 8.73D-03
 IDIUse=3 WtCom= 9.83D-01 WtEn= 1.68D-02
 Coeff-Com: -0.268D-01 0.603D-01 0.415D+00 0.551D+00
 Coeff-En:   0.000D+00 0.000D+00 0.849D-01 0.915D+00
 Coeff:     -0.264D-01 0.593D-01 0.410D+00 0.557D+00
 Gap=     0.289 Goal=   None    Shift=    0.000
 RMSDP=1.01D-04 MaxDP=3.79D-03 DE=-5.10D-03 OVMax= 8.53D-03

 Cycle   5  Pass 0  IDiag  1:
 E= -962.047272806009     Delta-E=       -0.001361891955 Rises=F Damp=F
 DIIS: error= 4.47D-04 at cycle   5 NSaved=   5.
 NSaved= 5 IEnMin= 5 EnMin= -962.047272806009     IErMin= 5 ErrMin= 4.47D-04
 ErrMax= 4.47D-04  0.00D+00 EMaxC= 1.00D-01 BMatC= 1.72D-04 BMatP= 2.28D-03
 IDIUse=3 WtCom= 9.96D-01 WtEn= 4.47D-03
 Coeff-Com: -0.741D-02 0.829D-02 0.939D-01 0.251D+00 0.655D+00
 Coeff-En:   0.000D+00 0.000D+00 0.000D+00 0.000D+00 0.100D+01
 Coeff:     -0.738D-02 0.825D-02 0.935D-01 0.249D+00 0.656D+00
 Gap=     0.290 Goal=   None    Shift=    0.000
 RMSDP=3.22D-05 MaxDP=1.29D-03 DE=-1.36D-03 OVMax= 3.33D-03

 Cycle   6  Pass 0  IDiag  1:
 E= -962.047390457101     Delta-E=       -0.000117651092 Rises=F Damp=F
 DIIS: error= 1.28D-04 at cycle   6 NSaved=   6.
 NSaved= 6 IEnMin= 6 EnMin= -962.047390457101     IErMin= 6 ErrMin= 1.28D-04
 ErrMax= 1.28D-04  0.00D+00 EMaxC= 1.00D-01 BMatC= 1.81D-05 BMatP= 1.72D-04
 IDIUse=3 WtCom= 9.99D-01 WtEn= 1.28D-03
 Coeff-Com: -0.131D-02-0.123D-02 0.282D-02 0.635D-01 0.297D+00 0.639D+00
 Coeff-En:   0.000D+00 0.000D+00 0.000D+00 0.000D+00 0.000D+00 0.100D+01
 Coeff:     -0.131D-02-0.123D-02 0.281D-02 0.634D-01 0.296D+00 0.640D+00
 Gap=     0.290 Goal=   None    Shift=    0.000
 RMSDP=1.21D-05 MaxDP=4.40D-04 DE=-1.18D-04 OVMax= 1.09D-03

 Cycle   7  Pass 0  IDiag  1:
 E= -962.047404506050     Delta-E=       -0.000014048948 Rises=F Damp=F
 DIIS: error= 5.14D-05 at cycle   7 NSaved=   7.
 NSaved= 7 IEnMin= 7 EnMin= -962.047404506050     IErMin= 7 ErrMin= 5.14D-05
 ErrMax= 5.14D-05  0.00D+00 EMaxC= 1.00D-01 BMatC= 2.50D-06 BMatP= 1.81D-05
 IDIUse=1 WtCom= 1.00D+00 WtEn= 0.00D+00
 Coeff-Com:  0.803D-03-0.197D-02-0.200D-01-0.237D-01-0.198D-02 0.269D+00
 Coeff-Com:  0.777D+00
 Coeff:      0.803D-03-0.197D-02-0.200D-01-0.237D-01-0.198D-02 0.269D+00
 Coeff:      0.777D+00
 Gap=     0.291 Goal=   None    Shift=    0.000
 RMSDP=6.31D-06 MaxDP=2.63D-04 DE=-1.40D-05 OVMax= 7.07D-04

 Initial convergence to 1.0D-05 achieved.  Increase integral accuracy.
 Cycle   8  Pass 1  IDiag  1:
 E= -962.047378046355     Delta-E=        0.000026459695 Rises=F Damp=F
 DIIS: error= 2.18D-05 at cycle   1 NSaved=   1.
 NSaved= 1 IEnMin= 1 EnMin= -962.047378046355     IErMin= 1 ErrMin= 2.18D-05
 ErrMax= 2.18D-05  0.00D+00 EMaxC= 1.00D-01 BMatC= 4.53D-07 BMatP= 4.53D-07
 IDIUse=1 WtCom= 1.00D+00 WtEn= 0.00D+00
 Coeff-Com:  0.100D+01
 Coeff:      0.100D+01
 Gap=     0.291 Goal=   None    Shift=    0.000
 RMSDP=6.31D-06 MaxDP=2.63D-04 DE= 2.65D-05 OVMax= 2.20D-04

 Cycle   9  Pass 1  IDiag  1:
 E= -962.047378374042     Delta-E=       -0.000000327687 Rises=F Damp=F
 DIIS: error= 1.28D-05 at cycle   2 NSaved=   2.
 NSaved= 2 IEnMin= 2 EnMin= -962.047378374042     IErMin= 2 ErrMin= 1.28D-05
 ErrMax= 1.28D-05  0.00D+00 EMaxC= 1.00D-01 BMatC= 1.66D-07 BMatP= 4.53D-07
 IDIUse=1 WtCom= 1.00D+00 WtEn= 0.00D+00
 Coeff-Com:  0.324D+00 0.676D+00
 Coeff:      0.324D+00 0.676D+00
 Gap=     0.291 Goal=   None    Shift=    0.000
 RMSDP=1.25D-06 MaxDP=5.76D-05 DE=-3.28D-07 OVMax= 1.19D-04

 Cycle  10  Pass 1  IDiag  1:
 E= -962.047378450508     Delta-E=       -0.000000076466 Rises=F Damp=F
 DIIS: error= 8.46D-06 at cycle   3 NSaved=   3.
 NSaved= 3 IEnMin= 3 EnMin= -962.047378450508     IErMin= 3 ErrMin= 8.46D-06
 ErrMax= 8.46D-06  0.00D+00 EMaxC= 1.00D-01 BMatC= 6.20D-08 BMatP= 1.66D-07
 IDIUse=1 WtCom= 1.00D+00 WtEn= 0.00D+00
 Coeff-Com: -0.127D-01 0.371D+00 0.642D+00
 Coeff:     -0.127D-01 0.371D+00 0.642D+00
 Gap=     0.291 Goal=   None    Shift=    0.000
 RMSDP=6.13D-07 MaxDP=2.88D-05 DE=-7.65D-08 OVMax= 7.04D-05

 Cycle  11  Pass 1  IDiag  1:
 E= -962.047378493690     Delta-E=       -0.000000043182 Rises=F Damp=F
 DIIS: error= 2.13D-06 at cycle   4 NSaved=   4.
 NSaved= 4 IEnMin= 4 EnMin= -962.047378493690     IErMin= 4 ErrMin= 2.13D-06
 ErrMax= 2.13D-06  0.00D+00 EMaxC= 1.00D-01 BMatC= 3.39D-09 BMatP= 6.20D-08
 IDIUse=1 WtCom= 1.00D+00 WtEn= 0.00D+00
 Coeff-Com: -0.289D-01 0.111D+00 0.277D+00 0.642D+00
 Coeff:     -0.289D-01 0.111D+00 0.277D+00 0.642D+00
 Gap=     0.291 Goal=   None    Shift=    0.000
 RMSDP=1.81D-07 MaxDP=7.24D-06 DE=-4.32D-08 OVMax= 1.72D-05

 Cycle  12  Pass 1  IDiag  1:
 E= -962.047378496605     Delta-E=       -0.000000002915 Rises=F Damp=F
 DIIS: error= 7.65D-07 at cycle   5 NSaved=   5.
 NSaved= 5 IEnMin= 5 EnMin= -962.047378496605     IErMin= 5 ErrMin= 7.65D-07
 ErrMax= 7.65D-07  0.00D+00 EMaxC= 1.00D-01 BMatC= 3.93D-10 BMatP= 3.39D-09
 IDIUse=1 WtCom= 1.00D+00 WtEn= 0.00D+00
 Coeff-Com: -0.829D-02-0.130D-01 0.103D-01 0.237D+00 0.774D+00
 Coeff:     -0.829D-02-0.130D-01 0.103D-01 0.237D+00 0.774D+00
 Gap=     0.291 Goal=   None    Shift=    0.000
 RMSDP=7.42D-08 MaxDP=2.06D-06 DE=-2.91D-09 OVMax= 9.51D-06

 Cycle  13  Pass 1  IDiag  1:
 E= -962.047378497076     Delta-E=       -0.000000000471 Rises=F Damp=F
 DIIS: error= 2.79D-07 at cycle   6 NSaved=   6.
 NSaved= 6 IEnMin= 6 EnMin= -962.047378497076     IErMin= 6 ErrMin= 2.79D-07
 ErrMax= 2.79D-07  0.00D+00 EMaxC= 1.00D-01 BMatC= 7.25D-11 BMatP= 3.93D-10
 IDIUse=1 WtCom= 1.00D+00 WtEn= 0.00D+00
 Coeff-Com:  0.270D-02-0.291D-01-0.534D-01-0.367D-01 0.330D+00 0.787D+00
 Coeff:      0.270D-02-0.291D-01-0.534D-01-0.367D-01 0.330D+00 0.787D+00
 Gap=     0.291 Goal=   None    Shift=    0.000
 RMSDP=4.18D-08 MaxDP=2.19D-06 DE=-4.71D-10 OVMax= 4.11D-06

 Cycle  14  Pass 1  IDiag  1:
 E= -962.047378497145     Delta-E=       -0.000000000069 Rises=F Damp=F
 DIIS: error= 1.26D-07 at cycle   7 NSaved=   7.
 NSaved= 7 IEnMin= 7 EnMin= -962.047378497145     IErMin= 7 ErrMin= 1.26D-07
 ErrMax= 1.26D-07  0.00D+00 EMaxC= 1.00D-01 BMatC= 5.09D-12 BMatP= 7.25D-11
 IDIUse=1 WtCom= 1.00D+00 WtEn= 0.00D+00
 Coeff-Com:  0.134D-02-0.989D-02-0.190D-01-0.262D-01 0.762D-01 0.299D+00
 Coeff-Com:  0.679D+00
 Coeff:      0.134D-02-0.989D-02-0.190D-01-0.262D-01 0.762D-01 0.299D+00
 Coeff:      0.679D+00
 Gap=     0.291 Goal=   None    Shift=    0.000
 RMSDP=7.40D-09 MaxDP=6.67D-07 DE=-6.89D-11 OVMax= 6.73D-07

 SCF Done:  E(RM062X) =  -962.047378497     A.U. after   14 cycles
            NFock= 14  Conv=0.74D-08     -V/T= 2.0027
 KE= 9.594839391888D+02 PE=-3.391890824431D+03 EE= 9.151269717056D+02
 Leave Link  502 at Sun May 25 05:11:59 2025, MaxMem=  3758096384 cpu:              70.2 elap:              14.9
 (Enter /apps/easybuild-2022/easybuild/software/Compiler/NVHPC/22.11-CUDA-11.7.0/Gaussian/g16c01-CUDA-11.7.0/g16/l508.exe)
 QCSCF skips out because SCF is already converged.
 Leave Link  508 at Sun May 25 05:11:59 2025, MaxMem=  3758096384 cpu:               0.0 elap:               0.0
 (Enter /apps/easybuild-2022/easybuild/software/Compiler/NVHPC/22.11-CUDA-11.7.0/Gaussian/g16c01-CUDA-11.7.0/g16/l801.exe)
 DoSCS=F DFT=T ScalE2(SS,OS)=  1.000000  1.000000
 Range of M.O.s used for correlation:     1   273
 NBasis=   273 NAE=    37 NBE=    37 NFC=     0 NFV=     0
 NROrb=    273 NOA=    37 NOB=    37 NVA=   236 NVB=   236

 **** Warning!!: The largest alpha MO coefficient is  0.12681445D+02

 Leave Link  801 at Sun May 25 05:12:00 2025, MaxMem=  3758096384 cpu:               0.0 elap:               0.0
 (Enter /apps/easybuild-2022/easybuild/software/Compiler/NVHPC/22.11-CUDA-11.7.0/Gaussian/g16c01-CUDA-11.7.0/g16/l1101.exe)
 Using compressed storage, NAtomX=     9.
 Will process     10 centers per pass.
   1 Symmetry operations used in ECPInt.
 ECPInt:  NShTT=    4753 NPrTT=   15592 LenC2=    4578 LenP2D=   11472.
 LDataN:  DoStor=T MaxTD1= 7 Len=  274
 Leave Link 1101 at Sun May 25 05:12:00 2025, MaxMem=  3758096384 cpu:               0.7 elap:               0.1
 (Enter /apps/easybuild-2022/easybuild/software/Compiler/NVHPC/22.11-CUDA-11.7.0/Gaussian/g16c01-CUDA-11.7.0/g16/l1102.exe)
 Symmetrizing basis deriv contribution to polar:
 IMax=3 JMax=2 DiffMx= 0.00D+00
 Leave Link 1102 at Sun May 25 05:12:00 2025, MaxMem=  3758096384 cpu:               0.1 elap:               0.0
 (Enter /apps/easybuild-2022/easybuild/software/Compiler/NVHPC/22.11-CUDA-11.7.0/Gaussian/g16c01-CUDA-11.7.0/g16/l1110.exe)
 Forming Gx(P) for the SCF density, NAtomX=     9.
 Integral derivatives from FoFJK, PRISM(SPDF).
 Do as many integral derivatives as possible in FoFJK.
 G2DrvN: MDV=    3758095321.
 G2DrvN: will do    10 centers at a time, making    1 passes.
 Calling FoFCou, ICntrl=  3107 FMM=F I1Cent=   0 AccDes= 0.00D+00.
 FoFJK:  IHMeth= 1 ICntrl=    3107 DoSepK=F KAlg= 0 I1Cent=           0 FoldK=F
 IRaf=         0 NMat=       1 IRICut=       1 DoRegI=T DoRafI=F ISym2E= 0 IDoP0=0 IntGTp=1.
 FoFCou: FMM=F IPFlag=           0 FMFlag=      100000 FMFlg1=           0
         NFxFlg=           0 DoJE=F BraDBF=F KetDBF=F FulRan=T
         wScrn=  0.000000 ICntrl=      3107 IOpCl=  0 I1Cent=           0 NGrid=           0
         NMat0=    1 NMatS0=      1 NMatT0=    0 NMatD0=    1 NMtDS0=    0 NMtDT0=    0
 Symmetry not used in FoFCou.
 End of G2Drv F.D. properties file   721 does not exist.
 End of G2Drv F.D. properties file   722 does not exist.
 End of G2Drv F.D. properties file   788 does not exist.
 Leave Link 1110 at Sun May 25 05:12:23 2025, MaxMem=  3758096384 cpu:             187.6 elap:              23.7
 (Enter /apps/easybuild-2022/easybuild/software/Compiler/NVHPC/22.11-CUDA-11.7.0/Gaussian/g16c01-CUDA-11.7.0/g16/l1002.exe)
 Minotr:  Closed shell wavefunction.
          IDoAtm=111111111
          Direct CPHF calculation.
          Differentiating once with respect to nuclear coordinates.
          Requested convergence is 1.0D-08 RMS, and 1.0D-07 maximum.
          Secondary convergence is 1.0D-12 RMS, and 1.0D-12 maximum.
          NewPWx=T KeepS1=F KeepF1=F KeepIn=T MapXYZ=F SortEE=F KeepMc=T.
         2683 words used for storage of precomputed grid.
 Keep R1 ints in memory in canonical form, NReq=715218544.
 FoFCou: FMM=F IPFlag=           0 FMFlag=           0 FMFlg1=           0
         NFxFlg=           0 DoJE=F BraDBF=F KetDBF=F FulRan=T
         wScrn=  0.000000 ICntrl=       600 IOpCl=  0 I1Cent=           0 NGrid=           0
         NMat0=    1 NMatS0=  37401 NMatT0=    0 NMatD0=    1 NMtDS0=    0 NMtDT0=    0
 Symmetry not used in FoFCou.
 Two-electron integral symmetry not used.
          MDV=    3758096384 using IRadAn=       1.
          Solving linear equations simultaneously, MaxMat=       0.
          There are    30 degrees of freedom in the 1st order CPHF.  IDoFFX=6 NUNeed=     0.
     24 vectors produced by pass  0 Test12= 2.91D-14 3.33D-09 XBig12= 2.24D-01 1.26D-01.
 AX will form    24 AO Fock derivatives at one time.
     24 vectors produced by pass  1 Test12= 2.91D-14 3.33D-09 XBig12= 3.76D-02 9.55D-02.
     24 vectors produced by pass  2 Test12= 2.91D-14 3.33D-09 XBig12= 1.89D-03 1.28D-02.
     24 vectors produced by pass  3 Test12= 2.91D-14 3.33D-09 XBig12= 4.89D-05 2.06D-03.
     24 vectors produced by pass  4 Test12= 2.91D-14 3.33D-09 XBig12= 7.87D-07 1.47D-04.
     24 vectors produced by pass  5 Test12= 2.91D-14 3.33D-09 XBig12= 8.84D-09 1.51D-05.
     24 vectors produced by pass  6 Test12= 2.91D-14 3.33D-09 XBig12= 7.68D-11 1.23D-06.
     19 vectors produced by pass  7 Test12= 2.91D-14 3.33D-09 XBig12= 4.65D-13 9.61D-08.
      4 vectors produced by pass  8 Test12= 2.91D-14 3.33D-09 XBig12= 2.68D-15 7.80D-09.
 InvSVY:  IOpt=1 It=  1 EMax= 1.67D-15
 Solved reduced A of dimension   191 with    24 vectors.
 End of Minotr F.D. properties file   721 does not exist.
 End of Minotr F.D. properties file   722 does not exist.
 End of Minotr F.D. properties file   788 does not exist.
 Leave Link 1002 at Sun May 25 05:12:55 2025, MaxMem=  3758096384 cpu:             245.0 elap:              31.2
 (Enter /apps/easybuild-2022/easybuild/software/Compiler/NVHPC/22.11-CUDA-11.7.0/Gaussian/g16c01-CUDA-11.7.0/g16/l701.exe)
 ... and contract with generalized density number  0.
 Compute integral second derivatives.
   1 Symmetry operations used in ECPInt.
 ECPInt:  NShTT=    4753 NPrTT=   15592 LenC2=    4578 LenP2D=   11472.
 LDataN:  DoStor=T MaxTD1= 8 Len=  415
 Leave Link  701 at Sun May 25 05:12:55 2025, MaxMem=  3758096384 cpu:               0.7 elap:               0.1
 (Enter /apps/easybuild-2022/easybuild/software/Compiler/NVHPC/22.11-CUDA-11.7.0/Gaussian/g16c01-CUDA-11.7.0/g16/l702.exe)
 L702 exits ... SP integral derivatives will be done elsewhere.
 Leave Link  702 at Sun May 25 05:12:55 2025, MaxMem=  3758096384 cpu:               0.0 elap:               0.0
 (Enter /apps/easybuild-2022/easybuild/software/Compiler/NVHPC/22.11-CUDA-11.7.0/Gaussian/g16c01-CUDA-11.7.0/g16/l703.exe)
 Integral derivatives from FoFJK, PRISM(SPDF).
 Compute integral second derivatives, UseDBF=F ICtDFT=           0.
 Calling FoFJK, ICntrl=    100127 FMM=F ISym2X=0 I1Cent= 0 IOpClX= 0 NMat=1 NMatS=1 NMatT=0.
 FoFJK:  IHMeth= 1 ICntrl=  100127 DoSepK=F KAlg= 0 I1Cent=           0 FoldK=F
 IRaf=         0 NMat=       1 IRICut=       1 DoRegI=T DoRafI=F ISym2E= 0 IDoP0=0 IntGTp=1.
 FoFCou: FMM=F IPFlag=           0 FMFlag=      100000 FMFlg1=         800
         NFxFlg=           0 DoJE=F BraDBF=F KetDBF=F FulRan=T
         wScrn=  0.000000 ICntrl=    100127 IOpCl=  0 I1Cent=           0 NGrid=           0
         NMat0=    1 NMatS0=      1 NMatT0=    0 NMatD0=    1 NMtDS0=    0 NMtDT0=    0
 Symmetry not used in FoFCou.
 Leave Link  703 at Sun May 25 05:13:48 2025, MaxMem=  3758096384 cpu:             421.6 elap:              53.1
 (Enter /apps/easybuild-2022/easybuild/software/Compiler/NVHPC/22.11-CUDA-11.7.0/Gaussian/g16c01-CUDA-11.7.0/g16/l716.exe)
 Dipole        =-3.19201728D-01-1.38064325D+00 4.32792862D-02
 Polarizability= 0.00000000D+00 0.00000000D+00 0.00000000D+00
                 0.00000000D+00 0.00000000D+00 0.00000000D+00
 -------------------------------------------------------------------
 Center     Atomic                   Forces (Hartrees/Bohr)
 Number     Number              X              Y              Z
 -------------------------------------------------------------------
      1        6           0.000017148    0.000003884   -0.000001525
      2        9          -0.000106490   -0.000020347   -0.000015698
      3        9           0.000009599   -0.000012305   -0.000002697
      4        9           0.000026509   -0.000010705   -0.000007218
      5       16           0.000030039    0.000010998    0.000002034
      6        8           0.000016512   -0.000001195   -0.000012133
      7        8          -0.000005301    0.000007167    0.000005745
      8        8           0.000012260   -0.000001372    0.000018898
      9        1          -0.000000277    0.000023874    0.000012593
 -------------------------------------------------------------------
 Cartesian Forces:  Max     0.000106490 RMS     0.000024519
 Force constants in Cartesian coordinates: 
                1             2             3             4             5 
      1  0.133266D+00
      2  0.666105D-01  0.637221D+00
      3  0.298589D-01 -0.380917D-02  0.712226D+00
      4  0.103904D-01 -0.282967D-01 -0.461122D-02  0.668212D-01
      5 -0.307197D-01 -0.305766D-02  0.255657D-02  0.119105D+00  0.370857D+00
      6 -0.889547D-02  0.430843D-02 -0.117623D-01  0.465074D-01  0.133323D+00
      7 -0.437588D-01 -0.730658D-02 -0.453661D-02 -0.797505D-02  0.116521D-01
      8 -0.168337D-01 -0.286269D+00  0.201854D+00  0.948898D-02 -0.618710D-03
      9  0.853193D-02  0.206100D+00 -0.304319D+00 -0.100182D-01  0.455745D-02
     10 -0.482551D-01 -0.280525D-01 -0.259719D-01 -0.338269D-02  0.959960D-02
     11 -0.313195D-01 -0.242005D+00 -0.194206D+00  0.769961D-02  0.606842D-03
     12 -0.376886D-01 -0.202871D+00 -0.354610D+00  0.117708D-01 -0.555584D-02
     13 -0.387577D-01 -0.101842D-01  0.545222D-02 -0.944572D-02  0.203488D-01
     14 -0.251050D-01 -0.976082D-01 -0.122499D-02  0.164880D-01 -0.287071D-01
     15 -0.262868D-03  0.423424D-02 -0.134266D-01 -0.480445D-02 -0.201974D-01
     16 -0.143973D-01  0.566269D-02 -0.140417D-01 -0.383512D-02 -0.476194D-02
     17 -0.162976D-01  0.776029D-02 -0.616837D-02 -0.624625D-02  0.705446D-02
     18 -0.788211D-02  0.401238D-02 -0.571042D-02 -0.155260D-02  0.219606D-02
     19  0.473037D-02 -0.266332D-02  0.490885D-02  0.141238D-02 -0.227173D-02
     20  0.193839D-02 -0.390614D-02  0.223352D-01 -0.406471D-02  0.411012D-02
     21 -0.494132D-02 -0.652076D-02 -0.195038D-01  0.438822D-02  0.343022D-02
     22 -0.195302D-01 -0.434631D-02  0.673557D-02 -0.939483D-02 -0.545176D-01
     23  0.219800D-01 -0.445051D-02 -0.161095D-01 -0.169495D-01 -0.206923D-01
     24  0.109061D-01 -0.882459D-03 -0.618466D-02 -0.457623D-02  0.378316D-03
     25  0.163119D-01  0.857646D-02  0.220598D-02 -0.445906D-01 -0.684343D-01
     26  0.297465D-01 -0.768587D-02 -0.522793D-02 -0.972241D-01 -0.329552D+00
     27  0.103735D-01 -0.457194D-02  0.329037D-02 -0.371038D-01 -0.120689D+00
                6             7             8             9            10 
      6  0.700704D-01
      7 -0.507641D-02  0.292418D-01
      8  0.544779D-03 -0.141906D-02  0.239080D+00
      9  0.325728D-02  0.128250D-01 -0.225444D+00  0.418689D+00
     10  0.799344D-02  0.126477D-01  0.375793D-02 -0.634316D-02  0.280188D-01
     11 -0.143591D-02  0.351587D-02  0.405522D-01  0.166523D-01  0.176141D-01
     12 -0.109105D-02 -0.542670D-02  0.133677D-02 -0.114681D+00  0.280487D-01
     13  0.809328D-02  0.131547D-01  0.110027D-01 -0.744921D-02  0.195834D-01
     14 -0.117127D-01 -0.457523D-03  0.288297D-01 -0.731846D-02  0.154656D-02
     15 -0.101043D-01  0.215781D-02  0.314589D-01 -0.103745D-01 -0.288016D-02
     16 -0.917436D-03  0.283933D-03 -0.563648D-02  0.311653D-02 -0.226992D-02
     17  0.293780D-02  0.243503D-02 -0.203589D-02 -0.249412D-03  0.370863D-02
     18  0.161155D-02  0.705880D-03 -0.687103D-02  0.372225D-02  0.198367D-03
     19 -0.588121D-03 -0.140768D-02 -0.372955D-02  0.159125D-02 -0.222939D-02
     20  0.155439D-02 -0.154650D-02 -0.132127D-01  0.317849D-02 -0.317140D-03
     21  0.308681D-02  0.179870D-02  0.358495D-02  0.197884D-02  0.113042D-02
     22 -0.210083D-01  0.154939D-02  0.501942D-02 -0.126242D-02  0.699636D-03
     23 -0.992357D-02 -0.375927D-02 -0.408273D-02  0.318651D-02 -0.509501D-02
     24  0.698041D-02 -0.147562D-02 -0.747988D-02  0.370835D-02 -0.130262D-02
     25 -0.261084D-01 -0.373595D-02 -0.165023D-02 -0.991772D-03 -0.481238D-02
     26 -0.119596D+00 -0.311411D-02 -0.224328D-02 -0.662977D-03 -0.276217D-02
     27 -0.620488D-01 -0.972086D-03  0.101533D-02 -0.198134D-02 -0.873048D-03
               11            12            13            14            15 
     11  0.191465D+00
     12  0.200545D+00  0.475548D+00
     13  0.982710D-02  0.624728D-02  0.104024D+01
     14  0.333369D-01  0.143944D-01 -0.179882D+00  0.374338D+00
     15 -0.242629D-01 -0.164099D-01  0.325359D-01 -0.100576D+00  0.116267D+01
     16 -0.911209D-02 -0.222268D-02 -0.520673D+00  0.639533D-01 -0.246014D+00
     17 -0.824598D-02 -0.411813D-02  0.398580D-01 -0.904015D-01  0.297830D-01
     18 -0.149526D-02  0.175814D-02 -0.247408D+00  0.376486D-01 -0.234547D+00
     19 -0.200177D-03 -0.343040D-03 -0.924232D-01  0.932540D-03  0.594271D-02
     20 -0.153956D-02 -0.314935D-04  0.106176D-02 -0.114964D+00  0.144745D+00
     21  0.780172D-02  0.873360D-02  0.246275D-02  0.135572D+00 -0.657229D+00
     22  0.501812D-02 -0.451947D-03 -0.378556D+00  0.108459D+00  0.193094D+00
     23 -0.115030D-01 -0.509164D-02  0.134387D+00 -0.139196D+00 -0.899130D-01
     24 -0.210446D-02  0.134486D-02  0.202837D+00 -0.793884D-01 -0.234174D+00
     25 -0.304309D-02  0.661768D-04 -0.331211D-01  0.140651D-01  0.202309D-01
     26 -0.266725D-02  0.139179D-02 -0.264190D-01  0.343728D-01  0.247277D-01
     27 -0.149445D-02 -0.593300D-03 -0.277172D-02  0.126054D-01  0.135928D-01
               16            17            18            19            20 
     16  0.566973D+00
     17 -0.598454D-01  0.564240D-01
     18  0.275837D+00 -0.345708D-01  0.234695D+00
     19  0.523826D-02  0.139489D-01 -0.424452D-01  0.778753D-01
     20 -0.779431D-03  0.193828D-01  0.625395D-02 -0.460948D-02  0.941820D-01
     21  0.946668D-03  0.109729D-01 -0.169494D-01 -0.872620D-02 -0.160699D+00
     22 -0.361289D-01  0.268392D-01  0.238773D-01  0.416209D-02  0.102633D-01
     23  0.445723D-02  0.191309D-01 -0.363882D-02 -0.474644D-02  0.209377D-01
     24 -0.177719D-01  0.436982D-02  0.172598D-01  0.396507D-01 -0.151153D-01
     25  0.480931D-02 -0.440059D-02 -0.133079D-02  0.264194D-02 -0.194621D-02
     26  0.606209D-02 -0.906915D-02 -0.353503D-02  0.333930D-02 -0.498984D-02
     27  0.106733D-02 -0.295676D-02 -0.183955D-02  0.902682D-05 -0.222121D-02
               21            22            23            24            25 
     21  0.707477D+00
     22  0.846289D-02  0.413775D+00
     23  0.107453D-01 -0.136749D+00  0.144695D+00
     24 -0.234800D-01 -0.222493D+00  0.110583D+00  0.249083D+00
     25 -0.552213D-02  0.234241D-01  0.647514D-02 -0.577475D-02  0.390728D-01
     26 -0.488704D-02  0.400137D-01 -0.483920D-02 -0.103604D-01  0.503577D-01
     27 -0.411356D-02  0.130460D-01  0.161925D-03 -0.145379D-01  0.172248D-01
               26            27 
     26  0.326674D+00
     27  0.118150D+00  0.682313D-01
 FormGI is forming the generalized inverse of G from B-inverse, IUseBI=4.
 Force constants in internal coordinates: 
                1             2             3             4             5 
      1  0.570508D+00
      2  0.855156D-01  0.579821D+00
      3 -0.765950D-02 -0.983575D-02  0.915269D-01
      4 -0.107816D-02 -0.485811D-03 -0.715162D-02  0.461342D+00
      5  0.849813D-02  0.445992D-02  0.140074D-01  0.454383D-02  0.729653D+00
      6  0.293111D-02  0.114492D-01  0.746468D-02  0.440814D-02  0.848035D-02
      7  0.210003D-01  0.172472D-01  0.113442D-01 -0.170182D-01  0.133148D-01
      8  0.714611D-02  0.572667D-02 -0.115519D-01  0.771643D-01 -0.841256D-03
      9  0.477354D-01  0.488964D-01  0.143742D-01 -0.785813D-02 -0.793890D-02
     10 -0.104025D-01 -0.370237D-01 -0.893349D-02  0.479505D-02  0.184584D-03
     11 -0.376652D-01 -0.122667D-01 -0.775866D-02  0.589205D-02  0.814409D-02
     12 -0.190727D-01 -0.708058D-02 -0.855352D-02 -0.946447D-02  0.244277D-01
     13  0.124276D-01 -0.151230D-01  0.139148D-01 -0.744887D-03 -0.894617D-02
     14  0.408179D-01  0.562518D-01  0.414049D-01 -0.174645D-02 -0.171251D-01
     15  0.838869D-03 -0.123794D-02 -0.378725D-02 -0.249331D-02  0.723924D-02
     16 -0.918516D-02 -0.782334D-02 -0.962278D-02  0.744275D-02  0.748188D-02
     17 -0.844806D-02 -0.730400D-02 -0.972622D-02  0.114129D-02 -0.140205D-01
     18  0.575870D-01  0.575966D-01 -0.763474D-02  0.466980D-01  0.397729D-02
     19  0.265791D-01  0.262295D-01 -0.174581D-01  0.443079D-01  0.407862D-02
     20  0.745504D-03  0.749785D-02 -0.272869D-02  0.773539D-02 -0.120573D-02
     21 -0.573370D-03  0.675368D-04 -0.544672D-02  0.216456D-02  0.110907D-01
     22  0.532818D-02  0.423793D-02 -0.328046D-03  0.267369D-02 -0.107928D-01
     23 -0.551720D-02  0.142936D-02  0.503025D-02 -0.327959D-02 -0.160836D-02
     24 -0.683608D-02 -0.600095D-02  0.231223D-02 -0.885042D-02  0.106881D-01
     25 -0.934526D-03 -0.183057D-02  0.743090D-02 -0.834130D-02 -0.111954D-01
     26 -0.222248D-01 -0.453577D-02 -0.127179D-01 -0.730792D-02  0.148871D-01
     27 -0.202312D-01 -0.251296D-01 -0.230184D-01  0.256368D-02 -0.578039D-02
     28  0.129472D-01  0.780467D-02  0.241396D-01 -0.883239D-02 -0.932349D-02
     29  0.526777D-03 -0.192334D-03 -0.311137D-02  0.554944D-03  0.111462D-02
                6             7             8             9            10 
      6  0.746993D+00
      7  0.143783D-01  0.679924D+00
      8 -0.762563D-03  0.127531D-01  0.320282D-01
      9 -0.705810D-02 -0.510806D-02  0.214369D-02  0.196827D+00
     10  0.839415D-02 -0.628714D-03 -0.923033D-03 -0.101417D+00  0.102948D+00
     11 -0.831325D-03  0.341413D-02 -0.208340D-02 -0.102152D+00  0.317993D-02
     12 -0.112814D-01 -0.334962D-01  0.243691D-01 -0.114850D-01  0.345797D-02
     13  0.174576D-01 -0.253584D-01  0.119442D-01 -0.818537D-02  0.226631D-01
     14 -0.904495D-02  0.884668D-01 -0.376316D-01  0.111373D-01 -0.271882D-01
     15  0.707302D-02 -0.119388D-01  0.669703D-03  0.265160D-02 -0.128450D-02
     16 -0.143425D-01 -0.905961D-03  0.115308D-02  0.119449D-02 -0.429378D-03
     17  0.833006D-02 -0.682943D-03 -0.174101D-02  0.660574D-03  0.175404D-02
     18  0.991277D-02  0.116397D+00 -0.147855D-01  0.189116D-01 -0.161724D-01
     19  0.766867D-02  0.190428D-01  0.241367D-01  0.471145D-02 -0.560901D-02
     20 -0.885435D-02  0.100657D-01 -0.747152D-02  0.223805D-02 -0.133385D-02
     21 -0.679888D-05 -0.190384D-01  0.353315D-02 -0.520504D-03  0.442418D-02
     22  0.107939D-01 -0.156390D-02 -0.572525D-02  0.114442D-02  0.459843D-02
     23 -0.993399D-02  0.209715D-01 -0.407360D-02 -0.304256D-04 -0.574801D-02
     24 -0.108644D-02 -0.813269D-02  0.693107D-02 -0.278898D-02  0.100182D-04
     25  0.971425D-02  0.934181D-02 -0.232733D-02 -0.112406D-02  0.184275D-03
     26 -0.150895D-01 -0.131546D-01  0.774520D-02 -0.579846D-02 -0.245436D-02
     27  0.660294D-02 -0.228491D-01  0.367472D-04  0.988437D-03  0.856728D-02
     28  0.243868D-02  0.758036D-02 -0.325743D-03 -0.876006D-02  0.886690D-02
     29 -0.162313D-02  0.329530D-02 -0.220527D-03 -0.143009D-02  0.200791D-02
               11            12            13            14            15 
     11  0.103138D+00
     12  0.114671D-01  0.108527D+00
     13 -0.134695D-01  0.373872D-02  0.122656D+00
     14  0.627680D-02 -0.630713D-01 -0.579326D-01  0.328069D+00
     15 -0.207072D-02 -0.192497D-01 -0.148697D-01  0.201245D-01  0.690538D-01
     16  0.758454D-03 -0.197685D-01  0.953990D-02 -0.629912D-01 -0.311340D-01
     17 -0.677820D-03  0.131088D-01 -0.304257D-01 -0.572299D-01 -0.309601D-01
     18 -0.168340D-01 -0.945958D-02 -0.176846D-01  0.151163D+00  0.785252D-02
     19 -0.397398D-02  0.802699D-02  0.104165D-01  0.139639D-01  0.613953D-03
     20  0.320839D-02  0.408788D-02 -0.123169D-01 -0.128039D-01 -0.327426D-01
     21  0.741700D-03  0.164350D-01  0.617702D-02 -0.256060D-01  0.301739D-01
     22 -0.175913D-02  0.134295D-01 -0.965242D-02 -0.864039D-02 -0.561901D-03
     23  0.170559D-02 -0.898328D-02 -0.154587D-01  0.278985D-01 -0.301157D-01
     24 -0.761103D-03  0.336384D-02  0.303518D-02  0.150963D-01  0.328008D-01
     25 -0.326193D-02  0.358339D-03 -0.127943D-01  0.320619D-01  0.206499D-02
     26  0.124887D-01  0.553210D-01 -0.547441D-01 -0.253007D-01 -0.222681D-02
     27 -0.432412D-02 -0.296602D-01 -0.298420D-01 -0.115809D+00  0.170783D-01
     28  0.243225D-03  0.275930D-01  0.456437D-01  0.774978D-01 -0.170541D-01
     29  0.228432D-03  0.100995D-01 -0.106816D-01  0.312139D-02 -0.861791D-04
               16            17            18            19            20 
     16  0.912663D-01
     17 -0.230985D-01  0.907052D-01
     18 -0.384146D-01 -0.301209D-01  0.276626D+00
     19 -0.549797D-02 -0.113541D-01  0.599289D-01  0.889451D-01
     20  0.363669D-01  0.730654D-02 -0.242723D-01 -0.140015D-01  0.360018D-01
     21  0.491968D-03 -0.295861D-01 -0.235377D-01 -0.821838D-02 -0.510215D-03
     22 -0.389344D-01  0.414175D-01 -0.172767D-01 -0.134493D-01  0.300182D-03
     23  0.295668D-01 -0.341133D-03  0.338600D-01  0.638692D-02  0.178071D-01
     24 -0.630811D-02 -0.372337D-01  0.345947D-01  0.121700D-01 -0.187050D-01
     25 -0.457345D-01  0.337698D-01  0.408556D-01  0.693908D-02 -0.178946D-01
     26 -0.370343D-02  0.182340D-01 -0.159325D-01 -0.129737D-01  0.204956D-01
     27  0.294549D-01  0.405803D-01 -0.776877D-01 -0.283933D-01  0.132281D-01
     28 -0.352259D-01 -0.231408D-01  0.407857D-01  0.373742D-02  0.105955D-02
     29 -0.554438D-02  0.438111D-02  0.108939D-01 -0.207531D-02  0.522455D-02
               21            22            23            24            25 
     21  0.376187D-01
     22  0.101624D-02  0.394771D-01
     23 -0.205928D-01 -0.171837D-01  0.355017D-01
     24  0.175360D-01 -0.164677D-01 -0.289824D-02  0.333428D-01
     25 -0.190664D-01  0.219932D-01  0.510861D-03 -0.660946D-03  0.403987D-01
     26  0.195040D-01  0.170607D-01  0.307552D-02  0.208388D-02 -0.359410D-03
     27  0.145045D-01  0.166127D-01 -0.965998D-02 -0.838355D-02 -0.627531D-02
     28  0.346166D-02  0.130388D-01  0.924925D-03  0.332704D-02  0.129041D-01
     29  0.519487D-02  0.784828D-02  0.195111D-02  0.192143D-02  0.457484D-02
               26            27            28            29 
     26  0.736561D-01
     27  0.249092D-01  0.114626D+00
     28  0.109941D-02 -0.637512D-01  0.913728D-01
     29  0.213181D-01  0.946416D-02  0.119865D-01  0.195698D-01
 Leave Link  716 at Sun May 25 05:13:48 2025, MaxMem=  3758096384 cpu:               0.0 elap:               0.0
 (Enter /apps/easybuild-2022/easybuild/software/Compiler/NVHPC/22.11-CUDA-11.7.0/Gaussian/g16c01-CUDA-11.7.0/g16/l103.exe)

 GradGradGradGradGradGradGradGradGradGradGradGradGradGradGradGradGradGrad
 Berny optimization.
 Red2BG is reusing G-inverse.
 Internal  Forces:  Max     0.000342712 RMS     0.000087335
 Search for a local minimum.
 Step number   1 out of a maximum of   39
 All quantities printed in internal units (Hartrees-Bohrs-Radians)
 RMS Force = .87335D-04 SwitMx=.10000D-02 MixMth= 2
 Mixed Optimization -- En-DIIS/RFO-DIIS
 Second derivative matrix not updated -- analytic derivatives used.
 ITU=  0
     Eigenvalues ---   -0.00703   0.00237   0.00851   0.02489   0.04601
     Eigenvalues ---    0.06381   0.07488   0.09945   0.15012   0.16660
     Eigenvalues ---    0.18367   0.21400   0.23457   0.29109   0.46045
     Eigenvalues ---    0.49325   0.49604   0.65838   0.73156   0.75140
     Eigenvalues ---    0.84808
 Eigenvalue     1 is  -7.03D-03 should be greater than     0.000000 Eigenvector:
                          R8        D1        D3        D2        A10
   1                   -0.77727  -0.26536  -0.25216  -0.20100  -0.20049
                          R4        D5        D7        D9        A4
   1                    0.16270   0.16165   0.15929   0.15296   0.12599
 RFO step:  Lambda=-7.02756437D-03 EMin=-7.02509972D-03
 I=     1 Eig=   -7.03D-03 Dot1= -7.89D-05
 I=     1 Stepn= -6.00D-01 RXN=   6.00D-01 EDone=F
 Mixed    1 eigenvectors in step.  Raw Step.Grad=  7.89D-05.
 RFO eigenvector is Hessian eigenvector with negative curvature.
 Taking step of  6.00D-01 in eigenvector direction(s).  Step.Grad= -6.83D-05.
 Linear search not attempted -- first point.
 Maximum step size (   0.300) exceeded in Quadratic search.
    -- Step size not scaled.
 Iteration  1 RMS(Cart)=  0.12622481 RMS(Int)=  0.04728440
 Iteration  2 RMS(Cart)=  0.04448569 RMS(Int)=  0.01013993
 Iteration  3 RMS(Cart)=  0.01151958 RMS(Int)=  0.00214805
 Iteration  4 RMS(Cart)=  0.00003812 RMS(Int)=  0.00214799
 Iteration  5 RMS(Cart)=  0.00000000 RMS(Int)=  0.00214799
 ITry= 1 IFail=0 DXMaxC= 5.84D-01 DCOld= 1.00D+10 DXMaxT= 3.00D-01 DXLimC= 3.00D+00 Rises=F
 Variable       Old X    -DE/DX   Delta X   Delta X   Delta X     New X
                                 (Linear)    (Quad)   (Total)
    R1        2.37575   0.00001   0.00000  -0.01820  -0.01820   2.35755
    R2        2.37039   0.00001   0.00000  -0.01612  -0.01612   2.35427
    R3        3.67899   0.00000   0.00000   0.06430   0.06430   3.74329
    R4        1.81678   0.00005   0.00000  -0.09762  -0.09762   1.71916
    R5        2.68722   0.00001   0.00000   0.00507   0.00507   2.69230
    R6        2.68097  -0.00000   0.00000  -0.00164  -0.00164   2.67932
    R7        2.73205   0.00008   0.00000  -0.03880  -0.03880   2.69325
    R8        3.03895   0.00008   0.00000   0.46636   0.46636   3.50531
    A1        1.96335  -0.00001   0.00000  -0.00542  -0.01186   1.95149
    A2        2.13303  -0.00000   0.00000   0.02559   0.01916   2.15219
    A3        2.15356   0.00000   0.00000   0.03018   0.02375   2.17731
    A4        1.70516  -0.00008   0.00000  -0.07559  -0.07584   1.62932
    A5        1.74323  -0.00000   0.00000  -0.02071  -0.02125   1.72198
    A6        1.71434   0.00018   0.00000   0.03618   0.03614   1.75047
    A7        2.09067  -0.00000   0.00000  -0.01053  -0.01272   2.07795
    A8        2.03535  -0.00001   0.00000   0.01687   0.01698   2.05233
    A9        2.04195  -0.00003   0.00000   0.02477   0.02443   2.06638
   A10        1.82565   0.00034   0.00000   0.12029   0.12029   1.94595
   A11        2.55599   0.00017   0.00000  -0.05099  -0.05099   2.50500
    D1        0.85560   0.00000   0.00000   0.15921   0.15823   1.01384
    D2        2.98781  -0.00002   0.00000   0.12060   0.12165   3.10946
    D3       -1.21168  -0.00000   0.00000   0.15130   0.15159  -1.06008
    D4       -1.99106   0.00003   0.00000  -0.05837  -0.05960  -2.05066
    D5        0.14115   0.00001   0.00000  -0.09699  -0.09618   0.04497
    D6        2.22485   0.00002   0.00000  -0.06629  -0.06624   2.15861
    D7       -0.50331  -0.00009   0.00000  -0.09558  -0.09583  -0.59914
    D8       -2.29985  -0.00009   0.00000  -0.03296  -0.03280  -2.33264
    D9        1.33901  -0.00000   0.00000  -0.09178  -0.09168   1.24733
   D10        0.41512  -0.00001   0.00000   0.03089   0.03089   0.44601
         Item               Value     Threshold  Converged?
 Maximum Force            0.000343     0.000450     YES
 RMS     Force            0.000087     0.000300     YES
 Maximum Displacement     0.583707     0.001800     NO 
 RMS     Displacement     0.168337     0.001200     NO 
 Predicted change in Energy=-1.341591D-03
 Lowest energy point so far.  Saving SCF results.
 GradGradGradGradGradGradGradGradGradGradGradGradGradGradGradGradGradGrad

 Leave Link  103 at Sun May 25 05:13:48 2025, MaxMem=  3758096384 cpu:               0.0 elap:               0.0
 (Enter /apps/easybuild-2022/easybuild/software/Compiler/NVHPC/22.11-CUDA-11.7.0/Gaussian/g16c01-CUDA-11.7.0/g16/l202.exe)
                          Input orientation:                          
 ---------------------------------------------------------------------
 Center     Atomic      Atomic             Coordinates (Angstroms)
 Number     Number       Type             X           Y           Z
 ---------------------------------------------------------------------
      1          6           0        0.166037   -0.996276   -0.094133
      2          9           0       -2.378784   -0.408506    0.121904
      3          9           0        0.096286   -1.743586    0.902396
      4          9           0        0.043027   -1.631612   -1.158696
      5         16           0        0.551184    0.943113    0.025291
      6          8           0        1.795139    0.740280    0.689528
      7          8           0        0.551514    1.246439   -1.359719
      8          8           0       -0.555240    1.374462    0.813313
      9          1           0       -2.082985    0.392880    0.434816
 ---------------------------------------------------------------------
                    Distance matrix (angstroms):
                    1          2          3          4          5
     1  C    0.000000
     2  F    2.620736   0.000000
     3  F    1.247561   2.918489   0.000000
     4  F    1.245825   3.000181   2.064819   0.000000
     5  S    1.980865   3.228145   2.862621   2.879107   0.000000
     6  O    2.506736   4.366182   3.016788   3.480187   1.424702
     7  O    2.603857   3.677050   3.776857   2.929530   1.417836
     8  O    2.638957   2.642410   3.186636   3.644616   1.425207
     9  H    2.695856   0.909743   3.087449   3.340326   2.722005
                    6          7          8          9
     6  O    0.000000
     7  O    2.449942   0.000000
     8  O    2.437580   2.441999   0.000000
     9  H    3.901975   3.299925   1.854930   0.000000
 Symmetry turned off by external request.
 Stoichiometry    CHF3O3S
 Rotational constants (GHZ):           2.1193721           1.4930742           1.2628860
 Leave Link  202 at Sun May 25 05:13:48 2025, MaxMem=  3758096384 cpu:               0.0 elap:               0.0
 (Enter /apps/easybuild-2022/easybuild/software/Compiler/NVHPC/22.11-CUDA-11.7.0/Gaussian/g16c01-CUDA-11.7.0/g16/l301.exe)
 Standard basis: def2TZVPP (5D, 7F)
 Ernie: Thresh=  0.10000D-02 Tol=  0.10000D-05 Strict=F.
   273 basis functions,   443 primitive gaussians,   315 cartesian basis functions
    37 alpha electrons       37 beta electrons
       nuclear repulsion energy       542.4885790380 Hartrees.
 IExCor= 4336 DFT=T Ex+Corr=M062X ExCW=0 ScaHFX=  0.540000
 ScaDFX=  1.000000  1.000000  1.000000  1.000000 ScalE2=  1.000000  1.000000
 IRadAn=      5 IRanWt=     -1 IRanGd=            0 ICorTp=0 IEmpDi=  4
 NAtoms=    9 NActive=    9 NUniq=    9 SFac= 1.00D+00 NAtFMM=   60 NAOKFM=F Big=F
 Integral buffers will be    131072 words long.
 Raffenetti 2 integral format.
 Two-electron integral symmetry is turned off.
 Leave Link  301 at Sun May 25 05:13:48 2025, MaxMem=  3758096384 cpu:               0.0 elap:               0.0
 (Enter /apps/easybuild-2022/easybuild/software/Compiler/NVHPC/22.11-CUDA-11.7.0/Gaussian/g16c01-CUDA-11.7.0/g16/l302.exe)
 NPDir=0 NMtPBC=     1 NCelOv=     1 NCel=       1 NClECP=     1 NCelD=      1
         NCelK=      1 NCelE2=     1 NClLst=     1 CellRange=     0.0.
 One-electron integrals computed using PRISM.
   1 Symmetry operations used in ECPInt.
 ECPInt:  NShTT=    4753 NPrTT=   15592 LenC2=    4556 LenP2D=   11302.
 LDataN:  DoStor=T MaxTD1= 6 Len=  172
 NBasis=   273 RedAO= T EigKep=  7.95D-04  NBF=   273
 NBsUse=   273 1.00D-06 EigRej= -1.00D+00 NBFU=   273
 Precomputing XC quadrature grid using
 IXCGrd= 4 IRadAn=           5 IRanWt=          -1 IRanGd=           0 AccXCQ= 0.00D+00.
 Generated NRdTot=       0 NPtTot=           0 NUsed=           0 NTot=          32
 NSgBfM=   312   312   312   312   312 MxSgAt=     9 MxSgA2=     9.
 Leave Link  302 at Sun May 25 05:13:48 2025, MaxMem=  3758096384 cpu:               0.6 elap:               0.1
 (Enter /apps/easybuild-2022/easybuild/software/Compiler/NVHPC/22.11-CUDA-11.7.0/Gaussian/g16c01-CUDA-11.7.0/g16/l303.exe)
 DipDrv:  MaxL=1.
 Leave Link  303 at Sun May 25 05:13:48 2025, MaxMem=  3758096384 cpu:               0.1 elap:               0.0
 (Enter /apps/easybuild-2022/easybuild/software/Compiler/NVHPC/22.11-CUDA-11.7.0/Gaussian/g16c01-CUDA-11.7.0/g16/l401.exe)
 Initial guess from the checkpoint file:  "1502984803620600000001_r13_insertion_ROR_2_1_5_8_IRC_F_prod.chk"
 B after Tr=     0.044322    0.005932   -0.001917
         Rot=    0.999991   -0.000185   -0.002286    0.003638 Ang=  -0.49 deg.
 Guess basis will be translated and rotated to current coordinates.
 JPrj=2 DoOrth=T DoCkMO=T.
 Generating alternative initial guess.
 ExpMin= 9.52D-02 ExpMax= 6.07D+04 ExpMxC= 2.07D+03 IAcc=3 IRadAn=         5 AccDes= 0.00D+00
 Harris functional with IExCor= 1009 and IRadAn=       5 diagonalized for initial guess.
 HarFok:  IExCor= 1009 AccDes= 0.00D+00 IRadAn=         5 IDoV= 1 UseB2=F ITyADJ=14
 ICtDFT=  3500011 ScaDFX=  1.000000  1.000000  1.000000  1.000000
 FoFCou: FMM=F IPFlag=           0 FMFlag=      100000 FMFlg1=           0
         NFxFlg=           0 DoJE=T BraDBF=F KetDBF=T FulRan=T
         wScrn=  0.000000 ICntrl=       500 IOpCl=  0 I1Cent=   200000004 NGrid=           0
         NMat0=    1 NMatS0=      1 NMatT0=    0 NMatD0=    1 NMtDS0=    0 NMtDT0=    0
 Symmetry not used in FoFCou.
 Harris En= -961.649983522693    
 Leave Link  401 at Sun May 25 05:13:49 2025, MaxMem=  3758096384 cpu:               2.8 elap:               0.4
 (Enter /apps/easybuild-2022/easybuild/software/Compiler/NVHPC/22.11-CUDA-11.7.0/Gaussian/g16c01-CUDA-11.7.0/g16/l502.exe)
 Keep R1 ints in memory in canonical form, NReq=715214082.
 FoFCou: FMM=F IPFlag=           0 FMFlag=           0 FMFlg1=           0
         NFxFlg=           0 DoJE=F BraDBF=F KetDBF=F FulRan=T
         wScrn=  0.000000 ICntrl=       600 IOpCl=  0 I1Cent=           0 NGrid=           0
         NMat0=    1 NMatS0=  37401 NMatT0=    0 NMatD0=    1 NMtDS0=    0 NMtDT0=    0
 Symmetry not used in FoFCou.
 Two-electron integral symmetry not used.
 Closed shell SCF:
 Using DIIS extrapolation, IDIIS=  1040.
 NGot=  3758096384 LenX=  3058457086 LenY=  3058357420
 Requested convergence on RMS density matrix=1.00D-08 within  32 cycles.
 Requested convergence on MAX density matrix=1.00D-06.
 Requested convergence on             energy=1.00D-06.
 No special actions if energy rises.
 Integral accuracy reduced to 1.0D-05 until final iterations.

 Cycle   1  Pass 0  IDiag  1:
 E= -962.024275881524    
 DIIS: error= 4.36D-03 at cycle   1 NSaved=   1.
 NSaved= 1 IEnMin= 1 EnMin= -962.024275881524     IErMin= 1 ErrMin= 4.36D-03
 ErrMax= 4.36D-03  0.00D+00 EMaxC= 1.00D-01 BMatC= 1.32D-02 BMatP= 1.32D-02
 IDIUse=3 WtCom= 9.56D-01 WtEn= 4.36D-02
 Coeff-Com:  0.100D+01
 Coeff-En:   0.100D+01
 Coeff:      0.100D+01
 Gap=     0.950 Goal=   None    Shift=    0.000
 GapD=    0.950 DampG=2.000 DampE=1.000 DampFc=2.0000 IDamp=-1.
 RMSDP=4.95D-04 MaxDP=1.73D-02              OVMax= 6.05D-02

 Cycle   2  Pass 0  IDiag  1:
 E= -962.042957255551     Delta-E=       -0.018681374027 Rises=F Damp=F
 DIIS: error= 1.16D-03 at cycle   2 NSaved=   2.
 NSaved= 2 IEnMin= 2 EnMin= -962.042957255551     IErMin= 2 ErrMin= 1.16D-03
 ErrMax= 1.16D-03  0.00D+00 EMaxC= 1.00D-01 BMatC= 5.81D-04 BMatP= 1.32D-02
 IDIUse=3 WtCom= 9.88D-01 WtEn= 1.16D-02
 Coeff-Com: -0.621D-01 0.106D+01
 Coeff-En:   0.000D+00 0.100D+01
 Coeff:     -0.614D-01 0.106D+01
 Gap=     0.282 Goal=   None    Shift=    0.000
 RMSDP=1.19D-04 MaxDP=5.00D-03 DE=-1.87D-02 OVMax= 1.83D-02

 Cycle   3  Pass 0  IDiag  1:
 E= -962.043880770837     Delta-E=       -0.000923515287 Rises=F Damp=F
 DIIS: error= 5.31D-04 at cycle   3 NSaved=   3.
 NSaved= 3 IEnMin= 3 EnMin= -962.043880770837     IErMin= 3 ErrMin= 5.31D-04
 ErrMax= 5.31D-04  0.00D+00 EMaxC= 1.00D-01 BMatC= 2.26D-04 BMatP= 5.81D-04
 IDIUse=3 WtCom= 9.95D-01 WtEn= 5.31D-03
 Coeff-Com: -0.524D-01 0.390D+00 0.662D+00
 Coeff-En:   0.000D+00 0.000D+00 0.100D+01
 Coeff:     -0.521D-01 0.388D+00 0.664D+00
 Gap=     0.279 Goal=   None    Shift=    0.000
 RMSDP=4.28D-05 MaxDP=1.54D-03 DE=-9.24D-04 OVMax= 4.22D-03

 Cycle   4  Pass 0  IDiag  1:
 E= -962.044013127272     Delta-E=       -0.000132356435 Rises=F Damp=F
 DIIS: error= 3.69D-04 at cycle   4 NSaved=   4.
 NSaved= 4 IEnMin= 4 EnMin= -962.044013127272     IErMin= 4 ErrMin= 3.69D-04
 ErrMax= 3.69D-04  0.00D+00 EMaxC= 1.00D-01 BMatC= 6.67D-05 BMatP= 2.26D-04
 IDIUse=3 WtCom= 9.96D-01 WtEn= 3.69D-03
 Coeff-Com: -0.167D-01 0.332D-01 0.356D+00 0.627D+00
 Coeff-En:   0.000D+00 0.000D+00 0.116D+00 0.884D+00
 Coeff:     -0.166D-01 0.331D-01 0.356D+00 0.628D+00
 Gap=     0.280 Goal=   None    Shift=    0.000
 RMSDP=1.89D-05 MaxDP=6.62D-04 DE=-1.32D-04 OVMax= 1.85D-03

 Cycle   5  Pass 0  IDiag  1:
 E= -962.044060581097     Delta-E=       -0.000047453825 Rises=F Damp=F
 DIIS: error= 8.81D-05 at cycle   5 NSaved=   5.
 NSaved= 5 IEnMin= 5 EnMin= -962.044060581097     IErMin= 5 ErrMin= 8.81D-05
 ErrMax= 8.81D-05  0.00D+00 EMaxC= 1.00D-01 BMatC= 3.91D-06 BMatP= 6.67D-05
 IDIUse=1 WtCom= 1.00D+00 WtEn= 0.00D+00
 Coeff-Com: -0.795D-03-0.290D-01 0.691D-01 0.240D+00 0.721D+00
 Coeff:     -0.795D-03-0.290D-01 0.691D-01 0.240D+00 0.721D+00
 Gap=     0.280 Goal=   None    Shift=    0.000
 RMSDP=5.97D-06 MaxDP=2.36D-04 DE=-4.75D-05 OVMax= 6.43D-04

 Initial convergence to 1.0D-05 achieved.  Increase integral accuracy.
 Cycle   6  Pass 1  IDiag  1:
 E= -962.044044849009     Delta-E=        0.000015732088 Rises=F Damp=F
 DIIS: error= 3.36D-05 at cycle   1 NSaved=   1.
 NSaved= 1 IEnMin= 1 EnMin= -962.044044849009     IErMin= 1 ErrMin= 3.36D-05
 ErrMax= 3.36D-05  0.00D+00 EMaxC= 1.00D-01 BMatC= 1.06D-06 BMatP= 1.06D-06
 IDIUse=1 WtCom= 1.00D+00 WtEn= 0.00D+00
 Coeff-Com:  0.100D+01
 Coeff:      0.100D+01
 Gap=     0.280 Goal=   None    Shift=    0.000
 RMSDP=5.97D-06 MaxDP=2.36D-04 DE= 1.57D-05 OVMax= 3.59D-04

 Cycle   7  Pass 1  IDiag  1:
 E= -962.044044911039     Delta-E=       -0.000000062030 Rises=F Damp=F
 DIIS: error= 4.56D-05 at cycle   2 NSaved=   2.
 NSaved= 2 IEnMin= 2 EnMin= -962.044044911039     IErMin= 1 ErrMin= 3.36D-05
 ErrMax= 4.56D-05  0.00D+00 EMaxC= 1.00D-01 BMatC= 1.18D-06 BMatP= 1.06D-06
 IDIUse=1 WtCom= 1.00D+00 WtEn= 0.00D+00
 Coeff-Com:  0.514D+00 0.486D+00
 Coeff:      0.514D+00 0.486D+00
 Gap=     0.280 Goal=   None    Shift=    0.000
 RMSDP=2.16D-06 MaxDP=1.10D-04 DE=-6.20D-08 OVMax= 2.56D-04

 Cycle   8  Pass 1  IDiag  1:
 E= -962.044045615589     Delta-E=       -0.000000704551 Rises=F Damp=F
 DIIS: error= 1.28D-05 at cycle   3 NSaved=   3.
 NSaved= 3 IEnMin= 3 EnMin= -962.044045615589     IErMin= 3 ErrMin= 1.28D-05
 ErrMax= 1.28D-05  0.00D+00 EMaxC= 1.00D-01 BMatC= 4.97D-08 BMatP= 1.06D-06
 IDIUse=1 WtCom= 1.00D+00 WtEn= 0.00D+00
 Coeff-Com:  0.277D-01 0.162D+00 0.810D+00
 Coeff:      0.277D-01 0.162D+00 0.810D+00
 Gap=     0.280 Goal=   None    Shift=    0.000
 RMSDP=6.69D-07 MaxDP=2.33D-05 DE=-7.05D-07 OVMax= 6.56D-05

 Cycle   9  Pass 1  IDiag  1:
 E= -962.044045646705     Delta-E=       -0.000000031115 Rises=F Damp=F
 DIIS: error= 4.85D-06 at cycle   4 NSaved=   4.
 NSaved= 4 IEnMin= 4 EnMin= -962.044045646705     IErMin= 4 ErrMin= 4.85D-06
 ErrMax= 4.85D-06  0.00D+00 EMaxC= 1.00D-01 BMatC= 1.38D-08 BMatP= 4.97D-08
 IDIUse=1 WtCom= 1.00D+00 WtEn= 0.00D+00
 Coeff-Com: -0.364D-01 0.421D-01 0.446D+00 0.549D+00
 Coeff:     -0.364D-01 0.421D-01 0.446D+00 0.549D+00
 Gap=     0.280 Goal=   None    Shift=    0.000
 RMSDP=2.40D-07 MaxDP=8.91D-06 DE=-3.11D-08 OVMax= 2.45D-05

 Cycle  10  Pass 1  IDiag  1:
 E= -962.044045656014     Delta-E=       -0.000000009310 Rises=F Damp=F
 DIIS: error= 6.81D-07 at cycle   5 NSaved=   5.
 NSaved= 5 IEnMin= 5 EnMin= -962.044045656014     IErMin= 5 ErrMin= 6.81D-07
 ErrMax= 6.81D-07  0.00D+00 EMaxC= 1.00D-01 BMatC= 3.29D-10 BMatP= 1.38D-08
 IDIUse=1 WtCom= 1.00D+00 WtEn= 0.00D+00
 Coeff-Com: -0.816D-02-0.679D-02-0.440D-02 0.101D+00 0.918D+00
 Coeff:     -0.816D-02-0.679D-02-0.440D-02 0.101D+00 0.918D+00
 Gap=     0.280 Goal=   None    Shift=    0.000
 RMSDP=8.20D-08 MaxDP=4.77D-06 DE=-9.31D-09 OVMax= 7.75D-06

 Cycle  11  Pass 1  IDiag  1:
 E= -962.044045656436     Delta-E=       -0.000000000422 Rises=F Damp=F
 DIIS: error= 3.42D-07 at cycle   6 NSaved=   6.
 NSaved= 6 IEnMin= 6 EnMin= -962.044045656436     IErMin= 6 ErrMin= 3.42D-07
 ErrMax= 3.42D-07  0.00D+00 EMaxC= 1.00D-01 BMatC= 6.84D-11 BMatP= 3.29D-10
 IDIUse=1 WtCom= 1.00D+00 WtEn= 0.00D+00
 Coeff-Com:  0.180D-02-0.789D-02-0.631D-01-0.344D-01 0.351D+00 0.752D+00
 Coeff:      0.180D-02-0.789D-02-0.631D-01-0.344D-01 0.351D+00 0.752D+00
 Gap=     0.280 Goal=   None    Shift=    0.000
 RMSDP=3.07D-08 MaxDP=1.65D-06 DE=-4.22D-10 OVMax= 2.74D-06

 Cycle  12  Pass 1  IDiag  1:
 E= -962.044045656531     Delta-E=       -0.000000000095 Rises=F Damp=F
 DIIS: error= 8.83D-08 at cycle   7 NSaved=   7.
 NSaved= 7 IEnMin= 7 EnMin= -962.044045656531     IErMin= 7 ErrMin= 8.83D-08
 ErrMax= 8.83D-08  0.00D+00 EMaxC= 1.00D-01 BMatC= 5.35D-12 BMatP= 6.84D-11
 IDIUse=1 WtCom= 1.00D+00 WtEn= 0.00D+00
 Coeff-Com:  0.115D-02-0.218D-02-0.216D-01-0.195D-01 0.533D-01 0.277D+00
 Coeff-Com:  0.712D+00
 Coeff:      0.115D-02-0.218D-02-0.216D-01-0.195D-01 0.533D-01 0.277D+00
 Coeff:      0.712D+00
 Gap=     0.280 Goal=   None    Shift=    0.000
 RMSDP=7.13D-09 MaxDP=2.65D-07 DE=-9.50D-11 OVMax= 7.63D-07

 SCF Done:  E(RM062X) =  -962.044045657     A.U. after   12 cycles
            NFock= 12  Conv=0.71D-08     -V/T= 2.0026
 KE= 9.595913002192D+02 PE=-3.366586799110D+03 EE= 9.024628741965D+02
 Leave Link  502 at Sun May 25 05:14:02 2025, MaxMem=  3758096384 cpu:              62.6 elap:              13.0
 (Enter /apps/easybuild-2022/easybuild/software/Compiler/NVHPC/22.11-CUDA-11.7.0/Gaussian/g16c01-CUDA-11.7.0/g16/l508.exe)
 QCSCF skips out because SCF is already converged.
 Leave Link  508 at Sun May 25 05:14:02 2025, MaxMem=  3758096384 cpu:               0.0 elap:               0.0
 (Enter /apps/easybuild-2022/easybuild/software/Compiler/NVHPC/22.11-CUDA-11.7.0/Gaussian/g16c01-CUDA-11.7.0/g16/l701.exe)
 ... and contract with generalized density number  0.
 Compute integral first derivatives.
   1 Symmetry operations used in ECPInt.
 ECPInt:  NShTT=    4753 NPrTT=   15592 LenC2=    4556 LenP2D=   11302.
 LDataN:  DoStor=T MaxTD1= 7 Len=  274
 Leave Link  701 at Sun May 25 05:14:02 2025, MaxMem=  3758096384 cpu:               0.5 elap:               0.1
 (Enter /apps/easybuild-2022/easybuild/software/Compiler/NVHPC/22.11-CUDA-11.7.0/Gaussian/g16c01-CUDA-11.7.0/g16/l702.exe)
 L702 exits ... SP integral derivatives will be done elsewhere.
 Leave Link  702 at Sun May 25 05:14:02 2025, MaxMem=  3758096384 cpu:               0.0 elap:               0.0
 (Enter /apps/easybuild-2022/easybuild/software/Compiler/NVHPC/22.11-CUDA-11.7.0/Gaussian/g16c01-CUDA-11.7.0/g16/l703.exe)
 Integral derivatives from FoFJK, PRISM(SPDF).
 Compute integral first derivatives, UseDBF=F ICtDFT=           0.
 Calling FoFJK, ICntrl=      2127 FMM=F ISym2X=0 I1Cent= 0 IOpClX= 0 NMat=1 NMatS=1 NMatT=0.
 FoFJK:  IHMeth= 1 ICntrl=    2127 DoSepK=F KAlg= 0 I1Cent=           0 FoldK=F
 IRaf=         0 NMat=       1 IRICut=       1 DoRegI=T DoRafI=F ISym2E= 0 IDoP0=0 IntGTp=1.
 FoFCou: FMM=F IPFlag=           0 FMFlag=      100000 FMFlg1=         800
         NFxFlg=           0 DoJE=F BraDBF=F KetDBF=F FulRan=T
         wScrn=  0.000000 ICntrl=      2127 IOpCl=  0 I1Cent=           0 NGrid=           0
         NMat0=    1 NMatS0=      1 NMatT0=    0 NMatD0=    1 NMtDS0=    0 NMtDT0=    0
 Symmetry not used in FoFCou.
 Leave Link  703 at Sun May 25 05:14:07 2025, MaxMem=  3758096384 cpu:              39.0 elap:               5.0
 (Enter /apps/easybuild-2022/easybuild/software/Compiler/NVHPC/22.11-CUDA-11.7.0/Gaussian/g16c01-CUDA-11.7.0/g16/l716.exe)
 Dipole        =-8.52377427D-02-1.38036855D+00 4.79855437D-02
 -------------------------------------------------------------------
 Center     Atomic                   Forces (Hartrees/Bohr)
 Number     Number              X              Y              Z
 -------------------------------------------------------------------
      1        6          -0.011689849    0.011080744    0.000922666
      2        9          -0.005324410   -0.025411810   -0.009677449
      3        9           0.001704890   -0.004677756    0.008218903
      4        9           0.001784318   -0.003882797   -0.008605593
      5       16           0.013092957   -0.009451814   -0.005762493
      6        8           0.000520365    0.004035290    0.001320632
      7        8          -0.001509188    0.002038180   -0.000488348
      8        8          -0.007467428    0.001252467    0.004737254
      9        1           0.008888344    0.025017497    0.009334429
 -------------------------------------------------------------------
 Cartesian Forces:  Max     0.025411810 RMS     0.009434812
 Leave Link  716 at Sun May 25 05:14:07 2025, MaxMem=  3758096384 cpu:               0.0 elap:               0.0
 (Enter /apps/easybuild-2022/easybuild/software/Compiler/NVHPC/22.11-CUDA-11.7.0/Gaussian/g16c01-CUDA-11.7.0/g16/l103.exe)

 GradGradGradGradGradGradGradGradGradGradGradGradGradGradGradGradGradGrad
 Berny optimization.
 Using GEDIIS/GDIIS optimizer.
 FormGI is forming the generalized inverse of G from B-inverse, IUseBI=4.
 Internal  Forces:  Max     0.027444707 RMS     0.007452839
 Search for a local minimum.
 Step number   2 out of a maximum of   39
 All quantities printed in internal units (Hartrees-Bohrs-Radians)
 RMS Force = .74528D-02 SwitMx=.10000D-02 MixMth= 1
 Mixed Optimization -- RFO/linear search
 Update second derivatives using D2CorX and points    2    1
 ITU=  0  0
 Use linear search instead of GDIIS.
     Eigenvalues ---    0.00217   0.00851   0.01403   0.02911   0.05211
     Eigenvalues ---    0.06384   0.07659   0.09959   0.15492   0.16840
     Eigenvalues ---    0.19492   0.21839   0.23480   0.29116   0.48487
     Eigenvalues ---    0.49572   0.57561   0.67770   0.73223   0.75312
     Eigenvalues ---    0.84797
 RFO step:  Lambda=-6.16404545D-06 EMin= 2.16920314D-03
 Quartic linear search produced a step of -0.97598.
 Iteration  1 RMS(Cart)=  0.13514145 RMS(Int)=  0.04925402
 Iteration  2 RMS(Cart)=  0.04186587 RMS(Int)=  0.01200557
 Iteration  3 RMS(Cart)=  0.01357985 RMS(Int)=  0.00009206
 Iteration  4 RMS(Cart)=  0.00004163 RMS(Int)=  0.00008961
 Iteration  5 RMS(Cart)=  0.00000000 RMS(Int)=  0.00008961
 ITry= 1 IFail=0 DXMaxC= 5.63D-01 DCOld= 1.00D+10 DXMaxT= 3.00D-01 DXLimC= 3.00D+00 Rises=F
 Variable       Old X    -DE/DX   Delta X   Delta X   Delta X     New X
                                 (Linear)    (Quad)   (Total)
    R1        2.35755   0.00927   0.01776   0.00026   0.01802   2.37557
    R2        2.35427   0.00915   0.01573   0.00015   0.01589   2.37015
    R3        3.74329  -0.00090  -0.06276  -0.00123  -0.06399   3.67930
    R4        1.71916   0.02744   0.09527   0.00032   0.09560   1.81476
    R5        2.69230   0.00049  -0.00495   0.00008  -0.00487   2.68742
    R6        2.67932   0.00092   0.00160  -0.00001   0.00160   2.68092
    R7        2.69325   0.00572   0.03786   0.00009   0.03795   2.73120
    R8        3.50531  -0.00266  -0.45516   0.00932  -0.44584   3.05947
    A1        1.95149   0.00239   0.01158  -0.00010   0.01175   1.96324
    A2        2.15219  -0.00140  -0.01870  -0.00025  -0.01868   2.13351
    A3        2.17731  -0.00117  -0.02318   0.00048  -0.02243   2.15489
    A4        1.62932   0.01132   0.07402   0.00038   0.07440   1.70372
    A5        1.72198   0.00362   0.02074   0.00067   0.02141   1.74339
    A6        1.75047  -0.01453  -0.03527  -0.00135  -0.03662   1.71385
    A7        2.07795   0.00038   0.01242  -0.00002   0.01241   2.09036
    A8        2.05233  -0.00046  -0.01657   0.00015  -0.01638   2.03595
    A9        2.06638  -0.00007  -0.02385   0.00001  -0.02382   2.04256
   A10        1.94595  -0.01368  -0.11740  -0.00236  -0.11976   1.82618
   A11        2.50500  -0.00654   0.04977  -0.00438   0.04539   2.55039
    D1        1.01384  -0.00249  -0.15443   0.01524  -0.13922   0.87462
    D2        3.10946   0.00083  -0.11873   0.01540  -0.10334   3.00612
    D3       -1.06008  -0.00231  -0.14795   0.01523  -0.13274  -1.19282
    D4       -2.05066   0.00048   0.05817   0.01296   0.07114  -1.97951
    D5        0.04497   0.00380   0.09387   0.01312   0.10702   0.15199
    D6        2.15861   0.00066   0.06465   0.01295   0.07762   2.23623
    D7       -0.59914   0.00515   0.09353  -0.01375   0.07979  -0.51936
    D8       -2.33264   0.00026   0.03201  -0.01347   0.01852  -2.31412
    D9        1.24733   0.00052   0.08948  -0.01378   0.07571   1.32304
   D10        0.44601   0.00025  -0.03015   0.01141  -0.01873   0.42727
         Item               Value     Threshold  Converged?
 Maximum Force            0.027445     0.000450     NO 
 RMS     Force            0.007453     0.000300     NO 
 Maximum Displacement     0.563448     0.001800     NO 
 RMS     Displacement     0.162665     0.001200     NO 
 Predicted change in Energy=-1.129293D-03
 GradGradGradGradGradGradGradGradGradGradGradGradGradGradGradGradGradGrad

 Leave Link  103 at Sun May 25 05:14:07 2025, MaxMem=  3758096384 cpu:               0.0 elap:               0.0
 (Enter /apps/easybuild-2022/easybuild/software/Compiler/NVHPC/22.11-CUDA-11.7.0/Gaussian/g16c01-CUDA-11.7.0/g16/l202.exe)
                          Input orientation:                          
 ---------------------------------------------------------------------
 Center     Atomic      Atomic             Coordinates (Angstroms)
 Number     Number       Type             X           Y           Z
 ---------------------------------------------------------------------
      1          6           0        0.007942   -0.964286   -0.080704
      2          9           0       -2.080620   -0.474734    0.079977
      3          9           0        0.023889   -1.719752    0.923942
      4          9           0       -0.062498   -1.601307   -1.158822
      5         16           0        0.504023    0.915473    0.025245
      6          8           0        1.739334    0.746131    0.709179
      7          8           0        0.502279    1.246049   -1.354382
      8          8           0       -0.614988    1.379792    0.813337
      9          1           0       -1.833182    0.389830    0.416930
 ---------------------------------------------------------------------
                    Distance matrix (angstroms):
                    1          2          3          4          5
     1  C    0.000000
     2  F    2.151179   0.000000
     3  F    1.257099   2.586755   0.000000
     4  F    1.254231   2.622328   2.087917   0.000000
     5  S    1.947002   2.935311   2.825349   2.838511   0.000000
     6  O    2.558742   4.059367   3.011553   3.499499   1.422124
     7  O    2.598500   3.419042   3.770357   2.909407   1.418681
     8  O    2.584967   2.474906   3.166634   3.616850   1.445291
     9  H    2.339019   0.960330   2.855891   3.095633   2.427395
                    6          7          8          9
     6  O    0.000000
     7  O    2.457337   0.000000
     8  O    2.440330   2.442371   0.000000
     9  H    3.602115   3.053692   1.618999   0.000000
 Symmetry turned off by external request.
 Stoichiometry    CHF3O3S
 Rotational constants (GHZ):           2.3740032           1.5287296           1.3872399
 Leave Link  202 at Sun May 25 05:14:07 2025, MaxMem=  3758096384 cpu:               0.0 elap:               0.0
 (Enter /apps/easybuild-2022/easybuild/software/Compiler/NVHPC/22.11-CUDA-11.7.0/Gaussian/g16c01-CUDA-11.7.0/g16/l301.exe)
 Standard basis: def2TZVPP (5D, 7F)
 Ernie: Thresh=  0.10000D-02 Tol=  0.10000D-05 Strict=F.
   273 basis functions,   443 primitive gaussians,   315 cartesian basis functions
    37 alpha electrons       37 beta electrons
       nuclear repulsion energy       554.8249765683 Hartrees.
 IExCor= 4336 DFT=T Ex+Corr=M062X ExCW=0 ScaHFX=  0.540000
 ScaDFX=  1.000000  1.000000  1.000000  1.000000 ScalE2=  1.000000  1.000000
 IRadAn=      5 IRanWt=     -1 IRanGd=            0 ICorTp=0 IEmpDi=  4
 NAtoms=    9 NActive=    9 NUniq=    9 SFac= 1.00D+00 NAtFMM=   60 NAOKFM=F Big=F
 Integral buffers will be    131072 words long.
 Raffenetti 2 integral format.
 Two-electron integral symmetry is turned off.
 Leave Link  301 at Sun May 25 05:14:07 2025, MaxMem=  3758096384 cpu:               0.1 elap:               0.0
 (Enter /apps/easybuild-2022/easybuild/software/Compiler/NVHPC/22.11-CUDA-11.7.0/Gaussian/g16c01-CUDA-11.7.0/g16/l302.exe)
 NPDir=0 NMtPBC=     1 NCelOv=     1 NCel=       1 NClECP=     1 NCelD=      1
         NCelK=      1 NCelE2=     1 NClLst=     1 CellRange=     0.0.
 One-electron integrals computed using PRISM.
   1 Symmetry operations used in ECPInt.
 ECPInt:  NShTT=    4753 NPrTT=   15592 LenC2=    4579 LenP2D=   11467.
 LDataN:  DoStor=T MaxTD1= 6 Len=  172
 NBasis=   273 RedAO= T EigKep=  8.06D-04  NBF=   273
 NBsUse=   273 1.00D-06 EigRej= -1.00D+00 NBFU=   273
 Precomputing XC quadrature grid using
 IXCGrd= 4 IRadAn=           5 IRanWt=          -1 IRanGd=           0 AccXCQ= 0.00D+00.
 Generated NRdTot=       0 NPtTot=           0 NUsed=           0 NTot=          32
 NSgBfM=   312   312   312   312   312 MxSgAt=     9 MxSgA2=     9.
 Leave Link  302 at Sun May 25 05:14:07 2025, MaxMem=  3758096384 cpu:               0.6 elap:               0.1
 (Enter /apps/easybuild-2022/easybuild/software/Compiler/NVHPC/22.11-CUDA-11.7.0/Gaussian/g16c01-CUDA-11.7.0/g16/l303.exe)
 DipDrv:  MaxL=1.
 Leave Link  303 at Sun May 25 05:14:07 2025, MaxMem=  3758096384 cpu:               0.1 elap:               0.0
 (Enter /apps/easybuild-2022/easybuild/software/Compiler/NVHPC/22.11-CUDA-11.7.0/Gaussian/g16c01-CUDA-11.7.0/g16/l401.exe)
 Lowest energy guess from the checkpoint file:  "1502984803620600000001_r13_insertion_ROR_2_1_5_8_IRC_F_prod.chk"
 B after Tr=     0.001435   -0.001132    0.000055
         Rot=    0.999999   -0.000130   -0.000865    0.001451 Ang=  -0.19 deg.
 Guess basis will be translated and rotated to current coordinates.
 B after Tr=    -0.042868   -0.007255    0.001838
         Rot=    0.999996    0.000109    0.001583   -0.002158 Ang=   0.31 deg.
 Guess basis will be translated and rotated to current coordinates.
 CkInt1:  FT= 2.40D-02
 Max alpha theta=  5.502 degrees.
 JPrj=2 DoOrth=T DoCkMO=T.
 Leave Link  401 at Sun May 25 05:14:07 2025, MaxMem=  3758096384 cpu:               0.3 elap:               0.1
 (Enter /apps/easybuild-2022/easybuild/software/Compiler/NVHPC/22.11-CUDA-11.7.0/Gaussian/g16c01-CUDA-11.7.0/g16/l502.exe)
 Keep R1 ints in memory in canonical form, NReq=715214082.
 FoFCou: FMM=F IPFlag=           0 FMFlag=           0 FMFlg1=           0
         NFxFlg=           0 DoJE=F BraDBF=F KetDBF=F FulRan=T
         wScrn=  0.000000 ICntrl=       600 IOpCl=  0 I1Cent=           0 NGrid=           0
[...]
     18 -0.111184D-01 -0.273883D-01 -0.167745D-01  0.158340D+00  0.774362D-02
     19 -0.234657D-02 -0.223919D-02  0.703428D-02  0.278842D-01  0.920562D-03
     20  0.318283D-02 -0.425414D-03 -0.114784D-01 -0.700269D-02 -0.329339D-01
     21 -0.497292D-04  0.122849D-01  0.627667D-02 -0.188926D-01  0.308516D-01
     22 -0.165227D-02  0.864375D-02 -0.877861D-02 -0.239115D-02 -0.241639D-03
     23  0.280648D-02 -0.615347D-02 -0.126337D-01  0.183067D-01 -0.309577D-01
     24 -0.426082D-03  0.655685D-02  0.512140D-02  0.641680D-02  0.328278D-01
     25 -0.202862D-02  0.291570D-02 -0.993388D-02  0.229183D-01  0.173450D-02
     26  0.117741D-01  0.546783D-01 -0.486305D-01 -0.320259D-01 -0.272892D-02
     27 -0.573307D-02 -0.302232D-01 -0.285903D-01 -0.111594D+00  0.164017D-01
     28  0.105418D-02  0.283618D-01  0.492768D-01  0.669121D-01 -0.163500D-01
     29  0.345085D-03  0.816383D-02 -0.854500D-02  0.274027D-02 -0.112174D-03
               16            17            18            19            20 
     16  0.886339D-01
     17 -0.239762D-01  0.891206D-01
     18 -0.336724D-01 -0.284829D-01  0.282854D+00
     19 -0.543633D-02 -0.112456D-01  0.724728D-01  0.871729D-01
     20  0.365494D-01  0.598087D-02 -0.170167D-01 -0.996903D-02  0.352698D-01
     21  0.680476D-04 -0.308419D-01 -0.207009D-01 -0.787751D-02 -0.211523D-02
     22 -0.385794D-01  0.395058D-01 -0.103341D-01 -0.990784D-02 -0.900760D-03
     23  0.316474D-01  0.125759D-03  0.264753D-01  0.530305D-02  0.183114D-01
     24 -0.483394D-02 -0.366970D-01  0.227911D-01  0.739457D-02 -0.190736D-01
     25 -0.434814D-01  0.336507D-01  0.331579D-01  0.536424D-02 -0.178592D-01
     26 -0.119348D-02  0.165005D-01 -0.321346D-01 -0.184657D-01  0.160220D-01
     27  0.284363D-01  0.377500D-01 -0.788951D-01 -0.298024D-01  0.108354D-01
     28 -0.313780D-01 -0.228697D-01  0.311951D-01  0.245661D-02  0.404431D-03
     29 -0.460283D-02  0.357209D-02  0.916954D-02 -0.191359D-02  0.410872D-02
               21            22            23            24            25 
     21  0.350900D-01
     22 -0.940103D-03  0.374942D-01
     23 -0.188858D-01 -0.169714D-01  0.331354D-01
     24  0.183194D-01 -0.170108D-01 -0.406185D-02  0.333312D-01
     25 -0.177107D-01  0.214235D-01 -0.214743D-02 -0.199898D-02  0.371353D-01
     26  0.162368D-01  0.114377D-01  0.277684D-02  0.299159D-02 -0.180744D-02
     27  0.124694D-01  0.128610D-01 -0.845552D-02 -0.682145D-02 -0.642985D-02
     28  0.345729D-02  0.116085D-01 -0.132977D-02  0.172308D-02  0.987426D-02
     29  0.412964D-02  0.635852D-02  0.128155D-02  0.130246D-02  0.353135D-02
               26            27            28            29 
     26  0.679745D-01
     27  0.229736D-01  0.111693D+00
     28 -0.218508D-02 -0.634305D-01  0.869535D-01
     29  0.172598D-01  0.755862D-02  0.995905D-02  0.175899D-01
 Leave Link  716 at Sun May 25 05:19:18 2025, MaxMem=  3758096384 cpu:               0.0 elap:               0.0
 (Enter /apps/easybuild-2022/easybuild/software/Compiler/NVHPC/22.11-CUDA-11.7.0/Gaussian/g16c01-CUDA-11.7.0/g16/l103.exe)

 GradGradGradGradGradGradGradGradGradGradGradGradGradGradGradGradGradGrad
 Berny optimization.
 Red2BG is reusing G-inverse.
 Internal  Forces:  Max     0.000020852 RMS     0.000006579
 Search for a local minimum.
 Step number   1 out of a maximum of    2
 All quantities printed in internal units (Hartrees-Bohrs-Radians)
 Second derivative matrix not updated -- analytic derivatives used.
 ITU=  0
     Eigenvalues ---    0.00135   0.00714   0.00796   0.02556   0.04539
     Eigenvalues ---    0.05830   0.06936   0.08965   0.14805   0.16817
     Eigenvalues ---    0.18136   0.20445   0.22452   0.29196   0.46981
     Eigenvalues ---    0.49592   0.52015   0.67168   0.73092   0.75055
     Eigenvalues ---    0.81690
 Angle between quadratic step and forces=  80.78 degrees.
 Linear search not attempted -- first point.
 Iteration  1 RMS(Cart)=  0.00019381 RMS(Int)=  0.00000002
 Iteration  2 RMS(Cart)=  0.00000003 RMS(Int)=  0.00000000
 ITry= 1 IFail=0 DXMaxC= 5.14D-04 DCOld= 1.00D+10 DXMaxT= 3.00D-01 DXLimC= 3.00D+00 Rises=F
 Variable       Old X    -DE/DX   Delta X   Delta X   Delta X     New X
                                 (Linear)    (Quad)   (Total)
    R1        2.37326  -0.00000   0.00000   0.00001   0.00001   2.37327
    R2        2.36807  -0.00000   0.00000   0.00001   0.00001   2.36808
    R3        3.68532  -0.00000   0.00000  -0.00002  -0.00002   3.68530
    R4        1.79634   0.00002   0.00000   0.00011   0.00011   1.79645
    R5        2.68868   0.00000   0.00000  -0.00001  -0.00001   2.68867
    R6        2.68087  -0.00000   0.00000   0.00000   0.00000   2.68087
    R7        2.72430  -0.00000   0.00000   0.00003   0.00003   2.72433
    R8        3.17896   0.00000   0.00000  -0.00050  -0.00050   3.17845
    A1        1.96207  -0.00000   0.00000   0.00001   0.00001   1.96208
    A2        2.13728   0.00000   0.00000  -0.00002  -0.00002   2.13726
    A3        2.16043   0.00000   0.00000  -0.00002  -0.00002   2.16041
    A4        1.69124   0.00001   0.00000   0.00007   0.00007   1.69132
    A5        1.74138   0.00000   0.00000   0.00000   0.00000   1.74138
    A6        1.71768  -0.00002   0.00000  -0.00003  -0.00003   1.71765
    A7        2.08795  -0.00000   0.00000   0.00001   0.00001   2.08797
    A8        2.03938   0.00000   0.00000  -0.00002  -0.00002   2.03936
    A9        2.04690   0.00000   0.00000  -0.00002  -0.00002   2.04688
   A10        1.83493  -0.00002   0.00000  -0.00005  -0.00005   1.83488
   A11        2.51763  -0.00001   0.00000   0.00009   0.00009   2.51772
    D1        0.93614  -0.00000   0.00000  -0.00033  -0.00033   0.93581
    D2        3.06107   0.00000   0.00000  -0.00030  -0.00030   3.06077
    D3       -1.13278  -0.00000   0.00000  -0.00032  -0.00032  -1.13310
    D4       -1.95703  -0.00000   0.00000  -0.00016  -0.00016  -1.95719
    D5        0.16790   0.00000   0.00000  -0.00013  -0.00013   0.16777
    D6        2.25724  -0.00000   0.00000  -0.00016  -0.00016   2.25708
    D7       -0.56761   0.00000   0.00000   0.00023   0.00023  -0.56737
    D8       -2.35103   0.00000   0.00000   0.00017   0.00017  -2.35086
    D9        1.27593  -0.00000   0.00000   0.00021   0.00021   1.27614
   D10        0.46144  -0.00000   0.00000  -0.00015  -0.00015   0.46129
         Item               Value     Threshold  Converged?
 Maximum Force            0.000021     0.000450     YES
 RMS     Force            0.000007     0.000300     YES
 Maximum Displacement     0.000514     0.001800     YES
 RMS     Displacement     0.000194     0.001200     YES
 Predicted change in Energy=-2.539890D-09
 Optimization completed.
    -- Stationary point found.
                           ----------------------------
                           !   Optimized Parameters   !
                           ! (Angstroms and Degrees)  !
 --------------------------                            --------------------------
 ! Name  Definition              Value          Derivative Info.                !
 --------------------------------------------------------------------------------
 ! R1    R(1,3)                  1.2559         -DE/DX =    0.0                 !
 ! R2    R(1,4)                  1.2531         -DE/DX =    0.0                 !
 ! R3    R(1,5)                  1.9502         -DE/DX =    0.0                 !
 ! R4    R(2,9)                  0.9506         -DE/DX =    0.0                 !
 ! R5    R(5,6)                  1.4228         -DE/DX =    0.0                 !
 ! R6    R(5,7)                  1.4187         -DE/DX =    0.0                 !
 ! R7    R(5,8)                  1.4416         -DE/DX =    0.0                 !
 ! R8    R(8,9)                  1.6822         -DE/DX =    0.0                 !
 ! A1    A(3,1,4)              112.4185         -DE/DX =    0.0                 !
 ! A2    A(3,1,5)              122.4571         -DE/DX =    0.0                 !
 ! A3    A(4,1,5)              123.7835         -DE/DX =    0.0                 !
 ! A4    A(1,5,6)               96.9011         -DE/DX =    0.0                 !
 ! A5    A(1,5,7)               99.7736         -DE/DX =    0.0                 !
 ! A6    A(1,5,8)               98.4158         -DE/DX =    0.0                 !
 ! A7    A(6,5,7)              119.631          -DE/DX =    0.0                 !
 ! A8    A(6,5,8)              116.8477         -DE/DX =    0.0                 !
 ! A9    A(7,5,8)              117.2788         -DE/DX =    0.0                 !
 ! A10   A(5,8,9)              105.134          -DE/DX =    0.0                 !
 ! A11   A(2,9,8)              144.2498         -DE/DX =    0.0                 !
 ! D1    D(3,1,5,6)             53.637          -DE/DX =    0.0                 !
 ! D2    D(3,1,5,7)            175.3863         -DE/DX =    0.0                 !
 ! D3    D(3,1,5,8)            -64.9032         -DE/DX =    0.0                 !
 ! D4    D(4,1,5,6)           -112.1296         -DE/DX =    0.0                 !
 ! D5    D(4,1,5,7)              9.6197         -DE/DX =    0.0                 !
 ! D6    D(4,1,5,8)            129.3302         -DE/DX =    0.0                 !
 ! D7    D(1,5,8,9)            -32.5214         -DE/DX =    0.0                 !
 ! D8    D(6,5,8,9)           -134.7039         -DE/DX =    0.0                 !
 ! D9    D(7,5,8,9)             73.1054         -DE/DX =    0.0                 !
 ! D10   D(5,8,9,2)             26.4386         -DE/DX =    0.0                 !
 --------------------------------------------------------------------------------
 GradGradGradGradGradGradGradGradGradGradGradGradGradGradGradGradGradGrad

 Leave Link  103 at Sun May 25 05:19:18 2025, MaxMem=  3758096384 cpu:               0.0 elap:               0.0
 (Enter /apps/easybuild-2022/easybuild/software/Compiler/NVHPC/22.11-CUDA-11.7.0/Gaussian/g16c01-CUDA-11.7.0/g16/l9999.exe)

 ----------------------------------------------------------------------

 Electric dipole moment (input orientation):
 (Debye = 10**-18 statcoulomb cm , SI units = C m)
                  (au)            (Debye)         (10**-30 SI)
   Tot        0.142302D+01      0.361695D+01      0.120649D+02
   x         -0.278274D+00     -0.707301D+00     -0.235930D+01
   y         -0.139439D+01     -0.354418D+01     -0.118221D+02
   z          0.568221D-01      0.144427D+00      0.481757D+00

 Dipole polarizability, Alpha (input orientation).
 (esu units = cm**3 , SI units = C**2 m**2 J**-1)
 Alpha(0;0):
               (au)            (10**-24 esu)      (10**-40 SI)
   iso        0.443142D+02      0.656668D+01      0.730642D+01
   aniso      0.581962D+01      0.862379D+00      0.959525D+00
   xx         0.453902D+02      0.672613D+01      0.748383D+01
   yx         0.259341D+01      0.384304D+00      0.427596D+00
   yy         0.455119D+02      0.674417D+01      0.750390D+01
   zx         0.552343D+00      0.818488D-01      0.910691D-01
   zy         0.614159D+00      0.910090D-01      0.101261D+00
   zz         0.420404D+02      0.622974D+01      0.693152D+01

 ----------------------------------------------------------------------

 Dipole orientation:
     6          0.37303821         -0.29480913          1.77483154
     9         -3.68699628          0.78432367          1.64253903
     9          0.97742618          1.46926930          3.24286268
     9          0.07682509         -2.35229603          2.90919551
    16          0.62554336          0.00720609         -1.88940214
     8          3.20606138          0.75730596         -1.97467145
     8         -0.05391544         -2.48701133         -2.59951618
     8         -1.23657138          1.96135399         -2.25766742
     1         -3.41569729          1.46806359          0.00371274

 Electric dipole moment (dipole orientation):
 (Debye = 10**-18 statcoulomb cm , SI units = C m)
                  (au)            (Debye)         (10**-30 SI)
   Tot        0.142302D+01      0.361695D+01      0.120649D+02
   x          0.000000D+00      0.000000D+00      0.000000D+00
   y          0.000000D+00      0.000000D+00      0.000000D+00
   z          0.142302D+01      0.361695D+01      0.120649D+02

 Dipole polarizability, Alpha (dipole orientation).
 (esu units = cm**3 , SI units = C**2 m**2 J**-1)
 Alpha(0;0):
               (au)            (10**-24 esu)      (10**-40 SI)
   iso        0.443142D+02      0.656668D+01      0.730642D+01
   aniso      0.581962D+01      0.862379D+00      0.959525D+00
   xx         0.445095D+02      0.659562D+01      0.733862D+01
   yx         0.358034D-01      0.530551D-02      0.590318D-02
   yy         0.419941D+02      0.622288D+01      0.692389D+01
   zx        -0.248061D+01     -0.367588D+00     -0.408997D+00
   zy        -0.408583D+00     -0.605458D-01     -0.673663D-01
   zz         0.464389D+02      0.688153D+01      0.765674D+01

 ----------------------------------------------------------------------
 Unable to Open any file for archive entry.
 1\1\GINC-SPARTAN-BM178\Freq\RM062X\def2TZVPP\C1H1F3O3S1\AKHALILOV\25-M
 ay-2025\0\\#P Geom=AllCheck Guess=TCheck SCRF=Check GenChk RM062X/def2
 TZVPP Freq\\Gaussian input prepared by ASE\\0,1\C,0.0352279023,-0.9686
 433872,-0.0767620457\F,-2.1257778484,-0.4603669701,0.059867346\F,0.019
 3733931,-1.7171905809,0.9315289869\F,-0.032525765,-1.61147491,-1.15031
 4246\S,0.5136662934,0.919010459,0.0285449075\O,1.7646880497,0.74205541
 13,0.6827283286\O,0.4840183609,1.2522387021,-1.3500986323\O,-0.5879199
 914,1.3708519563,0.8413538012\H,-1.8845723946,0.3907133194,0.407852553
 8\\Version=ES64L-G16RevC.01\HF=-962.0474165\RMSD=5.596e-09\RMSF=5.904e
 -06\ZeroPoint=0.0372373\Thermal=0.0458965\ETot=-962.00152\HTot=-962.00
 05758\GTot=-962.0447702\Dipole=-0.2782736,-1.3943878,0.0568221\DipoleD
 eriv=0.8173385,-0.0202141,0.0188906,-0.0632373,1.3248489,0.0401715,0.0
 250356,0.0145562,1.7063715,-0.914754,-0.0725765,0.007699,-0.1168079,-0
 .5328338,-0.0435476,-0.0361455,-0.067839,-0.3388164,-0.0402479,-0.0493
 184,0.0213306,-0.0527038,-0.7605701,0.4777101,-0.041076,0.3852393,-0.6
 341386,-0.0082929,-0.0540895,-0.0516812,-0.0670344,-0.660496,-0.499853
 5,0.0162175,-0.3771053,-0.742524,2.1927784,-0.0511609,-0.048293,0.0032
 148,2.0637422,-0.0828098,-0.1496171,-0.159015,2.1841245,-1.0452062,-0.
 0615408,-0.2187632,-0.0008606,-0.6109534,0.0391652,-0.2458795,-0.01041
 04,-0.6745183,-0.5687115,0.0036338,-0.0078844,-0.0225826,-0.6338349,0.
 1360798,0.0766329,0.3008615,-1.0732254,-1.142484,0.1395123,0.2762678,0
 .0425127,-0.749886,-0.1147792,0.2587993,-0.1700638,-0.760483,0.7095795
 ,0.1657542,0.0024339,0.2774992,0.5599832,0.0478633,0.0960328,0.0837766
 ,0.3332097\Polar=45.3902087,2.5934136,45.5118889,0.5523429,0.6141592,4
 2.0403815\PG=Unknown\NImag=0\\0.14053894,0.06557619,0.63765183,0.01616
 672,-0.00248568,0.71436246,0.00387366,-0.02035477,-0.00309302,0.066487
 73,-0.02167099,-0.00366159,0.00157030,0.12165735,0.39513289,-0.0061051
 7,0.00277071,-0.01023077,0.05119218,0.15482617,0.07927356,-0.04330814,
 -0.01650843,0.00692362,-0.00586433,0.00878433,-0.00408259,0.02574581,-
 0.02432830,-0.28570504,0.20299711,0.00688228,0.00034754,0.00019821,0.0
 0987243,0.23598783,0.01639777,0.20862611,-0.30937359,-0.00703969,0.002
 86218,0.00272618,-0.00252505,-0.22518313,0.42653531,-0.04646833,-0.027
 69215,-0.02486076,-0.00245821,0.00721166,0.00586400,0.01250506,0.00414
 237,-0.00324003,0.02426944,-0.03015569,-0.24826129,-0.19742907,0.00579
 594,0.00115672,-0.00037910,0.00359862,0.04166934,0.01511682,0.01892449
 ,0.19526602,-0.03292153,-0.20717086,-0.35406108,0.00821228,-0.00329587
 ,0.00024902,-0.00310524,0.00068786,-0.11719306,0.02556938,0.20401419,0
 .47623141,-0.04274269,-0.00444306,0.00562667,-0.00551201,0.01670979,0.
 00649647,0.01464210,0.00889949,-0.00517266,0.02122692,0.00904086,0.004
 87481,1.04312937,-0.01559275,-0.09565295,-0.00079889,0.01224877,-0.023
 03036,-0.00931270,-0.00099276,0.03006333,-0.00841831,0.00047633,0.0347
 2921,0.01495626,-0.19150421,0.36856039,0.00122817,0.00556699,-0.012435
 30,-0.00574907,-0.01691453,-0.00993053,0.00308505,0.03131089,-0.010582
 18,-0.00283372,-0.02421241,-0.01608605,0.02372540,-0.09881322,1.162470
 42,-0.01573097,0.00450677,-0.01358534,-0.00365046,-0.00405932,-0.00092
 346,0.00015496,-0.00576969,0.00285428,-0.00225042,-0.00914591,-0.00201
 943,-0.53444928,0.06934228,-0.23443645,0.58359393,-0.01947207,0.009112
 99,-0.00578661,-0.00474908,0.00588480,0.00240601,0.00322173,-0.0027918
 6,0.00058153,0.00460681,-0.00861613,-0.00445279,0.04328199,-0.09128615
 ,0.02921093,-0.06427384,0.05676290,-0.00843758,0.00322152,-0.00520256,
 -0.00100949,0.00192455,0.00153577,0.00055106,-0.00679372,0.00355245,0.
 00032305,-0.00123691,0.00175486,-0.23586078,0.03745173,-0.21802800,0.2
 6349992,-0.03415962,0.21690845,0.00520357,-0.00345377,0.00414219,0.001
 10078,-0.00194354,-0.00024258,-0.00157017,-0.00325196,0.00130898,-0.00
 246013,0.00000217,-0.00009575,-0.09196344,0.00576734,-0.00975670,0.003
 69794,0.01475602,-0.04322885,0.07799055,0.00127922,-0.00436180,0.02236
 999,-0.00303171,0.00325816,0.00120936,-0.00174755,-0.01340424,0.003398
 82,-0.00030164,-0.00160515,-0.00026747,0.00655768,-0.11518145,0.146330
 74,-0.00049413,0.01923380,0.00673117,-0.00991158,0.09526377,-0.0046416
 8,-0.00663963,-0.01933013,0.00387530,0.00279410,0.00308971,0.00149121,
 0.00349079,0.00199136,0.00111250,0.00799796,0.00863529,-0.01303879,0.1
 3748412,-0.65547545,-0.00008098,0.01091561,-0.01587823,0.00924916,-0.1
 6300420,0.70594924,-0.01333057,-0.00608309,0.00633703,-0.01062331,-0.0
 4269705,-0.01770826,0.00065406,0.00532792,-0.00210417,-0.00037634,0.00
 501868,0.00013510,-0.37580083,0.10849142,0.20601124,-0.03604480,0.0264
 9148,0.02550848,0.00571040,0.00910583,0.00726772,0.40899878,0.02296900
 ,-0.00471486,-0.01654691,-0.01427968,-0.01351044,-0.00763181,-0.004017
 75,-0.00365763,0.00279918,-0.00542120,-0.01171249,-0.00494061,0.132311
 24,-0.13523797,-0.09299870,0.00480530,0.01900126,-0.00407805,-0.004676
 26,0.02069604,0.01103794,-0.13612385,0.13519644,0.01036277,-0.00065688
 ,-0.00711166,-0.00375241,0.00064137,0.00606097,-0.00166783,-0.00753128
 ,0.00399752,-0.00119389,-0.00233235,0.00135520,0.21559909,-0.08289860,
 -0.25309986,-0.01642037,0.00391626,0.01719365,0.03887322,-0.01503830,-
 0.02493063,-0.23626748,0.11269782,0.26924001,0.01196453,0.00845230,0.0
 0234291,-0.04335385,-0.08399222,-0.03449059,-0.00295935,-0.00177454,-0
 .00047942,-0.00398800,-0.00307917,-0.00064960,-0.02853014,0.01176358,0
 .01872607,0.00467910,-0.00386305,-0.00134582,0.00229051,-0.00145611,-0
 .00523444,0.02081260,0.00443321,-0.00553310,0.03908458,0.02139538,-0.0
 0440729,-0.00389024,-0.10416912,-0.36557773,-0.14408685,-0.00221061,-0
 .00250927,0.00021680,-0.00194667,-0.00262624,0.00046930,-0.02085377,0.
 02703595,0.02051930,0.00508855,-0.00730162,-0.00306067,0.00271158,-0.0
 0389913,-0.00407669,0.03046865,-0.00606034,-0.00879805,0.06951601,0.36
 534567,0.00795054,-0.00323227,0.00338263,-0.04263608,-0.14440827,-0.07
 277391,-0.00067023,0.00082327,-0.00165399,-0.00074052,-0.00153914,-0.0
 0088558,-0.00225021,0.01034962,0.01316695,0.00111184,-0.00263133,-0.00
 183638,-0.00024967,-0.00173013,-0.00405116,0.01082034,-0.00033886,-0.0
 1270520,0.02666400,0.14270710,0.07735664\\0.00000348,-0.00000090,0.000
 00093,0.00000105,0.00001877,0.00000800,0.00000004,0.00000214,0.0000047
 9,0.00000367,-0.00000341,0.00000372,-0.00000240,0.00000033,0.00000028,
 -0.00000084,0.00000172,-0.00000077,0.00000083,-0.00000319,-0.00000293,
 -0.00000214,0.00000144,-0.00000483,-0.00000370,-0.00001690,-0.00000919
 \\\@
 The archive entry for this job was punched.


 You don't have to suffer to be a poet.
 Adolescence is enough suffering for anyone.
                             -- John Ciardi
 Job cpu time:       0 days  0 hours 14 minutes 40.7 seconds.
 Elapsed time:       0 days  0 hours  1 minutes 52.7 seconds.
 File lengths (MBytes):  RWF=     75 Int=      0 D2E=      0 Chk=      6 Scr=      1
 Normal termination of Gaussian 16 at Sun May 25 05:19:18 2025.
done
