 Entering Gaussian System, Link 0=g16
 Initial command:
 /apps/easybuild-2022/easybuild/software/Compiler/NVHPC/22.11-CUDA-11.7.0/Gaussian/g16c01-CUDA-11.7.0/g16/l1.exe "/tmp/Gau-103552.inp" -scrdir="/tmp/"
 Entering Link 1 = /apps/easybuild-2022/easybuild/software/Compiler/NVHPC/22.11-CUDA-11.7.0/Gaussian/g16c01-CUDA-11.7.0/g16/l1.exe PID=    103553.
  
 Copyright (c) 1988-2019, Gaussian, Inc.  All Rights Reserved.
  
 This is part of the Gaussian(R) 16 program.  It is based on
 the Gaussian(R) 09 system (copyright 2009, Gaussian, Inc.),
 the Gaussian(R) 03 system (copyright 2003, Gaussian, Inc.),
 the Gaussian(R) 98 system (copyright 1998, Gaussian, Inc.),
 the Gaussian(R) 94 system (copyright 1995, Gaussian, Inc.),
 the Gaussian 92(TM) system (copyright 1992, Gaussian, Inc.),
 the Gaussian 90(TM) system (copyright 1990, Gaussian, Inc.),
 the Gaussian 88(TM) system (copyright 1988, Gaussian, Inc.),
 the Gaussian 86(TM) system (copyright 1986, Carnegie Mellon
 University), and the Gaussian 82(TM) system (copyright 1983,
 Carnegie Mellon University). Gaussian is a federally registered
 trademark of Gaussian, Inc.
  
 This software contains proprietary and confidential information,
 including trade secrets, belonging to Gaussian, Inc.
  
 This software is provided under written license and may be
 used, copied, transmitted, or stored only in accord with that
 written license.
  
 The following legend is applicable only to US Government
 contracts under FAR:
  
                    RESTRICTED RIGHTS LEGEND
  
 Use, reproduction and disclosure by the US Government is
 subject to restrictions as set forth in subparagraphs (a)
 and (c) of the Commercial Computer Software - Restricted
 Rights clause in FAR 52.227-19.
  
 Gaussian, Inc.
 340 Quinnipiac St., Bldg. 40, Wallingford CT 06492
  
  
 ---------------------------------------------------------------
 Warning -- This program may not be used in any manner that
 competes with the business of Gaussian, Inc. or will provide
 assistance to any competitor of Gaussian, Inc.  The licensee
 of this program is prohibited from giving any competitor of
 Gaussian, Inc. access to this program.  By using this program,
 the user acknowledges that Gaussian, Inc. is engaged in the
 business of creating and licensing software in the field of
 computational chemistry and represents and warrants to the
 licensee that it is not a competitor of Gaussian, Inc. and that
 it will not use this program in any manner prohibited above.
 ---------------------------------------------------------------
  

 Cite this work as:
 Gaussian 16, Revision C.01,
 M. J. Frisch, G. W. Trucks, H. B. Schlegel, G. E. Scuseria, 
 M. A. Robb, J. R. Cheeseman, G. Scalmani, V. Barone, 
 G. A. Petersson, H. Nakatsuji, X. Li, M. Caricato, A. V. Marenich, 
 J. Bloino, B. G. Janesko, R. Gomperts, B. Mennucci, H. P. Hratchian, 
 J. V. Ortiz, A. F. Izmaylov, J. L. Sonnenberg, D. Williams-Young, 
 F. Ding, F. Lipparini, F. Egidi, J. Goings, B. Peng, A. Petrone, 
 T. Henderson, D. Ranasinghe, V. G. Zakrzewski, J. Gao, N. Rega, 
 G. Zheng, W. Liang, M. Hada, M. Ehara, K. Toyota, R. Fukuda, 
 J. Hasegawa, M. Ishida, T. Nakajima, Y. Honda, O. Kitao, H. Nakai, 
 T. Vreven, K. Throssell, J. A. Montgomery, Jr., J. E. Peralta, 
 F. Ogliaro, M. J. Bearpark, J. J. Heyd, E. N. Brothers, K. N. Kudin, 
 V. N. Staroverov, T. A. Keith, R. Kobayashi, J. Normand, 
 K. Raghavachari, A. P. Rendell, J. C. Burant, S. S. Iyengar, 
 J. Tomasi, M. Cossi, J. M. Millam, M. Klene, C. Adamo, R. Cammi, 
 J. W. Ochterski, R. L. Martin, K. Morokuma, O. Farkas, 
 J. B. Foresman, and D. J. Fox, Gaussian, Inc., Wallingford CT, 2019.
 
 ******************************************
 Gaussian 16:  ES64L-G16RevC.01  3-Jul-2019
                25-May-2025 
 ******************************************
 %mem=28GB
 %chk=1502984803620600000001_R_Addition_MultipleBond_5_1_2_IRC_R
 %nprocshared=8
 Will use up to    8 processors via shared memory.
 ----------------------------------------------------------------------
 #P mp2/6-31G Symm(None) scf(xqc) pop(None) guess(Read,Mix) geom(AllChe
 ck,NoKeepConstants) irc(RCFC,reverse,MaxPoints=100,StepSize=2)
 ----------------------------------------------------------------------
 1/10=5,18=10,22=2,29=20007,38=1,39=2,42=100,44=3,172=1/1,23;
 2/12=2,15=3,29=1,40=1/2;
 3/5=1,6=6,11=9,14=-4,25=1,30=1,71=2,116=-2,140=1/1,2,3;
 4/5=1,13=-1/1;
 5/5=2,8=3,13=1,38=6/2,8;
 8/6=3,8=1,10=2,19=11,30=-1/1;
 9/15=3,16=-3/6;
 11/6=1,8=1,15=11,17=12,24=-1,27=1,28=-2,29=300,31=1,32=6,42=3/1,2,10;
 10/6=2,21=1,31=1/2;
 8/6=4,8=1,10=2,19=11,30=-1/11,4;
 10/5=1,20=4,31=1/2;
 11/12=2,14=11,16=1,17=2,28=-2,31=1,42=3,76=2/2,10,12;
 7/10=1,12=2,25=1,30=1,44=2/1,2,3,16;
 1/18=10,22=2,39=2,42=100,44=3/23(2);
 2/15=3,29=1/2;
 99/5=20/99;
 2/15=3,29=1/2;
 3/5=1,6=6,11=9,14=-2,25=1,30=1,71=2,140=1/1,2,3;
 4/5=5,16=3,69=1/1;
 5/5=2,8=3,13=1,38=5/2,8;
 8/6=3,8=1,10=2,19=11,30=-1/1;
 9/15=3,16=-3/6;
 11/6=1,8=1,15=11,17=12,24=-1,27=1,28=-2,29=300,31=1,32=6,42=3/1,2,10;
 10/6=2,21=1,31=1/2;
 8/6=4,8=1,10=2,19=11,30=-1/11,4;
 10/5=1,20=4,31=1/2;
 11/12=2,14=11,16=1,17=2,28=-2,31=1,42=3,76=2/2,10,12;
 7/10=1,12=2,25=1,30=1,44=2/1,2,3,16;
 1/18=10,22=2,39=2,42=100,44=3/23(-12);
 2/15=3,29=1/2;
 99/5=20,9=10/99;
 Leave Link    1 at Sun May 25 03:36:03 2025, MaxMem=  3758096384 cpu:               0.0 elap:               0.0
 (Enter /apps/easybuild-2022/easybuild/software/Compiler/NVHPC/22.11-CUDA-11.7.0/Gaussian/g16c01-CUDA-11.7.0/g16/l101.exe)
 Structure from the checkpoint file:  "1502984803620600000001_R_Addition_MultipleBond_5_1_2_IRC_R.chk"
 ------------------------------
 Gaussian input prepared by ASE
 ------------------------------
 Charge =  0 Multiplicity = 1
 No Z-Matrix found in chk file; cartesian coordinates used.
  C                                                -1.048924526634     -0.125996262396      0.068048824761
  F                                                -1.647232793306      1.031420605458     -0.356512326047
  F                                                -1.360633474847     -0.383400789525      1.385302422051
  F                                                -1.402671292159     -1.184553621582     -0.740033498159
  S                                                 0.963984366991     -0.013096698182     -0.014547483299
  O                                                 1.552017314517     -0.043897966365      1.466631630048
  O                                                 1.499542773535     -1.013957011965     -1.133472886118
  O                                                 0.929693326555      1.689885003388     -0.648915844992
  H                                                 1.865099722205      1.998501160103     -0.781107159294
 Recover connectivity data from disk.
 ITRead=  0  0  0  0  0  0  0  0  0
 MicOpt= -1 -1 -1 -1 -1 -1 -1 -1 -1
 NAtoms=      9 NQM=        9 NQMF=       0 NMMI=      0 NMMIF=      0
                NMic=       0 NMicF=      0.
                    Isotopes and Nuclear Properties:
 (Nuclear quadrupole moments (NQMom) in fm**2, nuclear magnetic moments (NMagM)
  in nuclear magnetons)

  Atom         1           2           3           4           5           6           7           8           9
 IAtWgt=          12          19          19          19          32          16          16          16           1
 AtmWgt=  12.0000000  18.9984032  18.9984032  18.9984032  31.9720718  15.9949146  15.9949146  15.9949146   1.0078250
 NucSpn=           0           1           1           1           0           0           0           0           1
 AtZEff=   3.6000000   6.7500000   6.7500000   6.7500000  13.6000000   5.6000000   5.6000000   5.6000000   1.0000000
 NQMom=    0.0000000   0.0000000   0.0000000   0.0000000   0.0000000   0.0000000   0.0000000   0.0000000   0.0000000
 NMagM=    0.0000000   2.6288670   2.6288670   2.6288670   0.0000000   0.0000000   0.0000000   0.0000000   2.7928460
 AtZNuc=   6.0000000   9.0000000   9.0000000   9.0000000  16.0000000   8.0000000   8.0000000   8.0000000   1.0000000
 Leave Link  101 at Sun May 25 03:36:03 2025, MaxMem=  3758096384 cpu:               0.1 elap:               0.1
 (Enter /apps/easybuild-2022/easybuild/software/Compiler/NVHPC/22.11-CUDA-11.7.0/Gaussian/g16c01-CUDA-11.7.0/g16/l123.exe)
 IRC-IRC-IRC-IRC-IRC-IRC-IRC-IRC-IRC-IRC-IRC-IRC-IRC-IRC-IRC-IRC-IRC-IRC
 ------------------------------------------------------------------------
 INPUT DATA FOR L123
 ------------------------------------------------------------------------
 GENERAL PARAMETERS:
 Rxn path following direction = Reverse
 Maximum points per path      = 100
 Step size                    =   0.020 bohr
 Integration scheme           = HPC                                 
    Redo corrector integration= Yes                                 
    DWI Weight Power          =  2
    DWI will use Hessian update vectors when possible.
    Max correction cycles     =  20
 Initial Hessian              = ReadFC from chk
 Hessian evaluation           = All updating
 Hessian updating method      = Bofill                              
 ------------------------------------------------------------------------
          ******** Start new reaction path calculation ********
 RCFC Option Requested - Data Read From Chk File:
 "1502984803620600000001_R_Addition_MultipleBond_5_1_2_IRC_R.chk"
   Energy From Chk =   -959.2580855

 Current Structure is TS -> form Hessian eigenvectors.
                            Diagonalizing Hessian.
 Supplied step size of   0.0200 bohr.
    Integration on MW PES will use step size of   0.0682 sqrt(amu)*bohr.
 Point Number:   0          Path Number:   1
 Calculating another point on the path.
 Point Number  1 in REVERSE path direction.
 Using LQA Reaction Path Following.
 IRC-IRC-IRC-IRC-IRC-IRC-IRC-IRC-IRC-IRC-IRC-IRC-IRC-IRC-IRC-IRC-IRC-IRC
 Leave Link  123 at Sun May 25 03:36:03 2025, MaxMem=  3758096384 cpu:               0.0 elap:               0.0
 (Enter /apps/easybuild-2022/easybuild/software/Compiler/NVHPC/22.11-CUDA-11.7.0/Gaussian/g16c01-CUDA-11.7.0/g16/l202.exe)
                          Input orientation:                          
 ---------------------------------------------------------------------
 Center     Atomic      Atomic             Coordinates (Angstroms)
 Number     Number       Type             X           Y           Z
 ---------------------------------------------------------------------
      1          6           0       -1.048925   -0.126025    0.067964
      2          9           0       -1.647301    1.030124   -0.359980
      3          9           0       -1.360853   -0.379904    1.385836
      4          9           0       -1.402385   -1.186837   -0.737344
      5         16           0        0.963980   -0.013197   -0.014824
      6          8           0        1.552447   -0.046950    1.466146
      7          8           0        1.499059   -1.011964   -1.135830
      8          8           0        0.929762    1.691160   -0.645521
      9          1           0        1.865220    2.000737   -0.775149
 ---------------------------------------------------------------------
                    Distance matrix (angstroms):
                    1          2          3          4          5
     1  C    0.000000
     2  F    1.370354   0.000000
     3  F    1.377875   2.262323   0.000000
     4  F    1.377962   2.262146   2.271731   0.000000
     5  S    2.017764   2.833097   2.738827   2.738457   0.000000
     6  O    2.954370   3.838387   2.933365   3.858205   1.593959
     7  O    2.954019   3.830359   3.864893   2.933896   1.593895
     8  O    2.779645   2.675772   3.696300   3.705429   1.817631
     9  H    3.704888   3.667731   4.554652   4.565008   2.333722
                    6          7          8          9
     6  O    0.000000
     7  O    2.775677   0.000000
     8  O    2.804978   2.805599   0.000000
     9  H    3.051926   3.056229   0.993842   0.000000
 Symmetry turned off by external request.
 Stoichiometry    CHF3O3S
 Rotational constants (GHZ):           2.2373021           1.3612002           1.3445032
 Leave Link  202 at Sun May 25 03:36:03 2025, MaxMem=  3758096384 cpu:               0.0 elap:               0.0
 (Enter /apps/easybuild-2022/easybuild/software/Compiler/NVHPC/22.11-CUDA-11.7.0/Gaussian/g16c01-CUDA-11.7.0/g16/l301.exe)
 Standard basis: 6-31G (6D, 7F)
 Ernie: Thresh=  0.10000D-02 Tol=  0.10000D-05 Strict=F.
    78 basis functions,   204 primitive gaussians,    78 cartesian basis functions
    37 alpha electrons       37 beta electrons
       nuclear repulsion energy       527.0680097357 Hartrees.



 Warning!  S  atom    5 may be hypervalent but has no d functions.



 IExCor=    0 DFT=F Ex=HF Corr=None ExCW=0 ScaHFX=  1.000000
 ScaDFX=  1.000000  1.000000  1.000000  1.000000 ScalE2=  1.000000  1.000000
 IRadAn=      5 IRanWt=     -1 IRanGd=            0 ICorTp=0 IEmpDi=  4
 NAtoms=    9 NActive=    9 NUniq=    9 SFac= 1.00D+00 NAtFMM=   60 NAOKFM=F Big=F
 Integral buffers will be    131072 words long.
 Raffenetti 1 integral format.
 Two-electron integral symmetry is turned off.
 Leave Link  301 at Sun May 25 03:36:03 2025, MaxMem=  3758096384 cpu:               0.0 elap:               0.0
 (Enter /apps/easybuild-2022/easybuild/software/Compiler/NVHPC/22.11-CUDA-11.7.0/Gaussian/g16c01-CUDA-11.7.0/g16/l302.exe)
 NPDir=0 NMtPBC=     1 NCelOv=     1 NCel=       1 NClECP=     1 NCelD=      1
         NCelK=      1 NCelE2=     1 NClLst=     1 CellRange=     0.0.
 One-electron integrals computed using PRISM.
 NBasis=    78 RedAO= T EigKep=  9.47D-03  NBF=    78
 NBsUse=    78 1.00D-06 EigRej= -1.00D+00 NBFU=    78
 Leave Link  302 at Sun May 25 03:36:03 2025, MaxMem=  3758096384 cpu:               0.2 elap:               0.1
 (Enter /apps/easybuild-2022/easybuild/software/Compiler/NVHPC/22.11-CUDA-11.7.0/Gaussian/g16c01-CUDA-11.7.0/g16/l303.exe)
 DipDrv:  MaxL=1.
 Leave Link  303 at Sun May 25 03:36:03 2025, MaxMem=  3758096384 cpu:               0.0 elap:               0.0
 (Enter /apps/easybuild-2022/easybuild/software/Compiler/NVHPC/22.11-CUDA-11.7.0/Gaussian/g16c01-CUDA-11.7.0/g16/l401.exe)
 Initial guess from the checkpoint file:  "1502984803620600000001_R_Addition_MultipleBond_5_1_2_IRC_R.chk"
 B after Tr=     0.000004    0.000035    0.000077
         Rot=    1.000000   -0.000060    0.000010   -0.000002 Ang=  -0.01 deg.
 Guess basis will be translated and rotated to current coordinates.
 JPrj=2 DoOrth=T DoCkMO=T.
 Mixing orbitals, IMix= 1 IMixAn=  0 NRI=1 NE=   37 Coef=  7.07106781D-01  7.07106781D-01
 Leave Link  401 at Sun May 25 03:36:03 2025, MaxMem=  3758096384 cpu:               0.1 elap:               0.0
 (Enter /apps/easybuild-2022/easybuild/software/Compiler/NVHPC/22.11-CUDA-11.7.0/Gaussian/g16c01-CUDA-11.7.0/g16/l502.exe)
 Keep R1 ints in memory in canonical form, NReq=6401873.
 FoFCou: FMM=F IPFlag=           0 FMFlag=           0 FMFlg1=           0
         NFxFlg=           0 DoJE=F BraDBF=F KetDBF=F FulRan=T
         wScrn=  0.000000 ICntrl=       600 IOpCl=  0 I1Cent=           0 NGrid=           0
         NMat0=    1 NMatS0=   3081 NMatT0=    0 NMatD0=    1 NMtDS0=    0 NMtDT0=    0
 Symmetry not used in FoFCou.
 Two-electron integral symmetry not used.
 Closed shell SCF:
 Using DIIS extrapolation, IDIIS=  1040.
 NGot=  3758096384 LenX=  3753334729 LenY=  3753328204
 Requested convergence on RMS density matrix=1.00D-08 within  32 cycles.
 Requested convergence on MAX density matrix=1.00D-06.
 Requested convergence on             energy=1.00D-06.
 No special actions if energy rises.

 Cycle   1  Pass 1  IDiag  1:
 E= -957.930205849935    
 DIIS: error= 2.99D-02 at cycle   1 NSaved=   1.
 NSaved= 1 IEnMin= 1 EnMin= -957.930205849935     IErMin= 1 ErrMin= 2.99D-02
 ErrMax= 2.99D-02  0.00D+00 EMaxC= 1.00D-01 BMatC= 1.05D-01 BMatP= 1.05D-01
 IDIUse=3 WtCom= 7.01D-01 WtEn= 2.99D-01
 Coeff-Com:  0.100D+01
 Coeff-En:   0.100D+01
 Coeff:      0.100D+01
 Gap=     0.169 Goal=   None    Shift=    0.000
 GapD=    0.169 DampG=1.000 DampE=0.500 DampFc=0.5000 IDamp=-1.
 Damping current iteration by 5.00D-01
 RMSDP=1.63D-02 MaxDP=1.59D-01              OVMax= 4.44D-01

 Cycle   2  Pass 1  IDiag  1:
 E= -958.072426713859     Delta-E=       -0.142220863924 Rises=F Damp=T
 DIIS: error= 1.56D-02 at cycle   2 NSaved=   2.
 NSaved= 2 IEnMin= 2 EnMin= -958.072426713859     IErMin= 2 ErrMin= 1.56D-02
 ErrMax= 1.56D-02  0.00D+00 EMaxC= 1.00D-01 BMatC= 1.72D-02 BMatP= 1.05D-01
 IDIUse=3 WtCom= 8.44D-01 WtEn= 1.56D-01
 Coeff-Com:  0.127D+00 0.873D+00
 Coeff-En:   0.000D+00 0.100D+01
 Coeff:      0.107D+00 0.893D+00
 Gap=     0.493 Goal=   None    Shift=    0.000
 RMSDP=8.08D-03 MaxDP=8.86D-02 DE=-1.42D-01 OVMax= 7.98D-02

 Cycle   3  Pass 1  IDiag  1:
 E= -958.274182519053     Delta-E=       -0.201755805194 Rises=F Damp=F
 DIIS: error= 7.25D-03 at cycle   3 NSaved=   3.
 NSaved= 3 IEnMin= 3 EnMin= -958.274182519053     IErMin= 3 ErrMin= 7.25D-03
 ErrMax= 7.25D-03  0.00D+00 EMaxC= 1.00D-01 BMatC= 7.64D-03 BMatP= 1.72D-02
 IDIUse=3 WtCom= 9.28D-01 WtEn= 7.25D-02
 Coeff-Com:  0.142D+00-0.174D+00 0.103D+01
 Coeff-En:   0.000D+00 0.000D+00 0.100D+01
 Coeff:      0.132D+00-0.161D+00 0.103D+01
 Gap=     0.490 Goal=   None    Shift=    0.000
 RMSDP=2.65D-03 MaxDP=2.70D-02 DE=-2.02D-01 OVMax= 8.22D-02

 Cycle   4  Pass 1  IDiag  1:
 E= -958.295858945938     Delta-E=       -0.021676426886 Rises=F Damp=F
 DIIS: error= 4.72D-03 at cycle   4 NSaved=   4.
 NSaved= 4 IEnMin= 4 EnMin= -958.295858945938     IErMin= 4 ErrMin= 4.72D-03
 ErrMax= 4.72D-03  0.00D+00 EMaxC= 1.00D-01 BMatC= 1.66D-03 BMatP= 7.64D-03
 IDIUse=3 WtCom= 9.53D-01 WtEn= 4.72D-02
 Coeff-Com:  0.968D-02-0.139D+00-0.298D+00 0.143D+01
 Coeff-En:   0.000D+00 0.000D+00 0.000D+00 0.100D+01
 Coeff:      0.922D-02-0.132D+00-0.284D+00 0.141D+01
 Gap=     0.530 Goal=   None    Shift=    0.000
 RMSDP=2.14D-03 MaxDP=1.93D-02 DE=-2.17D-02 OVMax= 7.06D-02

 Cycle   5  Pass 1  IDiag  1:
 E= -958.303588473914     Delta-E=       -0.007729527975 Rises=F Damp=F
 DIIS: error= 1.79D-03 at cycle   5 NSaved=   5.
 NSaved= 5 IEnMin= 5 EnMin= -958.303588473914     IErMin= 5 ErrMin= 1.79D-03
 ErrMax= 1.79D-03  0.00D+00 EMaxC= 1.00D-01 BMatC= 2.56D-04 BMatP= 1.66D-03
 IDIUse=3 WtCom= 9.82D-01 WtEn= 1.79D-02
 Coeff-Com: -0.366D-01 0.987D-01-0.119D+00-0.105D+00 0.116D+01
 Coeff-En:   0.000D+00 0.000D+00 0.000D+00 0.000D+00 0.100D+01
 Coeff:     -0.360D-01 0.969D-01-0.117D+00-0.103D+00 0.116D+01
 Gap=     0.528 Goal=   None    Shift=    0.000
 RMSDP=6.21D-04 MaxDP=6.64D-03 DE=-7.73D-03 OVMax= 2.34D-02

 Cycle   6  Pass 1  IDiag  1:
 E= -958.304547010884     Delta-E=       -0.000958536971 Rises=F Damp=F
 DIIS: error= 8.02D-04 at cycle   6 NSaved=   6.
 NSaved= 6 IEnMin= 6 EnMin= -958.304547010884     IErMin= 6 ErrMin= 8.02D-04
 ErrMax= 8.02D-04  0.00D+00 EMaxC= 1.00D-01 BMatC= 5.51D-05 BMatP= 2.56D-04
 IDIUse=3 WtCom= 9.92D-01 WtEn= 8.02D-03
 Coeff-Com:  0.691D-02 0.114D-01 0.407D-01-0.235D+00-0.137D-01 0.119D+01
 Coeff-En:   0.000D+00 0.000D+00 0.000D+00 0.000D+00 0.000D+00 0.100D+01
 Coeff:      0.685D-02 0.114D-01 0.404D-01-0.233D+00-0.136D-01 0.119D+01
 Gap=     0.529 Goal=   None    Shift=    0.000
 RMSDP=3.41D-04 MaxDP=3.75D-03 DE=-9.59D-04 OVMax= 1.05D-02

 Cycle   7  Pass 1  IDiag  1:
 E= -958.304764447597     Delta-E=       -0.000217436713 Rises=F Damp=F
 DIIS: error= 4.19D-04 at cycle   7 NSaved=   7.
 NSaved= 7 IEnMin= 7 EnMin= -958.304764447597     IErMin= 7 ErrMin= 4.19D-04
 ErrMax= 4.19D-04  0.00D+00 EMaxC= 1.00D-01 BMatC= 1.28D-05 BMatP= 5.51D-05
 IDIUse=3 WtCom= 9.96D-01 WtEn= 4.19D-03
 Coeff-Com:  0.111D-01-0.195D-01 0.216D-01-0.278D-01-0.158D+00 0.185D+00
 Coeff-Com:  0.987D+00
 Coeff-En:   0.000D+00 0.000D+00 0.000D+00 0.000D+00 0.000D+00 0.000D+00
 Coeff-En:   0.100D+01
 Coeff:      0.111D-01-0.194D-01 0.215D-01-0.277D-01-0.157D+00 0.184D+00
 Coeff:      0.988D+00
 Gap=     0.530 Goal=   None    Shift=    0.000
 RMSDP=1.31D-04 MaxDP=1.79D-03 DE=-2.17D-04 OVMax= 2.90D-03

 Cycle   8  Pass 1  IDiag  1:
 E= -958.304799234699     Delta-E=       -0.000034787102 Rises=F Damp=F
 DIIS: error= 1.19D-04 at cycle   8 NSaved=   8.
 NSaved= 8 IEnMin= 8 EnMin= -958.304799234699     IErMin= 8 ErrMin= 1.19D-04
 ErrMax= 1.19D-04  0.00D+00 EMaxC= 1.00D-01 BMatC= 1.49D-06 BMatP= 1.28D-05
 IDIUse=3 WtCom= 9.99D-01 WtEn= 1.19D-03
 Coeff-Com: -0.292D-02 0.497D-02-0.128D-01 0.428D-01 0.383D-01-0.290D+00
 Coeff-Com: -0.749D-01 0.129D+01
 Coeff-En:   0.000D+00 0.000D+00 0.000D+00 0.000D+00 0.000D+00 0.000D+00
 Coeff-En:   0.000D+00 0.100D+01
 Coeff:     -0.292D-02 0.496D-02-0.128D-01 0.428D-01 0.383D-01-0.290D+00
 Coeff:     -0.748D-01 0.129D+01
 Gap=     0.531 Goal=   None    Shift=    0.000
 RMSDP=6.07D-05 MaxDP=5.33D-04 DE=-3.48D-05 OVMax= 1.49D-03

 Cycle   9  Pass 1  IDiag  1:
 E= -958.304805830478     Delta-E=       -0.000006595779 Rises=F Damp=F
 DIIS: error= 4.91D-05 at cycle   9 NSaved=   9.
 NSaved= 9 IEnMin= 9 EnMin= -958.304805830478     IErMin= 9 ErrMin= 4.91D-05
 ErrMax= 4.91D-05  0.00D+00 EMaxC= 1.00D-01 BMatC= 1.67D-07 BMatP= 1.49D-06
 IDIUse=1 WtCom= 1.00D+00 WtEn= 0.00D+00
 Coeff-Com: -0.736D-03 0.284D-03-0.301D-02 0.696D-02-0.249D-02 0.999D-02
 Coeff-Com: -0.442D-01-0.182D+00 0.122D+01
 Coeff:     -0.736D-03 0.284D-03-0.301D-02 0.696D-02-0.249D-02 0.999D-02
 Coeff:     -0.442D-01-0.182D+00 0.122D+01
 Gap=     0.531 Goal=   None    Shift=    0.000
 RMSDP=1.94D-05 MaxDP=2.38D-04 DE=-6.60D-06 OVMax= 4.52D-04

 Cycle  10  Pass 1  IDiag  1:
 E= -958.304806464457     Delta-E=       -0.000000633979 Rises=F Damp=F
 DIIS: error= 2.48D-05 at cycle  10 NSaved=  10.
 NSaved=10 IEnMin=10 EnMin= -958.304806464457     IErMin=10 ErrMin= 2.48D-05
 ErrMax= 2.48D-05  0.00D+00 EMaxC= 1.00D-01 BMatC= 6.36D-08 BMatP= 1.67D-07
 IDIUse=1 WtCom= 1.00D+00 WtEn= 0.00D+00
 Coeff-Com:  0.162D-03-0.764D-03 0.174D-02-0.576D-02-0.114D-01 0.644D-01
 Coeff-Com:  0.120D-01-0.354D+00 0.399D+00 0.894D+00
 Coeff:      0.162D-03-0.764D-03 0.174D-02-0.576D-02-0.114D-01 0.644D-01
 Coeff:      0.120D-01-0.354D+00 0.399D+00 0.894D+00
 Gap=     0.531 Goal=   None    Shift=    0.000
 RMSDP=7.04D-06 MaxDP=8.32D-05 DE=-6.34D-07 OVMax= 1.53D-04

 Cycle  11  Pass 1  IDiag  1:
 E= -958.304806585077     Delta-E=       -0.000000120620 Rises=F Damp=F
 DIIS: error= 5.82D-06 at cycle  11 NSaved=  11.
 NSaved=11 IEnMin=11 EnMin= -958.304806585077     IErMin=11 ErrMin= 5.82D-06
 ErrMax= 5.82D-06  0.00D+00 EMaxC= 1.00D-01 BMatC= 4.32D-09 BMatP= 6.36D-08
 IDIUse=1 WtCom= 1.00D+00 WtEn= 0.00D+00
 Coeff-Com:  0.115D-03-0.327D-03 0.959D-03-0.136D-02-0.252D-02 0.720D-02
 Coeff-Com:  0.129D-01-0.303D-01-0.850D-01 0.343D-01 0.106D+01
 Coeff:      0.115D-03-0.327D-03 0.959D-03-0.136D-02-0.252D-02 0.720D-02
 Coeff:      0.129D-01-0.303D-01-0.850D-01 0.343D-01 0.106D+01
 Gap=     0.531 Goal=   None    Shift=    0.000
 RMSDP=2.10D-06 MaxDP=2.81D-05 DE=-1.21D-07 OVMax= 4.56D-05

 Cycle  12  Pass 1  IDiag  1:
 E= -958.304806595523     Delta-E=       -0.000000010446 Rises=F Damp=F
 DIIS: error= 1.34D-06 at cycle  12 NSaved=  12.
 NSaved=12 IEnMin=12 EnMin= -958.304806595523     IErMin=12 ErrMin= 1.34D-06
 ErrMax= 1.34D-06  0.00D+00 EMaxC= 1.00D-01 BMatC= 2.25D-10 BMatP= 4.32D-09
 IDIUse=1 WtCom= 1.00D+00 WtEn= 0.00D+00
 Coeff-Com: -0.130D-04 0.264D-04-0.173D-03 0.619D-03 0.104D-02-0.541D-02
 Coeff-Com: -0.188D-02 0.279D-01-0.127D-01-0.744D-01-0.155D+00 0.122D+01
 Coeff:     -0.130D-04 0.264D-04-0.173D-03 0.619D-03 0.104D-02-0.541D-02
 Coeff:     -0.188D-02 0.279D-01-0.127D-01-0.744D-01-0.155D+00 0.122D+01
 Gap=     0.531 Goal=   None    Shift=    0.000
 RMSDP=6.01D-07 MaxDP=7.37D-06 DE=-1.04D-08 OVMax= 1.53D-05

 Cycle  13  Pass 1  IDiag  1:
 E= -958.304806596342     Delta-E=       -0.000000000819 Rises=F Damp=F
 DIIS: error= 4.71D-07 at cycle  13 NSaved=  13.
 NSaved=13 IEnMin=13 EnMin= -958.304806596342     IErMin=13 ErrMin= 4.71D-07
 ErrMax= 4.71D-07  0.00D+00 EMaxC= 1.00D-01 BMatC= 3.83D-11 BMatP= 2.25D-10
 IDIUse=1 WtCom= 1.00D+00 WtEn= 0.00D+00
 Coeff-Com: -0.536D-05 0.108D-04-0.885D-04 0.191D-03 0.257D-03-0.109D-02
 Coeff-Com: -0.964D-03 0.474D-02 0.664D-02-0.137D-01-0.996D-01 0.195D+00
 Coeff-Com:  0.908D+00
 Coeff:     -0.536D-05 0.108D-04-0.885D-04 0.191D-03 0.257D-03-0.109D-02
 Coeff:     -0.964D-03 0.474D-02 0.664D-02-0.137D-01-0.996D-01 0.195D+00
 Coeff:      0.908D+00
 Gap=     0.531 Goal=   None    Shift=    0.000
 RMSDP=1.54D-07 MaxDP=1.88D-06 DE=-8.19D-10 OVMax= 3.84D-06

 Cycle  14  Pass 1  IDiag  1:
 E= -958.304806596422     Delta-E=       -0.000000000080 Rises=F Damp=F
 DIIS: error= 2.84D-07 at cycle  14 NSaved=  14.
 NSaved=14 IEnMin=14 EnMin= -958.304806596422     IErMin=14 ErrMin= 2.84D-07
 ErrMax= 2.84D-07  0.00D+00 EMaxC= 1.00D-01 BMatC= 1.22D-11 BMatP= 3.83D-11
 IDIUse=1 WtCom= 1.00D+00 WtEn= 0.00D+00
 Coeff-Com:  0.484D-05-0.150D-04 0.321D-04-0.129D-03-0.302D-03 0.147D-02
 Coeff-Com:  0.473D-03-0.825D-02 0.743D-02 0.185D-01 0.175D-01-0.305D+00
 Coeff-Com:  0.303D+00 0.965D+00
 Coeff:      0.484D-05-0.150D-04 0.321D-04-0.129D-03-0.302D-03 0.147D-02
 Coeff:      0.473D-03-0.825D-02 0.743D-02 0.185D-01 0.175D-01-0.305D+00
 Coeff:      0.303D+00 0.965D+00
 Gap=     0.531 Goal=   None    Shift=    0.000
 RMSDP=9.71D-08 MaxDP=1.17D-06 DE=-7.98D-11 OVMax= 2.22D-06

 Cycle  15  Pass 1  IDiag  1:
 E= -958.304806596472     Delta-E=       -0.000000000050 Rises=F Damp=F
 DIIS: error= 1.42D-07 at cycle  15 NSaved=  15.
 NSaved=15 IEnMin=15 EnMin= -958.304806596472     IErMin=15 ErrMin= 1.42D-07
 ErrMax= 1.42D-07  0.00D+00 EMaxC= 1.00D-01 BMatC= 1.26D-12 BMatP= 1.22D-11
 IDIUse=1 WtCom= 1.00D+00 WtEn= 0.00D+00
 Coeff-Com:  0.121D-05-0.559D-05 0.152D-04-0.162D-04-0.526D-04 0.153D-03
 Coeff-Com:  0.184D-03-0.854D-03-0.111D-03 0.136D-02 0.810D-02-0.163D-01
 Coeff-Com: -0.937D-01-0.488D-01 0.115D+01
 Coeff:      0.121D-05-0.559D-05 0.152D-04-0.162D-04-0.526D-04 0.153D-03
 Coeff:      0.184D-03-0.854D-03-0.111D-03 0.136D-02 0.810D-02-0.163D-01
 Coeff:     -0.937D-01-0.488D-01 0.115D+01
 Gap=     0.531 Goal=   None    Shift=    0.000
 RMSDP=4.19D-08 MaxDP=6.47D-07 DE=-4.96D-11 OVMax= 1.02D-06

 Cycle  16  Pass 1  IDiag  1:
 E= -958.304806596457     Delta-E=        0.000000000015 Rises=F Damp=F
 DIIS: error= 5.16D-08 at cycle  16 NSaved=  16.
 NSaved=16 IEnMin=15 EnMin= -958.304806596472     IErMin=16 ErrMin= 5.16D-08
 ErrMax= 5.16D-08  0.00D+00 EMaxC= 1.00D-01 BMatC= 2.72D-13 BMatP= 1.26D-12
 IDIUse=1 WtCom= 1.00D+00 WtEn= 0.00D+00
 Coeff-Com: -0.196D-06-0.323D-06-0.150D-05 0.249D-04 0.417D-04-0.261D-03
 Coeff-Com: -0.302D-04 0.143D-02-0.141D-02-0.366D-02-0.170D-02 0.630D-01
 Coeff-Com: -0.937D-01-0.238D+00 0.267D+00 0.101D+01
 Coeff:     -0.196D-06-0.323D-06-0.150D-05 0.249D-04 0.417D-04-0.261D-03
 Coeff:     -0.302D-04 0.143D-02-0.141D-02-0.366D-02-0.170D-02 0.630D-01
 Coeff:     -0.937D-01-0.238D+00 0.267D+00 0.101D+01
 Gap=     0.531 Goal=   None    Shift=    0.000
 RMSDP=2.25D-08 MaxDP=3.09D-07 DE= 1.46D-11 OVMax= 5.82D-07

 Cycle  17  Pass 1  IDiag  1:
 E= -958.304806596461     Delta-E=       -0.000000000004 Rises=F Damp=F
 DIIS: error= 2.37D-08 at cycle  17 NSaved=  17.
 NSaved=17 IEnMin=15 EnMin= -958.304806596472     IErMin=17 ErrMin= 2.37D-08
 ErrMax= 2.37D-08  0.00D+00 EMaxC= 1.00D-01 BMatC= 4.71D-14 BMatP= 2.72D-13
 IDIUse=1 WtCom= 1.00D+00 WtEn= 0.00D+00
 Coeff-Com:  0.167D-06 0.176D-06-0.289D-05-0.595D-05-0.113D-04 0.931D-04
 Coeff-Com: -0.214D-04-0.536D-03 0.819D-03 0.128D-02-0.551D-03-0.232D-01
 Coeff-Com:  0.547D-01 0.102D+00-0.326D+00-0.302D+00 0.149D+01
 Coeff:      0.167D-06 0.176D-06-0.289D-05-0.595D-05-0.113D-04 0.931D-04
 Coeff:     -0.214D-04-0.536D-03 0.819D-03 0.128D-02-0.551D-03-0.232D-01
 Coeff:      0.547D-01 0.102D+00-0.326D+00-0.302D+00 0.149D+01
 Gap=     0.531 Goal=   None    Shift=    0.000
 RMSDP=1.11D-08 MaxDP=1.87D-07 DE=-4.09D-12 OVMax= 2.83D-07

 Cycle  18  Pass 1  IDiag  1:
 E= -958.304806596472     Delta-E=       -0.000000000011 Rises=F Damp=F
 DIIS: error= 1.06D-08 at cycle  18 NSaved=  18.
 NSaved=18 IEnMin=18 EnMin= -958.304806596472     IErMin=18 ErrMin= 1.06D-08
 ErrMax= 1.06D-08  0.00D+00 EMaxC= 1.00D-01 BMatC= 4.61D-15 BMatP= 4.71D-14
 IDIUse=1 WtCom= 1.00D+00 WtEn= 0.00D+00
 Large coefficients: NSaved= 18 BigCof=    0.00 CofMax=   10.00 Det=-2.88D-15
 Inversion failed.  Reducing to 17 matrices.
 Large coefficients: NSaved= 17 BigCof=    0.00 CofMax=   10.00 Det=-2.94D-15
 Inversion failed.  Reducing to 16 matrices.
 Large coefficients: NSaved= 16 BigCof=    0.00 CofMax=   10.00 Det=-3.73D-15
 Inversion failed.  Reducing to 15 matrices.
 Coeff-Com: -0.477D-06-0.219D-05 0.114D-04 0.136D-06-0.632D-04 0.103D-03
 Coeff-Com:  0.172D-03-0.476D-03-0.330D-02 0.775D-02 0.160D-01-0.213D-01
 Coeff-Com: -0.782D-01-0.782D-01 0.116D+01
 Coeff:     -0.477D-06-0.219D-05 0.114D-04 0.136D-06-0.632D-04 0.103D-03
 Coeff:      0.172D-03-0.476D-03-0.330D-02 0.775D-02 0.160D-01-0.213D-01
 Coeff:     -0.782D-01-0.782D-01 0.116D+01
 Gap=     0.531 Goal=   None    Shift=    0.000
 RMSDP=3.37D-09 MaxDP=5.48D-08 DE=-1.09D-11 OVMax= 8.74D-08

 SCF Done:  E(RHF) =  -958.304806596     A.U. after   18 cycles
            NFock= 18  Conv=0.34D-08     -V/T= 2.0008
 KE= 9.575632361380D+02 PE=-3.331055991724D+03 EE= 8.881199392542D+02
 Leave Link  502 at Sun May 25 03:36:03 2025, MaxMem=  3758096384 cpu:               0.8 elap:               0.2
 (Enter /apps/easybuild-2022/easybuild/software/Compiler/NVHPC/22.11-CUDA-11.7.0/Gaussian/g16c01-CUDA-11.7.0/g16/l508.exe)
 QCSCF skips out because SCF is already converged.
 Leave Link  508 at Sun May 25 03:36:03 2025, MaxMem=  3758096384 cpu:               0.0 elap:               0.0
 (Enter /apps/easybuild-2022/easybuild/software/Compiler/NVHPC/22.11-CUDA-11.7.0/Gaussian/g16c01-CUDA-11.7.0/g16/l801.exe)
 ExpMin= 1.17D-01 ExpMax= 2.19D+04 ExpMxC= 3.30D+03 IAcc=3 IRadAn=         5 AccDes= 0.00D+00
 HarFok:  IExCor=  205 AccDes= 0.00D+00 IRadAn=         5 IDoV=-2 UseB2=F ITyADJ=14
 ICtDFT= 12500011 ScaDFX=  1.000000  1.000000  1.000000  1.000000
 Largest valence mixing into a core orbital is  3.09D-04
 Largest core mixing into a valence orbital is  1.08D-04
 Range of M.O.s used for correlation:    13    78
 NBasis=    78 NAE=    37 NBE=    37 NFC=    12 NFV=     0
 NROrb=     66 NOA=    25 NOB=    25 NVA=    41 NVB=    41
 Leave Link  801 at Sun May 25 03:36:03 2025, MaxMem=  3758096384 cpu:               0.1 elap:               0.0
 (Enter /apps/easybuild-2022/easybuild/software/Compiler/NVHPC/22.11-CUDA-11.7.0/Gaussian/g16c01-CUDA-11.7.0/g16/l906.exe)
 Frozen-core derivative calculation, NFC=  12 NFV=   0.
 FulOut=F Deriv=T AODrv=T NAtomX=     9
   MMem=        1944  MDisk=          25 MDiskD=          25
  W3Min=      225108 MinDsk=      329747 NBas6D=          78
 NBas2D=        3183    NTT=        3081    LW2=     2000000
    MDV=  3758008091 MDiskM=      501603 NBas2p=        3096
 Fully direct method using O(ONN) memory.
 IMap=   1   2   3   4   5   6   7   8   9  10  11  12  13  14  15  16  17  18  19  20
 IMap=  21  22  23  24  25  26  27  28  29  30  31  32  33  34  35  36  37
 JobTyp=1 Pass  1:  I=  13 to  37 NPSUse=  8 ParTrn=T ParDer=T DoDerP=T.
 Spin components of T(2) and E(2):
     alpha-alpha T2 =       0.4461199220D-01 E2=     -0.1289425431D+00
     alpha-beta  T2 =       0.2403992985D+00 E2=     -0.6953941666D+00
     beta-beta   T2 =       0.4461199220D-01 E2=     -0.1289425431D+00
 The integrals were generated   1 times.
 ANorm=    0.1153092920D+01
 E2 =    -0.9532792528D+00 EUMP2 =    -0.95925808584927D+03
 Leave Link  906 at Sun May 25 03:36:04 2025, MaxMem=  3758096384 cpu:               3.1 elap:               0.4
 (Enter /apps/easybuild-2022/easybuild/software/Compiler/NVHPC/22.11-CUDA-11.7.0/Gaussian/g16c01-CUDA-11.7.0/g16/l1101.exe)
 Leave Link 1101 at Sun May 25 03:36:04 2025, MaxMem=  3758096384 cpu:               0.0 elap:               0.0
 (Enter /apps/easybuild-2022/easybuild/software/Compiler/NVHPC/22.11-CUDA-11.7.0/Gaussian/g16c01-CUDA-11.7.0/g16/l1102.exe)
 Leave Link 1102 at Sun May 25 03:36:04 2025, MaxMem=  3758096384 cpu:               0.0 elap:               0.0
 (Enter /apps/easybuild-2022/easybuild/software/Compiler/NVHPC/22.11-CUDA-11.7.0/Gaussian/g16c01-CUDA-11.7.0/g16/l1110.exe)
 Leave Link 1110 at Sun May 25 03:36:04 2025, MaxMem=  3758096384 cpu:               0.0 elap:               0.0
 (Enter /apps/easybuild-2022/easybuild/software/Compiler/NVHPC/22.11-CUDA-11.7.0/Gaussian/g16c01-CUDA-11.7.0/g16/l1002.exe)
 Minotr:  Closed shell wavefunction.
 Leave Link 1002 at Sun May 25 03:36:04 2025, MaxMem=  3758096384 cpu:               0.0 elap:               0.0
 (Enter /apps/easybuild-2022/easybuild/software/Compiler/NVHPC/22.11-CUDA-11.7.0/Gaussian/g16c01-CUDA-11.7.0/g16/l811.exe)
 Leave Link  811 at Sun May 25 03:36:04 2025, MaxMem=  3758096384 cpu:               0.0 elap:               0.0
 (Enter /apps/easybuild-2022/easybuild/software/Compiler/NVHPC/22.11-CUDA-11.7.0/Gaussian/g16c01-CUDA-11.7.0/g16/l804.exe)
 Leave Link  804 at Sun May 25 03:36:04 2025, MaxMem=  3758096384 cpu:               0.0 elap:               0.0
 (Enter /apps/easybuild-2022/easybuild/software/Compiler/NVHPC/22.11-CUDA-11.7.0/Gaussian/g16c01-CUDA-11.7.0/g16/l1002.exe)
 Minotr:  Closed shell wavefunction.
          Computing MP2/KS-MP2 derivatives.
          Using Z-Vector for PSCF gradient.
          Skipping F1 and S1 gradient terms here.
          IDoAtm=111111111
          Frozen-core window.
          Direct CPHF calculation.
          Differentiating once with respect to electric field.
                with respect to dipole field.
          Differentiating once with respect to nuclear coordinates.
          Requested convergence is 1.0D-10 RMS, and 1.0D-09 maximum.
          NewPWx=F KeepS1=T KeepF1=T KeepIn=T MapXYZ=F SortEE=F KeepMc=T.
 Keep R1 ints in memory in canonical form, NReq=6404390.
 FoFCou: FMM=F IPFlag=           0 FMFlag=           0 FMFlg1=           0
         NFxFlg=           0 DoJE=F BraDBF=F KetDBF=F FulRan=T
         wScrn=  0.000000 ICntrl=       600 IOpCl=  0 I1Cent=           0 NGrid=           0
         NMat0=    1 NMatS0=   3081 NMatT0=    0 NMatD0=    1 NMtDS0=    0 NMtDT0=    0
 Symmetry not used in FoFCou.
 Two-electron integral symmetry not used.
          MDV=    3758096384 using IRadAn=       5.
          Solving linear equations separately, MaxMat=       0.
          There are     1 degrees of freedom in the 1st order CPHF.  IDoFFX=0 NUNeed=     1.
 LinEq1:  Iter=  0 NonCon=     1 RMS=1.37D-02 Max=1.89D-01 NDo=     1
 AX will form     1 AO Fock derivatives at one time.
 LinEq1:  Iter=  1 NonCon=     1 RMS=5.14D-03 Max=5.37D-02 NDo=     1
 LinEq1:  Iter=  2 NonCon=     1 RMS=1.78D-03 Max=1.49D-02 NDo=     1
 LinEq1:  Iter=  3 NonCon=     1 RMS=6.86D-04 Max=1.18D-02 NDo=     1
 LinEq1:  Iter=  4 NonCon=     1 RMS=2.81D-04 Max=3.61D-03 NDo=     1
 LinEq1:  Iter=  5 NonCon=     1 RMS=1.22D-04 Max=1.28D-03 NDo=     1
 LinEq1:  Iter=  6 NonCon=     1 RMS=3.21D-05 Max=3.74D-04 NDo=     1
 LinEq1:  Iter=  7 NonCon=     1 RMS=1.59D-05 Max=1.33D-04 NDo=     1
 LinEq1:  Iter=  8 NonCon=     1 RMS=3.96D-06 Max=3.29D-05 NDo=     1
 LinEq1:  Iter=  9 NonCon=     1 RMS=1.20D-06 Max=1.77D-05 NDo=     1
 LinEq1:  Iter= 10 NonCon=     1 RMS=2.37D-07 Max=1.99D-06 NDo=     1
 LinEq1:  Iter= 11 NonCon=     1 RMS=4.79D-08 Max=5.13D-07 NDo=     1
 LinEq1:  Iter= 12 NonCon=     1 RMS=1.74D-08 Max=2.23D-07 NDo=     1
 LinEq1:  Iter= 13 NonCon=     1 RMS=9.01D-09 Max=9.70D-08 NDo=     1
 LinEq1:  Iter= 14 NonCon=     1 RMS=2.51D-09 Max=2.06D-08 NDo=     1
 LinEq1:  Iter= 15 NonCon=     1 RMS=1.27D-09 Max=1.27D-08 NDo=     1
 LinEq1:  Iter= 16 NonCon=     1 RMS=2.71D-10 Max=2.74D-09 NDo=     1
 LinEq1:  Iter= 17 NonCon=     0 RMS=3.83D-11 Max=3.79D-10 NDo=     1
 Linear equations converged to 1.000D-10 1.000D-09 after    17 iterations.
 End of Minotr F.D. properties file   721 does not exist.
 End of Minotr F.D. properties file   722 does not exist.
 End of Minotr F.D. properties file   788 does not exist.
 Leave Link 1002 at Sun May 25 03:36:04 2025, MaxMem=  3758096384 cpu:               0.8 elap:               0.2
 (Enter /apps/easybuild-2022/easybuild/software/Compiler/NVHPC/22.11-CUDA-11.7.0/Gaussian/g16c01-CUDA-11.7.0/g16/l1102.exe)
 Use density number 2.
 Symmetrizing basis deriv contribution to polar:
 IMax=3 JMax=2 DiffMx= 0.00D+00
 Leave Link 1102 at Sun May 25 03:36:04 2025, MaxMem=  3758096384 cpu:               0.0 elap:               0.0
 (Enter /apps/easybuild-2022/easybuild/software/Compiler/NVHPC/22.11-CUDA-11.7.0/Gaussian/g16c01-CUDA-11.7.0/g16/l1110.exe)
 Leave Link 1110 at Sun May 25 03:36:04 2025, MaxMem=  3758096384 cpu:               0.0 elap:               0.0
 (Enter /apps/easybuild-2022/easybuild/software/Compiler/NVHPC/22.11-CUDA-11.7.0/Gaussian/g16c01-CUDA-11.7.0/g16/l1112.exe)
 Leave Link 1112 at Sun May 25 03:36:04 2025, MaxMem=  3758096384 cpu:               0.0 elap:               0.0
 (Enter /apps/easybuild-2022/easybuild/software/Compiler/NVHPC/22.11-CUDA-11.7.0/Gaussian/g16c01-CUDA-11.7.0/g16/l701.exe)
 ... and contract with generalized density number  2.
 Compute integral first derivatives.
 Leave Link  701 at Sun May 25 03:36:04 2025, MaxMem=  3758096384 cpu:               0.2 elap:               0.0
 (Enter /apps/easybuild-2022/easybuild/software/Compiler/NVHPC/22.11-CUDA-11.7.0/Gaussian/g16c01-CUDA-11.7.0/g16/l702.exe)
 L702 exits ... SP integral derivatives will be done elsewhere.
 Leave Link  702 at Sun May 25 03:36:04 2025, MaxMem=  3758096384 cpu:               0.0 elap:               0.0
 (Enter /apps/easybuild-2022/easybuild/software/Compiler/NVHPC/22.11-CUDA-11.7.0/Gaussian/g16c01-CUDA-11.7.0/g16/l703.exe)
 Integral derivatives from FoFJK, PRISM(SPDF).
 Compute integral first derivatives, UseDBF=F ICtDFT=           0.
 Calling FoFJK, ICntrl=  10002127 FMM=F ISym2X=0 I1Cent= 0 IOpClX= 0 NMat=1 NMatS=1 NMatT=0.
 FoFJK:  IHMeth= 1 ICntrl=10002127 DoSepK=F KAlg= 0 I1Cent=           0 FoldK=F
 IRaf=         0 NMat=       1 IRICut=       1 DoRegI=T DoRafI=F ISym2E= 0 IDoP0=0 IntGTp=1.
 FoFCou: FMM=F IPFlag=           0 FMFlag=      100000 FMFlg1=         800
         NFxFlg=           0 DoJE=F BraDBF=F KetDBF=F FulRan=T
         wScrn=  0.000000 ICntrl=  10002127 IOpCl=  0 I1Cent=           0 NGrid=           0
         NMat0=    1 NMatS0=      1 NMatT0=    0 NMatD0=    1 NMtDS0=    0 NMtDT0=    0
 Symmetry not used in FoFCou.
 Leave Link  703 at Sun May 25 03:36:04 2025, MaxMem=  3758096384 cpu:               0.5 elap:               0.1
 (Enter /apps/easybuild-2022/easybuild/software/Compiler/NVHPC/22.11-CUDA-11.7.0/Gaussian/g16c01-CUDA-11.7.0/g16/l716.exe)
 Dipole        =-1.42684926D-01 6.95515941D-01-2.51903557D-01
 Polarizability= 0.00000000D+00 0.00000000D+00 0.00000000D+00
                 0.00000000D+00 0.00000000D+00 0.00000000D+00
 -------------------------------------------------------------------
 Center     Atomic                   Forces (Hartrees/Bohr)
 Number     Number              X              Y              Z
 -------------------------------------------------------------------
      1        6          -0.000004733   -0.000000155   -0.000000073
      2        9           0.000003459   -0.000013607   -0.000008784
      3        9           0.000000254    0.000013974   -0.000007854
      4        9           0.000002325   -0.000000265    0.000015460
      5       16           0.000004777   -0.000001088   -0.000001603
      6        8          -0.000001135   -0.000008906   -0.000007679
      7        8          -0.000003668    0.000009959   -0.000002163
      8        8           0.000003026    0.000002830    0.000010300
      9        1          -0.000004305   -0.000002741    0.000002396
 -------------------------------------------------------------------
 Cartesian Forces:  Max     0.000015460 RMS     0.000006768
 Leave Link  716 at Sun May 25 03:36:04 2025, MaxMem=  3758096384 cpu:               0.0 elap:               0.0
 (Enter /apps/easybuild-2022/easybuild/software/Compiler/NVHPC/22.11-CUDA-11.7.0/Gaussian/g16c01-CUDA-11.7.0/g16/l123.exe)
 IRC-IRC-IRC-IRC-IRC-IRC-IRC-IRC-IRC-IRC-IRC-IRC-IRC-IRC-IRC-IRC-IRC-IRC
 Pt  1 Step number   1 out of a maximum of  20
 Using modified Bulirsch-Stoer corrector integration.
   Using distance weighted interpolants to fit PES.
 PreDWI: IReCr0= 2 IReCr1= 1 IReCr2= 1 IReCr3= 1
 Modified Bulirsch-Stoer Extrapolation Cycles:
    EPS =    0.000010000000000
    Cycle     1 NS=    48
      PEZero:  N= 2 I= 1 D=  1.78D-04 Err=  4.83D-04
    Cycle     2 NS=    64 Truncation Error =  0.000482803
      PEZero:  N= 3 I= 2 D=  1.78D-04 Err=  7.46D-04
      PEZero:  N= 3 I= 1 D=  3.55D-04 Err=  6.36D-04
    Cycle     3 NS=    96 Truncation Error =  0.000636315
      PEZero:  N= 4 I= 3 D=  8.88D-05 Err=  1.34D-03
      PEZero:  N= 4 I= 2 D=  2.66D-04 Err=  1.04D-03
      PEZero:  N= 4 I= 1 D=  4.44D-04 Err=  8.66D-04
    Cycle     4 NS=   128 Truncation Error =  0.000866468
      PEZero:  N= 5 I= 4 D=  8.88D-05 Err=  2.03D-03
      PEZero:  N= 5 I= 3 D=  1.78D-04 Err=  1.71D-03
      PEZero:  N= 5 I= 2 D=  3.55D-04 Err=  1.19D-03
      PEZero:  N= 5 I= 1 D=  5.33D-04 Err=  9.04D-04
    Cycle     5 NS=   192 Truncation Error =  0.000903769
      PEZero:  N= 6 I= 5 D=  4.44D-05 Err=  3.27D-03
      PEZero:  N= 6 I= 4 D=  1.33D-04 Err=  2.33D-03
      PEZero:  N= 6 I= 3 D=  2.22D-04 Err=  1.76D-03
      PEZero:  N= 6 I= 2 D=  4.00D-04 Err=  1.17D-03
      PEZero:  N= 6 I= 1 D=  5.77D-04 Err=  8.73D-04
    Cycle     6 NS=   256 Truncation Error =  0.000872670
      PEZero:  N= 7 I= 6 D=  4.44D-05 Err=  4.43D-03
      PEZero:  N= 7 I= 5 D=  8.88D-05 Err=  3.37D-03
      PEZero:  N= 7 I= 4 D=  1.78D-04 Err=  2.21D-03
      PEZero:  N= 7 I= 3 D=  2.66D-04 Err=  1.62D-03
      PEZero:  N= 7 I= 2 D=  4.44D-04 Err=  1.06D-03
      PEZero:  N= 7 I= 1 D=  6.22D-04 Err=  7.85D-04
    Cycle     7 NS=   384 Truncation Error =  0.000784766
      PEZero:  N= 8 I= 7 D=  2.22D-05 Err=  6.31D-03
      PEZero:  N= 8 I= 6 D=  6.66D-05 Err=  3.99D-03
      PEZero:  N= 8 I= 5 D=  1.11D-04 Err=  2.76D-03
      PEZero:  N= 8 I= 4 D=  2.00D-04 Err=  1.72D-03
      PEZero:  N= 8 I= 3 D=  2.89D-04 Err=  1.21D-03
      PEZero:  N= 8 I= 2 D=  4.66D-04 Err=  7.73D-04
      PEZero:  N= 8 I= 1 D=  6.44D-04 Err=  5.59D-04
    Cycle     8 NS=   512 Truncation Error =  0.000558871
      PEZero:  N= 9 I= 8 D=  2.22D-05 Err=  7.38D-03
      PEZero:  N= 9 I= 7 D=  4.44D-05 Err=  4.76D-03
      PEZero:  N= 9 I= 6 D=  8.88D-05 Err=  2.76D-03
      PEZero:  N= 9 I= 5 D=  1.33D-04 Err=  1.84D-03
      PEZero:  N= 9 I= 4 D=  2.22D-04 Err=  1.13D-03
      PEZero:  N= 9 I= 3 D=  3.11D-04 Err=  7.95D-04
      PEZero:  N= 9 I= 2 D=  4.89D-04 Err=  5.08D-04
      PEZero:  N= 9 I= 1 D=  6.66D-04 Err=  3.69D-04
    Cycle     9 NS=   768 Truncation Error =  0.000369320
      PEZero:  N=10 I= 9 D=  1.11D-05 Err=  6.02D-03
      PEZero:  N=10 I= 8 D=  3.33D-05 Err=  6.51D-04
      PEZero:  N=10 I= 7 D=  5.55D-05 Err=  2.07D-03
    Cycle    10 NS=  1024 Truncation Error =  0.000650693
      PEZero:  N=11 I=10 D=  1.11D-05 Err=  2.62D-04
      PEZero:  N=11 I= 9 D=  2.22D-05 Err=  5.63D-03
    Cycle    11 NS=  1536 Truncation Error =  0.000261775
 Maximum DWI energy   std dev =  0.000000109 at pt   177
 Maximum DWI gradient std dev =  2.032202714 at pt     2
 WARNING: Bulirsch-Stoer Method is not Converging
 SUMMARY OF CORRECTOR INTEGRATION:
   Predictor End Point Energy =  -959.258086
   Old End Point Energy       =  -959.258086
   Corrected End Point Energy =  -959.258086
   Predictor End-Start Dist.  =     0.068214
   Old End-Start Dist.        =     0.068214
   New End-Start Dist.        =     0.068189
   New End-Old End Dist.      =     0.000233
 CORRECTOR INTEGRATION CONVERGENCE:
   Recorrection delta-x convergence threshold:    0.010000
   Delta-x Convergence NOT Met
 IRC-IRC-IRC-IRC-IRC-IRC-IRC-IRC-IRC-IRC-IRC-IRC-IRC-IRC-IRC-IRC-IRC-IRC
 Leave Link  123 at Sun May 25 03:36:05 2025, MaxMem=  3758096384 cpu:               0.9 elap:               0.1
 (Enter /apps/easybuild-2022/easybuild/software/Compiler/NVHPC/22.11-CUDA-11.7.0/Gaussian/g16c01-CUDA-11.7.0/g16/l202.exe)
                          Input orientation:                          
 ---------------------------------------------------------------------
 Center     Atomic      Atomic             Coordinates (Angstroms)
 Number     Number       Type             X           Y           Z
 ---------------------------------------------------------------------
      1          6           0       -1.048922   -0.126025    0.067964
      2          9           0       -1.647292    1.030115   -0.359975
      3          9           0       -1.360853   -0.379904    1.385823
      4          9           0       -1.402385   -1.186826   -0.737339
      5         16           0        0.963978   -0.013197   -0.014824
      6          8           0        1.552447   -0.046946    1.466138
      7          8           0        1.499056   -1.011960   -1.135824
      8          8           0        0.929756    1.691151   -0.645517
      9          1           0        1.865212    2.000725   -0.775118
 ---------------------------------------------------------------------
                    Distance matrix (angstroms):
                    1          2          3          4          5
     1  C    0.000000
     2  F    1.370343   0.000000
     3  F    1.377864   2.262302   0.000000
     4  F    1.377950   2.262125   2.271710   0.000000
     5  S    2.017759   2.833084   2.738819   2.738450   0.000000
     6  O    2.954364   3.838370   2.933365   3.858196   1.593952
     7  O    2.954011   3.830342   3.864878   2.933893   1.593888
     8  O    2.779631   2.675758   3.696282   3.705410   1.817621
     9  H    3.704866   3.667712   4.554619   4.564986   2.333699
                    6          7          8          9
     6  O    0.000000
     7  O    2.775664   0.000000
     8  O    2.804962   2.805586   0.000000
     9  H    3.051886   3.056215   0.993836   0.000000
 Symmetry turned off by external request.
 Stoichiometry    CHF3O3S
 Rotational constants (GHZ):           2.2373331           1.3612095           1.3445129
 Leave Link  202 at Sun May 25 03:36:05 2025, MaxMem=  3758096384 cpu:               0.0 elap:               0.0
 (Enter /apps/easybuild-2022/easybuild/software/Compiler/NVHPC/22.11-CUDA-11.7.0/Gaussian/g16c01-CUDA-11.7.0/g16/l301.exe)
 Standard basis: 6-31G (6D, 7F)
 Ernie: Thresh=  0.10000D-02 Tol=  0.10000D-05 Strict=F.
    78 basis functions,   204 primitive gaussians,    78 cartesian basis functions
    37 alpha electrons       37 beta electrons
       nuclear repulsion energy       527.0706682372 Hartrees.



 Warning!  S  atom    5 may be hypervalent but has no d functions.



 IExCor=    0 DFT=F Ex=HF Corr=None ExCW=0 ScaHFX=  1.000000
 ScaDFX=  1.000000  1.000000  1.000000  1.000000 ScalE2=  1.000000  1.000000
 IRadAn=      5 IRanWt=     -1 IRanGd=            0 ICorTp=0 IEmpDi=  4
 NAtoms=    9 NActive=    9 NUniq=    9 SFac= 1.00D+00 NAtFMM=   60 NAOKFM=F Big=F
 Integral buffers will be    131072 words long.
 Raffenetti 1 integral format.
 Two-electron integral symmetry is turned off.
 Leave Link  301 at Sun May 25 03:36:05 2025, MaxMem=  3758096384 cpu:               0.0 elap:               0.0
 (Enter /apps/easybuild-2022/easybuild/software/Compiler/NVHPC/22.11-CUDA-11.7.0/Gaussian/g16c01-CUDA-11.7.0/g16/l302.exe)
 NPDir=0 NMtPBC=     1 NCelOv=     1 NCel=       1 NClECP=     1 NCelD=      1
         NCelK=      1 NCelE2=     1 NClLst=     1 CellRange=     0.0.
 One-electron integrals computed using PRISM.
 NBasis=    78 RedAO= T EigKep=  9.46D-03  NBF=    78
 NBsUse=    78 1.00D-06 EigRej= -1.00D+00 NBFU=    78
 Leave Link  302 at Sun May 25 03:36:05 2025, MaxMem=  3758096384 cpu:               0.2 elap:               0.1
 (Enter /apps/easybuild-2022/easybuild/software/Compiler/NVHPC/22.11-CUDA-11.7.0/Gaussian/g16c01-CUDA-11.7.0/g16/l303.exe)
 DipDrv:  MaxL=1.
 Leave Link  303 at Sun May 25 03:36:05 2025, MaxMem=  3758096384 cpu:               0.0 elap:               0.0
 (Enter /apps/easybuild-2022/easybuild/software/Compiler/NVHPC/22.11-CUDA-11.7.0/Gaussian/g16c01-CUDA-11.7.0/g16/l401.exe)
 Initial guess from the checkpoint file:  "1502984803620600000001_R_Addition_MultipleBond_5_1_2_IRC_R.chk"
 B after Tr=    -0.000000   -0.000000    0.000001
         Rot=    1.000000   -0.000000    0.000000    0.000000 Ang=  -0.00 deg.
 Guess basis will be translated and rotated to current coordinates.
 JPrj=2 DoOrth=T DoCkMO=T.
 Generating alternative initial guess.
 ExpMin= 1.17D-01 ExpMax= 2.19D+04 ExpMxC= 3.30D+03 IAcc=3 IRadAn=         5 AccDes= 0.00D+00
 Harris functional with IExCor=  205 and IRadAn=       5 diagonalized for initial guess.
 HarFok:  IExCor=  205 AccDes= 0.00D+00 IRadAn=         5 IDoV= 1 UseB2=F ITyADJ=14
 ICtDFT=  3500011 ScaDFX=  1.000000  1.000000  1.000000  1.000000
 FoFCou: FMM=F IPFlag=           0 FMFlag=      100000 FMFlg1=           0
         NFxFlg=           0 DoJE=T BraDBF=F KetDBF=T FulRan=T
         wScrn=  0.000000 ICntrl=       500 IOpCl=  0 I1Cent=   200000004 NGrid=           0
         NMat0=    1 NMatS0=      1 NMatT0=    0 NMatD0=    1 NMtDS0=    0 NMtDT0=    0
 Symmetry not used in FoFCou.
 Harris En= -958.260329753852    
 Leave Link  401 at Sun May 25 03:36:05 2025, MaxMem=  3758096384 cpu:               0.6 elap:               0.1
 (Enter /apps/easybuild-2022/easybuild/software/Compiler/NVHPC/22.11-CUDA-11.7.0/Gaussian/g16c01-CUDA-11.7.0/g16/l502.exe)
 Keep R1 ints in memory in canonical form, NReq=6401873.
 FoFCou: FMM=F IPFlag=           0 FMFlag=           0 FMFlg1=           0
         NFxFlg=           0 DoJE=F BraDBF=F KetDBF=F FulRan=T
         wScrn=  0.000000 ICntrl=       600 IOpCl=  0 I1Cent=           0 NGrid=           0
         NMat0=    1 NMatS0=   3081 NMatT0=    0 NMatD0=    1 NMtDS0=    0 NMtDT0=    0
 Symmetry not used in FoFCou.
 Two-electron integral symmetry not used.
 Closed shell SCF:
 Using DIIS extrapolation, IDIIS=  1040.
 NGot=  3758096384 LenX=  3753334729 LenY=  3753328204
 Requested convergence on RMS density matrix=1.00D-08 within  32 cycles.
 Requested convergence on MAX density matrix=1.00D-06.
 Requested convergence on             energy=1.00D-06.
 No special actions if energy rises.

 Cycle   1  Pass 1  IDiag  1:
 E= -958.304810100051    
 DIIS: error= 1.35D-06 at cycle   1 NSaved=   1.
 NSaved= 1 IEnMin= 1 EnMin= -958.304810100051     IErMin= 1 ErrMin= 1.35D-06
 ErrMax= 1.35D-06  0.00D+00 EMaxC= 1.00D-01 BMatC= 2.71D-10 BMatP= 2.71D-10
 IDIUse=1 WtCom= 1.00D+00 WtEn= 0.00D+00
 Coeff-Com:  0.100D+01
 Coeff:      0.100D+01
 Gap=     1.191 Goal=   None    Shift=    0.000
 RMSDP=2.97D-07 MaxDP=4.07D-06              OVMax= 1.89D-06

 Cycle   2  Pass 1  IDiag  1:
 E= -958.304810100390     Delta-E=       -0.000000000339 Rises=F Damp=F
 DIIS: error= 3.31D-07 at cycle   2 NSaved=   2.
 NSaved= 2 IEnMin= 2 EnMin= -958.304810100390     IErMin= 2 ErrMin= 3.31D-07
 ErrMax= 3.31D-07  0.00D+00 EMaxC= 1.00D-01 BMatC= 2.17D-11 BMatP= 2.71D-10
 IDIUse=1 WtCom= 1.00D+00 WtEn= 0.00D+00
 Coeff-Com: -0.786D-01 0.108D+01
 Coeff:     -0.786D-01 0.108D+01
 Gap=     0.531 Goal=   None    Shift=    0.000
 RMSDP=1.04D-07 MaxDP=1.26D-06 DE=-3.39D-10 OVMax= 1.16D-06

 Cycle   3  Pass 1  IDiag  1:
 E= -958.304810100416     Delta-E=       -0.000000000026 Rises=F Damp=F
 DIIS: error= 1.92D-07 at cycle   3 NSaved=   3.
 NSaved= 3 IEnMin= 3 EnMin= -958.304810100416     IErMin= 3 ErrMin= 1.92D-07
 ErrMax= 1.92D-07  0.00D+00 EMaxC= 1.00D-01 BMatC= 4.84D-12 BMatP= 2.17D-11
 IDIUse=1 WtCom= 1.00D+00 WtEn= 0.00D+00
 Coeff-Com: -0.943D-01 0.237D+00 0.857D+00
 Coeff:     -0.943D-01 0.237D+00 0.857D+00
 Gap=     0.531 Goal=   None    Shift=    0.000
 RMSDP=4.10D-08 MaxDP=5.29D-07 DE=-2.64D-11 OVMax= 7.83D-07

 Cycle   4  Pass 1  IDiag  1:
 E= -958.304810100447     Delta-E=       -0.000000000031 Rises=F Damp=F
 DIIS: error= 8.49D-08 at cycle   4 NSaved=   4.
 NSaved= 4 IEnMin= 4 EnMin= -958.304810100447     IErMin= 4 ErrMin= 8.49D-08
 ErrMax= 8.49D-08  0.00D+00 EMaxC= 1.00D-01 BMatC= 7.72D-13 BMatP= 4.84D-12
 IDIUse=1 WtCom= 1.00D+00 WtEn= 0.00D+00
 Coeff-Com: -0.115D-01-0.753D-01 0.176D+00 0.911D+00
 Coeff:     -0.115D-01-0.753D-01 0.176D+00 0.911D+00
 Gap=     0.531 Goal=   None    Shift=    0.000
 RMSDP=2.02D-08 MaxDP=1.99D-07 DE=-3.09D-11 OVMax= 3.23D-07

 Cycle   5  Pass 1  IDiag  1:
 E= -958.304810100443     Delta-E=        0.000000000005 Rises=F Damp=F
 DIIS: error= 3.86D-08 at cycle   5 NSaved=   5.
 NSaved= 5 IEnMin= 4 EnMin= -958.304810100447     IErMin= 5 ErrMin= 3.86D-08
 ErrMax= 3.86D-08  0.00D+00 EMaxC= 1.00D-01 BMatC= 1.10D-13 BMatP= 7.72D-13
 IDIUse=1 WtCom= 1.00D+00 WtEn= 0.00D+00
 Coeff-Com:  0.175D-01-0.526D-01-0.152D+00 0.648D-01 0.112D+01
 Coeff:      0.175D-01-0.526D-01-0.152D+00 0.648D-01 0.112D+01
 Gap=     0.531 Goal=   None    Shift=    0.000
 RMSDP=1.26D-08 MaxDP=1.26D-07 DE= 4.55D-12 OVMax= 2.63D-07

 Cycle   6  Pass 1  IDiag  1:
 E= -958.304810100446     Delta-E=       -0.000000000003 Rises=F Damp=F
 DIIS: error= 1.24D-08 at cycle   6 NSaved=   6.
 NSaved= 6 IEnMin= 4 EnMin= -958.304810100447     IErMin= 6 ErrMin= 1.24D-08
 ErrMax= 1.24D-08  0.00D+00 EMaxC= 1.00D-01 BMatC= 1.73D-14 BMatP= 1.10D-13
 IDIUse=1 WtCom= 1.00D+00 WtEn= 0.00D+00
 Coeff-Com:  0.449D-02-0.344D-03-0.488D-01-0.909D-01 0.224D+00 0.911D+00
 Coeff:      0.449D-02-0.344D-03-0.488D-01-0.909D-01 0.224D+00 0.911D+00
 Gap=     0.531 Goal=   None    Shift=    0.000
 RMSDP=3.91D-09 MaxDP=7.28D-08 DE=-3.18D-12 OVMax= 6.90D-08

 SCF Done:  E(RHF) =  -958.304810100     A.U. after    6 cycles
            NFock=  6  Conv=0.39D-08     -V/T= 2.0008
 KE= 9.575633772525D+02 PE=-3.331061299664D+03 EE= 8.881224440735D+02
 Leave Link  502 at Sun May 25 03:36:05 2025, MaxMem=  3758096384 cpu:               0.4 elap:               0.1
 (Enter /apps/easybuild-2022/easybuild/software/Compiler/NVHPC/22.11-CUDA-11.7.0/Gaussian/g16c01-CUDA-11.7.0/g16/l508.exe)
 QCSCF skips out because SCF is already converged.
 Leave Link  508 at Sun May 25 03:36:05 2025, MaxMem=  3758096384 cpu:               0.0 elap:               0.0
 (Enter /apps/easybuild-2022/easybuild/software/Compiler/NVHPC/22.11-CUDA-11.7.0/Gaussian/g16c01-CUDA-11.7.0/g16/l801.exe)
 ExpMin= 1.17D-01 ExpMax= 2.19D+04 ExpMxC= 3.30D+03 IAcc=3 IRadAn=         5 AccDes= 0.00D+00
 HarFok:  IExCor=  205 AccDes= 0.00D+00 IRadAn=         5 IDoV=-2 UseB2=F ITyADJ=14
 ICtDFT= 12500011 ScaDFX=  1.000000  1.000000  1.000000  1.000000
 Largest valence mixing into a core orbital is  3.09D-04
 Largest core mixing into a valence orbital is  1.08D-04
 Range of M.O.s used for correlation:    13    78
 NBasis=    78 NAE=    37 NBE=    37 NFC=    12 NFV=     0
 NROrb=     66 NOA=    25 NOB=    25 NVA=    41 NVB=    41
 Leave Link  801 at Sun May 25 03:36:05 2025, MaxMem=  3758096384 cpu:               0.1 elap:               0.0
 (Enter /apps/easybuild-2022/easybuild/software/Compiler/NVHPC/22.11-CUDA-11.7.0/Gaussian/g16c01-CUDA-11.7.0/g16/l906.exe)
 Frozen-core derivative calculation, NFC=  12 NFV=   0.
 FulOut=F Deriv=T AODrv=T NAtomX=     9
   MMem=        1944  MDisk=          25 MDiskD=          25
  W3Min=      225108 MinDsk=      329747 NBas6D=          78
 NBas2D=        3183    NTT=        3081    LW2=     2000000
    MDV=  3758008091 MDiskM=      501603 NBas2p=        3096
 Fully direct method using O(ONN) memory.
 IMap=   1   2   3   4   5   6   7   8   9  10  11  12  13  14  15  16  17  18  19  20
 IMap=  21  22  23  24  25  26  27  28  29  30  31  32  33  34  35  36  37
 JobTyp=1 Pass  1:  I=  13 to  37 NPSUse=  8 ParTrn=T ParDer=T DoDerP=T.
 Spin components of T(2) and E(2):
     alpha-alpha T2 =       0.4461161963D-01 E2=     -0.1289421507D+00
     alpha-beta  T2 =       0.2403966708D+00 E2=     -0.6953914269D+00
     beta-beta   T2 =       0.4461161963D-01 E2=     -0.1289421507D+00
 The integrals were generated   1 times.
 ANorm=    0.1153091458D+01
 E2 =    -0.9532757284D+00 EUMP2 =    -0.95925808582885D+03
 Leave Link  906 at Sun May 25 03:36:05 2025, MaxMem=  3758096384 cpu:               3.1 elap:               0.4
 (Enter /apps/easybuild-2022/easybuild/software/Compiler/NVHPC/22.11-CUDA-11.7.0/Gaussian/g16c01-CUDA-11.7.0/g16/l1101.exe)
 Leave Link 1101 at Sun May 25 03:36:06 2025, MaxMem=  3758096384 cpu:               0.0 elap:               0.0
 (Enter /apps/easybuild-2022/easybuild/software/Compiler/NVHPC/22.11-CUDA-11.7.0/Gaussian/g16c01-CUDA-11.7.0/g16/l1102.exe)
 Leave Link 1102 at Sun May 25 03:36:06 2025, MaxMem=  3758096384 cpu:               0.0 elap:               0.0
 (Enter /apps/easybuild-2022/easybuild/software/Compiler/NVHPC/22.11-CUDA-11.7.0/Gaussian/g16c01-CUDA-11.7.0/g16/l1110.exe)
 Leave Link 1110 at Sun May 25 03:36:06 2025, MaxMem=  3758096384 cpu:               0.0 elap:               0.0
 (Enter /apps/easybuild-2022/easybuild/software/Compiler/NVHPC/22.11-CUDA-11.7.0/Gaussian/g16c01-CUDA-11.7.0/g16/l1002.exe)
 Minotr:  Closed shell wavefunction.
 Leave Link 1002 at Sun May 25 03:36:06 2025, MaxMem=  3758096384 cpu:               0.0 elap:               0.0
 (Enter /apps/easybuild-2022/easybuild/software/Compiler/NVHPC/22.11-CUDA-11.7.0/Gaussian/g16c01-CUDA-11.7.0/g16/l811.exe)
 Leave Link  811 at Sun May 25 03:36:06 2025, MaxMem=  3758096384 cpu:               0.0 elap:               0.0
 (Enter /apps/easybuild-2022/easybuild/software/Compiler/NVHPC/22.11-CUDA-11.7.0/Gaussian/g16c01-CUDA-11.7.0/g16/l804.exe)
 Leave Link  804 at Sun May 25 03:36:06 2025, MaxMem=  3758096384 cpu:               0.0 elap:               0.0
 (Enter /apps/easybuild-2022/easybuild/software/Compiler/NVHPC/22.11-CUDA-11.7.0/Gaussian/g16c01-CUDA-11.7.0/g16/l1002.exe)
 Minotr:  Closed shell wavefunction.
          Computing MP2/KS-MP2 derivatives.
          Using Z-Vector for PSCF gradient.
          Skipping F1 and S1 gradient terms here.
          IDoAtm=111111111
          Frozen-core window.
          Direct CPHF calculation.
          Differentiating once with respect to electric field.
                with respect to dipole field.
          Differentiating once with respect to nuclear coordinates.
          Requested convergence is 1.0D-10 RMS, and 1.0D-09 maximum.
          NewPWx=F KeepS1=T KeepF1=T KeepIn=T MapXYZ=F SortEE=F KeepMc=T.
 Keep R1 ints in memory in canonical form, NReq=6404390.
 FoFCou: FMM=F IPFlag=           0 FMFlag=           0 FMFlg1=           0
         NFxFlg=           0 DoJE=F BraDBF=F KetDBF=F FulRan=T
         wScrn=  0.000000 ICntrl=       600 IOpCl=  0 I1Cent=           0 NGrid=           0
         NMat0=    1 NMatS0=   3081 NMatT0=    0 NMatD0=    1 NMtDS0=    0 NMtDT0=    0
 Symmetry not used in FoFCou.
 Two-electron integral symmetry not used.
          MDV=    3758096384 using IRadAn=       5.
          Solving linear equations separately, MaxMat=       0.
          There are     1 degrees of freedom in the 1st order CPHF.  IDoFFX=0 NUNeed=     1.
 LinEq1:  Iter=  0 NonCon=     1 RMS=1.37D-02 Max=1.89D-01 NDo=     1
 AX will form     1 AO Fock derivatives at one time.
 LinEq1:  Iter=  1 NonCon=     1 RMS=5.14D-03 Max=5.37D-02 NDo=     1
 LinEq1:  Iter=  2 NonCon=     1 RMS=1.78D-03 Max=1.49D-02 NDo=     1
 LinEq1:  Iter=  3 NonCon=     1 RMS=6.86D-04 Max=1.18D-02 NDo=     1
 LinEq1:  Iter=  4 NonCon=     1 RMS=2.81D-04 Max=3.61D-03 NDo=     1
 LinEq1:  Iter=  5 NonCon=     1 RMS=1.22D-04 Max=1.28D-03 NDo=     1
 LinEq1:  Iter=  6 NonCon=     1 RMS=3.21D-05 Max=3.74D-04 NDo=     1
 LinEq1:  Iter=  7 NonCon=     1 RMS=1.59D-05 Max=1.33D-04 NDo=     1
 LinEq1:  Iter=  8 NonCon=     1 RMS=3.96D-06 Max=3.29D-05 NDo=     1
 LinEq1:  Iter=  9 NonCon=     1 RMS=1.20D-06 Max=1.77D-05 NDo=     1
 LinEq1:  Iter= 10 NonCon=     1 RMS=2.37D-07 Max=1.99D-06 NDo=     1
 LinEq1:  Iter= 11 NonCon=     1 RMS=4.80D-08 Max=5.13D-07 NDo=     1
 LinEq1:  Iter= 12 NonCon=     1 RMS=1.75D-08 Max=2.25D-07 NDo=     1
 LinEq1:  Iter= 13 NonCon=     1 RMS=9.03D-09 Max=9.73D-08 NDo=     1
 LinEq1:  Iter= 14 NonCon=     1 RMS=2.51D-09 Max=2.07D-08 NDo=     1
 LinEq1:  Iter= 15 NonCon=     1 RMS=1.27D-09 Max=1.27D-08 NDo=     1
 LinEq1:  Iter= 16 NonCon=     1 RMS=2.71D-10 Max=2.74D-09 NDo=     1
 LinEq1:  Iter= 17 NonCon=     0 RMS=3.83D-11 Max=3.79D-10 NDo=     1
 Linear equations converged to 1.000D-10 1.000D-09 after    17 iterations.
 End of Minotr F.D. properties file   721 does not exist.
 End of Minotr F.D. properties file   722 does not exist.
 End of Minotr F.D. properties file   788 does not exist.
 Leave Link 1002 at Sun May 25 03:36:06 2025, MaxMem=  3758096384 cpu:               0.9 elap:               0.2
 (Enter /apps/easybuild-2022/easybuild/software/Compiler/NVHPC/22.11-CUDA-11.7.0/Gaussian/g16c01-CUDA-11.7.0/g16/l1102.exe)
 Use density number 2.
 Symmetrizing basis deriv contribution to polar:
 IMax=3 JMax=2 DiffMx= 0.00D+00
 Leave Link 1102 at Sun May 25 03:36:06 2025, MaxMem=  3758096384 cpu:               0.1 elap:               0.0
 (Enter /apps/easybuild-2022/easybuild/software/Compiler/NVHPC/22.11-CUDA-11.7.0/Gaussian/g16c01-CUDA-11.7.0/g16/l1110.exe)
 Leave Link 1110 at Sun May 25 03:36:06 2025, MaxMem=  3758096384 cpu:               0.0 elap:               0.0
 (Enter /apps/easybuild-2022/easybuild/software/Compiler/NVHPC/22.11-CUDA-11.7.0/Gaussian/g16c01-CUDA-11.7.0/g16/l1112.exe)
 Leave Link 1112 at Sun May 25 03:36:06 2025, MaxMem=  3758096384 cpu:               0.0 elap:               0.0
 (Enter /apps/easybuild-2022/easybuild/software/Compiler/NVHPC/22.11-CUDA-11.7.0/Gaussian/g16c01-CUDA-11.7.0/g16/l701.exe)
 ... and contract with generalized density number  2.
 Compute integral first derivatives.
 Leave Link  701 at Sun May 25 03:36:06 2025, MaxMem=  3758096384 cpu:               0.2 elap:               0.1
 (Enter /apps/easybuild-2022/easybuild/software/Compiler/NVHPC/22.11-CUDA-11.7.0/Gaussian/g16c01-CUDA-11.7.0/g16/l702.exe)
 L702 exits ... SP integral derivatives will be done elsewhere.
 Leave Link  702 at Sun May 25 03:36:06 2025, MaxMem=  3758096384 cpu:               0.0 elap:               0.0
 (Enter /apps/easybuild-2022/easybuild/software/Compiler/NVHPC/22.11-CUDA-11.7.0/Gaussian/g16c01-CUDA-11.7.0/g16/l703.exe)
 Integral derivatives from FoFJK, PRISM(SPDF).
 Compute integral first derivatives, UseDBF=F ICtDFT=           0.
 Calling FoFJK, ICntrl=  10002127 FMM=F ISym2X=0 I1Cent= 0 IOpClX= 0 NMat=1 NMatS=1 NMatT=0.
 FoFJK:  IHMeth= 1 ICntrl=10002127 DoSepK=F KAlg= 0 I1Cent=           0 FoldK=F
 IRaf=         0 NMat=       1 IRICut=       1 DoRegI=T DoRafI=F ISym2E= 0 IDoP0=0 IntGTp=1.
 FoFCou: FMM=F IPFlag=           0 FMFlag=      100000 FMFlg1=         800
         NFxFlg=           0 DoJE=F BraDBF=F KetDBF=F FulRan=T
         wScrn=  0.000000 ICntrl=  10002127 IOpCl=  0 I1Cent=           0 NGrid=           0
         NMat0=    1 NMatS0=      1 NMatT0=    0 NMatD0=    1 NMtDS0=    0 NMtDT0=    0
 Symmetry not used in FoFCou.
 Leave Link  703 at Sun May 25 03:36:06 2025, MaxMem=  3758096384 cpu:               0.6 elap:               0.1
 (Enter /apps/easybuild-2022/easybuild/software/Compiler/NVHPC/22.11-CUDA-11.7.0/Gaussian/g16c01-CUDA-11.7.0/g16/l716.exe)
 Dipole        =-1.42698440D-01 6.95515978D-01-2.51886034D-01
 Polarizability= 0.00000000D+00 0.00000000D+00 0.00000000D+00
                 0.00000000D+00 0.00000000D+00 0.00000000D+00
 -------------------------------------------------------------------
 Center     Atomic                   Forces (Hartrees/Bohr)
 Number     Number              X              Y              Z
 -------------------------------------------------------------------
      1        6           0.000000025   -0.000000074   -0.000000192
      2        9          -0.000000155   -0.000004635   -0.000012126
      3        9          -0.000000779    0.000012252    0.000001753
      4        9           0.000000999   -0.000007922    0.000009470
      5       16          -0.000000085   -0.000000583   -0.000001638
      6        8           0.000001279   -0.000009004   -0.000001478
      7        8          -0.000001438    0.000005902   -0.000006937
      8        8           0.000000215    0.000003691    0.000010013
      9        1          -0.000000060    0.000000374    0.000001135
 -------------------------------------------------------------------
 Cartesian Forces:  Max     0.000012252 RMS     0.000005320
 Leave Link  716 at Sun May 25 03:36:06 2025, MaxMem=  3758096384 cpu:               0.0 elap:               0.0
 (Enter /apps/easybuild-2022/easybuild/software/Compiler/NVHPC/22.11-CUDA-11.7.0/Gaussian/g16c01-CUDA-11.7.0/g16/l123.exe)
 IRC-IRC-IRC-IRC-IRC-IRC-IRC-IRC-IRC-IRC-IRC-IRC-IRC-IRC-IRC-IRC-IRC-IRC
 Error in corrector energy =          -0.0000000208
 Magnitude of corrector gradient =     0.0000276257
 Magnitude of analytic gradient =      0.0000276429
 Magnitude of difference =             0.0000001699
 Angle between gradients (degrees)=    0.3504
 Pt  1 Step number   2 out of a maximum of  20
 Using modified Bulirsch-Stoer corrector integration.
   Using distance weighted interpolants to fit PES.
 PreDWI: IReCr0= 2 IReCr1= 1 IReCr2= 1 IReCr3= 1
 Modified Bulirsch-Stoer Extrapolation Cycles:
    EPS =    0.000010000000000
    Cycle     1 NS=    48
      PEZero:  N= 2 I= 1 D=  1.78D-04 Err=  4.58D-04
    Cycle     2 NS=    64 Truncation Error =  0.000458027
      PEZero:  N= 3 I= 2 D=  1.78D-04 Err=  7.02D-04
      PEZero:  N= 3 I= 1 D=  3.55D-04 Err=  5.94D-04
    Cycle     3 NS=    96 Truncation Error =  0.000594371
      PEZero:  N= 4 I= 3 D=  8.88D-05 Err=  1.24D-03
      PEZero:  N= 4 I= 2 D=  2.66D-04 Err=  9.50D-04
      PEZero:  N= 4 I= 1 D=  4.44D-04 Err=  7.84D-04
    Cycle     4 NS=   128 Truncation Error =  0.000783601
      PEZero:  N= 5 I= 4 D=  8.88D-05 Err=  1.89D-03
      PEZero:  N= 5 I= 3 D=  1.78D-04 Err=  1.60D-03
      PEZero:  N= 5 I= 2 D=  3.55D-04 Err=  1.13D-03
      PEZero:  N= 5 I= 1 D=  5.33D-04 Err=  8.64D-04
    Cycle     5 NS=   192 Truncation Error =  0.000864471
      PEZero:  N= 6 I= 5 D=  4.44D-05 Err=  3.08D-03
      PEZero:  N= 6 I= 4 D=  1.33D-04 Err=  2.21D-03
      PEZero:  N= 6 I= 3 D=  2.22D-04 Err=  1.69D-03
      PEZero:  N= 6 I= 2 D=  4.00D-04 Err=  1.13D-03
      PEZero:  N= 6 I= 1 D=  5.77D-04 Err=  8.44D-04
    Cycle     6 NS=   256 Truncation Error =  0.000843777
      PEZero:  N= 7 I= 6 D=  4.44D-05 Err=  4.25D-03
      PEZero:  N= 7 I= 5 D=  8.88D-05 Err=  3.29D-03
      PEZero:  N= 7 I= 4 D=  1.78D-04 Err=  2.19D-03
      PEZero:  N= 7 I= 3 D=  2.66D-04 Err=  1.62D-03
      PEZero:  N= 7 I= 2 D=  4.44D-04 Err=  1.07D-03
      PEZero:  N= 7 I= 1 D=  6.22D-04 Err=  7.98D-04
    Cycle     7 NS=   384 Truncation Error =  0.000798280
      PEZero:  N= 8 I= 7 D=  2.22D-05 Err=  6.20D-03
      PEZero:  N= 8 I= 6 D=  6.66D-05 Err=  4.02D-03
      PEZero:  N= 8 I= 5 D=  1.11D-04 Err=  2.84D-03
      PEZero:  N= 8 I= 4 D=  2.00D-04 Err=  1.80D-03
      PEZero:  N= 8 I= 3 D=  2.89D-04 Err=  1.29D-03
      PEZero:  N= 8 I= 2 D=  4.66D-04 Err=  8.27D-04
      PEZero:  N= 8 I= 1 D=  6.44D-04 Err=  6.02D-04
    Cycle     8 NS=   512 Truncation Error =  0.000601646
      PEZero:  N= 9 I= 8 D=  2.22D-05 Err=  7.40D-03
      PEZero:  N= 9 I= 7 D=  4.44D-05 Err=  4.90D-03
      PEZero:  N= 9 I= 6 D=  8.88D-05 Err=  2.89D-03
      PEZero:  N= 9 I= 5 D=  1.33D-04 Err=  1.95D-03
      PEZero:  N= 9 I= 4 D=  2.22D-04 Err=  1.20D-03
      PEZero:  N= 9 I= 3 D=  3.11D-04 Err=  8.43D-04
      PEZero:  N= 9 I= 2 D=  4.89D-04 Err=  5.38D-04
      PEZero:  N= 9 I= 1 D=  6.66D-04 Err=  3.90D-04
    Cycle     9 NS=   768 Truncation Error =  0.000390035
      PEZero:  N=10 I= 9 D=  1.11D-05 Err=  7.04D-03
      PEZero:  N=10 I= 8 D=  3.33D-05 Err=  1.99D-03
      PEZero:  N=10 I= 7 D=  5.55D-05 Err=  5.58D-04
      PEZero:  N=10 I= 6 D=  9.99D-05 Err=  1.46D-03
    Cycle    10 NS=  1024 Truncation Error =  0.000557503
      PEZero:  N=11 I=10 D=  1.11D-05 Err=  3.99D-04
      PEZero:  N=11 I= 9 D=  2.22D-05 Err=  6.44D-03
    Cycle    11 NS=  1536 Truncation Error =  0.000398613
 Maximum DWI energy   std dev =  0.000000100 at pt   207
 Maximum DWI gradient std dev =  2.038914673 at pt     2
 WARNING: Bulirsch-Stoer Method is not Converging
 SUMMARY OF CORRECTOR INTEGRATION:
   Predictor End Point Energy =  -959.258086
   Old End Point Energy       =  -959.258086
   Corrected End Point Energy =  -959.258086
   Predictor End-Start Dist.  =     0.068214
   Old End-Start Dist.        =     0.068189
   New End-Start Dist.        =     0.068189
   New End-Old End Dist.      =     0.000012
 CORRECTOR INTEGRATION CONVERGENCE:
   Recorrection delta-x convergence threshold:    0.010000
   Delta-x Convergence NOT Met
 IRC-IRC-IRC-IRC-IRC-IRC-IRC-IRC-IRC-IRC-IRC-IRC-IRC-IRC-IRC-IRC-IRC-IRC
 Leave Link  123 at Sun May 25 03:36:06 2025, MaxMem=  3758096384 cpu:               0.9 elap:               0.1
 (Enter /apps/easybuild-2022/easybuild/software/Compiler/NVHPC/22.11-CUDA-11.7.0/Gaussian/g16c01-CUDA-11.7.0/g16/l202.exe)
                          Input orientation:                          
 ---------------------------------------------------------------------
 Center     Atomic      Atomic             Coordinates (Angstroms)
 Number     Number       Type             X           Y           Z
 ---------------------------------------------------------------------
      1          6           0       -1.048922   -0.126025    0.067964
      2          9           0       -1.647292    1.030115   -0.359975
      3          9           0       -1.360853   -0.379904    1.385823
      4          9           0       -1.402385   -1.186826   -0.737339
      5         16           0        0.963978   -0.013197   -0.014824
      6          8           0        1.552448   -0.046945    1.466138
      7          8           0        1.499056   -1.011961   -1.135824
      8          8           0        0.929755    1.691150   -0.645517
      9          1           0        1.865211    2.000725   -0.775117
 ---------------------------------------------------------------------
                    Distance matrix (angstroms):
                    1          2          3          4          5
     1  C    0.000000
     2  F    1.370343   0.000000
     3  F    1.377864   2.262302   0.000000
     4  F    1.377950   2.262125   2.271710   0.000000
     5  S    2.017759   2.833083   2.738819   2.738450   0.000000
     6  O    2.954364   3.838369   2.933366   3.858196   1.593952
     7  O    2.954010   3.830342   3.864878   2.933893   1.593888
     8  O    2.779630   2.675756   3.696281   3.705409   1.817621
     9  H    3.704865   3.667711   4.554618   4.564986   2.333699
                    6          7          8          9
     6  O    0.000000
     7  O    2.775664   0.000000
     8  O    2.804962   2.805586   0.000000
     9  H    3.051885   3.056216   0.993836   0.000000
 Symmetry turned off by external request.
 Stoichiometry    CHF3O3S
 Rotational constants (GHZ):           2.2373334           1.3612097           1.3445132
 Leave Link  202 at Sun May 25 03:36:06 2025, MaxMem=  3758096384 cpu:               0.0 elap:               0.0
 (Enter /apps/easybuild-2022/easybuild/software/Compiler/NVHPC/22.11-CUDA-11.7.0/Gaussian/g16c01-CUDA-11.7.0/g16/l301.exe)
 Standard basis: 6-31G (6D, 7F)
 Ernie: Thresh=  0.10000D-02 Tol=  0.10000D-05 Strict=F.
    78 basis functions,   204 primitive gaussians,    78 cartesian basis functions
    37 alpha electrons       37 beta electrons
       nuclear repulsion energy       527.0707062596 Hartrees.



 Warning!  S  atom    5 may be hypervalent but has no d functions.



 IExCor=    0 DFT=F Ex=HF Corr=None ExCW=0 ScaHFX=  1.000000
 ScaDFX=  1.000000  1.000000  1.000000  1.000000 ScalE2=  1.000000  1.000000
 IRadAn=      5 IRanWt=     -1 IRanGd=            0 ICorTp=0 IEmpDi=  4
 NAtoms=    9 NActive=    9 NUniq=    9 SFac= 1.00D+00 NAtFMM=   60 NAOKFM=F Big=F
 Integral buffers will be    131072 words long.
 Raffenetti 1 integral format.
 Two-electron integral symmetry is turned off.
 Leave Link  301 at Sun May 25 03:36:06 2025, MaxMem=  3758096384 cpu:               0.0 elap:               0.0
 (Enter /apps/easybuild-2022/easybuild/software/Compiler/NVHPC/22.11-CUDA-11.7.0/Gaussian/g16c01-CUDA-11.7.0/g16/l302.exe)
 NPDir=0 NMtPBC=     1 NCelOv=     1 NCel=       1 NClECP=     1 NCelD=      1
         NCelK=      1 NCelE2=     1 NClLst=     1 CellRange=     0.0.
 One-electron integrals computed using PRISM.
 NBasis=    78 RedAO= T EigKep=  9.46D-03  NBF=    78
 NBsUse=    78 1.00D-06 EigRej= -1.00D+00 NBFU=    78
 Leave Link  302 at Sun May 25 03:36:06 2025, MaxMem=  3758096384 cpu:               0.2 elap:               0.1
 (Enter /apps/easybuild-2022/easybuild/software/Compiler/NVHPC/22.11-CUDA-11.7.0/Gaussian/g16c01-CUDA-11.7.0/g16/l303.exe)
 DipDrv:  MaxL=1.
 Leave Link  303 at Sun May 25 03:36:07 2025, MaxMem=  3758096384 cpu:               0.0 elap:               0.0
 (Enter /apps/easybuild-2022/easybuild/software/Compiler/NVHPC/22.11-CUDA-11.7.0/Gaussian/g16c01-CUDA-11.7.0/g16/l401.exe)
 Initial guess from the checkpoint file:  "1502984803620600000001_R_Addition_MultipleBond_5_1_2_IRC_R.chk"
 B after Tr=    -0.000000   -0.000000   -0.000000
         Rot=    1.000000    0.000000   -0.000000   -0.000000 Ang=   0.00 deg.
 Guess basis will be translated and rotated to current coordinates.
 JPrj=2 DoOrth=T DoCkMO=T.
 Generating alternative initial guess.
 ExpMin= 1.17D-01 ExpMax= 2.19D+04 ExpMxC= 3.30D+03 IAcc=3 IRadAn=         5 AccDes= 0.00D+00
 Harris functional with IExCor=  205 and IRadAn=       5 diagonalized for initial guess.
 HarFok:  IExCor=  205 AccDes= 0.00D+00 IRadAn=         5 IDoV= 1 UseB2=F ITyADJ=14
 ICtDFT=  3500011 ScaDFX=  1.000000  1.000000  1.000000  1.000000
 FoFCou: FMM=F IPFlag=           0 FMFlag=      100000 FMFlg1=           0
         NFxFlg=           0 DoJE=T BraDBF=F KetDBF=T FulRan=T
         wScrn=  0.000000 ICntrl=       500 IOpCl=  0 I1Cent=   200000004 NGrid=           0
         NMat0=    1 NMatS0=      1 NMatT0=    0 NMatD0=    1 NMtDS0=    0 NMtDT0=    0
 Symmetry not used in FoFCou.
 Harris En= -958.260329786683    
 Leave Link  401 at Sun May 25 03:36:07 2025, MaxMem=  3758096384 cpu:               0.6 elap:               0.1
 (Enter /apps/easybuild-2022/easybuild/software/Compiler/NVHPC/22.11-CUDA-11.7.0/Gaussian/g16c01-CUDA-11.7.0/g16/l502.exe)
 Keep R1 ints in memory in canonical form, NReq=6401873.
 FoFCou: FMM=F IPFlag=           0 FMFlag=           0 FMFlg1=           0
         NFxFlg=           0 DoJE=F BraDBF=F KetDBF=F FulRan=T
         wScrn=  0.000000 ICntrl=       600 IOpCl=  0 I1Cent=           0 NGrid=           0
         NMat0=    1 NMatS0=   3081 NMatT0=    0 NMatD0=    1 NMtDS0=    0 NMtDT0=    0
 Symmetry not used in FoFCou.
 Two-electron integral symmetry not used.
 Closed shell SCF:
 Using DIIS extrapolation, IDIIS=  1040.
 NGot=  3758096384 LenX=  3753334729 LenY=  3753328204
 Requested convergence on RMS density matrix=1.00D-08 within  32 cycles.
 Requested convergence on MAX density matrix=1.00D-06.
 Requested convergence on             energy=1.00D-06.
 No special actions if energy rises.

 Cycle   1  Pass 1  IDiag  1:
 E= -958.304810152866    
 DIIS: error= 1.03D-07 at cycle   1 NSaved=   1.
 NSaved= 1 IEnMin= 1 EnMin= -958.304810152866     IErMin= 1 ErrMin= 1.03D-07
 ErrMax= 1.03D-07  0.00D+00 EMaxC= 1.00D-01 BMatC= 4.60D-13 BMatP= 4.60D-13
 IDIUse=1 WtCom= 1.00D+00 WtEn= 0.00D+00
 Coeff-Com:  0.100D+01
 Coeff:      0.100D+01
 Gap=     1.191 Goal=   None    Shift=    0.000
 RMSDP=1.28D-08 MaxDP=3.12D-07              OVMax= 1.48D-07

 Cycle   2  Pass 1  IDiag  1:
 E= -958.304810152853     Delta-E=        0.000000000013 Rises=F Damp=F
 DIIS: error= 2.77D-08 at cycle   2 NSaved=   2.
 NSaved= 2 IEnMin= 1 EnMin= -958.304810152866     IErMin= 2 ErrMin= 2.77D-08
 ErrMax= 2.77D-08  0.00D+00 EMaxC= 1.00D-01 BMatC= 4.88D-14 BMatP= 4.60D-13
 IDIUse=1 WtCom= 1.00D+00 WtEn= 0.00D+00
 Coeff-Com: -0.271D+00 0.127D+01
 Coeff:     -0.271D+00 0.127D+01
 Gap=     0.531 Goal=   None    Shift=    0.000
 RMSDP=5.48D-09 MaxDP=1.08D-07 DE= 1.27D-11 OVMax= 7.41D-08

 SCF Done:  E(RHF) =  -958.304810153     A.U. after    2 cycles
            NFock=  2  Conv=0.55D-08     -V/T= 2.0008
 KE= 9.575633787730D+02 PE=-3.331061375371D+03 EE= 8.881224801858D+02
 Leave Link  502 at Sun May 25 03:36:07 2025, MaxMem=  3758096384 cpu:               0.4 elap:               0.1
 (Enter /apps/easybuild-2022/easybuild/software/Compiler/NVHPC/22.11-CUDA-11.7.0/Gaussian/g16c01-CUDA-11.7.0/g16/l508.exe)
 QCSCF skips out because SCF is already converged.
 Leave Link  508 at Sun May 25 03:36:07 2025, MaxMem=  3758096384 cpu:               0.0 elap:               0.0
 (Enter /apps/easybuild-2022/easybuild/software/Compiler/NVHPC/22.11-CUDA-11.7.0/Gaussian/g16c01-CUDA-11.7.0/g16/l801.exe)
 ExpMin= 1.17D-01 ExpMax= 2.19D+04 ExpMxC= 3.30D+03 IAcc=3 IRadAn=         5 AccDes= 0.00D+00
 HarFok:  IExCor=  205 AccDes= 0.00D+00 IRadAn=         5 IDoV=-2 UseB2=F ITyADJ=14
 ICtDFT= 12500011 ScaDFX=  1.000000  1.000000  1.000000  1.000000
 Largest valence mixing into a core orbital is  3.09D-04
 Largest core mixing into a valence orbital is  1.08D-04
 Range of M.O.s used for correlation:    13    78
 NBasis=    78 NAE=    37 NBE=    37 NFC=    12 NFV=     0
 NROrb=     66 NOA=    25 NOB=    25 NVA=    41 NVB=    41
 Leave Link  801 at Sun May 25 03:36:07 2025, MaxMem=  3758096384 cpu:               0.1 elap:               0.0
 (Enter /apps/easybuild-2022/easybuild/software/Compiler/NVHPC/22.11-CUDA-11.7.0/Gaussian/g16c01-CUDA-11.7.0/g16/l906.exe)
 Frozen-core derivative calculation, NFC=  12 NFV=   0.
 FulOut=F Deriv=T AODrv=T NAtomX=     9
   MMem=        1944  MDisk=          25 MDiskD=          25
  W3Min=      225108 MinDsk=      329747 NBas6D=          78
 NBas2D=        3183    NTT=        3081    LW2=     2000000
    MDV=  3758008091 MDiskM=      501603 NBas2p=        3096
 Fully direct method using O(ONN) memory.
 IMap=   1   2   3   4   5   6   7   8   9  10  11  12  13  14  15  16  17  18  19  20
 IMap=  21  22  23  24  25  26  27  28  29  30  31  32  33  34  35  36  37
 JobTyp=1 Pass  1:  I=  13 to  37 NPSUse=  8 ParTrn=T ParDer=T DoDerP=T.
 Spin components of T(2) and E(2):
     alpha-alpha T2 =       0.4461161476D-01 E2=     -0.1289421448D+00
     alpha-beta  T2 =       0.2403966352D+00 E2=     -0.6953913895D+00
     beta-beta   T2 =       0.4461161476D-01 E2=     -0.1289421448D+00
 The integrals were generated   1 times.
 ANorm=    0.1153091438D+01
 E2 =    -0.9532756790D+00 EUMP2 =    -0.95925808583189D+03
 Leave Link  906 at Sun May 25 03:36:07 2025, MaxMem=  3758096384 cpu:               3.2 elap:               0.5
 (Enter /apps/easybuild-2022/easybuild/software/Compiler/NVHPC/22.11-CUDA-11.7.0/Gaussian/g16c01-CUDA-11.7.0/g16/l1101.exe)
 Leave Link 1101 at Sun May 25 03:36:07 2025, MaxMem=  3758096384 cpu:               0.0 elap:               0.0
 (Enter /apps/easybuild-2022/easybuild/software/Compiler/NVHPC/22.11-CUDA-11.7.0/Gaussian/g16c01-CUDA-11.7.0/g16/l1102.exe)
 Leave Link 1102 at Sun May 25 03:36:07 2025, MaxMem=  3758096384 cpu:               0.0 elap:               0.0
 (Enter /apps/easybuild-2022/easybuild/software/Compiler/NVHPC/22.11-CUDA-11.7.0/Gaussian/g16c01-CUDA-11.7.0/g16/l1110.exe)
 Leave Link 1110 at Sun May 25 03:36:07 2025, MaxMem=  3758096384 cpu:               0.0 elap:               0.0
 (Enter /apps/easybuild-2022/easybuild/software/Compiler/NVHPC/22.11-CUDA-11.7.0/Gaussian/g16c01-CUDA-11.7.0/g16/l1002.exe)
 Minotr:  Closed shell wavefunction.
 Leave Link 1002 at Sun May 25 03:36:07 2025, MaxMem=  3758096384 cpu:               0.0 elap:               0.0
 (Enter /apps/easybuild-2022/easybuild/software/Compiler/NVHPC/22.11-CUDA-11.7.0/Gaussian/g16c01-CUDA-11.7.0/g16/l811.exe)
 Leave Link  811 at Sun May 25 03:36:07 2025, MaxMem=  3758096384 cpu:               0.0 elap:               0.0
[...]
 DipDrv:  MaxL=1.
 Leave Link  303 at Sun May 25 03:36:35 2025, MaxMem=  3758096384 cpu:               0.0 elap:               0.0
 (Enter /apps/easybuild-2022/easybuild/software/Compiler/NVHPC/22.11-CUDA-11.7.0/Gaussian/g16c01-CUDA-11.7.0/g16/l401.exe)
 Initial guess from the checkpoint file:  "1502984803620600000001_R_Addition_MultipleBond_5_1_2_IRC_R.chk"
 B after Tr=     0.000000    0.000000    0.000000
         Rot=    1.000000    0.000000    0.000000   -0.000000 Ang=   0.00 deg.
 Guess basis will be translated and rotated to current coordinates.
 JPrj=2 DoOrth=T DoCkMO=T.
 Generating alternative initial guess.
 ExpMin= 1.17D-01 ExpMax= 2.19D+04 ExpMxC= 3.30D+03 IAcc=3 IRadAn=         5 AccDes= 0.00D+00
 Harris functional with IExCor=  205 and IRadAn=       5 diagonalized for initial guess.
 HarFok:  IExCor=  205 AccDes= 0.00D+00 IRadAn=         5 IDoV= 1 UseB2=F ITyADJ=14
 ICtDFT=  3500011 ScaDFX=  1.000000  1.000000  1.000000  1.000000
 FoFCou: FMM=F IPFlag=           0 FMFlag=      100000 FMFlg1=           0
         NFxFlg=           0 DoJE=T BraDBF=F KetDBF=T FulRan=T
         wScrn=  0.000000 ICntrl=       500 IOpCl=  0 I1Cent=   200000004 NGrid=           0
         NMat0=    1 NMatS0=      1 NMatT0=    0 NMatD0=    1 NMtDS0=    0 NMtDT0=    0
 Symmetry not used in FoFCou.
 Harris En= -958.260329779621    
 Leave Link  401 at Sun May 25 03:36:35 2025, MaxMem=  3758096384 cpu:               0.6 elap:               0.1
 (Enter /apps/easybuild-2022/easybuild/software/Compiler/NVHPC/22.11-CUDA-11.7.0/Gaussian/g16c01-CUDA-11.7.0/g16/l502.exe)
 Keep R1 ints in memory in canonical form, NReq=6401873.
 FoFCou: FMM=F IPFlag=           0 FMFlag=           0 FMFlg1=           0
         NFxFlg=           0 DoJE=F BraDBF=F KetDBF=F FulRan=T
         wScrn=  0.000000 ICntrl=       600 IOpCl=  0 I1Cent=           0 NGrid=           0
         NMat0=    1 NMatS0=   3081 NMatT0=    0 NMatD0=    1 NMtDS0=    0 NMtDT0=    0
 Symmetry not used in FoFCou.
 Two-electron integral symmetry not used.
 Closed shell SCF:
 Using DIIS extrapolation, IDIIS=  1040.
 NGot=  3758096384 LenX=  3753334729 LenY=  3753328204
 Requested convergence on RMS density matrix=1.00D-08 within  32 cycles.
 Requested convergence on MAX density matrix=1.00D-06.
 Requested convergence on             energy=1.00D-06.
 No special actions if energy rises.

 Cycle   1  Pass 1  IDiag  1:
 E= -958.304810144733    
 DIIS: error= 8.75D-07 at cycle   1 NSaved=   1.
 NSaved= 1 IEnMin= 1 EnMin= -958.304810144733     IErMin= 1 ErrMin= 8.75D-07
 ErrMax= 8.75D-07  0.00D+00 EMaxC= 1.00D-01 BMatC= 2.68D-11 BMatP= 2.68D-11
 IDIUse=1 WtCom= 1.00D+00 WtEn= 0.00D+00
 Coeff-Com:  0.100D+01
 Coeff:      0.100D+01
 Gap=     1.191 Goal=   None    Shift=    0.000
 RMSDP=8.17D-08 MaxDP=2.77D-06              OVMax= 1.15D-06

 Cycle   2  Pass 1  IDiag  1:
 E= -958.304810144785     Delta-E=       -0.000000000052 Rises=F Damp=F
 DIIS: error= 2.22D-07 at cycle   2 NSaved=   2.
 NSaved= 2 IEnMin= 2 EnMin= -958.304810144785     IErMin= 2 ErrMin= 2.22D-07
 ErrMax= 2.22D-07  0.00D+00 EMaxC= 1.00D-01 BMatC= 2.47D-12 BMatP= 2.68D-11
 IDIUse=1 WtCom= 1.00D+00 WtEn= 0.00D+00
 Coeff-Com: -0.369D+00 0.137D+01
 Coeff:     -0.369D+00 0.137D+01
 Gap=     0.531 Goal=   None    Shift=    0.000
 RMSDP=3.91D-08 MaxDP=1.02D-06 DE=-5.21D-11 OVMax= 4.62D-07

 Cycle   3  Pass 1  IDiag  1:
 E= -958.304810144767     Delta-E=        0.000000000017 Rises=F Damp=F
 DIIS: error= 5.81D-08 at cycle   3 NSaved=   3.
 NSaved= 3 IEnMin= 2 EnMin= -958.304810144785     IErMin= 3 ErrMin= 5.81D-08
 ErrMax= 5.81D-08  0.00D+00 EMaxC= 1.00D-01 BMatC= 1.39D-13 BMatP= 2.47D-12
 IDIUse=1 WtCom= 1.00D+00 WtEn= 0.00D+00
 Coeff-Com:  0.797D-01-0.369D+00 0.129D+01
 Coeff:      0.797D-01-0.369D+00 0.129D+01
 Gap=     0.531 Goal=   None    Shift=    0.000
 RMSDP=1.19D-08 MaxDP=3.32D-07 DE= 1.73D-11 OVMax= 1.81D-07

 Cycle   4  Pass 1  IDiag  1:
 E= -958.304810144781     Delta-E=       -0.000000000013 Rises=F Damp=F
 DIIS: error= 2.76D-08 at cycle   4 NSaved=   4.
 NSaved= 4 IEnMin= 2 EnMin= -958.304810144785     IErMin= 4 ErrMin= 2.76D-08
 ErrMax= 2.76D-08  0.00D+00 EMaxC= 1.00D-01 BMatC= 6.47D-14 BMatP= 1.39D-13
 IDIUse=1 WtCom= 1.00D+00 WtEn= 0.00D+00
 Coeff-Com:  0.119D+00-0.480D+00 0.634D+00 0.728D+00
 Coeff:      0.119D+00-0.480D+00 0.634D+00 0.728D+00
 Gap=     0.531 Goal=   None    Shift=    0.000
 RMSDP=5.17D-09 MaxDP=1.26D-07 DE=-1.34D-11 OVMax= 7.49D-08

 SCF Done:  E(RHF) =  -958.304810145     A.U. after    4 cycles
            NFock=  4  Conv=0.52D-08     -V/T= 2.0008
 KE= 9.575633783888D+02 PE=-3.331061373941D+03 EE= 8.881224794740D+02
 Leave Link  502 at Sun May 25 03:36:35 2025, MaxMem=  3758096384 cpu:               0.4 elap:               0.1
 (Enter /apps/easybuild-2022/easybuild/software/Compiler/NVHPC/22.11-CUDA-11.7.0/Gaussian/g16c01-CUDA-11.7.0/g16/l508.exe)
 QCSCF skips out because SCF is already converged.
 Leave Link  508 at Sun May 25 03:36:35 2025, MaxMem=  3758096384 cpu:               0.0 elap:               0.0
 (Enter /apps/easybuild-2022/easybuild/software/Compiler/NVHPC/22.11-CUDA-11.7.0/Gaussian/g16c01-CUDA-11.7.0/g16/l801.exe)
 ExpMin= 1.17D-01 ExpMax= 2.19D+04 ExpMxC= 3.30D+03 IAcc=3 IRadAn=         5 AccDes= 0.00D+00
 HarFok:  IExCor=  205 AccDes= 0.00D+00 IRadAn=         5 IDoV=-2 UseB2=F ITyADJ=14
 ICtDFT= 12500011 ScaDFX=  1.000000  1.000000  1.000000  1.000000
 Largest valence mixing into a core orbital is  3.09D-04
 Largest core mixing into a valence orbital is  1.08D-04
 Range of M.O.s used for correlation:    13    78
 NBasis=    78 NAE=    37 NBE=    37 NFC=    12 NFV=     0
 NROrb=     66 NOA=    25 NOB=    25 NVA=    41 NVB=    41
 Leave Link  801 at Sun May 25 03:36:36 2025, MaxMem=  3758096384 cpu:               0.1 elap:               0.0
 (Enter /apps/easybuild-2022/easybuild/software/Compiler/NVHPC/22.11-CUDA-11.7.0/Gaussian/g16c01-CUDA-11.7.0/g16/l906.exe)
 Frozen-core derivative calculation, NFC=  12 NFV=   0.
 FulOut=F Deriv=T AODrv=T NAtomX=     9
   MMem=        1944  MDisk=          25 MDiskD=          25
  W3Min=      225108 MinDsk=      329747 NBas6D=          78
 NBas2D=        3183    NTT=        3081    LW2=     2000000
    MDV=  3758008091 MDiskM=      501603 NBas2p=        3096
 Fully direct method using O(ONN) memory.
 IMap=   1   2   3   4   5   6   7   8   9  10  11  12  13  14  15  16  17  18  19  20
 IMap=  21  22  23  24  25  26  27  28  29  30  31  32  33  34  35  36  37
 JobTyp=1 Pass  1:  I=  13 to  37 NPSUse=  8 ParTrn=T ParDer=T DoDerP=T.
 Spin components of T(2) and E(2):
     alpha-alpha T2 =       0.4461161721D-01 E2=     -0.1289421483D+00
     alpha-beta  T2 =       0.2403966468D+00 E2=     -0.6953914040D+00
     beta-beta   T2 =       0.4461161721D-01 E2=     -0.1289421483D+00
 The integrals were generated   1 times.
 ANorm=    0.1153091445D+01
 E2 =    -0.9532757006D+00 EUMP2 =    -0.95925808584537D+03
 Leave Link  906 at Sun May 25 03:36:36 2025, MaxMem=  3758096384 cpu:               3.0 elap:               0.4
 (Enter /apps/easybuild-2022/easybuild/software/Compiler/NVHPC/22.11-CUDA-11.7.0/Gaussian/g16c01-CUDA-11.7.0/g16/l1101.exe)
 Leave Link 1101 at Sun May 25 03:36:36 2025, MaxMem=  3758096384 cpu:               0.0 elap:               0.0
 (Enter /apps/easybuild-2022/easybuild/software/Compiler/NVHPC/22.11-CUDA-11.7.0/Gaussian/g16c01-CUDA-11.7.0/g16/l1102.exe)
 Leave Link 1102 at Sun May 25 03:36:36 2025, MaxMem=  3758096384 cpu:               0.0 elap:               0.0
 (Enter /apps/easybuild-2022/easybuild/software/Compiler/NVHPC/22.11-CUDA-11.7.0/Gaussian/g16c01-CUDA-11.7.0/g16/l1110.exe)
 Leave Link 1110 at Sun May 25 03:36:36 2025, MaxMem=  3758096384 cpu:               0.0 elap:               0.0
 (Enter /apps/easybuild-2022/easybuild/software/Compiler/NVHPC/22.11-CUDA-11.7.0/Gaussian/g16c01-CUDA-11.7.0/g16/l1002.exe)
 Minotr:  Closed shell wavefunction.
 Leave Link 1002 at Sun May 25 03:36:36 2025, MaxMem=  3758096384 cpu:               0.0 elap:               0.0
 (Enter /apps/easybuild-2022/easybuild/software/Compiler/NVHPC/22.11-CUDA-11.7.0/Gaussian/g16c01-CUDA-11.7.0/g16/l811.exe)
 Leave Link  811 at Sun May 25 03:36:36 2025, MaxMem=  3758096384 cpu:               0.0 elap:               0.0
 (Enter /apps/easybuild-2022/easybuild/software/Compiler/NVHPC/22.11-CUDA-11.7.0/Gaussian/g16c01-CUDA-11.7.0/g16/l804.exe)
 Leave Link  804 at Sun May 25 03:36:36 2025, MaxMem=  3758096384 cpu:               0.0 elap:               0.0
 (Enter /apps/easybuild-2022/easybuild/software/Compiler/NVHPC/22.11-CUDA-11.7.0/Gaussian/g16c01-CUDA-11.7.0/g16/l1002.exe)
 Minotr:  Closed shell wavefunction.
          Computing MP2/KS-MP2 derivatives.
          Using Z-Vector for PSCF gradient.
          Skipping F1 and S1 gradient terms here.
          IDoAtm=111111111
          Frozen-core window.
          Direct CPHF calculation.
          Differentiating once with respect to electric field.
                with respect to dipole field.
          Differentiating once with respect to nuclear coordinates.
          Requested convergence is 1.0D-10 RMS, and 1.0D-09 maximum.
          NewPWx=F KeepS1=T KeepF1=T KeepIn=T MapXYZ=F SortEE=F KeepMc=T.
 Keep R1 ints in memory in canonical form, NReq=6404390.
 FoFCou: FMM=F IPFlag=           0 FMFlag=           0 FMFlg1=           0
         NFxFlg=           0 DoJE=F BraDBF=F KetDBF=F FulRan=T
         wScrn=  0.000000 ICntrl=       600 IOpCl=  0 I1Cent=           0 NGrid=           0
         NMat0=    1 NMatS0=   3081 NMatT0=    0 NMatD0=    1 NMtDS0=    0 NMtDT0=    0
 Symmetry not used in FoFCou.
 Two-electron integral symmetry not used.
          MDV=    3758096384 using IRadAn=       5.
          Solving linear equations separately, MaxMat=       0.
          There are     1 degrees of freedom in the 1st order CPHF.  IDoFFX=0 NUNeed=     1.
 LinEq1:  Iter=  0 NonCon=     1 RMS=1.37D-02 Max=1.89D-01 NDo=     1
 AX will form     1 AO Fock derivatives at one time.
 LinEq1:  Iter=  1 NonCon=     1 RMS=5.14D-03 Max=5.37D-02 NDo=     1
 LinEq1:  Iter=  2 NonCon=     1 RMS=1.78D-03 Max=1.49D-02 NDo=     1
 LinEq1:  Iter=  3 NonCon=     1 RMS=6.86D-04 Max=1.18D-02 NDo=     1
 LinEq1:  Iter=  4 NonCon=     1 RMS=2.81D-04 Max=3.61D-03 NDo=     1
 LinEq1:  Iter=  5 NonCon=     1 RMS=1.22D-04 Max=1.28D-03 NDo=     1
 LinEq1:  Iter=  6 NonCon=     1 RMS=3.21D-05 Max=3.74D-04 NDo=     1
 LinEq1:  Iter=  7 NonCon=     1 RMS=1.59D-05 Max=1.33D-04 NDo=     1
 LinEq1:  Iter=  8 NonCon=     1 RMS=3.96D-06 Max=3.29D-05 NDo=     1
 LinEq1:  Iter=  9 NonCon=     1 RMS=1.20D-06 Max=1.77D-05 NDo=     1
 LinEq1:  Iter= 10 NonCon=     1 RMS=2.37D-07 Max=1.99D-06 NDo=     1
 LinEq1:  Iter= 11 NonCon=     1 RMS=4.80D-08 Max=5.13D-07 NDo=     1
 LinEq1:  Iter= 12 NonCon=     1 RMS=1.75D-08 Max=2.25D-07 NDo=     1
 LinEq1:  Iter= 13 NonCon=     1 RMS=9.03D-09 Max=9.73D-08 NDo=     1
 LinEq1:  Iter= 14 NonCon=     1 RMS=2.51D-09 Max=2.07D-08 NDo=     1
 LinEq1:  Iter= 15 NonCon=     1 RMS=1.27D-09 Max=1.27D-08 NDo=     1
 LinEq1:  Iter= 16 NonCon=     1 RMS=2.71D-10 Max=2.74D-09 NDo=     1
 LinEq1:  Iter= 17 NonCon=     0 RMS=3.83D-11 Max=3.79D-10 NDo=     1
 Linear equations converged to 1.000D-10 1.000D-09 after    17 iterations.
 End of Minotr F.D. properties file   721 does not exist.
 End of Minotr F.D. properties file   722 does not exist.
 End of Minotr F.D. properties file   788 does not exist.
 Leave Link 1002 at Sun May 25 03:36:36 2025, MaxMem=  3758096384 cpu:               0.8 elap:               0.2
 (Enter /apps/easybuild-2022/easybuild/software/Compiler/NVHPC/22.11-CUDA-11.7.0/Gaussian/g16c01-CUDA-11.7.0/g16/l1102.exe)
 Use density number 2.
 Symmetrizing basis deriv contribution to polar:
 IMax=3 JMax=2 DiffMx= 0.00D+00
 Leave Link 1102 at Sun May 25 03:36:36 2025, MaxMem=  3758096384 cpu:               0.0 elap:               0.0
 (Enter /apps/easybuild-2022/easybuild/software/Compiler/NVHPC/22.11-CUDA-11.7.0/Gaussian/g16c01-CUDA-11.7.0/g16/l1110.exe)
 Leave Link 1110 at Sun May 25 03:36:36 2025, MaxMem=  3758096384 cpu:               0.0 elap:               0.0
 (Enter /apps/easybuild-2022/easybuild/software/Compiler/NVHPC/22.11-CUDA-11.7.0/Gaussian/g16c01-CUDA-11.7.0/g16/l1112.exe)
 Leave Link 1112 at Sun May 25 03:36:36 2025, MaxMem=  3758096384 cpu:               0.0 elap:               0.0
 (Enter /apps/easybuild-2022/easybuild/software/Compiler/NVHPC/22.11-CUDA-11.7.0/Gaussian/g16c01-CUDA-11.7.0/g16/l701.exe)
 ... and contract with generalized density number  2.
 Compute integral first derivatives.
 Leave Link  701 at Sun May 25 03:36:36 2025, MaxMem=  3758096384 cpu:               0.2 elap:               0.0
 (Enter /apps/easybuild-2022/easybuild/software/Compiler/NVHPC/22.11-CUDA-11.7.0/Gaussian/g16c01-CUDA-11.7.0/g16/l702.exe)
 L702 exits ... SP integral derivatives will be done elsewhere.
 Leave Link  702 at Sun May 25 03:36:36 2025, MaxMem=  3758096384 cpu:               0.0 elap:               0.0
 (Enter /apps/easybuild-2022/easybuild/software/Compiler/NVHPC/22.11-CUDA-11.7.0/Gaussian/g16c01-CUDA-11.7.0/g16/l703.exe)
 Integral derivatives from FoFJK, PRISM(SPDF).
 Compute integral first derivatives, UseDBF=F ICtDFT=           0.
 Calling FoFJK, ICntrl=  10002127 FMM=F ISym2X=0 I1Cent= 0 IOpClX= 0 NMat=1 NMatS=1 NMatT=0.
 FoFJK:  IHMeth= 1 ICntrl=10002127 DoSepK=F KAlg= 0 I1Cent=           0 FoldK=F
 IRaf=         0 NMat=       1 IRICut=       1 DoRegI=T DoRafI=F ISym2E= 0 IDoP0=0 IntGTp=1.
 FoFCou: FMM=F IPFlag=           0 FMFlag=      100000 FMFlg1=         800
         NFxFlg=           0 DoJE=F BraDBF=F KetDBF=F FulRan=T
         wScrn=  0.000000 ICntrl=  10002127 IOpCl=  0 I1Cent=           0 NGrid=           0
         NMat0=    1 NMatS0=      1 NMatT0=    0 NMatD0=    1 NMtDS0=    0 NMtDT0=    0
 Symmetry not used in FoFCou.
 Leave Link  703 at Sun May 25 03:36:37 2025, MaxMem=  3758096384 cpu:               0.5 elap:               0.1
 (Enter /apps/easybuild-2022/easybuild/software/Compiler/NVHPC/22.11-CUDA-11.7.0/Gaussian/g16c01-CUDA-11.7.0/g16/l716.exe)
 Dipole        =-1.42698758D-01 6.95515680D-01-2.51886514D-01
 Polarizability= 0.00000000D+00 0.00000000D+00 0.00000000D+00
                 0.00000000D+00 0.00000000D+00 0.00000000D+00
 -------------------------------------------------------------------
 Center     Atomic                   Forces (Hartrees/Bohr)
 Number     Number              X              Y              Z
 -------------------------------------------------------------------
      1        6           0.000000010   -0.000000072   -0.000000188
      2        9          -0.000000212   -0.000004576   -0.000012145
      3        9          -0.000000777    0.000012238    0.000001826
      4        9           0.000000997   -0.000007981    0.000009427
      5       16          -0.000000045   -0.000000619   -0.000001649
      6        8           0.000001267   -0.000009000   -0.000001455
      7        8          -0.000001433    0.000005871   -0.000006951
      8        8           0.000000244    0.000003753    0.000010007
      9        1          -0.000000052    0.000000386    0.000001127
 -------------------------------------------------------------------
 Cartesian Forces:  Max     0.000012238 RMS     0.000005320
 Leave Link  716 at Sun May 25 03:36:37 2025, MaxMem=  3758096384 cpu:               0.0 elap:               0.0
 (Enter /apps/easybuild-2022/easybuild/software/Compiler/NVHPC/22.11-CUDA-11.7.0/Gaussian/g16c01-CUDA-11.7.0/g16/l123.exe)
 IRC-IRC-IRC-IRC-IRC-IRC-IRC-IRC-IRC-IRC-IRC-IRC-IRC-IRC-IRC-IRC-IRC-IRC
 Error in corrector energy =          -0.0000000002
 Magnitude of corrector gradient =     0.0000276357
 Magnitude of analytic gradient =      0.0000276435
 Magnitude of difference =             0.0000001135
 Angle between gradients (degrees)=    0.2348
 Pt  1 Step number  20 out of a maximum of  20
 Using modified Bulirsch-Stoer corrector integration.
   Using distance weighted interpolants to fit PES.
 PreDWI: IReCr0= 2 IReCr1= 1 IReCr2= 1 IReCr3= 1
 Modified Bulirsch-Stoer Extrapolation Cycles:
    EPS =    0.000010000000000
    Cycle     1 NS=    48
      PEZero:  N= 2 I= 1 D=  1.78D-04 Err=  4.80D-04
    Cycle     2 NS=    64 Truncation Error =  0.000480095
      PEZero:  N= 3 I= 2 D=  1.78D-04 Err=  7.39D-04
      PEZero:  N= 3 I= 1 D=  3.55D-04 Err=  6.29D-04
    Cycle     3 NS=    96 Truncation Error =  0.000628541
      PEZero:  N= 4 I= 3 D=  8.88D-05 Err=  1.32D-03
      PEZero:  N= 4 I= 2 D=  2.66D-04 Err=  1.02D-03
      PEZero:  N= 4 I= 1 D=  4.44D-04 Err=  8.49D-04
    Cycle     4 NS=   128 Truncation Error =  0.000849382
      PEZero:  N= 5 I= 4 D=  8.88D-05 Err=  2.01D-03
      PEZero:  N= 5 I= 3 D=  1.78D-04 Err=  1.69D-03
      PEZero:  N= 5 I= 2 D=  3.55D-04 Err=  1.18D-03
      PEZero:  N= 5 I= 1 D=  5.33D-04 Err=  8.96D-04
    Cycle     5 NS=   192 Truncation Error =  0.000896434
      PEZero:  N= 6 I= 5 D=  4.44D-05 Err=  3.23D-03
      PEZero:  N= 6 I= 4 D=  1.33D-04 Err=  2.31D-03
      PEZero:  N= 6 I= 3 D=  2.22D-04 Err=  1.75D-03
      PEZero:  N= 6 I= 2 D=  4.00D-04 Err=  1.16D-03
      PEZero:  N= 6 I= 1 D=  5.77D-04 Err=  8.68D-04
    Cycle     6 NS=   256 Truncation Error =  0.000867579
      PEZero:  N= 7 I= 6 D=  4.44D-05 Err=  4.40D-03
      PEZero:  N= 7 I= 5 D=  8.88D-05 Err=  3.36D-03
      PEZero:  N= 7 I= 4 D=  1.78D-04 Err=  2.21D-03
      PEZero:  N= 7 I= 3 D=  2.66D-04 Err=  1.62D-03
      PEZero:  N= 7 I= 2 D=  4.44D-04 Err=  1.06D-03
      PEZero:  N= 7 I= 1 D=  6.22D-04 Err=  7.88D-04
    Cycle     7 NS=   384 Truncation Error =  0.000788451
      PEZero:  N= 8 I= 7 D=  2.22D-05 Err=  6.29D-03
      PEZero:  N= 8 I= 6 D=  6.66D-05 Err=  4.00D-03
      PEZero:  N= 8 I= 5 D=  1.11D-04 Err=  2.78D-03
      PEZero:  N= 8 I= 4 D=  2.00D-04 Err=  1.74D-03
      PEZero:  N= 8 I= 3 D=  2.89D-04 Err=  1.23D-03
      PEZero:  N= 8 I= 2 D=  4.66D-04 Err=  7.85D-04
      PEZero:  N= 8 I= 1 D=  6.44D-04 Err=  5.68D-04
    Cycle     8 NS=   512 Truncation Error =  0.000568039
      PEZero:  N= 9 I= 8 D=  2.22D-05 Err=  7.39D-03
      PEZero:  N= 9 I= 7 D=  4.44D-05 Err=  4.79D-03
      PEZero:  N= 9 I= 6 D=  8.88D-05 Err=  2.79D-03
      PEZero:  N= 9 I= 5 D=  1.33D-04 Err=  1.87D-03
      PEZero:  N= 9 I= 4 D=  2.22D-04 Err=  1.14D-03
      PEZero:  N= 9 I= 3 D=  3.11D-04 Err=  8.05D-04
      PEZero:  N= 9 I= 2 D=  4.89D-04 Err=  5.14D-04
      PEZero:  N= 9 I= 1 D=  6.66D-04 Err=  3.74D-04
    Cycle     9 NS=   768 Truncation Error =  0.000373688
      PEZero:  N=10 I= 9 D=  1.11D-05 Err=  6.22D-03
      PEZero:  N=10 I= 8 D=  3.33D-05 Err=  9.09D-04
      PEZero:  N=10 I= 7 D=  5.55D-05 Err=  1.78D-03
    Cycle    10 NS=  1024 Truncation Error =  0.000908699
      PEZero:  N=11 I=10 D=  1.11D-05 Err=  2.89D-04
      PEZero:  N=11 I= 9 D=  2.22D-05 Err=  5.79D-03
    Cycle    11 NS=  1536 Truncation Error =  0.000289006
 Maximum DWI energy   std dev =  0.000000107 at pt   183
 Maximum DWI gradient std dev =  2.051872642 at pt     2
 WARNING: Bulirsch-Stoer Method is not Converging
 SUMMARY OF CORRECTOR INTEGRATION:
   Predictor End Point Energy =  -959.258086
   Old End Point Energy       =  -959.258086
   Corrected End Point Energy =  -959.258086
   Predictor End-Start Dist.  =     0.068214
   Old End-Start Dist.        =     0.068189
   New End-Start Dist.        =     0.068189
   New End-Old End Dist.      =     0.000005
 CORRECTOR INTEGRATION CONVERGENCE:
   Recorrection delta-x convergence threshold:    0.010000
   Delta-x Convergence NOT Met
 Maximum number of corrector steps exceded.
 Error termination via Lnk1e in /apps/easybuild-2022/easybuild/software/Compiler/NVHPC/22.11-CUDA-11.7.0/Gaussian/g16c01-CUDA-11.7.0/g16/l123.exe at Sun May 25 03:36:37 2025.
 Job cpu time:       0 days  0 hours  2 minutes 32.3 seconds.
 Elapsed time:       0 days  0 hours  0 minutes 31.1 seconds.
 File lengths (MBytes):  RWF=     10 Int=      0 D2E=      0 Chk=      3 Scr=      1
done
