 Entering Gaussian System, Link 0=g16
 Initial command:
 /apps/easybuild-2022/easybuild/software/Compiler/NVHPC/22.11-CUDA-11.7.0/Gaussian/g16c01-CUDA-11.7.0/g16/l1.exe "/tmp/Gau-262859.inp" -scrdir="/tmp/"
 Entering Link 1 = /apps/easybuild-2022/easybuild/software/Compiler/NVHPC/22.11-CUDA-11.7.0/Gaussian/g16c01-CUDA-11.7.0/g16/l1.exe PID=    262861.
  
 Copyright (c) 1988-2019, Gaussian, Inc.  All Rights Reserved.
  
 This is part of the Gaussian(R) 16 program.  It is based on
 the Gaussian(R) 09 system (copyright 2009, Gaussian, Inc.),
 the Gaussian(R) 03 system (copyright 2003, Gaussian, Inc.),
 the Gaussian(R) 98 system (copyright 1998, Gaussian, Inc.),
 the Gaussian(R) 94 system (copyright 1995, Gaussian, Inc.),
 the Gaussian 92(TM) system (copyright 1992, Gaussian, Inc.),
 the Gaussian 90(TM) system (copyright 1990, Gaussian, Inc.),
 the Gaussian 88(TM) system (copyright 1988, Gaussian, Inc.),
 the Gaussian 86(TM) system (copyright 1986, Carnegie Mellon
 University), and the Gaussian 82(TM) system (copyright 1983,
 Carnegie Mellon University). Gaussian is a federally registered
 trademark of Gaussian, Inc.
  
 This software contains proprietary and confidential information,
 including trade secrets, belonging to Gaussian, Inc.
  
 This software is provided under written license and may be
 used, copied, transmitted, or stored only in accord with that
 written license.
  
 The following legend is applicable only to US Government
 contracts under FAR:
  
                    RESTRICTED RIGHTS LEGEND
  
 Use, reproduction and disclosure by the US Government is
 subject to restrictions as set forth in subparagraphs (a)
 and (c) of the Commercial Computer Software - Restricted
 Rights clause in FAR 52.227-19.
  
 Gaussian, Inc.
 340 Quinnipiac St., Bldg. 40, Wallingford CT 06492
  
  
 ---------------------------------------------------------------
 Warning -- This program may not be used in any manner that
 competes with the business of Gaussian, Inc. or will provide
 assistance to any competitor of Gaussian, Inc.  The licensee
 of this program is prohibited from giving any competitor of
 Gaussian, Inc. access to this program.  By using this program,
 the user acknowledges that Gaussian, Inc. is engaged in the
 business of creating and licensing software in the field of
 computational chemistry and represents and warrants to the
 licensee that it is not a competitor of Gaussian, Inc. and that
 it will not use this program in any manner prohibited above.
 ---------------------------------------------------------------
  

 Cite this work as:
 Gaussian 16, Revision C.01,
 M. J. Frisch, G. W. Trucks, H. B. Schlegel, G. E. Scuseria, 
 M. A. Robb, J. R. Cheeseman, G. Scalmani, V. Barone, 
 G. A. Petersson, H. Nakatsuji, X. Li, M. Caricato, A. V. Marenich, 
 J. Bloino, B. G. Janesko, R. Gomperts, B. Mennucci, H. P. Hratchian, 
 J. V. Ortiz, A. F. Izmaylov, J. L. Sonnenberg, D. Williams-Young, 
 F. Ding, F. Lipparini, F. Egidi, J. Goings, B. Peng, A. Petrone, 
 T. Henderson, D. Ranasinghe, V. G. Zakrzewski, J. Gao, N. Rega, 
 G. Zheng, W. Liang, M. Hada, M. Ehara, K. Toyota, R. Fukuda, 
 J. Hasegawa, M. Ishida, T. Nakajima, Y. Honda, O. Kitao, H. Nakai, 
 T. Vreven, K. Throssell, J. A. Montgomery, Jr., J. E. Peralta, 
 F. Ogliaro, M. J. Bearpark, J. J. Heyd, E. N. Brothers, K. N. Kudin, 
 V. N. Staroverov, T. A. Keith, R. Kobayashi, J. Normand, 
 K. Raghavachari, A. P. Rendell, J. C. Burant, S. S. Iyengar, 
 J. Tomasi, M. Cossi, J. M. Millam, M. Klene, C. Adamo, R. Cammi, 
 J. W. Ochterski, R. L. Martin, K. Morokuma, O. Farkas, 
 J. B. Foresman, and D. J. Fox, Gaussian, Inc., Wallingford CT, 2019.
 
 ******************************************
 Gaussian 16:  ES64L-G16RevC.01  3-Jul-2019
                25-May-2025 
 ******************************************
 %mem=28GB
 %chk=1502984803620600000001_intra_H_migration_5_9_IRC_F
 %nprocshared=8
 Will use up to    8 processors via shared memory.
 ----------------------------------------------------------------------
 #P M062X/Def2TZVPP Symm(None) scf(xqc) pop(None) geom(AllCheck,NoKeepC
 onstants) guess(Read) irc(RCFC,forward,MaxPoints=100,StepSize=2)
 ----------------------------------------------------------------------
 1/10=5,18=10,22=1,26=3,29=20007,38=1,39=2,42=100,44=3,172=1/1,23;
 2/12=2,15=3,29=1,40=1/2;
 3/5=44,7=202,11=2,14=-4,25=1,30=1,71=2,74=-55,116=-2,140=1/1,2,3;
 4/5=1/1;
 5/5=2,8=3,13=1,38=6/2,8;
 8/6=4,10=90,11=11/1;
 11/6=1,8=1,9=11,15=111,16=1,31=1/1,2,10;
 10/6=1,13=1,31=1/2;
 7/10=1,25=1,30=1/1,2,3,16;
 1/18=10,22=1,26=3,39=2,42=100,44=3/23(2);
 2/15=3,29=1/2;
 99/5=20/99;
 2/15=3,29=1/2;
 3/5=44,7=202,11=2,14=-2,25=1,30=1,71=2,74=-55,140=1/1,2,3;
 4/5=5,16=3,69=1/1;
 5/5=2,8=3,13=1,38=5/2,8;
 8/6=4,10=90,11=11/1;
 11/6=1,8=1,9=11,15=111,16=1,31=1/1,2,10;
 10/6=1,13=1,31=1/2;
 7/10=1,25=1,30=1/1,2,3,16;
 1/18=10,22=1,26=3,39=2,42=100,44=3/23(-8);
 2/15=3,29=1/2;
 99/5=20,9=1/99;
 Leave Link    1 at Sun May 25 03:36:18 2025, MaxMem=  3758096384 cpu:               0.1 elap:               0.0
 (Enter /apps/easybuild-2022/easybuild/software/Compiler/NVHPC/22.11-CUDA-11.7.0/Gaussian/g16c01-CUDA-11.7.0/g16/l101.exe)
 Structure from the checkpoint file:  "1502984803620600000001_intra_H_migration_5_9_IRC_F.chk"
 ------------------------------
 Gaussian input prepared by ASE
 ------------------------------
 Charge =  0 Multiplicity = 1
 Redundant internal coordinates found in file.  (old form).
 C,0,-0.1197799816,-0.0356623109,0.1030027544
 F,0,-0.6575939581,0.6949952288,-0.8534091031
 F,0,-0.633946162,0.3059963298,1.2680834686
 F,0,-0.3485051332,-1.3132343186,-0.1293840078
 S,0,1.699952041,0.2489507478,0.1452257573
 O,0,2.2212870988,-0.5542391866,1.1814499134
 O,0,2.1724299126,0.0840081434,-1.2667571119
 O,0,1.8808141084,1.7359624248,0.1600271012
 H,0,2.2558560741,1.3460569416,-1.0113637721
 Recover connectivity data from disk.
 ITRead=  0  0  0  0  0  0  0  0  0
 MicOpt= -1 -1 -1 -1 -1 -1 -1 -1 -1
 NAtoms=      9 NQM=        9 NQMF=       0 NMMI=      0 NMMIF=      0
                NMic=       0 NMicF=      0.
                    Isotopes and Nuclear Properties:
 (Nuclear quadrupole moments (NQMom) in fm**2, nuclear magnetic moments (NMagM)
  in nuclear magnetons)

  Atom         1           2           3           4           5           6           7           8           9
 IAtWgt=          12          19          19          19          32          16          16          16           1
 AtmWgt=  12.0000000  18.9984032  18.9984032  18.9984032  31.9720718  15.9949146  15.9949146  15.9949146   1.0078250
 NucSpn=           0           1           1           1           0           0           0           0           1
 AtZEff=   3.6000000   6.7500000   6.7500000   6.7500000  13.6000000   5.6000000   5.6000000   5.6000000   1.0000000
 NQMom=    0.0000000   0.0000000   0.0000000   0.0000000   0.0000000   0.0000000   0.0000000   0.0000000   0.0000000
 NMagM=    0.0000000   2.6288670   2.6288670   2.6288670   0.0000000   0.0000000   0.0000000   0.0000000   2.7928460
 AtZNuc=   6.0000000   9.0000000   9.0000000   9.0000000  16.0000000   8.0000000   8.0000000   8.0000000   1.0000000
 Leave Link  101 at Sun May 25 03:36:18 2025, MaxMem=  3758096384 cpu:               0.2 elap:               0.2
 (Enter /apps/easybuild-2022/easybuild/software/Compiler/NVHPC/22.11-CUDA-11.7.0/Gaussian/g16c01-CUDA-11.7.0/g16/l123.exe)
 IRC-IRC-IRC-IRC-IRC-IRC-IRC-IRC-IRC-IRC-IRC-IRC-IRC-IRC-IRC-IRC-IRC-IRC
 ------------------------------------------------------------------------
 INPUT DATA FOR L123
 ------------------------------------------------------------------------
 GENERAL PARAMETERS:
 Rxn path following direction = Forward
 Maximum points per path      = 100
 Step size                    =   0.020 bohr
 Integration scheme           = HPC                                 
    Redo corrector integration= Yes                                 
    DWI Weight Power          =  2
    DWI will use Hessian update vectors when possible.
    Max correction cycles     =  20
 Initial Hessian              = ReadFC from chk
 Hessian evaluation           = All updating
 Hessian updating method      = Bofill                              
 ------------------------------------------------------------------------
          ******** Start new reaction path calculation ********
 RCFC Option Requested - Data Read From Chk File:
 "1502984803620600000001_intra_H_migration_5_9_IRC_F.chk"
   Energy From Chk =   -962.0697029

 Current Structure is TS -> form Hessian eigenvectors.
                            Recovering Hessian eigenvectors from chk file.
 Supplied step size of   0.0200 bohr.
    Integration on MW PES will use step size of   0.0209 sqrt(amu)*bohr.
 Point Number:   0          Path Number:   1
 Calculating another point on the path.
 Point Number  1 in FORWARD path direction.
 Using LQA Reaction Path Following.
 IRC-IRC-IRC-IRC-IRC-IRC-IRC-IRC-IRC-IRC-IRC-IRC-IRC-IRC-IRC-IRC-IRC-IRC
 Leave Link  123 at Sun May 25 03:36:18 2025, MaxMem=  3758096384 cpu:               0.1 elap:               0.0
 (Enter /apps/easybuild-2022/easybuild/software/Compiler/NVHPC/22.11-CUDA-11.7.0/Gaussian/g16c01-CUDA-11.7.0/g16/l202.exe)
                          Input orientation:                          
 ---------------------------------------------------------------------
 Center     Atomic      Atomic             Coordinates (Angstroms)
 Number     Number       Type             X           Y           Z
 ---------------------------------------------------------------------
      1          6           0       -0.949262   -0.190398    0.026465
      2          9           0       -1.487079    0.540276   -0.929933
      3          9           0       -1.463415    0.151275    1.191548
      4          9           0       -1.178003   -1.467969   -0.205910
      5         16           0        0.870415    0.094527    0.068957
      6          8           0        1.391818   -0.709046    1.104851
      7          8           0        1.343088   -0.070422   -1.343531
      8          8           0        1.051177    1.581008    0.083801
      9          1           0        1.427766    1.183422   -1.094731
 ---------------------------------------------------------------------
                    Distance matrix (angstroms):
                    1          2          3          4          5
     1  C    0.000000
     2  F    1.318267   0.000000
     3  F    1.318526   2.156980   0.000000
     4  F    1.318525   2.157031   2.157846   0.000000
     5  S    1.842339   2.598894   2.590404   2.590938   0.000000
     6  O    2.629176   3.740213   2.983291   2.982958   1.410909
     7  O    2.673229   2.924698   3.788435   3.098906   1.498583
     8  O    2.672624   2.924640   3.097484   3.788064   1.497505
     9  H    2.965590   2.989501   3.827705   3.822291   1.688343
                    6          7          8          9
     6  O    0.000000
     7  O    2.530769   0.000000
     8  O    2.530400   2.202206   0.000000
     9  H    2.901876   1.281092   1.299550   0.000000
 Symmetry turned off by external request.
 Stoichiometry    CHF3O3S
 Rotational constants (GHZ):           2.7398009           1.6122385           1.5227335
 Leave Link  202 at Sun May 25 03:36:18 2025, MaxMem=  3758096384 cpu:               0.0 elap:               0.0
 (Enter /apps/easybuild-2022/easybuild/software/Compiler/NVHPC/22.11-CUDA-11.7.0/Gaussian/g16c01-CUDA-11.7.0/g16/l301.exe)
 Standard basis: def2TZVPP (5D, 7F)
 Ernie: Thresh=  0.10000D-02 Tol=  0.10000D-05 Strict=F.
   273 basis functions,   443 primitive gaussians,   315 cartesian basis functions
    37 alpha electrons       37 beta electrons
       nuclear repulsion energy       574.2882399751 Hartrees.
 IExCor= 4336 DFT=T Ex+Corr=M062X ExCW=0 ScaHFX=  0.540000
 ScaDFX=  1.000000  1.000000  1.000000  1.000000 ScalE2=  1.000000  1.000000
 IRadAn=      5 IRanWt=     -1 IRanGd=            0 ICorTp=0 IEmpDi=  4
 NAtoms=    9 NActive=    9 NUniq=    9 SFac= 1.00D+00 NAtFMM=   60 NAOKFM=F Big=F
 Integral buffers will be    131072 words long.
 Raffenetti 2 integral format.
 Two-electron integral symmetry is turned off.
 Leave Link  301 at Sun May 25 03:36:18 2025, MaxMem=  3758096384 cpu:               0.1 elap:               0.0
 (Enter /apps/easybuild-2022/easybuild/software/Compiler/NVHPC/22.11-CUDA-11.7.0/Gaussian/g16c01-CUDA-11.7.0/g16/l302.exe)
 NPDir=0 NMtPBC=     1 NCelOv=     1 NCel=       1 NClECP=     1 NCelD=      1
         NCelK=      1 NCelE2=     1 NClLst=     1 CellRange=     0.0.
 One-electron integrals computed using PRISM.
   1 Symmetry operations used in ECPInt.
 ECPInt:  NShTT=    4753 NPrTT=   15592 LenC2=    4598 LenP2D=   11608.
 LDataN:  DoStor=T MaxTD1= 6 Len=  172
 NBasis=   273 RedAO= T EigKep=  9.16D-04  NBF=   273
 NBsUse=   273 1.00D-06 EigRej= -1.00D+00 NBFU=   273
 Precomputing XC quadrature grid using
 IXCGrd= 4 IRadAn=           5 IRanWt=          -1 IRanGd=           0 AccXCQ= 0.00D+00.
 Generated NRdTot=       0 NPtTot=           0 NUsed=           0 NTot=          32
 NSgBfM=   311   311   311   311   311 MxSgAt=     9 MxSgA2=     9.
 Leave Link  302 at Sun May 25 03:36:18 2025, MaxMem=  3758096384 cpu:               0.7 elap:               0.1
 (Enter /apps/easybuild-2022/easybuild/software/Compiler/NVHPC/22.11-CUDA-11.7.0/Gaussian/g16c01-CUDA-11.7.0/g16/l303.exe)
 DipDrv:  MaxL=1.
 Leave Link  303 at Sun May 25 03:36:18 2025, MaxMem=  3758096384 cpu:               0.1 elap:               0.0
 (Enter /apps/easybuild-2022/easybuild/software/Compiler/NVHPC/22.11-CUDA-11.7.0/Gaussian/g16c01-CUDA-11.7.0/g16/l401.exe)
 Initial guess from the checkpoint file:  "1502984803620600000001_intra_H_migration_5_9_IRC_F.chk"
 B after Tr=    -1.567497   -0.292419   -0.144633
         Rot=    1.000000    0.000041   -0.000009    0.000019 Ang=   0.01 deg.
 Guess basis will be translated and rotated to current coordinates.
 JPrj=2 DoOrth=T DoCkMO=T.
 Leave Link  401 at Sun May 25 03:36:19 2025, MaxMem=  3758096384 cpu:               0.3 elap:               0.1
 (Enter /apps/easybuild-2022/easybuild/software/Compiler/NVHPC/22.11-CUDA-11.7.0/Gaussian/g16c01-CUDA-11.7.0/g16/l502.exe)
 Keep R1 ints in memory in canonical form, NReq=715214100.
 FoFCou: FMM=F IPFlag=           0 FMFlag=           0 FMFlg1=           0
         NFxFlg=           0 DoJE=F BraDBF=F KetDBF=F FulRan=T
         wScrn=  0.000000 ICntrl=       600 IOpCl=  0 I1Cent=           0 NGrid=           0
         NMat0=    1 NMatS0=  37401 NMatT0=    0 NMatD0=    1 NMtDS0=    0 NMtDT0=    0
 Symmetry not used in FoFCou.
 Two-electron integral symmetry not used.
 Closed shell SCF:
 Using DIIS extrapolation, IDIIS=  1040.
 NGot=  3758096384 LenX=  3058457068 LenY=  3058357402
 Requested convergence on RMS density matrix=1.00D-08 within  32 cycles.
 Requested convergence on MAX density matrix=1.00D-06.
 Requested convergence on             energy=1.00D-06.
 No special actions if energy rises.

 Cycle   1  Pass 1  IDiag  1:
 E= -962.069681594013    
 DIIS: error= 3.38D-04 at cycle   1 NSaved=   1.
 NSaved= 1 IEnMin= 1 EnMin= -962.069681594013     IErMin= 1 ErrMin= 3.38D-04
 ErrMax= 3.38D-04  0.00D+00 EMaxC= 1.00D-01 BMatC= 3.33D-05 BMatP= 3.33D-05
 IDIUse=3 WtCom= 9.97D-01 WtEn= 3.38D-03
 Coeff-Com:  0.100D+01
 Coeff-En:   0.100D+01
 Coeff:      0.100D+01
 Gap=     0.462 Goal=   None    Shift=    0.000
 RMSDP=2.09D-05 MaxDP=8.76D-04              OVMax= 3.21D-03

 Cycle   2  Pass 1  IDiag  1:
 E= -962.069724512983     Delta-E=       -0.000042918970 Rises=F Damp=F
 DIIS: error= 1.72D-04 at cycle   2 NSaved=   2.
 NSaved= 2 IEnMin= 2 EnMin= -962.069724512983     IErMin= 2 ErrMin= 1.72D-04
 ErrMax= 1.72D-04  0.00D+00 EMaxC= 1.00D-01 BMatC= 6.29D-06 BMatP= 3.33D-05
 IDIUse=3 WtCom= 9.98D-01 WtEn= 1.72D-03
 Coeff-Com:  0.158D+00 0.842D+00
 Coeff-En:   0.000D+00 0.100D+01
 Coeff:      0.157D+00 0.843D+00
 Gap=     0.461 Goal=   None    Shift=    0.000
 RMSDP=9.93D-06 MaxDP=4.85D-04 DE=-4.29D-05 OVMax= 1.59D-03

 Cycle   3  Pass 1  IDiag  1:
 E= -962.069725691092     Delta-E=       -0.000001178109 Rises=F Damp=F
 DIIS: error= 1.28D-04 at cycle   3 NSaved=   3.
 NSaved= 3 IEnMin= 3 EnMin= -962.069725691092     IErMin= 3 ErrMin= 1.28D-04
 ErrMax= 1.28D-04  0.00D+00 EMaxC= 1.00D-01 BMatC= 7.49D-06 BMatP= 6.29D-06
 IDIUse=3 WtCom= 4.69D-01 WtEn= 5.31D-01
 Coeff-Com: -0.864D-01 0.549D+00 0.537D+00
 Coeff-En:   0.000D+00 0.438D+00 0.562D+00
 Coeff:     -0.405D-01 0.490D+00 0.550D+00
 Gap=     0.461 Goal=   None    Shift=    0.000
 RMSDP=6.14D-06 MaxDP=2.53D-04 DE=-1.18D-06 OVMax= 7.08D-04

 Cycle   4  Pass 1  IDiag  1:
 E= -962.069730829573     Delta-E=       -0.000005138481 Rises=F Damp=F
 DIIS: error= 3.88D-05 at cycle   4 NSaved=   4.
 NSaved= 4 IEnMin= 4 EnMin= -962.069730829573     IErMin= 4 ErrMin= 3.88D-05
 ErrMax= 3.88D-05  0.00D+00 EMaxC= 1.00D-01 BMatC= 3.45D-07 BMatP= 6.29D-06
 IDIUse=1 WtCom= 1.00D+00 WtEn= 0.00D+00
 Coeff-Com: -0.169D-01-0.505D-01 0.153D+00 0.915D+00
 Coeff:     -0.169D-01-0.505D-01 0.153D+00 0.915D+00
 Gap=     0.461 Goal=   None    Shift=    0.000
 RMSDP=1.84D-06 MaxDP=9.81D-05 DE=-5.14D-06 OVMax= 3.38D-04

 Cycle   5  Pass 1  IDiag  1:
 E= -962.069731171735     Delta-E=       -0.000000342162 Rises=F Damp=F
 DIIS: error= 4.05D-06 at cycle   5 NSaved=   5.
 NSaved= 5 IEnMin= 5 EnMin= -962.069731171735     IErMin= 5 ErrMin= 4.05D-06
 ErrMax= 4.05D-06  0.00D+00 EMaxC= 1.00D-01 BMatC= 6.94D-09 BMatP= 3.45D-07
 IDIUse=1 WtCom= 1.00D+00 WtEn= 0.00D+00
 Coeff-Com:  0.545D-02-0.630D-01-0.381D-01 0.133D+00 0.962D+00
 Coeff:      0.545D-02-0.630D-01-0.381D-01 0.133D+00 0.962D+00
 Gap=     0.461 Goal=   None    Shift=    0.000
 RMSDP=5.42D-07 MaxDP=2.19D-05 DE=-3.42D-07 OVMax= 7.94D-05

 Cycle   6  Pass 1  IDiag  1:
 E= -962.069731184452     Delta-E=       -0.000000012717 Rises=F Damp=F
 DIIS: error= 2.21D-06 at cycle   6 NSaved=   6.
 NSaved= 6 IEnMin= 6 EnMin= -962.069731184452     IErMin= 6 ErrMin= 2.21D-06
 ErrMax= 2.21D-06  0.00D+00 EMaxC= 1.00D-01 BMatC= 1.35D-09 BMatP= 6.94D-09
 IDIUse=1 WtCom= 1.00D+00 WtEn= 0.00D+00
 Coeff-Com:  0.310D-02-0.196D-01-0.260D-01-0.904D-02 0.380D+00 0.672D+00
 Coeff:      0.310D-02-0.196D-01-0.260D-01-0.904D-02 0.380D+00 0.672D+00
 Gap=     0.461 Goal=   None    Shift=    0.000
 RMSDP=1.05D-07 MaxDP=4.78D-06 DE=-1.27D-08 OVMax= 1.18D-05

 Cycle   7  Pass 1  IDiag  1:
 E= -962.069731185393     Delta-E=       -0.000000000941 Rises=F Damp=F
 DIIS: error= 7.03D-07 at cycle   7 NSaved=   7.
 NSaved= 7 IEnMin= 7 EnMin= -962.069731185393     IErMin= 7 ErrMin= 7.03D-07
 ErrMax= 7.03D-07  0.00D+00 EMaxC= 1.00D-01 BMatC= 1.71D-10 BMatP= 1.35D-09
 IDIUse=1 WtCom= 1.00D+00 WtEn= 0.00D+00
 Coeff-Com:  0.527D-03 0.137D-02-0.597D-02-0.235D-01 0.273D-01 0.279D+00
 Coeff-Com:  0.721D+00
 Coeff:      0.527D-03 0.137D-02-0.597D-02-0.235D-01 0.273D-01 0.279D+00
 Coeff:      0.721D+00
 Gap=     0.461 Goal=   None    Shift=    0.000
 RMSDP=3.54D-08 MaxDP=1.96D-06 DE=-9.41D-10 OVMax= 4.08D-06

 Cycle   8  Pass 1  IDiag  1:
 E= -962.069731185552     Delta-E=       -0.000000000159 Rises=F Damp=F
 DIIS: error= 7.78D-08 at cycle   8 NSaved=   8.
 NSaved= 8 IEnMin= 8 EnMin= -962.069731185552     IErMin= 8 ErrMin= 7.78D-08
 ErrMax= 7.78D-08  0.00D+00 EMaxC= 1.00D-01 BMatC= 3.94D-12 BMatP= 1.71D-10
 IDIUse=1 WtCom= 1.00D+00 WtEn= 0.00D+00
 Coeff-Com: -0.167D-03 0.200D-02 0.102D-02-0.423D-02-0.275D-01-0.783D-02
 Coeff-Com:  0.109D+00 0.928D+00
 Coeff:     -0.167D-03 0.200D-02 0.102D-02-0.423D-02-0.275D-01-0.783D-02
 Coeff:      0.109D+00 0.928D+00
 Gap=     0.461 Goal=   None    Shift=    0.000
 RMSDP=1.12D-08 MaxDP=5.82D-07 DE=-1.59D-10 OVMax= 1.37D-06

 Cycle   9  Pass 1  IDiag  1:
 E= -962.069731185514     Delta-E=        0.000000000038 Rises=F Damp=F
 DIIS: error= 5.47D-08 at cycle   9 NSaved=   9.
 NSaved= 9 IEnMin= 8 EnMin= -962.069731185552     IErMin= 9 ErrMin= 5.47D-08
 ErrMax= 5.47D-08  0.00D+00 EMaxC= 1.00D-01 BMatC= 1.25D-12 BMatP= 3.94D-12
 IDIUse=1 WtCom= 1.00D+00 WtEn= 0.00D+00
 Coeff-Com: -0.109D-03 0.100D-02 0.789D-03-0.137D-02-0.156D-01-0.146D-01
 Coeff-Com:  0.289D-01 0.482D+00 0.519D+00
 Coeff:     -0.109D-03 0.100D-02 0.789D-03-0.137D-02-0.156D-01-0.146D-01
 Coeff:      0.289D-01 0.482D+00 0.519D+00
 Gap=     0.461 Goal=   None    Shift=    0.000
 RMSDP=2.77D-09 MaxDP=1.39D-07 DE= 3.77D-11 OVMax= 2.72D-07

 SCF Done:  E(RM062X) =  -962.069731186     A.U. after    9 cycles
            NFock=  9  Conv=0.28D-08     -V/T= 2.0027
 KE= 9.595014008194D+02 PE=-3.429903890609D+03 EE= 9.340445186294D+02
 Leave Link  502 at Sun May 25 03:36:31 2025, MaxMem=  3758096384 cpu:              61.2 elap:              12.5
 (Enter /apps/easybuild-2022/easybuild/software/Compiler/NVHPC/22.11-CUDA-11.7.0/Gaussian/g16c01-CUDA-11.7.0/g16/l508.exe)
 QCSCF skips out because SCF is already converged.
 Leave Link  508 at Sun May 25 03:36:31 2025, MaxMem=  3758096384 cpu:               0.0 elap:               0.0
 (Enter /apps/easybuild-2022/easybuild/software/Compiler/NVHPC/22.11-CUDA-11.7.0/Gaussian/g16c01-CUDA-11.7.0/g16/l801.exe)
 DoSCS=F DFT=T ScalE2(SS,OS)=  1.000000  1.000000
 Range of M.O.s used for correlation:     1   273
 NBasis=   273 NAE=    37 NBE=    37 NFC=     0 NFV=     0
 NROrb=    273 NOA=    37 NOB=    37 NVA=   236 NVB=   236

 **** Warning!!: The largest alpha MO coefficient is  0.10733776D+02

 Leave Link  801 at Sun May 25 03:36:31 2025, MaxMem=  3758096384 cpu:               0.1 elap:               0.0
 (Enter /apps/easybuild-2022/easybuild/software/Compiler/NVHPC/22.11-CUDA-11.7.0/Gaussian/g16c01-CUDA-11.7.0/g16/l1101.exe)
 Leave Link 1101 at Sun May 25 03:36:31 2025, MaxMem=  3758096384 cpu:               0.1 elap:               0.0
 (Enter /apps/easybuild-2022/easybuild/software/Compiler/NVHPC/22.11-CUDA-11.7.0/Gaussian/g16c01-CUDA-11.7.0/g16/l1102.exe)
 Symmetrizing basis deriv contribution to polar:
 IMax=3 JMax=2 DiffMx= 0.00D+00
 Leave Link 1102 at Sun May 25 03:36:31 2025, MaxMem=  3758096384 cpu:               0.1 elap:               0.1
 (Enter /apps/easybuild-2022/easybuild/software/Compiler/NVHPC/22.11-CUDA-11.7.0/Gaussian/g16c01-CUDA-11.7.0/g16/l1110.exe)
 Leave Link 1110 at Sun May 25 03:36:31 2025, MaxMem=  3758096384 cpu:               0.1 elap:               0.0
 (Enter /apps/easybuild-2022/easybuild/software/Compiler/NVHPC/22.11-CUDA-11.7.0/Gaussian/g16c01-CUDA-11.7.0/g16/l1002.exe)
 Minotr:  Closed shell wavefunction.
 Leave Link 1002 at Sun May 25 03:36:31 2025, MaxMem=  3758096384 cpu:               0.1 elap:               0.0
 (Enter /apps/easybuild-2022/easybuild/software/Compiler/NVHPC/22.11-CUDA-11.7.0/Gaussian/g16c01-CUDA-11.7.0/g16/l701.exe)
 ... and contract with generalized density number  0.
 Compute integral first derivatives.
   1 Symmetry operations used in ECPInt.
 ECPInt:  NShTT=    4753 NPrTT=   15592 LenC2=    4598 LenP2D=   11608.
 LDataN:  DoStor=T MaxTD1= 7 Len=  274
 Leave Link  701 at Sun May 25 03:36:32 2025, MaxMem=  3758096384 cpu:               0.6 elap:               0.2
 (Enter /apps/easybuild-2022/easybuild/software/Compiler/NVHPC/22.11-CUDA-11.7.0/Gaussian/g16c01-CUDA-11.7.0/g16/l702.exe)
 L702 exits ... SP integral derivatives will be done elsewhere.
 Leave Link  702 at Sun May 25 03:36:32 2025, MaxMem=  3758096384 cpu:               0.1 elap:               0.0
 (Enter /apps/easybuild-2022/easybuild/software/Compiler/NVHPC/22.11-CUDA-11.7.0/Gaussian/g16c01-CUDA-11.7.0/g16/l703.exe)
 Integral derivatives from FoFJK, PRISM(SPDF).
 Compute integral first derivatives, UseDBF=F ICtDFT=           0.
 Calling FoFJK, ICntrl=      2127 FMM=F ISym2X=0 I1Cent= 0 IOpClX= 0 NMat=1 NMatS=1 NMatT=0.
 FoFJK:  IHMeth= 1 ICntrl=    2127 DoSepK=F KAlg= 0 I1Cent=           0 FoldK=F
 IRaf=         0 NMat=       1 IRICut=       1 DoRegI=T DoRafI=F ISym2E= 0 IDoP0=0 IntGTp=1.
 FoFCou: FMM=F IPFlag=           0 FMFlag=      100000 FMFlg1=         800
         NFxFlg=           0 DoJE=F BraDBF=F KetDBF=F FulRan=T
         wScrn=  0.000000 ICntrl=      2127 IOpCl=  0 I1Cent=           0 NGrid=           0
         NMat0=    1 NMatS0=      1 NMatT0=    0 NMatD0=    1 NMtDS0=    0 NMtDT0=    0
 Symmetry not used in FoFCou.
 Leave Link  703 at Sun May 25 03:36:36 2025, MaxMem=  3758096384 cpu:              36.5 elap:               4.7
 (Enter /apps/easybuild-2022/easybuild/software/Compiler/NVHPC/22.11-CUDA-11.7.0/Gaussian/g16c01-CUDA-11.7.0/g16/l716.exe)
 Dipole        =-3.01976086D-01 2.55837780D-01-3.83718502D-01
 Polarizability= 0.00000000D+00 0.00000000D+00 0.00000000D+00
                 0.00000000D+00 0.00000000D+00 0.00000000D+00
 -------------------------------------------------------------------
 Center     Atomic                   Forces (Hartrees/Bohr)
 Number     Number              X              Y              Z
 -------------------------------------------------------------------
      1        6          -0.000001793   -0.000057037   -0.000043485
      2        9          -0.000003782   -0.000007942   -0.000005431
      3        9           0.000079267   -0.000029313   -0.000065644
      4        9          -0.000061293   -0.000080146   -0.000026442
      5       16          -0.000389764    0.002287357    0.001966922
      6        8           0.000065873   -0.000358275   -0.000309170
      7        8           0.000560224    0.001116427   -0.000993472
      8        8          -0.000595157   -0.000926821    0.001165964
      9        1           0.000346425   -0.001944249   -0.001689242
 -------------------------------------------------------------------
 Cartesian Forces:  Max     0.002287357 RMS     0.000889905
 Leave Link  716 at Sun May 25 03:36:36 2025, MaxMem=  3758096384 cpu:               0.1 elap:               0.0
 (Enter /apps/easybuild-2022/easybuild/software/Compiler/NVHPC/22.11-CUDA-11.7.0/Gaussian/g16c01-CUDA-11.7.0/g16/l123.exe)
 IRC-IRC-IRC-IRC-IRC-IRC-IRC-IRC-IRC-IRC-IRC-IRC-IRC-IRC-IRC-IRC-IRC-IRC
 Pt  1 Step number   1 out of a maximum of  20
 Using modified Bulirsch-Stoer corrector integration.
   Using distance weighted interpolants to fit PES.
 PreDWI: IReCr0= 2 IReCr1= 1 IReCr2= 1 IReCr3= 1
 Modified Bulirsch-Stoer Extrapolation Cycles:
    EPS =    0.000010000000000
    Cycle     1 NS=    48
      PEZero:  N= 2 I= 1 D=  5.45D-05 Err=  1.17D-04
    Cycle     2 NS=    64 Truncation Error =  0.000117235
      PEZero:  N= 3 I= 2 D=  5.45D-05 Err=  7.82D-05
      PEZero:  N= 3 I= 1 D=  1.09D-04 Err=  5.41D-10
    Cycle     3 NS=    96 Truncation Error =  0.000000001
 BS completed in    3 cycles and     208 integration steps.
 Maximum DWI energy   std dev =  0.000000020 at pt    15
 Maximum DWI gradient std dev =  0.001212791 at pt     1
 SUMMARY OF CORRECTOR INTEGRATION:
   Predictor End Point Energy =  -962.069731
   Old End Point Energy       =  -962.069731
   Corrected End Point Energy =  -962.069731
   Predictor End-Start Dist.  =     0.020944
   Old End-Start Dist.        =     0.020944
   New End-Start Dist.        =     0.020944
   New End-Old End Dist.      =     0.000036
 CORRECTOR INTEGRATION CONVERGENCE:
   Recorrection delta-x convergence threshold:    0.010000
   Delta-x Convergence Met
 Point Number:   1          Path Number:   1
                    CURRENT STRUCTURE
                Cartesian Coordinates (Ang):                
 ---------------------------------------------------------------------
 Center     Atomic                     Coordinates (Angstroms)
 Number     Number                        X           Y           Z
 ---------------------------------------------------------------------
      1          6                   -0.949264   -0.190398    0.026466
      2          9                   -1.487080    0.540276   -0.929932
      3          9                   -1.463415    0.151274    1.191548
      4          9                   -1.178003   -1.467968   -0.205911
      5         16                    0.870416    0.094527    0.068957
      6          8                    1.391818   -0.709046    1.104850
      7          8                    1.343088   -0.070422   -1.343532
      8          8                    1.051177    1.581008    0.083802
      9          1                    1.427773    1.183429   -1.094736
 ---------------------------------------------------------------------
   CHANGE IN THE REACTION COORDINATE =    0.02094
   NET REACTION COORDINATE UP TO THIS POINT =    0.02094
  # OF POINTS ALONG THE PATH =   1
  # OF STEPS =   1

 Calculating another point on the path.
 Point Number  2 in FORWARD path direction.
 Using LQA Reaction Path Following.
   LQA: T_Est iteration completed in    3 iterations.
 IRC-IRC-IRC-IRC-IRC-IRC-IRC-IRC-IRC-IRC-IRC-IRC-IRC-IRC-IRC-IRC-IRC-IRC
 Leave Link  123 at Sun May 25 03:36:36 2025, MaxMem=  3758096384 cpu:               0.1 elap:               0.1
 (Enter /apps/easybuild-2022/easybuild/software/Compiler/NVHPC/22.11-CUDA-11.7.0/Gaussian/g16c01-CUDA-11.7.0/g16/l202.exe)
                          Input orientation:                          
 ---------------------------------------------------------------------
 Center     Atomic      Atomic             Coordinates (Angstroms)
 Number     Number       Type             X           Y           Z
 ---------------------------------------------------------------------
      1          6           0       -0.949263   -0.190417    0.026450
      2          9           0       -1.487080    0.540274   -0.929934
      3          9           0       -1.463398    0.151269    1.191534
      4          9           0       -1.178016   -1.467986   -0.205916
      5         16           0        0.870366    0.094820    0.069209
      6          8           0        1.391835   -0.709138    1.104772
      7          8           0        1.343232   -0.070137   -1.343786
      8          8           0        1.051024    1.580771    0.084100
      9          1           0        1.429170    1.175521   -1.101586
 ---------------------------------------------------------------------
                    Distance matrix (angstroms):
                    1          2          3          4          5
     1  C    0.000000
     2  F    1.318267   0.000000
     3  F    1.318523   2.156968   0.000000
     4  F    1.318523   2.157042   2.157845   0.000000
     5  S    1.842345   2.598897   2.590223   2.591124   0.000000
     6  O    2.629180   3.740215   2.983317   2.982933   1.410911
     7  O    2.673490   2.924815   3.788673   3.099262   1.499122
     8  O    2.672373   2.924529   3.097129   3.787829   1.496967
     9  H    2.965670   2.989568   3.830724   3.819395   1.688472
                    6          7          8          9
     6  O    0.000000
     7  O    2.531031   0.000000
     8  O    2.530139   2.202212   0.000000
     9  H    2.901956   1.271892   1.308844   0.000000
 Symmetry turned off by external request.
 Stoichiometry    CHF3O3S
 Rotational constants (GHZ):           2.7397928           1.6122341           1.5227309
 Leave Link  202 at Sun May 25 03:36:37 2025, MaxMem=  3758096384 cpu:               0.1 elap:               0.0
 (Enter /apps/easybuild-2022/easybuild/software/Compiler/NVHPC/22.11-CUDA-11.7.0/Gaussian/g16c01-CUDA-11.7.0/g16/l301.exe)
 Standard basis: def2TZVPP (5D, 7F)
 Ernie: Thresh=  0.10000D-02 Tol=  0.10000D-05 Strict=F.
   273 basis functions,   443 primitive gaussians,   315 cartesian basis functions
    37 alpha electrons       37 beta electrons
       nuclear repulsion energy       574.2882229304 Hartrees.
 IExCor= 4336 DFT=T Ex+Corr=M062X ExCW=0 ScaHFX=  0.540000
 ScaDFX=  1.000000  1.000000  1.000000  1.000000 ScalE2=  1.000000  1.000000
 IRadAn=      5 IRanWt=     -1 IRanGd=            0 ICorTp=0 IEmpDi=  4
 NAtoms=    9 NActive=    9 NUniq=    9 SFac= 1.00D+00 NAtFMM=   60 NAOKFM=F Big=F
 Integral buffers will be    131072 words long.
 Raffenetti 2 integral format.
 Two-electron integral symmetry is turned off.
 Leave Link  301 at Sun May 25 03:36:37 2025, MaxMem=  3758096384 cpu:               0.1 elap:               0.0
 (Enter /apps/easybuild-2022/easybuild/software/Compiler/NVHPC/22.11-CUDA-11.7.0/Gaussian/g16c01-CUDA-11.7.0/g16/l302.exe)
 NPDir=0 NMtPBC=     1 NCelOv=     1 NCel=       1 NClECP=     1 NCelD=      1
         NCelK=      1 NCelE2=     1 NClLst=     1 CellRange=     0.0.
 One-electron integrals computed using PRISM.
   1 Symmetry operations used in ECPInt.
 ECPInt:  NShTT=    4753 NPrTT=   15592 LenC2=    4597 LenP2D=   11606.
 LDataN:  DoStor=T MaxTD1= 6 Len=  172
 NBasis=   273 RedAO= T EigKep=  9.16D-04  NBF=   273
 NBsUse=   273 1.00D-06 EigRej= -1.00D+00 NBFU=   273
 Precomputing XC quadrature grid using
 IXCGrd= 4 IRadAn=           5 IRanWt=          -1 IRanGd=           0 AccXCQ= 0.00D+00.
 Generated NRdTot=       0 NPtTot=           0 NUsed=           0 NTot=          32
 NSgBfM=   311   311   311   311   311 MxSgAt=     9 MxSgA2=     9.
 Leave Link  302 at Sun May 25 03:36:37 2025, MaxMem=  3758096384 cpu:               0.7 elap:               0.2
 (Enter /apps/easybuild-2022/easybuild/software/Compiler/NVHPC/22.11-CUDA-11.7.0/Gaussian/g16c01-CUDA-11.7.0/g16/l303.exe)
 DipDrv:  MaxL=1.
 Leave Link  303 at Sun May 25 03:36:37 2025, MaxMem=  3758096384 cpu:               0.1 elap:               0.1
 (Enter /apps/easybuild-2022/easybuild/software/Compiler/NVHPC/22.11-CUDA-11.7.0/Gaussian/g16c01-CUDA-11.7.0/g16/l401.exe)
 Initial guess from the checkpoint file:  "1502984803620600000001_intra_H_migration_5_9_IRC_F.chk"
 B after Tr=     0.000017   -0.000096   -0.000083
         Rot=    1.000000    0.000041   -0.000010    0.000019 Ang=   0.01 deg.
 Guess basis will be translated and rotated to current coordinates.
 JPrj=2 DoOrth=T DoCkMO=T.
 Generating alternative initial guess.
 ExpMin= 9.52D-02 ExpMax= 6.07D+04 ExpMxC= 2.07D+03 IAcc=3 IRadAn=         5 AccDes= 0.00D+00
 Harris functional with IExCor= 1009 and IRadAn=       5 diagonalized for initial guess.
 HarFok:  IExCor= 1009 AccDes= 0.00D+00 IRadAn=         5 IDoV= 1 UseB2=F ITyADJ=14
 ICtDFT=  3500011 ScaDFX=  1.000000  1.000000  1.000000  1.000000
 FoFCou: FMM=F IPFlag=           0 FMFlag=      100000 FMFlg1=           0
         NFxFlg=           0 DoJE=T BraDBF=F KetDBF=T FulRan=T
         wScrn=  0.000000 ICntrl=       500 IOpCl=  0 I1Cent=   200000004 NGrid=           0
         NMat0=    1 NMatS0=      1 NMatT0=    0 NMatD0=    1 NMtDS0=    0 NMtDT0=    0
 Symmetry not used in FoFCou.
 Harris En= -961.634988119151    
 Leave Link  401 at Sun May 25 03:36:38 2025, MaxMem=  3758096384 cpu:               2.6 elap:               0.7
 (Enter /apps/easybuild-2022/easybuild/software/Compiler/NVHPC/22.11-CUDA-11.7.0/Gaussian/g16c01-CUDA-11.7.0/g16/l502.exe)
 Keep R1 ints in memory in canonical form, NReq=715214100.
 FoFCou: FMM=F IPFlag=           0 FMFlag=           0 FMFlg1=           0
         NFxFlg=           0 DoJE=F BraDBF=F KetDBF=F FulRan=T
         wScrn=  0.000000 ICntrl=       600 IOpCl=  0 I1Cent=           0 NGrid=           0
         NMat0=    1 NMatS0=  37401 NMatT0=    0 NMatD0=    1 NMtDS0=    0 NMtDT0=    0
 Symmetry not used in FoFCou.
 Two-electron integral symmetry not used.
 Closed shell SCF:
 Using DIIS extrapolation, IDIIS=  1040.
 NGot=  3758096384 LenX=  3058457068 LenY=  3058357402
 Requested convergence on RMS density matrix=1.00D-08 within  32 cycles.
 Requested convergence on MAX density matrix=1.00D-06.
 Requested convergence on             energy=1.00D-06.
 No special actions if energy rises.
 Integral accuracy reduced to 1.0D-05 until final iterations.

 Cycle   1  Pass 0  IDiag  1:
 E= -962.069702501224    
 DIIS: error= 3.36D-04 at cycle   1 NSaved=   1.
 NSaved= 1 IEnMin= 1 EnMin= -962.069702501224     IErMin= 1 ErrMin= 3.36D-04
 ErrMax= 3.36D-04  0.00D+00 EMaxC= 1.00D-01 BMatC= 3.37D-05 BMatP= 3.37D-05
 IDIUse=3 WtCom= 9.97D-01 WtEn= 3.36D-03
 Coeff-Com:  0.100D+01
 Coeff-En:   0.100D+01
 Coeff:      0.100D+01
 Gap=     1.021 Goal=   None    Shift=    0.000
 RMSDP=2.16D-05 MaxDP=8.73D-04              OVMax= 3.23D-03

 Cycle   2  Pass 0  IDiag  1:
 E= -962.069745790809     Delta-E=       -0.000043289585 Rises=F Damp=F
 DIIS: error= 1.73D-04 at cycle   2 NSaved=   2.
 NSaved= 2 IEnMin= 2 EnMin= -962.069745790809     IErMin= 2 ErrMin= 1.73D-04
 ErrMax= 1.73D-04  0.00D+00 EMaxC= 1.00D-01 BMatC= 6.43D-06 BMatP= 3.37D-05
 IDIUse=3 WtCom= 9.98D-01 WtEn= 1.73D-03
 Coeff-Com:  0.160D+00 0.840D+00
 Coeff-En:   0.000D+00 0.100D+01
 Coeff:      0.160D+00 0.840D+00
 Gap=     0.461 Goal=   None    Shift=    0.000
 RMSDP=1.01D-05 MaxDP=4.90D-04 DE=-4.33D-05 OVMax= 1.59D-03

 Cycle   3  Pass 0  IDiag  1:
 E= -962.069746988929     Delta-E=       -0.000001198120 Rises=F Damp=F
 DIIS: error= 1.28D-04 at cycle   3 NSaved=   3.
 NSaved= 3 IEnMin= 3 EnMin= -962.069746988929     IErMin= 3 ErrMin= 1.28D-04
 ErrMax= 1.28D-04  0.00D+00 EMaxC= 1.00D-01 BMatC= 7.61D-06 BMatP= 6.43D-06
 IDIUse=3 WtCom= 4.69D-01 WtEn= 5.31D-01
 Coeff-Com: -0.855D-01 0.548D+00 0.538D+00
 Coeff-En:   0.000D+00 0.439D+00 0.561D+00
 Coeff:     -0.401D-01 0.490D+00 0.550D+00
 Gap=     0.461 Goal=   None    Shift=    0.000
 RMSDP=6.17D-06 MaxDP=2.54D-04 DE=-1.20D-06 OVMax= 7.09D-04

 Initial convergence to 1.0D-05 achieved.  Increase integral accuracy.
 Cycle   4  Pass 1  IDiag  1:
 E= -962.069815549771     Delta-E=       -0.000068560842 Rises=F Damp=F
 DIIS: error= 3.94D-05 at cycle   1 NSaved=   1.
 NSaved= 1 IEnMin= 1 EnMin= -962.069815549771     IErMin= 1 ErrMin= 3.94D-05
 ErrMax= 3.94D-05  0.00D+00 EMaxC= 1.00D-01 BMatC= 6.66D-07 BMatP= 6.66D-07
 IDIUse=1 WtCom= 1.00D+00 WtEn= 0.00D+00
 Coeff-Com:  0.100D+01
 Coeff:      0.100D+01
 Gap=     0.461 Goal=   None    Shift=    0.000
 RMSDP=6.17D-06 MaxDP=2.54D-04 DE=-6.86D-05 OVMax= 4.75D-04

 Cycle   5  Pass 1  IDiag  1:
 E= -962.069815495389     Delta-E=        0.000000054382 Rises=F Damp=F
 DIIS: error= 4.33D-05 at cycle   2 NSaved=   2.
 NSaved= 2 IEnMin= 1 EnMin= -962.069815549771     IErMin= 1 ErrMin= 3.94D-05
 ErrMax= 4.33D-05  0.00D+00 EMaxC= 1.00D-01 BMatC= 9.11D-07 BMatP= 6.66D-07
 IDIUse=1 WtCom= 1.00D+00 WtEn= 0.00D+00
 Coeff-Com:  0.547D+00 0.453D+00
 Coeff:      0.547D+00 0.453D+00
 Gap=     0.461 Goal=   None    Shift=    0.000
 RMSDP=2.04D-06 MaxDP=8.60D-05 DE= 5.44D-08 OVMax= 2.25D-04

 Cycle   6  Pass 1  IDiag  1:
 E= -962.069816090220     Delta-E=       -0.000000594832 Rises=F Damp=F
 DIIS: error= 1.16D-05 at cycle   3 NSaved=   3.
 NSaved= 3 IEnMin= 3 EnMin= -962.069816090220     IErMin= 3 ErrMin= 1.16D-05
 ErrMax= 1.16D-05  0.00D+00 EMaxC= 1.00D-01 BMatC= 3.70D-08 BMatP= 6.66D-07
 IDIUse=1 WtCom= 1.00D+00 WtEn= 0.00D+00
 Coeff-Com: -0.451D-01 0.146D+00 0.899D+00
 Coeff:     -0.451D-01 0.146D+00 0.899D+00
 Gap=     0.461 Goal=   None    Shift=    0.000
 RMSDP=6.10D-07 MaxDP=2.41D-05 DE=-5.95D-07 OVMax= 8.14D-05

 Cycle   7  Pass 1  IDiag  1:
 E= -962.069816121580     Delta-E=       -0.000000031360 Rises=F Damp=F
 DIIS: error= 1.25D-06 at cycle   4 NSaved=   4.
 NSaved= 4 IEnMin= 4 EnMin= -962.069816121580     IErMin= 4 ErrMin= 1.25D-06
 ErrMax= 1.25D-06  0.00D+00 EMaxC= 1.00D-01 BMatC= 5.41D-10 BMatP= 3.70D-08
 IDIUse=1 WtCom= 1.00D+00 WtEn= 0.00D+00
 Coeff-Com: -0.136D-01 0.458D-02 0.807D-01 0.928D+00
 Coeff:     -0.136D-01 0.458D-02 0.807D-01 0.928D+00
 Gap=     0.461 Goal=   None    Shift=    0.000
 RMSDP=1.23D-07 MaxDP=4.74D-06 DE=-3.14D-08 OVMax= 1.81D-05

 Cycle   8  Pass 1  IDiag  1:
 E= -962.069816122563     Delta-E=       -0.000000000982 Rises=F Damp=F
 DIIS: error= 5.60D-07 at cycle   5 NSaved=   5.
 NSaved= 5 IEnMin= 5 EnMin= -962.069816122563     IErMin= 5 ErrMin= 5.60D-07
 ErrMax= 5.60D-07  0.00D+00 EMaxC= 1.00D-01 BMatC= 1.98D-10 BMatP= 5.41D-10
 IDIUse=1 WtCom= 1.00D+00 WtEn= 0.00D+00
 Coeff-Com:  0.955D-03-0.224D-01-0.107D+00 0.357D+00 0.771D+00
 Coeff:      0.955D-03-0.224D-01-0.107D+00 0.357D+00 0.771D+00
 Gap=     0.461 Goal=   None    Shift=    0.000
 RMSDP=5.62D-08 MaxDP=2.13D-06 DE=-9.82D-10 OVMax= 7.63D-06

 Cycle   9  Pass 1  IDiag  1:
 E= -962.069816122729     Delta-E=       -0.000000000166 Rises=F Damp=F
 DIIS: error= 1.89D-07 at cycle   6 NSaved=   6.
 NSaved= 6 IEnMin= 6 EnMin= -962.069816122729     IErMin= 6 ErrMin= 1.89D-07
 ErrMax= 1.89D-07  0.00D+00 EMaxC= 1.00D-01 BMatC= 2.67D-11 BMatP= 1.98D-10
 IDIUse=1 WtCom= 1.00D+00 WtEn= 0.00D+00
 Coeff-Com:  0.223D-02-0.111D-01-0.579D-01 0.613D-01 0.332D+00 0.673D+00
 Coeff:      0.223D-02-0.111D-01-0.579D-01 0.613D-01 0.332D+00 0.673D+00
 Gap=     0.461 Goal=   None    Shift=    0.000
 RMSDP=1.55D-08 MaxDP=5.74D-07 DE=-1.66D-10 OVMax= 1.84D-06

 Cycle  10  Pass 1  IDiag  1:
 E= -962.069816122754     Delta-E=       -0.000000000025 Rises=F Damp=F
 DIIS: error= 4.78D-08 at cycle   7 NSaved=   7.
 NSaved= 7 IEnMin= 7 EnMin= -962.069816122754     IErMin= 7 ErrMin= 4.78D-08
 ErrMax= 4.78D-08  0.00D+00 EMaxC= 1.00D-01 BMatC= 1.24D-12 BMatP= 2.67D-11
 IDIUse=1 WtCom= 1.00D+00 WtEn= 0.00D+00
 Coeff-Com:  0.359D-03-0.657D-03-0.347D-02-0.136D-01-0.171D-02 0.159D+00
 Coeff-Com:  0.860D+00
 Coeff:      0.359D-03-0.657D-03-0.347D-02-0.136D-01-0.171D-02 0.159D+00
 Coeff:      0.860D+00
 Gap=     0.461 Goal=   None    Shift=    0.000
 RMSDP=5.16D-09 MaxDP=2.03D-07 DE=-2.55D-11 OVMax= 5.77D-07

 SCF Done:  E(RM062X) =  -962.069816123     A.U. after   10 cycles
            NFock= 10  Conv=0.52D-08     -V/T= 2.0027
 KE= 9.595017417975D+02 PE=-3.429904213386D+03 EE= 9.340444325357D+02
 Leave Link  502 at Sun May 25 03:36:49 2025, MaxMem=  3758096384 cpu:              57.1 elap:              11.7
 (Enter /apps/easybuild-2022/easybuild/software/Compiler/NVHPC/22.11-CUDA-11.7.0/Gaussian/g16c01-CUDA-11.7.0/g16/l508.exe)
 QCSCF skips out because SCF is already converged.
 Leave Link  508 at Sun May 25 03:36:49 2025, MaxMem=  3758096384 cpu:               0.0 elap:               0.0
 (Enter /apps/easybuild-2022/easybuild/software/Compiler/NVHPC/22.11-CUDA-11.7.0/Gaussian/g16c01-CUDA-11.7.0/g16/l801.exe)
 DoSCS=F DFT=T ScalE2(SS,OS)=  1.000000  1.000000
 Range of M.O.s used for correlation:     1   273
 NBasis=   273 NAE=    37 NBE=    37 NFC=     0 NFV=     0
 NROrb=    273 NOA=    37 NOB=    37 NVA=   236 NVB=   236

 **** Warning!!: The largest alpha MO coefficient is  0.10387837D+02

 Leave Link  801 at Sun May 25 03:36:49 2025, MaxMem=  3758096384 cpu:               0.1 elap:               0.0
 (Enter /apps/easybuild-2022/easybuild/software/Compiler/NVHPC/22.11-CUDA-11.7.0/Gaussian/g16c01-CUDA-11.7.0/g16/l1101.exe)
 Leave Link 1101 at Sun May 25 03:36:49 2025, MaxMem=  3758096384 cpu:               0.1 elap:               0.0
 (Enter /apps/easybuild-2022/easybuild/software/Compiler/NVHPC/22.11-CUDA-11.7.0/Gaussian/g16c01-CUDA-11.7.0/g16/l1102.exe)
 Symmetrizing basis deriv contribution to polar:
 IMax=3 JMax=2 DiffMx= 0.00D+00
 Leave Link 1102 at Sun May 25 03:36:50 2025, MaxMem=  3758096384 cpu:               0.1 elap:               0.1
 (Enter /apps/easybuild-2022/easybuild/software/Compiler/NVHPC/22.11-CUDA-11.7.0/Gaussian/g16c01-CUDA-11.7.0/g16/l1110.exe)
 Leave Link 1110 at Sun May 25 03:36:50 2025, MaxMem=  3758096384 cpu:               0.1 elap:               0.0
 (Enter /apps/easybuild-2022/easybuild/software/Compiler/NVHPC/22.11-CUDA-11.7.0/Gaussian/g16c01-CUDA-11.7.0/g16/l1002.exe)
 Minotr:  Closed shell wavefunction.
 Leave Link 1002 at Sun May 25 03:36:50 2025, MaxMem=  3758096384 cpu:               0.1 elap:               0.0
 (Enter /apps/easybuild-2022/easybuild/software/Compiler/NVHPC/22.11-CUDA-11.7.0/Gaussian/g16c01-CUDA-11.7.0/g16/l701.exe)
 ... and contract with generalized density number  0.
 Compute integral first derivatives.
   1 Symmetry operations used in ECPInt.
 ECPInt:  NShTT=    4753 NPrTT=   15592 LenC2=    4597 LenP2D=   11606.
 LDataN:  DoStor=T MaxTD1= 7 Len=  274
 Leave Link  701 at Sun May 25 03:36:50 2025, MaxMem=  3758096384 cpu:               0.6 elap:               0.2
 (Enter /apps/easybuild-2022/easybuild/software/Compiler/NVHPC/22.11-CUDA-11.7.0/Gaussian/g16c01-CUDA-11.7.0/g16/l702.exe)
 L702 exits ... SP integral derivatives will be done elsewhere.
 Leave Link  702 at Sun May 25 03:36:50 2025, MaxMem=  3758096384 cpu:               0.1 elap:               0.0
 (Enter /apps/easybuild-2022/easybuild/software/Compiler/NVHPC/22.11-CUDA-11.7.0/Gaussian/g16c01-CUDA-11.7.0/g16/l703.exe)
 Integral derivatives from FoFJK, PRISM(SPDF).
 Compute integral first derivatives, UseDBF=F ICtDFT=           0.
 Calling FoFJK, ICntrl=      2127 FMM=F ISym2X=0 I1Cent= 0 IOpClX= 0 NMat=1 NMatS=1 NMatT=0.
 FoFJK:  IHMeth= 1 ICntrl=    2127 DoSepK=F KAlg= 0 I1Cent=           0 FoldK=F
 IRaf=         0 NMat=       1 IRICut=       1 DoRegI=T DoRafI=F ISym2E= 0 IDoP0=0 IntGTp=1.
 FoFCou: FMM=F IPFlag=           0 FMFlag=      100000 FMFlg1=         800
         NFxFlg=           0 DoJE=F BraDBF=F KetDBF=F FulRan=T
         wScrn=  0.000000 ICntrl=      2127 IOpCl=  0 I1Cent=           0 NGrid=           0
         NMat0=    1 NMatS0=      1 NMatT0=    0 NMatD0=    1 NMtDS0=    0 NMtDT0=    0
 Symmetry not used in FoFCou.
 Leave Link  703 at Sun May 25 03:36:55 2025, MaxMem=  3758096384 cpu:              37.1 elap:               5.0
 (Enter /apps/easybuild-2022/easybuild/software/Compiler/NVHPC/22.11-CUDA-11.7.0/Gaussian/g16c01-CUDA-11.7.0/g16/l716.exe)
 Dipole        =-2.99727266D-01 2.43271414D-01-3.94652153D-01
 Polarizability= 0.00000000D+00 0.00000000D+00 0.00000000D+00
                 0.00000000D+00 0.00000000D+00 0.00000000D+00
 -------------------------------------------------------------------
 Center     Atomic                   Forces (Hartrees/Bohr)
 Number     Number              X              Y              Z
 -------------------------------------------------------------------
      1        6           0.000012719   -0.000111491   -0.000093886
      2        9          -0.000002379   -0.000021351   -0.000016961
      3        9           0.000153755   -0.000049999   -0.000129858
      4        9          -0.000119820   -0.000163045   -0.000049497
      5       16          -0.000789666    0.004574804    0.003929577
      6        8           0.000126834   -0.000708222   -0.000614203
      7        8           0.001120806    0.002213190   -0.001981572
      8        8          -0.001191551   -0.001851565    0.002327392
      9        1           0.000689302   -0.003882322   -0.003370991
 -------------------------------------------------------------------
 Cartesian Forces:  Max     0.004574804 RMS     0.001776956
 Leave Link  716 at Sun May 25 03:36:55 2025, MaxMem=  3758096384 cpu:               0.1 elap:               0.0
 (Enter /apps/easybuild-2022/easybuild/software/Compiler/NVHPC/22.11-CUDA-11.7.0/Gaussian/g16c01-CUDA-11.7.0/g16/l123.exe)
 IRC-IRC-IRC-IRC-IRC-IRC-IRC-IRC-IRC-IRC-IRC-IRC-IRC-IRC-IRC-IRC-IRC-IRC
 Pt  2 Step number   1 out of a maximum of  20
 Using modified Bulirsch-Stoer corrector integration.
   Using distance weighted interpolants to fit PES.
 PreDWI: IReCr0= 2 IReCr1= 1 IReCr2= 1 IReCr3= 1
 Modified Bulirsch-Stoer Extrapolation Cycles:
    EPS =    0.000010000000000
    Cycle     1 NS=    48
      PEZero:  N= 2 I= 1 D=  1.09D-04 Err=  1.26D-07
    Cycle     2 NS=    64 Truncation Error =  0.000000126
 BS completed in    2 cycles and     112 integration steps.
 Maximum DWI energy   std dev =  0.000000011 at pt    22
 Maximum DWI gradient std dev =  0.000661330 at pt    27
 SUMMARY OF CORRECTOR INTEGRATION:
   Predictor End Point Energy =  -962.069816
   Old End Point Energy       =  -962.069816
   Corrected End Point Energy =  -962.069816
   Predictor End-Start Dist.  =     0.020937
   Old End-Start Dist.        =     0.020937
   New End-Start Dist.        =     0.020937
   New End-Old End Dist.      =     0.000013
 CORRECTOR INTEGRATION CONVERGENCE:
   Recorrection delta-x convergence threshold:    0.010000
   Delta-x Convergence Met
 Point Number:   2          Path Number:   1
                    CURRENT STRUCTURE
                Cartesian Coordinates (Ang):                
 ---------------------------------------------------------------------
 Center     Atomic                     Coordinates (Angstroms)
 Number     Number                        X           Y           Z
 ---------------------------------------------------------------------
      1          6                   -0.949263   -0.190417    0.026450
      2          9                   -1.487080    0.540274   -0.929934
      3          9                   -1.463398    0.151269    1.191534
      4          9                   -1.178016   -1.467986   -0.205916
      5         16                    0.870366    0.094820    0.069209
      6          8                    1.391835   -0.709138    1.104771
      7          8                    1.343232   -0.070137   -1.343786
      8          8                    1.051024    1.580771    0.084100
      9          1                    1.429173    1.175524   -1.101589
 ---------------------------------------------------------------------
   CHANGE IN THE REACTION COORDINATE =    0.02094
   NET REACTION COORDINATE UP TO THIS POINT =    0.04188
  # OF POINTS ALONG THE PATH =   2
  # OF STEPS =   1

 Calculating another point on the path.
 Point Number  3 in FORWARD path direction.
 Using LQA Reaction Path Following.
   LQA: T_Est iteration completed in    3 iterations.
 IRC-IRC-IRC-IRC-IRC-IRC-IRC-IRC-IRC-IRC-IRC-IRC-IRC-IRC-IRC-IRC-IRC-IRC
 Leave Link  123 at Sun May 25 03:36:55 2025, MaxMem=  3758096384 cpu:               0.1 elap:               0.1
 (Enter /apps/easybuild-2022/easybuild/software/Compiler/NVHPC/22.11-CUDA-11.7.0/Gaussian/g16c01-CUDA-11.7.0/g16/l202.exe)
                          Input orientation:                          
 ---------------------------------------------------------------------
 Center     Atomic      Atomic             Coordinates (Angstroms)
 Number     Number       Type             X           Y           Z
 ---------------------------------------------------------------------
      1          6           0       -0.949260   -0.190436    0.026434
      2          9           0       -1.487080    0.540272   -0.929936
      3          9           0       -1.463382    0.151263    1.191520
      4          9           0       -1.178029   -1.468004   -0.205921
      5         16           0        0.870315    0.095114    0.069461
      6          8           0        1.391851   -0.709228    1.104693
      7          8           0        1.343376   -0.069854   -1.344040
      8          8           0        1.050871    1.580534    0.084399
      9          1           0        1.430574    1.167622   -1.108446
 ---------------------------------------------------------------------
                    Distance matrix (angstroms):
                    1          2          3          4          5
     1  C    0.000000
     2  F    1.318267   0.000000
     3  F    1.318523   2.156957   0.000000
     4  F    1.318523   2.157053   2.157845   0.000000
     5  S    1.842348   2.598898   2.590041   2.591310   0.000000
     6  O    2.629180   3.740215   2.983343   2.982907   1.410912
     7  O    2.673746   2.924930   3.788911   3.099616   1.499661
     8  O    2.672119   2.924417   3.096772   3.787593   1.496428
     9  H    2.965786   2.989672   3.833772   3.816528   1.688676
                    6          7          8          9
     6  O    0.000000
     7  O    2.531293   0.000000
     8  O    2.529877   2.202220   0.000000
     9  H    2.902077   1.262717   1.318161   0.000000
 Symmetry turned off by external request.
 Stoichiometry    CHF3O3S
 Rotational constants (GHZ):           2.7397808           1.6122299           1.5227298
 Leave Link  202 at Sun May 25 03:36:55 2025, MaxMem=  3758096384 cpu:               0.1 elap:               0.0
 (Enter /apps/easybuild-2022/easybuild/software/Compiler/NVHPC/22.11-CUDA-11.7.0/Gaussian/g16c01-CUDA-11.7.0/g16/l301.exe)
 Standard basis: def2TZVPP (5D, 7F)
 Ernie: Thresh=  0.10000D-02 Tol=  0.10000D-05 Strict=F.
   273 basis functions,   443 primitive gaussians,   315 cartesian basis functions
    37 alpha electrons       37 beta electrons
       nuclear repulsion energy       574.2885968504 Hartrees.
 IExCor= 4336 DFT=T Ex+Corr=M062X ExCW=0 ScaHFX=  0.540000
 ScaDFX=  1.000000  1.000000  1.000000  1.000000 ScalE2=  1.000000  1.000000
 IRadAn=      5 IRanWt=     -1 IRanGd=            0 ICorTp=0 IEmpDi=  4
 NAtoms=    9 NActive=    9 NUniq=    9 SFac= 1.00D+00 NAtFMM=   60 NAOKFM=F Big=F
 Integral buffers will be    131072 words long.
 Raffenetti 2 integral format.
 Two-electron integral symmetry is turned off.
 Leave Link  301 at Sun May 25 03:36:55 2025, MaxMem=  3758096384 cpu:               0.1 elap:               0.0
 (Enter /apps/easybuild-2022/easybuild/software/Compiler/NVHPC/22.11-CUDA-11.7.0/Gaussian/g16c01-CUDA-11.7.0/g16/l302.exe)
 NPDir=0 NMtPBC=     1 NCelOv=     1 NCel=       1 NClECP=     1 NCelD=      1
         NCelK=      1 NCelE2=     1 NClLst=     1 CellRange=     0.0.
 One-electron integrals computed using PRISM.
   1 Symmetry operations used in ECPInt.
 ECPInt:  NShTT=    4753 NPrTT=   15592 LenC2=    4598 LenP2D=   11607.
 LDataN:  DoStor=T MaxTD1= 6 Len=  172
 NBasis=   273 RedAO= T EigKep=  9.16D-04  NBF=   273
 NBsUse=   273 1.00D-06 EigRej= -1.00D+00 NBFU=   273
 Precomputing XC quadrature grid using
 IXCGrd= 4 IRadAn=           5 IRanWt=          -1 IRanGd=           0 AccXCQ= 0.00D+00.
 Generated NRdTot=       0 NPtTot=           0 NUsed=           0 NTot=          32
 NSgBfM=   311   311   311   311   311 MxSgAt=     9 MxSgA2=     9.
 Leave Link  302 at Sun May 25 03:36:56 2025, MaxMem=  3758096384 cpu:               0.9 elap:               0.3
 (Enter /apps/easybuild-2022/easybuild/software/Compiler/NVHPC/22.11-CUDA-11.7.0/Gaussian/g16c01-CUDA-11.7.0/g16/l303.exe)
 DipDrv:  MaxL=1.
 Leave Link  303 at Sun May 25 03:36:56 2025, MaxMem=  3758096384 cpu:               0.1 elap:               0.1
 (Enter /apps/easybuild-2022/easybuild/software/Compiler/NVHPC/22.11-CUDA-11.7.0/Gaussian/g16c01-CUDA-11.7.0/g16/l401.exe)
 Initial guess from the checkpoint file:  "1502984803620600000001_intra_H_migration_5_9_IRC_F.chk"
 B after Tr=     0.000017   -0.000096   -0.000083
         Rot=    1.000000    0.000041   -0.000010    0.000019 Ang=   0.01 deg.
 Guess basis will be translated and rotated to current coordinates.
 JPrj=2 DoOrth=T DoCkMO=T.
 Generating alternative initial guess.
 ExpMin= 9.52D-02 ExpMax= 6.07D+04 ExpMxC= 2.07D+03 IAcc=3 IRadAn=         5 AccDes= 0.00D+00
 Harris functional with IExCor= 1009 and IRadAn=       5 diagonalized for initial guess.
 HarFok:  IExCor= 1009 AccDes= 0.00D+00 IRadAn=         5 IDoV= 1 UseB2=F ITyADJ=14
 ICtDFT=  3500011 ScaDFX=  1.000000  1.000000  1.000000  1.000000
 FoFCou: FMM=F IPFlag=           0 FMFlag=      100000 FMFlg1=           0
         NFxFlg=           0 DoJE=T BraDBF=F KetDBF=T FulRan=T
         wScrn=  0.000000 ICntrl=       500 IOpCl=  0 I1Cent=   200000004 NGrid=           0
         NMat0=    1 NMatS0=      1 NMatT0=    0 NMatD0=    1 NMtDS0=    0 NMtDT0=    0
 Symmetry not used in FoFCou.
 Harris En= -961.635141297220    
 Leave Link  401 at Sun May 25 03:36:56 2025, MaxMem=  3758096384 cpu:               2.6 elap:               0.5
 (Enter /apps/easybuild-2022/easybuild/software/Compiler/NVHPC/22.11-CUDA-11.7.0/Gaussian/g16c01-CUDA-11.7.0/g16/l502.exe)
 Keep R1 ints in memory in canonical form, NReq=715214100.
 FoFCou: FMM=F IPFlag=           0 FMFlag=           0 FMFlg1=           0
         NFxFlg=           0 DoJE=F BraDBF=F KetDBF=F FulRan=T
         wScrn=  0.000000 ICntrl=       600 IOpCl=  0 I1Cent=           0 NGrid=           0
         NMat0=    1 NMatS0=  37401 NMatT0=    0 NMatD0=    1 NMtDS0=    0 NMtDT0=    0
 Symmetry not used in FoFCou.
 Two-electron integral symmetry not used.
 Closed shell SCF:
 Using DIIS extrapolation, IDIIS=  1040.
 NGot=  3758096384 LenX=  3058457068 LenY=  3058357402
 Requested convergence on RMS density matrix=1.00D-08 within  32 cycles.
 Requested convergence on MAX density matrix=1.00D-06.
 Requested convergence on             energy=1.00D-06.
 No special actions if energy rises.
 Integral accuracy reduced to 1.0D-05 until final iterations.

 Cycle   1  Pass 0  IDiag  1:
 E= -962.069842624444    
 DIIS: error= 3.33D-04 at cycle   1 NSaved=   1.
 NSaved= 1 IEnMin= 1 EnMin= -962.069842624444     IErMin= 1 ErrMin= 3.33D-04
 ErrMax= 3.33D-04  0.00D+00 EMaxC= 1.00D-01 BMatC= 3.37D-05 BMatP= 3.37D-05
 IDIUse=3 WtCom= 9.97D-01 WtEn= 3.33D-03
 Coeff-Com:  0.100D+01
 Coeff-En:   0.100D+01
 Coeff:      0.100D+01
 Gap=     1.021 Goal=   None    Shift=    0.000
 RMSDP=2.15D-05 MaxDP=8.70D-04              OVMax= 3.22D-03

 Cycle   2  Pass 0  IDiag  1:
 E= -962.069885757998     Delta-E=       -0.000043133554 Rises=F Damp=F
 DIIS: error= 1.72D-04 at cycle   2 NSaved=   2.
 NSaved= 2 IEnMin= 2 EnMin= -962.069885757998     IErMin= 2 ErrMin= 1.72D-04
 ErrMax= 1.72D-04  0.00D+00 EMaxC= 1.00D-01 BMatC= 6.42D-06 BMatP= 3.37D-05
 IDIUse=3 WtCom= 9.98D-01 WtEn= 1.72D-03
 Coeff-Com:  0.161D+00 0.839D+00
 Coeff-En:   0.000D+00 0.100D+01
 Coeff:      0.161D+00 0.839D+00
 Gap=     0.461 Goal=   None    Shift=    0.000
 RMSDP=1.00D-05 MaxDP=4.91D-04 DE=-4.31D-05 OVMax= 1.58D-03

 Cycle   3  Pass 0  IDiag  1:
 E= -962.069886939517     Delta-E=       -0.000001181519 Rises=F Damp=F
 DIIS: error= 1.27D-04 at cycle   3 NSaved=   3.
 NSaved= 3 IEnMin= 3 EnMin= -962.069886939517     IErMin= 3 ErrMin= 1.27D-04
 ErrMax= 1.27D-04  0.00D+00 EMaxC= 1.00D-01 BMatC= 7.56D-06 BMatP= 6.42D-06
 IDIUse=3 WtCom= 4.70D-01 WtEn= 5.30D-01
 Coeff-Com: -0.835D-01 0.546D+00 0.537D+00
 Coeff-En:   0.000D+00 0.439D+00 0.561D+00
 Coeff:     -0.392D-01 0.490D+00 0.550D+00
 Gap=     0.461 Goal=   None    Shift=    0.000
 RMSDP=6.13D-06 MaxDP=2.54D-04 DE=-1.18D-06 OVMax= 7.02D-04

 Initial convergence to 1.0D-05 achieved.  Increase integral accuracy.
 Cycle   4  Pass 1  IDiag  1:
 E= -962.069956655725     Delta-E=       -0.000069716209 Rises=F Damp=F
 DIIS: error= 3.89D-05 at cycle   1 NSaved=   1.
 NSaved= 1 IEnMin= 1 EnMin= -962.069956655725     IErMin= 1 ErrMin= 3.89D-05
 ErrMax= 3.89D-05  0.00D+00 EMaxC= 1.00D-01 BMatC= 6.59D-07 BMatP= 6.59D-07
 IDIUse=1 WtCom= 1.00D+00 WtEn= 0.00D+00
 Coeff-Com:  0.100D+01
 Coeff:      0.100D+01
 Gap=     0.461 Goal=   None    Shift=    0.000
 RMSDP=6.13D-06 MaxDP=2.54D-04 DE=-6.97D-05 OVMax= 4.70D-04

 Cycle   5  Pass 1  IDiag  1:
 E= -962.069956608712     Delta-E=        0.000000047013 Rises=F Damp=F
 DIIS: error= 4.27D-05 at cycle   2 NSaved=   2.
 NSaved= 2 IEnMin= 1 EnMin= -962.069956655725     IErMin= 1 ErrMin= 3.89D-05
 ErrMax= 4.27D-05  0.00D+00 EMaxC= 1.00D-01 BMatC= 8.90D-07 BMatP= 6.59D-07
 IDIUse=1 WtCom= 1.00D+00 WtEn= 0.00D+00
 Coeff-Com:  0.545D+00 0.455D+00
 Coeff:      0.545D+00 0.455D+00
 Gap=     0.461 Goal=   None    Shift=    0.000
 RMSDP=2.03D-06 MaxDP=8.62D-05 DE= 4.70D-08 OVMax= 2.23D-04

 Cycle   6  Pass 1  IDiag  1:
 E= -962.069957189313     Delta-E=       -0.000000580600 Rises=F Damp=F
 DIIS: error= 1.17D-05 at cycle   3 NSaved=   3.
 NSaved= 3 IEnMin= 3 EnMin= -962.069957189313     IErMin= 3 ErrMin= 1.17D-05
 ErrMax= 1.17D-05  0.00D+00 EMaxC= 1.00D-01 BMatC= 3.77D-08 BMatP= 6.59D-07
 IDIUse=1 WtCom= 1.00D+00 WtEn= 0.00D+00
 Coeff-Com: -0.449D-01 0.149D+00 0.896D+00
 Coeff:     -0.449D-01 0.149D+00 0.896D+00
 Gap=     0.461 Goal=   None    Shift=    0.000
 RMSDP=6.09D-07 MaxDP=2.43D-05 DE=-5.81D-07 OVMax= 8.10D-05

 Cycle   7  Pass 1  IDiag  1:
 E= -962.069957220956     Delta-E=       -0.000000031644 Rises=F Damp=F
 DIIS: error= 1.24D-06 at cycle   4 NSaved=   4.
 NSaved= 4 IEnMin= 4 EnMin= -962.069957220956     IErMin= 4 ErrMin= 1.24D-06
 ErrMax= 1.24D-06  0.00D+00 EMaxC= 1.00D-01 BMatC= 5.32D-10 BMatP= 3.77D-08
 IDIUse=1 WtCom= 1.00D+00 WtEn= 0.00D+00
 Coeff-Com: -0.135D-01 0.504D-02 0.808D-01 0.928D+00
 Coeff:     -0.135D-01 0.504D-02 0.808D-01 0.928D+00
 Gap=     0.461 Goal=   None    Shift=    0.000
 RMSDP=1.22D-07 MaxDP=4.64D-06 DE=-3.16D-08 OVMax= 1.78D-05

 Cycle   8  Pass 1  IDiag  1:
 E= -962.069957221863     Delta-E=       -0.000000000907 Rises=F Damp=F
 DIIS: error= 5.54D-07 at cycle   5 NSaved=   5.
 NSaved= 5 IEnMin= 5 EnMin= -962.069957221863     IErMin= 5 ErrMin= 5.54D-07
 ErrMax= 5.54D-07  0.00D+00 EMaxC= 1.00D-01 BMatC= 1.95D-10 BMatP= 5.32D-10
 IDIUse=1 WtCom= 1.00D+00 WtEn= 0.00D+00
 Coeff-Com:  0.922D-03-0.225D-01-0.105D+00 0.356D+00 0.770D+00
 Coeff:      0.922D-03-0.225D-01-0.105D+00 0.356D+00 0.770D+00
 Gap=     0.461 Goal=   None    Shift=    0.000
 RMSDP=5.58D-08 MaxDP=2.11D-06 DE=-9.07D-10 OVMax= 7.51D-06

 Cycle   9  Pass 1  IDiag  1:
 E= -962.069957222036     Delta-E=       -0.000000000173 Rises=F Damp=F
 DIIS: error= 1.95D-07 at cycle   6 NSaved=   6.
 NSaved= 6 IEnMin= 6 EnMin= -962.069957222036     IErMin= 6 ErrMin= 1.95D-07
 ErrMax= 1.95D-07  0.00D+00 EMaxC= 1.00D-01 BMatC= 2.79D-11 BMatP= 1.95D-10
 IDIUse=1 WtCom= 1.00D+00 WtEn= 0.00D+00
 Coeff-Com:  0.222D-02-0.114D-01-0.582D-01 0.635D-01 0.339D+00 0.664D+00
 Coeff:      0.222D-02-0.114D-01-0.582D-01 0.635D-01 0.339D+00 0.664D+00
 Gap=     0.461 Goal=   None    Shift=    0.000
 RMSDP=1.56D-08 MaxDP=5.66D-07 DE=-1.73D-10 OVMax= 1.82D-06

 Cycle  10  Pass 1  IDiag  1:
 E= -962.069957222070     Delta-E=       -0.000000000034 Rises=F Damp=F
 DIIS: error= 5.51D-08 at cycle   7 NSaved=   7.
 NSaved= 7 IEnMin= 7 EnMin= -962.069957222070     IErMin= 7 ErrMin= 5.51D-08
 ErrMax= 5.51D-08  0.00D+00 EMaxC= 1.00D-01 BMatC= 1.49D-12 BMatP= 2.79D-11
 IDIUse=1 WtCom= 1.00D+00 WtEn= 0.00D+00
 Coeff-Com:  0.465D-03-0.118D-02-0.609D-02-0.108D-01 0.137D-01 0.184D+00
 Coeff-Com:  0.820D+00
 Coeff:      0.465D-03-0.118D-02-0.609D-02-0.108D-01 0.137D-01 0.184D+00
 Coeff:      0.820D+00
 Gap=     0.461 Goal=   None    Shift=    0.000
 RMSDP=5.26D-09 MaxDP=2.06D-07 DE=-3.37D-11 OVMax= 5.86D-07

 SCF Done:  E(RM062X) =  -962.069957222     A.U. after   10 cycles
            NFock= 10  Conv=0.53D-08     -V/T= 2.0027
 KE= 9.595023246684D+02 PE=-3.429905539225D+03 EE= 9.340446604844D+02
 Leave Link  502 at Sun May 25 03:37:08 2025, MaxMem=  3758096384 cpu:              57.8 elap:              12.0
 (Enter /apps/easybuild-2022/easybuild/software/Compiler/NVHPC/22.11-CUDA-11.7.0/Gaussian/g16c01-CUDA-11.7.0/g16/l508.exe)
 QCSCF skips out because SCF is already converged.
 Leave Link  508 at Sun May 25 03:37:08 2025, MaxMem=  3758096384 cpu:               0.0 elap:               0.0
 (Enter /apps/easybuild-2022/easybuild/software/Compiler/NVHPC/22.11-CUDA-11.7.0/Gaussian/g16c01-CUDA-11.7.0/g16/l801.exe)
 DoSCS=F DFT=T ScalE2(SS,OS)=  1.000000  1.000000
 Range of M.O.s used for correlation:     1   273
 NBasis=   273 NAE=    37 NBE=    37 NFC=     0 NFV=     0
 NROrb=    273 NOA=    37 NOB=    37 NVA=   236 NVB=   236

 **** Warning!!: The largest alpha MO coefficient is  0.10396417D+02

 Leave Link  801 at Sun May 25 03:37:08 2025, MaxMem=  3758096384 cpu:               0.1 elap:               0.0
 (Enter /apps/easybuild-2022/easybuild/software/Compiler/NVHPC/22.11-CUDA-11.7.0/Gaussian/g16c01-CUDA-11.7.0/g16/l1101.exe)
 Leave Link 1101 at Sun May 25 03:37:08 2025, MaxMem=  3758096384 cpu:               0.1 elap:               0.0
 (Enter /apps/easybuild-2022/easybuild/software/Compiler/NVHPC/22.11-CUDA-11.7.0/Gaussian/g16c01-CUDA-11.7.0/g16/l1102.exe)
 Symmetrizing basis deriv contribution to polar:
 IMax=3 JMax=2 DiffMx= 0.00D+00
 Leave Link 1102 at Sun May 25 03:37:08 2025, MaxMem=  3758096384 cpu:               0.1 elap:               0.1
 (Enter /apps/easybuild-2022/easybuild/software/Compiler/NVHPC/22.11-CUDA-11.7.0/Gaussian/g16c01-CUDA-11.7.0/g16/l1110.exe)
 Leave Link 1110 at Sun May 25 03:37:08 2025, MaxMem=  3758096384 cpu:               0.1 elap:               0.0
 (Enter /apps/easybuild-2022/easybuild/software/Compiler/NVHPC/22.11-CUDA-11.7.0/Gaussian/g16c01-CUDA-11.7.0/g16/l1002.exe)
 Minotr:  Closed shell wavefunction.
 Leave Link 1002 at Sun May 25 03:37:08 2025, MaxMem=  3758096384 cpu:               0.1 elap:               0.0
 (Enter /apps/easybuild-2022/easybuild/software/Compiler/NVHPC/22.11-CUDA-11.7.0/Gaussian/g16c01-CUDA-11.7.0/g16/l701.exe)
 ... and contract with generalized density number  0.
 Compute integral first derivatives.
   1 Symmetry operations used in ECPInt.
 ECPInt:  NShTT=    4753 NPrTT=   15592 LenC2=    4598 LenP2D=   11607.
 LDataN:  DoStor=T MaxTD1= 7 Len=  274
 Leave Link  701 at Sun May 25 03:37:09 2025, MaxMem=  3758096384 cpu:               1.0 elap:               0.3
 (Enter /apps/easybuild-2022/easybuild/software/Compiler/NVHPC/22.11-CUDA-11.7.0/Gaussian/g16c01-CUDA-11.7.0/g16/l702.exe)
 L702 exits ... SP integral derivatives will be done elsewhere.
 Leave Link  702 at Sun May 25 03:37:09 2025, MaxMem=  3758096384 cpu:               0.1 elap:               0.0
 (Enter /apps/easybuild-2022/easybuild/software/Compiler/NVHPC/22.11-CUDA-11.7.0/Gaussian/g16c01-CUDA-11.7.0/g16/l703.exe)
 Integral derivatives from FoFJK, PRISM(SPDF).
 Compute integral first derivatives, UseDBF=F ICtDFT=           0.
 Calling FoFJK, ICntrl=      2127 FMM=F ISym2X=0 I1Cent= 0 IOpClX= 0 NMat=1 NMatS=1 NMatT=0.
 FoFJK:  IHMeth= 1 ICntrl=    2127 DoSepK=F KAlg= 0 I1Cent=           0 FoldK=F
 IRaf=         0 NMat=       1 IRICut=       1 DoRegI=T DoRafI=F ISym2E= 0 IDoP0=0 IntGTp=1.
 FoFCou: FMM=F IPFlag=           0 FMFlag=      100000 FMFlg1=         800
         NFxFlg=           0 DoJE=F BraDBF=F KetDBF=F FulRan=T
         wScrn=  0.000000 ICntrl=      2127 IOpCl=  0 I1Cent=           0 NGrid=           0
         NMat0=    1 NMatS0=      1 NMatT0=    0 NMatD0=    1 NMtDS0=    0 NMtDT0=    0
 Symmetry not used in FoFCou.
 Leave Link  703 at Sun May 25 03:37:14 2025, MaxMem=  3758096384 cpu:              36.9 elap:               4.8
 (Enter /apps/easybuild-2022/easybuild/software/Compiler/NVHPC/22.11-CUDA-11.7.0/Gaussian/g16c01-CUDA-11.7.0/g16/l716.exe)
 Dipole        =-2.97464514D-01 2.30790877D-01-4.05565590D-01
 Polarizability= 0.00000000D+00 0.00000000D+00 0.00000000D+00
                 0.00000000D+00 0.00000000D+00 0.00000000D+00
 -------------------------------------------------------------------
 Center     Atomic                   Forces (Hartrees/Bohr)
 Number     Number              X              Y              Z
 -------------------------------------------------------------------
      1        6           0.000023813   -0.000166119   -0.000142842
      2        9          -0.000000833   -0.000034665   -0.000028553
      3        9           0.000229021   -0.000070960   -0.000195351
      4        9          -0.000177535   -0.000244813   -0.000072390
      5       16          -0.001181981    0.006854461    0.005876812
      6        8           0.000186693   -0.001056408   -0.000918235
      7        8           0.001675693    0.003277062   -0.002967360
      8        8          -0.001786553   -0.002769375    0.003487618
      9        1           0.001031682   -0.005789183   -0.005039698
 -------------------------------------------------------------------
 Cartesian Forces:  Max     0.006854461 RMS     0.002656293
 Leave Link  716 at Sun May 25 03:37:14 2025, MaxMem=  3758096384 cpu:               0.1 elap:               0.0
 (Enter /apps/easybuild-2022/easybuild/software/Compiler/NVHPC/22.11-CUDA-11.7.0/Gaussian/g16c01-CUDA-11.7.0/g16/l123.exe)
 IRC-IRC-IRC-IRC-IRC-IRC-IRC-IRC-IRC-IRC-IRC-IRC-IRC-IRC-IRC-IRC-IRC-IRC
 Pt  3 Step number   1 out of a maximum of  20
 Using modified Bulirsch-Stoer corrector integration.
   Using distance weighted interpolants to fit PES.
 PreDWI: IReCr0= 2 IReCr1= 1 IReCr2= 1 IReCr3= 1
 Modified Bulirsch-Stoer Extrapolation Cycles:
    EPS =    0.000010000000000
    Cycle     1 NS=    48
      PEZero:  N= 2 I= 1 D=  1.09D-04 Err=  1.36D-07
    Cycle     2 NS=    64 Truncation Error =  0.000000136
 BS completed in    2 cycles and     112 integration steps.
 Maximum DWI energy   std dev =  0.000000034 at pt    36
 Maximum DWI gradient std dev =  0.000609174 at pt    28
 SUMMARY OF CORRECTOR INTEGRATION:
   Predictor End Point Energy =  -962.069957
   Old End Point Energy       =  -962.069957
   Corrected End Point Energy =  -962.069957
   Predictor End-Start Dist.  =     0.020938
   Old End-Start Dist.        =     0.020938
   New End-Start Dist.        =     0.020938
   New End-Old End Dist.      =     0.000014
 CORRECTOR INTEGRATION CONVERGENCE:
   Recorrection delta-x convergence threshold:    0.010000
   Delta-x Convergence Met
 Point Number:   3          Path Number:   1
                    CURRENT STRUCTURE
                Cartesian Coordinates (Ang):                
 ---------------------------------------------------------------------
 Center     Atomic                     Coordinates (Angstroms)
 Number     Number                        X           Y           Z
 ---------------------------------------------------------------------
      1          6                   -0.949260   -0.190436    0.026434
      2          9                   -1.487080    0.540272   -0.929936
      3          9                   -1.463382    0.151263    1.191520
      4          9                   -1.178029   -1.468004   -0.205921
      5         16                    0.870315    0.095114    0.069461
      6          8                    1.391851   -0.709228    1.104693
      7          8                    1.343376   -0.069854   -1.344040
      8          8                    1.050871    1.580533    0.084399
      9          1                    1.430576    1.167627   -1.108450
 ---------------------------------------------------------------------
   CHANGE IN THE REACTION COORDINATE =    0.02094
   NET REACTION COORDINATE UP TO THIS POINT =    0.06282
  # OF POINTS ALONG THE PATH =   3
  # OF STEPS =   1

 Calculating another point on the path.
 Point Number  4 in FORWARD path direction.
 Using LQA Reaction Path Following.
   LQA: T_Est iteration completed in    3 iterations.
 IRC-IRC-IRC-IRC-IRC-IRC-IRC-IRC-IRC-IRC-IRC-IRC-IRC-IRC-IRC-IRC-IRC-IRC
 Leave Link  123 at Sun May 25 03:37:14 2025, MaxMem=  3758096384 cpu:               0.1 elap:               0.0
 (Enter /apps/easybuild-2022/easybuild/software/Compiler/NVHPC/22.11-CUDA-11.7.0/Gaussian/g16c01-CUDA-11.7.0/g16/l202.exe)
                          Input orientation:                          
 ---------------------------------------------------------------------
 Center     Atomic      Atomic             Coordinates (Angstroms)
 Number     Number       Type             X           Y           Z
 ---------------------------------------------------------------------
      1          6           0       -0.949257   -0.190455    0.026418
      2          9           0       -1.487080    0.540269   -0.929938
      3          9           0       -1.463365    0.151258    1.191506
      4          9           0       -1.178042   -1.468021   -0.205927
      5         16           0        0.870264    0.095409    0.069713
      6          8           0        1.391867   -0.709319    1.104614
      7          8           0        1.343520   -0.069573   -1.344295
      8          8           0        1.050718    1.580296    0.084699
      9          1           0        1.431981    1.159737   -1.115317
 ---------------------------------------------------------------------
                    Distance matrix (angstroms):
                    1          2          3          4          5
     1  C    0.000000
     2  F    1.318267   0.000000
     3  F    1.318524   2.156946   0.000000
     4  F    1.318522   2.157065   2.157844   0.000000
     5  S    1.842350   2.598899   2.589858   2.591496   0.000000
     6  O    2.629180   3.740215   2.983369   2.982881   1.410913
     7  O    2.674003   2.925046   3.789150   3.099970   1.500203
     8  O    2.671864   2.924305   3.096414   3.787357   1.495887
     9  H    2.965952   2.989820   3.836859   3.813702   1.688969
                    6          7          8          9
     6  O    0.000000
     7  O    2.531554   0.000000
     8  O    2.529613   2.202232   0.000000
     9  H    2.902253   1.253579   1.327505   0.000000
 Symmetry turned off by external request.
 Stoichiometry    CHF3O3S
 Rotational constants (GHZ):           2.7397638           1.6122244           1.5227286
 Leave Link  202 at Sun May 25 03:37:14 2025, MaxMem=  3758096384 cpu:               0.1 elap:               0.0
 (Enter /apps/easybuild-2022/easybuild/software/Compiler/NVHPC/22.11-CUDA-11.7.0/Gaussian/g16c01-CUDA-11.7.0/g16/l301.exe)
 Standard basis: def2TZVPP (5D, 7F)
 Ernie: Thresh=  0.10000D-02 Tol=  0.10000D-05 Strict=F.
   273 basis functions,   443 primitive gaussians,   315 cartesian basis functions
    37 alpha electrons       37 beta electrons
       nuclear repulsion energy       574.2891205233 Hartrees.
 IExCor= 4336 DFT=T Ex+Corr=M062X ExCW=0 ScaHFX=  0.540000
 ScaDFX=  1.000000  1.000000  1.000000  1.000000 ScalE2=  1.000000  1.000000
 IRadAn=      5 IRanWt=     -1 IRanGd=            0 ICorTp=0 IEmpDi=  4
 NAtoms=    9 NActive=    9 NUniq=    9 SFac= 1.00D+00 NAtFMM=   60 NAOKFM=F Big=F
 Integral buffers will be    131072 words long.
 Raffenetti 2 integral format.
 Two-electron integral symmetry is turned off.
 Leave Link  301 at Sun May 25 03:37:14 2025, MaxMem=  3758096384 cpu:               0.1 elap:               0.0
 (Enter /apps/easybuild-2022/easybuild/software/Compiler/NVHPC/22.11-CUDA-11.7.0/Gaussian/g16c01-CUDA-11.7.0/g16/l302.exe)
 NPDir=0 NMtPBC=     1 NCelOv=     1 NCel=       1 NClECP=     1 NCelD=      1
         NCelK=      1 NCelE2=     1 NClLst=     1 CellRange=     0.0.
 One-electron integrals computed using PRISM.
   1 Symmetry operations used in ECPInt.
 ECPInt:  NShTT=    4753 NPrTT=   15592 LenC2=    4598 LenP2D=   11606.
 LDataN:  DoStor=T MaxTD1= 6 Len=  172
 NBasis=   273 RedAO= T EigKep=  9.16D-04  NBF=   273
 NBsUse=   273 1.00D-06 EigRej= -1.00D+00 NBFU=   273
 Precomputing XC quadrature grid using
 IXCGrd= 4 IRadAn=           5 IRanWt=          -1 IRanGd=           0 AccXCQ= 0.00D+00.
 Generated NRdTot=       0 NPtTot=           0 NUsed=           0 NTot=          32
 NSgBfM=   311   311   311   311   311 MxSgAt=     9 MxSgA2=     9.
 Leave Link  302 at Sun May 25 03:37:14 2025, MaxMem=  3758096384 cpu:               0.7 elap:               0.2
 (Enter /apps/easybuild-2022/easybuild/software/Compiler/NVHPC/22.11-CUDA-11.7.0/Gaussian/g16c01-CUDA-11.7.0/g16/l303.exe)
 DipDrv:  MaxL=1.
 Leave Link  303 at Sun May 25 03:37:14 2025, MaxMem=  3758096384 cpu:               0.1 elap:               0.1
 (Enter /apps/easybuild-2022/easybuild/software/Compiler/NVHPC/22.11-CUDA-11.7.0/Gaussian/g16c01-CUDA-11.7.0/g16/l401.exe)
 Initial guess from the checkpoint file:  "1502984803620600000001_intra_H_migration_5_9_IRC_F.chk"
 B after Tr=     0.000017   -0.000096   -0.000083
         Rot=    1.000000    0.000041   -0.000010    0.000019 Ang=   0.01 deg.
 Guess basis will be translated and rotated to current coordinates.
 JPrj=2 DoOrth=T DoCkMO=T.
 Generating alternative initial guess.
 ExpMin= 9.52D-02 ExpMax= 6.07D+04 ExpMxC= 2.07D+03 IAcc=3 IRadAn=         5 AccDes= 0.00D+00
 Harris functional with IExCor= 1009 and IRadAn=       5 diagonalized for initial guess.
 HarFok:  IExCor= 1009 AccDes= 0.00D+00 IRadAn=         5 IDoV= 1 UseB2=F ITyADJ=14
 ICtDFT=  3500011 ScaDFX=  1.000000  1.000000  1.000000  1.000000
 FoFCou: FMM=F IPFlag=           0 FMFlag=      100000 FMFlg1=           0
         NFxFlg=           0 DoJE=T BraDBF=F KetDBF=T FulRan=T
         wScrn=  0.000000 ICntrl=       500 IOpCl=  0 I1Cent=   200000004 NGrid=           0
         NMat0=    1 NMatS0=      1 NMatT0=    0 NMatD0=    1 NMtDS0=    0 NMtDT0=    0
 Symmetry not used in FoFCou.
 Harris En= -961.635355057441    
 Leave Link  401 at Sun May 25 03:37:15 2025, MaxMem=  3758096384 cpu:               2.7 elap:               0.6
 (Enter /apps/easybuild-2022/easybuild/software/Compiler/NVHPC/22.11-CUDA-11.7.0/Gaussian/g16c01-CUDA-11.7.0/g16/l502.exe)
 Keep R1 ints in memory in canonical form, NReq=715214100.
 FoFCou: FMM=F IPFlag=           0 FMFlag=           0 FMFlg1=           0
         NFxFlg=           0 DoJE=F BraDBF=F KetDBF=F FulRan=T
         wScrn=  0.000000 ICntrl=       600 IOpCl=  0 I1Cent=           0 NGrid=           0
         NMat0=    1 NMatS0=  37401 NMatT0=    0 NMatD0=    1 NMtDS0=    0 NMtDT0=    0
 Symmetry not used in FoFCou.
 Two-electron integral symmetry not used.
 Closed shell SCF:
 Using DIIS extrapolation, IDIIS=  1040.
 NGot=  3758096384 LenX=  3058457068 LenY=  3058357402
 Requested convergence on RMS density matrix=1.00D-08 within  32 cycles.
 Requested convergence on MAX density matrix=1.00D-06.
 Requested convergence on             energy=1.00D-06.
 No special actions if energy rises.
 Integral accuracy reduced to 1.0D-05 until final iterations.

 Cycle   1  Pass 0  IDiag  1:
 E= -962.070038089445    
 DIIS: error= 3.29D-04 at cycle   1 NSaved=   1.
 NSaved= 1 IEnMin= 1 EnMin= -962.070038089445     IErMin= 1 ErrMin= 3.29D-04
 ErrMax= 3.29D-04  0.00D+00 EMaxC= 1.00D-01 BMatC= 3.37D-05 BMatP= 3.37D-05
 IDIUse=3 WtCom= 9.97D-01 WtEn= 3.29D-03
 Coeff-Com:  0.100D+01
 Coeff-En:   0.100D+01
 Coeff:      0.100D+01
 Gap=     1.021 Goal=   None    Shift=    0.000
 RMSDP=2.15D-05 MaxDP=8.66D-04              OVMax= 3.21D-03

 Cycle   2  Pass 0  IDiag  1:
 E= -962.070080985970     Delta-E=       -0.000042896525 Rises=F Damp=F
 DIIS: error= 1.71D-04 at cycle   2 NSaved=   2.
 NSaved= 2 IEnMin= 2 EnMin= -962.070080985970     IErMin= 2 ErrMin= 1.71D-04
 ErrMax= 1.71D-04  0.00D+00 EMaxC= 1.00D-01 BMatC= 6.39D-06 BMatP= 3.37D-05
 IDIUse=3 WtCom= 9.98D-01 WtEn= 1.71D-03
 Coeff-Com:  0.162D+00 0.838D+00
 Coeff-En:   0.000D+00 0.100D+01
 Coeff:      0.162D+00 0.838D+00
 Gap=     0.461 Goal=   None    Shift=    0.000
 RMSDP=1.00D-05 MaxDP=4.90D-04 DE=-4.29D-05 OVMax= 1.57D-03

 Cycle   3  Pass 0  IDiag  1:
 E= -962.070082143133     Delta-E=       -0.000001157164 Rises=F Damp=F
 DIIS: error= 1.26D-04 at cycle   3 NSaved=   3.
 NSaved= 3 IEnMin= 3 EnMin= -962.070082143133     IErMin= 3 ErrMin= 1.26D-04
 ErrMax= 1.26D-04  0.00D+00 EMaxC= 1.00D-01 BMatC= 7.48D-06 BMatP= 6.39D-06
 IDIUse=3 WtCom= 4.71D-01 WtEn= 5.29D-01
 Coeff-Com: -0.809D-01 0.544D+00 0.536D+00
 Coeff-En:   0.000D+00 0.440D+00 0.560D+00
 Coeff:     -0.381D-01 0.489D+00 0.549D+00
 Gap=     0.461 Goal=   None    Shift=    0.000
 RMSDP=6.09D-06 MaxDP=2.53D-04 DE=-1.16D-06 OVMax= 6.92D-04

 Initial convergence to 1.0D-05 achieved.  Increase integral accuracy.
 Cycle   4  Pass 1  IDiag  1:
 E= -962.070153025219     Delta-E=       -0.000070882086 Rises=F Damp=F
 DIIS: error= 3.82D-05 at cycle   1 NSaved=   1.
 NSaved= 1 IEnMin= 1 EnMin= -962.070153025219     IErMin= 1 ErrMin= 3.82D-05
 ErrMax= 3.82D-05  0.00D+00 EMaxC= 1.00D-01 BMatC= 6.48D-07 BMatP= 6.48D-07
 IDIUse=1 WtCom= 1.00D+00 WtEn= 0.00D+00
 Coeff-Com:  0.100D+01
 Coeff:      0.100D+01
 Gap=     0.461 Goal=   None    Shift=    0.000
 RMSDP=6.09D-06 MaxDP=2.53D-04 DE=-7.09D-05 OVMax= 4.62D-04

 Cycle   5  Pass 1  IDiag  1:
 E= -962.070152988048     Delta-E=        0.000000037170 Rises=F Damp=F
 DIIS: error= 4.18D-05 at cycle   2 NSaved=   2.
 NSaved= 2 IEnMin= 1 EnMin= -962.070153025219     IErMin= 1 ErrMin= 3.82D-05
 ErrMax= 4.18D-05  0.00D+00 EMaxC= 1.00D-01 BMatC= 8.60D-07 BMatP= 6.48D-07
 IDIUse=1 WtCom= 1.00D+00 WtEn= 0.00D+00
 Coeff-Com:  0.543D+00 0.457D+00
 Coeff:      0.543D+00 0.457D+00
 Gap=     0.461 Goal=   None    Shift=    0.000
 RMSDP=2.01D-06 MaxDP=8.59D-05 DE= 3.72D-08 OVMax= 2.19D-04

 Cycle   6  Pass 1  IDiag  1:
 E= -962.070153547823     Delta-E=       -0.000000559775 Rises=F Damp=F
 DIIS: error= 1.16D-05 at cycle   3 NSaved=   3.
 NSaved= 3 IEnMin= 3 EnMin= -962.070153547823     IErMin= 3 ErrMin= 1.16D-05
 ErrMax= 1.16D-05  0.00D+00 EMaxC= 1.00D-01 BMatC= 3.85D-08 BMatP= 6.48D-07
 IDIUse=1 WtCom= 1.00D+00 WtEn= 0.00D+00
 Coeff-Com: -0.445D-01 0.154D+00 0.891D+00
 Coeff:     -0.445D-01 0.154D+00 0.891D+00
 Gap=     0.461 Goal=   None    Shift=    0.000
 RMSDP=6.07D-07 MaxDP=2.45D-05 DE=-5.60D-07 OVMax= 8.02D-05

 Cycle   7  Pass 1  IDiag  1:
[...]
 Symmetry not used in FoFCou.
 Two-electron integral symmetry not used.
 Closed shell SCF:
 Using DIIS extrapolation, IDIIS=  1040.
 NGot=  3758096384 LenX=  3058457068 LenY=  3058357402
 Requested convergence on RMS density matrix=1.00D-08 within  32 cycles.
 Requested convergence on MAX density matrix=1.00D-06.
 Requested convergence on             energy=1.00D-06.
 No special actions if energy rises.
 Integral accuracy reduced to 1.0D-05 until final iterations.

 Cycle   1  Pass 0  IDiag  1:
 E= -962.119881777591    
 DIIS: error= 8.71D-05 at cycle   1 NSaved=   1.
 NSaved= 1 IEnMin= 1 EnMin= -962.119881777591     IErMin= 1 ErrMin= 8.71D-05
 ErrMax= 8.71D-05  0.00D+00 EMaxC= 1.00D-01 BMatC= 4.15D-06 BMatP= 4.15D-06
 IDIUse=1 WtCom= 1.00D+00 WtEn= 0.00D+00
 Coeff-Com:  0.100D+01
 Coeff:      0.100D+01
 Gap=     1.058 Goal=   None    Shift=    0.000
 RMSDP=8.89D-06 MaxDP=2.95D-04              OVMax= 4.11D-04

 Initial convergence to 1.0D-05 achieved.  Increase integral accuracy.
 Cycle   2  Pass 1  IDiag  1:
 E= -962.119898392970     Delta-E=       -0.000016615379 Rises=F Damp=F
 DIIS: error= 1.84D-05 at cycle   1 NSaved=   1.
 NSaved= 1 IEnMin= 1 EnMin= -962.119898392970     IErMin= 1 ErrMin= 1.84D-05
 ErrMax= 1.84D-05  0.00D+00 EMaxC= 1.00D-01 BMatC= 4.55D-07 BMatP= 4.55D-07
 IDIUse=1 WtCom= 1.00D+00 WtEn= 0.00D+00
 Coeff-Com:  0.100D+01
 Coeff:      0.100D+01
 Gap=     0.451 Goal=   None    Shift=    0.000
 RMSDP=8.89D-06 MaxDP=2.95D-04 DE=-1.66D-05 OVMax= 1.25D-04

 Cycle   3  Pass 1  IDiag  1:
 E= -962.119898750200     Delta-E=       -0.000000357230 Rises=F Damp=F
 DIIS: error= 1.02D-05 at cycle   2 NSaved=   2.
 NSaved= 2 IEnMin= 2 EnMin= -962.119898750200     IErMin= 2 ErrMin= 1.02D-05
 ErrMax= 1.02D-05  0.00D+00 EMaxC= 1.00D-01 BMatC= 7.39D-08 BMatP= 4.55D-07
 IDIUse=1 WtCom= 1.00D+00 WtEn= 0.00D+00
 Coeff-Com:  0.157D+00 0.843D+00
 Coeff:      0.157D+00 0.843D+00
 Gap=     0.451 Goal=   None    Shift=    0.000
 RMSDP=1.09D-06 MaxDP=3.87D-05 DE=-3.57D-07 OVMax= 9.82D-05

 Cycle   4  Pass 1  IDiag  1:
 E= -962.119898753394     Delta-E=       -0.000000003194 Rises=F Damp=F
 DIIS: error= 9.75D-06 at cycle   3 NSaved=   3.
 NSaved= 3 IEnMin= 3 EnMin= -962.119898753394     IErMin= 3 ErrMin= 9.75D-06
 ErrMax= 9.75D-06  0.00D+00 EMaxC= 1.00D-01 BMatC= 8.17D-08 BMatP= 7.39D-08
 IDIUse=1 WtCom= 1.00D+00 WtEn= 0.00D+00
 Coeff-Com: -0.471D-01 0.526D+00 0.521D+00
 Coeff:     -0.471D-01 0.526D+00 0.521D+00
 Gap=     0.451 Goal=   None    Shift=    0.000
 RMSDP=5.52D-07 MaxDP=2.21D-05 DE=-3.19D-09 OVMax= 5.28D-05

 Cycle   5  Pass 1  IDiag  1:
 E= -962.119898807359     Delta-E=       -0.000000053965 Rises=F Damp=F
 DIIS: error= 8.90D-07 at cycle   4 NSaved=   4.
 NSaved= 4 IEnMin= 4 EnMin= -962.119898807359     IErMin= 4 ErrMin= 8.90D-07
 ErrMax= 8.90D-07  0.00D+00 EMaxC= 1.00D-01 BMatC= 8.15D-10 BMatP= 7.39D-08
 IDIUse=1 WtCom= 1.00D+00 WtEn= 0.00D+00
 Coeff-Com: -0.180D-01 0.128D+00 0.150D+00 0.740D+00
 Coeff:     -0.180D-01 0.128D+00 0.150D+00 0.740D+00
 Gap=     0.451 Goal=   None    Shift=    0.000
 RMSDP=9.68D-08 MaxDP=2.90D-06 DE=-5.40D-08 OVMax= 7.48D-06

 Cycle   6  Pass 1  IDiag  1:
 E= -962.119898807872     Delta-E=       -0.000000000513 Rises=F Damp=F
 DIIS: error= 6.19D-07 at cycle   5 NSaved=   5.
 NSaved= 5 IEnMin= 5 EnMin= -962.119898807872     IErMin= 5 ErrMin= 6.19D-07
 ErrMax= 6.19D-07  0.00D+00 EMaxC= 1.00D-01 BMatC= 2.86D-10 BMatP= 8.15D-10
 IDIUse=1 WtCom= 1.00D+00 WtEn= 0.00D+00
 Coeff-Com: -0.337D-03-0.437D-01-0.332D-01 0.373D+00 0.705D+00
 Coeff:     -0.337D-03-0.437D-01-0.332D-01 0.373D+00 0.705D+00
 Gap=     0.451 Goal=   None    Shift=    0.000
 RMSDP=3.95D-08 MaxDP=1.47D-06 DE=-5.13D-10 OVMax= 2.82D-06

 Cycle   7  Pass 1  IDiag  1:
 E= -962.119898808131     Delta-E=       -0.000000000259 Rises=F Damp=F
 DIIS: error= 1.21D-07 at cycle   6 NSaved=   6.
 NSaved= 6 IEnMin= 6 EnMin= -962.119898808131     IErMin= 6 ErrMin= 1.21D-07
 ErrMax= 1.21D-07  0.00D+00 EMaxC= 1.00D-01 BMatC= 8.35D-12 BMatP= 2.86D-10
 IDIUse=1 WtCom= 1.00D+00 WtEn= 0.00D+00
 Coeff-Com:  0.105D-02-0.228D-01-0.202D-01 0.843D-01 0.222D+00 0.736D+00
 Coeff:      0.105D-02-0.228D-01-0.202D-01 0.843D-01 0.222D+00 0.736D+00
 Gap=     0.451 Goal=   None    Shift=    0.000
 RMSDP=9.09D-09 MaxDP=2.85D-07 DE=-2.59D-10 OVMax= 7.25D-07

 SCF Done:  E(RM062X) =  -962.119898808     A.U. after    7 cycles
            NFock=  7  Conv=0.91D-08     -V/T= 2.0027
 KE= 9.595549378282D+02 PE=-3.426197721382D+03 EE= 9.323474650957D+02
 Leave Link  502 at Sun May 25 04:06:36 2025, MaxMem=  3758096384 cpu:              48.1 elap:               9.3
 (Enter /apps/easybuild-2022/easybuild/software/Compiler/NVHPC/22.11-CUDA-11.7.0/Gaussian/g16c01-CUDA-11.7.0/g16/l508.exe)
 QCSCF skips out because SCF is already converged.
 Leave Link  508 at Sun May 25 04:06:36 2025, MaxMem=  3758096384 cpu:               0.1 elap:               0.0
 (Enter /apps/easybuild-2022/easybuild/software/Compiler/NVHPC/22.11-CUDA-11.7.0/Gaussian/g16c01-CUDA-11.7.0/g16/l801.exe)
 DoSCS=F DFT=T ScalE2(SS,OS)=  1.000000  1.000000
 Range of M.O.s used for correlation:     1   273
 NBasis=   273 NAE=    37 NBE=    37 NFC=     0 NFV=     0
 NROrb=    273 NOA=    37 NOB=    37 NVA=   236 NVB=   236
 Leave Link  801 at Sun May 25 04:06:36 2025, MaxMem=  3758096384 cpu:               0.1 elap:               0.0
 (Enter /apps/easybuild-2022/easybuild/software/Compiler/NVHPC/22.11-CUDA-11.7.0/Gaussian/g16c01-CUDA-11.7.0/g16/l1101.exe)
 Leave Link 1101 at Sun May 25 04:06:36 2025, MaxMem=  3758096384 cpu:               0.1 elap:               0.0
 (Enter /apps/easybuild-2022/easybuild/software/Compiler/NVHPC/22.11-CUDA-11.7.0/Gaussian/g16c01-CUDA-11.7.0/g16/l1102.exe)
 Symmetrizing basis deriv contribution to polar:
 IMax=3 JMax=2 DiffMx= 0.00D+00
 Leave Link 1102 at Sun May 25 04:06:36 2025, MaxMem=  3758096384 cpu:               0.2 elap:               0.1
 (Enter /apps/easybuild-2022/easybuild/software/Compiler/NVHPC/22.11-CUDA-11.7.0/Gaussian/g16c01-CUDA-11.7.0/g16/l1110.exe)
 Leave Link 1110 at Sun May 25 04:06:36 2025, MaxMem=  3758096384 cpu:               0.1 elap:               0.0
 (Enter /apps/easybuild-2022/easybuild/software/Compiler/NVHPC/22.11-CUDA-11.7.0/Gaussian/g16c01-CUDA-11.7.0/g16/l1002.exe)
 Minotr:  Closed shell wavefunction.
 Leave Link 1002 at Sun May 25 04:06:36 2025, MaxMem=  3758096384 cpu:               0.1 elap:               0.0
 (Enter /apps/easybuild-2022/easybuild/software/Compiler/NVHPC/22.11-CUDA-11.7.0/Gaussian/g16c01-CUDA-11.7.0/g16/l701.exe)
 ... and contract with generalized density number  0.
 Compute integral first derivatives.
   1 Symmetry operations used in ECPInt.
 ECPInt:  NShTT=    4753 NPrTT=   15592 LenC2=    4595 LenP2D=   11562.
 LDataN:  DoStor=T MaxTD1= 7 Len=  274
 Leave Link  701 at Sun May 25 04:06:37 2025, MaxMem=  3758096384 cpu:               0.8 elap:               0.2
 (Enter /apps/easybuild-2022/easybuild/software/Compiler/NVHPC/22.11-CUDA-11.7.0/Gaussian/g16c01-CUDA-11.7.0/g16/l702.exe)
 L702 exits ... SP integral derivatives will be done elsewhere.
 Leave Link  702 at Sun May 25 04:06:37 2025, MaxMem=  3758096384 cpu:               0.1 elap:               0.0
 (Enter /apps/easybuild-2022/easybuild/software/Compiler/NVHPC/22.11-CUDA-11.7.0/Gaussian/g16c01-CUDA-11.7.0/g16/l703.exe)
 Integral derivatives from FoFJK, PRISM(SPDF).
 Compute integral first derivatives, UseDBF=F ICtDFT=           0.
 Calling FoFJK, ICntrl=      2127 FMM=F ISym2X=0 I1Cent= 0 IOpClX= 0 NMat=1 NMatS=1 NMatT=0.
 FoFJK:  IHMeth= 1 ICntrl=    2127 DoSepK=F KAlg= 0 I1Cent=           0 FoldK=F
 IRaf=         0 NMat=       1 IRICut=       1 DoRegI=T DoRafI=F ISym2E= 0 IDoP0=0 IntGTp=1.
 FoFCou: FMM=F IPFlag=           0 FMFlag=      100000 FMFlg1=         800
         NFxFlg=           0 DoJE=F BraDBF=F KetDBF=F FulRan=T
         wScrn=  0.000000 ICntrl=      2127 IOpCl=  0 I1Cent=           0 NGrid=           0
         NMat0=    1 NMatS0=      1 NMatT0=    0 NMatD0=    1 NMtDS0=    0 NMtDT0=    0
 Symmetry not used in FoFCou.
 Leave Link  703 at Sun May 25 04:06:41 2025, MaxMem=  3758096384 cpu:              35.5 elap:               4.7
 (Enter /apps/easybuild-2022/easybuild/software/Compiler/NVHPC/22.11-CUDA-11.7.0/Gaussian/g16c01-CUDA-11.7.0/g16/l716.exe)
 Dipole        =-9.47897948D-02 1.34142114D-01-9.38296275D-01
 Polarizability= 0.00000000D+00 0.00000000D+00 0.00000000D+00
                 0.00000000D+00 0.00000000D+00 0.00000000D+00
 -------------------------------------------------------------------
 Center     Atomic                   Forces (Hartrees/Bohr)
 Number     Number              X              Y              Z
 -------------------------------------------------------------------
      1        6           0.001680729    0.000606606   -0.001037968
      2        9          -0.000907715   -0.000366844   -0.001604296
      3        9           0.001433137   -0.000630014   -0.001433562
      4        9           0.001526939    0.000526767   -0.000794802
      5       16           0.002561155    0.018277481    0.000523543
      6        8           0.001177182   -0.002441291   -0.011116348
      7        8          -0.001799839   -0.020448373    0.001696208
      8        8          -0.005169314    0.006854917    0.016371913
      9        1          -0.000502273   -0.002379249   -0.002604689
 -------------------------------------------------------------------
 Cartesian Forces:  Max     0.020448373 RMS     0.006847733
 Leave Link  716 at Sun May 25 04:06:41 2025, MaxMem=  3758096384 cpu:               0.1 elap:               0.0
 (Enter /apps/easybuild-2022/easybuild/software/Compiler/NVHPC/22.11-CUDA-11.7.0/Gaussian/g16c01-CUDA-11.7.0/g16/l123.exe)
 IRC-IRC-IRC-IRC-IRC-IRC-IRC-IRC-IRC-IRC-IRC-IRC-IRC-IRC-IRC-IRC-IRC-IRC
 Pt100 Step number   1 out of a maximum of  20
 Using modified Bulirsch-Stoer corrector integration.
   Using distance weighted interpolants to fit PES.
 PreDWI: IReCr0= 2 IReCr1= 1 IReCr2= 1 IReCr3= 1
 Modified Bulirsch-Stoer Extrapolation Cycles:
    EPS =    0.000010000000000
    Cycle     1 NS=    48
      PEZero:  N= 2 I= 1 D=  1.09D-04 Err=  1.07D-06
    Cycle     2 NS=    64 Truncation Error =  0.000001073
 BS completed in    2 cycles and     112 integration steps.
 Maximum DWI energy   std dev =  0.000000001 at pt    45
 Maximum DWI gradient std dev =  0.000363491 at pt    29
 SUMMARY OF CORRECTOR INTEGRATION:
   Predictor End Point Energy =  -962.119899
   Old End Point Energy       =  -962.119899
   Corrected End Point Energy =  -962.119899
   Predictor End-Start Dist.  =     0.020940
   Old End-Start Dist.        =     0.020940
   New End-Start Dist.        =     0.020940
   New End-Old End Dist.      =     0.000009
 CORRECTOR INTEGRATION CONVERGENCE:
   Recorrection delta-x convergence threshold:    0.010000
   Delta-x Convergence Met
 Point Number: 100          Path Number:   1
                    CURRENT STRUCTURE
                Cartesian Coordinates (Ang):                
 ---------------------------------------------------------------------
 Center     Atomic                     Coordinates (Angstroms)
 Number     Number                        X           Y           Z
 ---------------------------------------------------------------------
      1          6                   -0.942854   -0.192831    0.020326
      2          9                   -1.488628    0.539245   -0.932653
      3          9                   -1.459110    0.149487    1.187389
      4          9                   -1.178365   -1.470096   -0.207691
      5         16                    0.872350    0.156965    0.093549
      6          8                    1.393876   -0.725477    1.068452
      7          8                    1.351753   -0.132831   -1.375852
      8          8                    1.020573    1.570670    0.159086
      9          1                    1.560513    0.740156   -1.742757
 ---------------------------------------------------------------------
   CHANGE IN THE REACTION COORDINATE =    0.02094
   NET REACTION COORDINATE UP TO THIS POINT =    2.09396
  # OF POINTS ALONG THE PATH = 100
  # OF STEPS =   1

 Maximum number of steps reached.
 Calculation of FORWARD path complete.
 Reaction path calculation complete.
 
 Energies reported relative to the TS energy of        -962.069703
 --------------------------------------------------------------------------
    Summary of reaction path following
 --------------------------------------------------------------------------
                        Energy    RxCoord
   1                    0.00000   0.00000
   2                   -0.00003   0.02094
   3                   -0.00011   0.04188
   4                   -0.00025   0.06282
   5                   -0.00045   0.08376
   6                   -0.00070   0.10470
   7                   -0.00100   0.12564
   8                   -0.00136   0.14658
   9                   -0.00176   0.16752
  10                   -0.00220   0.18845
  11                   -0.00269   0.20939
  12                   -0.00322   0.23033
  13                   -0.00379   0.25127
  14                   -0.00440   0.27221
  15                   -0.00504   0.29315
  16                   -0.00571   0.31409
  17                   -0.00641   0.33503
  18                   -0.00714   0.35597
  19                   -0.00789   0.37691
  20                   -0.00866   0.39785
  21                   -0.00946   0.41879
  22                   -0.01027   0.43973
  23                   -0.01109   0.46067
  24                   -0.01192   0.48161
  25                   -0.01277   0.50255
  26                   -0.01362   0.52349
  27                   -0.01448   0.54443
  28                   -0.01533   0.56537
  29                   -0.01619   0.58631
  30                   -0.01705   0.60725
  31                   -0.01790   0.62819
  32                   -0.01875   0.64913
  33                   -0.01959   0.67006
  34                   -0.02042   0.69100
  35                   -0.02124   0.71194
  36                   -0.02206   0.73288
  37                   -0.02286   0.75382
  38                   -0.02365   0.77476
  39                   -0.02443   0.79570
  40                   -0.02519   0.81664
  41                   -0.02595   0.83758
  42                   -0.02669   0.85852
  43                   -0.02741   0.87946
  44                   -0.02812   0.90040
  45                   -0.02882   0.92134
  46                   -0.02951   0.94228
  47                   -0.03018   0.96322
  48                   -0.03083   0.98416
  49                   -0.03147   1.00510
  50                   -0.03210   1.02604
  51                   -0.03271   1.04698
  52                   -0.03331   1.06791
  53                   -0.03390   1.08885
  54                   -0.03447   1.10979
  55                   -0.03503   1.13073
  56                   -0.03557   1.15167
  57                   -0.03610   1.17261
  58                   -0.03662   1.19355
  59                   -0.03713   1.21449
  60                   -0.03762   1.23543
  61                   -0.03810   1.25637
  62                   -0.03857   1.27731
  63                   -0.03902   1.29825
  64                   -0.03947   1.31919
  65                   -0.03990   1.34013
  66                   -0.04032   1.36107
  67                   -0.04073   1.38201
  68                   -0.04113   1.40295
  69                   -0.04152   1.42389
  70                   -0.04190   1.44483
  71                   -0.04227   1.46577
  72                   -0.04264   1.48671
  73                   -0.04299   1.50765
  74                   -0.04333   1.52859
  75                   -0.04367   1.54952
  76                   -0.04400   1.57046
  77                   -0.04432   1.59140
  78                   -0.04463   1.61234
  79                   -0.04493   1.63328
  80                   -0.04523   1.65422
  81                   -0.04552   1.67516
  82                   -0.04581   1.69610
  83                   -0.04609   1.71704
  84                   -0.04636   1.73798
  85                   -0.04663   1.75892
  86                   -0.04689   1.77986
  87                   -0.04714   1.80080
  88                   -0.04739   1.82174
  89                   -0.04763   1.84268
  90                   -0.04787   1.86362
  91                   -0.04811   1.88456
  92                   -0.04834   1.90550
  93                   -0.04856   1.92644
  94                   -0.04878   1.94738
  95                   -0.04900   1.96832
  96                   -0.04921   1.98926
  97                   -0.04941   2.01020
  98                   -0.04961   2.03114
  99                   -0.04981   2.05208
 100                   -0.05001   2.07302
 101                   -0.05020   2.09396
 --------------------------------------------------------------------------
 
 Total number of points:                  100
 Total number of gradient calculations:   100
 Total number of Hessian calculations:      0
 IRC-IRC-IRC-IRC-IRC-IRC-IRC-IRC-IRC-IRC-IRC-IRC-IRC-IRC-IRC-IRC-IRC-IRC
 Leave Link  123 at Sun May 25 04:06:41 2025, MaxMem=  3758096384 cpu:               0.1 elap:               0.0
 (Enter /apps/easybuild-2022/easybuild/software/Compiler/NVHPC/22.11-CUDA-11.7.0/Gaussian/g16c01-CUDA-11.7.0/g16/l202.exe)
                          Input orientation:                          
 ---------------------------------------------------------------------
 Center     Atomic      Atomic             Coordinates (Angstroms)
 Number     Number       Type             X           Y           Z
 ---------------------------------------------------------------------
      1          6           0       -0.942854   -0.192831    0.020326
      2          9           0       -1.488628    0.539245   -0.932653
      3          9           0       -1.459110    0.149487    1.187389
      4          9           0       -1.178365   -1.470096   -0.207691
      5         16           0        0.872350    0.156965    0.093549
      6          8           0        1.393876   -0.725477    1.068452
      7          8           0        1.351753   -0.132831   -1.375852
      8          8           0        1.020573    1.570670    0.159086
      9          1           0        1.560515    0.740160   -1.742760
 ---------------------------------------------------------------------
                    Distance matrix (angstroms):
                    1          2          3          4          5
     1  C    0.000000
     2  F    1.319839   0.000000
     3  F    1.321264   2.155774   0.000000
     4  F    1.318660   2.158538   2.155950   0.000000
     5  S    1.850050   2.602585   2.575315   2.635053   0.000000
     6  O    2.615833   3.729983   2.986509   2.966382   1.414613
     7  O    2.686659   2.952266   3.814559   3.091015   1.572561
     8  O    2.642770   2.924350   3.037432   3.770426   1.422964
     9  H    3.200906   3.161315   4.248859   3.839678   2.045902
                    6          7          8          9
     6  O    0.000000
     7  O    2.515477   0.000000
     8  O    2.497718   2.316815   0.000000
     9  H    3.174708   0.969699   2.144365   0.000000
 Symmetry turned off by external request.
 Stoichiometry    CHF3O3S
 Rotational constants (GHZ):           2.7002173           1.5934645           1.5355756
 Leave Link  202 at Sun May 25 04:06:41 2025, MaxMem=  3758096384 cpu:               0.1 elap:               0.0
 (Enter /apps/easybuild-2022/easybuild/software/Compiler/NVHPC/22.11-CUDA-11.7.0/Gaussian/g16c01-CUDA-11.7.0/g16/l9999.exe)

 This type of calculation cannot be archived.


 WOMEN HOLD UP HALF THE SKY. -- MAO TSE TUNG
 Job cpu time:       0 days  2 hours 42 minutes 33.0 seconds.
 Elapsed time:       0 days  0 hours 30 minutes  5.6 seconds.
 File lengths (MBytes):  RWF=     39 Int=      0 D2E=      0 Chk=      8 Scr=      1
 Normal termination of Gaussian 16 at Sun May 25 04:06:42 2025.
done
