 Entering Gaussian System, Link 0=g16
 Initial command:
 /apps/easybuild-2022/easybuild/software/Compiler/NVHPC/22.11-CUDA-11.7.0/Gaussian/g16c01-CUDA-11.7.0/g16/l1.exe "/tmp/Gau-222132.inp" -scrdir="/tmp/"
 Entering Link 1 = /apps/easybuild-2022/easybuild/software/Compiler/NVHPC/22.11-CUDA-11.7.0/Gaussian/g16c01-CUDA-11.7.0/g16/l1.exe PID=    222133.
  
 Copyright (c) 1988-2019, Gaussian, Inc.  All Rights Reserved.
  
 This is part of the Gaussian(R) 16 program.  It is based on
 the Gaussian(R) 09 system (copyright 2009, Gaussian, Inc.),
 the Gaussian(R) 03 system (copyright 2003, Gaussian, Inc.),
 the Gaussian(R) 98 system (copyright 1998, Gaussian, Inc.),
 the Gaussian(R) 94 system (copyright 1995, Gaussian, Inc.),
 the Gaussian 92(TM) system (copyright 1992, Gaussian, Inc.),
 the Gaussian 90(TM) system (copyright 1990, Gaussian, Inc.),
 the Gaussian 88(TM) system (copyright 1988, Gaussian, Inc.),
 the Gaussian 86(TM) system (copyright 1986, Carnegie Mellon
 University), and the Gaussian 82(TM) system (copyright 1983,
 Carnegie Mellon University). Gaussian is a federally registered
 trademark of Gaussian, Inc.
  
 This software contains proprietary and confidential information,
 including trade secrets, belonging to Gaussian, Inc.
  
 This software is provided under written license and may be
 used, copied, transmitted, or stored only in accord with that
 written license.
  
 The following legend is applicable only to US Government
 contracts under FAR:
  
                    RESTRICTED RIGHTS LEGEND
  
 Use, reproduction and disclosure by the US Government is
 subject to restrictions as set forth in subparagraphs (a)
 and (c) of the Commercial Computer Software - Restricted
 Rights clause in FAR 52.227-19.
  
 Gaussian, Inc.
 340 Quinnipiac St., Bldg. 40, Wallingford CT 06492
  
  
 ---------------------------------------------------------------
 Warning -- This program may not be used in any manner that
 competes with the business of Gaussian, Inc. or will provide
 assistance to any competitor of Gaussian, Inc.  The licensee
 of this program is prohibited from giving any competitor of
 Gaussian, Inc. access to this program.  By using this program,
 the user acknowledges that Gaussian, Inc. is engaged in the
 business of creating and licensing software in the field of
 computational chemistry and represents and warrants to the
 licensee that it is not a competitor of Gaussian, Inc. and that
 it will not use this program in any manner prohibited above.
 ---------------------------------------------------------------
  

 Cite this work as:
 Gaussian 16, Revision C.01,
 M. J. Frisch, G. W. Trucks, H. B. Schlegel, G. E. Scuseria, 
 M. A. Robb, J. R. Cheeseman, G. Scalmani, V. Barone, 
 G. A. Petersson, H. Nakatsuji, X. Li, M. Caricato, A. V. Marenich, 
 J. Bloino, B. G. Janesko, R. Gomperts, B. Mennucci, H. P. Hratchian, 
 J. V. Ortiz, A. F. Izmaylov, J. L. Sonnenberg, D. Williams-Young, 
 F. Ding, F. Lipparini, F. Egidi, J. Goings, B. Peng, A. Petrone, 
 T. Henderson, D. Ranasinghe, V. G. Zakrzewski, J. Gao, N. Rega, 
 G. Zheng, W. Liang, M. Hada, M. Ehara, K. Toyota, R. Fukuda, 
 J. Hasegawa, M. Ishida, T. Nakajima, Y. Honda, O. Kitao, H. Nakai, 
 T. Vreven, K. Throssell, J. A. Montgomery, Jr., J. E. Peralta, 
 F. Ogliaro, M. J. Bearpark, J. J. Heyd, E. N. Brothers, K. N. Kudin, 
 V. N. Staroverov, T. A. Keith, R. Kobayashi, J. Normand, 
 K. Raghavachari, A. P. Rendell, J. C. Burant, S. S. Iyengar, 
 J. Tomasi, M. Cossi, J. M. Millam, M. Klene, C. Adamo, R. Cammi, 
 J. W. Ochterski, R. L. Martin, K. Morokuma, O. Farkas, 
 J. B. Foresman, and D. J. Fox, Gaussian, Inc., Wallingford CT, 2019.
 
 ******************************************
 Gaussian 16:  ES64L-G16RevC.01  3-Jul-2019
                25-May-2025 
 ******************************************
 %mem=28GB
 %chk=1502984803620600000001_r13_insertion_ROR_9_8_5_6_IRC_R
 %nprocshared=8
 Will use up to    8 processors via shared memory.
 ----------------------------------------------------------------------
 #P M062X/Def2TZVPP Symm(None) scf(xqc) pop(None) geom(AllCheck,NoKeepC
 onstants) guess(Read) irc(RCFC,reverse,MaxPoints=100,StepSize=2)
 ----------------------------------------------------------------------
 1/10=5,18=10,22=2,26=3,29=20007,38=1,39=2,42=100,44=3,172=1/1,23;
 2/12=2,15=3,29=1,40=1/2;
 3/5=44,7=202,11=2,14=-4,25=1,30=1,71=2,74=-55,116=-2,140=1/1,2,3;
 4/5=1/1;
 5/5=2,8=3,13=1,38=6/2,8;
 8/6=4,10=90,11=11/1;
 11/6=1,8=1,9=11,15=111,16=1,31=1/1,2,10;
 10/6=1,13=1,31=1/2;
 7/10=1,25=1,30=1/1,2,3,16;
 1/18=10,22=2,26=3,39=2,42=100,44=3/23(2);
 2/15=3,29=1/2;
 99/5=20/99;
 2/15=3,29=1/2;
 3/5=44,7=202,11=2,14=-2,25=1,30=1,71=2,74=-55,140=1/1,2,3;
 4/5=5,16=3,69=1/1;
 5/5=2,8=3,13=1,38=5/2,8;
 8/6=4,10=90,11=11/1;
 11/6=1,8=1,9=11,15=111,16=1,31=1/1,2,10;
 10/6=1,13=1,31=1/2;
 7/10=1,25=1,30=1/1,2,3,16;
 1/18=10,22=2,26=3,39=2,42=100,44=3/23(-8);
 2/15=3,29=1/2;
 99/5=20,9=1/99;
 Leave Link    1 at Sun May 25 04:39:22 2025, MaxMem=  3758096384 cpu:               0.0 elap:               0.0
 (Enter /apps/easybuild-2022/easybuild/software/Compiler/NVHPC/22.11-CUDA-11.7.0/Gaussian/g16c01-CUDA-11.7.0/g16/l101.exe)
 Structure from the checkpoint file:  "1502984803620600000001_r13_insertion_ROR_9_8_5_6_IRC_R.chk"
 ------------------------------
 Gaussian input prepared by ASE
 ------------------------------
 Charge =  0 Multiplicity = 1
 Redundant internal coordinates found in file.  (old form).
 C,0,3.3658830836,0.4989870992,1.2483850332
 F,0,3.7387360158,-0.6552252108,0.7550736613
 F,0,3.0004539266,0.3795870596,2.5065747422
 F,0,4.3845031028,1.3431304442,1.1695095165
 S,0,1.8833262049,1.7523946814,0.1568712751
 O,0,-0.0232587305,1.1437914941,-0.3445483472
 O,0,2.4641558097,1.971877845,-1.1218720002
 O,0,1.4357829693,0.326898164,0.4037062935
 H,0,-0.5866003821,1.1378454233,0.4413538256
 Recover connectivity data from disk.
 ITRead=  0  0  0  0  0  0  0  0  0
 MicOpt= -1 -1 -1 -1 -1 -1 -1 -1 -1
 NAtoms=      9 NQM=        9 NQMF=       0 NMMI=      0 NMMIF=      0
                NMic=       0 NMicF=      0.
                    Isotopes and Nuclear Properties:
 (Nuclear quadrupole moments (NQMom) in fm**2, nuclear magnetic moments (NMagM)
  in nuclear magnetons)

  Atom         1           2           3           4           5           6           7           8           9
 IAtWgt=          12          19          19          19          32          16          16          16           1
 AtmWgt=  12.0000000  18.9984032  18.9984032  18.9984032  31.9720718  15.9949146  15.9949146  15.9949146   1.0078250
 NucSpn=           0           1           1           1           0           0           0           0           1
 AtZEff=   3.6000000   6.7500000   6.7500000   6.7500000  13.6000000   5.6000000   5.6000000   5.6000000   1.0000000
 NQMom=    0.0000000   0.0000000   0.0000000   0.0000000   0.0000000   0.0000000   0.0000000   0.0000000   0.0000000
 NMagM=    0.0000000   2.6288670   2.6288670   2.6288670   0.0000000   0.0000000   0.0000000   0.0000000   2.7928460
 AtZNuc=   6.0000000   9.0000000   9.0000000   9.0000000  16.0000000   8.0000000   8.0000000   8.0000000   1.0000000
 Leave Link  101 at Sun May 25 04:39:22 2025, MaxMem=  3758096384 cpu:               0.2 elap:               0.2
 (Enter /apps/easybuild-2022/easybuild/software/Compiler/NVHPC/22.11-CUDA-11.7.0/Gaussian/g16c01-CUDA-11.7.0/g16/l123.exe)
 IRC-IRC-IRC-IRC-IRC-IRC-IRC-IRC-IRC-IRC-IRC-IRC-IRC-IRC-IRC-IRC-IRC-IRC
 ------------------------------------------------------------------------
 INPUT DATA FOR L123
 ------------------------------------------------------------------------
 GENERAL PARAMETERS:
 Rxn path following direction = Reverse
 Maximum points per path      = 100
 Step size                    =   0.020 bohr
 Integration scheme           = HPC                                 
    Redo corrector integration= Yes                                 
    DWI Weight Power          =  2
    DWI will use Hessian update vectors when possible.
    Max correction cycles     =  20
 Initial Hessian              = ReadFC from chk
 Hessian evaluation           = All updating
 Hessian updating method      = Bofill                              
 ------------------------------------------------------------------------
          ******** Start new reaction path calculation ********
 RCFC Option Requested - Data Read From Chk File:
 "1502984803620600000001_r13_insertion_ROR_9_8_5_6_IRC_R.chk"
   Energy From Chk =   -961.9213459

 Current Structure is TS -> form Hessian eigenvectors.
                            Recovering Hessian eigenvectors from chk file.
 Supplied step size of   0.0200 bohr.
    Integration on MW PES will use step size of   0.0799 sqrt(amu)*bohr.
 Point Number:   0          Path Number:   1
 Calculating another point on the path.
 Point Number  1 in REVERSE path direction.
 Using LQA Reaction Path Following.
 IRC-IRC-IRC-IRC-IRC-IRC-IRC-IRC-IRC-IRC-IRC-IRC-IRC-IRC-IRC-IRC-IRC-IRC
 Leave Link  123 at Sun May 25 04:39:22 2025, MaxMem=  3758096384 cpu:               0.0 elap:               0.0
 (Enter /apps/easybuild-2022/easybuild/software/Compiler/NVHPC/22.11-CUDA-11.7.0/Gaussian/g16c01-CUDA-11.7.0/g16/l202.exe)
                          Input orientation:                          
 ---------------------------------------------------------------------
 Center     Atomic      Atomic             Coordinates (Angstroms)
 Number     Number       Type             X           Y           Z
 ---------------------------------------------------------------------
      1          6           0        0.876313   -0.427350    0.664963
      2          9           0        1.249626   -1.579403    0.170796
      3          9           0        0.510805   -0.544053    1.922331
      4          9           0        1.893435    0.419288    0.584743
      5         16           0       -0.609747    0.829051   -0.428901
      6          8           0       -2.512784    0.223566   -0.929675
      7          8           0       -0.025338    1.048166   -1.705928
      8          8           0       -1.046720   -0.597843   -0.177635
      9          1           0       -3.075197    0.217678   -0.143338
 ---------------------------------------------------------------------
                    Distance matrix (angstroms):
                    1          2          3          4          5
     1  C    0.000000
     2  F    1.307971   0.000000
     3  F    1.314606   2.164643   0.000000
     4  F    1.325808   2.140235   2.151473   0.000000
     5  S    2.232365   3.101218   2.944374   2.731538   0.000000
     6  O    3.801650   4.314796   4.226733   4.663318   2.058868
     7  O    2.934493   3.471563   3.998359   3.053580   1.421388
     8  O    2.106442   2.521522   2.615078   3.203169   1.513309
     9  H    4.084586   4.693855   4.207925   5.025739   2.556124
                    6          7          8          9
     6  O    0.000000
     7  O    2.733116   0.000000
     8  O    1.841092   2.467437   0.000000
     9  H    0.966783   3.526051   2.186542   0.000000
 Symmetry turned off by external request.
 Stoichiometry    CHF3O3S
 Rotational constants (GHZ):           3.0148372           1.2862329           1.1199568
 Leave Link  202 at Sun May 25 04:39:22 2025, MaxMem=  3758096384 cpu:               0.0 elap:               0.0
 (Enter /apps/easybuild-2022/easybuild/software/Compiler/NVHPC/22.11-CUDA-11.7.0/Gaussian/g16c01-CUDA-11.7.0/g16/l301.exe)
 Standard basis: def2TZVPP (5D, 7F)
 Ernie: Thresh=  0.10000D-02 Tol=  0.10000D-05 Strict=F.
   273 basis functions,   443 primitive gaussians,   315 cartesian basis functions
    37 alpha electrons       37 beta electrons
       nuclear repulsion energy       538.4855019546 Hartrees.
 IExCor= 4336 DFT=T Ex+Corr=M062X ExCW=0 ScaHFX=  0.540000
 ScaDFX=  1.000000  1.000000  1.000000  1.000000 ScalE2=  1.000000  1.000000
 IRadAn=      5 IRanWt=     -1 IRanGd=            0 ICorTp=0 IEmpDi=  4
 NAtoms=    9 NActive=    9 NUniq=    9 SFac= 1.00D+00 NAtFMM=   60 NAOKFM=F Big=F
 Integral buffers will be    131072 words long.
 Raffenetti 2 integral format.
 Two-electron integral symmetry is turned off.
 Leave Link  301 at Sun May 25 04:39:22 2025, MaxMem=  3758096384 cpu:               0.0 elap:               0.0
 (Enter /apps/easybuild-2022/easybuild/software/Compiler/NVHPC/22.11-CUDA-11.7.0/Gaussian/g16c01-CUDA-11.7.0/g16/l302.exe)
 NPDir=0 NMtPBC=     1 NCelOv=     1 NCel=       1 NClECP=     1 NCelD=      1
         NCelK=      1 NCelE2=     1 NClLst=     1 CellRange=     0.0.
 One-electron integrals computed using PRISM.
   1 Symmetry operations used in ECPInt.
 ECPInt:  NShTT=    4753 NPrTT=   15592 LenC2=    4500 LenP2D=   11183.
 LDataN:  DoStor=T MaxTD1= 6 Len=  172
 NBasis=   273 RedAO= T EigKep=  1.38D-03  NBF=   273
 NBsUse=   273 1.00D-06 EigRej= -1.00D+00 NBFU=   273
 Precomputing XC quadrature grid using
 IXCGrd= 4 IRadAn=           5 IRanWt=          -1 IRanGd=           0 AccXCQ= 0.00D+00.
 Generated NRdTot=       0 NPtTot=           0 NUsed=           0 NTot=          32
 NSgBfM=   312   311   311   311   312 MxSgAt=     9 MxSgA2=     9.
 Leave Link  302 at Sun May 25 04:39:23 2025, MaxMem=  3758096384 cpu:               0.6 elap:               0.1
 (Enter /apps/easybuild-2022/easybuild/software/Compiler/NVHPC/22.11-CUDA-11.7.0/Gaussian/g16c01-CUDA-11.7.0/g16/l303.exe)
 DipDrv:  MaxL=1.
 Leave Link  303 at Sun May 25 04:39:23 2025, MaxMem=  3758096384 cpu:               0.1 elap:               0.0
 (Enter /apps/easybuild-2022/easybuild/software/Compiler/NVHPC/22.11-CUDA-11.7.0/Gaussian/g16c01-CUDA-11.7.0/g16/l401.exe)
 Initial guess from the checkpoint file:  "1502984803620600000001_r13_insertion_ROR_9_8_5_6_IRC_R.chk"
 B after Tr=    -4.704866   -1.745195   -1.104205
         Rot=    1.000000    0.000007   -0.000002    0.000017 Ang=   0.00 deg.
 Guess basis will be translated and rotated to current coordinates.
 JPrj=2 DoOrth=T DoCkMO=T.
 Leave Link  401 at Sun May 25 04:39:23 2025, MaxMem=  3758096384 cpu:               0.3 elap:               0.1
 (Enter /apps/easybuild-2022/easybuild/software/Compiler/NVHPC/22.11-CUDA-11.7.0/Gaussian/g16c01-CUDA-11.7.0/g16/l502.exe)
 Keep R1 ints in memory in canonical form, NReq=715214082.
 FoFCou: FMM=F IPFlag=           0 FMFlag=           0 FMFlg1=           0
         NFxFlg=           0 DoJE=F BraDBF=F KetDBF=F FulRan=T
         wScrn=  0.000000 ICntrl=       600 IOpCl=  0 I1Cent=           0 NGrid=           0
         NMat0=    1 NMatS0=  37401 NMatT0=    0 NMatD0=    1 NMtDS0=    0 NMtDT0=    0
 Symmetry not used in FoFCou.
 Two-electron integral symmetry not used.
 Closed shell SCF:
 Using DIIS extrapolation, IDIIS=  1040.
 NGot=  3758096384 LenX=  3058457086 LenY=  3058357420
 Requested convergence on RMS density matrix=1.00D-08 within  32 cycles.
 Requested convergence on MAX density matrix=1.00D-06.
 Requested convergence on             energy=1.00D-06.
 No special actions if energy rises.

 Cycle   1  Pass 1  IDiag  1:
 E= -961.921255258518    
 DIIS: error= 3.22D-04 at cycle   1 NSaved=   1.
 NSaved= 1 IEnMin= 1 EnMin= -961.921255258518     IErMin= 1 ErrMin= 3.22D-04
 ErrMax= 3.22D-04  0.00D+00 EMaxC= 1.00D-01 BMatC= 5.61D-05 BMatP= 5.61D-05
 IDIUse=3 WtCom= 9.97D-01 WtEn= 3.22D-03
 Coeff-Com:  0.100D+01
 Coeff-En:   0.100D+01
 Coeff:      0.100D+01
 Gap=     0.209 Goal=   None    Shift=    0.000
 RMSDP=5.43D-05 MaxDP=1.41D-03              OVMax= 1.19D-02

 Cycle   2  Pass 1  IDiag  1:
 E= -961.921365047128     Delta-E=       -0.000109788610 Rises=F Damp=F
 DIIS: error= 2.87D-04 at cycle   2 NSaved=   2.
 NSaved= 2 IEnMin= 2 EnMin= -961.921365047128     IErMin= 2 ErrMin= 2.87D-04
 ErrMax= 2.87D-04  0.00D+00 EMaxC= 1.00D-01 BMatC= 5.30D-05 BMatP= 5.61D-05
 IDIUse=3 WtCom= 9.97D-01 WtEn= 2.87D-03
 Coeff-Com:  0.484D+00 0.516D+00
 Coeff-En:   0.000D+00 0.100D+01
 Coeff:      0.483D+00 0.517D+00
 Gap=     0.209 Goal=   None    Shift=    0.000
 RMSDP=2.81D-05 MaxDP=1.09D-03 DE=-1.10D-04 OVMax= 4.62D-03

 Cycle   3  Pass 1  IDiag  1:
 E= -961.921390328245     Delta-E=       -0.000025281117 Rises=F Damp=F
 DIIS: error= 2.61D-04 at cycle   3 NSaved=   3.
 NSaved= 3 IEnMin= 3 EnMin= -961.921390328245     IErMin= 3 ErrMin= 2.61D-04
 ErrMax= 2.61D-04  0.00D+00 EMaxC= 1.00D-01 BMatC= 2.75D-05 BMatP= 5.30D-05
 IDIUse=3 WtCom= 9.97D-01 WtEn= 2.61D-03
 Coeff-Com: -0.902D-01 0.444D+00 0.646D+00
 Coeff-En:   0.000D+00 0.342D+00 0.658D+00
 Coeff:     -0.899D-01 0.444D+00 0.646D+00
 Gap=     0.209 Goal=   None    Shift=    0.000
 RMSDP=2.59D-05 MaxDP=8.16D-04 DE=-2.53D-05 OVMax= 6.22D-03

 Cycle   4  Pass 1  IDiag  1:
 E= -961.921428425275     Delta-E=       -0.000038097030 Rises=F Damp=F
 DIIS: error= 8.62D-05 at cycle   4 NSaved=   4.
 NSaved= 4 IEnMin= 4 EnMin= -961.921428425275     IErMin= 4 ErrMin= 8.62D-05
 ErrMax= 8.62D-05  0.00D+00 EMaxC= 1.00D-01 BMatC= 5.88D-06 BMatP= 2.75D-05
 IDIUse=1 WtCom= 1.00D+00 WtEn= 0.00D+00
 Coeff-Com: -0.713D-01 0.119D+00 0.384D+00 0.568D+00
 Coeff:     -0.713D-01 0.119D+00 0.384D+00 0.568D+00
 Gap=     0.209 Goal=   None    Shift=    0.000
 RMSDP=8.49D-06 MaxDP=2.54D-04 DE=-3.81D-05 OVMax= 1.50D-03

 Cycle   5  Pass 1  IDiag  1:
 E= -961.921435240808     Delta-E=       -0.000006815533 Rises=F Damp=F
 DIIS: error= 5.64D-05 at cycle   5 NSaved=   5.
 NSaved= 5 IEnMin= 5 EnMin= -961.921435240808     IErMin= 5 ErrMin= 5.64D-05
 ErrMax= 5.64D-05  0.00D+00 EMaxC= 1.00D-01 BMatC= 2.17D-06 BMatP= 5.88D-06
 IDIUse=1 WtCom= 1.00D+00 WtEn= 0.00D+00
 Coeff-Com:  0.219D-01-0.276D+00-0.675D-01 0.370D+00 0.951D+00
 Coeff:      0.219D-01-0.276D+00-0.675D-01 0.370D+00 0.951D+00
 Gap=     0.209 Goal=   None    Shift=    0.000
 RMSDP=1.18D-05 MaxDP=3.16D-04 DE=-6.82D-06 OVMax= 2.31D-03

 Cycle   6  Pass 1  IDiag  1:
 E= -961.921440363789     Delta-E=       -0.000005122981 Rises=F Damp=F
 DIIS: error= 2.47D-05 at cycle   6 NSaved=   6.
 NSaved= 6 IEnMin= 6 EnMin= -961.921440363789     IErMin= 6 ErrMin= 2.47D-05
 ErrMax= 2.47D-05  0.00D+00 EMaxC= 1.00D-01 BMatC= 4.28D-07 BMatP= 2.17D-06
 IDIUse=1 WtCom= 1.00D+00 WtEn= 0.00D+00
 Coeff-Com:  0.279D-01-0.187D+00-0.848D-01 0.613D-01 0.445D+00 0.738D+00
 Coeff:      0.279D-01-0.187D+00-0.848D-01 0.613D-01 0.445D+00 0.738D+00
 Gap=     0.209 Goal=   None    Shift=    0.000
 RMSDP=5.09D-06 MaxDP=1.33D-04 DE=-5.12D-06 OVMax= 9.90D-04

 Cycle   7  Pass 1  IDiag  1:
 E= -961.921441279389     Delta-E=       -0.000000915600 Rises=F Damp=F
 DIIS: error= 1.20D-05 at cycle   7 NSaved=   7.
 NSaved= 7 IEnMin= 7 EnMin= -961.921441279389     IErMin= 7 ErrMin= 1.20D-05
 ErrMax= 1.20D-05  0.00D+00 EMaxC= 1.00D-01 BMatC= 9.77D-08 BMatP= 4.28D-07
 IDIUse=1 WtCom= 1.00D+00 WtEn= 0.00D+00
 Coeff-Com:  0.964D-02-0.242D-01-0.170D-01-0.901D-01-0.754D-01 0.450D+00
 Coeff-Com:  0.747D+00
 Coeff:      0.964D-02-0.242D-01-0.170D-01-0.901D-01-0.754D-01 0.450D+00
 Coeff:      0.747D+00
 Gap=     0.209 Goal=   None    Shift=    0.000
 RMSDP=2.73D-06 MaxDP=6.66D-05 DE=-9.16D-07 OVMax= 4.81D-04

 Cycle   8  Pass 1  IDiag  1:
 E= -961.921441477715     Delta-E=       -0.000000198326 Rises=F Damp=F
 DIIS: error= 3.32D-06 at cycle   8 NSaved=   8.
 NSaved= 8 IEnMin= 8 EnMin= -961.921441477715     IErMin= 8 ErrMin= 3.32D-06
 ErrMax= 3.32D-06  0.00D+00 EMaxC= 1.00D-01 BMatC= 8.55D-09 BMatP= 9.77D-08
 IDIUse=1 WtCom= 1.00D+00 WtEn= 0.00D+00
 Coeff-Com: -0.829D-03 0.250D-01 0.845D-02-0.468D-01-0.120D+00 0.758D-01
 Coeff-Com:  0.327D+00 0.732D+00
 Coeff:     -0.829D-03 0.250D-01 0.845D-02-0.468D-01-0.120D+00 0.758D-01
 Coeff:      0.327D+00 0.732D+00
 Gap=     0.209 Goal=   None    Shift=    0.000
 RMSDP=6.16D-07 MaxDP=1.56D-05 DE=-1.98D-07 OVMax= 1.13D-04

 Cycle   9  Pass 1  IDiag  1:
 E= -961.921441492698     Delta-E=       -0.000000014983 Rises=F Damp=F
 DIIS: error= 1.23D-06 at cycle   9 NSaved=   9.
 NSaved= 9 IEnMin= 9 EnMin= -961.921441492698     IErMin= 9 ErrMin= 1.23D-06
 ErrMax= 1.23D-06  0.00D+00 EMaxC= 1.00D-01 BMatC= 1.23D-09 BMatP= 8.55D-09
 IDIUse=1 WtCom= 1.00D+00 WtEn= 0.00D+00
 Coeff-Com: -0.152D-02 0.127D-01 0.426D-02-0.233D-02-0.338D-01-0.292D-01
 Coeff-Com:  0.211D-01 0.223D+00 0.806D+00
 Coeff:     -0.152D-02 0.127D-01 0.426D-02-0.233D-02-0.338D-01-0.292D-01
 Coeff:      0.211D-01 0.223D+00 0.806D+00
 Gap=     0.209 Goal=   None    Shift=    0.000
 RMSDP=1.93D-07 MaxDP=5.79D-06 DE=-1.50D-08 OVMax= 3.50D-05

 Cycle  10  Pass 1  IDiag  1:
 E= -961.921441495238     Delta-E=       -0.000000002540 Rises=F Damp=F
 DIIS: error= 5.27D-07 at cycle  10 NSaved=  10.
 NSaved=10 IEnMin=10 EnMin= -961.921441495238     IErMin=10 ErrMin= 5.27D-07
 ErrMax= 5.27D-07  0.00D+00 EMaxC= 1.00D-01 BMatC= 2.27D-10 BMatP= 1.23D-09
 IDIUse=1 WtCom= 1.00D+00 WtEn= 0.00D+00
 Coeff-Com: -0.434D-03-0.104D-02-0.351D-03 0.104D-01 0.130D-01-0.257D-01
 Coeff-Com: -0.617D-01-0.994D-01 0.287D+00 0.878D+00
 Coeff:     -0.434D-03-0.104D-02-0.351D-03 0.104D-01 0.130D-01-0.257D-01
 Coeff:     -0.617D-01-0.994D-01 0.287D+00 0.878D+00
 Gap=     0.209 Goal=   None    Shift=    0.000
 RMSDP=1.18D-07 MaxDP=3.17D-06 DE=-2.54D-09 OVMax= 2.47D-05

 Cycle  11  Pass 1  IDiag  1:
 E= -961.921441495925     Delta-E=       -0.000000000687 Rises=F Damp=F
 DIIS: error= 2.31D-07 at cycle  11 NSaved=  11.
 NSaved=11 IEnMin=11 EnMin= -961.921441495925     IErMin=11 ErrMin= 2.31D-07
 ErrMax= 2.31D-07  0.00D+00 EMaxC= 1.00D-01 BMatC= 3.54D-11 BMatP= 2.27D-10
 IDIUse=1 WtCom= 1.00D+00 WtEn= 0.00D+00
 Coeff-Com:  0.183D-03-0.282D-02-0.652D-03 0.336D-02 0.851D-02-0.121D-02
 Coeff-Com: -0.185D-01-0.676D-01-0.774D-01 0.188D+00 0.969D+00
 Coeff:      0.183D-03-0.282D-02-0.652D-03 0.336D-02 0.851D-02-0.121D-02
 Coeff:     -0.185D-01-0.676D-01-0.774D-01 0.188D+00 0.969D+00
 Gap=     0.209 Goal=   None    Shift=    0.000
 RMSDP=5.96D-08 MaxDP=2.18D-06 DE=-6.87D-10 OVMax= 1.31D-05

 Cycle  12  Pass 1  IDiag  1:
 E= -961.921441496052     Delta-E=       -0.000000000127 Rises=F Damp=F
 DIIS: error= 9.61D-08 at cycle  12 NSaved=  12.
 NSaved=12 IEnMin=12 EnMin= -961.921441496052     IErMin=12 ErrMin= 9.61D-08
 ErrMax= 9.61D-08  0.00D+00 EMaxC= 1.00D-01 BMatC= 6.23D-12 BMatP= 3.54D-11
 IDIUse=1 WtCom= 1.00D+00 WtEn= 0.00D+00
 Coeff-Com:  0.849D-04-0.729D-03-0.192D-04-0.163D-04 0.540D-03 0.223D-02
 Coeff-Com:  0.168D-02-0.901D-02-0.538D-01-0.520D-01 0.310D+00 0.801D+00
 Coeff:      0.849D-04-0.729D-03-0.192D-04-0.163D-04 0.540D-03 0.223D-02
 Coeff:      0.168D-02-0.901D-02-0.538D-01-0.520D-01 0.310D+00 0.801D+00
 Gap=     0.209 Goal=   None    Shift=    0.000
 RMSDP=1.67D-08 MaxDP=5.63D-07 DE=-1.27D-10 OVMax= 3.51D-06

 Cycle  13  Pass 1  IDiag  1:
 E= -961.921441496074     Delta-E=       -0.000000000022 Rises=F Damp=F
 DIIS: error= 2.86D-08 at cycle  13 NSaved=  13.
 NSaved=13 IEnMin=13 EnMin= -961.921441496074     IErMin=13 ErrMin= 2.86D-08
 ErrMax= 2.86D-08  0.00D+00 EMaxC= 1.00D-01 BMatC= 6.44D-13 BMatP= 6.23D-12
 IDIUse=1 WtCom= 1.00D+00 WtEn= 0.00D+00
 Coeff-Com: -0.565D-05 0.298D-03 0.101D-03-0.469D-03-0.153D-02 0.955D-03
 Coeff-Com:  0.400D-02 0.982D-02 0.132D-02-0.475D-01-0.933D-01 0.200D+00
 Coeff-Com:  0.926D+00
 Coeff:     -0.565D-05 0.298D-03 0.101D-03-0.469D-03-0.153D-02 0.955D-03
 Coeff:      0.400D-02 0.982D-02 0.132D-02-0.475D-01-0.933D-01 0.200D+00
 Coeff:      0.926D+00
 Gap=     0.209 Goal=   None    Shift=    0.000
 RMSDP=7.02D-09 MaxDP=2.18D-07 DE=-2.21D-11 OVMax= 1.15D-06

 SCF Done:  E(RM062X) =  -961.921441496     A.U. after   13 cycles
            NFock= 13  Conv=0.70D-08     -V/T= 2.0027
 KE= 9.593704416918D+02 PE=-3.359778879466D+03 EE= 9.000014943233D+02
 Leave Link  502 at Sun May 25 04:39:38 2025, MaxMem=  3758096384 cpu:              79.0 elap:              15.6
 (Enter /apps/easybuild-2022/easybuild/software/Compiler/NVHPC/22.11-CUDA-11.7.0/Gaussian/g16c01-CUDA-11.7.0/g16/l508.exe)
 QCSCF skips out because SCF is already converged.
 Leave Link  508 at Sun May 25 04:39:38 2025, MaxMem=  3758096384 cpu:               0.0 elap:               0.0
 (Enter /apps/easybuild-2022/easybuild/software/Compiler/NVHPC/22.11-CUDA-11.7.0/Gaussian/g16c01-CUDA-11.7.0/g16/l801.exe)
 DoSCS=F DFT=T ScalE2(SS,OS)=  1.000000  1.000000
 Range of M.O.s used for correlation:     1   273
 NBasis=   273 NAE=    37 NBE=    37 NFC=     0 NFV=     0
 NROrb=    273 NOA=    37 NOB=    37 NVA=   236 NVB=   236
 Leave Link  801 at Sun May 25 04:39:38 2025, MaxMem=  3758096384 cpu:               0.0 elap:               0.0
 (Enter /apps/easybuild-2022/easybuild/software/Compiler/NVHPC/22.11-CUDA-11.7.0/Gaussian/g16c01-CUDA-11.7.0/g16/l1101.exe)
 Leave Link 1101 at Sun May 25 04:39:39 2025, MaxMem=  3758096384 cpu:               0.0 elap:               0.0
 (Enter /apps/easybuild-2022/easybuild/software/Compiler/NVHPC/22.11-CUDA-11.7.0/Gaussian/g16c01-CUDA-11.7.0/g16/l1102.exe)
 Symmetrizing basis deriv contribution to polar:
 IMax=3 JMax=2 DiffMx= 0.00D+00
 Leave Link 1102 at Sun May 25 04:39:39 2025, MaxMem=  3758096384 cpu:               0.1 elap:               0.0
 (Enter /apps/easybuild-2022/easybuild/software/Compiler/NVHPC/22.11-CUDA-11.7.0/Gaussian/g16c01-CUDA-11.7.0/g16/l1110.exe)
 Leave Link 1110 at Sun May 25 04:39:39 2025, MaxMem=  3758096384 cpu:               0.0 elap:               0.0
 (Enter /apps/easybuild-2022/easybuild/software/Compiler/NVHPC/22.11-CUDA-11.7.0/Gaussian/g16c01-CUDA-11.7.0/g16/l1002.exe)
 Minotr:  Closed shell wavefunction.
 Leave Link 1002 at Sun May 25 04:39:39 2025, MaxMem=  3758096384 cpu:               0.0 elap:               0.0
 (Enter /apps/easybuild-2022/easybuild/software/Compiler/NVHPC/22.11-CUDA-11.7.0/Gaussian/g16c01-CUDA-11.7.0/g16/l701.exe)
 ... and contract with generalized density number  0.
 Compute integral first derivatives.
   1 Symmetry operations used in ECPInt.
 ECPInt:  NShTT=    4753 NPrTT=   15592 LenC2=    4500 LenP2D=   11183.
 LDataN:  DoStor=T MaxTD1= 7 Len=  274
 Leave Link  701 at Sun May 25 04:39:39 2025, MaxMem=  3758096384 cpu:               0.5 elap:               0.1
 (Enter /apps/easybuild-2022/easybuild/software/Compiler/NVHPC/22.11-CUDA-11.7.0/Gaussian/g16c01-CUDA-11.7.0/g16/l702.exe)
 L702 exits ... SP integral derivatives will be done elsewhere.
 Leave Link  702 at Sun May 25 04:39:39 2025, MaxMem=  3758096384 cpu:               0.0 elap:               0.0
 (Enter /apps/easybuild-2022/easybuild/software/Compiler/NVHPC/22.11-CUDA-11.7.0/Gaussian/g16c01-CUDA-11.7.0/g16/l703.exe)
 Integral derivatives from FoFJK, PRISM(SPDF).
 Compute integral first derivatives, UseDBF=F ICtDFT=           0.
 Calling FoFJK, ICntrl=      2127 FMM=F ISym2X=0 I1Cent= 0 IOpClX= 0 NMat=1 NMatS=1 NMatT=0.
 FoFJK:  IHMeth= 1 ICntrl=    2127 DoSepK=F KAlg= 0 I1Cent=           0 FoldK=F
 IRaf=         0 NMat=       1 IRICut=       1 DoRegI=T DoRafI=F ISym2E= 0 IDoP0=0 IntGTp=1.
 FoFCou: FMM=F IPFlag=           0 FMFlag=      100000 FMFlg1=         800
         NFxFlg=           0 DoJE=F BraDBF=F KetDBF=F FulRan=T
         wScrn=  0.000000 ICntrl=      2127 IOpCl=  0 I1Cent=           0 NGrid=           0
         NMat0=    1 NMatS0=      1 NMatT0=    0 NMatD0=    1 NMtDS0=    0 NMtDT0=    0
 Symmetry not used in FoFCou.
 Leave Link  703 at Sun May 25 04:39:44 2025, MaxMem=  3758096384 cpu:              39.1 elap:               5.0
 (Enter /apps/easybuild-2022/easybuild/software/Compiler/NVHPC/22.11-CUDA-11.7.0/Gaussian/g16c01-CUDA-11.7.0/g16/l716.exe)
 Dipole        =-3.29001739D-01 2.57246821D-01 1.07965099D+00
 Polarizability= 0.00000000D+00 0.00000000D+00 0.00000000D+00
                 0.00000000D+00 0.00000000D+00 0.00000000D+00
 -------------------------------------------------------------------
 Center     Atomic                   Forces (Hartrees/Bohr)
 Number     Number              X              Y              Z
 -------------------------------------------------------------------
      1        6           0.000067924   -0.001860679    0.000627670
      2        9           0.000613492   -0.000586030    0.000062510
      3        9           0.000032072   -0.000022892    0.000089632
      4        9          -0.001512325   -0.000244550   -0.000453816
      5       16          -0.006156263    0.000541322   -0.002577739
      6        8           0.000199407    0.003077927   -0.000699798
      7        8           0.000190225   -0.000069973    0.000252248
      8        8           0.006499007   -0.001032899    0.002719832
      9        1           0.000066461    0.000197775   -0.000020539
 -------------------------------------------------------------------
 Cartesian Forces:  Max     0.006499007 RMS     0.002044301
 Leave Link  716 at Sun May 25 04:39:44 2025, MaxMem=  3758096384 cpu:               0.0 elap:               0.0
 (Enter /apps/easybuild-2022/easybuild/software/Compiler/NVHPC/22.11-CUDA-11.7.0/Gaussian/g16c01-CUDA-11.7.0/g16/l123.exe)
 IRC-IRC-IRC-IRC-IRC-IRC-IRC-IRC-IRC-IRC-IRC-IRC-IRC-IRC-IRC-IRC-IRC-IRC
 Pt  1 Step number   1 out of a maximum of  20
 Using modified Bulirsch-Stoer corrector integration.
   Using distance weighted interpolants to fit PES.
 PreDWI: IReCr0= 2 IReCr1= 1 IReCr2= 1 IReCr3= 1
 Modified Bulirsch-Stoer Extrapolation Cycles:
    EPS =    0.000010000000000
    Cycle     1 NS=    48
      PEZero:  N= 2 I= 1 D=  2.08D-04 Err=  4.23D-04
    Cycle     2 NS=    64 Truncation Error =  0.000423354
      PEZero:  N= 3 I= 2 D=  2.08D-04 Err=  2.82D-04
      PEZero:  N= 3 I= 1 D=  4.16D-04 Err=  5.49D-09
    Cycle     3 NS=    96 Truncation Error =  0.000000005
 BS completed in    3 cycles and     208 integration steps.
 Maximum DWI energy   std dev =  0.000000043 at pt    53
 Maximum DWI gradient std dev =  0.004246034 at pt     1
 SUMMARY OF CORRECTOR INTEGRATION:
   Predictor End Point Energy =  -961.921441
   Old End Point Energy       =  -961.921441
   Corrected End Point Energy =  -961.921441
   Predictor End-Start Dist.  =     0.079858
   Old End-Start Dist.        =     0.079858
   New End-Start Dist.        =     0.079858
   New End-Old End Dist.      =     0.000254
 CORRECTOR INTEGRATION CONVERGENCE:
   Recorrection delta-x convergence threshold:    0.010000
   Delta-x Convergence Met
 Point Number:   1          Path Number:   1
                    CURRENT STRUCTURE
                Cartesian Coordinates (Ang):                
 ---------------------------------------------------------------------
 Center     Atomic                     Coordinates (Angstroms)
 Number     Number                        X           Y           Z
 ---------------------------------------------------------------------
      1          6                    0.876306   -0.427356    0.664962
      2          9                    1.249624   -1.579400    0.170793
      3          9                    0.510802   -0.544056    1.922326
      4          9                    1.893427    0.419285    0.584744
      5         16                   -0.609749    0.829057   -0.428898
      6          8                   -2.512760    0.223564   -0.929671
      7          8                   -0.025332    1.048170   -1.705929
      8          8                   -1.046726   -0.597849   -0.177636
      9          1                   -3.075173    0.217681   -0.143335
 ---------------------------------------------------------------------
   CHANGE IN THE REACTION COORDINATE =    0.07986
   NET REACTION COORDINATE UP TO THIS POINT =    0.07986
  # OF POINTS ALONG THE PATH =   1
  # OF STEPS =   1

 Calculating another point on the path.
 Point Number  2 in REVERSE path direction.
 Using LQA Reaction Path Following.
   LQA: T_Est iteration completed in    3 iterations.
 IRC-IRC-IRC-IRC-IRC-IRC-IRC-IRC-IRC-IRC-IRC-IRC-IRC-IRC-IRC-IRC-IRC-IRC
 Leave Link  123 at Sun May 25 04:39:44 2025, MaxMem=  3758096384 cpu:               0.1 elap:               0.0
 (Enter /apps/easybuild-2022/easybuild/software/Compiler/NVHPC/22.11-CUDA-11.7.0/Gaussian/g16c01-CUDA-11.7.0/g16/l202.exe)
                          Input orientation:                          
 ---------------------------------------------------------------------
 Center     Atomic      Atomic             Coordinates (Angstroms)
 Number     Number       Type             X           Y           Z
 ---------------------------------------------------------------------
      1          6           0        0.876406   -0.430077    0.665878
      2          9           0        1.250195   -1.579950    0.170851
      3          9           0        0.510831   -0.544075    1.922416
      4          9           0        1.892027    0.419061    0.584320
      5         16           0       -0.613142    0.829349   -0.430324
      6          8           0       -2.512548    0.226956   -0.930444
      7          8           0       -0.025129    1.048088   -1.705643
      8          8           0       -1.039556   -0.598976   -0.174637
      9          1           0       -3.074036    0.221147   -0.143677
 ---------------------------------------------------------------------
                    Distance matrix (angstroms):
                    1          2          3          4          5
     1  C    0.000000
     2  F    1.306514   0.000000
     3  F    1.313593   2.165103   0.000000
     4  F    1.326338   2.139848   2.150775   0.000000
     5  S    2.237535   3.104537   2.947031   2.733808   0.000000
     6  O    3.803280   4.316942   4.227780   4.661726   2.054444
     7  O    2.936298   3.471925   3.998131   3.052063   1.421283
     8  O    2.099024   2.514882   2.608515   3.194776   1.512388
     9  H    4.084784   4.694875   4.207800   5.023040   2.551093
                    6          7          8          9
     6  O    0.000000
     7  O    2.731748   0.000000
     8  O    1.850165   2.466954   0.000000
     9  H    0.966594   3.524118   2.193780   0.000000
 Symmetry turned off by external request.
 Stoichiometry    CHF3O3S
 Rotational constants (GHZ):           3.0180863           1.2857463           1.1200991
 Leave Link  202 at Sun May 25 04:39:44 2025, MaxMem=  3758096384 cpu:               0.0 elap:               0.0
 (Enter /apps/easybuild-2022/easybuild/software/Compiler/NVHPC/22.11-CUDA-11.7.0/Gaussian/g16c01-CUDA-11.7.0/g16/l301.exe)
 Standard basis: def2TZVPP (5D, 7F)
 Ernie: Thresh=  0.10000D-02 Tol=  0.10000D-05 Strict=F.
   273 basis functions,   443 primitive gaussians,   315 cartesian basis functions
    37 alpha electrons       37 beta electrons
       nuclear repulsion energy       538.5648283789 Hartrees.
 IExCor= 4336 DFT=T Ex+Corr=M062X ExCW=0 ScaHFX=  0.540000
 ScaDFX=  1.000000  1.000000  1.000000  1.000000 ScalE2=  1.000000  1.000000
 IRadAn=      5 IRanWt=     -1 IRanGd=            0 ICorTp=0 IEmpDi=  4
 NAtoms=    9 NActive=    9 NUniq=    9 SFac= 1.00D+00 NAtFMM=   60 NAOKFM=F Big=F
 Integral buffers will be    131072 words long.
 Raffenetti 2 integral format.
 Two-electron integral symmetry is turned off.
 Leave Link  301 at Sun May 25 04:39:44 2025, MaxMem=  3758096384 cpu:               0.0 elap:               0.0
 (Enter /apps/easybuild-2022/easybuild/software/Compiler/NVHPC/22.11-CUDA-11.7.0/Gaussian/g16c01-CUDA-11.7.0/g16/l302.exe)
 NPDir=0 NMtPBC=     1 NCelOv=     1 NCel=       1 NClECP=     1 NCelD=      1
         NCelK=      1 NCelE2=     1 NClLst=     1 CellRange=     0.0.
 One-electron integrals computed using PRISM.
   1 Symmetry operations used in ECPInt.
 ECPInt:  NShTT=    4753 NPrTT=   15592 LenC2=    4501 LenP2D=   11186.
 LDataN:  DoStor=T MaxTD1= 6 Len=  172
 NBasis=   273 RedAO= T EigKep=  1.38D-03  NBF=   273
 NBsUse=   273 1.00D-06 EigRej= -1.00D+00 NBFU=   273
 Precomputing XC quadrature grid using
 IXCGrd= 4 IRadAn=           5 IRanWt=          -1 IRanGd=           0 AccXCQ= 0.00D+00.
 Generated NRdTot=       0 NPtTot=           0 NUsed=           0 NTot=          32
 NSgBfM=   312   312   312   312   312 MxSgAt=     9 MxSgA2=     9.
 Leave Link  302 at Sun May 25 04:39:44 2025, MaxMem=  3758096384 cpu:               0.6 elap:               0.1
 (Enter /apps/easybuild-2022/easybuild/software/Compiler/NVHPC/22.11-CUDA-11.7.0/Gaussian/g16c01-CUDA-11.7.0/g16/l303.exe)
 DipDrv:  MaxL=1.
 Leave Link  303 at Sun May 25 04:39:44 2025, MaxMem=  3758096384 cpu:               0.1 elap:               0.0
 (Enter /apps/easybuild-2022/easybuild/software/Compiler/NVHPC/22.11-CUDA-11.7.0/Gaussian/g16c01-CUDA-11.7.0/g16/l401.exe)
 Initial guess from the checkpoint file:  "1502984803620600000001_r13_insertion_ROR_9_8_5_6_IRC_R.chk"
 B after Tr=     0.000024    0.000052   -0.000001
         Rot=    1.000000    0.000003   -0.000000    0.000018 Ang=   0.00 deg.
 Guess basis will be translated and rotated to current coordinates.
 JPrj=2 DoOrth=T DoCkMO=T.
 Generating alternative initial guess.
 ExpMin= 9.52D-02 ExpMax= 6.07D+04 ExpMxC= 2.07D+03 IAcc=3 IRadAn=         5 AccDes= 0.00D+00
 Harris functional with IExCor= 1009 and IRadAn=       5 diagonalized for initial guess.
 HarFok:  IExCor= 1009 AccDes= 0.00D+00 IRadAn=         5 IDoV= 1 UseB2=F ITyADJ=14
 ICtDFT=  3500011 ScaDFX=  1.000000  1.000000  1.000000  1.000000
 FoFCou: FMM=F IPFlag=           0 FMFlag=      100000 FMFlg1=           0
         NFxFlg=           0 DoJE=T BraDBF=F KetDBF=T FulRan=T
         wScrn=  0.000000 ICntrl=       500 IOpCl=  0 I1Cent=   200000004 NGrid=           0
         NMat0=    1 NMatS0=      1 NMatT0=    0 NMatD0=    1 NMtDS0=    0 NMtDT0=    0
 Symmetry not used in FoFCou.
 Harris En= -961.539180329849    
 Leave Link  401 at Sun May 25 04:39:44 2025, MaxMem=  3758096384 cpu:               2.7 elap:               0.4
 (Enter /apps/easybuild-2022/easybuild/software/Compiler/NVHPC/22.11-CUDA-11.7.0/Gaussian/g16c01-CUDA-11.7.0/g16/l502.exe)
 Keep R1 ints in memory in canonical form, NReq=715214082.
 FoFCou: FMM=F IPFlag=           0 FMFlag=           0 FMFlg1=           0
         NFxFlg=           0 DoJE=F BraDBF=F KetDBF=F FulRan=T
         wScrn=  0.000000 ICntrl=       600 IOpCl=  0 I1Cent=           0 NGrid=           0
         NMat0=    1 NMatS0=  37401 NMatT0=    0 NMatD0=    1 NMtDS0=    0 NMtDT0=    0
 Symmetry not used in FoFCou.
 Two-electron integral symmetry not used.
 Closed shell SCF:
 Using DIIS extrapolation, IDIIS=  1040.
 NGot=  3758096384 LenX=  3058457086 LenY=  3058357420
 Requested convergence on RMS density matrix=1.00D-08 within  32 cycles.
 Requested convergence on MAX density matrix=1.00D-06.
 Requested convergence on             energy=1.00D-06.
 No special actions if energy rises.
 Integral accuracy reduced to 1.0D-05 until final iterations.

 Cycle   1  Pass 0  IDiag  1:
 E= -961.921490172861    
 DIIS: error= 3.24D-04 at cycle   1 NSaved=   1.
 NSaved= 1 IEnMin= 1 EnMin= -961.921490172861     IErMin= 1 ErrMin= 3.24D-04
 ErrMax= 3.24D-04  0.00D+00 EMaxC= 1.00D-01 BMatC= 5.67D-05 BMatP= 5.67D-05
 IDIUse=3 WtCom= 9.97D-01 WtEn= 3.24D-03
 Coeff-Com:  0.100D+01
 Coeff-En:   0.100D+01
 Coeff:      0.100D+01
 Gap=     1.102 Goal=   None    Shift=    0.000
 RMSDP=5.56D-05 MaxDP=1.69D-03              OVMax= 1.18D-02

 Cycle   2  Pass 0  IDiag  1:
 E= -961.921599800430     Delta-E=       -0.000109627570 Rises=F Damp=F
 DIIS: error= 2.97D-04 at cycle   2 NSaved=   2.
 NSaved= 2 IEnMin= 2 EnMin= -961.921599800430     IErMin= 2 ErrMin= 2.97D-04
 ErrMax= 2.97D-04  0.00D+00 EMaxC= 1.00D-01 BMatC= 5.35D-05 BMatP= 5.67D-05
 IDIUse=3 WtCom= 9.97D-01 WtEn= 2.97D-03
 Coeff-Com:  0.484D+00 0.516D+00
 Coeff-En:   0.000D+00 0.100D+01
 Coeff:      0.483D+00 0.517D+00
 Gap=     0.209 Goal=   None    Shift=    0.000
 RMSDP=2.84D-05 MaxDP=1.11D-03 DE=-1.10D-04 OVMax= 4.70D-03

 Cycle   3  Pass 0  IDiag  1:
 E= -961.921624497366     Delta-E=       -0.000024696936 Rises=F Damp=F
 DIIS: error= 2.76D-04 at cycle   3 NSaved=   3.
 NSaved= 3 IEnMin= 3 EnMin= -961.921624497366     IErMin= 3 ErrMin= 2.76D-04
 ErrMax= 2.76D-04  0.00D+00 EMaxC= 1.00D-01 BMatC= 2.87D-05 BMatP= 5.35D-05
 IDIUse=3 WtCom= 9.97D-01 WtEn= 2.76D-03
 Coeff-Com: -0.927D-01 0.450D+00 0.643D+00
 Coeff-En:   0.000D+00 0.351D+00 0.649D+00
 Coeff:     -0.924D-01 0.450D+00 0.643D+00
 Gap=     0.209 Goal=   None    Shift=    0.000
 RMSDP=2.61D-05 MaxDP=7.96D-04 DE=-2.47D-05 OVMax= 6.28D-03

 Cycle   4  Pass 0  IDiag  1:
 E= -961.921664003289     Delta-E=       -0.000039505923 Rises=F Damp=F
 DIIS: error= 8.59D-05 at cycle   4 NSaved=   4.
 NSaved= 4 IEnMin= 4 EnMin= -961.921664003289     IErMin= 4 ErrMin= 8.59D-05
 ErrMax= 8.59D-05  0.00D+00 EMaxC= 1.00D-01 BMatC= 5.62D-06 BMatP= 2.87D-05
 IDIUse=1 WtCom= 1.00D+00 WtEn= 0.00D+00
 Coeff-Com: -0.689D-01 0.113D+00 0.371D+00 0.586D+00
 Coeff:     -0.689D-01 0.113D+00 0.371D+00 0.586D+00
 Gap=     0.209 Goal=   None    Shift=    0.000
 RMSDP=8.63D-06 MaxDP=2.40D-04 DE=-3.95D-05 OVMax= 1.55D-03

 Initial convergence to 1.0D-05 achieved.  Increase integral accuracy.
 Cycle   5  Pass 1  IDiag  1:
 E= -961.921722313995     Delta-E=       -0.000058310706 Rises=F Damp=F
 DIIS: error= 5.44D-05 at cycle   1 NSaved=   1.
 NSaved= 1 IEnMin= 1 EnMin= -961.921722313995     IErMin= 1 ErrMin= 5.44D-05
 ErrMax= 5.44D-05  0.00D+00 EMaxC= 1.00D-01 BMatC= 2.68D-06 BMatP= 2.68D-06
 IDIUse=1 WtCom= 1.00D+00 WtEn= 0.00D+00
 Coeff-Com:  0.100D+01
 Coeff:      0.100D+01
 Gap=     0.209 Goal=   None    Shift=    0.000
 RMSDP=8.63D-06 MaxDP=2.40D-04 DE=-5.83D-05 OVMax= 1.15D-03

 Cycle   6  Pass 1  IDiag  1:
 E= -961.921722400275     Delta-E=       -0.000000086281 Rises=F Damp=F
 DIIS: error= 9.35D-05 at cycle   2 NSaved=   2.
 NSaved= 2 IEnMin= 2 EnMin= -961.921722400275     IErMin= 1 ErrMin= 5.44D-05
 ErrMax= 9.35D-05  0.00D+00 EMaxC= 1.00D-01 BMatC= 5.39D-06 BMatP= 2.68D-06
 IDIUse=1 WtCom= 1.00D+00 WtEn= 0.00D+00
 Coeff-Com:  0.600D+00 0.400D+00
 Coeff:      0.600D+00 0.400D+00
 Gap=     0.209 Goal=   None    Shift=    0.000
 RMSDP=7.80D-06 MaxDP=2.67D-04 DE=-8.63D-08 OVMax= 1.69D-03

 Cycle   7  Pass 1  IDiag  1:
 E= -961.921727014703     Delta-E=       -0.000004614428 Rises=F Damp=F
 DIIS: error= 3.71D-05 at cycle   3 NSaved=   3.
 NSaved= 3 IEnMin= 3 EnMin= -961.921727014703     IErMin= 3 ErrMin= 3.71D-05
 ErrMax= 3.71D-05  0.00D+00 EMaxC= 1.00D-01 BMatC= 8.83D-07 BMatP= 2.68D-06
 IDIUse=1 WtCom= 1.00D+00 WtEn= 0.00D+00
 Coeff-Com:  0.913D-01 0.276D+00 0.633D+00
 Coeff:      0.913D-01 0.276D+00 0.633D+00
 Gap=     0.209 Goal=   None    Shift=    0.000
 RMSDP=3.57D-06 MaxDP=1.32D-04 DE=-4.61D-06 OVMax= 5.12D-04

 Cycle   8  Pass 1  IDiag  1:
 E= -961.921728049709     Delta-E=       -0.000001035006 Rises=F Damp=F
 DIIS: error= 2.90D-05 at cycle   4 NSaved=   4.
 NSaved= 4 IEnMin= 4 EnMin= -961.921728049709     IErMin= 4 ErrMin= 2.90D-05
 ErrMax= 2.90D-05  0.00D+00 EMaxC= 1.00D-01 BMatC= 3.50D-07 BMatP= 8.83D-07
 IDIUse=1 WtCom= 1.00D+00 WtEn= 0.00D+00
 Coeff-Com: -0.196D+00 0.118D+00 0.494D+00 0.584D+00
 Coeff:     -0.196D+00 0.118D+00 0.494D+00 0.584D+00
 Gap=     0.209 Goal=   None    Shift=    0.000
 RMSDP=3.36D-06 MaxDP=9.27D-05 DE=-1.04D-06 OVMax= 7.29D-04

 Cycle   9  Pass 1  IDiag  1:
 E= -961.921728685229     Delta-E=       -0.000000635520 Rises=F Damp=F
 DIIS: error= 1.20D-05 at cycle   5 NSaved=   5.
 NSaved= 5 IEnMin= 5 EnMin= -961.921728685229     IErMin= 5 ErrMin= 1.20D-05
 ErrMax= 1.20D-05  0.00D+00 EMaxC= 1.00D-01 BMatC= 8.66D-08 BMatP= 3.50D-07
 IDIUse=1 WtCom= 1.00D+00 WtEn= 0.00D+00
 Coeff-Com: -0.639D-01-0.120D-01-0.248D+00 0.205D+00 0.112D+01
 Coeff:     -0.639D-01-0.120D-01-0.248D+00 0.205D+00 0.112D+01
 Gap=     0.209 Goal=   None    Shift=    0.000
 RMSDP=2.97D-06 MaxDP=8.03D-05 DE=-6.36D-07 OVMax= 5.79D-04

 Cycle  10  Pass 1  IDiag  1:
 E= -961.921728934642     Delta-E=       -0.000000249414 Rises=F Damp=F
 DIIS: error= 7.60D-06 at cycle   6 NSaved=   6.
 NSaved= 6 IEnMin= 6 EnMin= -961.921728934642     IErMin= 6 ErrMin= 7.60D-06
 ErrMax= 7.60D-06  0.00D+00 EMaxC= 1.00D-01 BMatC= 3.00D-08 BMatP= 8.66D-08
 IDIUse=1 WtCom= 1.00D+00 WtEn= 0.00D+00
 Coeff-Com:  0.200D-01-0.389D-01-0.377D+00-0.299D-01 0.832D+00 0.594D+00
 Coeff:      0.200D-01-0.389D-01-0.377D+00-0.299D-01 0.832D+00 0.594D+00
 Gap=     0.209 Goal=   None    Shift=    0.000
 RMSDP=1.39D-06 MaxDP=3.60D-05 DE=-2.49D-07 OVMax= 2.68D-04

 Cycle  11  Pass 1  IDiag  1:
 E= -961.921728983829     Delta-E=       -0.000000049186 Rises=F Damp=F
 DIIS: error= 1.17D-06 at cycle   7 NSaved=   7.
 NSaved= 7 IEnMin= 7 EnMin= -961.921728983829     IErMin= 7 ErrMin= 1.17D-06
 ErrMax= 1.17D-06  0.00D+00 EMaxC= 1.00D-01 BMatC= 5.83D-10 BMatP= 3.00D-08
 IDIUse=1 WtCom= 1.00D+00 WtEn= 0.00D+00
 Coeff-Com:  0.770D-02-0.816D-02-0.858D-01-0.192D-01 0.139D+00 0.173D+00
 Coeff-Com:  0.793D+00
 Coeff:      0.770D-02-0.816D-02-0.858D-01-0.192D-01 0.139D+00 0.173D+00
 Coeff:      0.793D+00
 Gap=     0.209 Goal=   None    Shift=    0.000
 RMSDP=1.89D-07 MaxDP=5.96D-06 DE=-4.92D-08 OVMax= 3.07D-05

 Cycle  12  Pass 1  IDiag  1:
 E= -961.921728984914     Delta-E=       -0.000000001085 Rises=F Damp=F
 DIIS: error= 4.54D-07 at cycle   8 NSaved=   8.
 NSaved= 8 IEnMin= 8 EnMin= -961.921728984914     IErMin= 8 ErrMin= 4.54D-07
 ErrMax= 4.54D-07  0.00D+00 EMaxC= 1.00D-01 BMatC= 9.60D-11 BMatP= 5.83D-10
 IDIUse=1 WtCom= 1.00D+00 WtEn= 0.00D+00
 Coeff-Com:  0.327D-03 0.211D-02 0.168D-01-0.493D-02-0.560D-01-0.501D-02
 Coeff-Com:  0.297D+00 0.749D+00
 Coeff:      0.327D-03 0.211D-02 0.168D-01-0.493D-02-0.560D-01-0.501D-02
 Coeff:      0.297D+00 0.749D+00
 Gap=     0.209 Goal=   None    Shift=    0.000
 RMSDP=5.90D-08 MaxDP=1.60D-06 DE=-1.08D-09 OVMax= 1.15D-05

 Cycle  13  Pass 1  IDiag  1:
 E= -961.921728985127     Delta-E=       -0.000000000213 Rises=F Damp=F
 DIIS: error= 1.92D-07 at cycle   9 NSaved=   9.
 NSaved= 9 IEnMin= 9 EnMin= -961.921728985127     IErMin= 9 ErrMin= 1.92D-07
 ErrMax= 1.92D-07  0.00D+00 EMaxC= 1.00D-01 BMatC= 2.19D-11 BMatP= 9.60D-11
 IDIUse=1 WtCom= 1.00D+00 WtEn= 0.00D+00
 Coeff-Com: -0.171D-02 0.262D-02 0.267D-01 0.144D-02-0.477D-01-0.419D-01
 Coeff-Com: -0.126D+00 0.233D+00 0.954D+00
 Coeff:     -0.171D-02 0.262D-02 0.267D-01 0.144D-02-0.477D-01-0.419D-01
 Coeff:     -0.126D+00 0.233D+00 0.954D+00
 Gap=     0.209 Goal=   None    Shift=    0.000
 RMSDP=3.85D-08 MaxDP=9.93D-07 DE=-2.13D-10 OVMax= 7.59D-06

 Cycle  14  Pass 1  IDiag  1:
 E= -961.921728985181     Delta-E=       -0.000000000054 Rises=F Damp=F
 DIIS: error= 6.72D-08 at cycle  10 NSaved=  10.
 NSaved=10 IEnMin=10 EnMin= -961.921728985181     IErMin=10 ErrMin= 6.72D-08
 ErrMax= 6.72D-08  0.00D+00 EMaxC= 1.00D-01 BMatC= 2.20D-12 BMatP= 2.19D-11
 IDIUse=1 WtCom= 1.00D+00 WtEn= 0.00D+00
 Coeff-Com: -0.131D-03-0.192D-03-0.149D-02-0.268D-03 0.876D-02-0.603D-03
 Coeff-Com: -0.643D-01-0.969D-01 0.961D-01 0.106D+01
 Coeff:     -0.131D-03-0.192D-03-0.149D-02-0.268D-03 0.876D-02-0.603D-03
 Coeff:     -0.643D-01-0.969D-01 0.961D-01 0.106D+01
 Gap=     0.209 Goal=   None    Shift=    0.000
 RMSDP=1.69D-08 MaxDP=4.99D-07 DE=-5.41D-11 OVMax= 3.33D-06

 Cycle  15  Pass 1  IDiag  1:
 E= -961.921728985232     Delta-E=       -0.000000000051 Rises=F Damp=F
 DIIS: error= 2.17D-08 at cycle  11 NSaved=  11.
 NSaved=11 IEnMin=11 EnMin= -961.921728985232     IErMin=11 ErrMin= 2.17D-08
 ErrMax= 2.17D-08  0.00D+00 EMaxC= 1.00D-01 BMatC= 4.99D-13 BMatP= 2.20D-12
 IDIUse=1 WtCom= 1.00D+00 WtEn= 0.00D+00
 Coeff-Com:  0.146D-03-0.367D-03-0.401D-02-0.415D-03 0.961D-02 0.505D-02
 Coeff-Com: -0.116D-01-0.712D-01-0.796D-01 0.446D+00 0.707D+00
 Coeff:      0.146D-03-0.367D-03-0.401D-02-0.415D-03 0.961D-02 0.505D-02
 Coeff:     -0.116D-01-0.712D-01-0.796D-01 0.446D+00 0.707D+00
 Gap=     0.209 Goal=   None    Shift=    0.000
 RMSDP=4.55D-09 MaxDP=1.28D-07 DE=-5.09D-11 OVMax= 9.64D-07

 SCF Done:  E(RM062X) =  -961.921728985     A.U. after   15 cycles
            NFock= 15  Conv=0.45D-08     -V/T= 2.0027
 KE= 9.593679122599D+02 PE=-3.359900606461D+03 EE= 9.000461368368D+02
 Leave Link  502 at Sun May 25 04:40:01 2025, MaxMem=  3758096384 cpu:              77.3 elap:              16.3
 (Enter /apps/easybuild-2022/easybuild/software/Compiler/NVHPC/22.11-CUDA-11.7.0/Gaussian/g16c01-CUDA-11.7.0/g16/l508.exe)
 QCSCF skips out because SCF is already converged.
 Leave Link  508 at Sun May 25 04:40:01 2025, MaxMem=  3758096384 cpu:               0.0 elap:               0.0
 (Enter /apps/easybuild-2022/easybuild/software/Compiler/NVHPC/22.11-CUDA-11.7.0/Gaussian/g16c01-CUDA-11.7.0/g16/l801.exe)
 DoSCS=F DFT=T ScalE2(SS,OS)=  1.000000  1.000000
 Range of M.O.s used for correlation:     1   273
 NBasis=   273 NAE=    37 NBE=    37 NFC=     0 NFV=     0
 NROrb=    273 NOA=    37 NOB=    37 NVA=   236 NVB=   236
 Leave Link  801 at Sun May 25 04:40:01 2025, MaxMem=  3758096384 cpu:               0.0 elap:               0.0
 (Enter /apps/easybuild-2022/easybuild/software/Compiler/NVHPC/22.11-CUDA-11.7.0/Gaussian/g16c01-CUDA-11.7.0/g16/l1101.exe)
 Leave Link 1101 at Sun May 25 04:40:01 2025, MaxMem=  3758096384 cpu:               0.1 elap:               0.0
 (Enter /apps/easybuild-2022/easybuild/software/Compiler/NVHPC/22.11-CUDA-11.7.0/Gaussian/g16c01-CUDA-11.7.0/g16/l1102.exe)
 Symmetrizing basis deriv contribution to polar:
 IMax=3 JMax=2 DiffMx= 0.00D+00
 Leave Link 1102 at Sun May 25 04:40:01 2025, MaxMem=  3758096384 cpu:               0.1 elap:               0.0
 (Enter /apps/easybuild-2022/easybuild/software/Compiler/NVHPC/22.11-CUDA-11.7.0/Gaussian/g16c01-CUDA-11.7.0/g16/l1110.exe)
 Leave Link 1110 at Sun May 25 04:40:01 2025, MaxMem=  3758096384 cpu:               0.0 elap:               0.0
 (Enter /apps/easybuild-2022/easybuild/software/Compiler/NVHPC/22.11-CUDA-11.7.0/Gaussian/g16c01-CUDA-11.7.0/g16/l1002.exe)
 Minotr:  Closed shell wavefunction.
 Leave Link 1002 at Sun May 25 04:40:01 2025, MaxMem=  3758096384 cpu:               0.0 elap:               0.0
 (Enter /apps/easybuild-2022/easybuild/software/Compiler/NVHPC/22.11-CUDA-11.7.0/Gaussian/g16c01-CUDA-11.7.0/g16/l701.exe)
 ... and contract with generalized density number  0.
 Compute integral first derivatives.
   1 Symmetry operations used in ECPInt.
 ECPInt:  NShTT=    4753 NPrTT=   15592 LenC2=    4501 LenP2D=   11186.
 LDataN:  DoStor=T MaxTD1= 7 Len=  274
 Leave Link  701 at Sun May 25 04:40:01 2025, MaxMem=  3758096384 cpu:               0.5 elap:               0.1
 (Enter /apps/easybuild-2022/easybuild/software/Compiler/NVHPC/22.11-CUDA-11.7.0/Gaussian/g16c01-CUDA-11.7.0/g16/l702.exe)
 L702 exits ... SP integral derivatives will be done elsewhere.
 Leave Link  702 at Sun May 25 04:40:01 2025, MaxMem=  3758096384 cpu:               0.0 elap:               0.0
 (Enter /apps/easybuild-2022/easybuild/software/Compiler/NVHPC/22.11-CUDA-11.7.0/Gaussian/g16c01-CUDA-11.7.0/g16/l703.exe)
 Integral derivatives from FoFJK, PRISM(SPDF).
 Compute integral first derivatives, UseDBF=F ICtDFT=           0.
 Calling FoFJK, ICntrl=      2127 FMM=F ISym2X=0 I1Cent= 0 IOpClX= 0 NMat=1 NMatS=1 NMatT=0.
 FoFJK:  IHMeth= 1 ICntrl=    2127 DoSepK=F KAlg= 0 I1Cent=           0 FoldK=F
 IRaf=         0 NMat=       1 IRICut=       1 DoRegI=T DoRafI=F ISym2E= 0 IDoP0=0 IntGTp=1.
 FoFCou: FMM=F IPFlag=           0 FMFlag=      100000 FMFlg1=         800
         NFxFlg=           0 DoJE=F BraDBF=F KetDBF=F FulRan=T
         wScrn=  0.000000 ICntrl=      2127 IOpCl=  0 I1Cent=           0 NGrid=           0
         NMat0=    1 NMatS0=      1 NMatT0=    0 NMatD0=    1 NMtDS0=    0 NMtDT0=    0
 Symmetry not used in FoFCou.
 Leave Link  703 at Sun May 25 04:40:06 2025, MaxMem=  3758096384 cpu:              38.3 elap:               4.9
 (Enter /apps/easybuild-2022/easybuild/software/Compiler/NVHPC/22.11-CUDA-11.7.0/Gaussian/g16c01-CUDA-11.7.0/g16/l716.exe)
 Dipole        =-2.70843921D-01 2.48759857D-01 1.10281996D+00
 Polarizability= 0.00000000D+00 0.00000000D+00 0.00000000D+00
                 0.00000000D+00 0.00000000D+00 0.00000000D+00
 -------------------------------------------------------------------
 Center     Atomic                   Forces (Hartrees/Bohr)
 Number     Number              X              Y              Z
 -------------------------------------------------------------------
      1        6           0.000119827   -0.003727681    0.001250564
      2        9           0.001223993   -0.001169592    0.000123240
      3        9           0.000058833   -0.000026778    0.000167228
      4        9          -0.003070252   -0.000498469   -0.000929183
      5       16          -0.012377793    0.001128746   -0.005162002
      6        8           0.000490065    0.006151017   -0.001375720
      7        8           0.000392979   -0.000154377    0.000481588
      8        8           0.013023336   -0.002098010    0.005469546
      9        1           0.000139012    0.000395145   -0.000025261
 -------------------------------------------------------------------
 Cartesian Forces:  Max     0.013023336 RMS     0.004103001
 Leave Link  716 at Sun May 25 04:40:06 2025, MaxMem=  3758096384 cpu:               0.0 elap:               0.0
 (Enter /apps/easybuild-2022/easybuild/software/Compiler/NVHPC/22.11-CUDA-11.7.0/Gaussian/g16c01-CUDA-11.7.0/g16/l123.exe)
 IRC-IRC-IRC-IRC-IRC-IRC-IRC-IRC-IRC-IRC-IRC-IRC-IRC-IRC-IRC-IRC-IRC-IRC
 Pt  2 Step number   1 out of a maximum of  20
 Using modified Bulirsch-Stoer corrector integration.
   Using distance weighted interpolants to fit PES.
 PreDWI: IReCr0= 2 IReCr1= 1 IReCr2= 1 IReCr3= 1
 Modified Bulirsch-Stoer Extrapolation Cycles:
    EPS =    0.000010000000000
    Cycle     1 NS=    48
      PEZero:  N= 2 I= 1 D=  4.16D-04 Err=  2.76D-06
    Cycle     2 NS=    64 Truncation Error =  0.000002759
 BS completed in    2 cycles and     112 integration steps.
 Maximum DWI energy   std dev =  0.000000095 at pt    45
 Maximum DWI gradient std dev =  0.003172720 at pt    36
 SUMMARY OF CORRECTOR INTEGRATION:
   Predictor End Point Energy =  -961.921729
   Old End Point Energy       =  -961.921729
   Corrected End Point Energy =  -961.921729
   Predictor End-Start Dist.  =     0.079830
   Old End-Start Dist.        =     0.079830
   New End-Start Dist.        =     0.079830
   New End-Old End Dist.      =     0.000266
 CORRECTOR INTEGRATION CONVERGENCE:
   Recorrection delta-x convergence threshold:    0.010000
   Delta-x Convergence Met
 Point Number:   2          Path Number:   1
                    CURRENT STRUCTURE
                Cartesian Coordinates (Ang):                
 ---------------------------------------------------------------------
 Center     Atomic                     Coordinates (Angstroms)
 Number     Number                        X           Y           Z
 ---------------------------------------------------------------------
      1          6                    0.876400   -0.430080    0.665878
      2          9                    1.250193   -1.579947    0.170850
      3          9                    0.510829   -0.544075    1.922411
      4          9                    1.892019    0.419058    0.584320
      5         16                   -0.613145    0.829356   -0.430321
      6          8                   -2.512525    0.226952   -0.930437
      7          8                   -0.025123    1.048089   -1.705649
      8          8                   -1.039561   -0.598985   -0.174636
      9          1                   -3.073996    0.221141   -0.143649
 ---------------------------------------------------------------------
   CHANGE IN THE REACTION COORDINATE =    0.07983
   NET REACTION COORDINATE UP TO THIS POINT =    0.15969
  # OF POINTS ALONG THE PATH =   2
  # OF STEPS =   1

 Calculating another point on the path.
 Point Number  3 in REVERSE path direction.
 Using LQA Reaction Path Following.
   LQA: T_Est iteration completed in    3 iterations.
 IRC-IRC-IRC-IRC-IRC-IRC-IRC-IRC-IRC-IRC-IRC-IRC-IRC-IRC-IRC-IRC-IRC-IRC
 Leave Link  123 at Sun May 25 04:40:06 2025, MaxMem=  3758096384 cpu:               0.1 elap:               0.0
 (Enter /apps/easybuild-2022/easybuild/software/Compiler/NVHPC/22.11-CUDA-11.7.0/Gaussian/g16c01-CUDA-11.7.0/g16/l202.exe)
                          Input orientation:                          
 ---------------------------------------------------------------------
 Center     Atomic      Atomic             Coordinates (Angstroms)
 Number     Number       Type             X           Y           Z
 ---------------------------------------------------------------------
      1          6           0        0.876483   -0.432805    0.666789
      2          9           0        1.250759   -1.580490    0.170906
      3          9           0        0.510855   -0.544086    1.922491
      4          9           0        1.890598    0.418828    0.583888
      5         16           0       -0.616547    0.829664   -0.431743
      6          8           0       -2.512253    0.230328   -0.931185
      7          8           0       -0.024911    1.048001   -1.705377
      8          8           0       -1.032403   -0.600132   -0.171632
      9          1           0       -3.072747    0.224597   -0.143921
 ---------------------------------------------------------------------
                    Distance matrix (angstroms):
                    1          2          3          4          5
     1  C    0.000000
     2  F    1.305053   0.000000
     3  F    1.312576   2.165558   0.000000
     4  F    1.326868   2.139444   2.150059   0.000000
     5  S    2.242708   3.107870   2.949685   2.736068   0.000000
     6  O    3.804839   4.319019   4.228755   4.660051   2.049963
     7  O    2.938107   3.472281   3.997901   3.050535   1.421213
     8  O    2.091601   2.508239   2.601949   3.186381   1.511592
     9  H    4.084831   4.695760   4.207509   5.020181   2.545951
                    6          7          8          9
     6  O    0.000000
     7  O    2.730354   0.000000
     8  O    1.859177   2.466528   0.000000
     9  H    0.966422   3.522137   2.200897   0.000000
 Symmetry turned off by external request.
 Stoichiometry    CHF3O3S
 Rotational constants (GHZ):           3.0213412           1.2852725           1.1202519
 Leave Link  202 at Sun May 25 04:40:06 2025, MaxMem=  3758096384 cpu:               0.0 elap:               0.0
 (Enter /apps/easybuild-2022/easybuild/software/Compiler/NVHPC/22.11-CUDA-11.7.0/Gaussian/g16c01-CUDA-11.7.0/g16/l301.exe)
 Standard basis: def2TZVPP (5D, 7F)
 Ernie: Thresh=  0.10000D-02 Tol=  0.10000D-05 Strict=F.
   273 basis functions,   443 primitive gaussians,   315 cartesian basis functions
    37 alpha electrons       37 beta electrons
       nuclear repulsion energy       538.6447152185 Hartrees.
 IExCor= 4336 DFT=T Ex+Corr=M062X ExCW=0 ScaHFX=  0.540000
 ScaDFX=  1.000000  1.000000  1.000000  1.000000 ScalE2=  1.000000  1.000000
 IRadAn=      5 IRanWt=     -1 IRanGd=            0 ICorTp=0 IEmpDi=  4
 NAtoms=    9 NActive=    9 NUniq=    9 SFac= 1.00D+00 NAtFMM=   60 NAOKFM=F Big=F
 Integral buffers will be    131072 words long.
 Raffenetti 2 integral format.
 Two-electron integral symmetry is turned off.
 Leave Link  301 at Sun May 25 04:40:06 2025, MaxMem=  3758096384 cpu:               0.0 elap:               0.0
 (Enter /apps/easybuild-2022/easybuild/software/Compiler/NVHPC/22.11-CUDA-11.7.0/Gaussian/g16c01-CUDA-11.7.0/g16/l302.exe)
 NPDir=0 NMtPBC=     1 NCelOv=     1 NCel=       1 NClECP=     1 NCelD=      1
         NCelK=      1 NCelE2=     1 NClLst=     1 CellRange=     0.0.
 One-electron integrals computed using PRISM.
   1 Symmetry operations used in ECPInt.
 ECPInt:  NShTT=    4753 NPrTT=   15592 LenC2=    4501 LenP2D=   11185.
 LDataN:  DoStor=T MaxTD1= 6 Len=  172
 NBasis=   273 RedAO= T EigKep=  1.38D-03  NBF=   273
 NBsUse=   273 1.00D-06 EigRej= -1.00D+00 NBFU=   273
 Precomputing XC quadrature grid using
 IXCGrd= 4 IRadAn=           5 IRanWt=          -1 IRanGd=           0 AccXCQ= 0.00D+00.
 Generated NRdTot=       0 NPtTot=           0 NUsed=           0 NTot=          32
 NSgBfM=   311   311   311   311   311 MxSgAt=     9 MxSgA2=     9.
 Leave Link  302 at Sun May 25 04:40:06 2025, MaxMem=  3758096384 cpu:               0.6 elap:               0.1
 (Enter /apps/easybuild-2022/easybuild/software/Compiler/NVHPC/22.11-CUDA-11.7.0/Gaussian/g16c01-CUDA-11.7.0/g16/l303.exe)
 DipDrv:  MaxL=1.
 Leave Link  303 at Sun May 25 04:40:06 2025, MaxMem=  3758096384 cpu:               0.1 elap:               0.0
 (Enter /apps/easybuild-2022/easybuild/software/Compiler/NVHPC/22.11-CUDA-11.7.0/Gaussian/g16c01-CUDA-11.7.0/g16/l401.exe)
 Initial guess from the checkpoint file:  "1502984803620600000001_r13_insertion_ROR_9_8_5_6_IRC_R.chk"
 B after Tr=     0.000026    0.000051    0.000000
         Rot=    1.000000    0.000005   -0.000002    0.000018 Ang=   0.00 deg.
 Guess basis will be translated and rotated to current coordinates.
 JPrj=2 DoOrth=T DoCkMO=T.
 Generating alternative initial guess.
 ExpMin= 9.52D-02 ExpMax= 6.07D+04 ExpMxC= 2.07D+03 IAcc=3 IRadAn=         5 AccDes= 0.00D+00
 Harris functional with IExCor= 1009 and IRadAn=       5 diagonalized for initial guess.
 HarFok:  IExCor= 1009 AccDes= 0.00D+00 IRadAn=         5 IDoV= 1 UseB2=F ITyADJ=14
 ICtDFT=  3500011 ScaDFX=  1.000000  1.000000  1.000000  1.000000
 FoFCou: FMM=F IPFlag=           0 FMFlag=      100000 FMFlg1=           0
         NFxFlg=           0 DoJE=T BraDBF=F KetDBF=T FulRan=T
         wScrn=  0.000000 ICntrl=       500 IOpCl=  0 I1Cent=   200000004 NGrid=           0
         NMat0=    1 NMatS0=      1 NMatT0=    0 NMatD0=    1 NMtDS0=    0 NMtDT0=    0
 Symmetry not used in FoFCou.
 Harris En= -961.541783872651    
 Leave Link  401 at Sun May 25 04:40:07 2025, MaxMem=  3758096384 cpu:               2.7 elap:               0.4
 (Enter /apps/easybuild-2022/easybuild/software/Compiler/NVHPC/22.11-CUDA-11.7.0/Gaussian/g16c01-CUDA-11.7.0/g16/l502.exe)
 Keep R1 ints in memory in canonical form, NReq=715214082.
 FoFCou: FMM=F IPFlag=           0 FMFlag=           0 FMFlg1=           0
         NFxFlg=           0 DoJE=F BraDBF=F KetDBF=F FulRan=T
         wScrn=  0.000000 ICntrl=       600 IOpCl=  0 I1Cent=           0 NGrid=           0
         NMat0=    1 NMatS0=  37401 NMatT0=    0 NMatD0=    1 NMtDS0=    0 NMtDT0=    0
 Symmetry not used in FoFCou.
 Two-electron integral symmetry not used.
 Closed shell SCF:
 Using DIIS extrapolation, IDIIS=  1040.
 NGot=  3758096384 LenX=  3058457086 LenY=  3058357420
 Requested convergence on RMS density matrix=1.00D-08 within  32 cycles.
 Requested convergence on MAX density matrix=1.00D-06.
 Requested convergence on             energy=1.00D-06.
 No special actions if energy rises.
 Integral accuracy reduced to 1.0D-05 until final iterations.

 Cycle   1  Pass 0  IDiag  1:
 E= -961.921970243220    
 DIIS: error= 3.28D-04 at cycle   1 NSaved=   1.
 NSaved= 1 IEnMin= 1 EnMin= -961.921970243220     IErMin= 1 ErrMin= 3.28D-04
 ErrMax= 3.28D-04  0.00D+00 EMaxC= 1.00D-01 BMatC= 5.67D-05 BMatP= 5.67D-05
 IDIUse=3 WtCom= 9.97D-01 WtEn= 3.28D-03
 Coeff-Com:  0.100D+01
 Coeff-En:   0.100D+01
 Coeff:      0.100D+01
 Gap=     1.098 Goal=   None    Shift=    0.000
 RMSDP=5.56D-05 MaxDP=1.68D-03              OVMax= 1.18D-02

 Cycle   2  Pass 0  IDiag  1:
 E= -961.922078864364     Delta-E=       -0.000108621145 Rises=F Damp=F
 DIIS: error= 3.02D-04 at cycle   2 NSaved=   2.
 NSaved= 2 IEnMin= 2 EnMin= -961.922078864364     IErMin= 2 ErrMin= 3.02D-04
 ErrMax= 3.02D-04  0.00D+00 EMaxC= 1.00D-01 BMatC= 5.43D-05 BMatP= 5.67D-05
 IDIUse=3 WtCom= 9.97D-01 WtEn= 3.02D-03
 Coeff-Com:  0.488D+00 0.512D+00
 Coeff-En:   0.000D+00 0.100D+01
 Coeff:      0.487D+00 0.513D+00
 Gap=     0.209 Goal=   None    Shift=    0.000
 RMSDP=2.86D-05 MaxDP=1.12D-03 DE=-1.09D-04 OVMax= 4.74D-03

 Cycle   3  Pass 0  IDiag  1:
 E= -961.922103881462     Delta-E=       -0.000025017097 Rises=F Damp=F
 DIIS: error= 2.78D-04 at cycle   3 NSaved=   3.
 NSaved= 3 IEnMin= 3 EnMin= -961.922103881462     IErMin= 3 ErrMin= 2.78D-04
 ErrMax= 2.78D-04  0.00D+00 EMaxC= 1.00D-01 BMatC= 2.90D-05 BMatP= 5.43D-05
 IDIUse=3 WtCom= 9.97D-01 WtEn= 2.78D-03
 Coeff-Com: -0.943D-01 0.450D+00 0.645D+00
 Coeff-En:   0.000D+00 0.352D+00 0.648D+00
 Coeff:     -0.941D-01 0.449D+00 0.645D+00
 Gap=     0.209 Goal=   None    Shift=    0.000
 RMSDP=2.62D-05 MaxDP=7.76D-04 DE=-2.50D-05 OVMax= 6.31D-03

 Cycle   4  Pass 0  IDiag  1:
 E= -961.922143923389     Delta-E=       -0.000040041928 Rises=F Damp=F
 DIIS: error= 8.56D-05 at cycle   4 NSaved=   4.
 NSaved= 4 IEnMin= 4 EnMin= -961.922143923389     IErMin= 4 ErrMin= 8.56D-05
 ErrMax= 8.56D-05  0.00D+00 EMaxC= 1.00D-01 BMatC= 5.41D-06 BMatP= 2.90D-05
 IDIUse=1 WtCom= 1.00D+00 WtEn= 0.00D+00
 Coeff-Com: -0.674D-01 0.105D+00 0.362D+00 0.600D+00
 Coeff:     -0.674D-01 0.105D+00 0.362D+00 0.600D+00
 Gap=     0.209 Goal=   None    Shift=    0.000
 RMSDP=8.75D-06 MaxDP=2.41D-04 DE=-4.00D-05 OVMax= 1.59D-03

 Initial convergence to 1.0D-05 achieved.  Increase integral accuracy.
 Cycle   5  Pass 1  IDiag  1:
 E= -961.922202436342     Delta-E=       -0.000058512952 Rises=F Damp=F
 DIIS: error= 5.31D-05 at cycle   1 NSaved=   1.
 NSaved= 1 IEnMin= 1 EnMin= -961.922202436342     IErMin= 1 ErrMin= 5.31D-05
 ErrMax= 5.31D-05  0.00D+00 EMaxC= 1.00D-01 BMatC= 2.69D-06 BMatP= 2.69D-06
 IDIUse=1 WtCom= 1.00D+00 WtEn= 0.00D+00
 Coeff-Com:  0.100D+01
 Coeff:      0.100D+01
 Gap=     0.209 Goal=   None    Shift=    0.000
 RMSDP=8.75D-06 MaxDP=2.41D-04 DE=-5.85D-05 OVMax= 1.17D-03

 Cycle   6  Pass 1  IDiag  1:
 E= -961.922202393690     Delta-E=        0.000000042652 Rises=F Damp=F
 DIIS: error= 9.50D-05 at cycle   2 NSaved=   2.
 NSaved= 2 IEnMin= 1 EnMin= -961.922202436342     IErMin= 1 ErrMin= 5.31D-05
 ErrMax= 9.50D-05  0.00D+00 EMaxC= 1.00D-01 BMatC= 5.55D-06 BMatP= 2.69D-06
 IDIUse=1 WtCom= 1.00D+00 WtEn= 0.00D+00
 Coeff-Com:  0.603D+00 0.397D+00
 Coeff:      0.603D+00 0.397D+00
 Gap=     0.209 Goal=   None    Shift=    0.000
 RMSDP=7.87D-06 MaxDP=2.76D-04 DE= 4.27D-08 OVMax= 1.70D-03

 Cycle   7  Pass 1  IDiag  1:
 E= -961.922207115353     Delta-E=       -0.000004721663 Rises=F Damp=F
 DIIS: error= 3.77D-05 at cycle   3 NSaved=   3.
 NSaved= 3 IEnMin= 3 EnMin= -961.922207115353     IErMin= 3 ErrMin= 3.77D-05
 ErrMax= 3.77D-05  0.00D+00 EMaxC= 1.00D-01 BMatC= 8.98D-07 BMatP= 2.69D-06
 IDIUse=1 WtCom= 1.00D+00 WtEn= 0.00D+00
 Coeff-Com:  0.101D+00 0.276D+00 0.623D+00
 Coeff:      0.101D+00 0.276D+00 0.623D+00
 Gap=     0.209 Goal=   None    Shift=    0.000
 RMSDP=3.54D-06 MaxDP=1.26D-04 DE=-4.72D-06 OVMax= 5.15D-04

 Cycle   8  Pass 1  IDiag  1:
 E= -961.922208155169     Delta-E=       -0.000001039816 Rises=F Damp=F
 DIIS: error= 2.81D-05 at cycle   4 NSaved=   4.
 NSaved= 4 IEnMin= 4 EnMin= -961.922208155169     IErMin= 4 ErrMin= 2.81D-05
 ErrMax= 2.81D-05  0.00D+00 EMaxC= 1.00D-01 BMatC= 3.46D-07 BMatP= 8.98D-07
 IDIUse=1 WtCom= 1.00D+00 WtEn= 0.00D+00
 Coeff-Com: -0.195D+00 0.116D+00 0.485D+00 0.594D+00
 Coeff:     -0.195D+00 0.116D+00 0.485D+00 0.594D+00
 Gap=     0.209 Goal=   None    Shift=    0.000
 RMSDP=3.40D-06 MaxDP=9.58D-05 DE=-1.04D-06 OVMax= 7.43D-04

 Cycle   9  Pass 1  IDiag  1:
 E= -961.922208797928     Delta-E=       -0.000000642759 Rises=F Damp=F
 DIIS: error= 1.22D-05 at cycle   5 NSaved=   5.
 NSaved= 5 IEnMin= 5 EnMin= -961.922208797928     IErMin= 5 ErrMin= 1.22D-05
 ErrMax= 1.22D-05  0.00D+00 EMaxC= 1.00D-01 BMatC= 8.81D-08 BMatP= 3.46D-07
 IDIUse=1 WtCom= 1.00D+00 WtEn= 0.00D+00
 Coeff-Com: -0.687D-01-0.104D-01-0.235D+00 0.213D+00 0.110D+01
 Coeff:     -0.687D-01-0.104D-01-0.235D+00 0.213D+00 0.110D+01
 Gap=     0.209 Goal=   None    Shift=    0.000
 RMSDP=2.95D-06 MaxDP=8.18D-05 DE=-6.43D-07 OVMax= 5.79D-04

 Cycle  10  Pass 1  IDiag  1:
 E= -961.922209048991     Delta-E=       -0.000000251063 Rises=F Damp=F
 DIIS: error= 7.58D-06 at cycle   6 NSaved=   6.
 NSaved= 6 IEnMin= 6 EnMin= -961.922209048991     IErMin= 6 ErrMin= 7.58D-06
 ErrMax= 7.58D-06  0.00D+00 EMaxC= 1.00D-01 BMatC= 3.08D-08 BMatP= 8.81D-08
 IDIUse=1 WtCom= 1.00D+00 WtEn= 0.00D+00
 Coeff-Com:  0.193D-01-0.388D-01-0.376D+00-0.361D-01 0.827D+00 0.605D+00
 Coeff:      0.193D-01-0.388D-01-0.376D+00-0.361D-01 0.827D+00 0.605D+00
 Gap=     0.209 Goal=   None    Shift=    0.000
 RMSDP=1.46D-06 MaxDP=3.89D-05 DE=-2.51D-07 OVMax= 2.83D-04

 Cycle  11  Pass 1  IDiag  1:
 E= -961.922209100928     Delta-E=       -0.000000051938 Rises=F Damp=F
 DIIS: error= 1.19D-06 at cycle   7 NSaved=   7.
 NSaved= 7 IEnMin= 7 EnMin= -961.922209100928     IErMin= 7 ErrMin= 1.19D-06
 ErrMax= 1.19D-06  0.00D+00 EMaxC= 1.00D-01 BMatC= 6.20D-10 BMatP= 3.08D-08
 IDIUse=1 WtCom= 1.00D+00 WtEn= 0.00D+00
 Coeff-Com:  0.835D-02-0.926D-02-0.961D-01-0.218D-01 0.163D+00 0.190D+00
 Coeff-Com:  0.766D+00
 Coeff:      0.835D-02-0.926D-02-0.961D-01-0.218D-01 0.163D+00 0.190D+00
 Coeff:      0.766D+00
 Gap=     0.209 Goal=   None    Shift=    0.000
 RMSDP=1.84D-07 MaxDP=6.05D-06 DE=-5.19D-08 OVMax= 3.04D-05

 Cycle  12  Pass 1  IDiag  1:
 E= -961.922209102018     Delta-E=       -0.000000001090 Rises=F Damp=F
 DIIS: error= 4.86D-07 at cycle   8 NSaved=   8.
 NSaved= 8 IEnMin= 8 EnMin= -961.922209102018     IErMin= 8 ErrMin= 4.86D-07
 ErrMax= 4.86D-07  0.00D+00 EMaxC= 1.00D-01 BMatC= 1.05D-10 BMatP= 6.20D-10
 IDIUse=1 WtCom= 1.00D+00 WtEn= 0.00D+00
 Coeff-Com:  0.508D-03 0.198D-02 0.152D-01-0.481D-02-0.531D-01-0.421D-02
 Coeff-Com:  0.298D+00 0.747D+00
 Coeff:      0.508D-03 0.198D-02 0.152D-01-0.481D-02-0.531D-01-0.421D-02
 Coeff:      0.298D+00 0.747D+00
 Gap=     0.209 Goal=   None    Shift=    0.000
 RMSDP=6.24D-08 MaxDP=1.72D-06 DE=-1.09D-09 OVMax= 1.17D-05

 Cycle  13  Pass 1  IDiag  1:
 E= -961.922209102260     Delta-E=       -0.000000000242 Rises=F Damp=F
 DIIS: error= 1.83D-07 at cycle   9 NSaved=   9.
 NSaved= 9 IEnMin= 9 EnMin= -961.922209102260     IErMin= 9 ErrMin= 1.83D-07
 ErrMax= 1.83D-07  0.00D+00 EMaxC= 1.00D-01 BMatC= 2.05D-11 BMatP= 1.05D-10
 IDIUse=1 WtCom= 1.00D+00 WtEn= 0.00D+00
 Coeff-Com: -0.166D-02 0.258D-02 0.260D-01 0.193D-02-0.469D-01-0.418D-01
 Coeff-Com: -0.116D+00 0.205D+00 0.971D+00
 Coeff:     -0.166D-02 0.258D-02 0.260D-01 0.193D-02-0.469D-01-0.418D-01
 Coeff:     -0.116D+00 0.205D+00 0.971D+00
 Gap=     0.209 Goal=   None    Shift=    0.000
 RMSDP=3.79D-08 MaxDP=8.86D-07 DE=-2.42D-10 OVMax= 7.32D-06

 Cycle  14  Pass 1  IDiag  1:
 E= -961.922209102315     Delta-E=       -0.000000000055 Rises=F Damp=F
 DIIS: error= 7.17D-08 at cycle  10 NSaved=  10.
 NSaved=10 IEnMin=10 EnMin= -961.922209102315     IErMin=10 ErrMin= 7.17D-08
 ErrMax= 7.17D-08  0.00D+00 EMaxC= 1.00D-01 BMatC= 2.37D-12 BMatP= 2.05D-11
 IDIUse=1 WtCom= 1.00D+00 WtEn= 0.00D+00
 Coeff-Com: -0.220D-03-0.428D-04 0.202D-04-0.122D-03 0.592D-02-0.287D-02
 Coeff-Com: -0.677D-01-0.868D-01 0.142D+00 0.101D+01
 Coeff:     -0.220D-03-0.428D-04 0.202D-04-0.122D-03 0.592D-02-0.287D-02
 Coeff:     -0.677D-01-0.868D-01 0.142D+00 0.101D+01
 Gap=     0.209 Goal=   None    Shift=    0.000
 RMSDP=1.64D-08 MaxDP=4.46D-07 DE=-5.46D-11 OVMax= 3.11D-06

 Cycle  15  Pass 1  IDiag  1:
 E= -961.922209102325     Delta-E=       -0.000000000010 Rises=F Damp=F
 DIIS: error= 2.43D-08 at cycle  11 NSaved=  11.
 NSaved=11 IEnMin=11 EnMin= -961.922209102325     IErMin=11 ErrMin= 2.43D-08
 ErrMax= 2.43D-08  0.00D+00 EMaxC= 1.00D-01 BMatC= 5.96D-13 BMatP= 2.37D-12
 IDIUse=1 WtCom= 1.00D+00 WtEn= 0.00D+00
 Coeff-Com:  0.144D-03-0.372D-03-0.405D-02-0.498D-03 0.976D-02 0.523D-02
 Coeff-Com: -0.119D-01-0.699D-01-0.878D-01 0.437D+00 0.722D+00
 Coeff:      0.144D-03-0.372D-03-0.405D-02-0.498D-03 0.976D-02 0.523D-02
 Coeff:     -0.119D-01-0.699D-01-0.878D-01 0.437D+00 0.722D+00
 Gap=     0.209 Goal=   None    Shift=    0.000
 RMSDP=5.18D-09 MaxDP=1.36D-07 DE=-1.05D-11 OVMax= 1.09D-06

 SCF Done:  E(RM062X) =  -961.922209102     A.U. after   15 cycles
            NFock= 15  Conv=0.52D-08     -V/T= 2.0027
 KE= 9.593653304247D+02 PE=-3.360024222341D+03 EE= 9.000919675950D+02
 Leave Link  502 at Sun May 25 04:40:23 2025, MaxMem=  3758096384 cpu:              78.1 elap:              16.5
 (Enter /apps/easybuild-2022/easybuild/software/Compiler/NVHPC/22.11-CUDA-11.7.0/Gaussian/g16c01-CUDA-11.7.0/g16/l508.exe)
 QCSCF skips out because SCF is already converged.
 Leave Link  508 at Sun May 25 04:40:23 2025, MaxMem=  3758096384 cpu:               0.0 elap:               0.0
 (Enter /apps/easybuild-2022/easybuild/software/Compiler/NVHPC/22.11-CUDA-11.7.0/Gaussian/g16c01-CUDA-11.7.0/g16/l801.exe)
 DoSCS=F DFT=T ScalE2(SS,OS)=  1.000000  1.000000
 Range of M.O.s used for correlation:     1   273
 NBasis=   273 NAE=    37 NBE=    37 NFC=     0 NFV=     0
 NROrb=    273 NOA=    37 NOB=    37 NVA=   236 NVB=   236
 Leave Link  801 at Sun May 25 04:40:23 2025, MaxMem=  3758096384 cpu:               0.0 elap:               0.0
 (Enter /apps/easybuild-2022/easybuild/software/Compiler/NVHPC/22.11-CUDA-11.7.0/Gaussian/g16c01-CUDA-11.7.0/g16/l1101.exe)
 Leave Link 1101 at Sun May 25 04:40:23 2025, MaxMem=  3758096384 cpu:               0.0 elap:               0.0
 (Enter /apps/easybuild-2022/easybuild/software/Compiler/NVHPC/22.11-CUDA-11.7.0/Gaussian/g16c01-CUDA-11.7.0/g16/l1102.exe)
 Symmetrizing basis deriv contribution to polar:
 IMax=3 JMax=2 DiffMx= 0.00D+00
 Leave Link 1102 at Sun May 25 04:40:23 2025, MaxMem=  3758096384 cpu:               0.1 elap:               0.0
 (Enter /apps/easybuild-2022/easybuild/software/Compiler/NVHPC/22.11-CUDA-11.7.0/Gaussian/g16c01-CUDA-11.7.0/g16/l1110.exe)
 Leave Link 1110 at Sun May 25 04:40:23 2025, MaxMem=  3758096384 cpu:               0.0 elap:               0.0
 (Enter /apps/easybuild-2022/easybuild/software/Compiler/NVHPC/22.11-CUDA-11.7.0/Gaussian/g16c01-CUDA-11.7.0/g16/l1002.exe)
 Minotr:  Closed shell wavefunction.
 Leave Link 1002 at Sun May 25 04:40:23 2025, MaxMem=  3758096384 cpu:               0.0 elap:               0.0
 (Enter /apps/easybuild-2022/easybuild/software/Compiler/NVHPC/22.11-CUDA-11.7.0/Gaussian/g16c01-CUDA-11.7.0/g16/l701.exe)
 ... and contract with generalized density number  0.
 Compute integral first derivatives.
   1 Symmetry operations used in ECPInt.
 ECPInt:  NShTT=    4753 NPrTT=   15592 LenC2=    4501 LenP2D=   11185.
 LDataN:  DoStor=T MaxTD1= 7 Len=  274
 Leave Link  701 at Sun May 25 04:40:23 2025, MaxMem=  3758096384 cpu:               0.5 elap:               0.1
 (Enter /apps/easybuild-2022/easybuild/software/Compiler/NVHPC/22.11-CUDA-11.7.0/Gaussian/g16c01-CUDA-11.7.0/g16/l702.exe)
 L702 exits ... SP integral derivatives will be done elsewhere.
 Leave Link  702 at Sun May 25 04:40:24 2025, MaxMem=  3758096384 cpu:               0.0 elap:               0.0
 (Enter /apps/easybuild-2022/easybuild/software/Compiler/NVHPC/22.11-CUDA-11.7.0/Gaussian/g16c01-CUDA-11.7.0/g16/l703.exe)
 Integral derivatives from FoFJK, PRISM(SPDF).
 Compute integral first derivatives, UseDBF=F ICtDFT=           0.
 Calling FoFJK, ICntrl=      2127 FMM=F ISym2X=0 I1Cent= 0 IOpClX= 0 NMat=1 NMatS=1 NMatT=0.
 FoFJK:  IHMeth= 1 ICntrl=    2127 DoSepK=F KAlg= 0 I1Cent=           0 FoldK=F
 IRaf=         0 NMat=       1 IRICut=       1 DoRegI=T DoRafI=F ISym2E= 0 IDoP0=0 IntGTp=1.
 FoFCou: FMM=F IPFlag=           0 FMFlag=      100000 FMFlg1=         800
         NFxFlg=           0 DoJE=F BraDBF=F KetDBF=F FulRan=T
         wScrn=  0.000000 ICntrl=      2127 IOpCl=  0 I1Cent=           0 NGrid=           0
         NMat0=    1 NMatS0=      1 NMatT0=    0 NMatD0=    1 NMtDS0=    0 NMtDT0=    0
 Symmetry not used in FoFCou.
 Leave Link  703 at Sun May 25 04:40:29 2025, MaxMem=  3758096384 cpu:              39.2 elap:               5.0
 (Enter /apps/easybuild-2022/easybuild/software/Compiler/NVHPC/22.11-CUDA-11.7.0/Gaussian/g16c01-CUDA-11.7.0/g16/l716.exe)
 Dipole        =-2.12976568D-01 2.39314954D-01 1.12669144D+00
 Polarizability= 0.00000000D+00 0.00000000D+00 0.00000000D+00
                 0.00000000D+00 0.00000000D+00 0.00000000D+00
 -------------------------------------------------------------------
 Center     Atomic                   Forces (Hartrees/Bohr)
 Number     Number              X              Y              Z
 -------------------------------------------------------------------
      1        6           0.000145920   -0.005592392    0.001861885
      2        9           0.001828825   -0.001749144    0.000177127
      3        9           0.000076933   -0.000024856    0.000232392
      4        9          -0.004665671   -0.000763560   -0.001414973
      5       16          -0.018616561    0.001758796   -0.007739832
      6        8           0.000864343    0.009202777   -0.002010033
      7        8           0.000605042   -0.000242670    0.000702309
      8        8           0.019535922   -0.003181491    0.008226666
      9        1           0.000225247    0.000592540   -0.000035540
 -------------------------------------------------------------------
 Cartesian Forces:  Max     0.019535922 RMS     0.006162729
 Leave Link  716 at Sun May 25 04:40:29 2025, MaxMem=  3758096384 cpu:               0.0 elap:               0.0
 (Enter /apps/easybuild-2022/easybuild/software/Compiler/NVHPC/22.11-CUDA-11.7.0/Gaussian/g16c01-CUDA-11.7.0/g16/l123.exe)
 IRC-IRC-IRC-IRC-IRC-IRC-IRC-IRC-IRC-IRC-IRC-IRC-IRC-IRC-IRC-IRC-IRC-IRC
 Pt  3 Step number   1 out of a maximum of  20
 Using modified Bulirsch-Stoer corrector integration.
   Using distance weighted interpolants to fit PES.
 PreDWI: IReCr0= 2 IReCr1= 1 IReCr2= 1 IReCr3= 1
 Modified Bulirsch-Stoer Extrapolation Cycles:
    EPS =    0.000010000000000
    Cycle     1 NS=    48
      PEZero:  N= 2 I= 1 D=  4.16D-04 Err=  2.84D-06
    Cycle     2 NS=    64 Truncation Error =  0.000002836
 BS completed in    2 cycles and     112 integration steps.
 Maximum DWI energy   std dev =  0.000000030 at pt    31
 Maximum DWI gradient std dev =  0.001842978 at pt    28
 SUMMARY OF CORRECTOR INTEGRATION:
   Predictor End Point Energy =  -961.922209
   Old End Point Energy       =  -961.922209
   Corrected End Point Energy =  -961.922209
   Predictor End-Start Dist.  =     0.079835
   Old End-Start Dist.        =     0.079835
   New End-Start Dist.        =     0.079835
   New End-Old End Dist.      =     0.000168
 CORRECTOR INTEGRATION CONVERGENCE:
   Recorrection delta-x convergence threshold:    0.010000
   Delta-x Convergence Met
 Point Number:   3          Path Number:   1
                    CURRENT STRUCTURE
                Cartesian Coordinates (Ang):                
 ---------------------------------------------------------------------
 Center     Atomic                     Coordinates (Angstroms)
 Number     Number                        X           Y           Z
 ---------------------------------------------------------------------
      1          6                    0.876479   -0.432806    0.666788
      2          9                    1.250758   -1.580489    0.170905
      3          9                    0.510854   -0.544085    1.922488
      4          9                    1.890592    0.418826    0.583887
      5         16                   -0.616549    0.829669   -0.431741
      6          8                   -2.512238    0.230326   -0.931181
      7          8                   -0.024908    1.048001   -1.705382
      8          8                   -1.032407   -0.600138   -0.171630
      9          1                   -3.072724    0.224592   -0.143905
 ---------------------------------------------------------------------
   CHANGE IN THE REACTION COORDINATE =    0.07984
   NET REACTION COORDINATE UP TO THIS POINT =    0.23952
  # OF POINTS ALONG THE PATH =   3
  # OF STEPS =   1

 Calculating another point on the path.
 Point Number  4 in REVERSE path direction.
 Using LQA Reaction Path Following.
   LQA: T_Est iteration completed in    3 iterations.
 IRC-IRC-IRC-IRC-IRC-IRC-IRC-IRC-IRC-IRC-IRC-IRC-IRC-IRC-IRC-IRC-IRC-IRC
 Leave Link  123 at Sun May 25 04:40:29 2025, MaxMem=  3758096384 cpu:               0.1 elap:               0.0
 (Enter /apps/easybuild-2022/easybuild/software/Compiler/NVHPC/22.11-CUDA-11.7.0/Gaussian/g16c01-CUDA-11.7.0/g16/l202.exe)
                          Input orientation:                          
 ---------------------------------------------------------------------
 Center     Atomic      Atomic             Coordinates (Angstroms)
 Number     Number       Type             X           Y           Z
 ---------------------------------------------------------------------
      1          6           0        0.876546   -0.435532    0.667692
[...]
 RMSDP=4.83D-06 MaxDP=1.18D-04 DE=-1.02D-06 OVMax= 2.66D-04

 Cycle   4  Pass 1  IDiag  1:
 E= -962.135525456129     Delta-E=       -0.000000585898 Rises=F Damp=F
 DIIS: error= 1.18D-05 at cycle   2 NSaved=   2.
 NSaved= 2 IEnMin= 2 EnMin= -962.135525456129     IErMin= 2 ErrMin= 1.18D-05
 ErrMax= 1.18D-05  0.00D+00 EMaxC= 1.00D-01 BMatC= 1.71D-07 BMatP= 8.52D-07
 IDIUse=1 WtCom= 1.00D+00 WtEn= 0.00D+00
 Coeff-Com:  0.211D+00 0.789D+00
 Coeff:      0.211D+00 0.789D+00
 Gap=     0.384 Goal=   None    Shift=    0.000
 RMSDP=1.72D-06 MaxDP=9.01D-05 DE=-5.86D-07 OVMax= 1.48D-04

 Cycle   5  Pass 1  IDiag  1:
 E= -962.135525487034     Delta-E=       -0.000000030905 Rises=F Damp=F
 DIIS: error= 1.41D-05 at cycle   3 NSaved=   3.
 NSaved= 3 IEnMin= 3 EnMin= -962.135525487034     IErMin= 2 ErrMin= 1.18D-05
 ErrMax= 1.41D-05  0.00D+00 EMaxC= 1.00D-01 BMatC= 1.35D-07 BMatP= 1.71D-07
 IDIUse=1 WtCom= 1.00D+00 WtEn= 0.00D+00
 Coeff-Com: -0.360D-01 0.472D+00 0.564D+00
 Coeff:     -0.360D-01 0.472D+00 0.564D+00
 Gap=     0.384 Goal=   None    Shift=    0.000
 RMSDP=7.84D-07 MaxDP=2.88D-05 DE=-3.09D-08 OVMax= 7.74D-05

 Cycle   6  Pass 1  IDiag  1:
 E= -962.135525572787     Delta-E=       -0.000000085753 Rises=F Damp=F
 DIIS: error= 3.00D-06 at cycle   4 NSaved=   4.
 NSaved= 4 IEnMin= 4 EnMin= -962.135525572787     IErMin= 4 ErrMin= 3.00D-06
 ErrMax= 3.00D-06  0.00D+00 EMaxC= 1.00D-01 BMatC= 3.75D-09 BMatP= 1.35D-07
 IDIUse=1 WtCom= 1.00D+00 WtEn= 0.00D+00
 Coeff-Com: -0.241D-01 0.168D+00 0.244D+00 0.613D+00
 Coeff:     -0.241D-01 0.168D+00 0.244D+00 0.613D+00
 Gap=     0.384 Goal=   None    Shift=    0.000
 RMSDP=2.10D-07 MaxDP=7.65D-06 DE=-8.58D-08 OVMax= 2.13D-05

 Cycle   7  Pass 1  IDiag  1:
 E= -962.135525575285     Delta-E=       -0.000000002498 Rises=F Damp=F
 DIIS: error= 7.46D-07 at cycle   5 NSaved=   5.
 NSaved= 5 IEnMin= 5 EnMin= -962.135525575285     IErMin= 5 ErrMin= 7.46D-07
 ErrMax= 7.46D-07  0.00D+00 EMaxC= 1.00D-01 BMatC= 4.57D-10 BMatP= 3.75D-09
 IDIUse=1 WtCom= 1.00D+00 WtEn= 0.00D+00
 Coeff-Com: -0.377D-02-0.354D-03 0.154D-01 0.255D+00 0.734D+00
 Coeff:     -0.377D-02-0.354D-03 0.154D-01 0.255D+00 0.734D+00
 Gap=     0.384 Goal=   None    Shift=    0.000
 RMSDP=8.19D-08 MaxDP=2.87D-06 DE=-2.50D-09 OVMax= 6.19D-06

 Cycle   8  Pass 1  IDiag  1:
 E= -962.135525575639     Delta-E=       -0.000000000354 Rises=F Damp=F
 DIIS: error= 2.44D-07 at cycle   6 NSaved=   6.
 NSaved= 6 IEnMin= 6 EnMin= -962.135525575639     IErMin= 6 ErrMin= 2.44D-07
 ErrMax= 2.44D-07  0.00D+00 EMaxC= 1.00D-01 BMatC= 6.37D-11 BMatP= 4.57D-10
 IDIUse=1 WtCom= 1.00D+00 WtEn= 0.00D+00
 Coeff-Com:  0.121D-02-0.218D-01-0.257D-01 0.338D-01 0.325D+00 0.687D+00
 Coeff:      0.121D-02-0.218D-01-0.257D-01 0.338D-01 0.325D+00 0.687D+00
 Gap=     0.384 Goal=   None    Shift=    0.000
 RMSDP=3.37D-08 MaxDP=2.14D-06 DE=-3.54D-10 OVMax= 3.07D-06

 Cycle   9  Pass 1  IDiag  1:
 E= -962.135525575702     Delta-E=       -0.000000000063 Rises=F Damp=F
 DIIS: error= 8.17D-08 at cycle   7 NSaved=   7.
 NSaved= 7 IEnMin= 7 EnMin= -962.135525575702     IErMin= 7 ErrMin= 8.17D-08
 ErrMax= 8.17D-08  0.00D+00 EMaxC= 1.00D-01 BMatC= 4.72D-12 BMatP= 6.37D-11
 IDIUse=1 WtCom= 1.00D+00 WtEn= 0.00D+00
 Coeff-Com:  0.654D-03-0.723D-02-0.106D-01-0.158D-01 0.300D-01 0.222D+00
 Coeff-Com:  0.781D+00
 Coeff:      0.654D-03-0.723D-02-0.106D-01-0.158D-01 0.300D-01 0.222D+00
 Coeff:      0.781D+00
 Gap=     0.384 Goal=   None    Shift=    0.000
 RMSDP=1.08D-08 MaxDP=3.47D-07 DE=-6.34D-11 OVMax= 1.36D-06

 Cycle  10  Pass 1  IDiag  1:
 E= -962.135525575682     Delta-E=        0.000000000020 Rises=F Damp=F
 DIIS: error= 2.89D-08 at cycle   8 NSaved=   8.
 NSaved= 8 IEnMin= 7 EnMin= -962.135525575702     IErMin= 8 ErrMin= 2.89D-08
 ErrMax= 2.89D-08  0.00D+00 EMaxC= 1.00D-01 BMatC= 1.08D-12 BMatP= 4.72D-12
 IDIUse=1 WtCom= 1.00D+00 WtEn= 0.00D+00
 Coeff-Com:  0.147D-03-0.116D-03-0.118D-02-0.122D-01-0.328D-01-0.327D-02
 Coeff-Com:  0.351D+00 0.698D+00
 Coeff:      0.147D-03-0.116D-03-0.118D-02-0.122D-01-0.328D-01-0.327D-02
 Coeff:      0.351D+00 0.698D+00
 Gap=     0.384 Goal=   None    Shift=    0.000
 RMSDP=3.68D-09 MaxDP=9.72D-08 DE= 2.02D-11 OVMax= 5.06D-07

 SCF Done:  E(RM062X) =  -962.135525576     A.U. after   10 cycles
            NFock= 10  Conv=0.37D-08     -V/T= 2.0026
 KE= 9.596557481810D+02 PE=-3.382742508049D+03 EE= 9.111868369352D+02
 Leave Link  502 at Sun May 25 05:11:40 2025, MaxMem=  3758096384 cpu:              59.5 elap:              11.9
 (Enter /apps/easybuild-2022/easybuild/software/Compiler/NVHPC/22.11-CUDA-11.7.0/Gaussian/g16c01-CUDA-11.7.0/g16/l508.exe)
 QCSCF skips out because SCF is already converged.
 Leave Link  508 at Sun May 25 05:11:40 2025, MaxMem=  3758096384 cpu:               0.0 elap:               0.0
 (Enter /apps/easybuild-2022/easybuild/software/Compiler/NVHPC/22.11-CUDA-11.7.0/Gaussian/g16c01-CUDA-11.7.0/g16/l801.exe)
 DoSCS=F DFT=T ScalE2(SS,OS)=  1.000000  1.000000
 Range of M.O.s used for correlation:     1   273
 NBasis=   273 NAE=    37 NBE=    37 NFC=     0 NFV=     0
 NROrb=    273 NOA=    37 NOB=    37 NVA=   236 NVB=   236

 **** Warning!!: The largest alpha MO coefficient is  0.11110256D+02

 Leave Link  801 at Sun May 25 05:11:40 2025, MaxMem=  3758096384 cpu:               0.0 elap:               0.0
 (Enter /apps/easybuild-2022/easybuild/software/Compiler/NVHPC/22.11-CUDA-11.7.0/Gaussian/g16c01-CUDA-11.7.0/g16/l1101.exe)
 Leave Link 1101 at Sun May 25 05:11:40 2025, MaxMem=  3758096384 cpu:               0.0 elap:               0.0
 (Enter /apps/easybuild-2022/easybuild/software/Compiler/NVHPC/22.11-CUDA-11.7.0/Gaussian/g16c01-CUDA-11.7.0/g16/l1102.exe)
 Symmetrizing basis deriv contribution to polar:
 IMax=3 JMax=2 DiffMx= 0.00D+00
 Leave Link 1102 at Sun May 25 05:11:40 2025, MaxMem=  3758096384 cpu:               0.1 elap:               0.0
 (Enter /apps/easybuild-2022/easybuild/software/Compiler/NVHPC/22.11-CUDA-11.7.0/Gaussian/g16c01-CUDA-11.7.0/g16/l1110.exe)
 Leave Link 1110 at Sun May 25 05:11:40 2025, MaxMem=  3758096384 cpu:               0.0 elap:               0.0
 (Enter /apps/easybuild-2022/easybuild/software/Compiler/NVHPC/22.11-CUDA-11.7.0/Gaussian/g16c01-CUDA-11.7.0/g16/l1002.exe)
 Minotr:  Closed shell wavefunction.
 Leave Link 1002 at Sun May 25 05:11:40 2025, MaxMem=  3758096384 cpu:               0.0 elap:               0.0
 (Enter /apps/easybuild-2022/easybuild/software/Compiler/NVHPC/22.11-CUDA-11.7.0/Gaussian/g16c01-CUDA-11.7.0/g16/l701.exe)
 ... and contract with generalized density number  0.
 Compute integral first derivatives.
   1 Symmetry operations used in ECPInt.
 ECPInt:  NShTT=    4753 NPrTT=   15592 LenC2=    4511 LenP2D=   11249.
 LDataN:  DoStor=T MaxTD1= 7 Len=  274
 Leave Link  701 at Sun May 25 05:11:40 2025, MaxMem=  3758096384 cpu:               0.5 elap:               0.1
 (Enter /apps/easybuild-2022/easybuild/software/Compiler/NVHPC/22.11-CUDA-11.7.0/Gaussian/g16c01-CUDA-11.7.0/g16/l702.exe)
 L702 exits ... SP integral derivatives will be done elsewhere.
 Leave Link  702 at Sun May 25 05:11:40 2025, MaxMem=  3758096384 cpu:               0.0 elap:               0.0
 (Enter /apps/easybuild-2022/easybuild/software/Compiler/NVHPC/22.11-CUDA-11.7.0/Gaussian/g16c01-CUDA-11.7.0/g16/l703.exe)
 Integral derivatives from FoFJK, PRISM(SPDF).
 Compute integral first derivatives, UseDBF=F ICtDFT=           0.
 Calling FoFJK, ICntrl=      2127 FMM=F ISym2X=0 I1Cent= 0 IOpClX= 0 NMat=1 NMatS=1 NMatT=0.
 FoFJK:  IHMeth= 1 ICntrl=    2127 DoSepK=F KAlg= 0 I1Cent=           0 FoldK=F
 IRaf=         0 NMat=       1 IRICut=       1 DoRegI=T DoRafI=F ISym2E= 0 IDoP0=0 IntGTp=1.
 FoFCou: FMM=F IPFlag=           0 FMFlag=      100000 FMFlg1=         800
         NFxFlg=           0 DoJE=F BraDBF=F KetDBF=F FulRan=T
         wScrn=  0.000000 ICntrl=      2127 IOpCl=  0 I1Cent=           0 NGrid=           0
         NMat0=    1 NMatS0=      1 NMatT0=    0 NMatD0=    1 NMtDS0=    0 NMtDT0=    0
 Symmetry not used in FoFCou.
 Leave Link  703 at Sun May 25 05:11:46 2025, MaxMem=  3758096384 cpu:              40.5 elap:               5.2
 (Enter /apps/easybuild-2022/easybuild/software/Compiler/NVHPC/22.11-CUDA-11.7.0/Gaussian/g16c01-CUDA-11.7.0/g16/l716.exe)
 Dipole        =-1.10947460D+00 2.65110489D-01 9.15414138D-01
 Polarizability= 0.00000000D+00 0.00000000D+00 0.00000000D+00
                 0.00000000D+00 0.00000000D+00 0.00000000D+00
 -------------------------------------------------------------------
 Center     Atomic                   Forces (Hartrees/Bohr)
 Number     Number              X              Y              Z
 -------------------------------------------------------------------
      1        6           0.000029347   -0.002647250    0.001708777
      2        9           0.004546250   -0.005879675    0.010488342
      3        9           0.006118882   -0.009356169    0.004198583
      4        9          -0.009332052    0.001011578   -0.005654102
      5       16          -0.000806593    0.010001807   -0.003935143
      6        8           0.002615166   -0.000433364   -0.002001537
      7        8          -0.006191906    0.004868999   -0.005352537
      8        8           0.003078678    0.002240234    0.000852122
      9        1          -0.000057773    0.000193840   -0.000304506
 -------------------------------------------------------------------
 Cartesian Forces:  Max     0.010488342 RMS     0.004985599
 Leave Link  716 at Sun May 25 05:11:46 2025, MaxMem=  3758096384 cpu:               0.0 elap:               0.0
 (Enter /apps/easybuild-2022/easybuild/software/Compiler/NVHPC/22.11-CUDA-11.7.0/Gaussian/g16c01-CUDA-11.7.0/g16/l123.exe)
 IRC-IRC-IRC-IRC-IRC-IRC-IRC-IRC-IRC-IRC-IRC-IRC-IRC-IRC-IRC-IRC-IRC-IRC
 Pt100 Step number   1 out of a maximum of  20
 Using modified Bulirsch-Stoer corrector integration.
   Using distance weighted interpolants to fit PES.
 PreDWI: IReCr0= 2 IReCr1= 1 IReCr2= 1 IReCr3= 1
 Modified Bulirsch-Stoer Extrapolation Cycles:
    EPS =    0.000010000000000
    Cycle     1 NS=    48
      PEZero:  N= 2 I= 1 D=  4.16D-04 Err=  7.66D-06
    Cycle     2 NS=    64 Truncation Error =  0.000007657
 BS completed in    2 cycles and     112 integration steps.
 Maximum DWI energy   std dev =  0.000000012 at pt    47
 Maximum DWI gradient std dev =  0.001422060 at pt    29
 SUMMARY OF CORRECTOR INTEGRATION:
   Predictor End Point Energy =  -962.135526
   Old End Point Energy       =  -962.135526
   Corrected End Point Energy =  -962.135526
   Predictor End-Start Dist.  =     0.079841
   Old End-Start Dist.        =     0.079841
   New End-Start Dist.        =     0.079838
   New End-Old End Dist.      =     0.000127
 CORRECTOR INTEGRATION CONVERGENCE:
   Recorrection delta-x convergence threshold:    0.010000
   Delta-x Convergence Met
 Point Number: 100          Path Number:   1
                    CURRENT STRUCTURE
                Cartesian Coordinates (Ang):                
 ---------------------------------------------------------------------
 Center     Atomic                     Coordinates (Angstroms)
 Number     Number                        X           Y           Z
 ---------------------------------------------------------------------
      1          6                    0.773376   -0.620401    0.681990
      2          9                    1.359399   -1.719686    0.259133
      3          9                    0.549556   -0.637655    1.990412
      4          9                    1.620588    0.389280    0.469749
      5         16                   -0.867668    0.929971   -0.538790
      6          8                   -2.323748    0.416604   -0.969980
      7          8                   -0.100241    1.053997   -1.733937
      8          8                   -0.430059   -0.553577    0.052582
      9          1                   -2.921897    0.430635   -0.210377
 ---------------------------------------------------------------------
   CHANGE IN THE REACTION COORDINATE =    0.07984
   NET REACTION COORDINATE UP TO THIS POINT =    7.98391
  # OF POINTS ALONG THE PATH = 100
  # OF STEPS =   1

 Maximum number of steps reached.
 Calculation of REVERSE path complete.
 Reaction path calculation complete.
 
 Energies reported relative to the TS energy of        -961.921346
 --------------------------------------------------------------------------
    Summary of reaction path following
 --------------------------------------------------------------------------
                        Energy    RxCoord
   1                   -0.21418  -7.98391
   2                   -0.21370  -7.90407
   3                   -0.21318  -7.82423
   4                   -0.21264  -7.74439
   5                   -0.21207  -7.66456
   6                   -0.21147  -7.58472
   7                   -0.21083  -7.50488
   8                   -0.21016  -7.42505
   9                   -0.20945  -7.34521
  10                   -0.20871  -7.26538
  11                   -0.20794  -7.18554
  12                   -0.20712  -7.10571
  13                   -0.20626  -7.02588
  14                   -0.20536  -6.94605
  15                   -0.20442  -6.86621
  16                   -0.20342  -6.78638
  17                   -0.20238  -6.70655
  18                   -0.20128  -6.62672
  19                   -0.20013  -6.54689
  20                   -0.19892  -6.46706
  21                   -0.19764  -6.38723
  22                   -0.19630  -6.30739
  23                   -0.19490  -6.22756
  24                   -0.19342  -6.14773
  25                   -0.19187  -6.06789
  26                   -0.19026  -5.98805
  27                   -0.18856  -5.90822
  28                   -0.18680  -5.82838
  29                   -0.18495  -5.74854
  30                   -0.18304  -5.66870
  31                   -0.18105  -5.58886
  32                   -0.17899  -5.50902
  33                   -0.17686  -5.42918
  34                   -0.17467  -5.34934
  35                   -0.17240  -5.26950
  36                   -0.17008  -5.18966
  37                   -0.16769  -5.10982
  38                   -0.16524  -5.02998
  39                   -0.16274  -4.95014
  40                   -0.16018  -4.87030
  41                   -0.15756  -4.79046
  42                   -0.15490  -4.71061
  43                   -0.15219  -4.63077
  44                   -0.14944  -4.55093
  45                   -0.14664  -4.47109
  46                   -0.14380  -4.39125
  47                   -0.14092  -4.31141
  48                   -0.13800  -4.23157
  49                   -0.13505  -4.15172
  50                   -0.13206  -4.07188
  51                   -0.12905  -3.99204
  52                   -0.12600  -3.91220
  53                   -0.12293  -3.83236
  54                   -0.11983  -3.75252
  55                   -0.11671  -3.67268
  56                   -0.11357  -3.59283
  57                   -0.11041  -3.51299
  58                   -0.10722  -3.43315
  59                   -0.10403  -3.35331
  60                   -0.10081  -3.27347
  61                   -0.09758  -3.19363
  62                   -0.09434  -3.11379
  63                   -0.09109  -3.03394
  64                   -0.08783  -2.95410
  65                   -0.08457  -2.87426
  66                   -0.08130  -2.79442
  67                   -0.07802  -2.71458
  68                   -0.07475  -2.63474
  69                   -0.07148  -2.55490
  70                   -0.06822  -2.47506
  71                   -0.06496  -2.39522
  72                   -0.06172  -2.31537
  73                   -0.05849  -2.23553
  74                   -0.05528  -2.15569
  75                   -0.05210  -2.07585
  76                   -0.04895  -1.99601
  77                   -0.04582  -1.91617
  78                   -0.04274  -1.83633
  79                   -0.03970  -1.75649
  80                   -0.03671  -1.67665
  81                   -0.03378  -1.59680
  82                   -0.03091  -1.51696
  83                   -0.02812  -1.43712
  84                   -0.02540  -1.35728
  85                   -0.02278  -1.27744
  86                   -0.02025  -1.19760
  87                   -0.01782  -1.11776
  88                   -0.01552  -1.03792
  89                   -0.01334  -0.95808
  90                   -0.01130  -0.87824
  91                   -0.00940  -0.79840
  92                   -0.00766  -0.71856
  93                   -0.00609  -0.63872
  94                   -0.00468  -0.55888
  95                   -0.00345  -0.47904
  96                   -0.00240  -0.39920
  97                   -0.00154  -0.31936
  98                   -0.00086  -0.23952
  99                   -0.00038  -0.15969
 100                   -0.00010  -0.07986
 101                    0.00000   0.00000
 --------------------------------------------------------------------------
 
 Total number of points:                  100
 Total number of gradient calculations:   100
 Total number of Hessian calculations:      0
 IRC-IRC-IRC-IRC-IRC-IRC-IRC-IRC-IRC-IRC-IRC-IRC-IRC-IRC-IRC-IRC-IRC-IRC
 Leave Link  123 at Sun May 25 05:11:46 2025, MaxMem=  3758096384 cpu:               0.0 elap:               0.0
 (Enter /apps/easybuild-2022/easybuild/software/Compiler/NVHPC/22.11-CUDA-11.7.0/Gaussian/g16c01-CUDA-11.7.0/g16/l202.exe)
                          Input orientation:                          
 ---------------------------------------------------------------------
 Center     Atomic      Atomic             Coordinates (Angstroms)
 Number     Number       Type             X           Y           Z
 ---------------------------------------------------------------------
      1          6           0        0.773377   -0.620399    0.681989
      2          9           0        1.359398   -1.719689    0.259133
      3          9           0        0.549555   -0.637656    1.990414
      4          9           0        1.620589    0.389282    0.469749
      5         16           0       -0.867667    0.929967   -0.538791
      6          8           0       -2.323748    0.416603   -0.969980
      7          8           0       -0.100243    1.053996   -1.733933
      8          8           0       -0.430058   -0.553567    0.052576
      9          1           0       -2.921911    0.430661   -0.210390
 ---------------------------------------------------------------------
                    Distance matrix (angstroms):
                    1          2          3          4          5
     1  C    0.000000
     2  F    1.315548   0.000000
     3  F    1.327543   2.196355   0.000000
     4  F    1.335017   2.135495   2.124650   0.000000
     5  S    2.566508   3.552067   3.295882   2.738780   0.000000
     6  O    3.660131   4.431707   4.258083   4.198972   1.603009
     7  O    3.066511   3.714323   4.141822   2.873904   1.425724
     8  O    1.359736   2.145847   2.173000   2.295245   1.655926
     9  H    3.944138   4.813945   4.246872   4.593323   2.139410
                    6          7          8          9
     6  O    0.000000
     7  O    2.435954   0.000000
     8  O    2.360702   2.425831   0.000000
     9  H    0.966940   3.266733   2.692060   0.000000
 Symmetry turned off by external request.
 Stoichiometry    CHF3O3S
 Rotational constants (GHZ):           3.4771105           1.2270188           1.1231266
 Leave Link  202 at Sun May 25 05:11:46 2025, MaxMem=  3758096384 cpu:               0.0 elap:               0.0
 (Enter /apps/easybuild-2022/easybuild/software/Compiler/NVHPC/22.11-CUDA-11.7.0/Gaussian/g16c01-CUDA-11.7.0/g16/l9999.exe)

 This type of calculation cannot be archived.


 A HARD FALL SHOULD MEAN A HIGH BOUNCE 
 IF ONE IS MADE OF THE RIGHT MATERIAL.

                -- THE CHEMIST ANALYST, MARCH 1950
 Job cpu time:       0 days  3 hours  2 minutes  2.7 seconds.
 Elapsed time:       0 days  0 hours 32 minutes 10.5 seconds.
 File lengths (MBytes):  RWF=     39 Int=      0 D2E=      0 Chk=      8 Scr=      1
 Normal termination of Gaussian 16 at Sun May 25 05:11:46 2025.
done
