 Entering Gaussian System, Link 0=g16
 Initial command:
 /apps/easybuild-2022/easybuild/software/Compiler/NVHPC/22.11-CUDA-11.7.0/Gaussian/g16c01-CUDA-11.7.0/g16/l1.exe "/tmp/Gau-104082.inp" -scrdir="/tmp/"
 Entering Link 1 = /apps/easybuild-2022/easybuild/software/Compiler/NVHPC/22.11-CUDA-11.7.0/Gaussian/g16c01-CUDA-11.7.0/g16/l1.exe PID=    104083.
  
 Copyright (c) 1988-2019, Gaussian, Inc.  All Rights Reserved.
  
 This is part of the Gaussian(R) 16 program.  It is based on
 the Gaussian(R) 09 system (copyright 2009, Gaussian, Inc.),
 the Gaussian(R) 03 system (copyright 2003, Gaussian, Inc.),
 the Gaussian(R) 98 system (copyright 1998, Gaussian, Inc.),
 the Gaussian(R) 94 system (copyright 1995, Gaussian, Inc.),
 the Gaussian 92(TM) system (copyright 1992, Gaussian, Inc.),
 the Gaussian 90(TM) system (copyright 1990, Gaussian, Inc.),
 the Gaussian 88(TM) system (copyright 1988, Gaussian, Inc.),
 the Gaussian 86(TM) system (copyright 1986, Carnegie Mellon
 University), and the Gaussian 82(TM) system (copyright 1983,
 Carnegie Mellon University). Gaussian is a federally registered
 trademark of Gaussian, Inc.
  
 This software contains proprietary and confidential information,
 including trade secrets, belonging to Gaussian, Inc.
  
 This software is provided under written license and may be
 used, copied, transmitted, or stored only in accord with that
 written license.
  
 The following legend is applicable only to US Government
 contracts under FAR:
  
                    RESTRICTED RIGHTS LEGEND
  
 Use, reproduction and disclosure by the US Government is
 subject to restrictions as set forth in subparagraphs (a)
 and (c) of the Commercial Computer Software - Restricted
 Rights clause in FAR 52.227-19.
  
 Gaussian, Inc.
 340 Quinnipiac St., Bldg. 40, Wallingford CT 06492
  
  
 ---------------------------------------------------------------
 Warning -- This program may not be used in any manner that
 competes with the business of Gaussian, Inc. or will provide
 assistance to any competitor of Gaussian, Inc.  The licensee
 of this program is prohibited from giving any competitor of
 Gaussian, Inc. access to this program.  By using this program,
 the user acknowledges that Gaussian, Inc. is engaged in the
 business of creating and licensing software in the field of
 computational chemistry and represents and warrants to the
 licensee that it is not a competitor of Gaussian, Inc. and that
 it will not use this program in any manner prohibited above.
 ---------------------------------------------------------------
  

 Cite this work as:
 Gaussian 16, Revision C.01,
 M. J. Frisch, G. W. Trucks, H. B. Schlegel, G. E. Scuseria, 
 M. A. Robb, J. R. Cheeseman, G. Scalmani, V. Barone, 
 G. A. Petersson, H. Nakatsuji, X. Li, M. Caricato, A. V. Marenich, 
 J. Bloino, B. G. Janesko, R. Gomperts, B. Mennucci, H. P. Hratchian, 
 J. V. Ortiz, A. F. Izmaylov, J. L. Sonnenberg, D. Williams-Young, 
 F. Ding, F. Lipparini, F. Egidi, J. Goings, B. Peng, A. Petrone, 
 T. Henderson, D. Ranasinghe, V. G. Zakrzewski, J. Gao, N. Rega, 
 G. Zheng, W. Liang, M. Hada, M. Ehara, K. Toyota, R. Fukuda, 
 J. Hasegawa, M. Ishida, T. Nakajima, Y. Honda, O. Kitao, H. Nakai, 
 T. Vreven, K. Throssell, J. A. Montgomery, Jr., J. E. Peralta, 
 F. Ogliaro, M. J. Bearpark, J. J. Heyd, E. N. Brothers, K. N. Kudin, 
 V. N. Staroverov, T. A. Keith, R. Kobayashi, J. Normand, 
 K. Raghavachari, A. P. Rendell, J. C. Burant, S. S. Iyengar, 
 J. Tomasi, M. Cossi, J. M. Millam, M. Klene, C. Adamo, R. Cammi, 
 J. W. Ochterski, R. L. Martin, K. Morokuma, O. Farkas, 
 J. B. Foresman, and D. J. Fox, Gaussian, Inc., Wallingford CT, 2019.
 
 ******************************************
 Gaussian 16:  ES64L-G16RevC.01  3-Jul-2019
                25-May-2025 
 ******************************************
 %mem=28GB
 %chk=1502984803620600000001_Intra_Diels_alder_R_6_7_IRC_R
 %nprocshared=8
 Will use up to    8 processors via shared memory.
 ----------------------------------------------------------------------
 #P M062X/Def2TZVPP Symm(None) scf(xqc) pop(None) geom(AllCheck,NoKeepC
 onstants) guess(Read) irc(RCFC,reverse,MaxPoints=100,StepSize=2)
 ----------------------------------------------------------------------
 1/10=5,18=10,22=2,26=3,29=20007,38=1,39=2,42=100,44=3,172=1/1,23;
 2/12=2,15=3,29=1,40=1/2;
 3/5=44,7=202,11=2,14=-4,25=1,30=1,71=2,74=-55,116=-2,140=1/1,2,3;
 4/5=1/1;
 5/5=2,8=3,13=1,38=6/2,8;
 8/6=4,10=90,11=11/1;
 11/6=1,8=1,9=11,15=111,16=1,31=1/1,2,10;
 10/6=1,13=1,31=1/2;
 7/10=1,25=1,30=1/1,2,3,16;
 1/18=10,22=2,26=3,39=2,42=100,44=3/23(2);
 2/15=3,29=1/2;
 99/5=20/99;
 2/15=3,29=1/2;
 3/5=44,7=202,11=2,14=-2,25=1,30=1,71=2,74=-55,140=1/1,2,3;
 4/5=5,16=3,69=1/1;
 5/5=2,8=3,13=1,38=5/2,8;
 8/6=4,10=90,11=11/1;
 11/6=1,8=1,9=11,15=111,16=1,31=1/1,2,10;
 10/6=1,13=1,31=1/2;
 7/10=1,25=1,30=1/1,2,3,16;
 1/18=10,22=2,26=3,39=2,42=100,44=3/23(-8);
 2/15=3,29=1/2;
 99/5=20,9=1/99;
 Leave Link    1 at Sun May 25 04:04:18 2025, MaxMem=  3758096384 cpu:               0.0 elap:               0.0
 (Enter /apps/easybuild-2022/easybuild/software/Compiler/NVHPC/22.11-CUDA-11.7.0/Gaussian/g16c01-CUDA-11.7.0/g16/l101.exe)
 Structure from the checkpoint file:  "1502984803620600000001_Intra_Diels_alder_R_6_7_IRC_R.chk"
 ------------------------------
 Gaussian input prepared by ASE
 ------------------------------
 Charge =  0 Multiplicity = 1
 No Z-Matrix found in chk file; cartesian coordinates used.
  C                                                -0.957568315846     -0.137448381476      0.029930208822
  F                                                -1.520365417333      1.017673089504     -0.287677652128
  F                                                -1.356875584411     -0.501950535509      1.229770619859
  F                                                -1.321966609759     -1.048882675147     -0.851405418938
  S                                                 0.911127737252      0.015649934040      0.019201691498
  O                                                 1.386287274406     -0.836793122899     -1.011415774043
  O                                                 1.334242576437     -0.066880872605      1.363484234974
  O                                                 1.089689844832      1.510426325710     -0.432717196211
  H                                                 1.184827928512      1.561761541202     -1.394352114322
 Recover connectivity data from disk.
 ITRead=  0  0  0  0  0  0  0  0  0
 MicOpt= -1 -1 -1 -1 -1 -1 -1 -1 -1
 NAtoms=      9 NQM=        9 NQMF=       0 NMMI=      0 NMMIF=      0
                NMic=       0 NMicF=      0.
                    Isotopes and Nuclear Properties:
 (Nuclear quadrupole moments (NQMom) in fm**2, nuclear magnetic moments (NMagM)
  in nuclear magnetons)

  Atom         1           2           3           4           5           6           7           8           9
 IAtWgt=          12          19          19          19          32          16          16          16           1
 AtmWgt=  12.0000000  18.9984032  18.9984032  18.9984032  31.9720718  15.9949146  15.9949146  15.9949146   1.0078250
 NucSpn=           0           1           1           1           0           0           0           0           1
 AtZEff=   3.6000000   6.7500000   6.7500000   6.7500000  13.6000000   5.6000000   5.6000000   5.6000000   1.0000000
 NQMom=    0.0000000   0.0000000   0.0000000   0.0000000   0.0000000   0.0000000   0.0000000   0.0000000   0.0000000
 NMagM=    0.0000000   2.6288670   2.6288670   2.6288670   0.0000000   0.0000000   0.0000000   0.0000000   2.7928460
 AtZNuc=   6.0000000   9.0000000   9.0000000   9.0000000  16.0000000   8.0000000   8.0000000   8.0000000   1.0000000
 Leave Link  101 at Sun May 25 04:04:19 2025, MaxMem=  3758096384 cpu:               0.1 elap:               0.1
 (Enter /apps/easybuild-2022/easybuild/software/Compiler/NVHPC/22.11-CUDA-11.7.0/Gaussian/g16c01-CUDA-11.7.0/g16/l123.exe)
 IRC-IRC-IRC-IRC-IRC-IRC-IRC-IRC-IRC-IRC-IRC-IRC-IRC-IRC-IRC-IRC-IRC-IRC
 ------------------------------------------------------------------------
 INPUT DATA FOR L123
 ------------------------------------------------------------------------
 GENERAL PARAMETERS:
 Rxn path following direction = Reverse
 Maximum points per path      = 100
 Step size                    =   0.020 bohr
 Integration scheme           = HPC                                 
    Redo corrector integration= Yes                                 
    DWI Weight Power          =  2
    DWI will use Hessian update vectors when possible.
    Max correction cycles     =  20
 Initial Hessian              = ReadFC from chk
 Hessian evaluation           = All updating
 Hessian updating method      = Bofill                              
 ------------------------------------------------------------------------
          ******** Start new reaction path calculation ********
 RCFC Option Requested - Data Read From Chk File:
 "1502984803620600000001_Intra_Diels_alder_R_6_7_IRC_R.chk"
   Energy From Chk =   -962.1207656

 Current Structure is TS -> form Hessian eigenvectors.
                            Diagonalizing Hessian.
 Supplied step size of   0.0200 bohr.
    Integration on MW PES will use step size of   0.0724 sqrt(amu)*bohr.
 Point Number:   0          Path Number:   1
 Calculating another point on the path.
 Point Number  1 in REVERSE path direction.
 Using LQA Reaction Path Following.
 IRC-IRC-IRC-IRC-IRC-IRC-IRC-IRC-IRC-IRC-IRC-IRC-IRC-IRC-IRC-IRC-IRC-IRC
 Leave Link  123 at Sun May 25 04:04:19 2025, MaxMem=  3758096384 cpu:               0.0 elap:               0.0
 (Enter /apps/easybuild-2022/easybuild/software/Compiler/NVHPC/22.11-CUDA-11.7.0/Gaussian/g16c01-CUDA-11.7.0/g16/l202.exe)
                          Input orientation:                          
 ---------------------------------------------------------------------
 Center     Atomic      Atomic             Coordinates (Angstroms)
 Number     Number       Type             X           Y           Z
 ---------------------------------------------------------------------
      1          6           0       -0.957565   -0.137399    0.029948
      2          9           0       -1.520475    1.018632   -0.284035
      3          9           0       -1.356450   -0.505475    1.228868
      4          9           0       -1.322233   -1.046266   -0.853966
      5         16           0        0.911098    0.015725    0.019401
      6          8           0        1.386810   -0.839321   -1.008826
      7          8           0        1.333623   -0.063339    1.364097
      8          8           0        1.089698    1.509355   -0.436363
      9          1           0        1.186398    1.558008   -1.397998
 ---------------------------------------------------------------------
                    Distance matrix (angstroms):
                    1          2          3          4          5
     1  C    0.000000
     2  F    1.323579   0.000000
     3  F    1.316054   2.153759   0.000000
     4  F    1.319215   2.151261   2.152167   0.000000
     5  S    1.874955   2.647724   2.622257   2.622663   0.000000
     6  O    2.658541   3.525566   3.555869   2.721345   1.419386
     7  O    2.652353   3.468844   2.729517   3.597154   1.411731
     8  O    2.668431   2.660266   3.579968   3.538785   1.571798
     9  H    3.083830   2.976407   4.198149   3.656698   2.112687
                    6          7          8          9
     6  O    0.000000
     7  O    2.497147   0.000000
     8  O    2.435625   2.403023   0.000000
     9  H    2.436967   3.206183   0.967709   0.000000
 Symmetry turned off by external request.
 Stoichiometry    CHF3O3S
 Rotational constants (GHZ):           2.6901822           1.5541562           1.5435223
 Leave Link  202 at Sun May 25 04:04:19 2025, MaxMem=  3758096384 cpu:               0.0 elap:               0.0
 (Enter /apps/easybuild-2022/easybuild/software/Compiler/NVHPC/22.11-CUDA-11.7.0/Gaussian/g16c01-CUDA-11.7.0/g16/l301.exe)
 Standard basis: def2TZVPP (5D, 7F)
 Ernie: Thresh=  0.10000D-02 Tol=  0.10000D-05 Strict=F.
   273 basis functions,   443 primitive gaussians,   315 cartesian basis functions
    37 alpha electrons       37 beta electrons
       nuclear repulsion energy       570.9961349734 Hartrees.
 IExCor= 4336 DFT=T Ex+Corr=M062X ExCW=0 ScaHFX=  0.540000
 ScaDFX=  1.000000  1.000000  1.000000  1.000000 ScalE2=  1.000000  1.000000
 IRadAn=      5 IRanWt=     -1 IRanGd=            0 ICorTp=0 IEmpDi=  4
 NAtoms=    9 NActive=    9 NUniq=    9 SFac= 1.00D+00 NAtFMM=   60 NAOKFM=F Big=F
 Integral buffers will be    131072 words long.
 Raffenetti 2 integral format.
 Two-electron integral symmetry is turned off.
 Leave Link  301 at Sun May 25 04:04:19 2025, MaxMem=  3758096384 cpu:               0.0 elap:               0.0
 (Enter /apps/easybuild-2022/easybuild/software/Compiler/NVHPC/22.11-CUDA-11.7.0/Gaussian/g16c01-CUDA-11.7.0/g16/l302.exe)
 NPDir=0 NMtPBC=     1 NCelOv=     1 NCel=       1 NClECP=     1 NCelD=      1
         NCelK=      1 NCelE2=     1 NClLst=     1 CellRange=     0.0.
 One-electron integrals computed using PRISM.
   1 Symmetry operations used in ECPInt.
 ECPInt:  NShTT=    4753 NPrTT=   15592 LenC2=    4587 LenP2D=   11533.
 LDataN:  DoStor=T MaxTD1= 6 Len=  172
 NBasis=   273 RedAO= T EigKep=  8.00D-04  NBF=   273
 NBsUse=   273 1.00D-06 EigRej= -1.00D+00 NBFU=   273
 Precomputing XC quadrature grid using
 IXCGrd= 4 IRadAn=           5 IRanWt=          -1 IRanGd=           0 AccXCQ= 0.00D+00.
 Generated NRdTot=       0 NPtTot=           0 NUsed=           0 NTot=          32
 NSgBfM=   311   311   311   311   311 MxSgAt=     9 MxSgA2=     9.
 Leave Link  302 at Sun May 25 04:04:19 2025, MaxMem=  3758096384 cpu:               0.7 elap:               0.1
 (Enter /apps/easybuild-2022/easybuild/software/Compiler/NVHPC/22.11-CUDA-11.7.0/Gaussian/g16c01-CUDA-11.7.0/g16/l303.exe)
 DipDrv:  MaxL=1.
 Leave Link  303 at Sun May 25 04:04:19 2025, MaxMem=  3758096384 cpu:               0.1 elap:               0.0
 (Enter /apps/easybuild-2022/easybuild/software/Compiler/NVHPC/22.11-CUDA-11.7.0/Gaussian/g16c01-CUDA-11.7.0/g16/l401.exe)
 Initial guess from the checkpoint file:  "1502984803620600000001_Intra_Diels_alder_R_6_7_IRC_R.chk"
 B after Tr=     0.000021   -0.000054   -0.000055
         Rot=    1.000000    0.000064    0.000004    0.000009 Ang=   0.01 deg.
 Guess basis will be translated and rotated to current coordinates.
 JPrj=2 DoOrth=T DoCkMO=T.
 Leave Link  401 at Sun May 25 04:04:19 2025, MaxMem=  3758096384 cpu:               0.3 elap:               0.1
 (Enter /apps/easybuild-2022/easybuild/software/Compiler/NVHPC/22.11-CUDA-11.7.0/Gaussian/g16c01-CUDA-11.7.0/g16/l502.exe)
 Keep R1 ints in memory in canonical form, NReq=715214082.
 FoFCou: FMM=F IPFlag=           0 FMFlag=           0 FMFlg1=           0
         NFxFlg=           0 DoJE=F BraDBF=F KetDBF=F FulRan=T
         wScrn=  0.000000 ICntrl=       600 IOpCl=  0 I1Cent=           0 NGrid=           0
         NMat0=    1 NMatS0=  37401 NMatT0=    0 NMatD0=    1 NMtDS0=    0 NMtDT0=    0
 Symmetry not used in FoFCou.
 Two-electron integral symmetry not used.
 Closed shell SCF:
 Using DIIS extrapolation, IDIIS=  1040.
 NGot=  3758096384 LenX=  3058457086 LenY=  3058357420
 Requested convergence on RMS density matrix=1.00D-08 within  32 cycles.
 Requested convergence on MAX density matrix=1.00D-06.
 Requested convergence on             energy=1.00D-06.
 No special actions if energy rises.

 Cycle   1  Pass 1  IDiag  1:
 E= -962.120743217114    
 DIIS: error= 2.14D-04 at cycle   1 NSaved=   1.
 NSaved= 1 IEnMin= 1 EnMin= -962.120743217114     IErMin= 1 ErrMin= 2.14D-04
 ErrMax= 2.14D-04  0.00D+00 EMaxC= 1.00D-01 BMatC= 2.05D-05 BMatP= 2.05D-05
 IDIUse=3 WtCom= 9.98D-01 WtEn= 2.14D-03
 Coeff-Com:  0.100D+01
 Coeff-En:   0.100D+01
 Coeff:      0.100D+01
 Gap=     0.452 Goal=   None    Shift=    0.000
 RMSDP=1.43D-05 MaxDP=3.32D-04              OVMax= 1.03D-03

 Cycle   2  Pass 1  IDiag  1:
 E= -962.120765782786     Delta-E=       -0.000022565672 Rises=F Damp=F
 DIIS: error= 2.69D-05 at cycle   2 NSaved=   2.
 NSaved= 2 IEnMin= 2 EnMin= -962.120765782786     IErMin= 2 ErrMin= 2.69D-05
 ErrMax= 2.69D-05  0.00D+00 EMaxC= 1.00D-01 BMatC= 5.26D-07 BMatP= 2.05D-05
 IDIUse=1 WtCom= 1.00D+00 WtEn= 0.00D+00
 Coeff-Com: -0.136D+00 0.114D+01
 Coeff:     -0.136D+00 0.114D+01
 Gap=     0.452 Goal=   None    Shift=    0.000
 RMSDP=3.27D-06 MaxDP=7.81D-05 DE=-2.26D-05 OVMax= 2.47D-04

 Cycle   3  Pass 1  IDiag  1:
 E= -962.120766680724     Delta-E=       -0.000000897938 Rises=F Damp=F
 DIIS: error= 6.95D-06 at cycle   3 NSaved=   3.
 NSaved= 3 IEnMin= 3 EnMin= -962.120766680724     IErMin= 3 ErrMin= 6.95D-06
 ErrMax= 6.95D-06  0.00D+00 EMaxC= 1.00D-01 BMatC= 3.41D-08 BMatP= 5.26D-07
 IDIUse=1 WtCom= 1.00D+00 WtEn= 0.00D+00
 Coeff-Com: -0.260D-01 0.141D+00 0.884D+00
 Coeff:     -0.260D-01 0.141D+00 0.884D+00
 Gap=     0.452 Goal=   None    Shift=    0.000
 RMSDP=8.02D-07 MaxDP=2.41D-05 DE=-8.98D-07 OVMax= 7.42D-05

 Cycle   4  Pass 1  IDiag  1:
 E= -962.120766688278     Delta-E=       -0.000000007554 Rises=F Damp=F
 DIIS: error= 7.04D-06 at cycle   4 NSaved=   4.
 NSaved= 4 IEnMin= 4 EnMin= -962.120766688278     IErMin= 3 ErrMin= 6.95D-06
 ErrMax= 7.04D-06  0.00D+00 EMaxC= 1.00D-01 BMatC= 3.91D-08 BMatP= 3.41D-08
 IDIUse=1 WtCom= 1.00D+00 WtEn= 0.00D+00
 Coeff-Com:  0.181D-02-0.634D-01 0.546D+00 0.516D+00
 Coeff:      0.181D-02-0.634D-01 0.546D+00 0.516D+00
 Gap=     0.452 Goal=   None    Shift=    0.000
 RMSDP=4.00D-07 MaxDP=1.48D-05 DE=-7.55D-09 OVMax= 4.23D-05

 Cycle   5  Pass 1  IDiag  1:
 E= -962.120766715017     Delta-E=       -0.000000026739 Rises=F Damp=F
 DIIS: error= 1.09D-06 at cycle   5 NSaved=   5.
 NSaved= 5 IEnMin= 5 EnMin= -962.120766715017     IErMin= 5 ErrMin= 1.09D-06
 ErrMax= 1.09D-06  0.00D+00 EMaxC= 1.00D-01 BMatC= 6.45D-10 BMatP= 3.41D-08
 IDIUse=1 WtCom= 1.00D+00 WtEn= 0.00D+00
 Coeff-Com:  0.222D-02-0.343D-01 0.151D+00 0.183D+00 0.698D+00
 Coeff:      0.222D-02-0.343D-01 0.151D+00 0.183D+00 0.698D+00
 Gap=     0.452 Goal=   None    Shift=    0.000
 RMSDP=6.73D-08 MaxDP=3.49D-06 DE=-2.67D-08 OVMax= 4.96D-06

 Cycle   6  Pass 1  IDiag  1:
 E= -962.120766715494     Delta-E=       -0.000000000477 Rises=F Damp=F
 DIIS: error= 3.13D-07 at cycle   6 NSaved=   6.
 NSaved= 6 IEnMin= 6 EnMin= -962.120766715494     IErMin= 6 ErrMin= 3.13D-07
 ErrMax= 3.13D-07  0.00D+00 EMaxC= 1.00D-01 BMatC= 9.10D-11 BMatP= 6.45D-10
 IDIUse=1 WtCom= 1.00D+00 WtEn= 0.00D+00
 Coeff-Com:  0.725D-03-0.700D-02-0.363D-02 0.119D-01 0.265D+00 0.733D+00
 Coeff:      0.725D-03-0.700D-02-0.363D-02 0.119D-01 0.265D+00 0.733D+00
 Gap=     0.452 Goal=   None    Shift=    0.000
 RMSDP=2.76D-08 MaxDP=1.44D-06 DE=-4.77D-10 OVMax= 2.11D-06

 Cycle   7  Pass 1  IDiag  1:
 E= -962.120766715547     Delta-E=       -0.000000000053 Rises=F Damp=F
 DIIS: error= 1.15D-07 at cycle   7 NSaved=   7.
 NSaved= 7 IEnMin= 7 EnMin= -962.120766715547     IErMin= 7 ErrMin= 1.15D-07
 ErrMax= 1.15D-07  0.00D+00 EMaxC= 1.00D-01 BMatC= 1.23D-11 BMatP= 9.10D-11
 IDIUse=1 WtCom= 1.00D+00 WtEn= 0.00D+00
 Coeff-Com: -0.117D-03 0.333D-02-0.256D-01-0.258D-01-0.267D-01 0.274D+00
 Coeff-Com:  0.801D+00
 Coeff:     -0.117D-03 0.333D-02-0.256D-01-0.258D-01-0.267D-01 0.274D+00
 Coeff:      0.801D+00
 Gap=     0.452 Goal=   None    Shift=    0.000
 RMSDP=1.05D-08 MaxDP=3.61D-07 DE=-5.28D-11 OVMax= 8.79D-07

 Cycle   8  Pass 1  IDiag  1:
 E= -962.120766715565     Delta-E=       -0.000000000019 Rises=F Damp=F
 DIIS: error= 2.79D-08 at cycle   8 NSaved=   8.
 NSaved= 8 IEnMin= 8 EnMin= -962.120766715565     IErMin= 8 ErrMin= 2.79D-08
 ErrMax= 2.79D-08  0.00D+00 EMaxC= 1.00D-01 BMatC= 5.31D-13 BMatP= 1.23D-11
 IDIUse=1 WtCom= 1.00D+00 WtEn= 0.00D+00
 Coeff-Com: -0.714D-04 0.135D-02-0.695D-02-0.780D-02-0.192D-01 0.444D-01
 Coeff-Com:  0.238D+00 0.750D+00
 Coeff:     -0.714D-04 0.135D-02-0.695D-02-0.780D-02-0.192D-01 0.444D-01
 Coeff:      0.238D+00 0.750D+00
 Gap=     0.452 Goal=   None    Shift=    0.000
 RMSDP=2.24D-09 MaxDP=9.92D-08 DE=-1.86D-11 OVMax= 1.83D-07

 SCF Done:  E(RM062X) =  -962.120766716     A.U. after    8 cycles
            NFock=  8  Conv=0.22D-08     -V/T= 2.0027
 KE= 9.595582620686D+02 PE=-3.424020806544D+03 EE= 9.313456427868D+02
 Leave Link  502 at Sun May 25 04:04:29 2025, MaxMem=  3758096384 cpu:              56.5 elap:              10.5
 (Enter /apps/easybuild-2022/easybuild/software/Compiler/NVHPC/22.11-CUDA-11.7.0/Gaussian/g16c01-CUDA-11.7.0/g16/l508.exe)
 QCSCF skips out because SCF is already converged.
 Leave Link  508 at Sun May 25 04:04:29 2025, MaxMem=  3758096384 cpu:               0.0 elap:               0.0
 (Enter /apps/easybuild-2022/easybuild/software/Compiler/NVHPC/22.11-CUDA-11.7.0/Gaussian/g16c01-CUDA-11.7.0/g16/l801.exe)
 DoSCS=F DFT=T ScalE2(SS,OS)=  1.000000  1.000000
 Range of M.O.s used for correlation:     1   273
 NBasis=   273 NAE=    37 NBE=    37 NFC=     0 NFV=     0
 NROrb=    273 NOA=    37 NOB=    37 NVA=   236 NVB=   236

 **** Warning!!: The largest alpha MO coefficient is  0.10334221D+02

 Leave Link  801 at Sun May 25 04:04:29 2025, MaxMem=  3758096384 cpu:               0.0 elap:               0.0
 (Enter /apps/easybuild-2022/easybuild/software/Compiler/NVHPC/22.11-CUDA-11.7.0/Gaussian/g16c01-CUDA-11.7.0/g16/l1101.exe)
 Leave Link 1101 at Sun May 25 04:04:30 2025, MaxMem=  3758096384 cpu:               0.0 elap:               0.0
 (Enter /apps/easybuild-2022/easybuild/software/Compiler/NVHPC/22.11-CUDA-11.7.0/Gaussian/g16c01-CUDA-11.7.0/g16/l1102.exe)
 Symmetrizing basis deriv contribution to polar:
 IMax=3 JMax=2 DiffMx= 0.00D+00
 Leave Link 1102 at Sun May 25 04:04:30 2025, MaxMem=  3758096384 cpu:               0.1 elap:               0.0
 (Enter /apps/easybuild-2022/easybuild/software/Compiler/NVHPC/22.11-CUDA-11.7.0/Gaussian/g16c01-CUDA-11.7.0/g16/l1110.exe)
 Leave Link 1110 at Sun May 25 04:04:30 2025, MaxMem=  3758096384 cpu:               0.0 elap:               0.0
 (Enter /apps/easybuild-2022/easybuild/software/Compiler/NVHPC/22.11-CUDA-11.7.0/Gaussian/g16c01-CUDA-11.7.0/g16/l1002.exe)
 Minotr:  Closed shell wavefunction.
 Leave Link 1002 at Sun May 25 04:04:30 2025, MaxMem=  3758096384 cpu:               0.0 elap:               0.0
 (Enter /apps/easybuild-2022/easybuild/software/Compiler/NVHPC/22.11-CUDA-11.7.0/Gaussian/g16c01-CUDA-11.7.0/g16/l701.exe)
 ... and contract with generalized density number  0.
 Compute integral first derivatives.
   1 Symmetry operations used in ECPInt.
 ECPInt:  NShTT=    4753 NPrTT=   15592 LenC2=    4587 LenP2D=   11533.
 LDataN:  DoStor=T MaxTD1= 7 Len=  274
 Leave Link  701 at Sun May 25 04:04:30 2025, MaxMem=  3758096384 cpu:               0.5 elap:               0.1
 (Enter /apps/easybuild-2022/easybuild/software/Compiler/NVHPC/22.11-CUDA-11.7.0/Gaussian/g16c01-CUDA-11.7.0/g16/l702.exe)
 L702 exits ... SP integral derivatives will be done elsewhere.
 Leave Link  702 at Sun May 25 04:04:30 2025, MaxMem=  3758096384 cpu:               0.0 elap:               0.0
 (Enter /apps/easybuild-2022/easybuild/software/Compiler/NVHPC/22.11-CUDA-11.7.0/Gaussian/g16c01-CUDA-11.7.0/g16/l703.exe)
 Integral derivatives from FoFJK, PRISM(SPDF).
 Compute integral first derivatives, UseDBF=F ICtDFT=           0.
 Calling FoFJK, ICntrl=      2127 FMM=F ISym2X=0 I1Cent= 0 IOpClX= 0 NMat=1 NMatS=1 NMatT=0.
 FoFJK:  IHMeth= 1 ICntrl=    2127 DoSepK=F KAlg= 0 I1Cent=           0 FoldK=F
 IRaf=         0 NMat=       1 IRICut=       1 DoRegI=T DoRafI=F ISym2E= 0 IDoP0=0 IntGTp=1.
 FoFCou: FMM=F IPFlag=           0 FMFlag=      100000 FMFlg1=         800
         NFxFlg=           0 DoJE=F BraDBF=F KetDBF=F FulRan=T
         wScrn=  0.000000 ICntrl=      2127 IOpCl=  0 I1Cent=           0 NGrid=           0
         NMat0=    1 NMatS0=      1 NMatT0=    0 NMatD0=    1 NMtDS0=    0 NMtDT0=    0
 Symmetry not used in FoFCou.
 Leave Link  703 at Sun May 25 04:04:35 2025, MaxMem=  3758096384 cpu:              42.3 elap:               5.4
 (Enter /apps/easybuild-2022/easybuild/software/Compiler/NVHPC/22.11-CUDA-11.7.0/Gaussian/g16c01-CUDA-11.7.0/g16/l716.exe)
 Dipole        =-2.92736724D-01 7.13949507D-01-8.32362120D-01
 Polarizability= 0.00000000D+00 0.00000000D+00 0.00000000D+00
                 0.00000000D+00 0.00000000D+00 0.00000000D+00
 -------------------------------------------------------------------
 Center     Atomic                   Forces (Hartrees/Bohr)
 Number     Number              X              Y              Z
 -------------------------------------------------------------------
      1        6          -0.000007579   -0.000001352    0.000000970
      2        9           0.000002092   -0.000009867    0.000027870
      3        9           0.000007008   -0.000021519   -0.000019845
      4        9           0.000003334    0.000024684   -0.000006541
      5       16           0.000010603    0.000000347    0.000005921
      6        8           0.000000441   -0.000013003    0.000047127
      7        8          -0.000012166    0.000046218   -0.000013617
      8        8          -0.000002411   -0.000021043   -0.000054605
      9        1          -0.000001322   -0.000004465    0.000012721
 -------------------------------------------------------------------
 Cartesian Forces:  Max     0.000054605 RMS     0.000020302
 Leave Link  716 at Sun May 25 04:04:35 2025, MaxMem=  3758096384 cpu:               0.0 elap:               0.0
 (Enter /apps/easybuild-2022/easybuild/software/Compiler/NVHPC/22.11-CUDA-11.7.0/Gaussian/g16c01-CUDA-11.7.0/g16/l123.exe)
 IRC-IRC-IRC-IRC-IRC-IRC-IRC-IRC-IRC-IRC-IRC-IRC-IRC-IRC-IRC-IRC-IRC-IRC
 Pt  1 Step number   1 out of a maximum of  20
 Using modified Bulirsch-Stoer corrector integration.
   Using distance weighted interpolants to fit PES.
 PreDWI: IReCr0= 2 IReCr1= 1 IReCr2= 1 IReCr3= 1
 Modified Bulirsch-Stoer Extrapolation Cycles:
    EPS =    0.000010000000000
    Cycle     1 NS=    48
      PEZero:  N= 2 I= 1 D=  1.89D-04 Err=  1.69D-03
    Cycle     2 NS=    64 Truncation Error =  0.001693531
      PEZero:  N= 3 I= 2 D=  1.89D-04 Err=  2.83D-03
      PEZero:  N= 3 I= 1 D=  3.77D-04 Err=  2.55D-03
    Cycle     3 NS=    96 Truncation Error =  0.002554656
      PEZero:  N= 4 I= 3 D=  9.43D-05 Err=  4.57D-03
      PEZero:  N= 4 I= 2 D=  2.83D-04 Err=  3.26D-03
      PEZero:  N= 4 I= 1 D=  4.72D-04 Err=  2.38D-03
    Cycle     4 NS=   128 Truncation Error =  0.002377304
      PEZero:  N= 5 I= 4 D=  9.43D-05 Err=  6.00D-03
      PEZero:  N= 5 I= 3 D=  1.89D-04 Err=  4.43D-03
      PEZero:  N= 5 I= 2 D=  3.77D-04 Err=  2.80D-03
      PEZero:  N= 5 I= 1 D=  5.66D-04 Err=  2.01D-03
    Cycle     5 NS=   192 Truncation Error =  0.002009336
      PEZero:  N= 6 I= 5 D=  4.72D-05 Err=  8.32D-03
      PEZero:  N= 6 I= 4 D=  1.41D-04 Err=  5.09D-03
      PEZero:  N= 6 I= 3 D=  2.36D-04 Err=  3.46D-03
      PEZero:  N= 6 I= 2 D=  4.24D-04 Err=  2.14D-03
      PEZero:  N= 6 I= 1 D=  6.13D-04 Err=  1.52D-03
    Cycle     6 NS=   256 Truncation Error =  0.001515315
      PEZero:  N= 7 I= 6 D=  4.72D-05 Err=  7.76D-03
      PEZero:  N= 7 I= 5 D=  9.43D-05 Err=  3.32D-03
      PEZero:  N= 7 I= 4 D=  1.89D-04 Err=  7.70D-04
      PEZero:  N= 7 I= 3 D=  2.83D-04 Err=  7.06D-04
      PEZero:  N= 7 I= 2 D=  4.72D-04 Err=  8.30D-04
    Cycle     7 NS=   384 Truncation Error =  0.000706253
      PEZero:  N= 8 I= 7 D=  2.36D-05 Err=  4.99D-05
      PEZero:  N= 8 I= 6 D=  7.07D-05 Err=  7.69D-03
    Cycle     8 NS=   512 Truncation Error =  0.000049884
      PEZero:  N= 9 I= 8 D=  2.36D-05 Err=  2.32D-05
      PEZero:  N= 9 I= 7 D=  4.72D-05 Err=  4.12D-05
    Cycle     9 NS=   768 Truncation Error =  0.000023171
      PEZero:  N=10 I= 9 D=  1.18D-05 Err=  1.73D-05
      PEZero:  N=10 I= 8 D=  3.54D-05 Err=  9.94D-08
      PEZero:  N=10 I= 7 D=  5.90D-05 Err=  1.99D-03
    Cycle    10 NS=  1024 Truncation Error =  0.000000099
 BS completed in   10 cycles and    3472 integration steps.
 Maximum DWI energy   std dev =  0.000000406 at pt    62
 Maximum DWI gradient std dev =  1.549418017 at pt     3
 SUMMARY OF CORRECTOR INTEGRATION:
   Predictor End Point Energy =  -962.120767
   Old End Point Energy       =  -962.120767
   Corrected End Point Energy =  -962.120767
   Predictor End-Start Dist.  =     0.072447
   Old End-Start Dist.        =     0.072447
   New End-Start Dist.        =     0.072204
   New End-Old End Dist.      =     0.005420
 CORRECTOR INTEGRATION CONVERGENCE:
   Recorrection delta-x convergence threshold:    0.010000
   Delta-x Convergence Met
 Point Number:   1          Path Number:   1
                    CURRENT STRUCTURE
                Cartesian Coordinates (Ang):                
 ---------------------------------------------------------------------
 Center     Atomic                     Coordinates (Angstroms)
 Number     Number                        X           Y           Z
 ---------------------------------------------------------------------
      1          6                   -0.957555   -0.137435    0.029953
      2          9                   -1.520502    1.018490   -0.284294
      3          9                   -1.356458   -0.505262    1.228927
      4          9                   -1.322164   -1.046500   -0.853764
      5         16                    0.911095    0.015766    0.019418
      6          8                    1.386866   -0.839435   -1.008634
      7          8                    1.333598   -0.063030    1.364123
      8          8                    1.089634    1.509305   -0.436616
      9          1                    1.186322    1.557782   -1.398247
 ---------------------------------------------------------------------
   CHANGE IN THE REACTION COORDINATE =    0.07220
   NET REACTION COORDINATE UP TO THIS POINT =    0.07220
  # OF POINTS ALONG THE PATH =   1
  # OF STEPS =   1

 PES minimum detected on this side of the pathway.
    Magnitude of the gradient =      0.0000218
 Calculation of REVERSE path complete.
 Reaction path calculation complete.
 
 Energies reported relative to the TS energy of        -962.120766
 --------------------------------------------------------------------------
    Summary of reaction path following
 --------------------------------------------------------------------------
                        Energy    RxCoord
   1                   -0.00000  -0.07220
   2                    0.00000   0.00000
 --------------------------------------------------------------------------
 
 Total number of points:                    1
 Total number of gradient calculations:     1
 Total number of Hessian calculations:      0
 IRC-IRC-IRC-IRC-IRC-IRC-IRC-IRC-IRC-IRC-IRC-IRC-IRC-IRC-IRC-IRC-IRC-IRC
 Leave Link  123 at Sun May 25 04:04:35 2025, MaxMem=  3758096384 cpu:               0.7 elap:               0.1
 (Enter /apps/easybuild-2022/easybuild/software/Compiler/NVHPC/22.11-CUDA-11.7.0/Gaussian/g16c01-CUDA-11.7.0/g16/l202.exe)
                          Input orientation:                          
 ---------------------------------------------------------------------
 Center     Atomic      Atomic             Coordinates (Angstroms)
 Number     Number       Type             X           Y           Z
 ---------------------------------------------------------------------
      1          6           0       -0.957565   -0.137399    0.029948
      2          9           0       -1.520475    1.018632   -0.284035
      3          9           0       -1.356450   -0.505475    1.228868
      4          9           0       -1.322233   -1.046266   -0.853966
      5         16           0        0.911098    0.015725    0.019401
      6          8           0        1.386810   -0.839321   -1.008826
      7          8           0        1.333623   -0.063339    1.364097
      8          8           0        1.089698    1.509355   -0.436363
      9          1           0        1.186398    1.558008   -1.397998
 ---------------------------------------------------------------------
                    Distance matrix (angstroms):
                    1          2          3          4          5
     1  C    0.000000
     2  F    1.323579   0.000000
     3  F    1.316054   2.153759   0.000000
     4  F    1.319215   2.151261   2.152167   0.000000
     5  S    1.874955   2.647724   2.622257   2.622663   0.000000
     6  O    2.658541   3.525566   3.555869   2.721345   1.419386
     7  O    2.652353   3.468844   2.729517   3.597154   1.411731
     8  O    2.668431   2.660266   3.579968   3.538785   1.571798
     9  H    3.083830   2.976407   4.198149   3.656698   2.112687
                    6          7          8          9
     6  O    0.000000
     7  O    2.497147   0.000000
     8  O    2.435625   2.403023   0.000000
     9  H    2.436967   3.206183   0.967709   0.000000
 Symmetry turned off by external request.
 Stoichiometry    CHF3O3S
 Rotational constants (GHZ):           2.6901822           1.5541562           1.5435223
 Leave Link  202 at Sun May 25 04:04:35 2025, MaxMem=  3758096384 cpu:               0.0 elap:               0.0
 (Enter /apps/easybuild-2022/easybuild/software/Compiler/NVHPC/22.11-CUDA-11.7.0/Gaussian/g16c01-CUDA-11.7.0/g16/l9999.exe)

 This type of calculation cannot be archived.


 THERE IS SOMETHING FASCINATING ABOUT SCIENCE.
 ONE GETS SUCH WHOLESALE CONJECTURE OUT OF SUCH TRIFLING INVESTMENTS.

                                                       -- MARK TWAIN
 Job cpu time:       0 days  0 hours  1 minutes 41.7 seconds.
 Elapsed time:       0 days  0 hours  0 minutes 16.8 seconds.
 File lengths (MBytes):  RWF=     34 Int=      0 D2E=      0 Chk=      8 Scr=      1
 Normal termination of Gaussian 16 at Sun May 25 04:04:35 2025.
done
