 Entering Gaussian System, Link 0=g16
 Initial command:
 /apps/easybuild-2022/easybuild/software/Compiler/NVHPC/22.11-CUDA-11.7.0/Gaussian/g16c01-CUDA-11.7.0/g16/l1.exe "/tmp/Gau-273222.inp" -scrdir="/tmp/"
 Entering Link 1 = /apps/easybuild-2022/easybuild/software/Compiler/NVHPC/22.11-CUDA-11.7.0/Gaussian/g16c01-CUDA-11.7.0/g16/l1.exe PID=    273223.
  
 Copyright (c) 1988-2019, Gaussian, Inc.  All Rights Reserved.
  
 This is part of the Gaussian(R) 16 program.  It is based on
 the Gaussian(R) 09 system (copyright 2009, Gaussian, Inc.),
 the Gaussian(R) 03 system (copyright 2003, Gaussian, Inc.),
 the Gaussian(R) 98 system (copyright 1998, Gaussian, Inc.),
 the Gaussian(R) 94 system (copyright 1995, Gaussian, Inc.),
 the Gaussian 92(TM) system (copyright 1992, Gaussian, Inc.),
 the Gaussian 90(TM) system (copyright 1990, Gaussian, Inc.),
 the Gaussian 88(TM) system (copyright 1988, Gaussian, Inc.),
 the Gaussian 86(TM) system (copyright 1986, Carnegie Mellon
 University), and the Gaussian 82(TM) system (copyright 1983,
 Carnegie Mellon University). Gaussian is a federally registered
 trademark of Gaussian, Inc.
  
 This software contains proprietary and confidential information,
 including trade secrets, belonging to Gaussian, Inc.
  
 This software is provided under written license and may be
 used, copied, transmitted, or stored only in accord with that
 written license.
  
 The following legend is applicable only to US Government
 contracts under FAR:
  
                    RESTRICTED RIGHTS LEGEND
  
 Use, reproduction and disclosure by the US Government is
 subject to restrictions as set forth in subparagraphs (a)
 and (c) of the Commercial Computer Software - Restricted
 Rights clause in FAR 52.227-19.
  
 Gaussian, Inc.
 340 Quinnipiac St., Bldg. 40, Wallingford CT 06492
  
  
 ---------------------------------------------------------------
 Warning -- This program may not be used in any manner that
 competes with the business of Gaussian, Inc. or will provide
 assistance to any competitor of Gaussian, Inc.  The licensee
 of this program is prohibited from giving any competitor of
 Gaussian, Inc. access to this program.  By using this program,
 the user acknowledges that Gaussian, Inc. is engaged in the
 business of creating and licensing software in the field of
 computational chemistry and represents and warrants to the
 licensee that it is not a competitor of Gaussian, Inc. and that
 it will not use this program in any manner prohibited above.
 ---------------------------------------------------------------
  

 Cite this work as:
 Gaussian 16, Revision C.01,
 M. J. Frisch, G. W. Trucks, H. B. Schlegel, G. E. Scuseria, 
 M. A. Robb, J. R. Cheeseman, G. Scalmani, V. Barone, 
 G. A. Petersson, H. Nakatsuji, X. Li, M. Caricato, A. V. Marenich, 
 J. Bloino, B. G. Janesko, R. Gomperts, B. Mennucci, H. P. Hratchian, 
 J. V. Ortiz, A. F. Izmaylov, J. L. Sonnenberg, D. Williams-Young, 
 F. Ding, F. Lipparini, F. Egidi, J. Goings, B. Peng, A. Petrone, 
 T. Henderson, D. Ranasinghe, V. G. Zakrzewski, J. Gao, N. Rega, 
 G. Zheng, W. Liang, M. Hada, M. Ehara, K. Toyota, R. Fukuda, 
 J. Hasegawa, M. Ishida, T. Nakajima, Y. Honda, O. Kitao, H. Nakai, 
 T. Vreven, K. Throssell, J. A. Montgomery, Jr., J. E. Peralta, 
 F. Ogliaro, M. J. Bearpark, J. J. Heyd, E. N. Brothers, K. N. Kudin, 
 V. N. Staroverov, T. A. Keith, R. Kobayashi, J. Normand, 
 K. Raghavachari, A. P. Rendell, J. C. Burant, S. S. Iyengar, 
 J. Tomasi, M. Cossi, J. M. Millam, M. Klene, C. Adamo, R. Cammi, 
 J. W. Ochterski, R. L. Martin, K. Morokuma, O. Farkas, 
 J. B. Foresman, and D. J. Fox, Gaussian, Inc., Wallingford CT, 2019.
 
 ******************************************
 Gaussian 16:  ES64L-G16RevC.01  3-Jul-2019
                25-May-2025 
 ******************************************
 %mem=28GB
 %chk=1502984803620600000001_r12_insertion_R_6_5_7_IRC_R_prod
 %nprocshared=8
 Will use up to    8 processors via shared memory.
 -----------------------------------------------------------------
 #P M062X/Def2TZVPP Symm(None) scf(xqc) pop(None) freq opt(CalcFC)
 -----------------------------------------------------------------
 1/10=4,18=20,19=15,26=3,38=1/1,3;
 2/9=110,12=2,15=3,17=6,18=5,40=1/2;
 3/5=44,7=202,11=2,25=1,30=1,71=2,74=-55,140=1/1,2,3;
 4//1;
 5/5=2,8=3,13=1,38=5/2,8;
 8/6=4,10=90,11=11/1;
 11/6=1,8=1,9=11,15=111,16=1,31=1/1,2,10;
 10/6=1,13=1,31=1/2;
 7/10=1,25=1,30=1/1,2,3,16;
 1/10=4,18=20,19=15,26=3/3(2);
 2/9=110,15=3/2;
 99//99;
 2/9=110,15=3/2;
 3/5=44,7=202,11=2,25=1,30=1,71=1,74=-55/1,2,3;
 4/5=5,16=3,69=1/1;
 5/5=2,8=3,13=1,38=5/2,8;
 7/30=1/1,2,3,16;
 1/18=20,19=15,26=3/3(-5);
 2/9=110,15=3/2;
 99/9=1/99;
 Leave Link    1 at Sun May 25 04:27:02 2025, MaxMem=  3758096384 cpu:               0.1 elap:               0.1
 (Enter /apps/easybuild-2022/easybuild/software/Compiler/NVHPC/22.11-CUDA-11.7.0/Gaussian/g16c01-CUDA-11.7.0/g16/l101.exe)
 ------------------------------
 Gaussian input prepared by ASE
 ------------------------------
 Symbolic Z-matrix:
 Charge =  0 Multiplicity = 1
 C                    -1.04084  -0.09384   0.16306 
 F                    -1.88868   0.50334  -0.67036 
 F                    -1.13536   0.47141   1.35382 
 F                    -1.38776  -1.37617   0.26864 
 S                     0.69385  -0.05527  -0.59318 
 O                     1.38894  -0.78948   0.59217 
 O                     2.44812  -0.19084  -0.27761 
 O                     0.69536   1.52201  -0.34883 
 H                     1.5882    1.85248  -0.51674 
 
 ITRead=  0  0  0  0  0  0  0  0  0
 MicOpt= -1 -1 -1 -1 -1 -1 -1 -1 -1
 NAtoms=      9 NQM=        9 NQMF=       0 NMMI=      0 NMMIF=      0
                NMic=       0 NMicF=      0.
                    Isotopes and Nuclear Properties:
 (Nuclear quadrupole moments (NQMom) in fm**2, nuclear magnetic moments (NMagM)
  in nuclear magnetons)

  Atom         1           2           3           4           5           6           7           8           9
 IAtWgt=          12          19          19          19          32          16          16          16           1
 AtmWgt=  12.0000000  18.9984032  18.9984032  18.9984032  31.9720718  15.9949146  15.9949146  15.9949146   1.0078250
 NucSpn=           0           1           1           1           0           0           0           0           1
 AtZEff=  -0.0000000  -0.0000000  -0.0000000  -0.0000000  -0.0000000  -0.0000000  -0.0000000  -0.0000000  -0.0000000
 NQMom=    0.0000000   0.0000000   0.0000000   0.0000000   0.0000000   0.0000000   0.0000000   0.0000000   0.0000000
 NMagM=    0.0000000   2.6288670   2.6288670   2.6288670   0.0000000   0.0000000   0.0000000   0.0000000   2.7928460
 AtZNuc=   6.0000000   9.0000000   9.0000000   9.0000000  16.0000000   8.0000000   8.0000000   8.0000000   1.0000000
 Leave Link  101 at Sun May 25 04:27:02 2025, MaxMem=  3758096384 cpu:               0.2 elap:               0.2
 (Enter /apps/easybuild-2022/easybuild/software/Compiler/NVHPC/22.11-CUDA-11.7.0/Gaussian/g16c01-CUDA-11.7.0/g16/l103.exe)

 GradGradGradGradGradGradGradGradGradGradGradGradGradGradGradGradGradGrad
 Berny optimization.
 Initialization pass.
                           ----------------------------
                           !    Initial Parameters    !
                           ! (Angstroms and Degrees)  !
 --------------------------                            --------------------------
 ! Name  Definition              Value          Derivative Info.                !
 --------------------------------------------------------------------------------
 ! R1    R(1,2)                  1.3304         calculate D2E/DX2 analytically  !
 ! R2    R(1,3)                  1.3215         calculate D2E/DX2 analytically  !
 ! R3    R(1,4)                  1.3326         calculate D2E/DX2 analytically  !
 ! R4    R(1,5)                  1.8928         calculate D2E/DX2 analytically  !
 ! R5    R(5,6)                  1.558          calculate D2E/DX2 analytically  !
 ! R6    R(5,7)                  1.7876         calculate D2E/DX2 analytically  !
 ! R7    R(5,8)                  1.5961         calculate D2E/DX2 analytically  !
 ! R8    R(6,7)                  1.4956         calculate D2E/DX2 analytically  !
 ! R9    R(8,9)                  0.9667         calculate D2E/DX2 analytically  !
 ! A1    A(2,1,3)              109.0794         calculate D2E/DX2 analytically  !
 ! A2    A(2,1,4)              108.4004         calculate D2E/DX2 analytically  !
 ! A3    A(2,1,5)              108.9428         calculate D2E/DX2 analytically  !
 ! A4    A(3,1,4)              108.7586         calculate D2E/DX2 analytically  !
 ! A5    A(3,1,5)              114.6361         calculate D2E/DX2 analytically  !
 ! A6    A(4,1,5)              106.8488         calculate D2E/DX2 analytically  !
 ! A7    A(1,5,6)               95.469          calculate D2E/DX2 analytically  !
 ! A8    A(1,5,7)              145.826          calculate D2E/DX2 analytically  !
 ! A9    A(1,5,8)               87.698          calculate D2E/DX2 analytically  !
 ! A10   A(6,5,8)              110.4145         calculate D2E/DX2 analytically  !
 ! A11   A(7,5,8)               92.6934         calculate D2E/DX2 analytically  !
 ! A12   A(5,8,9)              108.1851         calculate D2E/DX2 analytically  !
 ! D1    D(2,1,5,6)            179.5962         calculate D2E/DX2 analytically  !
 ! D2    D(2,1,5,7)            160.7071         calculate D2E/DX2 analytically  !
 ! D3    D(2,1,5,8)             69.3021         calculate D2E/DX2 analytically  !
 ! D4    D(3,1,5,6)             57.0759         calculate D2E/DX2 analytically  !
 ! D5    D(3,1,5,7)             38.1868         calculate D2E/DX2 analytically  !
 ! D6    D(3,1,5,8)            -53.2182         calculate D2E/DX2 analytically  !
 ! D7    D(4,1,5,6)            -63.4907         calculate D2E/DX2 analytically  !
 ! D8    D(4,1,5,7)            -82.3799         calculate D2E/DX2 analytically  !
 ! D9    D(4,1,5,8)           -173.7848         calculate D2E/DX2 analytically  !
 ! D10   D(1,5,8,9)            170.1656         calculate D2E/DX2 analytically  !
 ! D11   D(6,5,8,9)             75.1852         calculate D2E/DX2 analytically  !
 ! D12   D(7,5,8,9)             24.371          calculate D2E/DX2 analytically  !
 --------------------------------------------------------------------------------
 Trust Radius=3.00D-01 FncErr=1.00D-07 GrdErr=1.00D-06 EigMax=2.50D+02 EigMin=1.00D-04
 Number of steps in this run=     43 maximum allowed number of steps=    100.
 GradGradGradGradGradGradGradGradGradGradGradGradGradGradGradGradGradGrad

 Leave Link  103 at Sun May 25 04:27:02 2025, MaxMem=  3758096384 cpu:               0.1 elap:               0.0
 (Enter /apps/easybuild-2022/easybuild/software/Compiler/NVHPC/22.11-CUDA-11.7.0/Gaussian/g16c01-CUDA-11.7.0/g16/l202.exe)
                          Input orientation:                          
 ---------------------------------------------------------------------
 Center     Atomic      Atomic             Coordinates (Angstroms)
 Number     Number       Type             X           Y           Z
 ---------------------------------------------------------------------
      1          6           0       -1.040838   -0.093836    0.163056
      2          9           0       -1.888682    0.503343   -0.670359
      3          9           0       -1.135362    0.471413    1.353820
      4          9           0       -1.387755   -1.376169    0.268636
      5         16           0        0.693851   -0.055271   -0.593176
      6          8           0        1.388935   -0.789480    0.592166
      7          8           0        2.448117   -0.190838   -0.277608
      8          8           0        0.695358    1.522012   -0.348826
      9          1           0        1.588201    1.852475   -0.516737
 ---------------------------------------------------------------------
                    Distance matrix (angstroms):
                    1          2          3          4          5
     1  C    0.000000
     2  F    1.330430   0.000000
     3  F    1.321499   2.160049   0.000000
     4  F    1.332620   2.159909   2.157518   0.000000
     5  S    1.892755   2.643385   2.722905   2.611623   0.000000
     6  O    2.563563   3.742744   2.922677   2.856376   1.557960
     7  O    3.518011   4.409531   3.992675   4.051827   1.787571
     8  O    2.426389   2.796128   2.711881   3.622164   1.596099
     9  H    3.340972   3.732623   3.581077   4.460635   2.108364
                    6          7          8          9
     6  O    0.000000
     7  O    1.495575   0.000000
     8  O    2.590272   2.451753   0.000000
     9  H    2.872159   2.229746   0.966731   0.000000
 Symmetry turned off by external request.
 Stoichiometry    CHF3O3S
 Rotational constants (GHZ):           3.2049831           1.4299115           1.2614837
 Leave Link  202 at Sun May 25 04:27:02 2025, MaxMem=  3758096384 cpu:               0.1 elap:               0.0
 (Enter /apps/easybuild-2022/easybuild/software/Compiler/NVHPC/22.11-CUDA-11.7.0/Gaussian/g16c01-CUDA-11.7.0/g16/l301.exe)
 Standard basis: def2TZVPP (5D, 7F)
 Ernie: Thresh=  0.10000D-02 Tol=  0.10000D-05 Strict=F.
   273 basis functions,   443 primitive gaussians,   315 cartesian basis functions
    37 alpha electrons       37 beta electrons
       nuclear repulsion energy       556.5950334055 Hartrees.
 IExCor= 4336 DFT=T Ex+Corr=M062X ExCW=0 ScaHFX=  0.540000
 ScaDFX=  1.000000  1.000000  1.000000  1.000000 ScalE2=  1.000000  1.000000
 IRadAn=      5 IRanWt=     -1 IRanGd=            0 ICorTp=0 IEmpDi=  4
 NAtoms=    9 NActive=    9 NUniq=    9 SFac= 1.00D+00 NAtFMM=   60 NAOKFM=F Big=F
 Integral buffers will be    131072 words long.
 Raffenetti 2 integral format.
 Two-electron integral symmetry is turned off.
 Leave Link  301 at Sun May 25 04:27:02 2025, MaxMem=  3758096384 cpu:               0.1 elap:               0.1
 (Enter /apps/easybuild-2022/easybuild/software/Compiler/NVHPC/22.11-CUDA-11.7.0/Gaussian/g16c01-CUDA-11.7.0/g16/l302.exe)
 NPDir=0 NMtPBC=     1 NCelOv=     1 NCel=       1 NClECP=     1 NCelD=      1
         NCelK=      1 NCelE2=     1 NClLst=     1 CellRange=     0.0.
 One-electron integrals computed using PRISM.
   1 Symmetry operations used in ECPInt.
 ECPInt:  NShTT=    4753 NPrTT=   15592 LenC2=    4565 LenP2D=   11454.
 LDataN:  DoStor=T MaxTD1= 6 Len=  172
 NBasis=   273 RedAO= T EigKep=  1.56D-03  NBF=   273
 NBsUse=   273 1.00D-06 EigRej= -1.00D+00 NBFU=   273
 Precomputing XC quadrature grid using
 IXCGrd= 4 IRadAn=           5 IRanWt=          -1 IRanGd=           0 AccXCQ= 0.00D+00.
 Generated NRdTot=       0 NPtTot=           0 NUsed=           0 NTot=          32
 NSgBfM=   312   312   312   312   312 MxSgAt=     9 MxSgA2=     9.
 Leave Link  302 at Sun May 25 04:27:03 2025, MaxMem=  3758096384 cpu:               1.3 elap:               0.4
 (Enter /apps/easybuild-2022/easybuild/software/Compiler/NVHPC/22.11-CUDA-11.7.0/Gaussian/g16c01-CUDA-11.7.0/g16/l303.exe)
 DipDrv:  MaxL=1.
 Leave Link  303 at Sun May 25 04:27:03 2025, MaxMem=  3758096384 cpu:               0.1 elap:               0.0
 (Enter /apps/easybuild-2022/easybuild/software/Compiler/NVHPC/22.11-CUDA-11.7.0/Gaussian/g16c01-CUDA-11.7.0/g16/l401.exe)
 ExpMin= 9.52D-02 ExpMax= 6.07D+04 ExpMxC= 2.07D+03 IAcc=3 IRadAn=         5 AccDes= 0.00D+00
 Harris functional with IExCor= 1009 and IRadAn=       5 diagonalized for initial guess.
 HarFok:  IExCor= 1009 AccDes= 0.00D+00 IRadAn=         5 IDoV= 1 UseB2=F ITyADJ=14
 ICtDFT=  3500011 ScaDFX=  1.000000  1.000000  1.000000  1.000000
 FoFCou: FMM=F IPFlag=           0 FMFlag=      100000 FMFlg1=           0
         NFxFlg=           0 DoJE=T BraDBF=F KetDBF=T FulRan=T
         wScrn=  0.000000 ICntrl=       500 IOpCl=  0 I1Cent=   200000004 NGrid=           0
         NMat0=    1 NMatS0=      1 NMatT0=    0 NMatD0=    1 NMtDS0=    0 NMtDT0=    0
 Symmetry not used in FoFCou.
 Harris En= -961.491775088301    
 JPrj=0 DoOrth=F DoCkMO=F.
 Leave Link  401 at Sun May 25 04:27:03 2025, MaxMem=  3758096384 cpu:               2.6 elap:               0.4
 (Enter /apps/easybuild-2022/easybuild/software/Compiler/NVHPC/22.11-CUDA-11.7.0/Gaussian/g16c01-CUDA-11.7.0/g16/l502.exe)
 Keep R1 ints in memory in canonical form, NReq=715214082.
 FoFCou: FMM=F IPFlag=           0 FMFlag=           0 FMFlg1=           0
         NFxFlg=           0 DoJE=F BraDBF=F KetDBF=F FulRan=T
         wScrn=  0.000000 ICntrl=       600 IOpCl=  0 I1Cent=           0 NGrid=           0
         NMat0=    1 NMatS0=  37401 NMatT0=    0 NMatD0=    1 NMtDS0=    0 NMtDT0=    0
 Symmetry not used in FoFCou.
 Two-electron integral symmetry not used.
 Closed shell SCF:
 Using DIIS extrapolation, IDIIS=  1040.
 NGot=  3758096384 LenX=  3058457086 LenY=  3058357420
 Requested convergence on RMS density matrix=1.00D-08 within  32 cycles.
 Requested convergence on MAX density matrix=1.00D-06.
 Requested convergence on             energy=1.00D-06.
 No special actions if energy rises.
 Integral accuracy reduced to 1.0D-05 until final iterations.

 Cycle   1  Pass 0  IDiag  1:
 E= -961.789025888995    
 DIIS: error= 1.93D-02 at cycle   1 NSaved=   1.
 NSaved= 1 IEnMin= 1 EnMin= -961.789025888995     IErMin= 1 ErrMin= 1.93D-02
 ErrMax= 1.93D-02  0.00D+00 EMaxC= 1.00D-01 BMatC= 3.59D-01 BMatP= 3.59D-01
 IDIUse=3 WtCom= 8.07D-01 WtEn= 1.93D-01
 Coeff-Com:  0.100D+01
 Coeff-En:   0.100D+01
 Coeff:      0.100D+01
 Gap=     0.477 Goal=   None    Shift=    0.000
 GapD=    0.477 DampG=2.000 DampE=0.500 DampFc=1.0000 IDamp=-1.
 RMSDP=2.27D-03 MaxDP=1.71D-01              OVMax= 1.85D-01

 Cycle   2  Pass 0  IDiag  1:
 E= -961.678261904359     Delta-E=        0.110763984636 Rises=F Damp=F
 DIIS: error= 2.19D-02 at cycle   2 NSaved=   2.
 NSaved= 2 IEnMin= 1 EnMin= -961.789025888995     IErMin= 1 ErrMin= 1.93D-02
 ErrMax= 2.19D-02  0.00D+00 EMaxC= 1.00D-01 BMatC= 4.32D-01 BMatP= 3.59D-01
 IDIUse=2 WtCom= 0.00D+00 WtEn= 1.00D+00
 Coeff-En:   0.615D+00 0.385D+00
 Coeff:      0.615D+00 0.385D+00
 Gap=     0.394 Goal=   None    Shift=    0.000
 RMSDP=1.17D-03 MaxDP=8.68D-02 DE= 1.11D-01 OVMax= 9.94D-02

 Cycle   3  Pass 0  IDiag  1:
 E= -961.960197413700     Delta-E=       -0.281935509341 Rises=F Damp=F
 DIIS: error= 2.46D-03 at cycle   3 NSaved=   3.
 NSaved= 3 IEnMin= 3 EnMin= -961.960197413700     IErMin= 3 ErrMin= 2.46D-03
 ErrMax= 2.46D-03  0.00D+00 EMaxC= 1.00D-01 BMatC= 5.99D-03 BMatP= 3.59D-01
 IDIUse=3 WtCom= 9.75D-01 WtEn= 2.46D-02
 Coeff-Com:  0.929D-01 0.231D-01 0.884D+00
 Coeff-En:   0.000D+00 0.000D+00 0.100D+01
 Coeff:      0.906D-01 0.226D-01 0.887D+00
 Gap=     0.349 Goal=   None    Shift=    0.000
 RMSDP=2.63D-04 MaxDP=1.37D-02 DE=-2.82D-01 OVMax= 2.31D-02

 Cycle   4  Pass 0  IDiag  1:
 E= -961.958809573516     Delta-E=        0.001387840184 Rises=F Damp=F
 DIIS: error= 3.18D-03 at cycle   4 NSaved=   4.
 NSaved= 4 IEnMin= 3 EnMin= -961.960197413700     IErMin= 3 ErrMin= 2.46D-03
 ErrMax= 3.18D-03  0.00D+00 EMaxC= 1.00D-01 BMatC= 7.31D-03 BMatP= 5.99D-03
 IDIUse=3 WtCom= 1.51D-01 WtEn= 8.49D-01
 Coeff-Com:  0.103D-01-0.315D-01 0.581D+00 0.440D+00
 Coeff-En:   0.000D+00 0.000D+00 0.578D+00 0.422D+00
 Coeff:      0.155D-02-0.474D-02 0.578D+00 0.425D+00
 Gap=     0.354 Goal=   None    Shift=    0.000
 RMSDP=1.67D-04 MaxDP=7.79D-03 DE= 1.39D-03 OVMax= 1.77D-02

 Cycle   5  Pass 0  IDiag  1:
 E= -961.963219270607     Delta-E=       -0.004409697091 Rises=F Damp=F
 DIIS: error= 8.13D-04 at cycle   5 NSaved=   5.
 NSaved= 5 IEnMin= 5 EnMin= -961.963219270607     IErMin= 5 ErrMin= 8.13D-04
 ErrMax= 8.13D-04  0.00D+00 EMaxC= 1.00D-01 BMatC= 7.89D-04 BMatP= 5.99D-03
 IDIUse=3 WtCom= 9.92D-01 WtEn= 8.13D-03
 Coeff-Com: -0.414D-02 0.135D-01 0.140D+00 0.168D+00 0.682D+00
 Coeff-En:   0.000D+00 0.000D+00 0.000D+00 0.000D+00 0.100D+01
 Coeff:     -0.411D-02 0.134D-01 0.139D+00 0.167D+00 0.685D+00
 Gap=     0.352 Goal=   None    Shift=    0.000
 RMSDP=4.95D-05 MaxDP=3.29D-03 DE=-4.41D-03 OVMax= 4.06D-03

 Cycle   6  Pass 0  IDiag  1:
 E= -961.963711423639     Delta-E=       -0.000492153033 Rises=F Damp=F
 DIIS: error= 1.01D-04 at cycle   6 NSaved=   6.
 NSaved= 6 IEnMin= 6 EnMin= -961.963711423639     IErMin= 6 ErrMin= 1.01D-04
 ErrMax= 1.01D-04  0.00D+00 EMaxC= 1.00D-01 BMatC= 7.57D-06 BMatP= 7.89D-04
 IDIUse=3 WtCom= 9.99D-01 WtEn= 1.01D-03
 Coeff-Com: -0.228D-02 0.545D-02 0.185D-01 0.332D-01 0.229D+00 0.716D+00
 Coeff-En:   0.000D+00 0.000D+00 0.000D+00 0.000D+00 0.000D+00 0.100D+01
 Coeff:     -0.227D-02 0.545D-02 0.185D-01 0.332D-01 0.228D+00 0.717D+00
 Gap=     0.352 Goal=   None    Shift=    0.000
 RMSDP=8.54D-06 MaxDP=2.48D-04 DE=-4.92D-04 OVMax= 7.37D-04

 Initial convergence to 1.0D-05 achieved.  Increase integral accuracy.
 Cycle   7  Pass 1  IDiag  1:
 E= -961.963650456760     Delta-E=        0.000060966880 Rises=F Damp=F
 DIIS: error= 3.99D-05 at cycle   1 NSaved=   1.
 NSaved= 1 IEnMin= 1 EnMin= -961.963650456760     IErMin= 1 ErrMin= 3.99D-05
 ErrMax= 3.99D-05  0.00D+00 EMaxC= 1.00D-01 BMatC= 2.11D-06 BMatP= 2.11D-06
 IDIUse=1 WtCom= 1.00D+00 WtEn= 0.00D+00
 Coeff-Com:  0.100D+01
 Coeff:      0.100D+01
 Gap=     0.352 Goal=   None    Shift=    0.000
 RMSDP=8.54D-06 MaxDP=2.48D-04 DE= 6.10D-05 OVMax= 5.14D-04

 Cycle   8  Pass 1  IDiag  1:
 E= -961.963651249071     Delta-E=       -0.000000792311 Rises=F Damp=F
 DIIS: error= 3.95D-05 at cycle   2 NSaved=   2.
 NSaved= 2 IEnMin= 2 EnMin= -961.963651249071     IErMin= 2 ErrMin= 3.95D-05
 ErrMax= 3.95D-05  0.00D+00 EMaxC= 1.00D-01 BMatC= 1.67D-06 BMatP= 2.11D-06
 IDIUse=1 WtCom= 1.00D+00 WtEn= 0.00D+00
 Coeff-Com:  0.465D+00 0.535D+00
 Coeff:      0.465D+00 0.535D+00
 Gap=     0.352 Goal=   None    Shift=    0.000
 RMSDP=3.05D-06 MaxDP=9.66D-05 DE=-7.92D-07 OVMax= 2.75D-04

 Cycle   9  Pass 1  IDiag  1:
 E= -961.963652275919     Delta-E=       -0.000001026849 Rises=F Damp=F
 DIIS: error= 1.10D-05 at cycle   3 NSaved=   3.
 NSaved= 3 IEnMin= 3 EnMin= -961.963652275919     IErMin= 3 ErrMin= 1.10D-05
 ErrMax= 1.10D-05  0.00D+00 EMaxC= 1.00D-01 BMatC= 9.57D-08 BMatP= 1.67D-06
 IDIUse=1 WtCom= 1.00D+00 WtEn= 0.00D+00
 Coeff-Com: -0.308D-01 0.162D+00 0.869D+00
 Coeff:     -0.308D-01 0.162D+00 0.869D+00
 Gap=     0.352 Goal=   None    Shift=    0.000
 RMSDP=1.31D-06 MaxDP=5.43D-05 DE=-1.03D-06 OVMax= 1.01D-04

 Cycle  10  Pass 1  IDiag  1:
 E= -961.963652351881     Delta-E=       -0.000000075962 Rises=F Damp=F
 DIIS: error= 4.18D-06 at cycle   4 NSaved=   4.
 NSaved= 4 IEnMin= 4 EnMin= -961.963652351881     IErMin= 4 ErrMin= 4.18D-06
 ErrMax= 4.18D-06  0.00D+00 EMaxC= 1.00D-01 BMatC= 1.94D-08 BMatP= 9.57D-08
 IDIUse=1 WtCom= 1.00D+00 WtEn= 0.00D+00
 Coeff-Com: -0.386D-01 0.566D-01 0.453D+00 0.529D+00
 Coeff:     -0.386D-01 0.566D-01 0.453D+00 0.529D+00
 Gap=     0.352 Goal=   None    Shift=    0.000
 RMSDP=3.35D-07 MaxDP=1.12D-05 DE=-7.60D-08 OVMax= 3.22D-05

 Cycle  11  Pass 1  IDiag  1:
 E= -961.963652365038     Delta-E=       -0.000000013157 Rises=F Damp=F
 DIIS: error= 2.12D-06 at cycle   5 NSaved=   5.
 NSaved= 5 IEnMin= 5 EnMin= -961.963652365038     IErMin= 5 ErrMin= 2.12D-06
 ErrMax= 2.12D-06  0.00D+00 EMaxC= 1.00D-01 BMatC= 1.81D-09 BMatP= 1.94D-08
 IDIUse=1 WtCom= 1.00D+00 WtEn= 0.00D+00
 Coeff-Com: -0.960D-02-0.592D-02 0.313D-01 0.210D+00 0.775D+00
 Coeff:     -0.960D-02-0.592D-02 0.313D-01 0.210D+00 0.775D+00
 Gap=     0.352 Goal=   None    Shift=    0.000
 RMSDP=1.70D-07 MaxDP=5.92D-06 DE=-1.32D-08 OVMax= 1.83D-05

 Cycle  12  Pass 1  IDiag  1:
 E= -961.963652366706     Delta-E=       -0.000000001668 Rises=F Damp=F
 DIIS: error= 1.03D-06 at cycle   6 NSaved=   6.
 NSaved= 6 IEnMin= 6 EnMin= -961.963652366706     IErMin= 6 ErrMin= 1.03D-06
 ErrMax= 1.03D-06  0.00D+00 EMaxC= 1.00D-01 BMatC= 9.34D-10 BMatP= 1.81D-09
 IDIUse=1 WtCom= 1.00D+00 WtEn= 0.00D+00
 Coeff-Com:  0.238D-02-0.178D-01-0.856D-01 0.917D-02 0.504D+00 0.588D+00
 Coeff:      0.238D-02-0.178D-01-0.856D-01 0.917D-02 0.504D+00 0.588D+00
 Gap=     0.352 Goal=   None    Shift=    0.000
 RMSDP=9.30D-08 MaxDP=2.98D-06 DE=-1.67D-09 OVMax= 1.01D-05

 Cycle  13  Pass 1  IDiag  1:
 E= -961.963652367550     Delta-E=       -0.000000000844 Rises=F Damp=F
 DIIS: error= 2.69D-07 at cycle   7 NSaved=   7.
 NSaved= 7 IEnMin= 7 EnMin= -961.963652367550     IErMin= 7 ErrMin= 2.69D-07
 ErrMax= 2.69D-07  0.00D+00 EMaxC= 1.00D-01 BMatC= 4.99D-11 BMatP= 9.34D-10
 IDIUse=1 WtCom= 1.00D+00 WtEn= 0.00D+00
 Coeff-Com:  0.234D-02-0.665D-02-0.399D-01-0.266D-01 0.993D-01 0.234D+00
 Coeff-Com:  0.737D+00
 Coeff:      0.234D-02-0.665D-02-0.399D-01-0.266D-01 0.993D-01 0.234D+00
 Coeff:      0.737D+00
 Gap=     0.352 Goal=   None    Shift=    0.000
 RMSDP=2.91D-08 MaxDP=1.29D-06 DE=-8.44D-10 OVMax= 3.43D-06

 Cycle  14  Pass 1  IDiag  1:
 E= -961.963652367610     Delta-E=       -0.000000000060 Rises=F Damp=F
 DIIS: error= 7.42D-08 at cycle   8 NSaved=   8.
 NSaved= 8 IEnMin= 8 EnMin= -961.963652367610     IErMin= 8 ErrMin= 7.42D-08
 ErrMax= 7.42D-08  0.00D+00 EMaxC= 1.00D-01 BMatC= 5.32D-12 BMatP= 4.99D-11
 IDIUse=1 WtCom= 1.00D+00 WtEn= 0.00D+00
 Coeff-Com:  0.245D-03 0.563D-03 0.122D-02-0.816D-02-0.442D-01-0.153D-01
 Coeff-Com:  0.204D+00 0.861D+00
 Coeff:      0.245D-03 0.563D-03 0.122D-02-0.816D-02-0.442D-01-0.153D-01
 Coeff:      0.204D+00 0.861D+00
 Gap=     0.352 Goal=   None    Shift=    0.000
 RMSDP=1.57D-08 MaxDP=4.82D-07 DE=-5.96D-11 OVMax= 2.16D-06

 Cycle  15  Pass 1  IDiag  1:
 E= -961.963652367614     Delta-E=       -0.000000000004 Rises=F Damp=F
 DIIS: error= 4.07D-08 at cycle   9 NSaved=   9.
 NSaved= 9 IEnMin= 9 EnMin= -961.963652367614     IErMin= 9 ErrMin= 4.07D-08
 ErrMax= 4.07D-08  0.00D+00 EMaxC= 1.00D-01 BMatC= 1.13D-12 BMatP= 5.32D-12
 IDIUse=1 WtCom= 1.00D+00 WtEn= 0.00D+00
 Coeff-Com: -0.256D-03 0.132D-02 0.702D-02 0.175D-02-0.306D-01-0.403D-01
 Coeff-Com: -0.629D-01 0.292D+00 0.832D+00
 Coeff:     -0.256D-03 0.132D-02 0.702D-02 0.175D-02-0.306D-01-0.403D-01
 Coeff:     -0.629D-01 0.292D+00 0.832D+00
 Gap=     0.352 Goal=   None    Shift=    0.000
 RMSDP=6.61D-09 MaxDP=1.75D-07 DE=-3.87D-12 OVMax= 1.19D-06

 SCF Done:  E(RM062X) =  -961.963652368     A.U. after   15 cycles
            NFock= 15  Conv=0.66D-08     -V/T= 2.0027
 KE= 9.594084442700D+02 PE=-3.396083463541D+03 EE= 9.181163334978D+02
 Leave Link  502 at Sun May 25 04:27:20 2025, MaxMem=  3758096384 cpu:              75.1 elap:              16.9
 (Enter /apps/easybuild-2022/easybuild/software/Compiler/NVHPC/22.11-CUDA-11.7.0/Gaussian/g16c01-CUDA-11.7.0/g16/l508.exe)
 QCSCF skips out because SCF is already converged.
 Leave Link  508 at Sun May 25 04:27:20 2025, MaxMem=  3758096384 cpu:               0.1 elap:               0.0
 (Enter /apps/easybuild-2022/easybuild/software/Compiler/NVHPC/22.11-CUDA-11.7.0/Gaussian/g16c01-CUDA-11.7.0/g16/l801.exe)
 DoSCS=F DFT=T ScalE2(SS,OS)=  1.000000  1.000000
 Range of M.O.s used for correlation:     1   273
 NBasis=   273 NAE=    37 NBE=    37 NFC=     0 NFV=     0
 NROrb=    273 NOA=    37 NOB=    37 NVA=   236 NVB=   236
 Leave Link  801 at Sun May 25 04:27:20 2025, MaxMem=  3758096384 cpu:               0.0 elap:               0.0
 (Enter /apps/easybuild-2022/easybuild/software/Compiler/NVHPC/22.11-CUDA-11.7.0/Gaussian/g16c01-CUDA-11.7.0/g16/l1101.exe)
 Using compressed storage, NAtomX=     9.
 Will process     10 centers per pass.
   1 Symmetry operations used in ECPInt.
 ECPInt:  NShTT=    4753 NPrTT=   15592 LenC2=    4565 LenP2D=   11454.
 LDataN:  DoStor=T MaxTD1= 7 Len=  274
 Leave Link 1101 at Sun May 25 04:27:21 2025, MaxMem=  3758096384 cpu:               1.2 elap:               0.3
 (Enter /apps/easybuild-2022/easybuild/software/Compiler/NVHPC/22.11-CUDA-11.7.0/Gaussian/g16c01-CUDA-11.7.0/g16/l1102.exe)
 Symmetrizing basis deriv contribution to polar:
 IMax=3 JMax=2 DiffMx= 0.00D+00
 Leave Link 1102 at Sun May 25 04:27:21 2025, MaxMem=  3758096384 cpu:               0.1 elap:               0.0
 (Enter /apps/easybuild-2022/easybuild/software/Compiler/NVHPC/22.11-CUDA-11.7.0/Gaussian/g16c01-CUDA-11.7.0/g16/l1110.exe)
 Forming Gx(P) for the SCF density, NAtomX=     9.
 Integral derivatives from FoFJK, PRISM(SPDF).
 Do as many integral derivatives as possible in FoFJK.
 G2DrvN: MDV=    3758095321.
 G2DrvN: will do    10 centers at a time, making    1 passes.
 Calling FoFCou, ICntrl=  3107 FMM=F I1Cent=   0 AccDes= 0.00D+00.
 FoFJK:  IHMeth= 1 ICntrl=    3107 DoSepK=F KAlg= 0 I1Cent=           0 FoldK=F
 IRaf=         0 NMat=       1 IRICut=       1 DoRegI=T DoRafI=F ISym2E= 0 IDoP0=0 IntGTp=1.
 FoFCou: FMM=F IPFlag=           0 FMFlag=      100000 FMFlg1=           0
         NFxFlg=           0 DoJE=F BraDBF=F KetDBF=F FulRan=T
         wScrn=  0.000000 ICntrl=      3107 IOpCl=  0 I1Cent=           0 NGrid=           0
         NMat0=    1 NMatS0=      1 NMatT0=    0 NMatD0=    1 NMtDS0=    0 NMtDT0=    0
 Symmetry not used in FoFCou.
 End of G2Drv F.D. properties file   721 does not exist.
 End of G2Drv F.D. properties file   722 does not exist.
 End of G2Drv F.D. properties file   788 does not exist.
 Leave Link 1110 at Sun May 25 04:27:42 2025, MaxMem=  3758096384 cpu:             168.7 elap:              21.9
 (Enter /apps/easybuild-2022/easybuild/software/Compiler/NVHPC/22.11-CUDA-11.7.0/Gaussian/g16c01-CUDA-11.7.0/g16/l1002.exe)
 Minotr:  Closed shell wavefunction.
          IDoAtm=111111111
          Direct CPHF calculation.
          Differentiating once with respect to nuclear coordinates.
          Requested convergence is 1.0D-08 RMS, and 1.0D-07 maximum.
          Secondary convergence is 1.0D-12 RMS, and 1.0D-12 maximum.
          NewPWx=T KeepS1=F KeepF1=F KeepIn=T MapXYZ=F SortEE=F KeepMc=T.
         2690 words used for storage of precomputed grid.
 Keep R1 ints in memory in canonical form, NReq=715218551.
 FoFCou: FMM=F IPFlag=           0 FMFlag=           0 FMFlg1=           0
         NFxFlg=           0 DoJE=F BraDBF=F KetDBF=F FulRan=T
         wScrn=  0.000000 ICntrl=       600 IOpCl=  0 I1Cent=           0 NGrid=           0
         NMat0=    1 NMatS0=  37401 NMatT0=    0 NMatD0=    1 NMtDS0=    0 NMtDT0=    0
 Symmetry not used in FoFCou.
 Two-electron integral symmetry not used.
          MDV=    3758096384 using IRadAn=       1.
          Solving linear equations simultaneously, MaxMat=       0.
          There are    30 degrees of freedom in the 1st order CPHF.  IDoFFX=6 NUNeed=     0.
     24 vectors produced by pass  0 Test12= 2.91D-14 3.33D-09 XBig12= 1.14D-01 7.27D-02.
 AX will form    24 AO Fock derivatives at one time.
     24 vectors produced by pass  1 Test12= 2.91D-14 3.33D-09 XBig12= 1.81D-02 2.67D-02.
     24 vectors produced by pass  2 Test12= 2.91D-14 3.33D-09 XBig12= 1.51D-03 8.90D-03.
     24 vectors produced by pass  3 Test12= 2.91D-14 3.33D-09 XBig12= 3.62D-05 1.37D-03.
     24 vectors produced by pass  4 Test12= 2.91D-14 3.33D-09 XBig12= 5.37D-07 1.27D-04.
     24 vectors produced by pass  5 Test12= 2.91D-14 3.33D-09 XBig12= 6.75D-09 1.20D-05.
     24 vectors produced by pass  6 Test12= 2.91D-14 3.33D-09 XBig12= 5.75D-11 9.64D-07.
     18 vectors produced by pass  7 Test12= 2.91D-14 3.33D-09 XBig12= 3.68D-13 6.97D-08.
      4 vectors produced by pass  8 Test12= 2.91D-14 3.33D-09 XBig12= 2.34D-15 5.58D-09.
 InvSVY:  IOpt=1 It=  1 EMax= 1.89D-15
 Solved reduced A of dimension   190 with    24 vectors.
 End of Minotr F.D. properties file   721 does not exist.
 End of Minotr F.D. properties file   722 does not exist.
 End of Minotr F.D. properties file   788 does not exist.
 Leave Link 1002 at Sun May 25 04:28:12 2025, MaxMem=  3758096384 cpu:             233.4 elap:              29.8
 (Enter /apps/easybuild-2022/easybuild/software/Compiler/NVHPC/22.11-CUDA-11.7.0/Gaussian/g16c01-CUDA-11.7.0/g16/l701.exe)
 ... and contract with generalized density number  0.
 Compute integral second derivatives.
   1 Symmetry operations used in ECPInt.
 ECPInt:  NShTT=    4753 NPrTT=   15592 LenC2=    4565 LenP2D=   11454.
 LDataN:  DoStor=T MaxTD1= 8 Len=  415
 Leave Link  701 at Sun May 25 04:28:12 2025, MaxMem=  3758096384 cpu:               1.1 elap:               0.2
 (Enter /apps/easybuild-2022/easybuild/software/Compiler/NVHPC/22.11-CUDA-11.7.0/Gaussian/g16c01-CUDA-11.7.0/g16/l702.exe)
 L702 exits ... SP integral derivatives will be done elsewhere.
 Leave Link  702 at Sun May 25 04:28:13 2025, MaxMem=  3758096384 cpu:               0.1 elap:               0.0
 (Enter /apps/easybuild-2022/easybuild/software/Compiler/NVHPC/22.11-CUDA-11.7.0/Gaussian/g16c01-CUDA-11.7.0/g16/l703.exe)
 Integral derivatives from FoFJK, PRISM(SPDF).
 Compute integral second derivatives, UseDBF=F ICtDFT=           0.
 Calling FoFJK, ICntrl=    100127 FMM=F ISym2X=0 I1Cent= 0 IOpClX= 0 NMat=1 NMatS=1 NMatT=0.
 FoFJK:  IHMeth= 1 ICntrl=  100127 DoSepK=F KAlg= 0 I1Cent=           0 FoldK=F
 IRaf=         0 NMat=       1 IRICut=       1 DoRegI=T DoRafI=F ISym2E= 0 IDoP0=0 IntGTp=1.
 FoFCou: FMM=F IPFlag=           0 FMFlag=      100000 FMFlg1=         800
         NFxFlg=           0 DoJE=F BraDBF=F KetDBF=F FulRan=T
         wScrn=  0.000000 ICntrl=    100127 IOpCl=  0 I1Cent=           0 NGrid=           0
         NMat0=    1 NMatS0=      1 NMatT0=    0 NMatD0=    1 NMtDS0=    0 NMtDT0=    0
 Symmetry not used in FoFCou.
 Leave Link  703 at Sun May 25 04:28:58 2025, MaxMem=  3758096384 cpu:             363.2 elap:              45.8
 (Enter /apps/easybuild-2022/easybuild/software/Compiler/NVHPC/22.11-CUDA-11.7.0/Gaussian/g16c01-CUDA-11.7.0/g16/l716.exe)
 Dipole        = 9.59339180D-02 6.06691966D-01-6.01385444D-01
 Polarizability= 0.00000000D+00 0.00000000D+00 0.00000000D+00
                 0.00000000D+00 0.00000000D+00 0.00000000D+00
 -------------------------------------------------------------------
 Center     Atomic                   Forces (Hartrees/Bohr)
 Number     Number              X              Y              Z
 -------------------------------------------------------------------
      1        6          -0.000074300    0.000007582    0.000048040
      2        9          -0.000042148   -0.000031709    0.000050796
      3        9           0.000202371    0.000033004   -0.000060416
      4        9           0.000034629    0.000011888    0.000020445
      5       16           0.000169683    0.000001056   -0.000184406
      6        8          -0.000231963   -0.000131723   -0.000003566
      7        8          -0.000009051    0.000106526    0.000142517
      8        8          -0.000046062    0.000017007   -0.000004921
      9        1          -0.000003160   -0.000013630   -0.000008490
 -------------------------------------------------------------------
 Cartesian Forces:  Max     0.000231963 RMS     0.000092118
 Force constants in Cartesian coordinates: 
                1             2             3             4             5 
      1  0.524825D+00
      2 -0.107389D-01  0.547006D+00
      3 -0.333765D-02  0.151373D-01  0.567242D+00
      4 -0.210322D+00  0.768238D-01 -0.937235D-01  0.205168D+00
      5  0.734011D-01 -0.113453D+00  0.539942D-01 -0.102413D+00  0.153310D+00
      6 -0.899018D-01  0.526825D-01 -0.142222D+00  0.144817D+00 -0.995263D-01
      7 -0.855785D-01  0.189459D-01  0.463059D-01  0.765981D-02 -0.734720D-02
      8  0.180211D-01 -0.113950D+00 -0.944929D-01 -0.412077D-02  0.172487D-01
      9  0.417436D-01 -0.936030D-01 -0.282814D+00 -0.243950D-01 -0.126711D-02
     10 -0.114267D+00 -0.855027D-01  0.174274D-01  0.181350D-01  0.324907D-01
     11 -0.830715D-01 -0.269224D+00  0.287605D-01  0.154140D-01 -0.580085D-01
     12  0.154881D-01  0.286284D-01 -0.780424D-01 -0.244731D-02  0.402340D-01
     13 -0.126294D+00  0.169858D-01  0.709551D-01 -0.353464D-02  0.639297D-03
     14 -0.352582D-02 -0.176882D-01 -0.176271D-03  0.203169D-01 -0.442574D-02
     15  0.175807D-01 -0.112927D-01 -0.691041D-01 -0.298593D-01  0.985536D-02
     16  0.422624D-03  0.596403D-02 -0.295196D-01 -0.786444D-02  0.179070D-02
     17  0.131108D-02 -0.258311D-02  0.696560D-02  0.292889D-02 -0.204392D-03
     18  0.538406D-02 -0.330588D-02 -0.236900D-02  0.370489D-02 -0.127631D-02
     19  0.101909D-01  0.117057D-01  0.309373D-02 -0.705865D-02  0.893983D-03
     20 -0.147970D-02  0.902065D-03  0.214476D-02 -0.149696D-02  0.823450D-03
     21  0.963833D-02  0.208511D-02  0.674003D-02  0.159200D-02 -0.633430D-03
     22  0.118533D-02 -0.342616D-01 -0.121069D-01 -0.312308D-02  0.610553D-03
     23  0.548142D-02 -0.237209D-01 -0.928537D-02 -0.771689D-02  0.361600D-02
     24  0.199238D-02  0.883957D-02  0.905837D-03  0.319321D-03 -0.894743D-03
     25 -0.162024D-03  0.780471D-04  0.905578D-03  0.940253D-03 -0.665214D-04
     26  0.601274D-03 -0.729027D-02 -0.304785D-02  0.263664D-03  0.109349D-02
     27  0.141222D-02  0.828651D-03 -0.336403D-03 -0.780376D-05 -0.485710D-03
                6             7             8             9            10 
      6  0.214649D+00
      7 -0.424891D-01  0.657135D-01
      8  0.865110D-02 -0.872768D-02  0.151071D+00
      9 -0.702063D-01 -0.125891D-01  0.143254D+00  0.374844D+00
     10 -0.984884D-02  0.130777D-01 -0.220494D-02 -0.582921D-02  0.886730D-01
     11  0.351083D-01 -0.120621D-01 -0.555861D-01 -0.371453D-01  0.856339D-01
     12 -0.457608D-02 -0.140993D-01 -0.538835D-01 -0.396582D-02 -0.272054D-02
     13 -0.216079D-02  0.567431D-02 -0.560765D-02 -0.112147D-01  0.120363D-01
     14  0.486831D-02  0.105765D-01 -0.463536D-02 -0.157868D-01 -0.254574D-01
     15 -0.592722D-03  0.283264D-01 -0.963641D-02 -0.305631D-01  0.196055D-02
     16  0.177790D-02  0.124800D-02 -0.237172D-03  0.739953D-03 -0.422725D-02
     17  0.481202D-03  0.465676D-03  0.950504D-04 -0.128970D-02  0.257322D-02
     18  0.225507D-02 -0.603983D-03  0.582161D-03  0.275706D-02 -0.308722D-02
     19 -0.306550D-02 -0.829236D-02  0.290194D-02  0.116341D-01 -0.261055D-02
     20 -0.904124D-03 -0.137628D-02  0.111364D-02  0.223469D-02  0.398736D-03
     21 -0.389282D-03 -0.475250D-02  0.196626D-02  0.669374D-02 -0.226683D-02
     22  0.843737D-03  0.144529D-03 -0.552976D-04  0.454968D-03 -0.115515D-01
     23 -0.130359D-02 -0.137261D-02  0.402974D-02  0.411779D-02 -0.603543D-02
     24  0.105939D-02  0.870463D-04  0.332817D-02  0.307249D-02  0.414989D-02
     25  0.276859D-04  0.352887D-03  0.304242D-04 -0.544634D-03  0.734527D-03
     26 -0.574714D-04  0.897723D-03  0.613148D-03 -0.514772D-03 -0.189608D-02
     27  0.228833D-04 -0.185490D-03  0.230890D-03  0.182453D-03  0.214756D-03
               11            12            13            14            15 
     11  0.402761D+00
     12 -0.273531D-01  0.809760D-01
     13  0.101474D-01 -0.500531D-02  0.383399D+00
     14 -0.229757D-01  0.109137D-01 -0.523286D-01  0.471943D+00
     15  0.208512D-02  0.529786D-02  0.131557D+00 -0.496373D-01  0.438870D+00
     16 -0.386755D-02  0.280463D-02 -0.119127D+00  0.721856D-01 -0.107877D+00
     17  0.423830D-02 -0.149724D-02  0.863384D-01 -0.938195D-01  0.914386D-01
     18 -0.331823D-02  0.154975D-02 -0.147078D+00  0.125898D+00 -0.246600D+00
     19 -0.525475D-02  0.500301D-03 -0.721485D-01  0.953486D-02 -0.464840D-01
     20  0.177414D-02 -0.788131D-03 -0.866063D-02 -0.358151D-01  0.836986D-02
     21 -0.235200D-02 -0.153155D-03 -0.364348D-01 -0.100536D-02 -0.382914D-01
     22 -0.764011D-02  0.595489D-02 -0.879228D-01 -0.258929D-01  0.291378D-03
     23 -0.203174D-02  0.259739D-02 -0.335332D-02 -0.265450D+00 -0.453293D-01
     24  0.366876D-02 -0.125334D-02  0.578436D-02 -0.716615D-01 -0.622672D-01
     25  0.700644D-03 -0.475535D-03  0.791733D-02 -0.540914D-02  0.450341D-02
     26 -0.947487D-03  0.114842D-02 -0.441607D-01 -0.271329D-01  0.414677D-02
     27  0.545975D-03  0.167207D-03 -0.640315D-02 -0.341331D-02  0.325112D-02
               16            17            18            19            20 
     16  0.245769D+00
     17 -0.647575D-03  0.138920D+00
     18  0.150594D-01 -0.172870D+00  0.311167D+00
     19 -0.118474D+00 -0.968881D-01  0.125692D+00  0.214265D+00
     20 -0.888519D-01 -0.430831D-01  0.478047D-01  0.614389D-01  0.884753D-01
     21  0.116031D+00  0.569243D-01 -0.842258D-01 -0.877839D-01 -0.609841D-01
     22  0.686976D-02  0.385633D-02  0.325138D-02 -0.873493D-02  0.342421D-01
     23  0.114311D-01 -0.513499D-02  0.657909D-02  0.131219D-01 -0.181576D-01
     24 -0.907247D-03  0.184458D-01  0.167729D-01 -0.430595D-02  0.521204D-02
     25 -0.461651D-02  0.621150D-04 -0.232237D-02 -0.713637D-02  0.578576D-02
     26  0.223280D-02  0.157141D-02 -0.934732D-04  0.254558D-02  0.396721D-02
     27  0.189094D-02  0.140194D-02 -0.130655D-02  0.719357D-03 -0.308968D-02
               21            22            23            24            25 
     21  0.108113D+00
     22  0.638259D-02  0.545849D+00
     23  0.268679D-02  0.152592D+00  0.389158D+00
     24  0.242457D-02 -0.917579D-01  0.136143D-01  0.636526D-01
     25 -0.240559D-02 -0.442716D+00 -0.164148D+00  0.846381D-01  0.444686D+00
     26  0.131243D-02 -0.123451D+00 -0.823076D-01  0.194476D-01  0.162967D+00
     27 -0.911883D-03  0.866858D-01  0.263229D-01 -0.243672D-01 -0.843266D-01
               26            27 
     26  0.110433D+00
     27 -0.223417D-01  0.232984D-01
 FormGI is forming the generalized inverse of G from B-inverse, IUseBI=4.
 Force constants in internal coordinates: 
                1             2             3             4             5 
      1  0.428645D+00
      2  0.539080D-01  0.444912D+00
      3  0.550610D-01  0.540673D-01  0.426652D+00
      4  0.811848D-02  0.728604D-02  0.754048D-02  0.157275D+00
      5  0.980121D-04  0.310111D-02  0.780393D-02 -0.103248D-02  0.367107D+00
      6  0.676294D-02  0.136015D-01  0.650996D-02  0.996179D-02  0.325728D-01
      7  0.740050D-02  0.586354D-02  0.435830D-02  0.588972D-02  0.141223D-01
      8 -0.661981D-03 -0.763772D-03 -0.363742D-03  0.260713D-02  0.893527D-02
      9 -0.431362D-03 -0.595897D-03 -0.229831D-03 -0.163313D-02 -0.404146D-02
     10  0.222508D-01  0.278974D-01  0.489863D-02 -0.809950D-02 -0.233894D-02
     11  0.232502D-01  0.429986D-02  0.212403D-01 -0.607420D-02 -0.406754D-02
     12  0.579046D-02 -0.295636D-01 -0.235752D-01  0.390886D-02  0.552779D-02
     13  0.446559D-02  0.288302D-01  0.210549D-01 -0.945273D-02 -0.375769D-02
     14 -0.295299D-01 -0.224224D-02 -0.289933D-01  0.159009D-01 -0.267630D-02
     15 -0.242671D-01 -0.297280D-01  0.836281D-02  0.290972D-02  0.724918D-02
     16  0.105862D-01 -0.407971D-02  0.151205D-03  0.359994D-02  0.348038D-01
     17  0.873543D-02 -0.886865D-02 -0.181964D-02  0.200995D-02 -0.808070D-02
     18  0.235617D-02 -0.407411D-02  0.199001D-01  0.213473D-01 -0.870920D-02
     19  0.329447D-02 -0.186722D-02  0.255027D-02  0.551574D-02 -0.676339D-02
     20 -0.175517D-02  0.202861D-03 -0.127934D-01 -0.152641D-01  0.114055D-01
     21  0.882033D-03 -0.102569D-03  0.280891D-02 -0.853936D-03  0.270078D-02
     22  0.554658D-03  0.132946D-01 -0.156439D-01  0.558261D-02 -0.886800D-02
     23 -0.257285D-02  0.989423D-02 -0.134089D-01  0.245436D-02  0.646060D-02
     24 -0.288156D-02  0.154953D-01 -0.199403D-01 -0.179346D-02 -0.105450D-02
     25 -0.122151D-01  0.104261D-02  0.162293D-01  0.203880D-02 -0.816302D-02
     26 -0.153426D-01 -0.235778D-02  0.184643D-01 -0.108945D-02  0.716559D-02
     27 -0.156513D-01  0.324333D-02  0.119329D-01 -0.533727D-02 -0.349513D-03
     28  0.177902D-01 -0.128545D-01  0.171475D-02  0.201812D-02 -0.690438D-02
     29  0.146626D-01 -0.162549D-01  0.394975D-02 -0.111013D-02  0.842423D-02
     30  0.143539D-01 -0.106538D-01 -0.258171D-02 -0.535795D-02  0.909121D-03
     31  0.722189D-02 -0.503484D-02  0.263961D-02  0.568784D-02  0.937905D-02
     32 -0.491999D-02  0.811409D-03 -0.486642D-02 -0.601024D-02 -0.245885D-01
     33 -0.158510D-02  0.394411D-02  0.394341D-02  0.311660D-02  0.177087D-01
                6             7             8             9            10 
      6  0.948683D-01
      7  0.183179D-01  0.339241D+00
      8  0.775573D-02 -0.343428D-02  0.217605D+00
      9 -0.778320D-02  0.767799D-02  0.218500D-02  0.525528D+00
     10 -0.717506D-02 -0.373829D-02  0.112764D-02  0.761290D-03  0.123989D+00
     11 -0.363537D-02 -0.560641D-02  0.967490D-03  0.563466D-03  0.334517D-01
     12  0.338648D-02  0.531499D-02 -0.252483D-02 -0.128789D-02 -0.912106D-01
     13 -0.609531D-02 -0.381057D-02  0.311642D-03  0.506805D-03  0.358716D-01
     14  0.139267D-01 -0.527766D-02  0.672836D-03 -0.110558D-02 -0.835382D-01
     15 -0.112138D-02  0.131773D-01 -0.534117D-03  0.648086D-03 -0.155458D-01
     16  0.895776D-02  0.485724D-02 -0.467071D-01 -0.170801D-02 -0.479360D-02
     17 -0.134825D-01  0.141123D-02  0.302489D-01  0.574950D-03 -0.235329D-02
     18 -0.343123D-01  0.241798D-01  0.174403D-01  0.108518D-01 -0.105340D-02
     19  0.120822D-01 -0.211716D-02  0.378372D-02 -0.639327D-03 -0.454960D-03
     20  0.308282D-01 -0.124656D-01 -0.165923D-01 -0.103113D-01  0.157516D-02
     21  0.968519D-02  0.485081D-01 -0.170168D-02  0.242530D-01  0.582084D-03
     22  0.667740D-02 -0.679358D-02  0.540355D-02  0.563363D-03  0.157604D-01
     23  0.201743D-02  0.666366D-02 -0.425118D-02 -0.213527D-02  0.175365D-01
     24 -0.240105D-02 -0.673931D-02 -0.266783D-03  0.246461D-03  0.162736D-01
     25  0.370770D-02 -0.228259D-02  0.538859D-02  0.132645D-02 -0.178833D-01
     26 -0.952269D-03  0.111747D-01 -0.426613D-02 -0.137218D-02 -0.161072D-01
     27 -0.537075D-02 -0.222832D-02 -0.281738D-03  0.100955D-02 -0.173701D-01
     28  0.354011D-02 -0.355525D-02  0.495577D-02  0.913019D-03 -0.158620D-03
     29 -0.111986D-02  0.990199D-02 -0.469896D-02 -0.178561D-02  0.161746D-02
     30 -0.553834D-02 -0.350098D-02 -0.714561D-03  0.596117D-03  0.354573D-03
     31 -0.524986D-02  0.580653D-02 -0.385340D-02  0.173291D-02 -0.261432D-02
     32 -0.201381D-02 -0.834189D-02  0.395605D-01 -0.465804D-03  0.288691D-02
     33  0.916063D-02  0.377158D-02 -0.346020D-01  0.867263D-03 -0.228948D-03
               11            12            13            14            15 
     11  0.108841D+00
     12 -0.768764D-01  0.151539D+00
     13  0.334935D-01 -0.141848D-01  0.121225D+00
     14 -0.102674D-01  0.744311D-02 -0.800211D-01  0.154448D+00
     15 -0.817391D-01  0.191346D-01 -0.923758D-01  0.675662D-02  0.159798D+00
     16 -0.495579D-02  0.195848D-01  0.170527D-02 -0.107743D-01 -0.670428D-03
     17 -0.367827D-02  0.178664D-01  0.347163D-02 -0.147413D-01 -0.252896D-03
     18 -0.112687D-01  0.296030D-03 -0.132573D-01 -0.618380D-02  0.313376D-01
     19 -0.653611D-03  0.485760D-03 -0.821590D-03  0.836152D-03  0.539563D-03
     20  0.822902D-02 -0.129637D-02  0.923975D-02  0.350538D-02 -0.211069D-01
     21 -0.118540D-02 -0.978507D-03 -0.155252D-02 -0.417969D-02  0.749682D-02
     22 -0.229005D-01  0.358863D-02 -0.695432D-03  0.322653D-02 -0.127476D-02
     23 -0.232245D-01  0.127573D-02 -0.178522D-02  0.416480D-04  0.400957D-02
     24 -0.212981D-01  0.322080D-02  0.129888D-02  0.284554D-02 -0.455490D-02
     25 -0.695140D-03  0.171098D-02  0.193278D-01 -0.156975D-02 -0.328155D-03
     26 -0.101910D-02 -0.601916D-03  0.182380D-01 -0.475463D-02  0.495617D-02
     27  0.907336D-03  0.134315D-02  0.213221D-01 -0.195074D-02 -0.360830D-02
     28  0.215139D-01  0.139408D-02 -0.183684D-01 -0.137897D-02 -0.145620D-02
     29  0.211899D-01 -0.918820D-03 -0.194582D-01 -0.456385D-02  0.382812D-02
     30  0.231163D-01  0.102625D-02 -0.163741D-01 -0.175996D-02 -0.473634D-02
     31 -0.452648D-02  0.129343D-01 -0.741457D-04 -0.990640D-02  0.432593D-02
     32  0.492686D-02 -0.806927D-02  0.300616D-02  0.388549D-02 -0.655221D-02
     33 -0.548618D-03 -0.496221D-02 -0.320299D-02  0.501104D-02  0.376140D-02
               16            17            18            19            20 
     16  0.581979D-01
     17  0.362680D-01  0.539269D-01
     18 -0.131839D-01 -0.553465D-03  0.228076D+00
     19  0.100707D-01  0.589460D-02  0.654725D-02  0.380758D-01
     20  0.131656D-01  0.257645D-02 -0.178134D+00  0.625471D-02  0.149379D+00
     21  0.338137D-02  0.130401D-02  0.238224D-01 -0.509615D-02 -0.195443D-01
     22  0.356962D-02  0.116296D-02  0.776360D-02  0.187588D-01 -0.532994D-02
     23 -0.108487D-02 -0.888610D-03 -0.122656D-03  0.762832D-03  0.767322D-02
     24 -0.496383D-02 -0.444015D-02 -0.188036D-01 -0.199881D-01  0.402058D-02
     25  0.241732D-02  0.914496D-03  0.132362D-01  0.183966D-01 -0.884639D-02
     26 -0.223716D-02 -0.113708D-02  0.534991D-02  0.400629D-03  0.415677D-02
     27 -0.611612D-02 -0.468861D-02 -0.133311D-01 -0.203503D-01  0.504124D-03
     28  0.744656D-02  0.588356D-02  0.115485D-01  0.185307D-01 -0.769153D-02
     29  0.279208D-02  0.383199D-02  0.366220D-02  0.534734D-03  0.531163D-02
     30 -0.108689D-02  0.280454D-03 -0.150188D-01 -0.202162D-01  0.165899D-02
     31  0.307202D-01  0.303137D-01  0.296708D-01  0.626680D-02 -0.216233D-01
     32 -0.264206D-01 -0.813446D-02 -0.406188D-01 -0.660077D-02  0.303039D-01
     33 -0.523420D-02 -0.236535D-01  0.242173D-01  0.219339D-03 -0.194869D-01
               21            22            23            24            25 
     21  0.158412D+00
     22 -0.376686D-02  0.297899D-01
     23 -0.424646D-03  0.122314D-01  0.249513D-01
     24 -0.699724D-03  0.102942D-01  0.114677D-01  0.319773D-01
     25 -0.856025D-03  0.425002D-02 -0.116322D-01 -0.153676D-01  0.273565D-01
     26  0.248619D-02 -0.133084D-01  0.108766D-02 -0.141942D-01  0.114743D-01
     27  0.221112D-02 -0.152456D-01 -0.123959D-01  0.631543D-02  0.773892D-02
     28 -0.162512D-02  0.402730D-02 -0.122542D-01 -0.155404D-01  0.413531D-02
     29  0.171709D-02 -0.135312D-01  0.465687D-03 -0.143669D-01 -0.117469D-01
     30  0.144202D-02 -0.154683D-01 -0.130179D-01  0.614267D-02 -0.154823D-01
     31  0.280907D-02  0.256597D-02 -0.102216D-02 -0.608841D-02  0.303794D-02
     32 -0.965583D-02 -0.396771D-02  0.186876D-03  0.600905D-02 -0.429440D-02
     33  0.873969D-03  0.119891D-02 -0.111918D-03 -0.117256D-02  0.177721D-02
               26            27            28            29            30 
     26  0.258704D-01
     27  0.105886D-01  0.292999D-01
     28 -0.121462D-01 -0.154324D-01  0.292492D-01
     29  0.224992D-02 -0.125827D-01  0.129677D-01  0.269645D-01
     30 -0.130319D-01  0.612867D-02  0.968152D-02  0.121319D-01  0.312925D-01
     31 -0.550183D-03 -0.561644D-02  0.622138D-02  0.263325D-02 -0.243300D-02
     32 -0.139820D-03  0.568235D-02 -0.585172D-02 -0.169714D-02  0.412503D-02
     33  0.466391D-03 -0.594252D-03  0.301547D-04 -0.128067D-02 -0.234131D-02
               31            32            33 
     31  0.270734D-01
     32 -0.166377D-01  0.265347D-01
     33 -0.405183D-02 -0.742760D-02  0.189887D-01
 Leave Link  716 at Sun May 25 04:28:58 2025, MaxMem=  3758096384 cpu:               0.1 elap:               0.0
 (Enter /apps/easybuild-2022/easybuild/software/Compiler/NVHPC/22.11-CUDA-11.7.0/Gaussian/g16c01-CUDA-11.7.0/g16/l103.exe)

 GradGradGradGradGradGradGradGradGradGradGradGradGradGradGradGradGradGrad
 Berny optimization.
 Red2BG is reusing G-inverse.
 Internal  Forces:  Max     0.000401466 RMS     0.000146386
 Search for a local minimum.
 Step number   1 out of a maximum of   43
 All quantities printed in internal units (Hartrees-Bohrs-Radians)
 RMS Force = .14639D-03 SwitMx=.10000D-02 MixMth= 2
 Mixed Optimization -- En-DIIS/RFO-DIIS
 Second derivative matrix not updated -- analytic derivatives used.
 ITU=  0
     Eigenvalues ---    0.00278   0.00510   0.04203   0.05922   0.07824
     Eigenvalues ---    0.08786   0.10990   0.12926   0.14417   0.15853
     Eigenvalues ---    0.19908   0.20769   0.24652   0.32243   0.33176
     Eigenvalues ---    0.37978   0.39324   0.39431   0.44353   0.53149
     Eigenvalues ---    0.57014
 RFO step:  Lambda=-8.73655684D-06 EMin= 2.77979191D-03
 Linear search not attempted -- first point.
 Iteration  1 RMS(Cart)=  0.00397852 RMS(Int)=  0.00001398
 Iteration  2 RMS(Cart)=  0.00001055 RMS(Int)=  0.00000284
 Iteration  3 RMS(Cart)=  0.00000000 RMS(Int)=  0.00000284
 ITry= 1 IFail=0 DXMaxC= 1.17D-02 DCOld= 1.00D+10 DXMaxT= 3.00D-01 DXLimC= 3.00D+00 Rises=F
 Variable       Old X    -DE/DX   Delta X   Delta X   Delta X     New X
                                 (Linear)    (Quad)   (Total)
    R1        2.51415  -0.00002   0.00000  -0.00032  -0.00032   2.51383
    R2        2.49727  -0.00006   0.00000   0.00007   0.00007   2.49734
    R3        2.51829  -0.00002   0.00000  -0.00005  -0.00005   2.51824
    R4        3.57679  -0.00009   0.00000   0.00004   0.00004   3.57683
    R5        2.94412  -0.00006   0.00000   0.00054   0.00054   2.94466
    R6        3.37802  -0.00002   0.00000  -0.00169  -0.00169   3.37633
    R7        3.01619   0.00001   0.00000   0.00040   0.00040   3.01659
    R8        2.82623   0.00004   0.00000  -0.00014  -0.00013   2.82610
    R9        1.82686  -0.00001   0.00000  -0.00008  -0.00008   1.82678
    A1        1.90379   0.00008   0.00000   0.00017   0.00017   1.90396
    A2        1.89194  -0.00002   0.00000   0.00009   0.00009   1.89203
    A3        1.90141   0.00022   0.00000   0.00305   0.00305   1.90446
    A4        1.89820   0.00014   0.00000   0.00012   0.00011   1.89831
    A5        2.00078  -0.00040   0.00000  -0.00358  -0.00358   1.99720
    A6        1.86486   0.00000   0.00000   0.00030   0.00029   1.86516
    A7        1.66625  -0.00035   0.00000  -0.00382  -0.00381   1.66244
    A8        2.54514  -0.00039   0.00000  -0.00498  -0.00498   2.54016
    A9        1.53062  -0.00006   0.00000  -0.00109  -0.00110   1.52952
   A10        1.92710   0.00011   0.00000   0.00268   0.00267   1.92977
   A11        1.61781   0.00001   0.00000  -0.00026  -0.00026   1.61754
   A12        1.88819  -0.00001   0.00000   0.00044   0.00044   1.88863
    D1        3.13455   0.00008   0.00000   0.00317   0.00316   3.13771
    D2        2.80487  -0.00011   0.00000  -0.00151  -0.00151   2.80336
    D3        1.20955  -0.00002   0.00000   0.00054   0.00054   1.21009
    D4        0.99616   0.00009   0.00000   0.00312   0.00313   0.99929
    D5        0.66648  -0.00010   0.00000  -0.00155  -0.00155   0.66494
    D6       -0.92883  -0.00002   0.00000   0.00050   0.00050  -0.92833
    D7       -1.10812   0.00016   0.00000   0.00500   0.00500  -1.10312
    D8       -1.43780  -0.00002   0.00000   0.00032   0.00033  -1.43747
    D9       -3.03312   0.00006   0.00000   0.00237   0.00237  -3.03075
   D10        2.96995  -0.00026   0.00000  -0.00247  -0.00247   2.96748
   D11        1.31223   0.00014   0.00000   0.00203   0.00203   1.31426
   D12        0.42535   0.00013   0.00000   0.00254   0.00254   0.42790
         Item               Value     Threshold  Converged?
 Maximum Force            0.000401     0.000450     YES
 RMS     Force            0.000146     0.000300     YES
 Maximum Displacement     0.011695     0.001800     NO 
 RMS     Displacement     0.003981     0.001200     NO 
 Predicted change in Energy=-4.368278D-06
 Lowest energy point so far.  Saving SCF results.
 GradGradGradGradGradGradGradGradGradGradGradGradGradGradGradGradGradGrad

 Leave Link  103 at Sun May 25 04:28:58 2025, MaxMem=  3758096384 cpu:               0.1 elap:               0.0
 (Enter /apps/easybuild-2022/easybuild/software/Compiler/NVHPC/22.11-CUDA-11.7.0/Gaussian/g16c01-CUDA-11.7.0/g16/l202.exe)
                          Input orientation:                          
 ---------------------------------------------------------------------
 Center     Atomic      Atomic             Coordinates (Angstroms)
 Number     Number       Type             X           Y           Z
 ---------------------------------------------------------------------
      1          6           0       -1.039749   -0.093686    0.161481
      2          9           0       -1.891083    0.502345   -0.668922
      3          9           0       -1.129173    0.472788    1.352100
      4          9           0       -1.385726   -1.376019    0.269787
      5         16           0        0.694566   -0.054885   -0.595648
      6          8           0        1.384476   -0.793535    0.590333
      7          8           0        2.446541   -0.189741   -0.272214
      8          8           0        0.694579    1.522429   -0.350114
      9          1           0        1.587394    1.853952   -0.515829
 ---------------------------------------------------------------------
                    Distance matrix (angstroms):
                    1          2          3          4          5
     1  C    0.000000
     2  F    1.330260   0.000000
     3  F    1.321538   2.160072   0.000000
     4  F    1.332595   2.159817   2.157616   0.000000
     5  S    1.892776   2.646026   2.719961   2.611894   0.000000
     6  O    2.559409   3.740898   2.915870   2.848870   1.558247
     7  O    3.514475   4.410367   3.982847   4.048122   1.786676
     8  O    2.425170   2.797830   2.706538   3.621180   1.596309
     9  H    3.339749   3.734981   3.574424   4.459748   2.108832
                    6          7          8          9
     6  O    0.000000
     7  O    1.495505   0.000000
     8  O    2.593085   2.450911   0.000000
     9  H    2.876449   2.230283   0.966690   0.000000
 Symmetry turned off by external request.
 Stoichiometry    CHF3O3S
 Rotational constants (GHZ):           3.2034309           1.4325453           1.2629136
 Leave Link  202 at Sun May 25 04:28:58 2025, MaxMem=  3758096384 cpu:               0.0 elap:               0.0
 (Enter /apps/easybuild-2022/easybuild/software/Compiler/NVHPC/22.11-CUDA-11.7.0/Gaussian/g16c01-CUDA-11.7.0/g16/l301.exe)
 Standard basis: def2TZVPP (5D, 7F)
 Ernie: Thresh=  0.10000D-02 Tol=  0.10000D-05 Strict=F.
   273 basis functions,   443 primitive gaussians,   315 cartesian basis functions
    37 alpha electrons       37 beta electrons
       nuclear repulsion energy       556.7433991799 Hartrees.
 IExCor= 4336 DFT=T Ex+Corr=M062X ExCW=0 ScaHFX=  0.540000
 ScaDFX=  1.000000  1.000000  1.000000  1.000000 ScalE2=  1.000000  1.000000
 IRadAn=      5 IRanWt=     -1 IRanGd=            0 ICorTp=0 IEmpDi=  4
 NAtoms=    9 NActive=    9 NUniq=    9 SFac= 1.00D+00 NAtFMM=   60 NAOKFM=F Big=F
 Integral buffers will be    131072 words long.
 Raffenetti 2 integral format.
 Two-electron integral symmetry is turned off.
 Leave Link  301 at Sun May 25 04:28:58 2025, MaxMem=  3758096384 cpu:               0.1 elap:               0.0
 (Enter /apps/easybuild-2022/easybuild/software/Compiler/NVHPC/22.11-CUDA-11.7.0/Gaussian/g16c01-CUDA-11.7.0/g16/l302.exe)
 NPDir=0 NMtPBC=     1 NCelOv=     1 NCel=       1 NClECP=     1 NCelD=      1
         NCelK=      1 NCelE2=     1 NClLst=     1 CellRange=     0.0.
 One-electron integrals computed using PRISM.
   1 Symmetry operations used in ECPInt.
 ECPInt:  NShTT=    4753 NPrTT=   15592 LenC2=    4565 LenP2D=   11454.
 LDataN:  DoStor=T MaxTD1= 6 Len=  172
 NBasis=   273 RedAO= T EigKep=  1.57D-03  NBF=   273
 NBsUse=   273 1.00D-06 EigRej= -1.00D+00 NBFU=   273
 Precomputing XC quadrature grid using
 IXCGrd= 4 IRadAn=           5 IRanWt=          -1 IRanGd=           0 AccXCQ= 0.00D+00.
 Generated NRdTot=       0 NPtTot=           0 NUsed=           0 NTot=          32
 NSgBfM=   312   312   312   312   312 MxSgAt=     9 MxSgA2=     9.
 Leave Link  302 at Sun May 25 04:28:59 2025, MaxMem=  3758096384 cpu:               0.7 elap:               0.2
 (Enter /apps/easybuild-2022/easybuild/software/Compiler/NVHPC/22.11-CUDA-11.7.0/Gaussian/g16c01-CUDA-11.7.0/g16/l303.exe)
 DipDrv:  MaxL=1.
 Leave Link  303 at Sun May 25 04:28:59 2025, MaxMem=  3758096384 cpu:               0.1 elap:               0.0
 (Enter /apps/easybuild-2022/easybuild/software/Compiler/NVHPC/22.11-CUDA-11.7.0/Gaussian/g16c01-CUDA-11.7.0/g16/l401.exe)
 Initial guess from the checkpoint file:  "1502984803620600000001_r12_insertion_R_6_5_7_IRC_R_prod.chk"
 B after Tr=     0.000384   -0.000167   -0.000545
         Rot=    1.000000    0.000101   -0.000094    0.000055 Ang=   0.02 deg.
 Guess basis will be translated and rotated to current coordinates.
 JPrj=2 DoOrth=T DoCkMO=T.
 Leave Link  401 at Sun May 25 04:28:59 2025, MaxMem=  3758096384 cpu:               0.2 elap:               0.1
 (Enter /apps/easybuild-2022/easybuild/software/Compiler/NVHPC/22.11-CUDA-11.7.0/Gaussian/g16c01-CUDA-11.7.0/g16/l502.exe)
 Keep R1 ints in memory in canonical form, NReq=715214082.
 FoFCou: FMM=F IPFlag=           0 FMFlag=           0 FMFlg1=           0
         NFxFlg=           0 DoJE=F BraDBF=F KetDBF=F FulRan=T
         wScrn=  0.000000 ICntrl=       600 IOpCl=  0 I1Cent=           0 NGrid=           0
         NMat0=    1 NMatS0=  37401 NMatT0=    0 NMatD0=    1 NMtDS0=    0 NMtDT0=    0
 Symmetry not used in FoFCou.
 Two-electron integral symmetry not used.
 Closed shell SCF:
 Using DIIS extrapolation, IDIIS=  1040.
 NGot=  3758096384 LenX=  3058457086 LenY=  3058357420
 Requested convergence on RMS density matrix=1.00D-08 within  32 cycles.
 Requested convergence on MAX density matrix=1.00D-06.
 Requested convergence on             energy=1.00D-06.
 No special actions if energy rises.

 Cycle   1  Pass 1  IDiag  1:
 E= -961.963607484890    
 DIIS: error= 2.08D-04 at cycle   1 NSaved=   1.
 NSaved= 1 IEnMin= 1 EnMin= -961.963607484890     IErMin= 1 ErrMin= 2.08D-04
 ErrMax= 2.08D-04  0.00D+00 EMaxC= 1.00D-01 BMatC= 3.09D-05 BMatP= 3.09D-05
 IDIUse=3 WtCom= 9.98D-01 WtEn= 2.08D-03
 Coeff-Com:  0.100D+01
 Coeff-En:   0.100D+01
 Coeff:      0.100D+01
 Gap=     1.052 Goal=   None    Shift=    0.000
 RMSDP=2.03D-05 MaxDP=3.89D-04              OVMax= 1.81D-03

 Cycle   2  Pass 1  IDiag  1:
 E= -961.963652531206     Delta-E=       -0.000045046316 Rises=F Damp=F
 DIIS: error= 5.41D-05 at cycle   2 NSaved=   2.
 NSaved= 2 IEnMin= 2 EnMin= -961.963652531206     IErMin= 2 ErrMin= 5.41D-05
 ErrMax= 5.41D-05  0.00D+00 EMaxC= 1.00D-01 BMatC= 2.35D-06 BMatP= 3.09D-05
 IDIUse=1 WtCom= 1.00D+00 WtEn= 0.00D+00
 Coeff-Com: -0.815D-01 0.108D+01
 Coeff:     -0.815D-01 0.108D+01
 Gap=     0.352 Goal=   None    Shift=    0.000
 RMSDP=7.79D-06 MaxDP=2.81D-04 DE=-4.50D-05 OVMax= 7.01D-04

 Cycle   3  Pass 1  IDiag  1:
 E= -961.963653281381     Delta-E=       -0.000000750175 Rises=F Damp=F
 DIIS: error= 9.15D-05 at cycle   3 NSaved=   3.
 NSaved= 3 IEnMin= 3 EnMin= -961.963653281381     IErMin= 2 ErrMin= 5.41D-05
 ErrMax= 9.15D-05  0.00D+00 EMaxC= 1.00D-01 BMatC= 4.66D-06 BMatP= 2.35D-06
 IDIUse=1 WtCom= 1.00D+00 WtEn= 0.00D+00
 Coeff-Com: -0.114D+00 0.699D+00 0.415D+00
 Coeff:     -0.114D+00 0.699D+00 0.415D+00
 Gap=     0.352 Goal=   None    Shift=    0.000
 RMSDP=4.16D-06 MaxDP=2.11D-04 DE=-7.50D-07 OVMax= 4.86D-04

 Cycle   4  Pass 1  IDiag  1:
 E= -961.963656561552     Delta-E=       -0.000003280172 Rises=F Damp=F
 DIIS: error= 1.46D-05 at cycle   4 NSaved=   4.
 NSaved= 4 IEnMin= 4 EnMin= -961.963656561552     IErMin= 4 ErrMin= 1.46D-05
 ErrMax= 1.46D-05  0.00D+00 EMaxC= 1.00D-01 BMatC= 1.10D-07 BMatP= 2.35D-06
 IDIUse=1 WtCom= 1.00D+00 WtEn= 0.00D+00
 Coeff-Com: -0.123D-01-0.937D-02 0.106D+00 0.915D+00
 Coeff:     -0.123D-01-0.937D-02 0.106D+00 0.915D+00
 Gap=     0.352 Goal=   None    Shift=    0.000
 RMSDP=1.30D-06 MaxDP=5.32D-05 DE=-3.28D-06 OVMax= 1.44D-04

 Cycle   5  Pass 1  IDiag  1:
 E= -961.963656704906     Delta-E=       -0.000000143353 Rises=F Damp=F
 DIIS: error= 5.72D-06 at cycle   5 NSaved=   5.
 NSaved= 5 IEnMin= 5 EnMin= -961.963656704906     IErMin= 5 ErrMin= 5.72D-06
 ErrMax= 5.72D-06  0.00D+00 EMaxC= 1.00D-01 BMatC= 2.50D-08 BMatP= 1.10D-07
 IDIUse=1 WtCom= 1.00D+00 WtEn= 0.00D+00
 Coeff-Com:  0.930D-02-0.101D+00-0.334D-02 0.414D+00 0.680D+00
 Coeff:      0.930D-02-0.101D+00-0.334D-02 0.414D+00 0.680D+00
 Gap=     0.352 Goal=   None    Shift=    0.000
 RMSDP=5.35D-07 MaxDP=2.66D-05 DE=-1.43D-07 OVMax= 6.72D-05

 Cycle   6  Pass 1  IDiag  1:
 E= -961.963656732630     Delta-E=       -0.000000027724 Rises=F Damp=F
 DIIS: error= 1.81D-06 at cycle   6 NSaved=   6.
 NSaved= 6 IEnMin= 6 EnMin= -961.963656732630     IErMin= 6 ErrMin= 1.81D-06
 ErrMax= 1.81D-06  0.00D+00 EMaxC= 1.00D-01 BMatC= 2.39D-09 BMatP= 2.50D-08
 IDIUse=1 WtCom= 1.00D+00 WtEn= 0.00D+00
 Coeff-Com:  0.466D-02-0.302D-01-0.161D-01-0.795D-02 0.211D+00 0.838D+00
 Coeff:      0.466D-02-0.302D-01-0.161D-01-0.795D-02 0.211D+00 0.838D+00
 Gap=     0.352 Goal=   None    Shift=    0.000
 RMSDP=2.50D-07 MaxDP=1.13D-05 DE=-2.77D-08 OVMax= 4.17D-05

 Cycle   7  Pass 1  IDiag  1:
 E= -961.963656737026     Delta-E=       -0.000000004396 Rises=F Damp=F
 DIIS: error= 6.02D-07 at cycle   7 NSaved=   7.
 NSaved= 7 IEnMin= 7 EnMin= -961.963656737026     IErMin= 7 ErrMin= 6.02D-07
 ErrMax= 6.02D-07  0.00D+00 EMaxC= 1.00D-01 BMatC= 3.27D-10 BMatP= 2.39D-09
 IDIUse=1 WtCom= 1.00D+00 WtEn= 0.00D+00
 Coeff-Com: -0.704D-03 0.133D-01-0.387D-02-0.856D-01-0.743D-01 0.210D+00
 Coeff-Com:  0.941D+00
 Coeff:     -0.704D-03 0.133D-01-0.387D-02-0.856D-01-0.743D-01 0.210D+00
 Coeff:      0.941D+00
 Gap=     0.352 Goal=   None    Shift=    0.000
 RMSDP=1.33D-07 MaxDP=6.24D-06 DE=-4.40D-09 OVMax= 2.53D-05

 Cycle   8  Pass 1  IDiag  1:
 E= -961.963656737843     Delta-E=       -0.000000000817 Rises=F Damp=F
 DIIS: error= 2.04D-07 at cycle   8 NSaved=   8.
 NSaved= 8 IEnMin= 8 EnMin= -961.963656737843     IErMin= 8 ErrMin= 2.04D-07
 ErrMax= 2.04D-07  0.00D+00 EMaxC= 1.00D-01 BMatC= 4.24D-11 BMatP= 3.27D-10
 IDIUse=1 WtCom= 1.00D+00 WtEn= 0.00D+00
 Coeff-Com: -0.588D-03 0.666D-02-0.777D-05-0.275D-01-0.396D-01-0.225D-03
 Coeff-Com:  0.286D+00 0.776D+00
 Coeff:     -0.588D-03 0.666D-02-0.777D-05-0.275D-01-0.396D-01-0.225D-03
 Coeff:      0.286D+00 0.776D+00
 Gap=     0.352 Goal=   None    Shift=    0.000
 RMSDP=3.68D-08 MaxDP=1.67D-06 DE=-8.17D-10 OVMax= 7.40D-06

 Cycle   9  Pass 1  IDiag  1:
 E= -961.963656737896     Delta-E=       -0.000000000053 Rises=F Damp=F
 DIIS: error= 1.03D-07 at cycle   9 NSaved=   9.
 NSaved= 9 IEnMin= 9 EnMin= -961.963656737896     IErMin= 9 ErrMin= 1.03D-07
 ErrMax= 1.03D-07  0.00D+00 EMaxC= 1.00D-01 BMatC= 1.15D-11 BMatP= 4.24D-11
 IDIUse=1 WtCom= 1.00D+00 WtEn= 0.00D+00
 Coeff-Com: -0.101D-04-0.106D-02 0.922D-03 0.118D-01 0.538D-02-0.515D-01
 Coeff-Com: -0.138D+00 0.277D+00 0.895D+00
 Coeff:     -0.101D-04-0.106D-02 0.922D-03 0.118D-01 0.538D-02-0.515D-01
 Coeff:     -0.138D+00 0.277D+00 0.895D+00
 Gap=     0.352 Goal=   None    Shift=    0.000
 RMSDP=2.26D-08 MaxDP=7.64D-07 DE=-5.28D-11 OVMax= 4.80D-06

 Cycle  10  Pass 1  IDiag  1:
 E= -961.963656737976     Delta-E=       -0.000000000080 Rises=F Damp=F
 DIIS: error= 4.18D-08 at cycle  10 NSaved=  10.
 NSaved=10 IEnMin=10 EnMin= -961.963656737976     IErMin=10 ErrMin= 4.18D-08
 ErrMax= 4.18D-08  0.00D+00 EMaxC= 1.00D-01 BMatC= 2.50D-12 BMatP= 1.15D-11
 IDIUse=1 WtCom= 1.00D+00 WtEn= 0.00D+00
 Coeff-Com:  0.101D-03-0.170D-02 0.390D-03 0.104D-01 0.975D-02-0.231D-01
 Coeff-Com: -0.114D+00-0.197D-01 0.407D+00 0.731D+00
 Coeff:      0.101D-03-0.170D-02 0.390D-03 0.104D-01 0.975D-02-0.231D-01
 Coeff:     -0.114D+00-0.197D-01 0.407D+00 0.731D+00
 Gap=     0.352 Goal=   None    Shift=    0.000
 RMSDP=8.46D-09 MaxDP=2.98D-07 DE=-8.05D-11 OVMax= 1.74D-06

 SCF Done:  E(RM062X) =  -961.963656738     A.U. after   10 cycles
            NFock= 10  Conv=0.85D-08     -V/T= 2.0027
 KE= 9.594090333706D+02 PE=-3.396384804599D+03 EE= 9.182687153104D+02
 Leave Link  502 at Sun May 25 04:29:12 2025, MaxMem=  3758096384 cpu:              64.6 elap:              12.7
 (Enter /apps/easybuild-2022/easybuild/software/Compiler/NVHPC/22.11-CUDA-11.7.0/Gaussian/g16c01-CUDA-11.7.0/g16/l508.exe)
 QCSCF skips out because SCF is already converged.
 Leave Link  508 at Sun May 25 04:29:12 2025, MaxMem=  3758096384 cpu:               0.0 elap:               0.0
 (Enter /apps/easybuild-2022/easybuild/software/Compiler/NVHPC/22.11-CUDA-11.7.0/Gaussian/g16c01-CUDA-11.7.0/g16/l701.exe)
 ... and contract with generalized density number  0.
 Compute integral first derivatives.
   1 Symmetry operations used in ECPInt.
 ECPInt:  NShTT=    4753 NPrTT=   15592 LenC2=    4565 LenP2D=   11454.
 LDataN:  DoStor=T MaxTD1= 7 Len=  274
 Leave Link  701 at Sun May 25 04:29:12 2025, MaxMem=  3758096384 cpu:               0.6 elap:               0.1
 (Enter /apps/easybuild-2022/easybuild/software/Compiler/NVHPC/22.11-CUDA-11.7.0/Gaussian/g16c01-CUDA-11.7.0/g16/l702.exe)
 L702 exits ... SP integral derivatives will be done elsewhere.
 Leave Link  702 at Sun May 25 04:29:12 2025, MaxMem=  3758096384 cpu:               0.1 elap:               0.0
 (Enter /apps/easybuild-2022/easybuild/software/Compiler/NVHPC/22.11-CUDA-11.7.0/Gaussian/g16c01-CUDA-11.7.0/g16/l703.exe)
 Integral derivatives from FoFJK, PRISM(SPDF).
 Compute integral first derivatives, UseDBF=F ICtDFT=           0.
 Calling FoFJK, ICntrl=      2127 FMM=F ISym2X=0 I1Cent= 0 IOpClX= 0 NMat=1 NMatS=1 NMatT=0.
 FoFJK:  IHMeth= 1 ICntrl=    2127 DoSepK=F KAlg= 0 I1Cent=           0 FoldK=F
 IRaf=         0 NMat=       1 IRICut=       1 DoRegI=T DoRafI=F ISym2E= 0 IDoP0=0 IntGTp=1.
 FoFCou: FMM=F IPFlag=           0 FMFlag=      100000 FMFlg1=         800
         NFxFlg=           0 DoJE=F BraDBF=F KetDBF=F FulRan=T
         wScrn=  0.000000 ICntrl=      2127 IOpCl=  0 I1Cent=           0 NGrid=           0
         NMat0=    1 NMatS0=      1 NMatT0=    0 NMatD0=    1 NMtDS0=    0 NMtDT0=    0
 Symmetry not used in FoFCou.
 Leave Link  703 at Sun May 25 04:29:17 2025, MaxMem=  3758096384 cpu:              38.5 elap:               5.0
 (Enter /apps/easybuild-2022/easybuild/software/Compiler/NVHPC/22.11-CUDA-11.7.0/Gaussian/g16c01-CUDA-11.7.0/g16/l716.exe)
 Dipole        = 9.90815735D-02 6.07505603D-01-6.05568100D-01
 -------------------------------------------------------------------
 Center     Atomic                   Forces (Hartrees/Bohr)
 Number     Number              X              Y              Z
 -------------------------------------------------------------------
      1        6          -0.000007173    0.000001305    0.000002999
      2        9           0.000000944    0.000002294   -0.000000300
      3        9          -0.000000159    0.000005901   -0.000002912
      4        9          -0.000001798    0.000005406    0.000003767
      5       16           0.000003649   -0.000000610    0.000000184
      6        8          -0.000000209   -0.000001993    0.000004195
      7        8          -0.000000907   -0.000008293    0.000003044
      8        8           0.000002031    0.000000378   -0.000006220
      9        1           0.000003622   -0.000004389   -0.000004757
 -------------------------------------------------------------------
 Cartesian Forces:  Max     0.000008293 RMS     0.000003704
 Leave Link  716 at Sun May 25 04:29:17 2025, MaxMem=  3758096384 cpu:               0.0 elap:               0.0
 (Enter /apps/easybuild-2022/easybuild/software/Compiler/NVHPC/22.11-CUDA-11.7.0/Gaussian/g16c01-CUDA-11.7.0/g16/l103.exe)

 GradGradGradGradGradGradGradGradGradGradGradGradGradGradGradGradGradGrad
 Berny optimization.
 Using GEDIIS/GDIIS optimizer.
 FormGI is forming the generalized inverse of G from B-inverse, IUseBI=4.
 Internal  Forces:  Max     0.000005352 RMS     0.000001630
 Search for a local minimum.
 Step number   2 out of a maximum of   43
 All quantities printed in internal units (Hartrees-Bohrs-Radians)
 RMS Force = .16299D-05 SwitMx=.10000D-02 MixMth= 2
 Mixed Optimization -- En-DIIS/RFO-DIIS
 Swapping is turned off.
 Update second derivatives using D2CorX and points    1    2
 DE= -4.37D-06 DEPred=-4.37D-06 R= 1.00D+00
 TightC=F SS=  1.41D+00  RLast= 1.21D-02 DXNew= 5.0454D-01 3.6255D-02
 Trust test= 1.00D+00 RLast= 1.21D-02 DXMaxT set to 3.00D-01
 ITU=  1  0
     Eigenvalues ---    0.00278   0.00510   0.04218   0.05896   0.07818
     Eigenvalues ---    0.08782   0.10986   0.12924   0.14418   0.15867
     Eigenvalues ---    0.19922   0.20770   0.24654   0.32242   0.33172
     Eigenvalues ---    0.37980   0.39333   0.39431   0.44356   0.53149
     Eigenvalues ---    0.57014
 En-DIIS/RFO-DIIS/Sim-DIIS IScMMF=       -3 using points:     2    1
 RFO step:  Lambda=-4.52285208D-10.
 NNeg= 0 NGDIIS= 2 SimSw=  2.50D-03 Rises=F DC= -4.37D-06 SmlDif=  1.00D-05
 NRisDI= 0 DoIntr=F SqrtH=F CThrHd= 10.0 CDAdj=  3.0
 RMS Error=  0.3927591261D-04 NUsed= 2 OKEnD=F EnDIS=F
 InvSVX:  RCond= 1.64D-04 Info=           0 Equed=N FErr=  8.93D-16 BErr=  1.36D-17
 DidBck=F Rises=F RFO-DIIS coefs:    0.99507    0.00493
 Iteration  1 RMS(Cart)=  0.00005190 RMS(Int)=  0.00000001
 Iteration  2 RMS(Cart)=  0.00000000 RMS(Int)=  0.00000001
 ITry= 1 IFail=0 DXMaxC= 1.22D-04 DCOld= 1.00D+10 DXMaxT= 3.00D-01 DXLimC= 3.00D+00 Rises=F
 Variable       Old X    -DE/DX   Delta X   Delta X   Delta X     New X
                                 (Linear)    (Quad)   (Total)
    R1        2.51383  -0.00000   0.00000  -0.00001  -0.00001   2.51382
    R2        2.49734  -0.00000  -0.00000  -0.00000  -0.00000   2.49734
    R3        2.51824  -0.00000   0.00000  -0.00000  -0.00000   2.51824
    R4        3.57683   0.00001  -0.00000   0.00003   0.00003   3.57686
    R5        2.94466   0.00000  -0.00000   0.00001   0.00001   2.94467
    R6        3.37633   0.00000   0.00001  -0.00001  -0.00000   3.37633
    R7        3.01659   0.00000  -0.00000   0.00001   0.00000   3.01659
    R8        2.82610  -0.00000   0.00000  -0.00001  -0.00001   2.82609
    R9        1.82678   0.00000   0.00000   0.00000   0.00000   1.82678
    A1        1.90396  -0.00000  -0.00000  -0.00000  -0.00000   1.90396
    A2        1.89203   0.00000  -0.00000   0.00000   0.00000   1.89203
    A3        1.90446   0.00000  -0.00002   0.00004   0.00002   1.90449
    A4        1.89831   0.00000  -0.00000   0.00000   0.00000   1.89831
    A5        1.99720   0.00000   0.00002  -0.00002  -0.00001   1.99719
    A6        1.86516  -0.00000  -0.00000  -0.00002  -0.00002   1.86513
    A7        1.66244   0.00000   0.00002  -0.00003  -0.00001   1.66243
    A8        2.54016  -0.00000   0.00002  -0.00004  -0.00001   2.54015
    A9        1.52952   0.00000   0.00001   0.00001   0.00001   1.52953
   A10        1.92977   0.00000  -0.00001   0.00003   0.00002   1.92979
   A11        1.61754   0.00000   0.00000   0.00002   0.00002   1.61756
   A12        1.88863   0.00000  -0.00000   0.00000   0.00000   1.88863
    D1        3.13771   0.00000  -0.00002  -0.00006  -0.00007   3.13764
    D2        2.80336   0.00000   0.00001  -0.00005  -0.00004   2.80332
    D3        1.21009  -0.00000  -0.00000  -0.00009  -0.00009   1.21000
    D4        0.99929  -0.00000  -0.00002  -0.00007  -0.00008   0.99921
    D5        0.66494   0.00000   0.00001  -0.00006  -0.00005   0.66489
    D6       -0.92833  -0.00000  -0.00000  -0.00010  -0.00010  -0.92843
    D7       -1.10312   0.00000  -0.00002  -0.00004  -0.00007  -1.10319
    D8       -1.43747   0.00000  -0.00000  -0.00003  -0.00004  -1.43751
    D9       -3.03075  -0.00000  -0.00001  -0.00007  -0.00009  -3.03083
   D10        2.96748   0.00000   0.00001  -0.00002  -0.00001   2.96747
   D11        1.31426  -0.00000  -0.00001   0.00001  -0.00000   1.31426
   D12        0.42790   0.00000  -0.00001   0.00001  -0.00000   0.42790
         Item               Value     Threshold  Converged?
 Maximum Force            0.000005     0.000450     YES
 RMS     Force            0.000002     0.000300     YES
 Maximum Displacement     0.000122     0.001800     YES
 RMS     Displacement     0.000052     0.001200     YES
 Predicted change in Energy=-3.970317D-10
 Optimization completed.
    -- Stationary point found.
                           ----------------------------
                           !   Optimized Parameters   !
                           ! (Angstroms and Degrees)  !
 --------------------------                            --------------------------
 ! Name  Definition              Value          Derivative Info.                !
 --------------------------------------------------------------------------------
 ! R1    R(1,2)                  1.3303         -DE/DX =    0.0                 !
 ! R2    R(1,3)                  1.3215         -DE/DX =    0.0                 !
 ! R3    R(1,4)                  1.3326         -DE/DX =    0.0                 !
 ! R4    R(1,5)                  1.8928         -DE/DX =    0.0                 !
 ! R5    R(5,6)                  1.5582         -DE/DX =    0.0                 !
 ! R6    R(5,7)                  1.7867         -DE/DX =    0.0                 !
 ! R7    R(5,8)                  1.5963         -DE/DX =    0.0                 !
 ! R8    R(6,7)                  1.4955         -DE/DX =    0.0                 !
 ! R9    R(8,9)                  0.9667         -DE/DX =    0.0                 !
 ! A1    A(2,1,3)              109.0891         -DE/DX =    0.0                 !
 ! A2    A(2,1,4)              108.4053         -DE/DX =    0.0                 !
 ! A3    A(2,1,5)              109.1177         -DE/DX =    0.0                 !
 ! A4    A(3,1,4)              108.7651         -DE/DX =    0.0                 !
 ! A5    A(3,1,5)              114.431          -DE/DX =    0.0                 !
 ! A6    A(4,1,5)              106.8656         -DE/DX =    0.0                 !
 ! A7    A(1,5,6)               95.2509         -DE/DX =    0.0                 !
 ! A8    A(1,5,7)              145.5404         -DE/DX =    0.0                 !
 ! A9    A(1,5,8)               87.6351         -DE/DX =    0.0                 !
 ! A10   A(6,5,8)              110.5678         -DE/DX =    0.0                 !
 ! A11   A(7,5,8)               92.6783         -DE/DX =    0.0                 !
 ! A12   A(5,8,9)              108.2103         -DE/DX =    0.0                 !
 ! D1    D(2,1,5,6)            179.7775         -DE/DX =    0.0                 !
 ! D2    D(2,1,5,7)            160.6207         -DE/DX =    0.0                 !
 ! D3    D(2,1,5,8)             69.333          -DE/DX =    0.0                 !
 ! D4    D(3,1,5,6)             57.255          -DE/DX =    0.0                 !
 ! D5    D(3,1,5,7)             38.0982         -DE/DX =    0.0                 !
 ! D6    D(3,1,5,8)            -53.1895         -DE/DX =    0.0                 !
 ! D7    D(4,1,5,6)            -63.2044         -DE/DX =    0.0                 !
 ! D8    D(4,1,5,7)            -82.3612         -DE/DX =    0.0                 !
 ! D9    D(4,1,5,8)           -173.6489         -DE/DX =    0.0                 !
 ! D10   D(1,5,8,9)            170.0241         -DE/DX =    0.0                 !
 ! D11   D(6,5,8,9)             75.3014         -DE/DX =    0.0                 !
 ! D12   D(7,5,8,9)             24.5167         -DE/DX =    0.0                 !
 --------------------------------------------------------------------------------
 Lowest energy point so far.  Saving SCF results.
 Largest change from initial coordinates is atom    3       0.002 Angstoms.
 GradGradGradGradGradGradGradGradGradGradGradGradGradGradGradGradGradGrad

 Leave Link  103 at Sun May 25 04:29:17 2025, MaxMem=  3758096384 cpu:               0.1 elap:               0.1
 (Enter /apps/easybuild-2022/easybuild/software/Compiler/NVHPC/22.11-CUDA-11.7.0/Gaussian/g16c01-CUDA-11.7.0/g16/l202.exe)
                          Input orientation:                          
 ---------------------------------------------------------------------
 Center     Atomic      Atomic             Coordinates (Angstroms)
 Number     Number       Type             X           Y           Z
 ---------------------------------------------------------------------
      1          6           0       -1.039749   -0.093686    0.161481
      2          9           0       -1.891083    0.502345   -0.668922
      3          9           0       -1.129173    0.472788    1.352100
      4          9           0       -1.385726   -1.376019    0.269787
      5         16           0        0.694566   -0.054885   -0.595648
      6          8           0        1.384476   -0.793535    0.590333
      7          8           0        2.446541   -0.189741   -0.272214
      8          8           0        0.694579    1.522429   -0.350114
      9          1           0        1.587394    1.853952   -0.515829
[...]
     28  0.754337D-02  0.594947D-02  0.113710D-01  0.183394D-01 -0.757902D-02
     29  0.269243D-02  0.382747D-02  0.385984D-02  0.648955D-03  0.538616D-02
     30 -0.112276D-02  0.182769D-03 -0.150297D-01 -0.201271D-01  0.148444D-02
     31  0.309610D-01  0.305128D-01  0.300746D-01  0.649402D-02 -0.217595D-01
     32 -0.266439D-01 -0.825939D-02 -0.413014D-01 -0.681809D-02  0.307102D-01
     33 -0.525193D-02 -0.237163D-01  0.245520D-01  0.210996D-03 -0.197645D-01
               21            22            23            24            25 
     21  0.158444D+00
     22 -0.380109D-02  0.296518D-01
     23 -0.415107D-03  0.122028D-01  0.250840D-01
     24 -0.681906D-03  0.104153D-01  0.113055D-01  0.319070D-01
     25 -0.885567D-03  0.411434D-02 -0.116714D-01 -0.151932D-01  0.272810D-01
     26  0.250041D-02 -0.133347D-01  0.120983D-02 -0.143030D-01  0.114953D-01
     27  0.223361D-02 -0.151222D-01 -0.125686D-01  0.629854D-02  0.797348D-02
     28 -0.163404D-02  0.391359D-02 -0.122522D-01 -0.153702D-01  0.398201D-02
     29  0.175193D-02 -0.135355D-01  0.629016D-03 -0.144799D-01 -0.118037D-01
     30  0.148514D-02 -0.153230D-01 -0.131495D-01  0.612162D-02 -0.153256D-01
     31  0.285150D-02  0.258560D-02 -0.102829D-02 -0.611889D-02  0.307761D-02
     32 -0.964680D-02 -0.397764D-02  0.207655D-03  0.602295D-02 -0.431088D-02
     33  0.915780D-03  0.115472D-02 -0.103010D-03 -0.113880D-02  0.170628D-02
               26            27            28            29            30 
     26  0.260399D-01
     27  0.105271D-01  0.293942D-01
     28 -0.121838D-01 -0.153017D-01  0.291288D-01
     29  0.236079D-02 -0.127482D-01  0.129630D-01  0.271275D-01
     30 -0.131520D-01  0.611903D-02  0.984506D-02  0.120186D-01  0.312897D-01
     31 -0.536270D-03 -0.562687D-02  0.624178D-02  0.262790D-02 -0.246271D-02
     32 -0.125580D-03  0.568972D-02 -0.586661D-02 -0.168131D-02  0.413399D-02
     33  0.448545D-03 -0.587248D-03 -0.681795D-05 -0.126455D-02 -0.230034D-02
               31            32            33 
     31  0.273110D-01
     32 -0.169125D-01  0.268852D-01
     33 -0.401756D-02 -0.756596D-02  0.190768D-01
 Leave Link  716 at Sun May 25 04:31:03 2025, MaxMem=  3758096384 cpu:               0.1 elap:               0.1
 (Enter /apps/easybuild-2022/easybuild/software/Compiler/NVHPC/22.11-CUDA-11.7.0/Gaussian/g16c01-CUDA-11.7.0/g16/l103.exe)

 GradGradGradGradGradGradGradGradGradGradGradGradGradGradGradGradGradGrad
 Berny optimization.
 Red2BG is reusing G-inverse.
 Internal  Forces:  Max     0.000005419 RMS     0.000001620
 Search for a local minimum.
 Step number   1 out of a maximum of    2
 All quantities printed in internal units (Hartrees-Bohrs-Radians)
 Second derivative matrix not updated -- analytic derivatives used.
 ITU=  0
     Eigenvalues ---    0.00280   0.00508   0.04230   0.05916   0.07870
     Eigenvalues ---    0.08794   0.10974   0.12955   0.14423   0.15896
     Eigenvalues ---    0.19955   0.20796   0.24684   0.32252   0.33188
     Eigenvalues ---    0.37999   0.39301   0.39463   0.44449   0.53162
     Eigenvalues ---    0.57022
 Angle between quadratic step and forces=  67.59 degrees.
 Linear search not attempted -- first point.
 Iteration  1 RMS(Cart)=  0.00005089 RMS(Int)=  0.00000000
 Iteration  2 RMS(Cart)=  0.00000000 RMS(Int)=  0.00000000
 ITry= 1 IFail=0 DXMaxC= 1.19D-04 DCOld= 1.00D+10 DXMaxT= 3.00D-01 DXLimC= 3.00D+00 Rises=F
 Variable       Old X    -DE/DX   Delta X   Delta X   Delta X     New X
                                 (Linear)    (Quad)   (Total)
    R1        2.51383  -0.00000   0.00000  -0.00000  -0.00000   2.51382
    R2        2.49734  -0.00000   0.00000  -0.00000  -0.00000   2.49734
    R3        2.51824  -0.00000   0.00000  -0.00000  -0.00000   2.51824
    R4        3.57683   0.00001   0.00000   0.00003   0.00003   3.57686
    R5        2.94466   0.00000   0.00000   0.00001   0.00001   2.94467
    R6        3.37633   0.00000   0.00000  -0.00000  -0.00000   3.37632
    R7        3.01659   0.00000   0.00000   0.00000   0.00000   3.01659
    R8        2.82610  -0.00000   0.00000  -0.00001  -0.00001   2.82609
    R9        1.82678   0.00000   0.00000   0.00000   0.00000   1.82678
    A1        1.90396  -0.00000   0.00000  -0.00000  -0.00000   1.90396
    A2        1.89203   0.00000   0.00000   0.00000   0.00000   1.89203
    A3        1.90446   0.00000   0.00000   0.00002   0.00002   1.90449
    A4        1.89831   0.00000   0.00000   0.00000   0.00000   1.89831
    A5        1.99720   0.00000   0.00000  -0.00001  -0.00001   1.99719
    A6        1.86516  -0.00000   0.00000  -0.00002  -0.00002   1.86514
    A7        1.66244   0.00000   0.00000  -0.00001  -0.00001   1.66243
    A8        2.54016  -0.00000   0.00000  -0.00001  -0.00001   2.54015
    A9        1.52952   0.00000   0.00000   0.00001   0.00001   1.52953
   A10        1.92977   0.00000   0.00000   0.00002   0.00002   1.92979
   A11        1.61754   0.00000   0.00000   0.00002   0.00002   1.61756
   A12        1.88863   0.00000   0.00000   0.00000   0.00000   1.88863
    D1        3.13771   0.00000   0.00000  -0.00007  -0.00007   3.13764
    D2        2.80336   0.00000   0.00000  -0.00004  -0.00004   2.80332
    D3        1.21009  -0.00000   0.00000  -0.00009  -0.00009   1.21000
    D4        0.99929  -0.00000   0.00000  -0.00008  -0.00008   0.99921
    D5        0.66494   0.00000   0.00000  -0.00005  -0.00005   0.66489
    D6       -0.92833  -0.00000   0.00000  -0.00010  -0.00010  -0.92843
    D7       -1.10312   0.00000   0.00000  -0.00006  -0.00006  -1.10319
    D8       -1.43747   0.00000   0.00000  -0.00004  -0.00004  -1.43751
    D9       -3.03075  -0.00000   0.00000  -0.00008  -0.00008  -3.03083
   D10        2.96748   0.00000   0.00000  -0.00001  -0.00001   2.96747
   D11        1.31426  -0.00000   0.00000  -0.00000  -0.00000   1.31426
   D12        0.42790   0.00000   0.00000  -0.00000  -0.00000   0.42790
         Item               Value     Threshold  Converged?
 Maximum Force            0.000005     0.000450     YES
 RMS     Force            0.000002     0.000300     YES
 Maximum Displacement     0.000119     0.001800     YES
 RMS     Displacement     0.000051     0.001200     YES
 Predicted change in Energy=-3.934864D-10
 Optimization completed.
    -- Stationary point found.
                           ----------------------------
                           !   Optimized Parameters   !
                           ! (Angstroms and Degrees)  !
 --------------------------                            --------------------------
 ! Name  Definition              Value          Derivative Info.                !
 --------------------------------------------------------------------------------
 ! R1    R(1,2)                  1.3303         -DE/DX =    0.0                 !
 ! R2    R(1,3)                  1.3215         -DE/DX =    0.0                 !
 ! R3    R(1,4)                  1.3326         -DE/DX =    0.0                 !
 ! R4    R(1,5)                  1.8928         -DE/DX =    0.0                 !
 ! R5    R(5,6)                  1.5582         -DE/DX =    0.0                 !
 ! R6    R(5,7)                  1.7867         -DE/DX =    0.0                 !
 ! R7    R(5,8)                  1.5963         -DE/DX =    0.0                 !
 ! R8    R(6,7)                  1.4955         -DE/DX =    0.0                 !
 ! R9    R(8,9)                  0.9667         -DE/DX =    0.0                 !
 ! A1    A(2,1,3)              109.0891         -DE/DX =    0.0                 !
 ! A2    A(2,1,4)              108.4053         -DE/DX =    0.0                 !
 ! A3    A(2,1,5)              109.1177         -DE/DX =    0.0                 !
 ! A4    A(3,1,4)              108.7651         -DE/DX =    0.0                 !
 ! A5    A(3,1,5)              114.431          -DE/DX =    0.0                 !
 ! A6    A(4,1,5)              106.8656         -DE/DX =    0.0                 !
 ! A7    A(1,5,6)               95.2509         -DE/DX =    0.0                 !
 ! A8    A(1,5,7)              145.5404         -DE/DX =    0.0                 !
 ! A9    A(1,5,8)               87.6351         -DE/DX =    0.0                 !
 ! A10   A(6,5,8)              110.5678         -DE/DX =    0.0                 !
 ! A11   A(7,5,8)               92.6783         -DE/DX =    0.0                 !
 ! A12   A(5,8,9)              108.2103         -DE/DX =    0.0                 !
 ! D1    D(2,1,5,6)            179.7775         -DE/DX =    0.0                 !
 ! D2    D(2,1,5,7)            160.6207         -DE/DX =    0.0                 !
 ! D3    D(2,1,5,8)             69.333          -DE/DX =    0.0                 !
 ! D4    D(3,1,5,6)             57.255          -DE/DX =    0.0                 !
 ! D5    D(3,1,5,7)             38.0982         -DE/DX =    0.0                 !
 ! D6    D(3,1,5,8)            -53.1895         -DE/DX =    0.0                 !
 ! D7    D(4,1,5,6)            -63.2044         -DE/DX =    0.0                 !
 ! D8    D(4,1,5,7)            -82.3612         -DE/DX =    0.0                 !
 ! D9    D(4,1,5,8)           -173.6489         -DE/DX =    0.0                 !
 ! D10   D(1,5,8,9)            170.0241         -DE/DX =    0.0                 !
 ! D11   D(6,5,8,9)             75.3014         -DE/DX =    0.0                 !
 ! D12   D(7,5,8,9)             24.5167         -DE/DX =    0.0                 !
 --------------------------------------------------------------------------------
 GradGradGradGradGradGradGradGradGradGradGradGradGradGradGradGradGradGrad

 Leave Link  103 at Sun May 25 04:31:03 2025, MaxMem=  3758096384 cpu:               0.1 elap:               0.1
 (Enter /apps/easybuild-2022/easybuild/software/Compiler/NVHPC/22.11-CUDA-11.7.0/Gaussian/g16c01-CUDA-11.7.0/g16/l9999.exe)

 ----------------------------------------------------------------------

 Electric dipole moment (input orientation):
 (Debye = 10**-18 statcoulomb cm , SI units = C m)
                  (au)            (Debye)         (10**-30 SI)
   Tot        0.863476D+00      0.219474D+01      0.732086D+01
   x          0.990834D-01      0.251845D+00      0.840064D+00
   y          0.607504D+00      0.154412D+01      0.515064D+01
   z         -0.605568D+00     -0.153920D+01     -0.513422D+01

 Dipole polarizability, Alpha (input orientation).
 (esu units = cm**3 , SI units = C**2 m**2 J**-1)
 Alpha(0;0):
               (au)            (10**-24 esu)      (10**-40 SI)
   iso        0.454499D+02      0.673498D+01      0.749368D+01
   aniso      0.187162D+02      0.277346D+01      0.308589D+01
   xx         0.567318D+02      0.840678D+01      0.935381D+01
   yx         0.361215D+00      0.535266D-01      0.595563D-01
   yy         0.424127D+02      0.628491D+01      0.699290D+01
   zx        -0.242258D+01     -0.358989D+00     -0.399429D+00
   zy        -0.292000D+01     -0.432699D+00     -0.481443D+00
   zz         0.372052D+02      0.551325D+01      0.613432D+01

 ----------------------------------------------------------------------

 Dipole orientation:
     6         -1.90621675         -0.18240065         -0.56403120
     9         -3.73606942          0.04667197          1.14432685
     9         -1.86651392         -2.53240949         -1.40819440
     9         -2.41648183          1.36079738         -2.48749079
    16          1.17813971          0.92775692          0.86704989
     8          2.79520195          0.40255702         -1.53717412
     8          4.54549632          0.83554313          0.63901701
     8          1.08996280         -1.51215458          2.63873214
     1          2.69841885         -1.65598386          3.49272520

 Electric dipole moment (dipole orientation):
 (Debye = 10**-18 statcoulomb cm , SI units = C m)
                  (au)            (Debye)         (10**-30 SI)
   Tot        0.863476D+00      0.219474D+01      0.732086D+01
   x          0.000000D+00      0.000000D+00      0.000000D+00
   y          0.000000D+00      0.000000D+00      0.000000D+00
   z          0.863476D+00      0.219474D+01      0.732086D+01

 Dipole polarizability, Alpha (dipole orientation).
 (esu units = cm**3 , SI units = C**2 m**2 J**-1)
 Alpha(0;0):
               (au)            (10**-24 esu)      (10**-40 SI)
   iso        0.454499D+02      0.673498D+01      0.749368D+01
   aniso      0.187162D+02      0.277346D+01      0.308589D+01
   xx         0.558885D+02      0.828183D+01      0.921477D+01
   yx         0.265782D+01      0.393848D+00      0.438215D+00
   yy         0.370914D+02      0.549638D+01      0.611555D+01
   zx         0.362068D+01      0.536530D+00      0.596970D+00
   zy        -0.223922D+01     -0.331818D+00     -0.369197D+00
   zz         0.433698D+02      0.642674D+01      0.715071D+01

 ----------------------------------------------------------------------
 Unable to Open any file for archive entry.
 1\1\GINC-SPARTAN-BM199\Freq\RM062X\def2TZVPP\C1H1F3O3S1\AKHALILOV\25-M
 ay-2025\0\\#P Geom=AllCheck Guess=TCheck SCRF=Check GenChk RM062X/def2
 TZVPP Freq\\Gaussian input prepared by ASE\\0,1\C,-1.0397491815,-0.093
 6855801,0.1614808968\F,-1.8910826581,0.5023447612,-0.6689223826\F,-1.1
 29173261,0.4727883711,1.3520995209\F,-1.3857263474,-1.3760186702,0.269
 7868917\S,0.6945661916,-0.0548845623,-0.5956484808\O,1.3844763255,-0.7
 935353018,0.5903327658\O,2.4465408389,-0.189740741,-0.2722141204\O,0.6
 945786452,1.5224285912,-0.3501141603\H,1.5873944468,1.8539521319,-0.51
 58289311\\Version=ES64L-G16RevC.01\HF=-961.9636567\RMSD=2.936e-09\RMSF
 =3.701e-06\ZeroPoint=0.0376657\Thermal=0.0455599\ETot=-961.9180968\HTo
 t=-961.9171526\GTot=-961.9589399\Dipole=0.0990834,0.6075044,-0.6055676
 \DipoleDeriv=1.5614197,0.0520322,0.0683305,0.120169,1.528991,-0.004422
 8,0.1712418,-0.0247232,1.4860836,-0.8354522,0.1923406,-0.2566786,0.201
 7794,-0.38016,0.1673035,-0.2564772,0.1624471,-0.5008172,-0.5081453,0.0
 467245,0.1753096,0.0642967,-0.3658451,-0.2468074,0.2695935,-0.2552433,
 -0.8439941,-0.5241323,-0.2706335,0.0627095,-0.2687008,-0.8647485,0.059
 4636,0.0709295,0.0856012,-0.2855175,2.1656066,-0.2432418,0.0820829,-0.
 2021337,1.5182303,-0.0997386,0.1999962,-0.0308697,0.8703375,-0.5855183
 ,0.1271991,-0.0235358,0.0276998,-0.291204,0.0627855,-0.0460499,0.26048
 76,-0.4448402,-1.0744023,0.1561285,-0.1111954,0.0889684,-0.3411749,-0.
 0061733,-0.419026,0.0002688,-0.2224832,-0.4960908,-0.1633742,-0.013417
 5,-0.0906243,-1.21321,0.0985534,-0.0211245,-0.155369,-0.3893292,0.2967
 149,0.1028246,0.0163948,0.0585455,0.4091212,-0.0309638,0.0309166,-0.04
 25995,0.3305603\Polar=56.731782,0.3612152,42.4126667,-2.4225758,-2.919
 9995,37.2052455\PG=Unknown\NImag=0\\0.52536519,-0.01082657,0.54730400,
 -0.00258538,0.01487825,0.56702960,-0.21128963,0.07696897,-0.09372647,0
 .20639990,0.07362412,-0.11339120,0.05376222,-0.10274278,0.15314787,-0.
 08987633,0.05244209,-0.14177194,0.14520353,-0.09913200,0.21382814,-0.0
 8520041,0.01858953,0.04535867,0.00737066,-0.00739568,-0.04280491,0.065
 90408,0.01768028,-0.11410275,-0.09465047,-0.00409908,0.01725144,0.0085
 7184,-0.00815822,0.15134392,0.04092570,-0.09374749,-0.28278911,-0.0247
 2523,-0.00132545,-0.06992078,-0.01146677,0.14342434,0.37457982,-0.1140
 7499,-0.08528436,0.01753886,0.01803355,0.03268393,-0.00998359,0.013002
 00,-0.00241860,-0.00588831,0.08866954,-0.08289267,-0.26926684,0.029254
 81,0.01556763,-0.05793579,0.03510205,-0.01220655,-0.05566653,-0.037035
 58,0.08540614,0.40280700,0.01573395,0.02918231,-0.07822612,-0.00256676
 ,0.04017110,-0.00459737,-0.01414531,-0.05380206,-0.00378300,-0.0027452
 2,-0.02801760,0.08099935,-0.12596115,0.01694723,0.07134507,-0.00335705
 ,0.00057520,-0.00218275,0.00543266,-0.00555830,-0.01109126,0.01196898,
 0.01015818,-0.00514465,0.38205592,-0.00350297,-0.01768014,-0.00012152,
 0.02030516,-0.00439646,0.00479143,0.01052718,-0.00469346,-0.01585969,-
 0.02541507,-0.02300443,0.01100978,-0.05261294,0.47218371,0.01724337,-0
 .01122186,-0.06887336,-0.02970276,0.00977350,-0.00044503,0.02836037,-0
 .00974724,-0.03089735,0.00214960,0.00225875,0.00523718,0.13062925,-0.0
 4998295,0.43938292,0.00012472,0.00616502,-0.02963922,-0.00791326,0.001
 79114,0.00178642,0.00122582,-0.00023596,0.00072760,-0.00424138,-0.0038
 5271,0.00281085,-0.11810019,0.07190615,-0.10695098,0.24592990,0.001388
 33,-0.00262470,0.00720124,0.00301426,-0.00022219,0.00046299,0.00046710
 ,0.00009966,-0.00130584,0.00258869,0.00429481,-0.00154649,0.08650924,-
 0.09430909,0.09200757,0.00037318,0.13966102,0.00537781,-0.00325377,-0.
 00258063,0.00364206,-0.00125911,0.00223908,-0.00054663,0.00056402,0.00
 279394,-0.00309582,-0.00336016,0.00159452,-0.14615142,0.12636031,-0.24
 657299,0.01463378,-0.17323171,0.30965753,0.01010008,0.01166612,0.00292
 231,-0.00707530,0.00089704,-0.00301247,-0.00817590,0.00288999,0.011582
 68,-0.00256798,-0.00523241,0.00053096,-0.07210957,0.00976747,-0.046494
 52,-0.11934630,-0.09806800,0.12525327,0.21518940,-0.00147143,0.0008917
 3,0.00211163,-0.00152780,0.00083015,-0.00090291,-0.00137143,0.00112498
 ,0.00225704,0.00037964,0.00177594,-0.00078830,-0.00868040,-0.03596468,
 0.00835773,-0.08971351,-0.04364515,0.04771942,0.06223067,0.08935384,0.
 00970761,0.00214692,0.00667454,0.00153559,-0.00062214,-0.00041514,-0.0
 0475491,0.00198374,0.00678387,-0.00230433,-0.00240388,-0.00012632,-0.0
 3677912,-0.00093164,-0.03864677,0.11562394,0.05689145,-0.08275233,-0.0
 8702177,-0.06109001,0.10694972,0.00109137,-0.03430366,-0.01212417,-0.0
 0311284,0.00063409,0.00084446,0.00008849,-0.00012993,0.00048357,-0.011
 51862,-0.00764666,0.00600490,-0.08784826,-0.02562691,0.00024333,0.0069
 0828,0.00367031,0.00322194,-0.00890850,0.03433570,0.00642082,0.5462520
 0,0.00542342,-0.02383044,-0.00936748,-0.00773984,0.00362173,-0.0012810
 9,-0.00135453,0.00402558,0.00411350,-0.00605126,-0.00205451,0.00263344
 ,-0.00325146,-0.26501769,-0.04547799,0.01134242,-0.00483760,0.00655735
 ,0.01330667,-0.01831767,0.00269799,0.15299799,0.38908301,0.00205501,0.
 00874705,0.00086356,0.00034015,-0.00088744,0.00106406,0.00017949,0.003
 41524,0.00305388,0.00410841,0.00365153,-0.00125919,0.00577994,-0.07180
 880,-0.06241461,-0.00087298,0.01813364,0.01691009,-0.00446279,0.005406
 36,0.00244433,-0.09071565,0.01411195,0.06325577,-0.00015517,0.00007773
 ,0.00091032,0.00094397,-0.00006706,0.00002566,0.00035260,0.00002984,-0
 .00054798,0.00072891,0.00069905,-0.00047872,0.00791866,-0.00534808,0.0
 0452235,-0.00458759,0.00005690,-0.00233498,-0.00710593,0.00581856,-0.0
 0242784,-0.44295193,-0.16467341,0.08358842,0.44485648,0.00057749,-0.00
 729966,-0.00306869,0.00025349,0.00109445,-0.00005440,0.00090261,0.0006
 1717,-0.00052084,-0.00188910,-0.00094965,0.00115784,-0.04408675,-0.027
 11776,0.00403250,0.00222427,0.00158323,-0.00009635,0.00254245,0.003950
 87,0.00132757,-0.12393093,-0.08267243,0.01923045,0.16340647,0.11079378
 ,0.00141827,0.00082650,-0.00032655,-0.00000012,-0.00048069,0.00001898,
 -0.00017999,0.00024060,0.00017873,0.00022039,0.00055009,0.00016095,-0.
 00640506,-0.00345692,0.00323001,0.00188059,0.00138714,-0.00128921,0.00
 070233,-0.00307097,-0.00091190,0.08562081,0.02601232,-0.02391789,-0.08
 325722,-0.02200807,0.02285688\\0.00000703,-0.00000126,-0.00000306,-0.0
 0000080,-0.00000237,0.00000039,0.00000018,-0.00000594,0.00000285,0.000
 00184,-0.00000534,-0.00000377,-0.00000397,0.00000072,-0.00000024,0.000
 00031,0.00000193,-0.00000412,0.00000103,0.00000829,-0.00000299,-0.0000
 0198,-0.00000042,0.00000621,-0.00000363,0.00000438,0.00000475\\\@
 The archive entry for this job was punched.


 It is also a good rule not to put too much confidence in
 experimental results until they have been confirmed by
 Theory.
                             -- Sir Arthur Eddington
 Job cpu time:       0 days  0 hours 13 minutes 36.3 seconds.
 Elapsed time:       0 days  0 hours  1 minutes 46.1 seconds.
 File lengths (MBytes):  RWF=     75 Int=      0 D2E=      0 Chk=      6 Scr=      1
 Normal termination of Gaussian 16 at Sun May 25 04:31:03 2025.
done
