 Entering Gaussian System, Link 0=g16
 Initial command:
 /apps/easybuild-2022/easybuild/software/Compiler/NVHPC/22.11-CUDA-11.7.0/Gaussian/g16c01-CUDA-11.7.0/g16/l1.exe "/tmp/Gau-33554.inp" -scrdir="/tmp/"
 Entering Link 1 = /apps/easybuild-2022/easybuild/software/Compiler/NVHPC/22.11-CUDA-11.7.0/Gaussian/g16c01-CUDA-11.7.0/g16/l1.exe PID=     33555.
  
 Copyright (c) 1988-2019, Gaussian, Inc.  All Rights Reserved.
  
 This is part of the Gaussian(R) 16 program.  It is based on
 the Gaussian(R) 09 system (copyright 2009, Gaussian, Inc.),
 the Gaussian(R) 03 system (copyright 2003, Gaussian, Inc.),
 the Gaussian(R) 98 system (copyright 1998, Gaussian, Inc.),
 the Gaussian(R) 94 system (copyright 1995, Gaussian, Inc.),
 the Gaussian 92(TM) system (copyright 1992, Gaussian, Inc.),
 the Gaussian 90(TM) system (copyright 1990, Gaussian, Inc.),
 the Gaussian 88(TM) system (copyright 1988, Gaussian, Inc.),
 the Gaussian 86(TM) system (copyright 1986, Carnegie Mellon
 University), and the Gaussian 82(TM) system (copyright 1983,
 Carnegie Mellon University). Gaussian is a federally registered
 trademark of Gaussian, Inc.
  
 This software contains proprietary and confidential information,
 including trade secrets, belonging to Gaussian, Inc.
  
 This software is provided under written license and may be
 used, copied, transmitted, or stored only in accord with that
 written license.
  
 The following legend is applicable only to US Government
 contracts under FAR:
  
                    RESTRICTED RIGHTS LEGEND
  
 Use, reproduction and disclosure by the US Government is
 subject to restrictions as set forth in subparagraphs (a)
 and (c) of the Commercial Computer Software - Restricted
 Rights clause in FAR 52.227-19.
  
 Gaussian, Inc.
 340 Quinnipiac St., Bldg. 40, Wallingford CT 06492
  
  
 ---------------------------------------------------------------
 Warning -- This program may not be used in any manner that
 competes with the business of Gaussian, Inc. or will provide
 assistance to any competitor of Gaussian, Inc.  The licensee
 of this program is prohibited from giving any competitor of
 Gaussian, Inc. access to this program.  By using this program,
 the user acknowledges that Gaussian, Inc. is engaged in the
 business of creating and licensing software in the field of
 computational chemistry and represents and warrants to the
 licensee that it is not a competitor of Gaussian, Inc. and that
 it will not use this program in any manner prohibited above.
 ---------------------------------------------------------------
  

 Cite this work as:
 Gaussian 16, Revision C.01,
 M. J. Frisch, G. W. Trucks, H. B. Schlegel, G. E. Scuseria, 
 M. A. Robb, J. R. Cheeseman, G. Scalmani, V. Barone, 
 G. A. Petersson, H. Nakatsuji, X. Li, M. Caricato, A. V. Marenich, 
 J. Bloino, B. G. Janesko, R. Gomperts, B. Mennucci, H. P. Hratchian, 
 J. V. Ortiz, A. F. Izmaylov, J. L. Sonnenberg, D. Williams-Young, 
 F. Ding, F. Lipparini, F. Egidi, J. Goings, B. Peng, A. Petrone, 
 T. Henderson, D. Ranasinghe, V. G. Zakrzewski, J. Gao, N. Rega, 
 G. Zheng, W. Liang, M. Hada, M. Ehara, K. Toyota, R. Fukuda, 
 J. Hasegawa, M. Ishida, T. Nakajima, Y. Honda, O. Kitao, H. Nakai, 
 T. Vreven, K. Throssell, J. A. Montgomery, Jr., J. E. Peralta, 
 F. Ogliaro, M. J. Bearpark, J. J. Heyd, E. N. Brothers, K. N. Kudin, 
 V. N. Staroverov, T. A. Keith, R. Kobayashi, J. Normand, 
 K. Raghavachari, A. P. Rendell, J. C. Burant, S. S. Iyengar, 
 J. Tomasi, M. Cossi, J. M. Millam, M. Klene, C. Adamo, R. Cammi, 
 J. W. Ochterski, R. L. Martin, K. Morokuma, O. Farkas, 
 J. B. Foresman, and D. J. Fox, Gaussian, Inc., Wallingford CT, 2019.
 
 ******************************************
 Gaussian 16:  ES64L-G16RevC.01  3-Jul-2019
                25-May-2025 
 ******************************************
 %mem=28GB
 %chk=1502984803620600000001_r13_insertion_ROR_2_1_5_6_IRC_F_prod
 %nprocshared=8
 Will use up to    8 processors via shared memory.
 -----------------------------------------------------------------
 #P M062X/Def2TZVPP Symm(None) scf(xqc) pop(None) freq opt(CalcFC)
 -----------------------------------------------------------------
 1/10=4,18=20,19=15,26=3,38=1/1,3;
 2/9=110,12=2,15=3,17=6,18=5,40=1/2;
 3/5=44,7=202,11=2,25=1,30=1,71=2,74=-55,140=1/1,2,3;
 4//1;
 5/5=2,8=3,13=1,38=5/2,8;
 8/6=4,10=90,11=11/1;
 11/6=1,8=1,9=11,15=111,16=1,31=1/1,2,10;
 10/6=1,13=1,31=1/2;
 7/10=1,25=1,30=1/1,2,3,16;
 1/10=4,18=20,19=15,26=3/3(2);
 2/9=110,15=3/2;
 99//99;
 2/9=110,15=3/2;
 3/5=44,7=202,11=2,25=1,30=1,71=1,74=-55/1,2,3;
 4/5=5,16=3,69=1/1;
 5/5=2,8=3,13=1,38=5/2,8;
 7/30=1/1,2,3,16;
 1/18=20,19=15,26=3/3(-5);
 2/9=110,15=3/2;
 99/9=1/99;
 Leave Link    1 at Sun May 25 04:52:37 2025, MaxMem=  3758096384 cpu:               0.0 elap:               0.0
 (Enter /apps/easybuild-2022/easybuild/software/Compiler/NVHPC/22.11-CUDA-11.7.0/Gaussian/g16c01-CUDA-11.7.0/g16/l101.exe)
 ------------------------------
 Gaussian input prepared by ASE
 ------------------------------
 Symbolic Z-matrix:
 Charge =  0 Multiplicity = 1
 C                    -0.31342  -0.93305   0.0366 
 F                    -1.86413  -0.32561   0.49195 
 F                     0.30337  -1.77007   0.84634 
 F                    -0.41656  -1.55568  -1.10481 
 S                     0.42218   0.79157   0.05334 
 O                    -0.62254   1.60842   0.49745 
 O                     1.68785   0.76147   0.69451 
 O                     0.57991   1.02612  -1.49184 
 H                     1.50208   0.93208  -1.76999 
 
 Add virtual bond connecting atoms F2         and C1         Dist= 3.26D+00.
 ITRead=  0  0  0  0  0  0  0  0  0
 MicOpt= -1 -1 -1 -1 -1 -1 -1 -1 -1
 NAtoms=      9 NQM=        9 NQMF=       0 NMMI=      0 NMMIF=      0
                NMic=       0 NMicF=      0.
                    Isotopes and Nuclear Properties:
 (Nuclear quadrupole moments (NQMom) in fm**2, nuclear magnetic moments (NMagM)
  in nuclear magnetons)

  Atom         1           2           3           4           5           6           7           8           9
 IAtWgt=          12          19          19          19          32          16          16          16           1
 AtmWgt=  12.0000000  18.9984032  18.9984032  18.9984032  31.9720718  15.9949146  15.9949146  15.9949146   1.0078250
 NucSpn=           0           1           1           1           0           0           0           0           1
 AtZEff=  -0.0000000  -0.0000000  -0.0000000  -0.0000000  -0.0000000  -0.0000000  -0.0000000  -0.0000000  -0.0000000
 NQMom=    0.0000000   0.0000000   0.0000000   0.0000000   0.0000000   0.0000000   0.0000000   0.0000000   0.0000000
 NMagM=    0.0000000   2.6288670   2.6288670   2.6288670   0.0000000   0.0000000   0.0000000   0.0000000   2.7928460
 AtZNuc=   6.0000000   9.0000000   9.0000000   9.0000000  16.0000000   8.0000000   8.0000000   8.0000000   1.0000000
 Leave Link  101 at Sun May 25 04:52:37 2025, MaxMem=  3758096384 cpu:               0.3 elap:               0.2
 (Enter /apps/easybuild-2022/easybuild/software/Compiler/NVHPC/22.11-CUDA-11.7.0/Gaussian/g16c01-CUDA-11.7.0/g16/l103.exe)

 GradGradGradGradGradGradGradGradGradGradGradGradGradGradGradGradGradGrad
 Berny optimization.
 Initialization pass.
                           ----------------------------
                           !    Initial Parameters    !
                           ! (Angstroms and Degrees)  !
 --------------------------                            --------------------------
 ! Name  Definition              Value          Derivative Info.                !
 --------------------------------------------------------------------------------
 ! R1    R(1,2)                  1.7266         calculate D2E/DX2 analytically  !
 ! R2    R(1,3)                  1.3178         calculate D2E/DX2 analytically  !
 ! R3    R(1,4)                  1.3043         calculate D2E/DX2 analytically  !
 ! R4    R(1,5)                  1.875          calculate D2E/DX2 analytically  !
 ! R5    R(5,6)                  1.3985         calculate D2E/DX2 analytically  !
 ! R6    R(5,7)                  1.4191         calculate D2E/DX2 analytically  !
 ! R7    R(5,8)                  1.5708         calculate D2E/DX2 analytically  !
 ! R8    R(8,9)                  0.9678         calculate D2E/DX2 analytically  !
 ! A1    A(2,1,3)              118.801          calculate D2E/DX2 analytically  !
 ! A2    A(2,1,4)              109.1314         calculate D2E/DX2 analytically  !
 ! A3    A(2,1,5)               91.513          calculate D2E/DX2 analytically  !
 ! A4    A(3,1,4)              105.7547         calculate D2E/DX2 analytically  !
 ! A5    A(3,1,5)              113.2716         calculate D2E/DX2 analytically  !
 ! A6    A(4,1,5)              118.5501         calculate D2E/DX2 analytically  !
 ! A7    A(1,5,6)              104.2997         calculate D2E/DX2 analytically  !
 ! A8    A(1,5,7)              109.5374         calculate D2E/DX2 analytically  !
 ! A9    A(1,5,8)               99.6684         calculate D2E/DX2 analytically  !
 ! A10   A(6,5,7)              122.3539         calculate D2E/DX2 analytically  !
 ! A11   A(6,5,8)              107.4677         calculate D2E/DX2 analytically  !
 ! A12   A(7,5,8)              110.9799         calculate D2E/DX2 analytically  !
 ! A13   A(5,8,9)              111.339          calculate D2E/DX2 analytically  !
 ! D1    D(2,1,5,6)              3.6806         calculate D2E/DX2 analytically  !
 ! D2    D(2,1,5,7)            136.2472         calculate D2E/DX2 analytically  !
 ! D3    D(2,1,5,8)           -107.2755         calculate D2E/DX2 analytically  !
 ! D4    D(3,1,5,6)           -118.7297         calculate D2E/DX2 analytically  !
 ! D5    D(3,1,5,7)             13.8369         calculate D2E/DX2 analytically  !
 ! D6    D(3,1,5,8)            130.3142         calculate D2E/DX2 analytically  !
 ! D7    D(4,1,5,6)            116.4863         calculate D2E/DX2 analytically  !
 ! D8    D(4,1,5,7)           -110.9471         calculate D2E/DX2 analytically  !
 ! D9    D(4,1,5,8)              5.5301         calculate D2E/DX2 analytically  !
 ! D10   D(1,5,8,9)           -103.9126         calculate D2E/DX2 analytically  !
 ! D11   D(6,5,8,9)            147.6496         calculate D2E/DX2 analytically  !
 ! D12   D(7,5,8,9)             11.4696         calculate D2E/DX2 analytically  !
 --------------------------------------------------------------------------------
 Trust Radius=3.00D-01 FncErr=1.00D-07 GrdErr=1.00D-06 EigMax=2.50D+02 EigMin=1.00D-04
 Number of steps in this run=     43 maximum allowed number of steps=    100.
 GradGradGradGradGradGradGradGradGradGradGradGradGradGradGradGradGradGrad

 Leave Link  103 at Sun May 25 04:52:37 2025, MaxMem=  3758096384 cpu:               0.1 elap:               0.0
 (Enter /apps/easybuild-2022/easybuild/software/Compiler/NVHPC/22.11-CUDA-11.7.0/Gaussian/g16c01-CUDA-11.7.0/g16/l202.exe)
                          Input orientation:                          
 ---------------------------------------------------------------------
 Center     Atomic      Atomic             Coordinates (Angstroms)
 Number     Number       Type             X           Y           Z
 ---------------------------------------------------------------------
      1          6           0       -0.313424   -0.933049    0.036598
      2          9           0       -1.864131   -0.325607    0.491950
      3          9           0        0.303370   -1.770069    0.846338
      4          9           0       -0.416555   -1.555684   -1.104807
      5         16           0        0.422182    0.791573    0.053343
      6          8           0       -0.622537    1.608423    0.497454
      7          8           0        1.687850    0.761474    0.694505
      8          8           0        0.579911    1.026118   -1.491839
      9          1           0        1.502083    0.932083   -1.769986
 ---------------------------------------------------------------------
                    Distance matrix (angstroms):
                    1          2          3          4          5
     1  C    0.000000
     2  F    1.726564   0.000000
     3  F    1.317845   2.628711   0.000000
     4  F    1.304268   2.481572   2.090746   0.000000
     5  S    1.875025   2.582188   2.684207   2.748528   0.000000
     6  O    2.601349   2.298273   3.520402   3.552639   1.398541
     7  O    2.703580   3.720127   2.889385   3.610438   1.419123
     8  O    2.640550   3.425773   3.655435   2.794359   1.570821
     9  H    3.168364   4.246120   3.947618   3.211327   2.123784
                    6          7          8          9
     6  O    0.000000
     7  O    2.468611   0.000000
     8  O    2.396299   2.465292   0.000000
     9  H    3.180052   2.477364   0.967786   0.000000
 Symmetry turned off by external request.
 Stoichiometry    CHF3O3S
 Rotational constants (GHZ):           2.4269940           1.5867701           1.4665969
 Leave Link  202 at Sun May 25 04:52:37 2025, MaxMem=  3758096384 cpu:               0.0 elap:               0.0
 (Enter /apps/easybuild-2022/easybuild/software/Compiler/NVHPC/22.11-CUDA-11.7.0/Gaussian/g16c01-CUDA-11.7.0/g16/l301.exe)
 Standard basis: def2TZVPP (5D, 7F)
 Ernie: Thresh=  0.10000D-02 Tol=  0.10000D-05 Strict=F.
   273 basis functions,   443 primitive gaussians,   315 cartesian basis functions
    37 alpha electrons       37 beta electrons
       nuclear repulsion energy       560.0932274430 Hartrees.
 IExCor= 4336 DFT=T Ex+Corr=M062X ExCW=0 ScaHFX=  0.540000
 ScaDFX=  1.000000  1.000000  1.000000  1.000000 ScalE2=  1.000000  1.000000
 IRadAn=      5 IRanWt=     -1 IRanGd=            0 ICorTp=0 IEmpDi=  4
 NAtoms=    9 NActive=    9 NUniq=    9 SFac= 1.00D+00 NAtFMM=   60 NAOKFM=F Big=F
 Integral buffers will be    131072 words long.
 Raffenetti 2 integral format.
 Two-electron integral symmetry is turned off.
 Leave Link  301 at Sun May 25 04:52:37 2025, MaxMem=  3758096384 cpu:               0.1 elap:               0.0
 (Enter /apps/easybuild-2022/easybuild/software/Compiler/NVHPC/22.11-CUDA-11.7.0/Gaussian/g16c01-CUDA-11.7.0/g16/l302.exe)
 NPDir=0 NMtPBC=     1 NCelOv=     1 NCel=       1 NClECP=     1 NCelD=      1
         NCelK=      1 NCelE2=     1 NClLst=     1 CellRange=     0.0.
 One-electron integrals computed using PRISM.
   1 Symmetry operations used in ECPInt.
 ECPInt:  NShTT=    4753 NPrTT=   15592 LenC2=    4578 LenP2D=   11441.
 LDataN:  DoStor=T MaxTD1= 6 Len=  172
 NBasis=   273 RedAO= T EigKep=  7.94D-04  NBF=   273
 NBsUse=   273 1.00D-06 EigRej= -1.00D+00 NBFU=   273
 Precomputing XC quadrature grid using
 IXCGrd= 4 IRadAn=           5 IRanWt=          -1 IRanGd=           0 AccXCQ= 0.00D+00.
 Generated NRdTot=       0 NPtTot=           0 NUsed=           0 NTot=          32
 NSgBfM=   312   312   312   312   312 MxSgAt=     9 MxSgA2=     9.
 Leave Link  302 at Sun May 25 04:52:37 2025, MaxMem=  3758096384 cpu:               0.8 elap:               0.2
 (Enter /apps/easybuild-2022/easybuild/software/Compiler/NVHPC/22.11-CUDA-11.7.0/Gaussian/g16c01-CUDA-11.7.0/g16/l303.exe)
 DipDrv:  MaxL=1.
 Leave Link  303 at Sun May 25 04:52:37 2025, MaxMem=  3758096384 cpu:               0.1 elap:               0.0
 (Enter /apps/easybuild-2022/easybuild/software/Compiler/NVHPC/22.11-CUDA-11.7.0/Gaussian/g16c01-CUDA-11.7.0/g16/l401.exe)
 ExpMin= 9.52D-02 ExpMax= 6.07D+04 ExpMxC= 2.07D+03 IAcc=3 IRadAn=         5 AccDes= 0.00D+00
 Harris functional with IExCor= 1009 and IRadAn=       5 diagonalized for initial guess.
 HarFok:  IExCor= 1009 AccDes= 0.00D+00 IRadAn=         5 IDoV= 1 UseB2=F ITyADJ=14
 ICtDFT=  3500011 ScaDFX=  1.000000  1.000000  1.000000  1.000000
 FoFCou: FMM=F IPFlag=           0 FMFlag=      100000 FMFlg1=           0
         NFxFlg=           0 DoJE=T BraDBF=F KetDBF=T FulRan=T
         wScrn=  0.000000 ICntrl=       500 IOpCl=  0 I1Cent=   200000004 NGrid=           0
         NMat0=    1 NMatS0=      1 NMatT0=    0 NMatD0=    1 NMtDS0=    0 NMtDT0=    0
 Symmetry not used in FoFCou.
 Harris En= -961.654897446121    
 JPrj=0 DoOrth=F DoCkMO=F.
 Leave Link  401 at Sun May 25 04:52:38 2025, MaxMem=  3758096384 cpu:               2.7 elap:               0.4
 (Enter /apps/easybuild-2022/easybuild/software/Compiler/NVHPC/22.11-CUDA-11.7.0/Gaussian/g16c01-CUDA-11.7.0/g16/l502.exe)
 Keep R1 ints in memory in canonical form, NReq=715214082.
 FoFCou: FMM=F IPFlag=           0 FMFlag=           0 FMFlg1=           0
         NFxFlg=           0 DoJE=F BraDBF=F KetDBF=F FulRan=T
         wScrn=  0.000000 ICntrl=       600 IOpCl=  0 I1Cent=           0 NGrid=           0
         NMat0=    1 NMatS0=  37401 NMatT0=    0 NMatD0=    1 NMtDS0=    0 NMtDT0=    0
 Symmetry not used in FoFCou.
 Two-electron integral symmetry not used.
 Closed shell SCF:
 Using DIIS extrapolation, IDIIS=  1040.
 NGot=  3758096384 LenX=  3058457086 LenY=  3058357420
 Requested convergence on RMS density matrix=1.00D-08 within  32 cycles.
 Requested convergence on MAX density matrix=1.00D-06.
 Requested convergence on             energy=1.00D-06.
 No special actions if energy rises.
 Integral accuracy reduced to 1.0D-05 until final iterations.

 Cycle   1  Pass 0  IDiag  1:
 E= -961.683833925409    
 DIIS: error= 2.92D-02 at cycle   1 NSaved=   1.
 NSaved= 1 IEnMin= 1 EnMin= -961.683833925409     IErMin= 1 ErrMin= 2.92D-02
 ErrMax= 2.92D-02  0.00D+00 EMaxC= 1.00D-01 BMatC= 6.15D-01 BMatP= 6.15D-01
 IDIUse=3 WtCom= 7.08D-01 WtEn= 2.92D-01
 Coeff-Com:  0.100D+01
 Coeff-En:   0.100D+01
 Coeff:      0.100D+01
 Gap=     0.343 Goal=   None    Shift=    0.000
 GapD=    0.343 DampG=1.000 DampE=0.500 DampFc=0.5000 IDamp=-1.
 Damping current iteration by 5.00D-01
 RMSDP=3.64D-03 MaxDP=2.80D-01              OVMax= 2.76D-01

 Cycle   2  Pass 0  IDiag  1:
 E= -961.751598965293     Delta-E=       -0.067765039884 Rises=F Damp=T
 DIIS: error= 1.14D-02 at cycle   2 NSaved=   2.
 NSaved= 2 IEnMin= 2 EnMin= -961.751598965293     IErMin= 2 ErrMin= 1.14D-02
 ErrMax= 1.14D-02  0.00D+00 EMaxC= 1.00D-01 BMatC= 8.89D-02 BMatP= 6.15D-01
 IDIUse=3 WtCom= 8.86D-01 WtEn= 1.14D-01
 Coeff-Com:  0.203D+00 0.797D+00
 Coeff-En:   0.408D+00 0.592D+00
 Coeff:      0.227D+00 0.773D+00
 Gap=     0.377 Goal=   None    Shift=    0.000
 RMSDP=8.35D-04 MaxDP=5.25D-02 DE=-6.78D-02 OVMax= 2.08D-01

 Cycle   3  Pass 0  IDiag  1:
 E= -962.026245280588     Delta-E=       -0.274646315295 Rises=F Damp=F
 DIIS: error= 8.61D-03 at cycle   3 NSaved=   3.
 NSaved= 3 IEnMin= 3 EnMin= -962.026245280588     IErMin= 3 ErrMin= 8.61D-03
 ErrMax= 8.61D-03  0.00D+00 EMaxC= 1.00D-01 BMatC= 2.03D-02 BMatP= 8.89D-02
 IDIUse=3 WtCom= 9.14D-01 WtEn= 8.61D-02
 Coeff-Com:  0.123D-01 0.293D+00 0.695D+00
 Coeff-En:   0.000D+00 0.000D+00 0.100D+01
 Coeff:      0.113D-01 0.268D+00 0.721D+00
 Gap=     0.402 Goal=   None    Shift=    0.000
 RMSDP=4.02D-04 MaxDP=2.13D-02 DE=-2.75D-01 OVMax= 4.33D-02

 Cycle   4  Pass 0  IDiag  1:
 E= -962.035417362025     Delta-E=       -0.009172081437 Rises=F Damp=F
 DIIS: error= 3.79D-03 at cycle   4 NSaved=   4.
 NSaved= 4 IEnMin= 4 EnMin= -962.035417362025     IErMin= 4 ErrMin= 3.79D-03
 ErrMax= 3.79D-03  0.00D+00 EMaxC= 1.00D-01 BMatC= 8.27D-03 BMatP= 2.03D-02
 IDIUse=3 WtCom= 9.62D-01 WtEn= 3.79D-02
 Coeff-Com: -0.226D-01 0.540D-01 0.418D+00 0.551D+00
 Coeff-En:   0.000D+00 0.000D+00 0.264D+00 0.736D+00
 Coeff:     -0.217D-01 0.520D-01 0.412D+00 0.558D+00
 Gap=     0.394 Goal=   None    Shift=    0.000
 RMSDP=1.64D-04 MaxDP=7.64D-03 DE=-9.17D-03 OVMax= 1.40D-02

 Cycle   5  Pass 0  IDiag  1:
 E= -962.040383859841     Delta-E=       -0.004966497816 Rises=F Damp=F
 DIIS: error= 4.36D-04 at cycle   5 NSaved=   5.
 NSaved= 5 IEnMin= 5 EnMin= -962.040383859841     IErMin= 5 ErrMin= 4.36D-04
 ErrMax= 4.36D-04  0.00D+00 EMaxC= 1.00D-01 BMatC= 1.49D-04 BMatP= 8.27D-03
 IDIUse=3 WtCom= 9.96D-01 WtEn= 4.36D-03
 Coeff-Com: -0.672D-02 0.596D-02 0.110D+00 0.198D+00 0.693D+00
 Coeff-En:   0.000D+00 0.000D+00 0.000D+00 0.000D+00 0.100D+01
 Coeff:     -0.669D-02 0.593D-02 0.110D+00 0.197D+00 0.694D+00
 Gap=     0.394 Goal=   None    Shift=    0.000
 RMSDP=3.49D-05 MaxDP=1.74D-03 DE=-4.97D-03 OVMax= 3.60D-03

 Cycle   6  Pass 0  IDiag  1:
 E= -962.040479626093     Delta-E=       -0.000095766252 Rises=F Damp=F
 DIIS: error= 2.49D-04 at cycle   6 NSaved=   6.
 NSaved= 6 IEnMin= 6 EnMin= -962.040479626093     IErMin= 6 ErrMin= 2.49D-04
 ErrMax= 2.49D-04  0.00D+00 EMaxC= 1.00D-01 BMatC= 3.26D-05 BMatP= 1.49D-04
 IDIUse=3 WtCom= 9.98D-01 WtEn= 2.49D-03
 Coeff-Com: -0.142D-02-0.169D-02 0.167D-01 0.439D-01 0.356D+00 0.586D+00
 Coeff-En:   0.000D+00 0.000D+00 0.000D+00 0.000D+00 0.449D-01 0.955D+00
 Coeff:     -0.142D-02-0.169D-02 0.167D-01 0.438D-01 0.356D+00 0.587D+00
 Gap=     0.394 Goal=   None    Shift=    0.000
 RMSDP=1.27D-05 MaxDP=5.23D-04 DE=-9.58D-05 OVMax= 1.12D-03

 Cycle   7  Pass 0  IDiag  1:
 E= -962.040501139181     Delta-E=       -0.000021513088 Rises=F Damp=F
 DIIS: error= 6.79D-05 at cycle   7 NSaved=   7.
 NSaved= 7 IEnMin= 7 EnMin= -962.040501139181     IErMin= 7 ErrMin= 6.79D-05
 ErrMax= 6.79D-05  0.00D+00 EMaxC= 1.00D-01 BMatC= 2.63D-06 BMatP= 3.26D-05
 IDIUse=1 WtCom= 1.00D+00 WtEn= 0.00D+00
 Coeff-Com:  0.390D-03-0.170D-02-0.124D-01-0.187D-01 0.347D-01 0.223D+00
 Coeff-Com:  0.775D+00
 Coeff:      0.390D-03-0.170D-02-0.124D-01-0.187D-01 0.347D-01 0.223D+00
 Coeff:      0.775D+00
 Gap=     0.394 Goal=   None    Shift=    0.000
 RMSDP=5.57D-06 MaxDP=1.48D-04 DE=-2.15D-05 OVMax= 5.38D-04

 Initial convergence to 1.0D-05 achieved.  Increase integral accuracy.
 Cycle   8  Pass 1  IDiag  1:
 E= -962.040504469296     Delta-E=       -0.000003330115 Rises=F Damp=F
 DIIS: error= 2.70D-05 at cycle   1 NSaved=   1.
 NSaved= 1 IEnMin= 1 EnMin= -962.040504469296     IErMin= 1 ErrMin= 2.70D-05
 ErrMax= 2.70D-05  0.00D+00 EMaxC= 1.00D-01 BMatC= 7.55D-07 BMatP= 7.55D-07
 IDIUse=1 WtCom= 1.00D+00 WtEn= 0.00D+00
 Coeff-Com:  0.100D+01
 Coeff:      0.100D+01
 Gap=     0.394 Goal=   None    Shift=    0.000
 RMSDP=5.57D-06 MaxDP=1.48D-04 DE=-3.33D-06 OVMax= 2.56D-04

 Cycle   9  Pass 1  IDiag  1:
 E= -962.040504873684     Delta-E=       -0.000000404387 Rises=F Damp=F
 DIIS: error= 2.27D-05 at cycle   2 NSaved=   2.
 NSaved= 2 IEnMin= 2 EnMin= -962.040504873684     IErMin= 2 ErrMin= 2.27D-05
 ErrMax= 2.27D-05  0.00D+00 EMaxC= 1.00D-01 BMatC= 4.10D-07 BMatP= 7.55D-07
 IDIUse=1 WtCom= 1.00D+00 WtEn= 0.00D+00
 Coeff-Com:  0.396D+00 0.604D+00
 Coeff:      0.396D+00 0.604D+00
 Gap=     0.394 Goal=   None    Shift=    0.000
 RMSDP=1.74D-06 MaxDP=8.61D-05 DE=-4.04D-07 OVMax= 1.57D-04

 Cycle  10  Pass 1  IDiag  1:
 E= -962.040505088188     Delta-E=       -0.000000214505 Rises=F Damp=F
 DIIS: error= 1.14D-05 at cycle   3 NSaved=   3.
 NSaved= 3 IEnMin= 3 EnMin= -962.040505088188     IErMin= 3 ErrMin= 1.14D-05
 ErrMax= 1.14D-05  0.00D+00 EMaxC= 1.00D-01 BMatC= 9.84D-08 BMatP= 4.10D-07
 IDIUse=1 WtCom= 1.00D+00 WtEn= 0.00D+00
 Coeff-Com: -0.224D-01 0.318D+00 0.704D+00
 Coeff:     -0.224D-01 0.318D+00 0.704D+00
 Gap=     0.394 Goal=   None    Shift=    0.000
 RMSDP=8.01D-07 MaxDP=2.88D-05 DE=-2.15D-07 OVMax= 7.08D-05

 Cycle  11  Pass 1  IDiag  1:
 E= -962.040505156112     Delta-E=       -0.000000067923 Rises=F Damp=F
 DIIS: error= 2.65D-06 at cycle   4 NSaved=   4.
 NSaved= 4 IEnMin= 4 EnMin= -962.040505156112     IErMin= 4 ErrMin= 2.65D-06
 ErrMax= 2.65D-06  0.00D+00 EMaxC= 1.00D-01 BMatC= 5.64D-09 BMatP= 9.84D-08
 IDIUse=1 WtCom= 1.00D+00 WtEn= 0.00D+00
 Coeff-Com: -0.280D-01 0.115D+00 0.320D+00 0.594D+00
 Coeff:     -0.280D-01 0.115D+00 0.320D+00 0.594D+00
 Gap=     0.394 Goal=   None    Shift=    0.000
 RMSDP=1.97D-07 MaxDP=7.12D-06 DE=-6.79D-08 OVMax= 2.47D-05

 Cycle  12  Pass 1  IDiag  1:
 E= -962.040505160463     Delta-E=       -0.000000004351 Rises=F Damp=F
 DIIS: error= 8.20D-07 at cycle   5 NSaved=   5.
 NSaved= 5 IEnMin= 5 EnMin= -962.040505160463     IErMin= 5 ErrMin= 8.20D-07
 ErrMax= 8.20D-07  0.00D+00 EMaxC= 1.00D-01 BMatC= 6.14D-10 BMatP= 5.64D-09
 IDIUse=1 WtCom= 1.00D+00 WtEn= 0.00D+00
 Coeff-Com: -0.701D-02-0.849D-02 0.709D-02 0.217D+00 0.791D+00
 Coeff:     -0.701D-02-0.849D-02 0.709D-02 0.217D+00 0.791D+00
 Gap=     0.394 Goal=   None    Shift=    0.000
 RMSDP=9.17D-08 MaxDP=2.61D-06 DE=-4.35D-09 OVMax= 8.86D-06

 Cycle  13  Pass 1  IDiag  1:
 E= -962.040505161122     Delta-E=       -0.000000000659 Rises=F Damp=F
 DIIS: error= 5.43D-07 at cycle   6 NSaved=   6.
 NSaved= 6 IEnMin= 6 EnMin= -962.040505161122     IErMin= 6 ErrMin= 5.43D-07
 ErrMax= 5.43D-07  0.00D+00 EMaxC= 1.00D-01 BMatC= 9.45D-11 BMatP= 6.14D-10
 IDIUse=1 WtCom= 1.00D+00 WtEn= 0.00D+00
 Coeff-Com:  0.287D-02-0.265D-01-0.602D-01-0.233D-01 0.311D+00 0.797D+00
 Coeff:      0.287D-02-0.265D-01-0.602D-01-0.233D-01 0.311D+00 0.797D+00
 Gap=     0.394 Goal=   None    Shift=    0.000
 RMSDP=4.48D-08 MaxDP=2.38D-06 DE=-6.59D-10 OVMax= 7.36D-06

 Cycle  14  Pass 1  IDiag  1:
 E= -962.040505161191     Delta-E=       -0.000000000069 Rises=F Damp=F
 DIIS: error= 2.38D-07 at cycle   7 NSaved=   7.
 NSaved= 7 IEnMin= 7 EnMin= -962.040505161191     IErMin= 7 ErrMin= 2.38D-07
 ErrMax= 2.38D-07  0.00D+00 EMaxC= 1.00D-01 BMatC= 2.01D-11 BMatP= 9.45D-11
 IDIUse=1 WtCom= 1.00D+00 WtEn= 0.00D+00
 Coeff-Com:  0.212D-02-0.151D-01-0.358D-01-0.273D-01 0.118D+00 0.438D+00
 Coeff-Com:  0.520D+00
 Coeff:      0.212D-02-0.151D-01-0.358D-01-0.273D-01 0.118D+00 0.438D+00
 Coeff:      0.520D+00
 Gap=     0.394 Goal=   None    Shift=    0.000
 RMSDP=1.13D-08 MaxDP=5.85D-07 DE=-6.87D-11 OVMax= 1.25D-06

 Cycle  15  Pass 1  IDiag  1:
 E= -962.040505161205     Delta-E=       -0.000000000015 Rises=F Damp=F
 DIIS: error= 8.07D-08 at cycle   8 NSaved=   8.
 NSaved= 8 IEnMin= 8 EnMin= -962.040505161205     IErMin= 8 ErrMin= 8.07D-08
 ErrMax= 8.07D-08  0.00D+00 EMaxC= 1.00D-01 BMatC= 1.36D-12 BMatP= 2.01D-11
 IDIUse=1 WtCom= 1.00D+00 WtEn= 0.00D+00
 Coeff-Com: -0.503D-04 0.205D-02 0.408D-02-0.248D-02-0.415D-01-0.497D-01
 Coeff-Com:  0.170D+00 0.918D+00
 Coeff:     -0.503D-04 0.205D-02 0.408D-02-0.248D-02-0.415D-01-0.497D-01
 Coeff:      0.170D+00 0.918D+00
 Gap=     0.394 Goal=   None    Shift=    0.000
 RMSDP=5.70D-09 MaxDP=3.05D-07 DE=-1.48D-11 OVMax= 6.20D-07

 SCF Done:  E(RM062X) =  -962.040505161     A.U. after   15 cycles
            NFock= 15  Conv=0.57D-08     -V/T= 2.0030
 KE= 9.591236235346D+02 PE=-3.402013596282D+03 EE= 9.207562401434D+02
 Leave Link  502 at Sun May 25 04:52:57 2025, MaxMem=  3758096384 cpu:              78.8 elap:              19.0
 (Enter /apps/easybuild-2022/easybuild/software/Compiler/NVHPC/22.11-CUDA-11.7.0/Gaussian/g16c01-CUDA-11.7.0/g16/l508.exe)
 QCSCF skips out because SCF is already converged.
 Leave Link  508 at Sun May 25 04:52:57 2025, MaxMem=  3758096384 cpu:               0.1 elap:               0.0
 (Enter /apps/easybuild-2022/easybuild/software/Compiler/NVHPC/22.11-CUDA-11.7.0/Gaussian/g16c01-CUDA-11.7.0/g16/l801.exe)
 DoSCS=F DFT=T ScalE2(SS,OS)=  1.000000  1.000000
 Range of M.O.s used for correlation:     1   273
 NBasis=   273 NAE=    37 NBE=    37 NFC=     0 NFV=     0
 NROrb=    273 NOA=    37 NOB=    37 NVA=   236 NVB=   236

 **** Warning!!: The largest alpha MO coefficient is  0.10232987D+02

 Leave Link  801 at Sun May 25 04:52:57 2025, MaxMem=  3758096384 cpu:               0.1 elap:               0.0
 (Enter /apps/easybuild-2022/easybuild/software/Compiler/NVHPC/22.11-CUDA-11.7.0/Gaussian/g16c01-CUDA-11.7.0/g16/l1101.exe)
 Using compressed storage, NAtomX=     9.
 Will process     10 centers per pass.
   1 Symmetry operations used in ECPInt.
 ECPInt:  NShTT=    4753 NPrTT=   15592 LenC2=    4578 LenP2D=   11441.
 LDataN:  DoStor=T MaxTD1= 7 Len=  274
 Leave Link 1101 at Sun May 25 04:52:57 2025, MaxMem=  3758096384 cpu:               1.1 elap:               0.2
 (Enter /apps/easybuild-2022/easybuild/software/Compiler/NVHPC/22.11-CUDA-11.7.0/Gaussian/g16c01-CUDA-11.7.0/g16/l1102.exe)
 Symmetrizing basis deriv contribution to polar:
 IMax=3 JMax=2 DiffMx= 0.00D+00
 Leave Link 1102 at Sun May 25 04:52:57 2025, MaxMem=  3758096384 cpu:               0.1 elap:               0.0
 (Enter /apps/easybuild-2022/easybuild/software/Compiler/NVHPC/22.11-CUDA-11.7.0/Gaussian/g16c01-CUDA-11.7.0/g16/l1110.exe)
 Forming Gx(P) for the SCF density, NAtomX=     9.
 Integral derivatives from FoFJK, PRISM(SPDF).
 Do as many integral derivatives as possible in FoFJK.
 G2DrvN: MDV=    3758095321.
 G2DrvN: will do    10 centers at a time, making    1 passes.
 Calling FoFCou, ICntrl=  3107 FMM=F I1Cent=   0 AccDes= 0.00D+00.
 FoFJK:  IHMeth= 1 ICntrl=    3107 DoSepK=F KAlg= 0 I1Cent=           0 FoldK=F
 IRaf=         0 NMat=       1 IRICut=       1 DoRegI=T DoRafI=F ISym2E= 0 IDoP0=0 IntGTp=1.
 FoFCou: FMM=F IPFlag=           0 FMFlag=      100000 FMFlg1=           0
         NFxFlg=           0 DoJE=F BraDBF=F KetDBF=F FulRan=T
         wScrn=  0.000000 ICntrl=      3107 IOpCl=  0 I1Cent=           0 NGrid=           0
         NMat0=    1 NMatS0=      1 NMatT0=    0 NMatD0=    1 NMtDS0=    0 NMtDT0=    0
 Symmetry not used in FoFCou.
 End of G2Drv F.D. properties file   721 does not exist.
 End of G2Drv F.D. properties file   722 does not exist.
 End of G2Drv F.D. properties file   788 does not exist.
 Leave Link 1110 at Sun May 25 04:53:21 2025, MaxMem=  3758096384 cpu:             183.5 elap:              23.3
 (Enter /apps/easybuild-2022/easybuild/software/Compiler/NVHPC/22.11-CUDA-11.7.0/Gaussian/g16c01-CUDA-11.7.0/g16/l1002.exe)
 Minotr:  Closed shell wavefunction.
          IDoAtm=111111111
          Direct CPHF calculation.
          Differentiating once with respect to nuclear coordinates.
          Requested convergence is 1.0D-08 RMS, and 1.0D-07 maximum.
          Secondary convergence is 1.0D-12 RMS, and 1.0D-12 maximum.
          NewPWx=T KeepS1=F KeepF1=F KeepIn=T MapXYZ=F SortEE=F KeepMc=T.
         2683 words used for storage of precomputed grid.
 Keep R1 ints in memory in canonical form, NReq=715218544.
 FoFCou: FMM=F IPFlag=           0 FMFlag=           0 FMFlg1=           0
         NFxFlg=           0 DoJE=F BraDBF=F KetDBF=F FulRan=T
         wScrn=  0.000000 ICntrl=       600 IOpCl=  0 I1Cent=           0 NGrid=           0
         NMat0=    1 NMatS0=  37401 NMatT0=    0 NMatD0=    1 NMtDS0=    0 NMtDT0=    0
 Symmetry not used in FoFCou.
 Two-electron integral symmetry not used.
          MDV=    3758096384 using IRadAn=       1.
          Solving linear equations simultaneously, MaxMat=       0.
          There are    30 degrees of freedom in the 1st order CPHF.  IDoFFX=6 NUNeed=     0.
     24 vectors produced by pass  0 Test12= 2.91D-14 3.33D-09 XBig12= 2.00D-01 9.30D-02.
 AX will form    24 AO Fock derivatives at one time.
     24 vectors produced by pass  1 Test12= 2.91D-14 3.33D-09 XBig12= 1.93D-02 5.06D-02.
     24 vectors produced by pass  2 Test12= 2.91D-14 3.33D-09 XBig12= 1.51D-03 9.08D-03.
     24 vectors produced by pass  3 Test12= 2.91D-14 3.33D-09 XBig12= 3.94D-05 1.28D-03.
     24 vectors produced by pass  4 Test12= 2.91D-14 3.33D-09 XBig12= 6.10D-07 1.15D-04.
     24 vectors produced by pass  5 Test12= 2.91D-14 3.33D-09 XBig12= 7.20D-09 2.04D-05.
     24 vectors produced by pass  6 Test12= 2.91D-14 3.33D-09 XBig12= 8.13D-11 1.51D-06.
     17 vectors produced by pass  7 Test12= 2.91D-14 3.33D-09 XBig12= 6.65D-13 1.07D-07.
      4 vectors produced by pass  8 Test12= 2.91D-14 3.33D-09 XBig12= 4.45D-15 1.00D-08.
 InvSVY:  IOpt=1 It=  1 EMax= 1.67D-15
 Solved reduced A of dimension   189 with    24 vectors.
 End of Minotr F.D. properties file   721 does not exist.
 End of Minotr F.D. properties file   722 does not exist.
 End of Minotr F.D. properties file   788 does not exist.
 Leave Link 1002 at Sun May 25 04:53:53 2025, MaxMem=  3758096384 cpu:             255.1 elap:              32.7
 (Enter /apps/easybuild-2022/easybuild/software/Compiler/NVHPC/22.11-CUDA-11.7.0/Gaussian/g16c01-CUDA-11.7.0/g16/l701.exe)
 ... and contract with generalized density number  0.
 Compute integral second derivatives.
   1 Symmetry operations used in ECPInt.
 ECPInt:  NShTT=    4753 NPrTT=   15592 LenC2=    4578 LenP2D=   11441.
 LDataN:  DoStor=T MaxTD1= 8 Len=  415
 Leave Link  701 at Sun May 25 04:53:54 2025, MaxMem=  3758096384 cpu:               1.2 elap:               0.2
 (Enter /apps/easybuild-2022/easybuild/software/Compiler/NVHPC/22.11-CUDA-11.7.0/Gaussian/g16c01-CUDA-11.7.0/g16/l702.exe)
 L702 exits ... SP integral derivatives will be done elsewhere.
 Leave Link  702 at Sun May 25 04:53:54 2025, MaxMem=  3758096384 cpu:               0.1 elap:               0.0
 (Enter /apps/easybuild-2022/easybuild/software/Compiler/NVHPC/22.11-CUDA-11.7.0/Gaussian/g16c01-CUDA-11.7.0/g16/l703.exe)
 Integral derivatives from FoFJK, PRISM(SPDF).
 Compute integral second derivatives, UseDBF=F ICtDFT=           0.
 Calling FoFJK, ICntrl=    100127 FMM=F ISym2X=0 I1Cent= 0 IOpClX= 0 NMat=1 NMatS=1 NMatT=0.
 FoFJK:  IHMeth= 1 ICntrl=  100127 DoSepK=F KAlg= 0 I1Cent=           0 FoldK=F
 IRaf=         0 NMat=       1 IRICut=       1 DoRegI=T DoRafI=F ISym2E= 0 IDoP0=0 IntGTp=1.
 FoFCou: FMM=F IPFlag=           0 FMFlag=      100000 FMFlg1=         800
         NFxFlg=           0 DoJE=F BraDBF=F KetDBF=F FulRan=T
         wScrn=  0.000000 ICntrl=    100127 IOpCl=  0 I1Cent=           0 NGrid=           0
         NMat0=    1 NMatS0=      1 NMatT0=    0 NMatD0=    1 NMtDS0=    0 NMtDT0=    0
 Symmetry not used in FoFCou.
 Leave Link  703 at Sun May 25 04:54:45 2025, MaxMem=  3758096384 cpu:             401.0 elap:              51.1
 (Enter /apps/easybuild-2022/easybuild/software/Compiler/NVHPC/22.11-CUDA-11.7.0/Gaussian/g16c01-CUDA-11.7.0/g16/l716.exe)
 Dipole        = 1.17614564D+00-5.50741129D-01-1.13362016D+00
 Polarizability= 0.00000000D+00 0.00000000D+00 0.00000000D+00
                 0.00000000D+00 0.00000000D+00 0.00000000D+00
 -------------------------------------------------------------------
 Center     Atomic                   Forces (Hartrees/Bohr)
 Number     Number              X              Y              Z
 -------------------------------------------------------------------
      1        6          -0.047803010    0.019502766    0.013970727
      2        9           0.079536339   -0.073193884   -0.022675448
      3        9          -0.027944548    0.022996092    0.004581775
      4        9          -0.012795358    0.018017089    0.007194468
      5       16          -0.003759146    0.005102815    0.001989536
      6        8           0.006228698    0.020235162    0.001276347
      7        8           0.002123947   -0.009029268   -0.006621378
      8        8           0.004126299   -0.002750261   -0.000070299
      9        1           0.000286778   -0.000880511    0.000354272
 -------------------------------------------------------------------
 Cartesian Forces:  Max     0.079536339 RMS     0.025515790
 Force constants in Cartesian coordinates: 
                1             2             3             4             5 
      1  0.226155D+00
      2  0.499294D-01  0.538052D+00
      3  0.112629D+00  0.754703D-02  0.543145D+00
      4  0.124306D-01 -0.594355D-01 -0.216525D-01  0.379792D-01
      5 -0.496084D-01 -0.364333D-01  0.154054D-01  0.562592D-01  0.752778D-01
      6 -0.214446D-01  0.166920D-01 -0.528754D-01  0.342133D-02 -0.442719D-02
      7 -0.111852D+00  0.712345D-01 -0.679439D-01 -0.926499D-02  0.149142D-01
      8  0.616148D-01 -0.210230D+00  0.109450D+00  0.103285D-01 -0.151955D-02
      9 -0.537011D-01  0.100798D+00 -0.164918D+00 -0.851907D-02  0.239970D-03
     10 -0.724562D-01 -0.196589D-01 -0.247027D-01  0.352545D-03  0.142784D-01
     11 -0.232459D-01 -0.165952D+00 -0.134043D+00  0.902577D-02 -0.223075D-02
     12 -0.363541D-01 -0.127483D+00 -0.279085D+00  0.157515D-01 -0.133487D-01
     13 -0.419088D-01 -0.615028D-01 -0.248860D-02 -0.303798D-01 -0.168506D-03
     14 -0.655776D-01 -0.143152D+00  0.396254D-03  0.192353D-01 -0.149869D-01
     15  0.675050D-03  0.808623D-02 -0.267183D-01  0.861432D-02 -0.321855D-02
     16 -0.142136D-01 -0.470179D-02  0.495589D-02 -0.525266D-02 -0.313819D-01
     17  0.295039D-01  0.165011D-02 -0.110220D-01 -0.206747D-01 -0.231510D-01
     18  0.987805D-02 -0.377158D-03  0.304136D-02  0.122105D-03  0.374891D-02
     19 -0.423655D-02  0.228285D-01 -0.120925D-01 -0.516157D-02 -0.390167D-02
     20 -0.506978D-02  0.997554D-02 -0.692955D-02 -0.788864D-02  0.211933D-02
     21 -0.441705D-02  0.957883D-02 -0.159667D-02 -0.334431D-02 -0.107266D-02
     22  0.676146D-02  0.272470D-02  0.116846D-01 -0.174947D-02 -0.585395D-03
     23  0.239538D-02  0.465775D-02  0.139808D-01 -0.648434D-02  0.113246D-02
     24 -0.705429D-02 -0.167810D-01 -0.201133D-01  0.621803D-02  0.284304D-02
     25 -0.679300D-03 -0.141808D-02 -0.389740D-03  0.104605D-02  0.193998D-03
     26  0.582355D-04  0.143244D-02  0.521594D-02 -0.365620D-03 -0.208196D-03
     27 -0.211228D-03  0.193912D-02 -0.880159D-03 -0.611380D-03 -0.170172D-03
                6             7             8             9            10 
      6  0.473417D-01
      7 -0.809862D-02  0.114447D+00
      8 -0.788114D-03 -0.889052D-01  0.204098D+00
      9  0.823246D-02  0.113322D+00 -0.134015D+00  0.251327D+00
     10  0.187618D-01  0.289076D-02  0.766862D-03 -0.430515D-01  0.646371D-01
     11 -0.881259D-02  0.591484D-02  0.262957D-01  0.241287D-01  0.990997D-02
     12 -0.102488D-01 -0.385202D-01  0.336574D-02 -0.926291D-01  0.587220D-01
     13  0.848079D-02 -0.319383D-02  0.286553D-01 -0.158632D-01  0.517754D-02
     14 -0.722026D-02  0.195719D-03 -0.153701D-02  0.438464D-02  0.122384D-02
     15 -0.678228D-03 -0.223679D-02  0.227073D-01 -0.531234D-02 -0.100506D-01
     16 -0.226803D-02  0.322444D-02 -0.348900D-04  0.755651D-03  0.213268D-02
     17  0.915532D-03 -0.138800D-02 -0.105039D-01  0.463158D-02 -0.466522D-02
     18  0.624496D-02 -0.539623D-03 -0.487456D-02  0.146072D-02 -0.905121D-03
     19  0.214971D-02  0.377402D-02 -0.667976D-02  0.491884D-02 -0.226177D-02
     20  0.258067D-02 -0.202987D-02  0.126908D-02 -0.214609D-02 -0.131773D-02
     21  0.109783D-02  0.287262D-02 -0.366295D-02  0.289632D-02  0.514471D-03
     22 -0.842857D-03  0.183361D-03 -0.721114D-02  0.263497D-02 -0.693839D-03
     23  0.132094D-02  0.956220D-04 -0.609774D-02  0.182023D-02 -0.821776D-03
     24  0.648516D-03  0.123981D-02  0.756630D-02 -0.731048D-03  0.620076D-03
     25 -0.159472D-03 -0.208623D-03  0.146553D-02 -0.496122D-03  0.221240D-03
     26 -0.261028D-03 -0.318226D-04 -0.177406D-02  0.157957D-03  0.284575D-03
     27  0.236965D-03 -0.948176D-04  0.251855D-03 -0.326500D-03  0.915198D-04
               11            12            13            14            15 
     11  0.151669D+00
     12  0.142556D+00  0.389754D+00
     13  0.730381D-02  0.730843D-02  0.123777D+01
     14  0.651137D-02  0.478104D-03 -0.280847D+00  0.652703D+00
     15 -0.294173D-01 -0.206203D-01  0.317182D-01  0.911912D-01  0.714673D+00
     16  0.114387D-02 -0.180909D-02 -0.479812D+00  0.313212D+00  0.161710D+00
     17 -0.935695D-02 -0.447124D-02  0.311438D+00 -0.328978D+00 -0.129744D+00
     18  0.841983D-03  0.164956D-02  0.160914D+00 -0.128954D+00 -0.149607D+00
     19 -0.829990D-02 -0.382248D-02 -0.584793D+00  0.145004D-01 -0.237370D+00
     20 -0.501352D-02 -0.277467D-02  0.104661D-02 -0.951259D-01 -0.666334D-03
     21 -0.351334D-03  0.180828D-02 -0.244576D+00  0.633323D-02 -0.212437D+00
     22 -0.222780D-02 -0.108600D-02 -0.101525D+00 -0.280018D-02  0.373164D-01
     23 -0.107215D-02  0.330017D-02 -0.964783D-03 -0.739386D-01  0.377628D-01
     24  0.569764D-02  0.958631D-02  0.970470D-02  0.367155D-01 -0.277369D+00
     25  0.475358D-03 -0.189940D-03 -0.133428D-02  0.857663D-03  0.962379D-02
     26 -0.851241D-03 -0.162194D-02 -0.496123D-02 -0.149541D-02  0.329855D-02
     27 -0.599478D-03 -0.214949D-03  0.448023D-01 -0.332490D-02 -0.219311D-01
               16            17            18            19            20 
     16  0.512185D+00
     17 -0.317477D+00  0.342156D+00
     18 -0.185610D+00  0.144141D+00  0.144509D+00
     19 -0.169966D-01  0.152124D-03 -0.216871D-01  0.603645D+00
     20  0.291986D-01  0.154067D-01  0.861844D-02 -0.198692D-01  0.587594D-01
     21  0.146074D-01 -0.740296D-02  0.173310D-01  0.274389D+00 -0.496817D-02
     22 -0.499151D-02  0.518604D-02  0.416621D-01  0.970658D-02  0.554585D-02
     23  0.856926D-02  0.113233D-01 -0.199099D-01  0.202771D-02  0.146273D-01
     24  0.729416D-02  0.315787D-02 -0.189514D-01 -0.199878D-02  0.678690D-02
     25  0.372379D-02 -0.207503D-02 -0.383440D-02 -0.367581D-02  0.384200D-03
     26  0.147269D-02  0.145451D-02 -0.323496D-02 -0.758191D-03 -0.201792D-02
     27  0.363667D-03 -0.205902D-03 -0.567854D-02 -0.448601D-02 -0.501191D-03
               21            22            23            24            25 
     21  0.208511D+00
     22 -0.344924D-01  0.562528D+00
     23  0.216047D-02 -0.527323D-01  0.562726D-01
     24 -0.235131D-01 -0.159044D+00 -0.365387D-01  0.394670D+00
     25 -0.555320D-02 -0.470220D+00  0.479152D-01  0.143020D+00  0.471127D+00
     26 -0.614445D-03  0.521002D-01 -0.690484D-02 -0.944755D-02 -0.477989D-01
     27  0.590269D-02  0.102167D+00 -0.389679D-02 -0.642271D-01 -0.142021D+00
               26            27 
     26  0.103647D-01
     27  0.650747D-02  0.871187D-01
 FormGI is forming the generalized inverse of G from B-inverse, IUseBI=4.
 Force constants in internal coordinates: 
                1             2             3             4             5 
      1  0.520030D-02
      2  0.178233D-01  0.424928D+00
      3  0.234487D-01  0.690421D-01  0.461471D+00
      4  0.117618D-01  0.911067D-02  0.897211D-02  0.218941D+00
      5  0.123909D-01  0.485033D-02  0.386072D-02 -0.749984D-02  0.835613D+00
      6  0.454395D-02  0.105808D-01  0.591071D-02 -0.149997D-02  0.107412D-02
      7  0.482202D-02  0.642158D-02  0.106425D-01  0.172499D-02  0.120277D-01
      8 -0.106419D-02 -0.126666D-02 -0.382631D-03 -0.603798D-03 -0.411348D-02
      9 -0.147686D-01 -0.415645D-02  0.223932D-04 -0.486865D-01  0.233763D-02
     10 -0.725677D-02 -0.244099D-02  0.261055D-02 -0.544250D-01  0.453934D-02
     11  0.425863D-01 -0.841050D-02 -0.126351D-01  0.127108D+00 -0.210012D-01
     12  0.230926D-02  0.399209D-01  0.421753D-01 -0.122236D-01 -0.878268D-02
     13 -0.900366D-02  0.475001D-02 -0.415716D-01 -0.314730D-02  0.122703D-01
     14 -0.127814D-01 -0.405123D-01  0.218952D-02 -0.261514D-02  0.111862D-01
     15  0.727184D-03  0.999713D-02  0.100824D-01  0.770749D-01 -0.123542D-01
     16  0.891509D-02 -0.107151D-01  0.827760D-02 -0.219734D-01 -0.651270D-02
     17  0.827403D-02  0.144206D-01 -0.878518D-02 -0.517147D-02 -0.400220D-02
     18 -0.514207D-02 -0.224838D-02 -0.448691D-02 -0.239131D-01  0.121494D-01
     19 -0.517829D-02 -0.404116D-02 -0.195311D-02 -0.172423D-01  0.139046D-01
     20 -0.425074D-02 -0.311307D-02 -0.331287D-02 -0.108903D-02 -0.692588D-02
     21 -0.428793D-03  0.178318D-02 -0.142401D-03  0.253491D-02  0.574394D-02
     22 -0.458819D-02  0.592811D-02 -0.851119D-02 -0.225610D-02  0.238872D-02
     23 -0.453496D-02  0.306071D-02 -0.136585D-02  0.812267D-02  0.442704D-02
     24 -0.205293D-02  0.257264D-02 -0.627524D-02 -0.365499D-02 -0.766617D-02
     25 -0.756412D-02  0.136062D-01  0.107637D-01 -0.131525D-01  0.706316D-02
     26 -0.751089D-02  0.107388D-01  0.179091D-01 -0.277369D-02  0.910148D-02
     27 -0.502886D-02  0.102508D-01  0.129997D-01 -0.145514D-01 -0.299173D-02
     28  0.926019D-02 -0.124075D-01 -0.124985D-01  0.998155D-02 -0.206219D-02
     29  0.931343D-02 -0.152749D-01 -0.535316D-02  0.203603D-01 -0.238652D-04
     30  0.117955D-01 -0.157630D-01 -0.102625D-01  0.858266D-02 -0.121171D-01
     31 -0.349036D-02  0.659749D-02  0.455237D-04  0.343699D-01  0.173639D-02
     32 -0.602157D-02 -0.871478D-02 -0.693783D-02 -0.424389D-01  0.127553D-01
     33  0.921856D-02  0.587151D-03  0.376008D-02  0.645153D-02 -0.102325D-01
                6             7             8             9            10 
      6  0.744740D+00
      7  0.126182D-01  0.367684D+00
      8 -0.507010D-02  0.631900D-02  0.522062D+00
      9 -0.587087D-02 -0.545758D-02  0.816007D-03  0.878899D-01
     10 -0.628077D-02 -0.587969D-02  0.870069D-03  0.712806D-01  0.110592D+00
     11  0.131155D-01  0.101357D-01 -0.144508D-02 -0.159779D+00 -0.188357D+00
     12 -0.528708D-02 -0.623385D-02  0.122001D-02  0.319931D-01  0.283515D-01
     13 -0.249428D-02  0.122622D-01 -0.114549D-02 -0.310497D-01 -0.512046D-02
     14  0.863915D-02 -0.419535D-02 -0.544010D-03 -0.823781D-02 -0.275759D-01
     15 -0.725762D-02 -0.108513D-01  0.628074D-03 -0.532963D-01 -0.618391D-01
     16  0.247783D-02 -0.118186D-01  0.222466D-02  0.117314D-01  0.121827D-01
     17 -0.125512D-01  0.163914D-01  0.547742D-03  0.718997D-02  0.103432D-01
     18  0.619717D-02 -0.341447D-02  0.927776D-03  0.190237D-01  0.196811D-01
     19 -0.717409D-02  0.143183D-01  0.108612D-02  0.105426D-01  0.148669D-01
     20  0.132053D-01 -0.121680D-02 -0.508792D-02 -0.148651D-03 -0.143450D-03
     21  0.481782D-02  0.468572D-01  0.218034D-01  0.556345D-04  0.589463D-04
     22 -0.758176D-02  0.148624D-01 -0.602279D-03  0.711117D-02 -0.487459D-02
     23 -0.332894D-02 -0.513707D-02  0.250765D-02  0.732220D-03 -0.162406D-01
     24  0.636671D-02 -0.295259D-02 -0.212480D-02  0.833211D-02 -0.695158D-02
     25 -0.708824D-02  0.119659D-01 -0.415599D-03  0.129480D-02  0.152294D-01
     26 -0.283542D-02 -0.803356D-02  0.269433D-02 -0.508415D-02  0.386343D-02
     27  0.686023D-02 -0.584908D-02 -0.193812D-02  0.251574D-02  0.131524D-01
     28 -0.480174D-02  0.130147D-01 -0.595777D-03 -0.789343D-02  0.384104D-02
     29 -0.548920D-03 -0.698478D-02  0.251415D-02 -0.142724D-01 -0.752496D-02
     30  0.914673D-02 -0.480030D-02 -0.211829D-02 -0.667249D-02  0.176406D-02
     31 -0.426262D-02  0.175686D-02 -0.140466D-03 -0.227404D-01 -0.258153D-01
     32  0.105382D-01  0.310265D-02 -0.134451D-02  0.293606D-01  0.331101D-01
     33 -0.290358D-02 -0.380573D-02  0.772349D-03 -0.586770D-02 -0.683605D-02
               11            12            13            14            15 
     11  0.424684D+00
     12 -0.326301D-01  0.167932D+00
     13 -0.174740D-01 -0.117204D+00  0.170100D+00
     14 -0.768116D-02 -0.110445D+00  0.135555D-01  0.166859D+00
     15  0.147238D+00 -0.784929D-02 -0.105593D-01 -0.762405D-02  0.192551D+00
     16 -0.320518D-01 -0.112166D-03 -0.232581D-02  0.101522D-01 -0.229918D-01
     17 -0.309399D-01 -0.999739D-02  0.207134D-01  0.258094D-02 -0.409658D-01
     18 -0.487669D-01  0.394175D-02  0.285733D-02  0.101169D-02 -0.706469D-01
     19 -0.303083D-01  0.488428D-02 -0.671360D-03 -0.115457D-02 -0.470262D-01
     20  0.505284D-02  0.530231D-02 -0.615575D-02 -0.454830D-02  0.418773D-02
     21 -0.811522D-03 -0.349152D-03  0.201275D-02 -0.108440D-02 -0.219310D-02
     22 -0.523635D-02 -0.610007D-03  0.995062D-02 -0.703280D-02 -0.137604D-01
     23  0.173849D-01 -0.135408D-02  0.441674D-02 -0.439796D-02  0.199089D-01
     24 -0.359835D-02 -0.253505D-03  0.662054D-02 -0.453594D-02 -0.354536D-02
     25 -0.427894D-01  0.160672D-01  0.247417D-02  0.219491D-02 -0.277830D-01
     26 -0.201681D-01  0.153231D-01 -0.305971D-02  0.482975D-02  0.588636D-02
     27 -0.411514D-01  0.164237D-01 -0.855917D-03  0.469177D-02 -0.175679D-01
     28  0.283171D-01 -0.155721D-01 -0.304398D-02 -0.883326D-03  0.639083D-03
     29  0.509383D-01 -0.163162D-01 -0.857786D-02  0.175151D-02  0.343084D-01
     30  0.299551D-01 -0.152156D-01 -0.637406D-02  0.161353D-02  0.108541D-01
     31  0.627272D-01 -0.210373D-02 -0.424472D-02 -0.557886D-02  0.742376D-01
     32 -0.765685D-01  0.891712D-02 -0.630791D-03  0.202860D-02 -0.105629D+00
     33  0.126430D-01 -0.531763D-02  0.130450D-02  0.554533D-02  0.290345D-01
               16            17            18            19            20 
     16  0.104277D+00
     17 -0.254565D-01  0.197681D+00
     18 -0.285061D-01  0.235283D-01  0.696114D-01
     19  0.425670D-02 -0.455512D-01 -0.266713D-04  0.721530D-01
     20 -0.296945D-01 -0.673207D-01 -0.596806D-02  0.233600D-02  0.773521D-01
     21  0.299794D-04  0.114128D-01  0.782098D-03  0.950148D-02 -0.163358D-01
     22 -0.101313D-01  0.933493D-02 -0.847389D-02  0.242614D-01  0.114271D-02
     23  0.768023D-02 -0.754916D-02  0.922317D-02 -0.657883D-02 -0.233100D-01
     24  0.365173D-03  0.266105D-02  0.338233D-02 -0.243168D-01  0.202394D-01
     25 -0.581774D-02  0.111850D-01 -0.518465D-02  0.284977D-01  0.525295D-03
     26  0.119937D-01 -0.569909D-02  0.125124D-01 -0.234252D-02 -0.239274D-01
     27  0.467869D-02  0.451111D-02  0.667158D-02 -0.200805D-01  0.196220D-01
     28 -0.125723D-01  0.346650D-02 -0.145674D-01  0.230910D-01  0.284286D-02
     29  0.523915D-02 -0.134176D-01  0.312963D-02 -0.774922D-02 -0.216099D-01
     30 -0.207591D-02 -0.320738D-02 -0.271121D-02 -0.254872D-01  0.219396D-01
     31 -0.408111D-01 -0.131114D-01 -0.159101D-01 -0.680661D-02  0.576525D-02
     32 -0.715704D-02 -0.324527D-01  0.516975D-01  0.414458D-01  0.267061D-01
     33  0.534998D-01  0.329776D-01 -0.385386D-01 -0.241324D-01 -0.332423D-01
               21            22            23            24            25 
     21  0.143111D+00
     22  0.501519D-02  0.216693D-01
     23  0.444756D-02 -0.563362D-02  0.253651D-01
     24 -0.839028D-02 -0.357672D-02 -0.162135D-02  0.225182D-01
     25  0.476679D-02  0.133586D-01 -0.169534D-01 -0.131159D-01  0.336581D-01
     26  0.419915D-02 -0.139443D-01  0.140453D-01 -0.111605D-01  0.334606D-02
     27 -0.863868D-02 -0.118874D-01 -0.129411D-01  0.129789D-01  0.718354D-02
     28  0.431684D-02  0.110205D-01 -0.152673D-01 -0.150219D-01  0.596831D-02
     29  0.374921D-02 -0.162824D-01  0.157314D-01 -0.130666D-01 -0.243437D-01
     30 -0.908863D-02 -0.142255D-01 -0.112550D-01  0.110729D-01 -0.205062D-01
     31  0.541428D-03  0.129999D-02  0.704006D-02 -0.777792D-02 -0.471194D-02
     32 -0.421335D-02  0.571850D-02 -0.978166D-02  0.195744D-02  0.130147D-01
     33  0.289419D-03 -0.504156D-02  0.329314D-02  0.147923D-02 -0.545906D-02
               26            27            28            29            30 
     26  0.313357D-01
     27  0.612982D-02  0.320499D-01
     28 -0.203195D-01 -0.200742D-01  0.323044D-01
     29  0.767013D-02 -0.211279D-01  0.601657D-02  0.380304D-01
     30 -0.175357D-01  0.479221D-02  0.626191D-02  0.923238D-02  0.315603D-01
     31  0.102813D-02 -0.137898D-01  0.745290D-02  0.131930D-01 -0.162500D-02
     32 -0.248542D-02  0.925367D-02 -0.115732D-02 -0.166575D-01 -0.491838D-02
     33  0.287564D-02  0.106173D-02 -0.399025D-02  0.434445D-02  0.253054D-02
               31            32            33 
     31  0.423358D-01
     32 -0.312752D-01  0.842819D-01
     33 -0.840309D-02 -0.458885D-01  0.565729D-01
 Leave Link  716 at Sun May 25 04:54:45 2025, MaxMem=  3758096384 cpu:               0.1 elap:               0.0
 (Enter /apps/easybuild-2022/easybuild/software/Compiler/NVHPC/22.11-CUDA-11.7.0/Gaussian/g16c01-CUDA-11.7.0/g16/l103.exe)

 GradGradGradGradGradGradGradGradGradGradGradGradGradGradGradGradGradGrad
 Berny optimization.
 Red2BG is reusing G-inverse.
 Internal  Forces:  Max     0.103169683 RMS     0.027939860
 Search for a local minimum.
 Step number   1 out of a maximum of   43
 All quantities printed in internal units (Hartrees-Bohrs-Radians)
 RMS Force = .27940D-01 SwitMx=.10000D-02 MixMth= 1
 Mixed Optimization -- RFO/linear search
 Second derivative matrix not updated -- analytic derivatives used.
 ITU=  0
     Eigenvalues ---   -0.01123  -0.00707   0.00322   0.05505   0.09183
     Eigenvalues ---    0.10782   0.12030   0.13959   0.14951   0.15992
     Eigenvalues ---    0.18147   0.21497   0.26551   0.32579   0.38221
     Eigenvalues ---    0.39198   0.52401   0.54612   0.74587   0.77935
     Eigenvalues ---    0.85089
 Eigenvalue     1 is  -1.12D-02 should be greater than     0.000000 Eigenvector:
                          R1        D2        D1        D5        D4
   1                    0.85968   0.20877   0.20670   0.18156   0.17949
                          D3        D6        A3        A2        A8
   1                    0.17597   0.14876  -0.10667  -0.09032  -0.06827
 Eigenvalue     2 is  -7.07D-03 should be greater than     0.000000 Eigenvector:
                          R1        D7        D9        D1        D3
   1                   -0.40395   0.34292   0.33285   0.32498   0.31491
                          D8        D2        D4        D6        D5
   1                    0.31079   0.29285   0.27917   0.26910   0.24704
 RFO step:  Lambda=-1.21288223D-01 EMin=-1.12301779D-02
 Linear search not attempted -- first point.
 Maximum step size (   0.300) exceeded in Quadratic search.
    -- Step size scaled by   0.261
 Iteration  1 RMS(Cart)=  0.03968662 RMS(Int)=  0.01625675
 Iteration  2 RMS(Cart)=  0.01502449 RMS(Int)=  0.00009957
 Iteration  3 RMS(Cart)=  0.00006239 RMS(Int)=  0.00009423
 Iteration  4 RMS(Cart)=  0.00000002 RMS(Int)=  0.00009423
 ITry= 1 IFail=0 DXMaxC= 1.71D-01 DCOld= 1.00D+10 DXMaxT= 3.00D-01 DXLimC= 3.00D+00 Rises=F
 Variable       Old X    -DE/DX   Delta X   Delta X   Delta X     New X
                                 (Linear)    (Quad)   (Total)
    R1        3.26273  -0.10317   0.00000  -0.29046  -0.29046   2.97227
    R2        2.49037  -0.02487   0.00000  -0.00410  -0.00410   2.48627
    R3        2.46471  -0.01388   0.00000   0.00626   0.00626   2.47097
    R4        3.54328   0.01517   0.00000  -0.00421  -0.00421   3.53908
    R5        2.64286   0.00757   0.00000   0.00777   0.00777   2.65062
    R6        2.68175  -0.00090   0.00000   0.00050   0.00050   2.68225
    R7        2.96842  -0.00038   0.00000   0.00124   0.00124   2.96966
    R8        1.82885   0.00025   0.00000  -0.00025  -0.00025   1.82860
    A1        2.07347  -0.04546   0.00000  -0.03910  -0.03917   2.03430
    A2        1.90470  -0.03790   0.00000  -0.00242  -0.00205   1.90265
    A3        1.59720   0.08676   0.00000   0.05501   0.05517   1.65237
    A4        1.84577   0.01348   0.00000   0.01415   0.01403   1.85980
    A5        1.97696  -0.00440   0.00000  -0.00647  -0.00656   1.97040
    A6        2.06909  -0.01398   0.00000  -0.02362  -0.02358   2.04551
    A7        1.82037   0.03525   0.00000  -0.00345  -0.00344   1.81693
    A8        1.91179  -0.01795   0.00000   0.00223   0.00224   1.91403
    A9        1.73954  -0.00868   0.00000   0.00753   0.00754   1.74708
   A10        2.13548  -0.00390   0.00000   0.00252   0.00251   2.13799
   A11        1.87567  -0.00316   0.00000  -0.00138  -0.00137   1.87429
   A12        1.93696  -0.00095   0.00000  -0.00601  -0.00602   1.93095
   A13        1.94323  -0.00106   0.00000  -0.00243  -0.00243   1.94080
    D1        0.06424  -0.00481   0.00000  -0.01068  -0.01055   0.05369
    D2        2.37796   0.00347   0.00000  -0.00848  -0.00836   2.36960
    D3       -1.87231  -0.00837   0.00000  -0.01078  -0.01065  -1.88296
    D4       -2.07222   0.00226   0.00000   0.00653   0.00654  -2.06569
    D5        0.24150   0.01054   0.00000   0.00873   0.00873   0.25023
    D6        2.27441  -0.00129   0.00000   0.00643   0.00644   2.28085
    D7        2.03307  -0.00047   0.00000   0.01350   0.01336   2.04643
    D8       -1.93639   0.00781   0.00000   0.01569   0.01555  -1.92084
    D9        0.09652  -0.00403   0.00000   0.01339   0.01326   0.10978
   D10       -1.81362   0.02013   0.00000  -0.00011  -0.00010  -1.81372
   D11        2.57697  -0.01389   0.00000   0.00110   0.00111   2.57808
   D12        0.20018  -0.00496   0.00000   0.00400   0.00398   0.20416
         Item               Value     Threshold  Converged?
 Maximum Force            0.103170     0.000450     NO 
 RMS     Force            0.027940     0.000300     NO 
 Maximum Displacement     0.170962     0.001800     NO 
 RMS     Displacement     0.050199     0.001200     NO 
 Predicted change in Energy=-3.695099D-02
 Lowest energy point so far.  Saving SCF results.
 GradGradGradGradGradGradGradGradGradGradGradGradGradGradGradGradGradGrad

 Leave Link  103 at Sun May 25 04:54:45 2025, MaxMem=  3758096384 cpu:               0.1 elap:               0.0
 (Enter /apps/easybuild-2022/easybuild/software/Compiler/NVHPC/22.11-CUDA-11.7.0/Gaussian/g16c01-CUDA-11.7.0/g16/l202.exe)
                          Input orientation:                          
 ---------------------------------------------------------------------
 Center     Atomic      Atomic             Coordinates (Angstroms)
 Number     Number       Type             X           Y           Z
 ---------------------------------------------------------------------
      1          6           0       -0.345150   -0.912869    0.046091
      2          9           0       -1.774362   -0.416076    0.475545
      3          9           0        0.258815   -1.746194    0.865723
      4          9           0       -0.434952   -1.523437   -1.106695
      5         16           0        0.418891    0.796980    0.051922
      6          8           0       -0.616657    1.632535    0.495673
      7          8           0        1.687239    0.751243    0.687424
      8          8           0        0.581868    1.031276   -1.493419
      9          1           0        1.503056    0.921804   -1.768708
 ---------------------------------------------------------------------
                    Distance matrix (angstroms):
                    1          2          3          4          5
     1  C    0.000000
     2  F    1.572858   0.000000
     3  F    1.315675   2.460744   0.000000
     4  F    1.307583   2.350266   2.102704   0.000000
     5  S    1.872799   2.541913   2.675001   2.730527   0.000000
     6  O    2.599022   2.353187   3.509871   3.544116   1.402650
     7  O    2.703919   3.659263   2.882599   3.591201   1.419387
     8  O    2.647480   3.394623   3.658450   2.776696   1.571476
     9  H    3.174174   4.191427   3.950515   3.189567   2.122660
                    6          7          8          9
     6  O    0.000000
     7  O    2.474142   0.000000
     8  O    2.398846   2.460963   0.000000
     9  H    3.182097   2.468926   0.967654   0.000000
 Symmetry turned off by external request.
 Stoichiometry    CHF3O3S
 Rotational constants (GHZ):           2.5313373           1.5778038           1.5003135
 Leave Link  202 at Sun May 25 04:54:45 2025, MaxMem=  3758096384 cpu:               0.1 elap:               0.0
 (Enter /apps/easybuild-2022/easybuild/software/Compiler/NVHPC/22.11-CUDA-11.7.0/Gaussian/g16c01-CUDA-11.7.0/g16/l301.exe)
 Standard basis: def2TZVPP (5D, 7F)
 Ernie: Thresh=  0.10000D-02 Tol=  0.10000D-05 Strict=F.
   273 basis functions,   443 primitive gaussians,   315 cartesian basis functions
    37 alpha electrons       37 beta electrons
       nuclear repulsion energy       564.3638898206 Hartrees.
 IExCor= 4336 DFT=T Ex+Corr=M062X ExCW=0 ScaHFX=  0.540000
 ScaDFX=  1.000000  1.000000  1.000000  1.000000 ScalE2=  1.000000  1.000000
 IRadAn=      5 IRanWt=     -1 IRanGd=            0 ICorTp=0 IEmpDi=  4
 NAtoms=    9 NActive=    9 NUniq=    9 SFac= 1.00D+00 NAtFMM=   60 NAOKFM=F Big=F
 Integral buffers will be    131072 words long.
 Raffenetti 2 integral format.
 Two-electron integral symmetry is turned off.
 Leave Link  301 at Sun May 25 04:54:45 2025, MaxMem=  3758096384 cpu:               0.1 elap:               0.1
 (Enter /apps/easybuild-2022/easybuild/software/Compiler/NVHPC/22.11-CUDA-11.7.0/Gaussian/g16c01-CUDA-11.7.0/g16/l302.exe)
 NPDir=0 NMtPBC=     1 NCelOv=     1 NCel=       1 NClECP=     1 NCelD=      1
         NCelK=      1 NCelE2=     1 NClLst=     1 CellRange=     0.0.
 One-electron integrals computed using PRISM.
   1 Symmetry operations used in ECPInt.
 ECPInt:  NShTT=    4753 NPrTT=   15592 LenC2=    4584 LenP2D=   11476.
 LDataN:  DoStor=T MaxTD1= 6 Len=  172
 NBasis=   273 RedAO= T EigKep=  7.96D-04  NBF=   273
 NBsUse=   273 1.00D-06 EigRej= -1.00D+00 NBFU=   273
 Precomputing XC quadrature grid using
 IXCGrd= 4 IRadAn=           5 IRanWt=          -1 IRanGd=           0 AccXCQ= 0.00D+00.
 Generated NRdTot=       0 NPtTot=           0 NUsed=           0 NTot=          32
 NSgBfM=   312   312   312   312   312 MxSgAt=     9 MxSgA2=     9.
 Leave Link  302 at Sun May 25 04:54:45 2025, MaxMem=  3758096384 cpu:               0.6 elap:               0.1
 (Enter /apps/easybuild-2022/easybuild/software/Compiler/NVHPC/22.11-CUDA-11.7.0/Gaussian/g16c01-CUDA-11.7.0/g16/l303.exe)
 DipDrv:  MaxL=1.
 Leave Link  303 at Sun May 25 04:54:45 2025, MaxMem=  3758096384 cpu:               0.1 elap:               0.0
 (Enter /apps/easybuild-2022/easybuild/software/Compiler/NVHPC/22.11-CUDA-11.7.0/Gaussian/g16c01-CUDA-11.7.0/g16/l401.exe)
 Initial guess from the checkpoint file:  "1502984803620600000001_r13_insertion_ROR_2_1_5_6_IRC_F_prod.chk"
 B after Tr=     0.001564    0.000934   -0.001025
         Rot=    1.000000   -0.000515   -0.000131   -0.000833 Ang=  -0.11 deg.
 Guess basis will be translated and rotated to current coordinates.
 JPrj=2 DoOrth=T DoCkMO=T.
 Generating alternative initial guess.
 ExpMin= 9.52D-02 ExpMax= 6.07D+04 ExpMxC= 2.07D+03 IAcc=3 IRadAn=         5 AccDes= 0.00D+00
 Harris functional with IExCor= 1009 and IRadAn=       5 diagonalized for initial guess.
 HarFok:  IExCor= 1009 AccDes= 0.00D+00 IRadAn=         5 IDoV= 1 UseB2=F ITyADJ=14
 ICtDFT=  3500011 ScaDFX=  1.000000  1.000000  1.000000  1.000000
 FoFCou: FMM=F IPFlag=           0 FMFlag=      100000 FMFlg1=           0
         NFxFlg=           0 DoJE=T BraDBF=F KetDBF=T FulRan=T
         wScrn=  0.000000 ICntrl=       500 IOpCl=  0 I1Cent=   200000004 NGrid=           0
         NMat0=    1 NMatS0=      1 NMatT0=    0 NMatD0=    1 NMtDS0=    0 NMtDT0=    0
 Symmetry not used in FoFCou.
 Harris En= -961.671545601829    
 Leave Link  401 at Sun May 25 04:54:46 2025, MaxMem=  3758096384 cpu:               3.4 elap:               0.6
 (Enter /apps/easybuild-2022/easybuild/software/Compiler/NVHPC/22.11-CUDA-11.7.0/Gaussian/g16c01-CUDA-11.7.0/g16/l502.exe)
 Keep R1 ints in memory in canonical form, NReq=715214082.
 FoFCou: FMM=F IPFlag=           0 FMFlag=           0 FMFlg1=           0
         NFxFlg=           0 DoJE=F BraDBF=F KetDBF=F FulRan=T
         wScrn=  0.000000 ICntrl=       600 IOpCl=  0 I1Cent=           0 NGrid=           0
         NMat0=    1 NMatS0=  37401 NMatT0=    0 NMatD0=    1 NMtDS0=    0 NMtDT0=    0
 Symmetry not used in FoFCou.
 Two-electron integral symmetry not used.
 Closed shell SCF:
 Using DIIS extrapolation, IDIIS=  1040.
 NGot=  3758096384 LenX=  3058457086 LenY=  3058357420
 Requested convergence on RMS density matrix=1.00D-08 within  32 cycles.
 Requested convergence on MAX density matrix=1.00D-06.
 Requested convergence on             energy=1.00D-06.
 No special actions if energy rises.
 Integral accuracy reduced to 1.0D-05 until final iterations.

 Cycle   1  Pass 0  IDiag  1:
 E= -962.070314790857    
 DIIS: error= 3.42D-03 at cycle   1 NSaved=   1.
 NSaved= 1 IEnMin= 1 EnMin= -962.070314790857     IErMin= 1 ErrMin= 3.42D-03
 ErrMax= 3.42D-03  0.00D+00 EMaxC= 1.00D-01 BMatC= 5.24D-03 BMatP= 5.24D-03
 IDIUse=3 WtCom= 9.66D-01 WtEn= 3.42D-02
 Coeff-Com:  0.100D+01
 Coeff-En:   0.100D+01
 Coeff:      0.100D+01
 Gap=     1.072 Goal=   None    Shift=    0.000
 GapD=    1.072 DampG=2.000 DampE=1.000 DampFc=2.0000 IDamp=-1.
 RMSDP=2.63D-04 MaxDP=9.96D-03              OVMax= 1.97D-02

 Cycle   2  Pass 0  IDiag  1:
 E= -962.076240240478     Delta-E=       -0.005925449621 Rises=F Damp=F
 DIIS: error= 8.45D-04 at cycle   2 NSaved=   2.
 NSaved= 2 IEnMin= 2 EnMin= -962.076240240478     IErMin= 2 ErrMin= 8.45D-04
 ErrMax= 8.45D-04  0.00D+00 EMaxC= 1.00D-01 BMatC= 4.54D-04 BMatP= 5.24D-03
 IDIUse=3 WtCom= 9.92D-01 WtEn= 8.45D-03
 Coeff-Com:  0.685D-01 0.932D+00
 Coeff-En:   0.000D+00 0.100D+01
 Coeff:      0.679D-01 0.932D+00
 Gap=     0.448 Goal=   None    Shift=    0.000
 RMSDP=7.93D-05 MaxDP=4.04D-03 DE=-5.93D-03 OVMax= 9.42D-03

 Cycle   3  Pass 0  IDiag  1:
 E= -962.076431878948     Delta-E=       -0.000191638470 Rises=F Damp=F
 DIIS: error= 1.06D-03 at cycle   3 NSaved=   3.
 NSaved= 3 IEnMin= 3 EnMin= -962.076431878948     IErMin= 2 ErrMin= 8.45D-04
 ErrMax= 1.06D-03  0.00D+00 EMaxC= 1.00D-01 BMatC= 4.48D-04 BMatP= 4.54D-04
 IDIUse=3 WtCom= 9.89D-01 WtEn= 1.06D-02
 Coeff-Com: -0.581D-01 0.509D+00 0.549D+00
 Coeff-En:   0.000D+00 0.274D+00 0.726D+00
 Coeff:     -0.575D-01 0.507D+00 0.550D+00
 Gap=     0.448 Goal=   None    Shift=    0.000
 RMSDP=3.99D-05 MaxDP=2.34D-03 DE=-1.92D-04 OVMax= 3.85D-03

 Cycle   4  Pass 0  IDiag  1:
 E= -962.076691448432     Delta-E=       -0.000259569484 Rises=F Damp=F
 DIIS: error= 2.82D-04 at cycle   4 NSaved=   4.
 NSaved= 4 IEnMin= 4 EnMin= -962.076691448432     IErMin= 4 ErrMin= 2.82D-04
 ErrMax= 2.82D-04  0.00D+00 EMaxC= 1.00D-01 BMatC= 1.51D-05 BMatP= 4.48D-04
 IDIUse=3 WtCom= 9.97D-01 WtEn= 2.82D-03
 Coeff-Com: -0.214D-01 0.487D-01 0.176D+00 0.797D+00
 Coeff-En:   0.000D+00 0.000D+00 0.000D+00 0.100D+01
 Coeff:     -0.214D-01 0.486D-01 0.175D+00 0.798D+00
 Gap=     0.447 Goal=   None    Shift=    0.000
 RMSDP=1.21D-05 MaxDP=5.10D-04 DE=-2.60D-04 OVMax= 1.33D-03

 Cycle   5  Pass 0  IDiag  1:
 E= -962.076704038528     Delta-E=       -0.000012590096 Rises=F Damp=F
 DIIS: error= 7.36D-05 at cycle   5 NSaved=   5.
 NSaved= 5 IEnMin= 5 EnMin= -962.076704038528     IErMin= 5 ErrMin= 7.36D-05
 ErrMax= 7.36D-05  0.00D+00 EMaxC= 1.00D-01 BMatC= 1.97D-06 BMatP= 1.51D-05
 IDIUse=1 WtCom= 1.00D+00 WtEn= 0.00D+00
 Coeff-Com: -0.240D-02-0.237D-01 0.175D-01 0.310D+00 0.699D+00
 Coeff:     -0.240D-02-0.237D-01 0.175D-01 0.310D+00 0.699D+00
 Gap=     0.448 Goal=   None    Shift=    0.000
 RMSDP=4.76D-06 MaxDP=1.92D-04 DE=-1.26D-05 OVMax= 4.42D-04

 Initial convergence to 1.0D-05 achieved.  Increase integral accuracy.
 Cycle   6  Pass 1  IDiag  1:
 E= -962.076681380440     Delta-E=        0.000022658088 Rises=F Damp=F
 DIIS: error= 3.42D-05 at cycle   1 NSaved=   1.
 NSaved= 1 IEnMin= 1 EnMin= -962.076681380440     IErMin= 1 ErrMin= 3.42D-05
 ErrMax= 3.42D-05  0.00D+00 EMaxC= 1.00D-01 BMatC= 1.08D-06 BMatP= 1.08D-06
 IDIUse=1 WtCom= 1.00D+00 WtEn= 0.00D+00
 Coeff-Com:  0.100D+01
 Coeff:      0.100D+01
 Gap=     0.447 Goal=   None    Shift=    0.000
 RMSDP=4.76D-06 MaxDP=1.92D-04 DE= 2.27D-05 OVMax= 3.21D-04

 Cycle   7  Pass 1  IDiag  1:
 E= -962.076681677990     Delta-E=       -0.000000297549 Rises=F Damp=F
 DIIS: error= 3.21D-05 at cycle   2 NSaved=   2.
 NSaved= 2 IEnMin= 2 EnMin= -962.076681677990     IErMin= 2 ErrMin= 3.21D-05
 ErrMax= 3.21D-05  0.00D+00 EMaxC= 1.00D-01 BMatC= 1.01D-06 BMatP= 1.08D-06
 IDIUse=1 WtCom= 1.00D+00 WtEn= 0.00D+00
 Coeff-Com:  0.489D+00 0.511D+00
 Coeff:      0.489D+00 0.511D+00
 Gap=     0.447 Goal=   None    Shift=    0.000
 RMSDP=2.31D-06 MaxDP=1.19D-04 DE=-2.98D-07 OVMax= 2.41D-04

 Cycle   8  Pass 1  IDiag  1:
 E= -962.076682297465     Delta-E=       -0.000000619475 Rises=F Damp=F
 DIIS: error= 8.97D-06 at cycle   3 NSaved=   3.
 NSaved= 3 IEnMin= 3 EnMin= -962.076682297465     IErMin= 3 ErrMin= 8.97D-06
 ErrMax= 8.97D-06  0.00D+00 EMaxC= 1.00D-01 BMatC= 8.59D-08 BMatP= 1.01D-06
 IDIUse=1 WtCom= 1.00D+00 WtEn= 0.00D+00
 Coeff-Com: -0.350D-01 0.204D+00 0.831D+00
 Coeff:     -0.350D-01 0.204D+00 0.831D+00
 Gap=     0.447 Goal=   None    Shift=    0.000
 RMSDP=8.71D-07 MaxDP=3.59D-05 DE=-6.19D-07 OVMax= 7.80D-05

 Cycle   9  Pass 1  IDiag  1:
 E= -962.076682366253     Delta-E=       -0.000000068788 Rises=F Damp=F
 DIIS: error= 4.19D-06 at cycle   4 NSaved=   4.
 NSaved= 4 IEnMin= 4 EnMin= -962.076682366253     IErMin= 4 ErrMin= 4.19D-06
 ErrMax= 4.19D-06  0.00D+00 EMaxC= 1.00D-01 BMatC= 7.70D-09 BMatP= 8.59D-08
 IDIUse=1 WtCom= 1.00D+00 WtEn= 0.00D+00
 Coeff-Com: -0.359D-01 0.714D-01 0.375D+00 0.589D+00
 Coeff:     -0.359D-01 0.714D-01 0.375D+00 0.589D+00
 Gap=     0.447 Goal=   None    Shift=    0.000
 RMSDP=2.13D-07 MaxDP=9.05D-06 DE=-6.88D-08 OVMax= 2.58D-05

 Cycle  10  Pass 1  IDiag  1:
 E= -962.076682372101     Delta-E=       -0.000000005848 Rises=F Damp=F
 DIIS: error= 1.29D-06 at cycle   5 NSaved=   5.
 NSaved= 5 IEnMin= 5 EnMin= -962.076682372101     IErMin= 5 ErrMin= 1.29D-06
 ErrMax= 1.29D-06  0.00D+00 EMaxC= 1.00D-01 BMatC= 9.36D-10 BMatP= 7.70D-09
 IDIUse=1 WtCom= 1.00D+00 WtEn= 0.00D+00
 Coeff-Com:  0.721D-03-0.339D-01-0.122D+00 0.169D+00 0.986D+00
 Coeff:      0.721D-03-0.339D-01-0.122D+00 0.169D+00 0.986D+00
 Gap=     0.447 Goal=   None    Shift=    0.000
 RMSDP=1.55D-07 MaxDP=6.58D-06 DE=-5.85D-09 OVMax= 2.00D-05

 Cycle  11  Pass 1  IDiag  1:
 E= -962.076682373563     Delta-E=       -0.000000001461 Rises=F Damp=F
 DIIS: error= 5.60D-07 at cycle   6 NSaved=   6.
 NSaved= 6 IEnMin= 6 EnMin= -962.076682373563     IErMin= 6 ErrMin= 5.60D-07
 ErrMax= 5.60D-07  0.00D+00 EMaxC= 1.00D-01 BMatC= 1.53D-10 BMatP= 9.36D-10
 IDIUse=1 WtCom= 1.00D+00 WtEn= 0.00D+00
 Coeff-Com:  0.380D-02-0.228D-01-0.954D-01-0.651D-03 0.421D+00 0.694D+00
 Coeff:      0.380D-02-0.228D-01-0.954D-01-0.651D-03 0.421D+00 0.694D+00
 Gap=     0.447 Goal=   None    Shift=    0.000
 RMSDP=4.56D-08 MaxDP=3.12D-06 DE=-1.46D-09 OVMax= 6.15D-06

 Cycle  12  Pass 1  IDiag  1:
 E= -962.076682373709     Delta-E=       -0.000000000146 Rises=F Damp=F
 DIIS: error= 1.56D-07 at cycle   7 NSaved=   7.
 NSaved= 7 IEnMin= 7 EnMin= -962.076682373709     IErMin= 7 ErrMin= 1.56D-07
 ErrMax= 1.56D-07  0.00D+00 EMaxC= 1.00D-01 BMatC= 1.66D-11 BMatP= 1.53D-10
 IDIUse=1 WtCom= 1.00D+00 WtEn= 0.00D+00
 Coeff-Com:  0.159D-02-0.691D-02-0.303D-01-0.168D-01 0.917D-01 0.300D+00
 Coeff-Com:  0.660D+00
 Coeff:      0.159D-02-0.691D-02-0.303D-01-0.168D-01 0.917D-01 0.300D+00
 Coeff:      0.660D+00
 Gap=     0.447 Goal=   None    Shift=    0.000
 RMSDP=1.17D-08 MaxDP=5.57D-07 DE=-1.46D-10 OVMax= 1.16D-06

 Cycle  13  Pass 1  IDiag  1:
 E= -962.076682373705     Delta-E=        0.000000000003 Rises=F Damp=F
 DIIS: error= 5.39D-08 at cycle   8 NSaved=   8.
 NSaved= 8 IEnMin= 7 EnMin= -962.076682373709     IErMin= 8 ErrMin= 5.39D-08
 ErrMax= 5.39D-08  0.00D+00 EMaxC= 1.00D-01 BMatC= 1.94D-12 BMatP= 1.66D-11
 IDIUse=1 WtCom= 1.00D+00 WtEn= 0.00D+00
 Coeff-Com:  0.160D-03 0.308D-03 0.115D-02-0.622D-02-0.220D-01 0.169D-01
 Coeff-Com:  0.268D+00 0.742D+00
 Coeff:      0.160D-03 0.308D-03 0.115D-02-0.622D-02-0.220D-01 0.169D-01
 Coeff:      0.268D+00 0.742D+00
 Gap=     0.447 Goal=   None    Shift=    0.000
 RMSDP=4.22D-09 MaxDP=1.47D-07 DE= 3.41D-12 OVMax= 3.51D-07

 SCF Done:  E(RM062X) =  -962.076682374     A.U. after   13 cycles
            NFock= 13  Conv=0.42D-08     -V/T= 2.0030
 KE= 9.592216112365D+02 PE=-3.410657465566D+03 EE= 9.249952821353D+02
 Leave Link  502 at Sun May 25 04:55:02 2025, MaxMem=  3758096384 cpu:              74.3 elap:              15.8
 (Enter /apps/easybuild-2022/easybuild/software/Compiler/NVHPC/22.11-CUDA-11.7.0/Gaussian/g16c01-CUDA-11.7.0/g16/l508.exe)
 QCSCF skips out because SCF is already converged.
 Leave Link  508 at Sun May 25 04:55:02 2025, MaxMem=  3758096384 cpu:               0.1 elap:               0.0
 (Enter /apps/easybuild-2022/easybuild/software/Compiler/NVHPC/22.11-CUDA-11.7.0/Gaussian/g16c01-CUDA-11.7.0/g16/l701.exe)
 ... and contract with generalized density number  0.
 Compute integral first derivatives.
   1 Symmetry operations used in ECPInt.
 ECPInt:  NShTT=    4753 NPrTT=   15592 LenC2=    4584 LenP2D=   11476.
 LDataN:  DoStor=T MaxTD1= 7 Len=  274
 Leave Link  701 at Sun May 25 04:55:02 2025, MaxMem=  3758096384 cpu:               0.8 elap:               0.2
 (Enter /apps/easybuild-2022/easybuild/software/Compiler/NVHPC/22.11-CUDA-11.7.0/Gaussian/g16c01-CUDA-11.7.0/g16/l702.exe)
 L702 exits ... SP integral derivatives will be done elsewhere.
 Leave Link  702 at Sun May 25 04:55:02 2025, MaxMem=  3758096384 cpu:               0.0 elap:               0.0
 (Enter /apps/easybuild-2022/easybuild/software/Compiler/NVHPC/22.11-CUDA-11.7.0/Gaussian/g16c01-CUDA-11.7.0/g16/l703.exe)
 Integral derivatives from FoFJK, PRISM(SPDF).
 Compute integral first derivatives, UseDBF=F ICtDFT=           0.
 Calling FoFJK, ICntrl=      2127 FMM=F ISym2X=0 I1Cent= 0 IOpClX= 0 NMat=1 NMatS=1 NMatT=0.
 FoFJK:  IHMeth= 1 ICntrl=    2127 DoSepK=F KAlg= 0 I1Cent=           0 FoldK=F
 IRaf=         0 NMat=       1 IRICut=       1 DoRegI=T DoRafI=F ISym2E= 0 IDoP0=0 IntGTp=1.
 FoFCou: FMM=F IPFlag=           0 FMFlag=      100000 FMFlg1=         800
         NFxFlg=           0 DoJE=F BraDBF=F KetDBF=F FulRan=T
         wScrn=  0.000000 ICntrl=      2127 IOpCl=  0 I1Cent=           0 NGrid=           0
         NMat0=    1 NMatS0=      1 NMatT0=    0 NMatD0=    1 NMtDS0=    0 NMtDT0=    0
 Symmetry not used in FoFCou.
 Leave Link  703 at Sun May 25 04:55:07 2025, MaxMem=  3758096384 cpu:              43.1 elap:               5.5
 (Enter /apps/easybuild-2022/easybuild/software/Compiler/NVHPC/22.11-CUDA-11.7.0/Gaussian/g16c01-CUDA-11.7.0/g16/l716.exe)
 Dipole        = 9.38605325D-01-5.08542581D-01-1.05974496D+00
 -------------------------------------------------------------------
 Center     Atomic                   Forces (Hartrees/Bohr)
 Number     Number              X              Y              Z
 -------------------------------------------------------------------
      1        6          -0.057198489    0.024998674    0.015933635
      2        9           0.077880778   -0.064164904   -0.021014122
      3        9          -0.021573396    0.017452186    0.005007372
      4        9          -0.008287015    0.012984824    0.003474440
      5       16          -0.000818669    0.002883245    0.001011448
      6        8           0.004423607    0.015351630    0.000857136
      7        8           0.001858202   -0.006924921   -0.005408774
      8        8           0.003521224   -0.001667304   -0.000239335
      9        1           0.000193758   -0.000913430    0.000378199
 -------------------------------------------------------------------
 Cartesian Forces:  Max     0.077880778 RMS     0.024481238
 Leave Link  716 at Sun May 25 04:55:07 2025, MaxMem=  3758096384 cpu:               0.1 elap:               0.0
 (Enter /apps/easybuild-2022/easybuild/software/Compiler/NVHPC/22.11-CUDA-11.7.0/Gaussian/g16c01-CUDA-11.7.0/g16/l103.exe)

 GradGradGradGradGradGradGradGradGradGradGradGradGradGradGradGradGradGrad
 Berny optimization.
 Using GEDIIS/GDIIS optimizer.
 FormGI is forming the generalized inverse of G from B-inverse, IUseBI=4.
 Internal  Forces:  Max     0.096777045 RMS     0.024032723
 Search for a local minimum.
 Step number   2 out of a maximum of   43
 All quantities printed in internal units (Hartrees-Bohrs-Radians)
 RMS Force = .24033D-01 SwitMx=.10000D-02 MixMth= 1
 Mixed Optimization -- RFO/linear search
 Update second derivatives using D2CorX and points    1    2
 DE= -3.62D-02 DEPred=-3.70D-02 R= 9.79D-01
 TightC=F SS=  1.41D+00  RLast= 3.02D-01 DXNew= 5.0454D-01 9.0536D-01
 Trust test= 9.79D-01 RLast= 3.02D-01 DXMaxT set to 5.05D-01
 ITU=  1  0
 Use linear search instead of GDIIS.
 Linear search step of   0.555 exceeds DXMaxT=   0.505 but not scaled.
 Quartic linear search produced a step of  1.84904.
 Iteration  1 RMS(Cart)=  0.05521820 RMS(Int)=  0.06051815
 Iteration  2 RMS(Cart)=  0.03220649 RMS(Int)=  0.02571374
 Iteration  3 RMS(Cart)=  0.02351662 RMS(Int)=  0.00043936
 Iteration  4 RMS(Cart)=  0.00006697 RMS(Int)=  0.00043741
 Iteration  5 RMS(Cart)=  0.00000009 RMS(Int)=  0.00043741
 ITry= 1 IFail=0 DXMaxC= 3.37D-01 DCOld= 1.00D+10 DXMaxT= 5.05D-01 DXLimC= 3.00D+00 Rises=F
 Variable       Old X    -DE/DX   Delta X   Delta X   Delta X     New X
                                 (Linear)    (Quad)   (Total)
    R1        2.97227  -0.09678  -0.53708   0.00000  -0.53708   2.43519
    R2        2.48627  -0.01784  -0.00758   0.00000  -0.00758   2.47868
    R3        2.47097  -0.00855   0.01158   0.00000   0.01158   2.48255
    R4        3.53908   0.01171  -0.00778   0.00000  -0.00778   3.53130
    R5        2.65062   0.00615   0.01436   0.00000   0.01436   2.66498
    R6        2.68225  -0.00054   0.00092   0.00000   0.00092   2.68318
    R7        2.96966  -0.00014   0.00229   0.00000   0.00229   2.97195
    R8        1.82860   0.00017  -0.00046   0.00000  -0.00046   1.82814
    A1        2.03430  -0.03794  -0.07242   0.00000  -0.07257   1.96173
    A2        1.90265  -0.02827  -0.00379   0.00000  -0.00211   1.90054
    A3        1.65237   0.07106   0.10201   0.00000   0.10281   1.75518
    A4        1.85980   0.01180   0.02594   0.00000   0.02527   1.88507
    A5        1.97040  -0.00474  -0.01213   0.00000  -0.01260   1.95780
    A6        2.04551  -0.01328  -0.04361   0.00000  -0.04338   2.00213
    A7        1.81693   0.02644  -0.00637   0.00000  -0.00634   1.81059
    A8        1.91403  -0.01361   0.00414   0.00000   0.00418   1.91821
    A9        1.74708  -0.00591   0.01393   0.00000   0.01395   1.76103
   A10        2.13799  -0.00263   0.00464   0.00000   0.00461   2.14260
   A11        1.87429  -0.00254  -0.00254   0.00000  -0.00252   1.87177
   A12        1.93095  -0.00127  -0.01113   0.00000  -0.01119   1.91975
   A13        1.94080  -0.00108  -0.00449   0.00000  -0.00449   1.93631
    D1        0.05369  -0.00468  -0.01951   0.00000  -0.01901   0.03468
    D2        2.36960   0.00186  -0.01546   0.00000  -0.01497   2.35463
    D3       -1.88296  -0.00756  -0.01970   0.00000  -0.01914  -1.90211
    D4       -2.06569   0.00159   0.01209   0.00000   0.01220  -2.05348
    D5        0.25023   0.00813   0.01614   0.00000   0.01624   0.26647
    D6        2.28085  -0.00129   0.01191   0.00000   0.01206   2.29291
    D7        2.04643   0.00065   0.02471   0.00000   0.02406   2.07049
    D8       -1.92084   0.00719   0.02876   0.00000   0.02810  -1.89274
    D9        0.10978  -0.00223   0.02453   0.00000   0.02392   0.13370
   D10       -1.81372   0.01531  -0.00019   0.00000  -0.00014  -1.81386
   D11        2.57808  -0.01041   0.00205   0.00000   0.00208   2.58016
   D12        0.20416  -0.00357   0.00736   0.00000   0.00728   0.21144
         Item               Value     Threshold  Converged?
 Maximum Force            0.096777     0.000450     NO 
 RMS     Force            0.024033     0.000300     NO 
 Maximum Displacement     0.337291     0.001800     NO 
 RMS     Displacement     0.090650     0.001200     NO 
 Predicted change in Energy=-5.812617D-02
 Lowest energy point so far.  Saving SCF results.
 GradGradGradGradGradGradGradGradGradGradGradGradGradGradGradGradGradGrad

 Leave Link  103 at Sun May 25 04:55:07 2025, MaxMem=  3758096384 cpu:               0.1 elap:               0.0
 (Enter /apps/easybuild-2022/easybuild/software/Compiler/NVHPC/22.11-CUDA-11.7.0/Gaussian/g16c01-CUDA-11.7.0/g16/l202.exe)
                          Input orientation:                          
 ---------------------------------------------------------------------
 Center     Atomic      Atomic             Coordinates (Angstroms)
 Number     Number       Type             X           Y           Z
 ---------------------------------------------------------------------
      1          6           0       -0.403787   -0.878464    0.064078
      2          9           0       -1.595875   -0.561263    0.436800
      3          9           0        0.178677   -1.703488    0.901055
      4          9           0       -0.467265   -1.467276   -1.108572
      5         16           0        0.409966    0.803678    0.050633
      6          8           0       -0.608648    1.672072    0.494611
      7          8           0        1.683004    0.729849    0.675111
      8          8           0        0.581973    1.038461   -1.494887
      9          1           0        1.500706    0.901693   -1.765273
 ---------------------------------------------------------------------
                    Distance matrix (angstroms):
                    1          2          3          4          5
     1  C    0.000000
     2  F    1.288647   0.000000
     3  F    1.311663   2.160844   0.000000
     4  F    1.313711   2.117261   2.124062   0.000000
[...]
     28 -0.776847D-02  0.147873D-02 -0.109972D-01  0.248402D-01  0.310560D-02
     29  0.118623D-01 -0.794474D-02  0.100777D-01 -0.173183D-02 -0.250017D-01
     30  0.107113D-02 -0.257238D-02 -0.782478D-03 -0.226045D-01  0.234886D-01
     31 -0.332371D-01 -0.421180D-02 -0.728964D-03 -0.568609D-03  0.360686D-02
     32 -0.210702D-01 -0.422617D-01  0.388356D-01  0.350261D-01  0.269400D-01
     33  0.588110D-01  0.387729D-01 -0.394208D-01 -0.260326D-01 -0.330730D-01
               21            22            23            24            25 
     21  0.149081D+00
     22  0.525800D-02  0.358304D-01
     23  0.450770D-02  0.742824D-02  0.342361D-01
     24 -0.859699D-02  0.981607D-02  0.832322D-02  0.340231D-01
     25  0.508743D-02  0.990471D-02 -0.172955D-01 -0.161387D-01  0.351227D-01
     26  0.433713D-02 -0.184975D-01  0.951232D-02 -0.176315D-01  0.792245D-02
     27 -0.876756D-02 -0.161096D-01 -0.164005D-01  0.806837D-02  0.907931D-02
     28  0.467901D-02  0.943510D-02 -0.169943D-01 -0.154231D-01  0.881860D-02
     29  0.392872D-02 -0.189671D-01  0.981355D-02 -0.169160D-01 -0.183816D-01
     30 -0.917598D-02 -0.165792D-01 -0.160993D-01  0.878392D-02 -0.172248D-01
     31  0.119105D-02  0.178346D-02  0.170061D-02 -0.632243D-02  0.495388D-02
     32 -0.221318D-02  0.431207D-02 -0.495463D-02  0.101359D-02  0.348989D-02
     33 -0.134211D-02 -0.486159D-02  0.378160D-02  0.140563D-02 -0.583213D-02
               26            27            28            29            30 
     26  0.359322D-01
     27  0.878840D-02  0.332573D-01
     28 -0.176108D-01 -0.160396D-01  0.341374D-01
     29  0.103990D-01 -0.163305D-01  0.770796D-02  0.364886D-01
     30 -0.167448D-01  0.813838D-02  0.927913D-02  0.975907D-02  0.346423D-01
     31  0.487103D-02 -0.315201D-02  0.260964D-02  0.252679D-02 -0.549625D-02
     32 -0.577681D-02  0.191412D-03  0.463312D-02 -0.463358D-02  0.133464D-02
     33  0.281106D-02  0.435092D-03 -0.434864D-02  0.429455D-02  0.191858D-02
               31            32            33 
     31  0.253715D-01
     32 -0.105075D-01  0.613438D-01
     33 -0.120770D-01 -0.439595D-01  0.596152D-01
 Leave Link  716 at Sun May 25 05:01:10 2025, MaxMem=  3758096384 cpu:               0.1 elap:               0.1
 (Enter /apps/easybuild-2022/easybuild/software/Compiler/NVHPC/22.11-CUDA-11.7.0/Gaussian/g16c01-CUDA-11.7.0/g16/l103.exe)

 GradGradGradGradGradGradGradGradGradGradGradGradGradGradGradGradGradGrad
 Berny optimization.
 Red2BG is reusing G-inverse.
 Internal  Forces:  Max     0.000085650 RMS     0.000032684
 Search for a local minimum.
 Step number   1 out of a maximum of    2
 All quantities printed in internal units (Hartrees-Bohrs-Radians)
 Second derivative matrix not updated -- analytic derivatives used.
 ITU=  0
     Eigenvalues ---    0.00244   0.00412   0.09492   0.09913   0.11053
     Eigenvalues ---    0.11322   0.13630   0.16866   0.17871   0.19303
     Eigenvalues ---    0.22395   0.23175   0.27650   0.36867   0.39491
     Eigenvalues ---    0.41205   0.42507   0.52398   0.58697   0.75147
     Eigenvalues ---    0.78324
 Angle between quadratic step and forces=  67.39 degrees.
 Linear search not attempted -- first point.
 Iteration  1 RMS(Cart)=  0.00045954 RMS(Int)=  0.00000012
 Iteration  2 RMS(Cart)=  0.00000011 RMS(Int)=  0.00000001
 ITry= 1 IFail=0 DXMaxC= 1.19D-03 DCOld= 1.00D+10 DXMaxT= 3.00D-01 DXLimC= 3.00D+00 Rises=F
 Variable       Old X    -DE/DX   Delta X   Delta X   Delta X     New X
                                 (Linear)    (Quad)   (Total)
    R1        2.49217  -0.00006   0.00000  -0.00015  -0.00015   2.49202
    R2        2.49223  -0.00002   0.00000  -0.00002  -0.00002   2.49221
    R3        2.50622  -0.00005   0.00000  -0.00002  -0.00002   2.50620
    R4        3.47763  -0.00009   0.00000  -0.00038  -0.00038   3.47726
    R5        2.66696   0.00002   0.00000   0.00003   0.00003   2.66699
    R6        2.68135   0.00001   0.00000   0.00001   0.00001   2.68136
    R7        2.97177  -0.00002   0.00000  -0.00000  -0.00000   2.97176
    R8        1.82939   0.00001   0.00000   0.00001   0.00001   1.82940
    A1        1.91493   0.00003   0.00000   0.00022   0.00022   1.91516
    A2        1.90668  -0.00003   0.00000  -0.00022  -0.00022   1.90646
    A3        1.92517   0.00003   0.00000   0.00020   0.00020   1.92537
    A4        1.91015   0.00003   0.00000   0.00004   0.00004   1.91019
    A5        1.90042  -0.00004   0.00000  -0.00004  -0.00004   1.90039
    A6        1.90639  -0.00003   0.00000  -0.00020  -0.00020   1.90618
    A7        1.87110  -0.00002   0.00000  -0.00003  -0.00003   1.87107
    A8        1.86281   0.00002   0.00000   0.00010   0.00010   1.86291
    A9        1.73290  -0.00008   0.00000  -0.00036  -0.00036   1.73254
   A10        2.16124   0.00001   0.00000   0.00009   0.00009   2.16133
   A11        1.88023   0.00003   0.00000   0.00013   0.00013   1.88036
   A12        1.90749   0.00001   0.00000  -0.00004  -0.00004   1.90745
   A13        1.92171  -0.00002   0.00000  -0.00011  -0.00011   1.92159
    D1        0.87331   0.00002   0.00000  -0.00044  -0.00044   0.87287
    D2       -3.06135   0.00003   0.00000  -0.00027  -0.00027  -3.06162
    D3       -1.08044   0.00002   0.00000  -0.00043  -0.00043  -1.08087
    D4       -1.22894  -0.00002   0.00000  -0.00081  -0.00081  -1.22975
    D5        1.11959  -0.00001   0.00000  -0.00065  -0.00065   1.11894
    D6        3.10050  -0.00002   0.00000  -0.00081  -0.00081   3.09969
    D7        2.96915  -0.00002   0.00000  -0.00072  -0.00072   2.96843
    D8       -0.96551  -0.00000   0.00000  -0.00055  -0.00055  -0.96606
    D9        1.01540  -0.00002   0.00000  -0.00071  -0.00071   1.01469
   D10       -1.61068  -0.00001   0.00000  -0.00059  -0.00059  -1.61127
   D11        2.72596   0.00003   0.00000  -0.00045  -0.00045   2.72551
   D12        0.33514  -0.00003   0.00000  -0.00065  -0.00065   0.33449
         Item               Value     Threshold  Converged?
 Maximum Force            0.000086     0.000450     YES
 RMS     Force            0.000033     0.000300     YES
 Maximum Displacement     0.001195     0.001800     YES
 RMS     Displacement     0.000460     0.001200     YES
 Predicted change in Energy=-8.083642D-08
 Optimization completed.
    -- Stationary point found.
                           ----------------------------
                           !   Optimized Parameters   !
                           ! (Angstroms and Degrees)  !
 --------------------------                            --------------------------
 ! Name  Definition              Value          Derivative Info.                !
 --------------------------------------------------------------------------------
 ! R1    R(1,2)                  1.3188         -DE/DX =   -0.0001              !
 ! R2    R(1,3)                  1.3188         -DE/DX =    0.0                 !
 ! R3    R(1,4)                  1.3262         -DE/DX =   -0.0001              !
 ! R4    R(1,5)                  1.8403         -DE/DX =   -0.0001              !
 ! R5    R(5,6)                  1.4113         -DE/DX =    0.0                 !
 ! R6    R(5,7)                  1.4189         -DE/DX =    0.0                 !
 ! R7    R(5,8)                  1.5726         -DE/DX =    0.0                 !
 ! R8    R(8,9)                  0.9681         -DE/DX =    0.0                 !
 ! A1    A(2,1,3)              109.7175         -DE/DX =    0.0                 !
 ! A2    A(2,1,4)              109.2446         -DE/DX =    0.0                 !
 ! A3    A(2,1,5)              110.3044         -DE/DX =    0.0                 !
 ! A4    A(3,1,4)              109.4437         -DE/DX =    0.0                 !
 ! A5    A(3,1,5)              108.8861         -DE/DX =    0.0                 !
 ! A6    A(4,1,5)              109.228          -DE/DX =    0.0                 !
 ! A7    A(1,5,6)              107.2062         -DE/DX =    0.0                 !
 ! A8    A(1,5,7)              106.731          -DE/DX =    0.0                 !
 ! A9    A(1,5,8)               99.2876         -DE/DX =   -0.0001              !
 ! A10   A(6,5,7)              123.8299         -DE/DX =    0.0                 !
 ! A11   A(6,5,8)              107.7291         -DE/DX =    0.0                 !
 ! A12   A(7,5,8)              109.2912         -DE/DX =    0.0                 !
 ! A13   A(5,8,9)              110.1056         -DE/DX =    0.0                 !
 ! D1    D(2,1,5,6)             50.0368         -DE/DX =    0.0                 !
 ! D2    D(2,1,5,7)           -175.4025         -DE/DX =    0.0                 !
 ! D3    D(2,1,5,8)            -61.9046         -DE/DX =    0.0                 !
 ! D4    D(3,1,5,6)            -70.4129         -DE/DX =    0.0                 !
 ! D5    D(3,1,5,7)             64.1477         -DE/DX =    0.0                 !
 ! D6    D(3,1,5,8)            177.6456         -DE/DX =    0.0                 !
 ! D7    D(4,1,5,6)            170.1197         -DE/DX =    0.0                 !
 ! D8    D(4,1,5,7)            -55.3197         -DE/DX =    0.0                 !
 ! D9    D(4,1,5,8)             58.1782         -DE/DX =    0.0                 !
 ! D10   D(1,5,8,9)            -92.2851         -DE/DX =    0.0                 !
 ! D11   D(6,5,8,9)            156.1861         -DE/DX =    0.0                 !
 ! D12   D(7,5,8,9)             19.2023         -DE/DX =    0.0                 !
 --------------------------------------------------------------------------------
 GradGradGradGradGradGradGradGradGradGradGradGradGradGradGradGradGradGrad

 Leave Link  103 at Sun May 25 05:01:10 2025, MaxMem=  3758096384 cpu:               0.1 elap:               0.0
 (Enter /apps/easybuild-2022/easybuild/software/Compiler/NVHPC/22.11-CUDA-11.7.0/Gaussian/g16c01-CUDA-11.7.0/g16/l9999.exe)

 ----------------------------------------------------------------------

 Electric dipole moment (input orientation):
 (Debye = 10**-18 statcoulomb cm , SI units = C m)
                  (au)            (Debye)         (10**-30 SI)
   Tot        0.112146D+01      0.285048D+01      0.950817D+01
   x          0.186817D+00      0.474842D+00      0.158390D+01
   y         -0.341683D+00     -0.868471D+00     -0.289691D+01
   z         -0.105168D+01     -0.267311D+01     -0.891652D+01

 Dipole polarizability, Alpha (input orientation).
 (esu units = cm**3 , SI units = C**2 m**2 J**-1)
 Alpha(0;0):
               (au)            (10**-24 esu)      (10**-40 SI)
   iso        0.412081D+02      0.610641D+01      0.679430D+01
   aniso      0.285386D+01      0.422899D+00      0.470539D+00
   xx         0.418537D+02      0.620208D+01      0.690075D+01
   yx         0.938666D-02      0.139096D-02      0.154765D-02
   yy         0.412244D+02      0.610883D+01      0.679699D+01
   zx        -0.143884D+01     -0.213214D+00     -0.237232D+00
   zy         0.465679D+00      0.690064D-01      0.767800D-01
   zz         0.405461D+02      0.600832D+01      0.668516D+01

 ----------------------------------------------------------------------

 Dipole orientation:
     6         -0.72734456          1.56797299          0.23942807
     9         -3.18377776          1.15298857          0.30734722
     9         -0.20710450          3.24928496         -1.52515690
     9          0.02568017          2.43591004          2.46670839
    16          0.97499679         -1.37878528         -0.47652802
     8         -0.18161699         -2.45609626         -2.62462634
     8          3.59189223         -0.81754407         -0.31366623
     8          0.16663343         -2.98641999          1.88851978
     1          1.39923846         -2.79916879          3.22728222

 Electric dipole moment (dipole orientation):
 (Debye = 10**-18 statcoulomb cm , SI units = C m)
                  (au)            (Debye)         (10**-30 SI)
   Tot        0.112146D+01      0.285048D+01      0.950817D+01
   x          0.000000D+00      0.000000D+00      0.000000D+00
   y          0.000000D+00      0.000000D+00      0.000000D+00
   z          0.112146D+01      0.285048D+01      0.950817D+01

 Dipole polarizability, Alpha (dipole orientation).
 (esu units = cm**3 , SI units = C**2 m**2 J**-1)
 Alpha(0;0):
               (au)            (10**-24 esu)      (10**-40 SI)
   iso        0.412081D+02      0.610641D+01      0.679430D+01
   aniso      0.285386D+01      0.422899D+00      0.470539D+00
   xx         0.413491D+02      0.612730D+01      0.681754D+01
   yx        -0.555453D+00     -0.823096D-01     -0.915818D-01
   yy         0.409151D+02      0.606300D+01      0.674600D+01
   zx         0.146150D+01      0.216571D+00      0.240968D+00
   zy         0.453820D+00      0.672492D-01      0.748249D-01
   zz         0.413601D+02      0.612893D+01      0.681936D+01

 ----------------------------------------------------------------------
 Unable to Open any file for archive entry.
 1\1\GINC-SPARTAN-BM154\Freq\RM062X\def2TZVPP\C1H1F3O3S1\AKHALILOV\25-M
 ay-2025\0\\#P Geom=AllCheck Guess=TCheck SCRF=Check GenChk RM062X/def2
 TZVPP Freq\\Gaussian input prepared by ASE\\0,1\C,-0.3800084786,-0.838
 6713384,0.0698673251\F,-1.6495428256,-0.6745877424,-0.2472843952\F,-0.
 2875070088,-1.3940522478,1.262475483\F,0.1970784591,-1.6246236725,-0.8
 291029414\S,0.4856606033,0.7850129036,0.1001267133\O,-0.2920559958,1.6
 580934557,0.8904688712\O,1.857208613,0.5122569154,0.3404792661\O,0.294
 7852267,1.202468635,-1.4039806189\H,1.0531304067,0.9093650912,-1.92949
 37031\\Version=ES64L-G16RevC.01\HF=-962.1258926\RMSD=1.996e-09\RMSF=3.
 013e-05\ZeroPoint=0.04049\Thermal=0.0479754\ETot=-962.0779173\HTot=-96
 2.0769731\GTot=-962.1180017\Dipole=0.1868174,-0.3416829,-1.0516811\Dip
 oleDeriv=1.5167266,0.029662,-0.0047656,0.0427026,1.5448556,-0.0412978,
 -0.0099041,-0.0425445,1.5064802,-0.9507756,-0.0632413,-0.145067,-0.088
 4858,-0.3654368,0.0043936,-0.1580486,0.0040068,-0.2833887,-0.275582,-0
 .0606188,0.0069861,-0.0583114,-0.5379865,0.3352835,-0.0054929,0.293777
 3,-0.7612555,-0.3701723,0.092059,0.1532973,0.1042066,-0.7125526,-0.300
 8214,0.1646801,-0.299617,-0.5467356,2.0706673,-0.1739864,0.0105404,-0.
 1465964,1.8182282,0.0049902,-0.0815833,-0.0160699,2.2910953,-0.6748557
 ,0.198851,0.1933412,0.121745,-0.8849825,-0.2361079,0.1178215,-0.230879
 3,-0.6862308,-1.1664829,-0.0224208,-0.162161,0.0528272,-0.5954748,0.03
 15096,-0.044111,-0.0060716,-0.5945432,-0.4564179,-0.0592868,0.0455303,
 -0.0664263,-0.5712355,0.1847593,0.0595428,0.3170957,-1.3444641,0.30689
 25,0.058982,-0.0977018,0.0383384,0.3045848,0.0172908,-0.0429046,-0.019
 6975,0.4190424\Polar=41.8537365,0.0093867,41.2244089,-1.4388365,0.4656
 785,40.5461403\PG=Unknown\NImag=0\\0.57826881,-0.01192907,0.54684144,0
 .00401469,-0.00757965,0.58006706,-0.32186434,0.00344102,-0.05931286,0.
 43049122,0.00076315,-0.08062384,0.00088215,-0.05280275,0.07654736,-0.0
 5678237,0.00171338,-0.08733244,0.08670361,-0.01140321,0.10367462,-0.07
 618720,-0.00258452,-0.00197743,-0.01885039,0.03000468,-0.05555934,0.08
 070364,-0.00190857,-0.14827471,0.11653986,0.01853454,0.00476227,0.0181
 2142,-0.01692991,0.13719851,-0.00436066,0.11228514,-0.26925502,-0.0388
 9538,0.02236564,-0.03192214,0.02398299,-0.14606411,0.39356731,-0.10658
 784,0.05396518,0.05609181,-0.05553465,0.04748037,0.03258784,0.00888814
 ,0.00172842,0.01962042,0.14794195,0.05663247,-0.18970296,-0.10767314,0
 .03118394,-0.00250506,-0.00828604,-0.00260456,0.02231090,-0.00160032,-
 0.09926394,0.19939209,0.05662211,-0.10345156,-0.17431065,0.01970081,-0
 .00684123,0.01109302,0.02320382,-0.02151444,-0.07729747,-0.10618427,0.
 14505805,0.24620665,-0.06236833,-0.07368164,-0.00247606,-0.03596786,-0
 .01740433,-0.00677197,0.00385936,0.00936878,-0.00769919,-0.00140073,0.
 02825542,0.01551887,1.14072375,-0.07469527,-0.16287667,-0.00678376,0.0
 2208245,0.00953894,0.00356709,-0.00128322,-0.00121847,0.00213857,-0.00
 127458,-0.01327417,-0.00585669,-0.27381750,0.73805419,0.00223912,0.003
 64591,-0.02052962,-0.01225358,-0.00634306,-0.00107936,0.00946007,0.034
 76167,-0.02492503,0.00160232,-0.03360660,-0.01736915,-0.10162288,0.156
 63946,0.75105962,-0.00369161,-0.00542356,0.00065759,0.00789307,0.00006
 880,0.00032428,0.00100430,0.00018702,-0.00094310,0.00201445,-0.0028416
 9,-0.00224852,-0.28712933,0.21702488,0.19312836,0.27841571,0.03154753,
 0.01214853,-0.01819962,-0.00784762,-0.00166328,-0.00005701,-0.00280714
 ,-0.00400134,0.00539093,-0.00167978,-0.01493613,-0.00623273,0.22064442
 ,-0.35850541,-0.22893441,-0.24362523,0.33718778,0.01370523,0.00513651,
 -0.00473011,-0.00160474,-0.00000792,0.00092297,-0.00240298,-0.00525731
 ,0.00680980,-0.00136590,-0.00354357,0.00000304,0.19482096,-0.22532626,
 -0.27949698,-0.21732903,0.25058353,0.29481233,-0.01142820,0.03650020,-
 0.00574410,-0.00912723,-0.00854271,-0.00150992,0.00137742,-0.00715972,
 0.00590212,0.00402544,-0.00908984,-0.00428479,-0.67105553,0.10328668,-
 0.09391573,-0.00701108,0.00235235,-0.01053193,0.70079461,-0.00839546,0
 .01218081,-0.00329767,-0.01018873,-0.00427978,-0.00159908,-0.00041752,
 -0.00054196,0.00005347,-0.00147848,0.00071758,0.00065248,0.09800560,-0
 .11819580,0.01405896,0.03018932,0.01512865,0.00276231,-0.12422006,0.08
 469099,-0.00213913,0.00320189,0.00052591,-0.00044241,-0.00064902,0.000
 68646,0.00020287,-0.00404747,0.00450674,-0.00111312,0.00276027,0.00282
 995,-0.09724755,0.01783986,-0.11008555,0.02457812,-0.00888122,0.014856
 28,0.11961594,-0.02093477,0.09245441,0.00486607,0.00078920,0.00818308,
 0.00279499,0.00038133,0.00105976,-0.00107845,-0.00486792,0.00323609,0.
 00066613,-0.00299100,-0.00186010,-0.09637802,0.01141317,-0.00141710,0.
 00613140,0.00236731,0.03127454,-0.00151474,0.01542249,-0.04101850,0.41
 111648,0.00879234,0.00771786,0.01981640,-0.00481125,-0.00129435,-0.001
 72022,-0.00300100,-0.00873659,0.00551966,-0.00072006,-0.00015739,0.001
 05039,0.01624445,-0.09478401,0.05393783,0.00420193,0.01240702,-0.02438
 443,0.00680011,0.01247519,0.01025477,-0.15293308,0.12763684,-0.0136716
 9,-0.01792216,-0.02436164,0.00723416,0.00293864,0.00399794,0.00330500,
 0.00822756,-0.00179572,-0.00107859,0.00709881,0.00892349,-0.02828634,0
 .06807074,-0.26190878,0.00321443,0.00481567,-0.02877013,-0.00839534,0.
 00911556,-0.01368594,-0.18129127,-0.00144274,0.48007458,-0.00100736,-0
 .00107680,0.00056329,0.00016520,0.00005146,-0.00005189,0.00028318,0.00
 104735,-0.00084328,-0.00001290,0.00071921,-0.00046793,0.00971668,-0.00
 273661,0.00277942,0.00237310,-0.00095184,-0.00656615,-0.00606069,0.001
 08285,-0.00243620,-0.32660386,0.12542655,0.21896963,0.32114664,-0.0008
 0712,0.00258953,0.00629542,0.00040841,-0.00048225,-0.00033631,-0.00037
 680,-0.00149861,-0.00008898,0.00124288,-0.00184486,-0.00286427,-0.0076
 1519,0.00126139,0.00584024,0.00021853,0.00223420,0.00003714,0.00007299
 ,-0.00217568,0.00045568,0.13041849,-0.05526456,-0.08090208,-0.12356219
 ,0.05518084,0.00037271,0.00297054,-0.00007350,-0.00112961,-0.00094199,
 -0.00004106,-0.00021499,-0.00076718,0.00031153,-0.00016051,-0.00020747
 ,-0.00007888,0.03376417,-0.01028902,-0.03566515,-0.00138214,0.00151487
 ,-0.00440721,-0.00113625,-0.00081126,0.00791174,0.18183351,-0.06303166
 ,-0.16247381,-0.21194689,0.07156317,0.19451634\\0.00005885,-0.00005161
 ,-0.00002266,-0.00006471,0.00001956,0.00003843,-0.00002428,-0.00002475
 ,0.00000924,0.00004159,-0.00004930,-0.00001507,-0.00002696,0.00003922,
 -0.00001106,0.00002819,-0.00000257,-0.00000461,-0.00000811,0.00001288,
 0.00000822,0.00001397,0.00004407,0.00000022,-0.00001855,0.00001248,-0.
 00000271\\\@
 The archive entry for this job was punched.


 AND THIS OUR LIFE, EXEMPT FROM PUBLIC HAUNT,
 FINDS TONGUES IN TREES, BOOKS IN THE RUNNING BROOKS,
 SERMONS IN STONES, AND GOOD IN EVERYTHING.
 I WOULD NOT CHANGE IT. -- W. SHAKESPEARE
 AS YOU LIKE IT, ACT II, SCENE 1.
 Job cpu time:       0 days  0 hours 15 minutes 31.8 seconds.
 Elapsed time:       0 days  0 hours  2 minutes  3.6 seconds.
 File lengths (MBytes):  RWF=     75 Int=      0 D2E=      0 Chk=      6 Scr=      1
 Normal termination of Gaussian 16 at Sun May 25 05:01:10 2025.
done
