 Entering Gaussian System, Link 0=g16
 Initial command:
 /apps/easybuild-2022/easybuild/software/Compiler/NVHPC/22.11-CUDA-11.7.0/Gaussian/g16c01-CUDA-11.7.0/g16/l1.exe "/tmp/Gau-291626.inp" -scrdir="/tmp/"
 Entering Link 1 = /apps/easybuild-2022/easybuild/software/Compiler/NVHPC/22.11-CUDA-11.7.0/Gaussian/g16c01-CUDA-11.7.0/g16/l1.exe PID=    291627.
  
 Copyright (c) 1988-2019, Gaussian, Inc.  All Rights Reserved.
  
 This is part of the Gaussian(R) 16 program.  It is based on
 the Gaussian(R) 09 system (copyright 2009, Gaussian, Inc.),
 the Gaussian(R) 03 system (copyright 2003, Gaussian, Inc.),
 the Gaussian(R) 98 system (copyright 1998, Gaussian, Inc.),
 the Gaussian(R) 94 system (copyright 1995, Gaussian, Inc.),
 the Gaussian 92(TM) system (copyright 1992, Gaussian, Inc.),
 the Gaussian 90(TM) system (copyright 1990, Gaussian, Inc.),
 the Gaussian 88(TM) system (copyright 1988, Gaussian, Inc.),
 the Gaussian 86(TM) system (copyright 1986, Carnegie Mellon
 University), and the Gaussian 82(TM) system (copyright 1983,
 Carnegie Mellon University). Gaussian is a federally registered
 trademark of Gaussian, Inc.
  
 This software contains proprietary and confidential information,
 including trade secrets, belonging to Gaussian, Inc.
  
 This software is provided under written license and may be
 used, copied, transmitted, or stored only in accord with that
 written license.
  
 The following legend is applicable only to US Government
 contracts under FAR:
  
                    RESTRICTED RIGHTS LEGEND
  
 Use, reproduction and disclosure by the US Government is
 subject to restrictions as set forth in subparagraphs (a)
 and (c) of the Commercial Computer Software - Restricted
 Rights clause in FAR 52.227-19.
  
 Gaussian, Inc.
 340 Quinnipiac St., Bldg. 40, Wallingford CT 06492
  
  
 ---------------------------------------------------------------
 Warning -- This program may not be used in any manner that
 competes with the business of Gaussian, Inc. or will provide
 assistance to any competitor of Gaussian, Inc.  The licensee
 of this program is prohibited from giving any competitor of
 Gaussian, Inc. access to this program.  By using this program,
 the user acknowledges that Gaussian, Inc. is engaged in the
 business of creating and licensing software in the field of
 computational chemistry and represents and warrants to the
 licensee that it is not a competitor of Gaussian, Inc. and that
 it will not use this program in any manner prohibited above.
 ---------------------------------------------------------------
  

 Cite this work as:
 Gaussian 16, Revision C.01,
 M. J. Frisch, G. W. Trucks, H. B. Schlegel, G. E. Scuseria, 
 M. A. Robb, J. R. Cheeseman, G. Scalmani, V. Barone, 
 G. A. Petersson, H. Nakatsuji, X. Li, M. Caricato, A. V. Marenich, 
 J. Bloino, B. G. Janesko, R. Gomperts, B. Mennucci, H. P. Hratchian, 
 J. V. Ortiz, A. F. Izmaylov, J. L. Sonnenberg, D. Williams-Young, 
 F. Ding, F. Lipparini, F. Egidi, J. Goings, B. Peng, A. Petrone, 
 T. Henderson, D. Ranasinghe, V. G. Zakrzewski, J. Gao, N. Rega, 
 G. Zheng, W. Liang, M. Hada, M. Ehara, K. Toyota, R. Fukuda, 
 J. Hasegawa, M. Ishida, T. Nakajima, Y. Honda, O. Kitao, H. Nakai, 
 T. Vreven, K. Throssell, J. A. Montgomery, Jr., J. E. Peralta, 
 F. Ogliaro, M. J. Bearpark, J. J. Heyd, E. N. Brothers, K. N. Kudin, 
 V. N. Staroverov, T. A. Keith, R. Kobayashi, J. Normand, 
 K. Raghavachari, A. P. Rendell, J. C. Burant, S. S. Iyengar, 
 J. Tomasi, M. Cossi, J. M. Millam, M. Klene, C. Adamo, R. Cammi, 
 J. W. Ochterski, R. L. Martin, K. Morokuma, O. Farkas, 
 J. B. Foresman, and D. J. Fox, Gaussian, Inc., Wallingford CT, 2019.
 
 ******************************************
 Gaussian 16:  ES64L-G16RevC.01  3-Jul-2019
                25-May-2025 
 ******************************************
 %mem=28GB
 %chk=1503305764823040000001_well
 %nprocshared=8
 Will use up to    8 processors via shared memory.
 -----------------------------------------------------------------
 #P M062X/Def2TZVPP Symm(None) scf(xqc) pop(None) freq opt(CalcFC)
 -----------------------------------------------------------------
 1/10=4,18=20,19=15,26=3,38=1/1,3;
 2/9=110,12=2,15=3,17=6,18=5,40=1/2;
 3/5=44,7=202,11=2,25=1,30=1,71=2,74=-55,140=1/1,2,3;
 4//1;
 5/5=2,8=3,13=1,38=5/2,8;
 8/6=4,10=90,11=11/1;
 11/6=1,8=1,9=11,15=111,16=1,31=1/1,2,10;
 10/6=1,13=1,31=1/2;
 7/10=1,25=1,30=1/1,2,3,16;
 1/10=4,18=20,19=15,26=3/3(2);
 2/9=110,15=3/2;
 99//99;
 2/9=110,15=3/2;
 3/5=44,7=202,11=2,25=1,30=1,71=1,74=-55/1,2,3;
 4/5=5,16=3,69=1/1;
 5/5=2,8=3,13=1,38=5/2,8;
 7/30=1/1,2,3,16;
 1/18=20,19=15,26=3/3(-5);
 2/9=110,15=3/2;
 99/9=1/99;
 Leave Link    1 at Sun May 25 05:27:30 2025, MaxMem=  3758096384 cpu:               0.0 elap:               0.0
 (Enter /apps/easybuild-2022/easybuild/software/Compiler/NVHPC/22.11-CUDA-11.7.0/Gaussian/g16c01-CUDA-11.7.0/g16/l101.exe)
 ------------------------------
 Gaussian input prepared by ASE
 ------------------------------
 Symbolic Z-matrix:
 Charge =  0 Multiplicity = 1
 C                    -1.03975  -0.09369   0.16148 
 F                    -1.89108   0.50235  -0.66892 
 F                    -1.12917   0.47279   1.3521 
 F                    -1.38573  -1.37602   0.26979 
 S                     0.69457  -0.05489  -0.59565 
 O                     1.38448  -0.79354   0.59033 
 O                     2.44654  -0.18974  -0.27221 
 O                     0.69458   1.52243  -0.35011 
 H                     1.58739   1.85395  -0.51583 
 
 ITRead=  0  0  0  0  0  0  0  0  0
 MicOpt= -1 -1 -1 -1 -1 -1 -1 -1 -1
 NAtoms=      9 NQM=        9 NQMF=       0 NMMI=      0 NMMIF=      0
                NMic=       0 NMicF=      0.
                    Isotopes and Nuclear Properties:
 (Nuclear quadrupole moments (NQMom) in fm**2, nuclear magnetic moments (NMagM)
  in nuclear magnetons)

  Atom         1           2           3           4           5           6           7           8           9
 IAtWgt=          12          19          19          19          32          16          16          16           1
 AtmWgt=  12.0000000  18.9984032  18.9984032  18.9984032  31.9720718  15.9949146  15.9949146  15.9949146   1.0078250
 NucSpn=           0           1           1           1           0           0           0           0           1
 AtZEff=  -0.0000000  -0.0000000  -0.0000000  -0.0000000  -0.0000000  -0.0000000  -0.0000000  -0.0000000  -0.0000000
 NQMom=    0.0000000   0.0000000   0.0000000   0.0000000   0.0000000   0.0000000   0.0000000   0.0000000   0.0000000
 NMagM=    0.0000000   2.6288670   2.6288670   2.6288670   0.0000000   0.0000000   0.0000000   0.0000000   2.7928460
 AtZNuc=   6.0000000   9.0000000   9.0000000   9.0000000  16.0000000   8.0000000   8.0000000   8.0000000   1.0000000
 Leave Link  101 at Sun May 25 05:27:30 2025, MaxMem=  3758096384 cpu:               0.2 elap:               0.2
 (Enter /apps/easybuild-2022/easybuild/software/Compiler/NVHPC/22.11-CUDA-11.7.0/Gaussian/g16c01-CUDA-11.7.0/g16/l103.exe)

 GradGradGradGradGradGradGradGradGradGradGradGradGradGradGradGradGradGrad
 Berny optimization.
 Initialization pass.
                           ----------------------------
                           !    Initial Parameters    !
                           ! (Angstroms and Degrees)  !
 --------------------------                            --------------------------
 ! Name  Definition              Value          Derivative Info.                !
 --------------------------------------------------------------------------------
 ! R1    R(1,2)                  1.3303         calculate D2E/DX2 analytically  !
 ! R2    R(1,3)                  1.3215         calculate D2E/DX2 analytically  !
 ! R3    R(1,4)                  1.3326         calculate D2E/DX2 analytically  !
 ! R4    R(1,5)                  1.8928         calculate D2E/DX2 analytically  !
 ! R5    R(5,6)                  1.5582         calculate D2E/DX2 analytically  !
 ! R6    R(5,7)                  1.7867         calculate D2E/DX2 analytically  !
 ! R7    R(5,8)                  1.5963         calculate D2E/DX2 analytically  !
 ! R8    R(6,7)                  1.4955         calculate D2E/DX2 analytically  !
 ! R9    R(8,9)                  0.9667         calculate D2E/DX2 analytically  !
 ! A1    A(2,1,3)              109.089          calculate D2E/DX2 analytically  !
 ! A2    A(2,1,4)              108.4053         calculate D2E/DX2 analytically  !
 ! A3    A(2,1,5)              109.1177         calculate D2E/DX2 analytically  !
 ! A4    A(3,1,4)              108.7651         calculate D2E/DX2 analytically  !
 ! A5    A(3,1,5)              114.431          calculate D2E/DX2 analytically  !
 ! A6    A(4,1,5)              106.8656         calculate D2E/DX2 analytically  !
 ! A7    A(1,5,6)               95.2509         calculate D2E/DX2 analytically  !
 ! A8    A(1,5,7)              145.5405         calculate D2E/DX2 analytically  !
 ! A9    A(1,5,8)               87.6351         calculate D2E/DX2 analytically  !
 ! A10   A(6,5,8)              110.5677         calculate D2E/DX2 analytically  !
 ! A11   A(7,5,8)               92.6783         calculate D2E/DX2 analytically  !
 ! A12   A(5,8,9)              108.2103         calculate D2E/DX2 analytically  !
 ! D1    D(2,1,5,6)            179.7775         calculate D2E/DX2 analytically  !
 ! D2    D(2,1,5,7)            160.6207         calculate D2E/DX2 analytically  !
 ! D3    D(2,1,5,8)             69.3329         calculate D2E/DX2 analytically  !
 ! D4    D(3,1,5,6)             57.255          calculate D2E/DX2 analytically  !
 ! D5    D(3,1,5,7)             38.0982         calculate D2E/DX2 analytically  !
 ! D6    D(3,1,5,8)            -53.1896         calculate D2E/DX2 analytically  !
 ! D7    D(4,1,5,6)            -63.2044         calculate D2E/DX2 analytically  !
 ! D8    D(4,1,5,7)            -82.3612         calculate D2E/DX2 analytically  !
 ! D9    D(4,1,5,8)           -173.6489         calculate D2E/DX2 analytically  !
 ! D10   D(1,5,8,9)            170.0241         calculate D2E/DX2 analytically  !
 ! D11   D(6,5,8,9)             75.3014         calculate D2E/DX2 analytically  !
 ! D12   D(7,5,8,9)             24.5167         calculate D2E/DX2 analytically  !
 --------------------------------------------------------------------------------
 Trust Radius=3.00D-01 FncErr=1.00D-07 GrdErr=1.00D-06 EigMax=2.50D+02 EigMin=1.00D-04
 Number of steps in this run=     43 maximum allowed number of steps=    100.
 GradGradGradGradGradGradGradGradGradGradGradGradGradGradGradGradGradGrad

 Leave Link  103 at Sun May 25 05:27:30 2025, MaxMem=  3758096384 cpu:               0.0 elap:               0.0
 (Enter /apps/easybuild-2022/easybuild/software/Compiler/NVHPC/22.11-CUDA-11.7.0/Gaussian/g16c01-CUDA-11.7.0/g16/l202.exe)
                          Input orientation:                          
 ---------------------------------------------------------------------
 Center     Atomic      Atomic             Coordinates (Angstroms)
 Number     Number       Type             X           Y           Z
 ---------------------------------------------------------------------
      1          6           0       -1.039749   -0.093686    0.161481
      2          9           0       -1.891083    0.502345   -0.668922
      3          9           0       -1.129173    0.472788    1.352100
      4          9           0       -1.385726   -1.376019    0.269787
      5         16           0        0.694566   -0.054885   -0.595648
      6          8           0        1.384476   -0.793535    0.590333
      7          8           0        2.446541   -0.189741   -0.272214
      8          8           0        0.694579    1.522429   -0.350114
      9          1           0        1.587394    1.853952   -0.515829
 ---------------------------------------------------------------------
                    Distance matrix (angstroms):
                    1          2          3          4          5
     1  C    0.000000
     2  F    1.330260   0.000000
     3  F    1.321538   2.160072   0.000000
     4  F    1.332595   2.159817   2.157616   0.000000
     5  S    1.892775   2.646026   2.719960   2.611893   0.000000
     6  O    2.559408   3.740898   2.915869   2.848869   1.558246
     7  O    3.514475   4.410368   3.982847   4.048122   1.786676
     8  O    2.425170   2.797831   2.706538   3.621180   1.596310
     9  H    3.339749   3.734981   3.574424   4.459747   2.108832
                    6          7          8          9
     6  O    0.000000
     7  O    1.495505   0.000000
     8  O    2.593085   2.450911   0.000000
     9  H    2.876449   2.230283   0.966689   0.000000
 Symmetry turned off by external request.
 Stoichiometry    CHF3O3S
 Rotational constants (GHZ):           3.2034302           1.4325453           1.2629135
 Leave Link  202 at Sun May 25 05:27:30 2025, MaxMem=  3758096384 cpu:               0.0 elap:               0.0
 (Enter /apps/easybuild-2022/easybuild/software/Compiler/NVHPC/22.11-CUDA-11.7.0/Gaussian/g16c01-CUDA-11.7.0/g16/l301.exe)
 Standard basis: def2TZVPP (5D, 7F)
 Ernie: Thresh=  0.10000D-02 Tol=  0.10000D-05 Strict=F.
   273 basis functions,   443 primitive gaussians,   315 cartesian basis functions
    37 alpha electrons       37 beta electrons
       nuclear repulsion energy       556.7433790549 Hartrees.
 IExCor= 4336 DFT=T Ex+Corr=M062X ExCW=0 ScaHFX=  0.540000
 ScaDFX=  1.000000  1.000000  1.000000  1.000000 ScalE2=  1.000000  1.000000
 IRadAn=      5 IRanWt=     -1 IRanGd=            0 ICorTp=0 IEmpDi=  4
 NAtoms=    9 NActive=    9 NUniq=    9 SFac= 1.00D+00 NAtFMM=   60 NAOKFM=F Big=F
 Integral buffers will be    131072 words long.
 Raffenetti 2 integral format.
 Two-electron integral symmetry is turned off.
 Leave Link  301 at Sun May 25 05:27:30 2025, MaxMem=  3758096384 cpu:               0.0 elap:               0.0
 (Enter /apps/easybuild-2022/easybuild/software/Compiler/NVHPC/22.11-CUDA-11.7.0/Gaussian/g16c01-CUDA-11.7.0/g16/l302.exe)
 NPDir=0 NMtPBC=     1 NCelOv=     1 NCel=       1 NClECP=     1 NCelD=      1
         NCelK=      1 NCelE2=     1 NClLst=     1 CellRange=     0.0.
 One-electron integrals computed using PRISM.
   1 Symmetry operations used in ECPInt.
 ECPInt:  NShTT=    4753 NPrTT=   15592 LenC2=    4565 LenP2D=   11454.
 LDataN:  DoStor=T MaxTD1= 6 Len=  172
 NBasis=   273 RedAO= T EigKep=  1.57D-03  NBF=   273
 NBsUse=   273 1.00D-06 EigRej= -1.00D+00 NBFU=   273
 Precomputing XC quadrature grid using
 IXCGrd= 4 IRadAn=           5 IRanWt=          -1 IRanGd=           0 AccXCQ= 0.00D+00.
 Generated NRdTot=       0 NPtTot=           0 NUsed=           0 NTot=          32
 NSgBfM=   312   312   312   312   312 MxSgAt=     9 MxSgA2=     9.
 Leave Link  302 at Sun May 25 05:27:31 2025, MaxMem=  3758096384 cpu:               0.6 elap:               0.1
 (Enter /apps/easybuild-2022/easybuild/software/Compiler/NVHPC/22.11-CUDA-11.7.0/Gaussian/g16c01-CUDA-11.7.0/g16/l303.exe)
 DipDrv:  MaxL=1.
 Leave Link  303 at Sun May 25 05:27:31 2025, MaxMem=  3758096384 cpu:               0.1 elap:               0.0
 (Enter /apps/easybuild-2022/easybuild/software/Compiler/NVHPC/22.11-CUDA-11.7.0/Gaussian/g16c01-CUDA-11.7.0/g16/l401.exe)
 ExpMin= 9.52D-02 ExpMax= 6.07D+04 ExpMxC= 2.07D+03 IAcc=3 IRadAn=         5 AccDes= 0.00D+00
 Harris functional with IExCor= 1009 and IRadAn=       5 diagonalized for initial guess.
 HarFok:  IExCor= 1009 AccDes= 0.00D+00 IRadAn=         5 IDoV= 1 UseB2=F ITyADJ=14
 ICtDFT=  3500011 ScaDFX=  1.000000  1.000000  1.000000  1.000000
 FoFCou: FMM=F IPFlag=           0 FMFlag=      100000 FMFlg1=           0
         NFxFlg=           0 DoJE=T BraDBF=F KetDBF=T FulRan=T
         wScrn=  0.000000 ICntrl=       500 IOpCl=  0 I1Cent=   200000004 NGrid=           0
         NMat0=    1 NMatS0=      1 NMatT0=    0 NMatD0=    1 NMtDS0=    0 NMtDT0=    0
 Symmetry not used in FoFCou.
 Harris En= -961.491719460878    
 JPrj=0 DoOrth=F DoCkMO=F.
 Leave Link  401 at Sun May 25 05:27:31 2025, MaxMem=  3758096384 cpu:               2.6 elap:               0.4
 (Enter /apps/easybuild-2022/easybuild/software/Compiler/NVHPC/22.11-CUDA-11.7.0/Gaussian/g16c01-CUDA-11.7.0/g16/l502.exe)
 Keep R1 ints in memory in canonical form, NReq=715214082.
 FoFCou: FMM=F IPFlag=           0 FMFlag=           0 FMFlg1=           0
         NFxFlg=           0 DoJE=F BraDBF=F KetDBF=F FulRan=T
         wScrn=  0.000000 ICntrl=       600 IOpCl=  0 I1Cent=           0 NGrid=           0
         NMat0=    1 NMatS0=  37401 NMatT0=    0 NMatD0=    1 NMtDS0=    0 NMtDT0=    0
 Symmetry not used in FoFCou.
 Two-electron integral symmetry not used.
 Closed shell SCF:
 Using DIIS extrapolation, IDIIS=  1040.
 NGot=  3758096384 LenX=  3058457086 LenY=  3058357420
 Requested convergence on RMS density matrix=1.00D-08 within  32 cycles.
 Requested convergence on MAX density matrix=1.00D-06.
 Requested convergence on             energy=1.00D-06.
 No special actions if energy rises.
 Integral accuracy reduced to 1.0D-05 until final iterations.

 Cycle   1  Pass 0  IDiag  1:
 E= -961.789168153788    
 DIIS: error= 1.93D-02 at cycle   1 NSaved=   1.
 NSaved= 1 IEnMin= 1 EnMin= -961.789168153788     IErMin= 1 ErrMin= 1.93D-02
 ErrMax= 1.93D-02  0.00D+00 EMaxC= 1.00D-01 BMatC= 3.58D-01 BMatP= 3.58D-01
 IDIUse=3 WtCom= 8.07D-01 WtEn= 1.93D-01
 Coeff-Com:  0.100D+01
 Coeff-En:   0.100D+01
 Coeff:      0.100D+01
 Gap=     0.477 Goal=   None    Shift=    0.000
 GapD=    0.477 DampG=2.000 DampE=0.500 DampFc=1.0000 IDamp=-1.
 RMSDP=2.26D-03 MaxDP=1.71D-01              OVMax= 1.84D-01

 Cycle   2  Pass 0  IDiag  1:
 E= -961.678918425293     Delta-E=        0.110249728495 Rises=F Damp=F
 DIIS: error= 2.19D-02 at cycle   2 NSaved=   2.
 NSaved= 2 IEnMin= 1 EnMin= -961.789168153788     IErMin= 1 ErrMin= 1.93D-02
 ErrMax= 2.19D-02  0.00D+00 EMaxC= 1.00D-01 BMatC= 4.31D-01 BMatP= 3.58D-01
 IDIUse=2 WtCom= 0.00D+00 WtEn= 1.00D+00
 Coeff-En:   0.615D+00 0.385D+00
 Coeff:      0.615D+00 0.385D+00
 Gap=     0.394 Goal=   None    Shift=    0.000
 RMSDP=1.17D-03 MaxDP=8.69D-02 DE= 1.10D-01 OVMax= 9.87D-02

 Cycle   3  Pass 0  IDiag  1:
 E= -961.960225560808     Delta-E=       -0.281307135514 Rises=F Damp=F
 DIIS: error= 2.45D-03 at cycle   3 NSaved=   3.
 NSaved= 3 IEnMin= 3 EnMin= -961.960225560808     IErMin= 3 ErrMin= 2.45D-03
 ErrMax= 2.45D-03  0.00D+00 EMaxC= 1.00D-01 BMatC= 5.95D-03 BMatP= 3.58D-01
 IDIUse=3 WtCom= 9.76D-01 WtEn= 2.45D-02
 Coeff-Com:  0.925D-01 0.231D-01 0.884D+00
 Coeff-En:   0.000D+00 0.000D+00 0.100D+01
 Coeff:      0.902D-01 0.225D-01 0.887D+00
 Gap=     0.349 Goal=   None    Shift=    0.000
 RMSDP=2.62D-04 MaxDP=1.37D-02 DE=-2.81D-01 OVMax= 2.30D-02

 Cycle   4  Pass 0  IDiag  1:
 E= -961.958827368113     Delta-E=        0.001398192695 Rises=F Damp=F
 DIIS: error= 3.18D-03 at cycle   4 NSaved=   4.
 NSaved= 4 IEnMin= 3 EnMin= -961.960225560808     IErMin= 3 ErrMin= 2.45D-03
 ErrMax= 3.18D-03  0.00D+00 EMaxC= 1.00D-01 BMatC= 7.29D-03 BMatP= 5.95D-03
 IDIUse=3 WtCom= 1.51D-01 WtEn= 8.49D-01
 Coeff-Com:  0.103D-01-0.313D-01 0.581D+00 0.440D+00
 Coeff-En:   0.000D+00 0.000D+00 0.579D+00 0.421D+00
 Coeff:      0.155D-02-0.472D-02 0.579D+00 0.424D+00
 Gap=     0.354 Goal=   None    Shift=    0.000
 RMSDP=1.67D-04 MaxDP=7.78D-03 DE= 1.40D-03 OVMax= 1.76D-02

 Cycle   5  Pass 0  IDiag  1:
 E= -961.963229553103     Delta-E=       -0.004402184989 Rises=F Damp=F
 DIIS: error= 8.10D-04 at cycle   5 NSaved=   5.
 NSaved= 5 IEnMin= 5 EnMin= -961.963229553103     IErMin= 5 ErrMin= 8.10D-04
 ErrMax= 8.10D-04  0.00D+00 EMaxC= 1.00D-01 BMatC= 7.80D-04 BMatP= 5.95D-03
 IDIUse=3 WtCom= 9.92D-01 WtEn= 8.10D-03
 Coeff-Com: -0.413D-02 0.135D-01 0.140D+00 0.167D+00 0.683D+00
 Coeff-En:   0.000D+00 0.000D+00 0.000D+00 0.000D+00 0.100D+01
 Coeff:     -0.410D-02 0.134D-01 0.139D+00 0.166D+00 0.686D+00
 Gap=     0.352 Goal=   None    Shift=    0.000
 RMSDP=4.91D-05 MaxDP=3.27D-03 DE=-4.40D-03 OVMax= 4.02D-03

 Cycle   6  Pass 0  IDiag  1:
 E= -961.963715262071     Delta-E=       -0.000485708968 Rises=F Damp=F
 DIIS: error= 9.99D-05 at cycle   6 NSaved=   6.
 NSaved= 6 IEnMin= 6 EnMin= -961.963715262071     IErMin= 6 ErrMin= 9.99D-05
 ErrMax= 9.99D-05  0.00D+00 EMaxC= 1.00D-01 BMatC= 7.50D-06 BMatP= 7.80D-04
 IDIUse=1 WtCom= 1.00D+00 WtEn= 0.00D+00
 Coeff-Com: -0.227D-02 0.543D-02 0.184D-01 0.328D-01 0.228D+00 0.717D+00
 Coeff:     -0.227D-02 0.543D-02 0.184D-01 0.328D-01 0.228D+00 0.717D+00
 Gap=     0.352 Goal=   None    Shift=    0.000
 RMSDP=8.48D-06 MaxDP=2.50D-04 DE=-4.86D-04 OVMax= 7.30D-04

 Initial convergence to 1.0D-05 achieved.  Increase integral accuracy.
 Cycle   7  Pass 1  IDiag  1:
 E= -961.963654843680     Delta-E=        0.000060418390 Rises=F Damp=F
 DIIS: error= 4.01D-05 at cycle   1 NSaved=   1.
 NSaved= 1 IEnMin= 1 EnMin= -961.963654843680     IErMin= 1 ErrMin= 4.01D-05
 ErrMax= 4.01D-05  0.00D+00 EMaxC= 1.00D-01 BMatC= 2.10D-06 BMatP= 2.10D-06
 IDIUse=1 WtCom= 1.00D+00 WtEn= 0.00D+00
 Coeff-Com:  0.100D+01
 Coeff:      0.100D+01
 Gap=     0.352 Goal=   None    Shift=    0.000
 RMSDP=8.48D-06 MaxDP=2.50D-04 DE= 6.04D-05 OVMax= 5.06D-04

 Cycle   8  Pass 1  IDiag  1:
 E= -961.963655650988     Delta-E=       -0.000000807308 Rises=F Damp=F
 DIIS: error= 3.85D-05 at cycle   2 NSaved=   2.
 NSaved= 2 IEnMin= 2 EnMin= -961.963655650988     IErMin= 2 ErrMin= 3.85D-05
 ErrMax= 3.85D-05  0.00D+00 EMaxC= 1.00D-01 BMatC= 1.63D-06 BMatP= 2.10D-06
 IDIUse=1 WtCom= 1.00D+00 WtEn= 0.00D+00
 Coeff-Com:  0.462D+00 0.538D+00
 Coeff:      0.462D+00 0.538D+00
 Gap=     0.352 Goal=   None    Shift=    0.000
 RMSDP=3.01D-06 MaxDP=9.48D-05 DE=-8.07D-07 OVMax= 2.69D-04

 Cycle   9  Pass 1  IDiag  1:
 E= -961.963656646561     Delta-E=       -0.000000995573 Rises=F Damp=F
 DIIS: error= 1.08D-05 at cycle   3 NSaved=   3.
 NSaved= 3 IEnMin= 3 EnMin= -961.963656646561     IErMin= 3 ErrMin= 1.08D-05
 ErrMax= 1.08D-05  0.00D+00 EMaxC= 1.00D-01 BMatC= 9.63D-08 BMatP= 1.63D-06
 IDIUse=1 WtCom= 1.00D+00 WtEn= 0.00D+00
 Coeff-Com: -0.311D-01 0.164D+00 0.867D+00
 Coeff:     -0.311D-01 0.164D+00 0.867D+00
 Gap=     0.352 Goal=   None    Shift=    0.000
 RMSDP=1.30D-06 MaxDP=5.39D-05 DE=-9.96D-07 OVMax= 1.01D-04

 Cycle  10  Pass 1  IDiag  1:
 E= -961.963656722581     Delta-E=       -0.000000076019 Rises=F Damp=F
 DIIS: error= 4.16D-06 at cycle   4 NSaved=   4.
 NSaved= 4 IEnMin= 4 EnMin= -961.963656722581     IErMin= 4 ErrMin= 4.16D-06
 ErrMax= 4.16D-06  0.00D+00 EMaxC= 1.00D-01 BMatC= 1.89D-08 BMatP= 9.63D-08
 IDIUse=1 WtCom= 1.00D+00 WtEn= 0.00D+00
 Coeff-Com: -0.382D-01 0.580D-01 0.450D+00 0.530D+00
 Coeff:     -0.382D-01 0.580D-01 0.450D+00 0.530D+00
 Gap=     0.352 Goal=   None    Shift=    0.000
 RMSDP=3.32D-07 MaxDP=1.13D-05 DE=-7.60D-08 OVMax= 3.20D-05

 Cycle  11  Pass 1  IDiag  1:
 E= -961.963656735400     Delta-E=       -0.000000012819 Rises=F Damp=F
 DIIS: error= 2.09D-06 at cycle   5 NSaved=   5.
 NSaved= 5 IEnMin= 5 EnMin= -961.963656735400     IErMin= 5 ErrMin= 2.09D-06
 ErrMax= 2.09D-06  0.00D+00 EMaxC= 1.00D-01 BMatC= 1.78D-09 BMatP= 1.89D-08
 IDIUse=1 WtCom= 1.00D+00 WtEn= 0.00D+00
 Coeff-Com: -0.933D-02-0.607D-02 0.294D-01 0.210D+00 0.776D+00
 Coeff:     -0.933D-02-0.607D-02 0.294D-01 0.210D+00 0.776D+00
 Gap=     0.352 Goal=   None    Shift=    0.000
 RMSDP=1.69D-07 MaxDP=5.91D-06 DE=-1.28D-08 OVMax= 1.80D-05

 Cycle  12  Pass 1  IDiag  1:
 E= -961.963656737080     Delta-E=       -0.000000001681 Rises=F Damp=F
 DIIS: error= 1.02D-06 at cycle   6 NSaved=   6.
 NSaved= 6 IEnMin= 6 EnMin= -961.963656737080     IErMin= 6 ErrMin= 1.02D-06
 ErrMax= 1.02D-06  0.00D+00 EMaxC= 1.00D-01 BMatC= 9.12D-10 BMatP= 1.78D-09
 IDIUse=1 WtCom= 1.00D+00 WtEn= 0.00D+00
 Coeff-Com:  0.230D-02-0.180D-01-0.844D-01 0.109D-01 0.504D+00 0.585D+00
 Coeff:      0.230D-02-0.180D-01-0.844D-01 0.109D-01 0.504D+00 0.585D+00
 Gap=     0.352 Goal=   None    Shift=    0.000
 RMSDP=9.17D-08 MaxDP=2.96D-06 DE=-1.68D-09 OVMax= 9.95D-06

 Cycle  13  Pass 1  IDiag  1:
 E= -961.963656737858     Delta-E=       -0.000000000778 Rises=F Damp=F
 DIIS: error= 2.76D-07 at cycle   7 NSaved=   7.
 NSaved= 7 IEnMin= 7 EnMin= -961.963656737858     IErMin= 7 ErrMin= 2.76D-07
 ErrMax= 2.76D-07  0.00D+00 EMaxC= 1.00D-01 BMatC= 5.07D-11 BMatP= 9.12D-10
 IDIUse=1 WtCom= 1.00D+00 WtEn= 0.00D+00
 Coeff-Com:  0.232D-02-0.679D-02-0.398D-01-0.264D-01 0.100D+00 0.237D+00
 Coeff-Com:  0.734D+00
 Coeff:      0.232D-02-0.679D-02-0.398D-01-0.264D-01 0.100D+00 0.237D+00
 Coeff:      0.734D+00
 Gap=     0.352 Goal=   None    Shift=    0.000
 RMSDP=2.89D-08 MaxDP=1.29D-06 DE=-7.78D-10 OVMax= 3.39D-06

 Cycle  14  Pass 1  IDiag  1:
 E= -961.963656737947     Delta-E=       -0.000000000088 Rises=F Damp=F
 DIIS: error= 7.34D-08 at cycle   8 NSaved=   8.
 NSaved= 8 IEnMin= 8 EnMin= -961.963656737947     IErMin= 8 ErrMin= 7.34D-08
 ErrMax= 7.34D-08  0.00D+00 EMaxC= 1.00D-01 BMatC= 5.32D-12 BMatP= 5.07D-11
 IDIUse=1 WtCom= 1.00D+00 WtEn= 0.00D+00
 Coeff-Com:  0.256D-03 0.527D-03 0.959D-03-0.845D-02-0.437D-01-0.138D-01
 Coeff-Com:  0.205D+00 0.859D+00
 Coeff:      0.256D-03 0.527D-03 0.959D-03-0.845D-02-0.437D-01-0.138D-01
 Coeff:      0.205D+00 0.859D+00
 Gap=     0.352 Goal=   None    Shift=    0.000
 RMSDP=1.56D-08 MaxDP=4.74D-07 DE=-8.84D-11 OVMax= 2.13D-06

 Cycle  15  Pass 1  IDiag  1:
 E= -961.963656737938     Delta-E=        0.000000000009 Rises=F Damp=F
 DIIS: error= 4.06D-08 at cycle   9 NSaved=   9.
 NSaved= 9 IEnMin= 8 EnMin= -961.963656737947     IErMin= 9 ErrMin= 4.06D-08
 ErrMax= 4.06D-08  0.00D+00 EMaxC= 1.00D-01 BMatC= 1.13D-12 BMatP= 5.32D-12
 IDIUse=1 WtCom= 1.00D+00 WtEn= 0.00D+00
 Coeff-Com: -0.251D-03 0.133D-02 0.696D-02 0.163D-02-0.306D-01-0.404D-01
 Coeff-Com: -0.620D-01 0.292D+00 0.832D+00
 Coeff:     -0.251D-03 0.133D-02 0.696D-02 0.163D-02-0.306D-01-0.404D-01
 Coeff:     -0.620D-01 0.292D+00 0.832D+00
 Gap=     0.352 Goal=   None    Shift=    0.000
 RMSDP=6.58D-09 MaxDP=1.76D-07 DE= 8.64D-12 OVMax= 1.18D-06

 SCF Done:  E(RM062X) =  -961.963656738     A.U. after   15 cycles
            NFock= 15  Conv=0.66D-08     -V/T= 2.0027
 KE= 9.594090339515D+02 PE=-3.396384753238D+03 EE= 9.182686834941D+02
 Leave Link  502 at Sun May 25 05:27:46 2025, MaxMem=  3758096384 cpu:              72.7 elap:              15.2
 (Enter /apps/easybuild-2022/easybuild/software/Compiler/NVHPC/22.11-CUDA-11.7.0/Gaussian/g16c01-CUDA-11.7.0/g16/l508.exe)
 QCSCF skips out because SCF is already converged.
 Leave Link  508 at Sun May 25 05:27:46 2025, MaxMem=  3758096384 cpu:               0.0 elap:               0.0
 (Enter /apps/easybuild-2022/easybuild/software/Compiler/NVHPC/22.11-CUDA-11.7.0/Gaussian/g16c01-CUDA-11.7.0/g16/l801.exe)
 DoSCS=F DFT=T ScalE2(SS,OS)=  1.000000  1.000000
 Range of M.O.s used for correlation:     1   273
 NBasis=   273 NAE=    37 NBE=    37 NFC=     0 NFV=     0
 NROrb=    273 NOA=    37 NOB=    37 NVA=   236 NVB=   236
 Leave Link  801 at Sun May 25 05:27:46 2025, MaxMem=  3758096384 cpu:               0.0 elap:               0.0
 (Enter /apps/easybuild-2022/easybuild/software/Compiler/NVHPC/22.11-CUDA-11.7.0/Gaussian/g16c01-CUDA-11.7.0/g16/l1101.exe)
 Using compressed storage, NAtomX=     9.
 Will process     10 centers per pass.
   1 Symmetry operations used in ECPInt.
 ECPInt:  NShTT=    4753 NPrTT=   15592 LenC2=    4565 LenP2D=   11454.
 LDataN:  DoStor=T MaxTD1= 7 Len=  274
 Leave Link 1101 at Sun May 25 05:27:46 2025, MaxMem=  3758096384 cpu:               0.7 elap:               0.1
 (Enter /apps/easybuild-2022/easybuild/software/Compiler/NVHPC/22.11-CUDA-11.7.0/Gaussian/g16c01-CUDA-11.7.0/g16/l1102.exe)
 Symmetrizing basis deriv contribution to polar:
 IMax=3 JMax=2 DiffMx= 0.00D+00
 Leave Link 1102 at Sun May 25 05:27:46 2025, MaxMem=  3758096384 cpu:               0.0 elap:               0.0
 (Enter /apps/easybuild-2022/easybuild/software/Compiler/NVHPC/22.11-CUDA-11.7.0/Gaussian/g16c01-CUDA-11.7.0/g16/l1110.exe)
 Forming Gx(P) for the SCF density, NAtomX=     9.
 Integral derivatives from FoFJK, PRISM(SPDF).
 Do as many integral derivatives as possible in FoFJK.
 G2DrvN: MDV=    3758095321.
 G2DrvN: will do    10 centers at a time, making    1 passes.
 Calling FoFCou, ICntrl=  3107 FMM=F I1Cent=   0 AccDes= 0.00D+00.
 FoFJK:  IHMeth= 1 ICntrl=    3107 DoSepK=F KAlg= 0 I1Cent=           0 FoldK=F
 IRaf=         0 NMat=       1 IRICut=       1 DoRegI=T DoRafI=F ISym2E= 0 IDoP0=0 IntGTp=1.
 FoFCou: FMM=F IPFlag=           0 FMFlag=      100000 FMFlg1=           0
         NFxFlg=           0 DoJE=F BraDBF=F KetDBF=F FulRan=T
         wScrn=  0.000000 ICntrl=      3107 IOpCl=  0 I1Cent=           0 NGrid=           0
         NMat0=    1 NMatS0=      1 NMatT0=    0 NMatD0=    1 NMtDS0=    0 NMtDT0=    0
 Symmetry not used in FoFCou.
 End of G2Drv F.D. properties file   721 does not exist.
 End of G2Drv F.D. properties file   722 does not exist.
 End of G2Drv F.D. properties file   788 does not exist.
 Leave Link 1110 at Sun May 25 05:28:09 2025, MaxMem=  3758096384 cpu:             175.4 elap:              22.1
 (Enter /apps/easybuild-2022/easybuild/software/Compiler/NVHPC/22.11-CUDA-11.7.0/Gaussian/g16c01-CUDA-11.7.0/g16/l1002.exe)
 Minotr:  Closed shell wavefunction.
          IDoAtm=111111111
          Direct CPHF calculation.
          Differentiating once with respect to nuclear coordinates.
          Requested convergence is 1.0D-08 RMS, and 1.0D-07 maximum.
          Secondary convergence is 1.0D-12 RMS, and 1.0D-12 maximum.
          NewPWx=T KeepS1=F KeepF1=F KeepIn=T MapXYZ=F SortEE=F KeepMc=T.
         2690 words used for storage of precomputed grid.
 Keep R1 ints in memory in canonical form, NReq=715218551.
 FoFCou: FMM=F IPFlag=           0 FMFlag=           0 FMFlg1=           0
         NFxFlg=           0 DoJE=F BraDBF=F KetDBF=F FulRan=T
         wScrn=  0.000000 ICntrl=       600 IOpCl=  0 I1Cent=           0 NGrid=           0
         NMat0=    1 NMatS0=  37401 NMatT0=    0 NMatD0=    1 NMtDS0=    0 NMtDT0=    0
 Symmetry not used in FoFCou.
 Two-electron integral symmetry not used.
          MDV=    3758096384 using IRadAn=       1.
          Solving linear equations simultaneously, MaxMat=       0.
          There are    30 degrees of freedom in the 1st order CPHF.  IDoFFX=6 NUNeed=     0.
     24 vectors produced by pass  0 Test12= 2.91D-14 3.33D-09 XBig12= 1.14D-01 7.26D-02.
 AX will form    24 AO Fock derivatives at one time.
     24 vectors produced by pass  1 Test12= 2.91D-14 3.33D-09 XBig12= 1.81D-02 2.66D-02.
     24 vectors produced by pass  2 Test12= 2.91D-14 3.33D-09 XBig12= 1.51D-03 8.90D-03.
     24 vectors produced by pass  3 Test12= 2.91D-14 3.33D-09 XBig12= 3.62D-05 1.37D-03.
     24 vectors produced by pass  4 Test12= 2.91D-14 3.33D-09 XBig12= 5.37D-07 1.27D-04.
     24 vectors produced by pass  5 Test12= 2.91D-14 3.33D-09 XBig12= 6.74D-09 1.19D-05.
     24 vectors produced by pass  6 Test12= 2.91D-14 3.33D-09 XBig12= 5.74D-11 9.56D-07.
     19 vectors produced by pass  7 Test12= 2.91D-14 3.33D-09 XBig12= 3.68D-13 6.98D-08.
      4 vectors produced by pass  8 Test12= 2.91D-14 3.33D-09 XBig12= 2.34D-15 5.56D-09.
 InvSVY:  IOpt=1 It=  1 EMax= 3.00D-15
 Solved reduced A of dimension   191 with    24 vectors.
 End of Minotr F.D. properties file   721 does not exist.
 End of Minotr F.D. properties file   722 does not exist.
 End of Minotr F.D. properties file   788 does not exist.
 Leave Link 1002 at Sun May 25 05:28:37 2025, MaxMem=  3758096384 cpu:             225.2 elap:              28.6
 (Enter /apps/easybuild-2022/easybuild/software/Compiler/NVHPC/22.11-CUDA-11.7.0/Gaussian/g16c01-CUDA-11.7.0/g16/l701.exe)
 ... and contract with generalized density number  0.
 Compute integral second derivatives.
   1 Symmetry operations used in ECPInt.
 ECPInt:  NShTT=    4753 NPrTT=   15592 LenC2=    4565 LenP2D=   11454.
 LDataN:  DoStor=T MaxTD1= 8 Len=  415
 Leave Link  701 at Sun May 25 05:28:37 2025, MaxMem=  3758096384 cpu:               0.7 elap:               0.1
 (Enter /apps/easybuild-2022/easybuild/software/Compiler/NVHPC/22.11-CUDA-11.7.0/Gaussian/g16c01-CUDA-11.7.0/g16/l702.exe)
 L702 exits ... SP integral derivatives will be done elsewhere.
 Leave Link  702 at Sun May 25 05:28:37 2025, MaxMem=  3758096384 cpu:               0.0 elap:               0.0
 (Enter /apps/easybuild-2022/easybuild/software/Compiler/NVHPC/22.11-CUDA-11.7.0/Gaussian/g16c01-CUDA-11.7.0/g16/l703.exe)
 Integral derivatives from FoFJK, PRISM(SPDF).
 Compute integral second derivatives, UseDBF=F ICtDFT=           0.
 Calling FoFJK, ICntrl=    100127 FMM=F ISym2X=0 I1Cent= 0 IOpClX= 0 NMat=1 NMatS=1 NMatT=0.
 FoFJK:  IHMeth= 1 ICntrl=  100127 DoSepK=F KAlg= 0 I1Cent=           0 FoldK=F
 IRaf=         0 NMat=       1 IRICut=       1 DoRegI=T DoRafI=F ISym2E= 0 IDoP0=0 IntGTp=1.
 FoFCou: FMM=F IPFlag=           0 FMFlag=      100000 FMFlg1=         800
         NFxFlg=           0 DoJE=F BraDBF=F KetDBF=F FulRan=T
         wScrn=  0.000000 ICntrl=    100127 IOpCl=  0 I1Cent=           0 NGrid=           0
         NMat0=    1 NMatS0=      1 NMatT0=    0 NMatD0=    1 NMtDS0=    0 NMtDT0=    0
 Symmetry not used in FoFCou.
 Leave Link  703 at Sun May 25 05:29:26 2025, MaxMem=  3758096384 cpu:             385.7 elap:              48.5
 (Enter /apps/easybuild-2022/easybuild/software/Compiler/NVHPC/22.11-CUDA-11.7.0/Gaussian/g16c01-CUDA-11.7.0/g16/l716.exe)
 Dipole        = 9.90819020D-02 6.07501898D-01-6.05567614D-01
 Polarizability= 0.00000000D+00 0.00000000D+00 0.00000000D+00
                 0.00000000D+00 0.00000000D+00 0.00000000D+00
 -------------------------------------------------------------------
 Center     Atomic                   Forces (Hartrees/Bohr)
 Number     Number              X              Y              Z
 -------------------------------------------------------------------
      1        6          -0.000007447    0.000001662    0.000003180
      2        9           0.000001166    0.000002074   -0.000000114
      3        9          -0.000000139    0.000005787   -0.000003119
      4        9          -0.000001857    0.000005410    0.000003731
      5       16           0.000003923    0.000000058   -0.000000058
      6        8          -0.000000029   -0.000002209    0.000004367
      7        8          -0.000001138   -0.000008312    0.000003029
      8        8           0.000001108   -0.000000343   -0.000006116
      9        1           0.000004412   -0.000004128   -0.000004900
 -------------------------------------------------------------------
 Cartesian Forces:  Max     0.000008312 RMS     0.000003762
 Force constants in Cartesian coordinates: 
                1             2             3             4             5 
      1  0.525365D+00
      2 -0.108261D-01  0.547304D+00
      3 -0.258597D-02  0.148782D-01  0.567028D+00
      4 -0.211289D+00  0.769686D-01 -0.937259D-01  0.206399D+00
      5  0.736238D-01 -0.113391D+00  0.537619D-01 -0.102742D+00  0.153148D+00
      6 -0.898758D-01  0.524417D-01 -0.141771D+00  0.145203D+00 -0.991316D-01
      7 -0.852005D-01  0.185895D-01  0.453586D-01  0.737063D-02 -0.739566D-02
      8  0.176802D-01 -0.114103D+00 -0.946500D-01 -0.409906D-02  0.172514D-01
      9  0.409256D-01 -0.937471D-01 -0.282788D+00 -0.247252D-01 -0.132543D-02
     10 -0.114075D+00 -0.852844D-01  0.175389D-01  0.180335D-01  0.326839D-01
     11 -0.828927D-01 -0.269267D+00  0.292548D-01  0.155676D-01 -0.579357D-01
     12  0.157340D-01  0.291823D-01 -0.782261D-01 -0.256675D-02  0.401710D-01
     13 -0.125961D+00  0.169472D-01  0.713452D-01 -0.335702D-02  0.575192D-03
     14 -0.350298D-02 -0.176801D-01 -0.121515D-03  0.203052D-01 -0.439648D-02
     15  0.172435D-01 -0.112218D-01 -0.688734D-01 -0.297028D-01  0.977350D-02
     16  0.124684D-03  0.616501D-02 -0.296392D-01 -0.791326D-02  0.179114D-02
     17  0.138835D-02 -0.262469D-02  0.720122D-02  0.301424D-02 -0.222187D-03
     18  0.537779D-02 -0.325379D-02 -0.258059D-02  0.364208D-02 -0.125912D-02
     19  0.101001D-01  0.116661D-01  0.292230D-02 -0.707530D-02  0.897048D-03
     20 -0.147142D-02  0.891729D-03  0.211164D-02 -0.152779D-02  0.830140D-03
     21  0.970761D-02  0.214692D-02  0.667454D-02  0.153558D-02 -0.622131D-03
     22  0.109142D-02 -0.343036D-01 -0.121242D-01 -0.311284D-02  0.634086D-03
     23  0.542344D-02 -0.238304D-01 -0.936747D-02 -0.773983D-02  0.362172D-02
     24  0.205499D-02  0.874707D-02  0.863552D-03  0.340154D-03 -0.887440D-03
     25 -0.155186D-03  0.777483D-04  0.910330D-03  0.943972D-03 -0.670621D-04
     26  0.577486D-03 -0.729967D-02 -0.306870D-02  0.253493D-03  0.109445D-02
     27  0.141828D-02  0.826483D-03 -0.326551D-03  0.000000D+00 -0.480694D-03
                6             7             8             9            10 
      6  0.213828D+00
      7 -0.428049D-01  0.659042D-01
      8  0.857186D-02 -0.815819D-02  0.151344D+00
      9 -0.699207D-01 -0.114667D-01  0.143424D+00  0.374579D+00
     10 -0.998359D-02  0.130020D-01 -0.241860D-02 -0.588830D-02  0.886696D-01
     11  0.351020D-01 -0.122065D-01 -0.556665D-01 -0.370356D-01  0.854062D-01
     12 -0.459735D-02 -0.141453D-01 -0.538021D-01 -0.378301D-02 -0.274525D-02
     13 -0.218274D-02  0.543265D-02 -0.555830D-02 -0.110913D-01  0.119690D-01
     14  0.479142D-02  0.105272D-01 -0.469346D-02 -0.158597D-01 -0.254151D-01
     15 -0.445031D-03  0.283604D-01 -0.974724D-02 -0.308974D-01  0.214960D-02
     16  0.178642D-02  0.122582D-02 -0.235956D-03  0.727604D-03 -0.424140D-02
     17  0.462994D-03  0.467094D-03  0.996611D-04 -0.130583D-02  0.258868D-02
     18  0.223908D-02 -0.546629D-03  0.564020D-03  0.279394D-02 -0.309582D-02
     19 -0.301247D-02 -0.817589D-02  0.288998D-02  0.115827D-01 -0.256798D-02
     20 -0.902908D-03 -0.137143D-02  0.112498D-02  0.225704D-02  0.379640D-03
     21 -0.415141D-03 -0.475490D-02  0.198374D-02  0.678387D-02 -0.230432D-02
     22  0.844454D-03  0.884898D-04 -0.129929D-03  0.483572D-03 -0.115186D-01
     23 -0.128109D-02 -0.135453D-02  0.402557D-02  0.411349D-02 -0.605123D-02
     24  0.106406D-02  0.179489D-03  0.341523D-02  0.305387D-02  0.410842D-02
     25  0.256575D-04  0.352597D-03  0.298346D-04 -0.547984D-03  0.728915D-03
     26 -0.544024D-04  0.902611D-03  0.617167D-03 -0.520842D-03 -0.188911D-02
     27  0.189779D-04 -0.179991D-03  0.240598D-03  0.178728D-03  0.220385D-03
               11            12            13            14            15 
     11  0.402807D+00
     12 -0.280176D-01  0.809993D-01
     13  0.101582D-01 -0.514464D-02  0.382056D+00
     14 -0.230045D-01  0.110098D-01 -0.526132D-01  0.472182D+00
     15  0.225874D-02  0.523719D-02  0.130629D+00 -0.499838D-01  0.439384D+00
     16 -0.385270D-02  0.281085D-02 -0.118100D+00  0.719064D-01 -0.106951D+00
     17  0.429481D-02 -0.154649D-02  0.865094D-01 -0.943094D-01  0.920081D-01
     18 -0.336016D-02  0.159452D-02 -0.146152D+00  0.126361D+00 -0.246574D+00
     19 -0.523241D-02  0.530962D-03 -0.721095D-01  0.976748D-02 -0.464944D-01
     20  0.177594D-02 -0.788306D-03 -0.868034D-02 -0.359646D-01  0.835764D-02
     21 -0.240387D-02 -0.126322D-03 -0.367790D-01 -0.931631D-03 -0.386467D-01
     22 -0.764666D-02  0.600490D-02 -0.878483D-01 -0.256270D-01  0.243359D-03
     23 -0.205449D-02  0.263343D-02 -0.325145D-02 -0.265016D+00 -0.454777D-01
     24  0.365153D-02 -0.125919D-02  0.577996D-02 -0.718085D-01 -0.624146D-01
     25  0.699049D-03 -0.478722D-03  0.791867D-02 -0.534800D-02  0.452235D-02
     26 -0.949650D-03  0.115784D-02 -0.440867D-01 -0.271177D-01  0.403252D-02
     27  0.550086D-03  0.160950D-03 -0.640507D-02 -0.345692D-02  0.322999D-02
               16            17            18            19            20 
     16  0.245930D+00
     17  0.372713D-03  0.139661D+00
     18  0.146344D-01 -0.173232D+00  0.309658D+00
     19 -0.119346D+00 -0.980677D-01  0.125253D+00  0.215189D+00
     20 -0.897133D-01 -0.436451D-01  0.477194D-01  0.622304D-01  0.893537D-01
     21  0.115624D+00  0.568913D-01 -0.827523D-01 -0.870217D-01 -0.610899D-01
     22  0.690828D-02  0.367033D-02  0.322194D-02 -0.890849D-02  0.343356D-01
     23  0.113424D-01 -0.483762D-02  0.655736D-02  0.133066D-01 -0.183177D-01
     24 -0.872974D-03  0.181337D-01  0.169101D-01 -0.446279D-02  0.540635D-02
     25 -0.458759D-02  0.569072D-04 -0.233498D-02 -0.710590D-02  0.581857D-02
     26  0.222427D-02  0.158323D-02 -0.963457D-04  0.254243D-02  0.395087D-02
     27  0.188059D-02  0.138714D-02 -0.128921D-02  0.702326D-03 -0.307096D-02
               21            22            23            24            25 
     21  0.106950D+00
     22  0.642080D-02  0.546255D+00
     23  0.269797D-02  0.152999D+00  0.389081D+00
     24  0.244433D-02 -0.907164D-01  0.141114D-01  0.632555D-01
     25 -0.242784D-02 -0.442955D+00 -0.164675D+00  0.835892D-01  0.444859D+00
     26  0.132757D-02 -0.123932D+00 -0.826724D-01  0.192307D-01  0.163407D+00
     27 -0.911900D-03  0.856216D-01  0.260126D-01 -0.239176D-01 -0.832580D-01
               26            27 
     26  0.110794D+00
     27 -0.220083D-01  0.228566D-01
 FormGI is forming the generalized inverse of G from B-inverse, IUseBI=4.
 Force constants in internal coordinates: 
                1             2             3             4             5 
      1  0.429021D+00
      2  0.539085D-01  0.444804D+00
      3  0.550614D-01  0.540605D-01  0.426688D+00
      4  0.806157D-02  0.741025D-02  0.754312D-02  0.157614D+00
      5  0.182719D-03  0.312519D-02  0.786248D-02 -0.848516D-03  0.366347D+00
      6  0.675956D-02  0.135513D-01  0.649460D-02  0.991215D-02  0.329090D-01
      7  0.741445D-02  0.586069D-02  0.437913D-02  0.592669D-02  0.139133D-01
      8 -0.669403D-03 -0.773015D-03 -0.360717D-03  0.252744D-02  0.881046D-02
      9 -0.433544D-03 -0.596618D-03 -0.225322D-03 -0.163214D-02 -0.403459D-02
     10  0.223704D-01  0.277454D-01  0.489603D-02 -0.821273D-02 -0.235861D-02
     11  0.233641D-01  0.433085D-02  0.212658D-01 -0.606924D-02 -0.413333D-02
     12  0.568649D-02 -0.295356D-01 -0.237322D-01  0.356763D-02  0.564124D-02
     13  0.444614D-02  0.286643D-01  0.210646D-01 -0.962542D-02 -0.377250D-02
     14 -0.295405D-01 -0.202950D-02 -0.288627D-01  0.165243D-01 -0.271364D-02
     15 -0.244603D-01 -0.296210D-01  0.833115D-02  0.290062D-02  0.726643D-02
     16  0.105701D-01 -0.409756D-02  0.992231D-04  0.387396D-02  0.351870D-01
     17  0.869100D-02 -0.892544D-02 -0.186900D-02  0.224760D-02 -0.771217D-02
     18  0.239279D-02 -0.411465D-02  0.199593D-01  0.217068D-01 -0.888798D-02
     19  0.334564D-02 -0.189137D-02  0.261095D-02  0.570388D-02 -0.712376D-02
     20 -0.176735D-02  0.166017D-03 -0.127703D-01 -0.154105D-01  0.114901D-01
     21  0.888143D-03 -0.978113D-04  0.280698D-02 -0.826999D-03  0.265998D-02
     22  0.589738D-03  0.133502D-01 -0.156274D-01  0.565238D-02 -0.912501D-02
     23 -0.257665D-02  0.992572D-02 -0.133787D-01  0.253168D-02  0.653583D-02
     24 -0.286425D-02  0.155496D-01 -0.198988D-01 -0.183261D-02 -0.890593D-03
     25 -0.121755D-01  0.106477D-02  0.162506D-01  0.206231D-02 -0.843660D-02
     26 -0.153419D-01 -0.235966D-02  0.184992D-01 -0.105839D-02  0.722423D-02
     27 -0.156295D-01  0.326420D-02  0.119791D-01 -0.542268D-02 -0.202192D-03
     28  0.177525D-01 -0.129247D-01  0.168062D-02  0.192498D-02 -0.712624D-02
     29  0.145861D-01 -0.163491D-01  0.392929D-02 -0.119572D-02  0.853460D-02
     30  0.142985D-01 -0.107252D-01 -0.259082D-02 -0.556000D-02  0.110818D-02
     31  0.720936D-02 -0.506710D-02  0.262953D-02  0.594081D-02  0.960885D-02
     32 -0.493874D-02  0.825065D-03 -0.489600D-02 -0.623634D-02 -0.247338D-01
     33 -0.155364D-02  0.396158D-02  0.398968D-02  0.312770D-02  0.175852D-01
                6             7             8             9            10 
      6  0.951286D-01
      7  0.184823D-01  0.338834D+00
      8  0.775012D-02 -0.341115D-02  0.217765D+00
      9 -0.775293D-02  0.762497D-02  0.218754D-02  0.525639D+00
     10 -0.717218D-02 -0.373148D-02  0.113243D-02  0.761260D-03  0.123996D+00
     11 -0.363332D-02 -0.563696D-02  0.986321D-03  0.558293D-03  0.334740D-01
     12  0.342572D-02  0.532320D-02 -0.251889D-02 -0.128310D-02 -0.907112D-01
     13 -0.606540D-02 -0.378562D-02  0.313492D-03  0.505659D-03  0.359167D-01
     14  0.138536D-01 -0.530504D-02  0.654188D-03 -0.111794D-02 -0.841655D-01
     15 -0.110873D-02  0.131929D-01 -0.544018D-03  0.661855D-03 -0.155074D-01
     16  0.919854D-02  0.483963D-02 -0.469527D-01 -0.169957D-02 -0.480296D-02
     17 -0.134270D-01  0.154512D-02  0.301524D-01  0.564072D-03 -0.234323D-02
     18 -0.344312D-01  0.242456D-01  0.176788D-01  0.108712D-01 -0.112169D-02
     19  0.122297D-01 -0.226206D-02  0.377920D-02 -0.629646D-03 -0.519698D-03
     20  0.308899D-01 -0.123488D-01 -0.166765D-01 -0.103300D-01  0.161442D-02
     21  0.968862D-02  0.484888D-01 -0.170158D-02  0.241219D-01  0.575764D-03
     22  0.679798D-02 -0.700558D-02  0.542908D-02  0.554866D-03  0.157384D-01
     23  0.200749D-02  0.678841D-02 -0.426822D-02 -0.215452D-02  0.175453D-01
     24 -0.254658D-02 -0.669112D-02 -0.288883D-03  0.271631D-03  0.163059D-01
     25  0.383156D-02 -0.247097D-02  0.540907D-02  0.132133D-02 -0.179103D-01
     26 -0.958929D-03  0.113230D-01 -0.428823D-02 -0.138806D-02 -0.161034D-01
     27 -0.551300D-02 -0.215651D-02 -0.308892D-03  0.103809D-02 -0.173428D-01
     28  0.368671D-02 -0.372028D-02  0.499269D-02  0.908893D-03 -0.166217D-03
     29 -0.110377D-02  0.100737D-01 -0.470460D-02 -0.180049D-02  0.164069D-02
     30 -0.565784D-02 -0.340582D-02 -0.725268D-03  0.625657D-03  0.401298D-03
     31 -0.520517D-02  0.588245D-02 -0.394215D-02  0.172083D-02 -0.262936D-02
     32 -0.205651D-02 -0.835654D-02  0.396531D-01 -0.526412D-03  0.291392D-02
     33  0.916101D-02  0.373031D-02 -0.346064D-01  0.861503D-03 -0.250477D-03
               11            12            13            14            15 
     11  0.109254D+00
     12 -0.768832D-01  0.151219D+00
     13  0.335455D-01 -0.140365D-01  0.120909D+00
     14 -0.103846D-01  0.736151D-02 -0.803199D-01  0.155517D+00
     15 -0.822465D-01  0.189306D-01 -0.919341D-01  0.682583D-02  0.159975D+00
     16 -0.498135D-02  0.195695D-01  0.171077D-02 -0.107061D-01 -0.713269D-03
     17 -0.369371D-02  0.178256D-01  0.346881D-02 -0.146895D-01 -0.276496D-03
     18 -0.113053D-01  0.182635D-03 -0.134206D-01 -0.578321D-02  0.313022D-01
     19 -0.710734D-03  0.564342D-03 -0.891697D-03  0.900487D-03  0.584131D-03
     20  0.821532D-02 -0.118654D-02  0.930300D-02  0.320802D-02 -0.209987D-01
     21 -0.119653D-02 -0.950472D-03 -0.153020D-02 -0.420050D-02  0.748213D-02
     22 -0.227876D-01  0.356308D-02 -0.709923D-03  0.331862D-02 -0.135835D-02
     23 -0.231049D-01  0.118987D-02 -0.182501D-02  0.158623D-03  0.394646D-02
     24 -0.211879D-01  0.317332D-02  0.131204D-02  0.278739D-02 -0.454019D-02
     25 -0.707983D-03  0.169433D-02  0.194449D-01 -0.159778D-02 -0.320858D-03
     26 -0.102529D-02 -0.678882D-03  0.183298D-01 -0.475778D-02  0.498395D-02
     27  0.891664D-03  0.130457D-02  0.214669D-01 -0.212901D-02 -0.350270D-02
     28  0.214360D-01  0.148265D-02 -0.184368D-01 -0.139613D-02 -0.147405D-02
     29  0.211187D-01 -0.890555D-03 -0.195518D-01 -0.455614D-02  0.383076D-02
     30  0.230357D-01  0.109290D-02 -0.164148D-01 -0.192737D-02 -0.465588D-02
     31 -0.456248D-02  0.129175D-01 -0.109186D-03 -0.981921D-02  0.432473D-02
     32  0.496885D-02 -0.804761D-02  0.306137D-02  0.378345D-02 -0.658613D-02
     33 -0.570544D-03 -0.493764D-02 -0.323482D-02  0.503218D-02  0.379555D-02
               16            17            18            19            20 
     16  0.586904D-01
     17  0.365373D-01  0.541941D-01
     18 -0.133384D-01 -0.510030D-03  0.229694D+00
     19  0.103012D-01  0.614128D-02  0.724670D-02  0.378074D-01
     20  0.133290D-01  0.274484D-02 -0.178628D+00  0.581245D-02  0.149446D+00
     21  0.335145D-02  0.130552D-02  0.237631D-01 -0.502968D-02 -0.194282D-01
     22  0.368013D-02  0.123372D-02  0.757493D-02  0.185673D-01 -0.522587D-02
     23 -0.117078D-02 -0.888238D-03  0.636755D-04  0.876756D-03  0.773931D-02
     24 -0.498597D-02 -0.453291D-02 -0.188258D-01 -0.198993D-01  0.383760D-02
     25  0.257145D-02  0.103677D-02  0.129501D-01  0.181846D-01 -0.867574D-02
     26 -0.227946D-02 -0.108520D-02  0.543888D-02  0.494052D-03  0.428945D-02
     27 -0.609465D-02 -0.472987D-02 -0.134506D-01 -0.202820D-01  0.387731D-03
     28  0.754334D-02  0.594943D-02  0.113711D-01  0.183395D-01 -0.757903D-02
     29  0.269243D-02  0.382746D-02  0.385982D-02  0.648948D-03  0.538616D-02
     30 -0.112275D-02  0.182791D-03 -0.150297D-01 -0.201271D-01  0.148444D-02
     31  0.309611D-01  0.305129D-01  0.300745D-01  0.649398D-02 -0.217594D-01
     32 -0.266440D-01 -0.825944D-02 -0.413014D-01 -0.681806D-02  0.307102D-01
     33 -0.525197D-02 -0.237164D-01  0.245520D-01  0.211041D-03 -0.197644D-01
               21            22            23            24            25 
     21  0.158444D+00
     22 -0.380109D-02  0.296518D-01
     23 -0.415088D-03  0.122027D-01  0.250839D-01
     24 -0.681914D-03  0.104152D-01  0.113055D-01  0.319070D-01
     25 -0.885574D-03  0.411438D-02 -0.116714D-01 -0.151933D-01  0.272811D-01
     26  0.250042D-02 -0.133347D-01  0.120982D-02 -0.143030D-01  0.114953D-01
     27  0.223360D-02 -0.151223D-01 -0.125686D-01  0.629853D-02  0.797345D-02
     28 -0.163405D-02  0.391365D-02 -0.122522D-01 -0.153702D-01  0.398206D-02
     29  0.175195D-02 -0.135355D-01  0.629015D-03 -0.144799D-01 -0.118037D-01
     30  0.148513D-02 -0.153230D-01 -0.131494D-01  0.612161D-02 -0.153256D-01
     31  0.285152D-02  0.258559D-02 -0.102829D-02 -0.611887D-02  0.307761D-02
     32 -0.964678D-02 -0.397763D-02  0.207660D-03  0.602296D-02 -0.431088D-02
     33  0.915804D-03  0.115476D-02 -0.103008D-03 -0.113881D-02  0.170631D-02
               26            27            28            29            30 
     26  0.260399D-01
     27  0.105271D-01  0.293942D-01
     28 -0.121838D-01 -0.153018D-01  0.291288D-01
     29  0.236078D-02 -0.127481D-01  0.129630D-01  0.271275D-01
     30 -0.131520D-01  0.611902D-02  0.984502D-02  0.120186D-01  0.312896D-01
     31 -0.536271D-03 -0.562686D-02  0.624177D-02  0.262789D-02 -0.246269D-02
     32 -0.125584D-03  0.568971D-02 -0.586660D-02 -0.168130D-02  0.413399D-02
     33  0.448540D-03 -0.587264D-03 -0.677818D-05 -0.126455D-02 -0.230035D-02
               31            32            33 
     31  0.273110D-01
     32 -0.169125D-01  0.268852D-01
     33 -0.401761D-02 -0.756594D-02  0.190768D-01
 Leave Link  716 at Sun May 25 05:29:26 2025, MaxMem=  3758096384 cpu:               0.0 elap:               0.0
 (Enter /apps/easybuild-2022/easybuild/software/Compiler/NVHPC/22.11-CUDA-11.7.0/Gaussian/g16c01-CUDA-11.7.0/g16/l103.exe)

 GradGradGradGradGradGradGradGradGradGradGradGradGradGradGradGradGradGrad
 Berny optimization.
 Red2BG is reusing G-inverse.
 Internal  Forces:  Max     0.000005481 RMS     0.000001654
 Search for a local minimum.
 Step number   1 out of a maximum of   43
 All quantities printed in internal units (Hartrees-Bohrs-Radians)
 RMS Force = .16539D-05 SwitMx=.10000D-02 MixMth= 2
 Mixed Optimization -- En-DIIS/RFO-DIIS
 Second derivative matrix not updated -- analytic derivatives used.
 ITU=  0
     Eigenvalues ---    0.00280   0.00508   0.04230   0.05916   0.07870
     Eigenvalues ---    0.08794   0.10974   0.12955   0.14423   0.15896
     Eigenvalues ---    0.19955   0.20796   0.24684   0.32252   0.33188
     Eigenvalues ---    0.37999   0.39301   0.39463   0.44449   0.53162
     Eigenvalues ---    0.57022
 RFO step:  Lambda= 0.00000000D+00 EMin= 2.80232314D-03
 Linear search not attempted -- first point.
 Iteration  1 RMS(Cart)=  0.00004860 RMS(Int)=  0.00000000
 Iteration  2 RMS(Cart)=  0.00000000 RMS(Int)=  0.00000000
 ITry= 1 IFail=0 DXMaxC= 1.14D-04 DCOld= 1.00D+10 DXMaxT= 3.00D-01 DXLimC= 3.00D+00 Rises=F
 Variable       Old X    -DE/DX   Delta X   Delta X   Delta X     New X
                                 (Linear)    (Quad)   (Total)
    R1        2.51383  -0.00000   0.00000  -0.00001  -0.00001   2.51382
    R2        2.49735  -0.00000   0.00000  -0.00000  -0.00000   2.49734
    R3        2.51824  -0.00000   0.00000  -0.00000  -0.00000   2.51824
    R4        3.57683   0.00001   0.00000   0.00003   0.00003   3.57686
    R5        2.94466   0.00000   0.00000   0.00001   0.00001   2.94467
    R6        3.37633   0.00000   0.00000  -0.00000  -0.00000   3.37632
    R7        3.01659   0.00000   0.00000   0.00000   0.00000   3.01659
    R8        2.82610  -0.00000   0.00000  -0.00001  -0.00001   2.82609
    R9        1.82678   0.00000   0.00000   0.00000   0.00000   1.82678
    A1        1.90396  -0.00000   0.00000  -0.00000  -0.00000   1.90396
    A2        1.89203   0.00000   0.00000   0.00000   0.00000   1.89203
    A3        1.90446   0.00000   0.00000   0.00002   0.00002   1.90449
    A4        1.89831   0.00000   0.00000   0.00000   0.00000   1.89831
    A5        1.99720   0.00000   0.00000  -0.00001  -0.00001   1.99719
    A6        1.86516  -0.00000   0.00000  -0.00002  -0.00002   1.86514
    A7        1.66244   0.00000   0.00000  -0.00001  -0.00001   1.66243
    A8        2.54016  -0.00000   0.00000  -0.00001  -0.00001   2.54015
    A9        1.52952   0.00000   0.00000   0.00001   0.00001   1.52953
   A10        1.92977   0.00000   0.00000   0.00002   0.00002   1.92979
   A11        1.61754   0.00000   0.00000   0.00002   0.00002   1.61756
   A12        1.88863   0.00000   0.00000   0.00000   0.00000   1.88863
    D1        3.13771   0.00000   0.00000  -0.00006  -0.00006   3.13765
    D2        2.80336   0.00000   0.00000  -0.00004  -0.00004   2.80332
    D3        1.21009  -0.00000   0.00000  -0.00008  -0.00008   1.21000
    D4        0.99929  -0.00000   0.00000  -0.00007  -0.00007   0.99921
    D5        0.66494   0.00000   0.00000  -0.00005  -0.00005   0.66489
    D6       -0.92833  -0.00000   0.00000  -0.00009  -0.00009  -0.92843
    D7       -1.10313   0.00000   0.00000  -0.00006  -0.00006  -1.10318
    D8       -1.43747   0.00000   0.00000  -0.00003  -0.00003  -1.43751
    D9       -3.03075  -0.00000   0.00000  -0.00008  -0.00008  -3.03083
   D10        2.96748   0.00000   0.00000  -0.00001  -0.00001   2.96747
   D11        1.31426  -0.00000   0.00000   0.00000   0.00000   1.31426
   D12        0.42790   0.00000   0.00000   0.00000   0.00000   0.42790
         Item               Value     Threshold  Converged?
 Maximum Force            0.000005     0.000450     YES
 RMS     Force            0.000002     0.000300     YES
 Maximum Displacement     0.000114     0.001800     YES
 RMS     Displacement     0.000049     0.001200     YES
 Predicted change in Energy=-3.897135D-10
 Optimization completed.
    -- Stationary point found.
                           ----------------------------
                           !   Optimized Parameters   !
                           ! (Angstroms and Degrees)  !
 --------------------------                            --------------------------
 ! Name  Definition              Value          Derivative Info.                !
 --------------------------------------------------------------------------------
 ! R1    R(1,2)                  1.3303         -DE/DX =    0.0                 !
 ! R2    R(1,3)                  1.3215         -DE/DX =    0.0                 !
 ! R3    R(1,4)                  1.3326         -DE/DX =    0.0                 !
 ! R4    R(1,5)                  1.8928         -DE/DX =    0.0                 !
 ! R5    R(5,6)                  1.5582         -DE/DX =    0.0                 !
 ! R6    R(5,7)                  1.7867         -DE/DX =    0.0                 !
 ! R7    R(5,8)                  1.5963         -DE/DX =    0.0                 !
 ! R8    R(6,7)                  1.4955         -DE/DX =    0.0                 !
 ! R9    R(8,9)                  0.9667         -DE/DX =    0.0                 !
 ! A1    A(2,1,3)              109.089          -DE/DX =    0.0                 !
 ! A2    A(2,1,4)              108.4053         -DE/DX =    0.0                 !
 ! A3    A(2,1,5)              109.1177         -DE/DX =    0.0                 !
 ! A4    A(3,1,4)              108.7651         -DE/DX =    0.0                 !
 ! A5    A(3,1,5)              114.431          -DE/DX =    0.0                 !
 ! A6    A(4,1,5)              106.8656         -DE/DX =    0.0                 !
 ! A7    A(1,5,6)               95.2509         -DE/DX =    0.0                 !
 ! A8    A(1,5,7)              145.5405         -DE/DX =    0.0                 !
 ! A9    A(1,5,8)               87.6351         -DE/DX =    0.0                 !
 ! A10   A(6,5,8)              110.5677         -DE/DX =    0.0                 !
 ! A11   A(7,5,8)               92.6783         -DE/DX =    0.0                 !
 ! A12   A(5,8,9)              108.2103         -DE/DX =    0.0                 !
 ! D1    D(2,1,5,6)            179.7775         -DE/DX =    0.0                 !
 ! D2    D(2,1,5,7)            160.6207         -DE/DX =    0.0                 !
 ! D3    D(2,1,5,8)             69.3329         -DE/DX =    0.0                 !
 ! D4    D(3,1,5,6)             57.255          -DE/DX =    0.0                 !
 ! D5    D(3,1,5,7)             38.0982         -DE/DX =    0.0                 !
 ! D6    D(3,1,5,8)            -53.1896         -DE/DX =    0.0                 !
 ! D7    D(4,1,5,6)            -63.2044         -DE/DX =    0.0                 !
 ! D8    D(4,1,5,7)            -82.3612         -DE/DX =    0.0                 !
 ! D9    D(4,1,5,8)           -173.6489         -DE/DX =    0.0                 !
 ! D10   D(1,5,8,9)            170.0241         -DE/DX =    0.0                 !
 ! D11   D(6,5,8,9)             75.3014         -DE/DX =    0.0                 !
 ! D12   D(7,5,8,9)             24.5167         -DE/DX =    0.0                 !
 --------------------------------------------------------------------------------
 Lowest energy point so far.  Saving SCF results.
 Largest change from initial coordinates is atom    0       0.000 Angstoms.
 GradGradGradGradGradGradGradGradGradGradGradGradGradGradGradGradGradGrad

 Leave Link  103 at Sun May 25 05:29:26 2025, MaxMem=  3758096384 cpu:               0.0 elap:               0.0
 (Enter /apps/easybuild-2022/easybuild/software/Compiler/NVHPC/22.11-CUDA-11.7.0/Gaussian/g16c01-CUDA-11.7.0/g16/l202.exe)
                          Input orientation:                          
 ---------------------------------------------------------------------
 Center     Atomic      Atomic             Coordinates (Angstroms)
 Number     Number       Type             X           Y           Z
 ---------------------------------------------------------------------
      1          6           0       -1.039749   -0.093686    0.161481
      2          9           0       -1.891083    0.502345   -0.668922
      3          9           0       -1.129173    0.472788    1.352100
      4          9           0       -1.385726   -1.376019    0.269787
      5         16           0        0.694566   -0.054885   -0.595648
      6          8           0        1.384476   -0.793535    0.590333
      7          8           0        2.446541   -0.189741   -0.272214
      8          8           0        0.694579    1.522429   -0.350114
      9          1           0        1.587394    1.853952   -0.515829
 ---------------------------------------------------------------------
                    Distance matrix (angstroms):
                    1          2          3          4          5
     1  C    0.000000
     2  F    1.330260   0.000000
     3  F    1.321538   2.160072   0.000000
     4  F    1.332595   2.159817   2.157616   0.000000
     5  S    1.892775   2.646026   2.719960   2.611893   0.000000
     6  O    2.559408   3.740898   2.915869   2.848869   1.558246
     7  O    3.514475   4.410368   3.982847   4.048122   1.786676
     8  O    2.425170   2.797831   2.706538   3.621180   1.596310
     9  H    3.339749   3.734981   3.574424   4.459747   2.108832
                    6          7          8          9
     6  O    0.000000
     7  O    1.495505   0.000000
     8  O    2.593085   2.450911   0.000000
     9  H    2.876449   2.230283   0.966689   0.000000
 Symmetry turned off by external request.
 Stoichiometry    CHF3O3S
 Rotational constants (GHZ):           3.2034302           1.4325453           1.2629135
 Leave Link  202 at Sun May 25 05:29:26 2025, MaxMem=  3758096384 cpu:               0.0 elap:               0.0
 (Enter /apps/easybuild-2022/easybuild/software/Compiler/NVHPC/22.11-CUDA-11.7.0/Gaussian/g16c01-CUDA-11.7.0/g16/l9999.exe)
 Unable to Open any file for archive entry.
 1\1\GINC-SPARTAN-BM156\FOpt\RM062X\def2TZVPP\C1H1F3O3S1\AKHALILOV\25-M
 ay-2025\0\\#P M062X/Def2TZVPP Symm(None) scf(xqc) pop(None) freq opt(C
 alcFC)\\Gaussian input prepared by ASE\\0,1\C,-1.039749,-0.093686,0.16
 1481\F,-1.891083,0.502345,-0.668922\F,-1.129173,0.472788,1.3521\F,-1.3
 85726,-1.376019,0.269787\S,0.694566,-0.054885,-0.595648\O,1.384476,-0.
 793535,0.590333\O,2.446541,-0.189741,-0.272214\O,0.694579,1.522429,-0.
 350114\H,1.587394,1.853952,-0.515829\\Version=ES64L-G16RevC.01\HF=-961
 .9636567\RMSD=6.582e-09\RMSF=3.762e-06\Dipole=0.0990819,0.6075019,-0.6
 055676\Polar=0.,0.,0.,0.,0.,0.\PG=Unknown\\@
 The archive entry for this job was punched.


 SATCHEL PAIGE'S GUIDE TO LONGEVITY

    1.  AVOID FRIED MEATS, WHICH ANGRY UP THE BLOOD.

    2.  IF YOUR STOMACH DISPUTES YOU, LIE DOWN AND PACIFY IT WITH COOL
        THOUGHTS.

    3.  KEEP THE JUICES FLOWING BY JANGLING AROUND GENTLY AS YOU MOVE.

    4.  GO VERY LIGHT ON THE VICES, SUCH AS CARRYING ON IN SOCIETY.
        THE SOCIAL RUMBLE AIN'T RESTFUL.

    5.  AVOID RUNNING AT ALL TIMES.

    6.  DON'T LOOK BACK.  SOMETHING MAY BE GAINING ON YOU.
 Leave Link 9999 at Sun May 25 05:29:26 2025, MaxMem=  3758096384 cpu:               0.0 elap:               0.0
 Job cpu time:       0 days  0 hours 14 minutes 24.3 seconds.
 Elapsed time:       0 days  0 hours  1 minutes 55.6 seconds.
 File lengths (MBytes):  RWF=     73 Int=      0 D2E=      0 Chk=      6 Scr=      1
 Normal termination of Gaussian 16 at Sun May 25 05:29:26 2025.
 (Enter /apps/easybuild-2022/easybuild/software/Compiler/NVHPC/22.11-CUDA-11.7.0/Gaussian/g16c01-CUDA-11.7.0/g16/l1.exe)
 Link1:  Proceeding to internal job step number  2.
 ---------------------------------------------------------------------
 #P Geom=AllCheck Guess=TCheck SCRF=Check GenChk RM062X/def2TZVPP Freq
 ---------------------------------------------------------------------
 1/10=4,29=7,30=1,38=1,40=1/1,3;
 2/12=2,15=3,40=1/2;
 3/5=44,7=202,11=2,14=-4,25=1,30=1,70=2,71=2,74=-55,116=1,140=1/1,2,3;
 4/5=101/1;
 5/5=2,8=3,13=1,38=6,98=1/2,8;
 8/6=4,10=90,11=11/1;
 11/6=1,8=1,9=11,15=111,16=1,31=1/1,2,10;
 10/6=1,31=1/2;
 7/8=1,10=1,25=1,30=1/1,2,3,16;
 1/10=4,30=1/3;
 99//99;
 Leave Link    1 at Sun May 25 05:29:26 2025, MaxMem=  3758096384 cpu:               0.0 elap:               0.0
 (Enter /apps/easybuild-2022/easybuild/software/Compiler/NVHPC/22.11-CUDA-11.7.0/Gaussian/g16c01-CUDA-11.7.0/g16/l101.exe)
 Structure from the checkpoint file:  "1503305764823040000001_well.chk"
 ------------------------------
 Gaussian input prepared by ASE
 ------------------------------
 Charge =  0 Multiplicity = 1
 Redundant internal coordinates found in file.  (old form).
 C,0,-1.039749,-0.093686,0.161481
 F,0,-1.891083,0.502345,-0.668922
 F,0,-1.129173,0.472788,1.3521
 F,0,-1.385726,-1.376019,0.269787
 S,0,0.694566,-0.054885,-0.595648
 O,0,1.384476,-0.793535,0.590333
 O,0,2.446541,-0.189741,-0.272214
 O,0,0.694579,1.522429,-0.350114
 H,0,1.587394,1.853952,-0.515829
 Recover connectivity data from disk.
 ITRead=  0  0  0  0  0  0  0  0  0
 MicOpt= -1 -1 -1 -1 -1 -1 -1 -1 -1
 NAtoms=      9 NQM=        9 NQMF=       0 NMMI=      0 NMMIF=      0
                NMic=       0 NMicF=      0.
                    Isotopes and Nuclear Properties:
 (Nuclear quadrupole moments (NQMom) in fm**2, nuclear magnetic moments (NMagM)
  in nuclear magnetons)

  Atom         1           2           3           4           5           6           7           8           9
 IAtWgt=          12          19          19          19          32          16          16          16           1
 AtmWgt=  12.0000000  18.9984032  18.9984032  18.9984032  31.9720718  15.9949146  15.9949146  15.9949146   1.0078250
 NucSpn=           0           1           1           1           0           0           0           0           1
 AtZEff=   3.6000000   6.7500000   6.7500000   6.7500000  13.6000000   5.6000000   5.6000000   5.6000000   1.0000000
 NQMom=    0.0000000   0.0000000   0.0000000   0.0000000   0.0000000   0.0000000   0.0000000   0.0000000   0.0000000
 NMagM=    0.0000000   2.6288670   2.6288670   2.6288670   0.0000000   0.0000000   0.0000000   0.0000000   2.7928460
 AtZNuc=   6.0000000   9.0000000   9.0000000   9.0000000  16.0000000   8.0000000   8.0000000   8.0000000   1.0000000
 Leave Link  101 at Sun May 25 05:29:26 2025, MaxMem=  3758096384 cpu:               0.2 elap:               0.2
 (Enter /apps/easybuild-2022/easybuild/software/Compiler/NVHPC/22.11-CUDA-11.7.0/Gaussian/g16c01-CUDA-11.7.0/g16/l103.exe)

 GradGradGradGradGradGradGradGradGradGradGradGradGradGradGradGradGradGrad
 Berny optimization.
 Initialization pass.
                           ----------------------------
                           !    Initial Parameters    !
                           ! (Angstroms and Degrees)  !
 --------------------------                            --------------------------
 ! Name  Definition              Value          Derivative Info.                !
 --------------------------------------------------------------------------------
 ! R1    R(1,2)                  1.3303         calculate D2E/DX2 analytically  !
 ! R2    R(1,3)                  1.3215         calculate D2E/DX2 analytically  !
 ! R3    R(1,4)                  1.3326         calculate D2E/DX2 analytically  !
 ! R4    R(1,5)                  1.8928         calculate D2E/DX2 analytically  !
 ! R5    R(5,6)                  1.5582         calculate D2E/DX2 analytically  !
 ! R6    R(5,7)                  1.7867         calculate D2E/DX2 analytically  !
 ! R7    R(5,8)                  1.5963         calculate D2E/DX2 analytically  !
 ! R8    R(6,7)                  1.4955         calculate D2E/DX2 analytically  !
 ! R9    R(8,9)                  0.9667         calculate D2E/DX2 analytically  !
 ! A1    A(2,1,3)              109.089          calculate D2E/DX2 analytically  !
 ! A2    A(2,1,4)              108.4053         calculate D2E/DX2 analytically  !
 ! A3    A(2,1,5)              109.1177         calculate D2E/DX2 analytically  !
 ! A4    A(3,1,4)              108.7651         calculate D2E/DX2 analytically  !
 ! A5    A(3,1,5)              114.431          calculate D2E/DX2 analytically  !
 ! A6    A(4,1,5)              106.8656         calculate D2E/DX2 analytically  !
 ! A7    A(1,5,6)               95.2509         calculate D2E/DX2 analytically  !
 ! A8    A(1,5,7)              145.5405         calculate D2E/DX2 analytically  !
 ! A9    A(1,5,8)               87.6351         calculate D2E/DX2 analytically  !
 ! A10   A(6,5,8)              110.5677         calculate D2E/DX2 analytically  !
 ! A11   A(7,5,8)               92.6783         calculate D2E/DX2 analytically  !
 ! A12   A(5,8,9)              108.2103         calculate D2E/DX2 analytically  !
 ! D1    D(2,1,5,6)            179.7775         calculate D2E/DX2 analytically  !
 ! D2    D(2,1,5,7)            160.6207         calculate D2E/DX2 analytically  !
 ! D3    D(2,1,5,8)             69.3329         calculate D2E/DX2 analytically  !
 ! D4    D(3,1,5,6)             57.255          calculate D2E/DX2 analytically  !
 ! D5    D(3,1,5,7)             38.0982         calculate D2E/DX2 analytically  !
 ! D6    D(3,1,5,8)            -53.1896         calculate D2E/DX2 analytically  !
 ! D7    D(4,1,5,6)            -63.2044         calculate D2E/DX2 analytically  !
 ! D8    D(4,1,5,7)            -82.3612         calculate D2E/DX2 analytically  !
 ! D9    D(4,1,5,8)           -173.6489         calculate D2E/DX2 analytically  !
 ! D10   D(1,5,8,9)            170.0241         calculate D2E/DX2 analytically  !
 ! D11   D(6,5,8,9)             75.3014         calculate D2E/DX2 analytically  !
 ! D12   D(7,5,8,9)             24.5167         calculate D2E/DX2 analytically  !
 --------------------------------------------------------------------------------
 Trust Radius=3.00D-01 FncErr=1.00D-07 GrdErr=1.00D-07 EigMax=2.50D+02 EigMin=1.00D-04
 Number of steps in this run=      2 maximum allowed number of steps=      2.
 GradGradGradGradGradGradGradGradGradGradGradGradGradGradGradGradGradGrad

 Leave Link  103 at Sun May 25 05:29:26 2025, MaxMem=  3758096384 cpu:               0.0 elap:               0.0
 (Enter /apps/easybuild-2022/easybuild/software/Compiler/NVHPC/22.11-CUDA-11.7.0/Gaussian/g16c01-CUDA-11.7.0/g16/l202.exe)
                          Input orientation:                          
 ---------------------------------------------------------------------
 Center     Atomic      Atomic             Coordinates (Angstroms)
 Number     Number       Type             X           Y           Z
 ---------------------------------------------------------------------
      1          6           0       -1.039749   -0.093686    0.161481
      2          9           0       -1.891083    0.502345   -0.668922
      3          9           0       -1.129173    0.472788    1.352100
      4          9           0       -1.385726   -1.376019    0.269787
      5         16           0        0.694566   -0.054885   -0.595648
      6          8           0        1.384476   -0.793535    0.590333
      7          8           0        2.446541   -0.189741   -0.272214
      8          8           0        0.694579    1.522429   -0.350114
      9          1           0        1.587394    1.853952   -0.515829
 ---------------------------------------------------------------------
                    Distance matrix (angstroms):
                    1          2          3          4          5
     1  C    0.000000
     2  F    1.330260   0.000000
     3  F    1.321538   2.160072   0.000000
     4  F    1.332595   2.159817   2.157616   0.000000
     5  S    1.892775   2.646026   2.719960   2.611893   0.000000
     6  O    2.559408   3.740898   2.915869   2.848869   1.558246
     7  O    3.514475   4.410368   3.982847   4.048122   1.786676
     8  O    2.425170   2.797831   2.706538   3.621180   1.596310
     9  H    3.339749   3.734981   3.574424   4.459747   2.108832
                    6          7          8          9
     6  O    0.000000
     7  O    1.495505   0.000000
     8  O    2.593085   2.450911   0.000000
     9  H    2.876449   2.230283   0.966689   0.000000
 Symmetry turned off by external request.
 Stoichiometry    CHF3O3S
 Rotational constants (GHZ):           3.2034302           1.4325453           1.2629135
 Leave Link  202 at Sun May 25 05:29:26 2025, MaxMem=  3758096384 cpu:               0.0 elap:               0.0
 (Enter /apps/easybuild-2022/easybuild/software/Compiler/NVHPC/22.11-CUDA-11.7.0/Gaussian/g16c01-CUDA-11.7.0/g16/l301.exe)
 Standard basis: def2TZVPP (5D, 7F)
 Ernie: Thresh=  0.10000D-02 Tol=  0.10000D-05 Strict=F.
   273 basis functions,   443 primitive gaussians,   315 cartesian basis functions
    37 alpha electrons       37 beta electrons
       nuclear repulsion energy       556.7433790549 Hartrees.
 IExCor= 4336 DFT=T Ex+Corr=M062X ExCW=0 ScaHFX=  0.540000
 ScaDFX=  1.000000  1.000000  1.000000  1.000000 ScalE2=  1.000000  1.000000
 IRadAn=      5 IRanWt=     -1 IRanGd=            0 ICorTp=0 IEmpDi=  4
 NAtoms=    9 NActive=    9 NUniq=    9 SFac= 1.00D+00 NAtFMM=   60 NAOKFM=F Big=F
 Integral buffers will be    131072 words long.
 Raffenetti 2 integral format.
 Two-electron integral symmetry is turned off.
 Leave Link  301 at Sun May 25 05:29:26 2025, MaxMem=  3758096384 cpu:               0.0 elap:               0.0
 (Enter /apps/easybuild-2022/easybuild/software/Compiler/NVHPC/22.11-CUDA-11.7.0/Gaussian/g16c01-CUDA-11.7.0/g16/l302.exe)
 NPDir=0 NMtPBC=     1 NCelOv=     1 NCel=       1 NClECP=     1 NCelD=      1
         NCelK=      1 NCelE2=     1 NClLst=     1 CellRange=     0.0.
 One-electron integrals computed using PRISM.
   1 Symmetry operations used in ECPInt.
 ECPInt:  NShTT=    4753 NPrTT=   15592 LenC2=    4565 LenP2D=   11454.
 LDataN:  DoStor=T MaxTD1= 6 Len=  172
 NBasis=   273 RedAO= T EigKep=  1.57D-03  NBF=   273
 NBsUse=   273 1.00D-06 EigRej= -1.00D+00 NBFU=   273
 Precomputing XC quadrature grid using
 IXCGrd= 4 IRadAn=           5 IRanWt=          -1 IRanGd=           0 AccXCQ= 0.00D+00.
 Generated NRdTot=       0 NPtTot=           0 NUsed=           0 NTot=          32
 NSgBfM=   312   312   312   312   312 MxSgAt=     9 MxSgA2=     9.
 Leave Link  302 at Sun May 25 05:29:26 2025, MaxMem=  3758096384 cpu:               0.6 elap:               0.1
 (Enter /apps/easybuild-2022/easybuild/software/Compiler/NVHPC/22.11-CUDA-11.7.0/Gaussian/g16c01-CUDA-11.7.0/g16/l303.exe)
 DipDrv:  MaxL=1.
 Leave Link  303 at Sun May 25 05:29:26 2025, MaxMem=  3758096384 cpu:               0.1 elap:               0.0
 (Enter /apps/easybuild-2022/easybuild/software/Compiler/NVHPC/22.11-CUDA-11.7.0/Gaussian/g16c01-CUDA-11.7.0/g16/l401.exe)
 Initial guess from the checkpoint file:  "1503305764823040000001_well.chk"
 B after Tr=     0.000000    0.000000    0.000000
         Rot=    1.000000    0.000000    0.000000    0.000000 Ang=   0.00 deg.
 Guess basis will be translated and rotated to current coordinates.
 JPrj=2 DoOrth=T DoCkMO=T.
 Leave Link  401 at Sun May 25 05:29:26 2025, MaxMem=  3758096384 cpu:               0.3 elap:               0.1
 (Enter /apps/easybuild-2022/easybuild/software/Compiler/NVHPC/22.11-CUDA-11.7.0/Gaussian/g16c01-CUDA-11.7.0/g16/l502.exe)
 Keep R1 ints in memory in canonical form, NReq=715214082.
 FoFCou: FMM=F IPFlag=           0 FMFlag=           0 FMFlg1=           0
         NFxFlg=           0 DoJE=F BraDBF=F KetDBF=F FulRan=T
         wScrn=  0.000000 ICntrl=       600 IOpCl=  0 I1Cent=           0 NGrid=           0
         NMat0=    1 NMatS0=  37401 NMatT0=    0 NMatD0=    1 NMtDS0=    0 NMtDT0=    0
 Symmetry not used in FoFCou.
 Two-electron integral symmetry not used.
 Closed shell SCF:
 Using DIIS extrapolation, IDIIS=  1040.
 NGot=  3758096384 LenX=  3058457086 LenY=  3058357420
 Requested convergence on RMS density matrix=1.00D-08 within  32 cycles.
 Requested convergence on MAX density matrix=1.00D-06.
 Requested convergence on             energy=1.00D-06.
 No special actions if energy rises.

 Cycle   1  Pass 1  IDiag  1:
 E= -961.963656737935    
 DIIS: error= 1.55D-08 at cycle   1 NSaved=   1.
 NSaved= 1 IEnMin= 1 EnMin= -961.963656737935     IErMin= 1 ErrMin= 1.55D-08
 ErrMax= 1.55D-08  0.00D+00 EMaxC= 1.00D-01 BMatC= 1.36D-13 BMatP= 1.36D-13
 IDIUse=1 WtCom= 1.00D+00 WtEn= 0.00D+00
 Coeff-Com:  0.100D+01
 Coeff:      0.100D+01
 Gap=     0.352 Goal=   None    Shift=    0.000
 RMSDP=2.36D-09 MaxDP=7.65D-08              OVMax= 4.68D-07

 SCF Done:  E(RM062X) =  -961.963656738     A.U. after    1 cycles
            NFock=  1  Conv=0.24D-08     -V/T= 2.0027
 KE= 9.594090307656D+02 PE=-3.396384751737D+03 EE= 9.182686851784D+02
 Leave Link  502 at Sun May 25 05:29:30 2025, MaxMem=  3758096384 cpu:              21.6 elap:               3.2
 (Enter /apps/easybuild-2022/easybuild/software/Compiler/NVHPC/22.11-CUDA-11.7.0/Gaussian/g16c01-CUDA-11.7.0/g16/l508.exe)
 QCSCF skips out because SCF is already converged.
 Leave Link  508 at Sun May 25 05:29:30 2025, MaxMem=  3758096384 cpu:               0.0 elap:               0.0
 (Enter /apps/easybuild-2022/easybuild/software/Compiler/NVHPC/22.11-CUDA-11.7.0/Gaussian/g16c01-CUDA-11.7.0/g16/l801.exe)
 DoSCS=F DFT=T ScalE2(SS,OS)=  1.000000  1.000000
 Range of M.O.s used for correlation:     1   273
 NBasis=   273 NAE=    37 NBE=    37 NFC=     0 NFV=     0
 NROrb=    273 NOA=    37 NOB=    37 NVA=   236 NVB=   236
 Leave Link  801 at Sun May 25 05:29:30 2025, MaxMem=  3758096384 cpu:               0.0 elap:               0.0
 (Enter /apps/easybuild-2022/easybuild/software/Compiler/NVHPC/22.11-CUDA-11.7.0/Gaussian/g16c01-CUDA-11.7.0/g16/l1101.exe)
 Using compressed storage, NAtomX=     9.
 Will process     10 centers per pass.
   1 Symmetry operations used in ECPInt.
 ECPInt:  NShTT=    4753 NPrTT=   15592 LenC2=    4565 LenP2D=   11454.
 LDataN:  DoStor=T MaxTD1= 7 Len=  274
 Leave Link 1101 at Sun May 25 05:29:30 2025, MaxMem=  3758096384 cpu:               0.7 elap:               0.1
 (Enter /apps/easybuild-2022/easybuild/software/Compiler/NVHPC/22.11-CUDA-11.7.0/Gaussian/g16c01-CUDA-11.7.0/g16/l1102.exe)
 Symmetrizing basis deriv contribution to polar:
 IMax=3 JMax=2 DiffMx= 0.00D+00
 Leave Link 1102 at Sun May 25 05:29:30 2025, MaxMem=  3758096384 cpu:               0.1 elap:               0.0
 (Enter /apps/easybuild-2022/easybuild/software/Compiler/NVHPC/22.11-CUDA-11.7.0/Gaussian/g16c01-CUDA-11.7.0/g16/l1110.exe)
 Forming Gx(P) for the SCF density, NAtomX=     9.
 Integral derivatives from FoFJK, PRISM(SPDF).
 Do as many integral derivatives as possible in FoFJK.
 G2DrvN: MDV=    3758095321.
 G2DrvN: will do    10 centers at a time, making    1 passes.
 Calling FoFCou, ICntrl=  3107 FMM=F I1Cent=   0 AccDes= 0.00D+00.
 FoFJK:  IHMeth= 1 ICntrl=    3107 DoSepK=F KAlg= 0 I1Cent=           0 FoldK=F
 IRaf=         0 NMat=       1 IRICut=       1 DoRegI=T DoRafI=F ISym2E= 0 IDoP0=0 IntGTp=1.
 FoFCou: FMM=F IPFlag=           0 FMFlag=      100000 FMFlg1=           0
         NFxFlg=           0 DoJE=F BraDBF=F KetDBF=F FulRan=T
         wScrn=  0.000000 ICntrl=      3107 IOpCl=  0 I1Cent=           0 NGrid=           0
         NMat0=    1 NMatS0=      1 NMatT0=    0 NMatD0=    1 NMtDS0=    0 NMtDT0=    0
 Symmetry not used in FoFCou.
 End of G2Drv F.D. properties file   721 does not exist.
 End of G2Drv F.D. properties file   722 does not exist.
 End of G2Drv F.D. properties file   788 does not exist.
 Leave Link 1110 at Sun May 25 05:29:52 2025, MaxMem=  3758096384 cpu:             176.3 elap:              22.2
 (Enter /apps/easybuild-2022/easybuild/software/Compiler/NVHPC/22.11-CUDA-11.7.0/Gaussian/g16c01-CUDA-11.7.0/g16/l1002.exe)
 Minotr:  Closed shell wavefunction.
          IDoAtm=111111111
          Direct CPHF calculation.
          Differentiating once with respect to electric field.
                with respect to dipole field.
          Differentiating once with respect to nuclear coordinates.
          Requested convergence is 1.0D-08 RMS, and 1.0D-07 maximum.
          Secondary convergence is 1.0D-12 RMS, and 1.0D-12 maximum.
          NewPWx=T KeepS1=F KeepF1=F KeepIn=T MapXYZ=F SortEE=F KeepMc=T.
         2690 words used for storage of precomputed grid.
 Keep R1 ints in memory in canonical form, NReq=715218551.
 FoFCou: FMM=F IPFlag=           0 FMFlag=           0 FMFlg1=           0
         NFxFlg=           0 DoJE=F BraDBF=F KetDBF=F FulRan=T
         wScrn=  0.000000 ICntrl=       600 IOpCl=  0 I1Cent=           0 NGrid=           0
         NMat0=    1 NMatS0=  37401 NMatT0=    0 NMatD0=    1 NMtDS0=    0 NMtDT0=    0
 Symmetry not used in FoFCou.
 Two-electron integral symmetry not used.
          MDV=    3758096384 using IRadAn=       1.
          Solving linear equations simultaneously, MaxMat=       0.
          There are    30 degrees of freedom in the 1st order CPHF.  IDoFFX=6 NUNeed=     3.
     27 vectors produced by pass  0 Test12= 2.91D-14 3.33D-09 XBig12= 2.79D+01 1.89D+00.
 AX will form    27 AO Fock derivatives at one time.
     27 vectors produced by pass  1 Test12= 2.91D-14 3.33D-09 XBig12= 7.85D+00 5.25D-01.
     27 vectors produced by pass  2 Test12= 2.91D-14 3.33D-09 XBig12= 3.83D-01 1.03D-01.
[...]
     25  0.257145D-02  0.103677D-02  0.129501D-01  0.181846D-01 -0.867574D-02
     26 -0.227947D-02 -0.108519D-02  0.543888D-02  0.494054D-03  0.428945D-02
     27 -0.609465D-02 -0.472987D-02 -0.134506D-01 -0.202820D-01  0.387731D-03
     28  0.754334D-02  0.594942D-02  0.113711D-01  0.183395D-01 -0.757903D-02
     29  0.269243D-02  0.382747D-02  0.385981D-02  0.648946D-03  0.538616D-02
     30 -0.112275D-02  0.182788D-03 -0.150297D-01 -0.201271D-01  0.148444D-02
     31  0.309611D-01  0.305129D-01  0.300745D-01  0.649399D-02 -0.217594D-01
     32 -0.266440D-01 -0.825944D-02 -0.413014D-01 -0.681806D-02  0.307102D-01
     33 -0.525197D-02 -0.237164D-01  0.245520D-01  0.211044D-03 -0.197644D-01
               21            22            23            24            25 
     21  0.158444D+00
     22 -0.380109D-02  0.296519D-01
     23 -0.415089D-03  0.122027D-01  0.250839D-01
     24 -0.681914D-03  0.104152D-01  0.113055D-01  0.319070D-01
     25 -0.885576D-03  0.411438D-02 -0.116714D-01 -0.151933D-01  0.272811D-01
     26  0.250042D-02 -0.133347D-01  0.120983D-02 -0.143030D-01  0.114953D-01
     27  0.223360D-02 -0.151223D-01 -0.125686D-01  0.629852D-02  0.797344D-02
     28 -0.163405D-02  0.391365D-02 -0.122522D-01 -0.153702D-01  0.398206D-02
     29  0.175195D-02 -0.135355D-01  0.629020D-03 -0.144799D-01 -0.118037D-01
     30  0.148513D-02 -0.153230D-01 -0.131494D-01  0.612161D-02 -0.153256D-01
     31  0.285152D-02  0.258559D-02 -0.102829D-02 -0.611888D-02  0.307761D-02
     32 -0.964677D-02 -0.397764D-02  0.207662D-03  0.602295D-02 -0.431088D-02
     33  0.915806D-03  0.115476D-02 -0.103012D-03 -0.113881D-02  0.170631D-02
               26            27            28            29            30 
     26  0.260399D-01
     27  0.105271D-01  0.293942D-01
     28 -0.121838D-01 -0.153018D-01  0.291289D-01
     29  0.236078D-02 -0.127481D-01  0.129630D-01  0.271275D-01
     30 -0.131520D-01  0.611902D-02  0.984503D-02  0.120186D-01  0.312896D-01
     31 -0.536268D-03 -0.562686D-02  0.624177D-02  0.262789D-02 -0.246270D-02
     32 -0.125580D-03  0.568971D-02 -0.586660D-02 -0.168130D-02  0.413399D-02
     33  0.448538D-03 -0.587263D-03 -0.677742D-05 -0.126455D-02 -0.230035D-02
               31            32            33 
     31  0.273110D-01
     32 -0.169125D-01  0.268852D-01
     33 -0.401761D-02 -0.756594D-02  0.190768D-01
 Leave Link  716 at Sun May 25 05:31:15 2025, MaxMem=  3758096384 cpu:               0.0 elap:               0.0
 (Enter /apps/easybuild-2022/easybuild/software/Compiler/NVHPC/22.11-CUDA-11.7.0/Gaussian/g16c01-CUDA-11.7.0/g16/l103.exe)

 GradGradGradGradGradGradGradGradGradGradGradGradGradGradGradGradGradGrad
 Berny optimization.
 Red2BG is reusing G-inverse.
 Internal  Forces:  Max     0.000005500 RMS     0.000001651
 Search for a local minimum.
 Step number   1 out of a maximum of    2
 All quantities printed in internal units (Hartrees-Bohrs-Radians)
 Second derivative matrix not updated -- analytic derivatives used.
 ITU=  0
     Eigenvalues ---    0.00280   0.00508   0.04230   0.05916   0.07870
     Eigenvalues ---    0.08794   0.10974   0.12955   0.14423   0.15896
     Eigenvalues ---    0.19955   0.20796   0.24684   0.32252   0.33188
     Eigenvalues ---    0.37999   0.39301   0.39463   0.44449   0.53162
     Eigenvalues ---    0.57022
 Angle between quadratic step and forces=  66.98 degrees.
 Linear search not attempted -- first point.
 Iteration  1 RMS(Cart)=  0.00004923 RMS(Int)=  0.00000000
 Iteration  2 RMS(Cart)=  0.00000000 RMS(Int)=  0.00000000
 ITry= 1 IFail=0 DXMaxC= 1.15D-04 DCOld= 1.00D+10 DXMaxT= 3.00D-01 DXLimC= 3.00D+00 Rises=F
 Variable       Old X    -DE/DX   Delta X   Delta X   Delta X     New X
                                 (Linear)    (Quad)   (Total)
    R1        2.51383  -0.00000   0.00000  -0.00001  -0.00001   2.51382
    R2        2.49735  -0.00000   0.00000  -0.00000  -0.00000   2.49734
    R3        2.51824  -0.00000   0.00000  -0.00000  -0.00000   2.51824
    R4        3.57683   0.00001   0.00000   0.00003   0.00003   3.57686
    R5        2.94466   0.00000   0.00000   0.00001   0.00001   2.94467
    R6        3.37633   0.00000   0.00000  -0.00000  -0.00000   3.37632
    R7        3.01659   0.00000   0.00000   0.00000   0.00000   3.01659
    R8        2.82610  -0.00000   0.00000  -0.00001  -0.00001   2.82609
    R9        1.82678   0.00000   0.00000   0.00000   0.00000   1.82678
    A1        1.90396  -0.00000   0.00000  -0.00000  -0.00000   1.90396
    A2        1.89203   0.00000   0.00000   0.00000   0.00000   1.89203
    A3        1.90446   0.00000   0.00000   0.00002   0.00002   1.90449
    A4        1.89831   0.00000   0.00000   0.00000   0.00000   1.89831
    A5        1.99720   0.00000   0.00000  -0.00001  -0.00001   1.99719
    A6        1.86516  -0.00000   0.00000  -0.00002  -0.00002   1.86514
    A7        1.66244   0.00000   0.00000  -0.00001  -0.00001   1.66243
    A8        2.54016  -0.00000   0.00000  -0.00001  -0.00001   2.54015
    A9        1.52952   0.00000   0.00000   0.00001   0.00001   1.52953
   A10        1.92977   0.00000   0.00000   0.00002   0.00002   1.92979
   A11        1.61754   0.00000   0.00000   0.00002   0.00002   1.61756
   A12        1.88863   0.00000   0.00000   0.00000   0.00000   1.88863
    D1        3.13771   0.00000   0.00000  -0.00006  -0.00006   3.13764
    D2        2.80336   0.00000   0.00000  -0.00004  -0.00004   2.80332
    D3        1.21009  -0.00000   0.00000  -0.00009  -0.00009   1.21000
    D4        0.99929  -0.00000   0.00000  -0.00008  -0.00008   0.99921
    D5        0.66494   0.00000   0.00000  -0.00005  -0.00005   0.66489
    D6       -0.92833  -0.00000   0.00000  -0.00010  -0.00010  -0.92843
    D7       -1.10313   0.00000   0.00000  -0.00006  -0.00006  -1.10319
    D8       -1.43747   0.00000   0.00000  -0.00003  -0.00003  -1.43751
    D9       -3.03075  -0.00000   0.00000  -0.00008  -0.00008  -3.03083
   D10        2.96748   0.00000   0.00000  -0.00001  -0.00001   2.96747
   D11        1.31426  -0.00000   0.00000   0.00000   0.00000   1.31426
   D12        0.42790   0.00000   0.00000   0.00000   0.00000   0.42790
         Item               Value     Threshold  Converged?
 Maximum Force            0.000006     0.000450     YES
 RMS     Force            0.000002     0.000300     YES
 Maximum Displacement     0.000115     0.001800     YES
 RMS     Displacement     0.000049     0.001200     YES
 Predicted change in Energy=-3.926474D-10
 Optimization completed.
    -- Stationary point found.
                           ----------------------------
                           !   Optimized Parameters   !
                           ! (Angstroms and Degrees)  !
 --------------------------                            --------------------------
 ! Name  Definition              Value          Derivative Info.                !
 --------------------------------------------------------------------------------
 ! R1    R(1,2)                  1.3303         -DE/DX =    0.0                 !
 ! R2    R(1,3)                  1.3215         -DE/DX =    0.0                 !
 ! R3    R(1,4)                  1.3326         -DE/DX =    0.0                 !
 ! R4    R(1,5)                  1.8928         -DE/DX =    0.0                 !
 ! R5    R(5,6)                  1.5582         -DE/DX =    0.0                 !
 ! R6    R(5,7)                  1.7867         -DE/DX =    0.0                 !
 ! R7    R(5,8)                  1.5963         -DE/DX =    0.0                 !
 ! R8    R(6,7)                  1.4955         -DE/DX =    0.0                 !
 ! R9    R(8,9)                  0.9667         -DE/DX =    0.0                 !
 ! A1    A(2,1,3)              109.089          -DE/DX =    0.0                 !
 ! A2    A(2,1,4)              108.4053         -DE/DX =    0.0                 !
 ! A3    A(2,1,5)              109.1177         -DE/DX =    0.0                 !
 ! A4    A(3,1,4)              108.7651         -DE/DX =    0.0                 !
 ! A5    A(3,1,5)              114.431          -DE/DX =    0.0                 !
 ! A6    A(4,1,5)              106.8656         -DE/DX =    0.0                 !
 ! A7    A(1,5,6)               95.2509         -DE/DX =    0.0                 !
 ! A8    A(1,5,7)              145.5405         -DE/DX =    0.0                 !
 ! A9    A(1,5,8)               87.6351         -DE/DX =    0.0                 !
 ! A10   A(6,5,8)              110.5677         -DE/DX =    0.0                 !
 ! A11   A(7,5,8)               92.6783         -DE/DX =    0.0                 !
 ! A12   A(5,8,9)              108.2103         -DE/DX =    0.0                 !
 ! D1    D(2,1,5,6)            179.7775         -DE/DX =    0.0                 !
 ! D2    D(2,1,5,7)            160.6207         -DE/DX =    0.0                 !
 ! D3    D(2,1,5,8)             69.3329         -DE/DX =    0.0                 !
 ! D4    D(3,1,5,6)             57.255          -DE/DX =    0.0                 !
 ! D5    D(3,1,5,7)             38.0982         -DE/DX =    0.0                 !
 ! D6    D(3,1,5,8)            -53.1896         -DE/DX =    0.0                 !
 ! D7    D(4,1,5,6)            -63.2044         -DE/DX =    0.0                 !
 ! D8    D(4,1,5,7)            -82.3612         -DE/DX =    0.0                 !
 ! D9    D(4,1,5,8)           -173.6489         -DE/DX =    0.0                 !
 ! D10   D(1,5,8,9)            170.0241         -DE/DX =    0.0                 !
 ! D11   D(6,5,8,9)             75.3014         -DE/DX =    0.0                 !
 ! D12   D(7,5,8,9)             24.5167         -DE/DX =    0.0                 !
 --------------------------------------------------------------------------------
 GradGradGradGradGradGradGradGradGradGradGradGradGradGradGradGradGradGrad

 Leave Link  103 at Sun May 25 05:31:15 2025, MaxMem=  3758096384 cpu:               0.0 elap:               0.0
 (Enter /apps/easybuild-2022/easybuild/software/Compiler/NVHPC/22.11-CUDA-11.7.0/Gaussian/g16c01-CUDA-11.7.0/g16/l9999.exe)

 ----------------------------------------------------------------------

 Electric dipole moment (input orientation):
 (Debye = 10**-18 statcoulomb cm , SI units = C m)
                  (au)            (Debye)         (10**-30 SI)
   Tot        0.863474D+00      0.219473D+01      0.732084D+01
   x          0.990818D-01      0.251841D+00      0.840050D+00
   y          0.607502D+00      0.154412D+01      0.515062D+01
   z         -0.605567D+00     -0.153920D+01     -0.513421D+01

 Dipole polarizability, Alpha (input orientation).
 (esu units = cm**3 , SI units = C**2 m**2 J**-1)
 Alpha(0;0):
               (au)            (10**-24 esu)      (10**-40 SI)
   iso        0.454499D+02      0.673498D+01      0.749368D+01
   aniso      0.187162D+02      0.277346D+01      0.308589D+01
   xx         0.567318D+02      0.840678D+01      0.935381D+01
   yx         0.361210D+00      0.535258D-01      0.595554D-01
   yy         0.424127D+02      0.628491D+01      0.699290D+01
   zx        -0.242257D+01     -0.358988D+00     -0.399428D+00
   zy        -0.291999D+01     -0.432699D+00     -0.481442D+00
   zz         0.372052D+02      0.551325D+01      0.613432D+01

 ----------------------------------------------------------------------

 Dipole orientation:
     6         -1.90621743         -0.18239814         -0.56402886
     9         -3.73606799          0.04667151          1.14433311
     9         -1.86651726         -2.53240620         -1.40819636
     9         -2.41648460          1.36080321         -2.48748492
    16          1.17814155          0.92775473          0.86704810
     8          2.79519895          0.40255708         -1.53717827
     8          4.54549828          0.83553954          0.63901004
     8          1.08996711         -1.51216025          2.63872821
     1          2.69842304         -1.65599093          3.49271767

 Electric dipole moment (dipole orientation):
 (Debye = 10**-18 statcoulomb cm , SI units = C m)
                  (au)            (Debye)         (10**-30 SI)
   Tot        0.863474D+00      0.219473D+01      0.732084D+01
   x          0.000000D+00      0.000000D+00      0.000000D+00
   y          0.000000D+00      0.000000D+00      0.000000D+00
   z          0.863474D+00      0.219473D+01      0.732084D+01

 Dipole polarizability, Alpha (dipole orientation).
 (esu units = cm**3 , SI units = C**2 m**2 J**-1)
 Alpha(0;0):
               (au)            (10**-24 esu)      (10**-40 SI)
   iso        0.454499D+02      0.673498D+01      0.749368D+01
   aniso      0.187162D+02      0.277346D+01      0.308589D+01
   xx         0.558885D+02      0.828183D+01      0.921478D+01
   yx         0.265780D+01      0.393845D+00      0.438211D+00
   yy         0.370914D+02      0.549638D+01      0.611555D+01
   zx         0.362066D+01      0.536526D+00      0.596966D+00
   zy        -0.223924D+01     -0.331821D+00     -0.369200D+00
   zz         0.433697D+02      0.642673D+01      0.715070D+01

 ----------------------------------------------------------------------
 Unable to Open any file for archive entry.
 1\1\GINC-SPARTAN-BM156\Freq\RM062X\def2TZVPP\C1H1F3O3S1\AKHALILOV\25-M
 ay-2025\0\\#P Geom=AllCheck Guess=TCheck SCRF=Check GenChk RM062X/def2
 TZVPP Freq\\Gaussian input prepared by ASE\\0,1\C,-1.039749,-0.093686,
 0.161481\F,-1.891083,0.502345,-0.668922\F,-1.129173,0.472788,1.3521\F,
 -1.385726,-1.376019,0.269787\S,0.694566,-0.054885,-0.595648\O,1.384476
 ,-0.793535,0.590333\O,2.446541,-0.189741,-0.272214\O,0.694579,1.522429
 ,-0.350114\H,1.587394,1.853952,-0.515829\\Version=ES64L-G16RevC.01\HF=
 -961.9636567\RMSD=2.357e-09\RMSF=3.762e-06\ZeroPoint=0.0376657\Thermal
 =0.0455599\ETot=-961.9180969\HTot=-961.9171527\GTot=-961.95894\Dipole=
 0.0990818,0.6075021,-0.6055674\DipoleDeriv=1.5614195,0.0520322,0.06833
 08,0.1201688,1.5289915,-0.0044229,0.171242,-0.0247234,1.4860838,-0.835
 452,0.1923406,-0.2566786,0.2017795,-0.3801601,0.1673035,-0.256477,0.16
 2447,-0.5008171,-0.5081451,0.0467245,0.1753094,0.0642965,-0.3658451,-0
 .2468073,0.2695932,-0.2552431,-0.8439942,-0.524132,-0.2706334,0.062709
 4,-0.2687005,-0.8647486,0.0594634,0.0709295,0.0856013,-0.2855174,2.165
 6061,-0.2432414,0.0820827,-0.2021336,1.518229,-0.0997383,0.1999959,-0.
 0308704,0.8703373,-0.585519,0.1271989,-0.0235355,0.027699,-0.2912041,0
 .0627855,-0.0460498,0.2604878,-0.44484,-1.0744015,0.1561289,-0.1111956
 ,0.088969,-0.3411746,-0.0061735,-0.4190258,0.0002686,-0.2224832,-0.496
 0907,-0.1633753,-0.0134175,-0.0906241,-1.2132086,0.0985534,-0.0211245,
 -0.155368,-0.3893296,0.2967146,0.1028249,0.0163949,0.0585455,0.4091207
 ,-0.0309638,0.0309165,-0.0425998,0.3305605\Polar=56.7317702,0.3612097,
 42.4126714,-2.4225737,-2.9199949,37.2052439\PG=Unknown\NImag=0\\0.5253
 6496,-0.01082613,0.54730382,-0.00258594,0.01487814,0.56702830,-0.21128
 918,0.07696863,-0.09372591,0.20639947,0.07362380,-0.11339103,0.0537618
 8,-0.10274247,0.15314766,-0.08987577,0.05244175,-0.14177140,0.14520296
 ,-0.09913160,0.21382754,-0.08520042,0.01858946,0.04535858,0.00737063,-
 0.00739566,-0.04280492,0.06590413,0.01768022,-0.11410254,-0.09465004,-
 0.00409906,0.01725143,0.00857186,-0.00815819,0.15134372,0.04092561,-0.
 09374707,-0.28278832,-0.02472524,-0.00132542,-0.06992075,-0.01146669,0
 .14342390,0.37457904,-0.11407500,-0.08528443,0.01753887,0.01803353,0.0
 3268392,-0.00998358,0.01300200,-0.00241860,-0.00588830,0.08866959,-0.0
 8289276,-0.26926713,0.02925484,0.01556763,-0.05793572,0.03510198,-0.01
 220654,-0.05566652,-0.03703558,0.08540625,0.40280722,0.01573396,0.0291
 8233,-0.07822611,-0.00256675,0.04017103,-0.00459734,-0.01414531,-0.053
 80207,-0.00378301,-0.00274525,-0.02801757,0.08099931,-0.12596134,0.016
 94721,0.07134519,-0.00335703,0.00057520,-0.00218275,0.00543264,-0.0055
 5829,-0.01109125,0.01196896,0.01015815,-0.00514464,0.38205638,-0.00350
 297,-0.01768012,-0.00012152,0.02030515,-0.00439647,0.00479142,0.010527
 18,-0.00469346,-0.01585970,-0.02541511,-0.02300446,0.01100979,-0.05261
 316,0.47218239,0.01724349,-0.01122184,-0.06887342,-0.02970276,0.009773
 50,-0.00044503,0.02836038,-0.00974724,-0.03089737,0.00214960,0.0022587
 5,0.00523719,0.13062950,-0.04998378,0.43938382,0.00012468,0.00616502,-
 0.02963923,-0.00791326,0.00179114,0.00178642,0.00122582,-0.00023596,0.
 00072760,-0.00424139,-0.00385270,0.00281085,-0.11810040,0.07190641,-0.
 10695142,0.24593004,0.00138835,-0.00262469,0.00720122,0.00301424,-0.00
 022219,0.00046299,0.00046709,0.00009966,-0.00130583,0.00258868,0.00429
 481,-0.00154649,0.08650943,-0.09430937,0.09200811,0.00037272,0.1396612
 4,0.00537779,-0.00325379,-0.00258060,0.00364208,-0.00125912,0.00223908
 ,-0.00054663,0.00056402,0.00279394,-0.00309582,-0.00336016,0.00159452,
 -0.14615191,0.12636080,-0.24657384,0.01463441,-0.17323211,0.30965833,0
 .01010007,0.01166613,0.00292230,-0.00707529,0.00089704,-0.00301247,-0.
 00817589,0.00288998,0.01158268,-0.00256798,-0.00523241,0.00053096,-0.0
 7210955,0.00976748,-0.04649449,-0.11934619,-0.09806774,0.12525313,0.21
 518924,-0.00147142,0.00089172,0.00211164,-0.00152779,0.00083014,-0.000
 90291,-0.00137143,0.00112498,0.00225704,0.00037964,0.00177594,-0.00078
 831,-0.00868035,-0.03596463,0.00835767,-0.08971329,-0.04364506,0.04771
 933,0.06223045,0.08935369,0.00970760,0.00214692,0.00667454,0.00153558,
 -0.00062213,-0.00041514,-0.00475490,0.00198373,0.00678386,-0.00230432,
 -0.00240387,-0.00012632,-0.03677903,-0.00093164,-0.03864672,0.11562377
 ,0.05689130,-0.08275228,-0.08702165,-0.06108985,0.10694963,0.00109142,
 -0.03430363,-0.01212419,-0.00311284,0.00063408,0.00084445,0.00008849,-
 0.00012993,0.00048357,-0.01151862,-0.00764666,0.00600490,-0.08784832,-
 0.02562698,0.00024336,0.00690828,0.00367032,0.00322194,-0.00890849,0.0
 3433563,0.00642080,0.54625466,0.00542344,-0.02383037,-0.00936747,-0.00
 773983,0.00362172,-0.00128109,-0.00135453,0.00402557,0.00411349,-0.006
 05123,-0.00205449,0.00263343,-0.00325145,-0.26501614,-0.04547768,0.011
 34240,-0.00483763,0.00655737,0.01330663,-0.01831766,0.00269798,0.15299
 909,0.38908135,0.00205499,0.00874707,0.00086355,0.00034015,-0.00088744
 ,0.00106406,0.00017949,0.00341524,0.00305387,0.00410842,0.00365153,-0.
 00125919,0.00577996,-0.07180846,-0.06241462,-0.00087297,0.01813365,0.0
 1691007,-0.00446279,0.00540635,0.00244433,-0.09071644,0.01411137,0.063
 25545,-0.00015519,0.00007775,0.00091033,0.00094397,-0.00006706,0.00002
 566,0.00035260,0.00002983,-0.00054799,0.00072891,0.00069905,-0.0004787
 2,0.00791867,-0.00534799,0.00452235,-0.00458759,0.00005691,-0.00233498
 ,-0.00710591,0.00581856,-0.00242784,-0.44295456,-0.16467453,0.08358919
 ,0.44485909,0.00057749,-0.00729967,-0.00306870,0.00025349,0.00109445,-
 0.00005440,0.00090261,0.00061717,-0.00052084,-0.00188911,-0.00094965,0
 .00115784,-0.04408675,-0.02711774,0.00403252,0.00222427,0.00158323,-0.
 00009634,0.00254243,0.00395087,0.00132757,-0.12393192,-0.08267236,0.01
 923069,0.16340748,0.11079370,0.00141828,0.00082648,-0.00032655,-0.0000
 0012,-0.00048069,0.00001898,-0.00017999,0.00024060,0.00017873,0.000220
 39,0.00055009,0.00016095,-0.00640507,-0.00345692,0.00322999,0.00188059
 ,0.00138715,-0.00128921,0.00070233,-0.00307096,-0.00091190,0.08562160,
 0.02601260,-0.02391753,-0.08325799,-0.02200833,0.02285654\\0.00000742,
 -0.00000172,-0.00000326,-0.00000113,-0.00000209,0.00000015,0.00000013,
 -0.00000578,0.00000314,0.00000187,-0.00000535,-0.00000372,-0.00000392,
 -0.00000007,0.00000011,0.00000005,0.00000218,-0.00000440,0.00000109,0.
 00000833,-0.00000303,-0.00000109,0.00000037,0.00000611,-0.00000442,0.0
 0000413,0.00000490\\\@
 The archive entry for this job was punched.


 MISERY NO LONGER LOVES COMPANY.  NOWADAYS IT INSISTS ON IT.

                                              -- BAKER'S LAW
 Job cpu time:       0 days  0 hours 14 minutes 10.2 seconds.
 Elapsed time:       0 days  0 hours  1 minutes 48.7 seconds.
 File lengths (MBytes):  RWF=     75 Int=      0 D2E=      0 Chk=      6 Scr=      1
 Normal termination of Gaussian 16 at Sun May 25 05:31:15 2025.
done
