1
energy = -0.49813851171100004
H 2.96162100 1.22624500 -0.00159800
