7
energy = -526.130930151
C 1.54040900 0.00502600 -0.00647100
O 2.20578900 -0.92720500 -0.32397600
C -0.01494100 0.00304800 0.00229100
F -0.48623600 0.80048900 0.95438800
F -0.45631500 0.43893600 -1.17185800
F -0.45322700 -1.22217800 0.20143200
O 2.02252500 1.17991600 0.34470500
