 Entering Gaussian System, Link 0=g16
 Initial command:
 /apps/easybuild-2022/easybuild/software/Compiler/NVHPC/22.11-CUDA-11.7.0/Gaussian/g16c01-CUDA-11.7.0/g16/l1.exe "/tmp/Gau-126363.inp" -scrdir="/tmp/"
 Entering Link 1 = /apps/easybuild-2022/easybuild/software/Compiler/NVHPC/22.11-CUDA-11.7.0/Gaussian/g16c01-CUDA-11.7.0/g16/l1.exe PID=    126371.
  
 Copyright (c) 1988-2019, Gaussian, Inc.  All Rights Reserved.
  
 This is part of the Gaussian(R) 16 program.  It is based on
 the Gaussian(R) 09 system (copyright 2009, Gaussian, Inc.),
 the Gaussian(R) 03 system (copyright 2003, Gaussian, Inc.),
 the Gaussian(R) 98 system (copyright 1998, Gaussian, Inc.),
 the Gaussian(R) 94 system (copyright 1995, Gaussian, Inc.),
 the Gaussian 92(TM) system (copyright 1992, Gaussian, Inc.),
 the Gaussian 90(TM) system (copyright 1990, Gaussian, Inc.),
 the Gaussian 88(TM) system (copyright 1988, Gaussian, Inc.),
 the Gaussian 86(TM) system (copyright 1986, Carnegie Mellon
 University), and the Gaussian 82(TM) system (copyright 1983,
 Carnegie Mellon University). Gaussian is a federally registered
 trademark of Gaussian, Inc.
  
 This software contains proprietary and confidential information,
 including trade secrets, belonging to Gaussian, Inc.
  
 This software is provided under written license and may be
 used, copied, transmitted, or stored only in accord with that
 written license.
  
 The following legend is applicable only to US Government
 contracts under FAR:
  
                    RESTRICTED RIGHTS LEGEND
  
 Use, reproduction and disclosure by the US Government is
 subject to restrictions as set forth in subparagraphs (a)
 and (c) of the Commercial Computer Software - Restricted
 Rights clause in FAR 52.227-19.
  
 Gaussian, Inc.
 340 Quinnipiac St., Bldg. 40, Wallingford CT 06492
  
  
 ---------------------------------------------------------------
 Warning -- This program may not be used in any manner that
 competes with the business of Gaussian, Inc. or will provide
 assistance to any competitor of Gaussian, Inc.  The licensee
 of this program is prohibited from giving any competitor of
 Gaussian, Inc. access to this program.  By using this program,
 the user acknowledges that Gaussian, Inc. is engaged in the
 business of creating and licensing software in the field of
 computational chemistry and represents and warrants to the
 licensee that it is not a competitor of Gaussian, Inc. and that
 it will not use this program in any manner prohibited above.
 ---------------------------------------------------------------
  

 Cite this work as:
 Gaussian 16, Revision C.01,
 M. J. Frisch, G. W. Trucks, H. B. Schlegel, G. E. Scuseria, 
 M. A. Robb, J. R. Cheeseman, G. Scalmani, V. Barone, 
 G. A. Petersson, H. Nakatsuji, X. Li, M. Caricato, A. V. Marenich, 
 J. Bloino, B. G. Janesko, R. Gomperts, B. Mennucci, H. P. Hratchian, 
 J. V. Ortiz, A. F. Izmaylov, J. L. Sonnenberg, D. Williams-Young, 
 F. Ding, F. Lipparini, F. Egidi, J. Goings, B. Peng, A. Petrone, 
 T. Henderson, D. Ranasinghe, V. G. Zakrzewski, J. Gao, N. Rega, 
 G. Zheng, W. Liang, M. Hada, M. Ehara, K. Toyota, R. Fukuda, 
 J. Hasegawa, M. Ishida, T. Nakajima, Y. Honda, O. Kitao, H. Nakai, 
 T. Vreven, K. Throssell, J. A. Montgomery, Jr., J. E. Peralta, 
 F. Ogliaro, M. J. Bearpark, J. J. Heyd, E. N. Brothers, K. N. Kudin, 
 V. N. Staroverov, T. A. Keith, R. Kobayashi, J. Normand, 
 K. Raghavachari, A. P. Rendell, J. C. Burant, S. S. Iyengar, 
 J. Tomasi, M. Cossi, J. M. Millam, M. Klene, C. Adamo, R. Cammi, 
 J. W. Ochterski, R. L. Martin, K. Morokuma, O. Farkas, 
 J. B. Foresman, and D. J. Fox, Gaussian, Inc., Wallingford CT, 2019.
 
 ******************************************
 Gaussian 16:  ES64L-G16RevC.01  3-Jul-2019
                25-May-2025 
 ******************************************
 %mem=28GB
 %nprocshared=8
 Will use up to    8 processors via shared memory.
 -----------------------------------------------------------------
 #P M062X/Def2TZVPP Symm(None) scf(xqc) pop(None) freq opt(CalcFC)
 -----------------------------------------------------------------
 1/10=4,18=20,19=15,26=3,38=1/1,3;
 2/9=110,12=2,15=3,17=6,18=5,40=1/2;
 3/5=44,7=202,11=2,25=1,30=1,71=2,74=-55,140=1/1,2,3;
 4//1;
 5/5=2,8=3,13=1,38=5/2,8;
 8/6=4,10=90,11=11/1;
 11/6=1,8=1,9=11,15=111,16=1,31=1/1,2,10;
 10/6=1,13=1,31=1/2;
 7/10=1,25=1,30=1/1,2,3,16;
 1/10=4,18=20,19=15,26=3/3(2);
 2/9=110,15=3/2;
 99//99;
 2/9=110,15=3/2;
 3/5=44,7=202,11=2,25=1,30=1,71=1,74=-55/1,2,3;
 4/5=5,16=3,69=1/1;
 5/5=2,8=3,13=1,38=5/2,8;
 7/30=1/1,2,3,16;
 1/18=20,19=15,26=3/3(-5);
 2/9=110,15=3/2;
 99/9=1/99;
 Leave Link    1 at Sun May 25 04:25:57 2025, MaxMem=  3758096384 cpu:               0.0 elap:               0.0
 (Enter /apps/easybuild-2022/easybuild/software/Compiler/NVHPC/22.11-CUDA-11.7.0/Gaussian/g16c01-CUDA-11.7.0/g16/l101.exe)
 ------------------------------
 Gaussian input prepared by ASE
 ------------------------------
 Symbolic Z-matrix:
 Charge =  0 Multiplicity = 1
 C                     1.35704   0.        0. 
 O                     0.        0.        0. 
 C                    -0.58989  -1.2457    0.00026 
 F                    -0.25914  -1.93558   1.07481 
 F                    -1.89469  -1.04924  -0.00096 
 F                    -0.25725  -1.9372   -1.07265 
 O                     1.71908   1.24017   0. 
 H                     2.25778   1.4811    0.77872 
 
 ITRead=  0  0  0  0  0  0  0  0
 MicOpt= -1 -1 -1 -1 -1 -1 -1 -1
 NAtoms=      8 NQM=        8 NQMF=       0 NMMI=      0 NMMIF=      0
                NMic=       0 NMicF=      0.
                    Isotopes and Nuclear Properties:
 (Nuclear quadrupole moments (NQMom) in fm**2, nuclear magnetic moments (NMagM)
  in nuclear magnetons)

  Atom         1           2           3           4           5           6           7           8
 IAtWgt=          12          16          12          19          19          19          16           1
 AtmWgt=  12.0000000  15.9949146  12.0000000  18.9984032  18.9984032  18.9984032  15.9949146   1.0078250
 NucSpn=           0           0           0           1           1           1           0           1
 AtZEff=  -0.0000000  -0.0000000  -0.0000000  -0.0000000  -0.0000000  -0.0000000  -0.0000000  -0.0000000
 NQMom=    0.0000000   0.0000000   0.0000000   0.0000000   0.0000000   0.0000000   0.0000000   0.0000000
 NMagM=    0.0000000   0.0000000   0.0000000   2.6288670   2.6288670   2.6288670   0.0000000   2.7928460
 AtZNuc=   6.0000000   8.0000000   6.0000000   9.0000000   9.0000000   9.0000000   8.0000000   1.0000000
 Leave Link  101 at Sun May 25 04:25:57 2025, MaxMem=  3758096384 cpu:               0.2 elap:               0.2
 (Enter /apps/easybuild-2022/easybuild/software/Compiler/NVHPC/22.11-CUDA-11.7.0/Gaussian/g16c01-CUDA-11.7.0/g16/l103.exe)

 GradGradGradGradGradGradGradGradGradGradGradGradGradGradGradGradGradGrad
 Berny optimization.
 Initialization pass.
                           ----------------------------
                           !    Initial Parameters    !
                           ! (Angstroms and Degrees)  !
 --------------------------                            --------------------------
 ! Name  Definition              Value          Derivative Info.                !
 --------------------------------------------------------------------------------
 ! R1    R(1,2)                  1.357          calculate D2E/DX2 analytically  !
 ! R2    R(1,7)                  1.2919         calculate D2E/DX2 analytically  !
 ! R3    R(2,3)                  1.3783         calculate D2E/DX2 analytically  !
 ! R4    R(3,4)                  1.3191         calculate D2E/DX2 analytically  !
 ! R5    R(3,5)                  1.3195         calculate D2E/DX2 analytically  !
 ! R6    R(3,6)                  1.3191         calculate D2E/DX2 analytically  !
 ! R7    R(7,8)                  0.9771         calculate D2E/DX2 analytically  !
 ! A1    A(2,1,7)              106.274          calculate D2E/DX2 analytically  !
 ! A2    A(1,2,3)              115.3393         calculate D2E/DX2 analytically  !
 ! A3    A(2,3,4)              111.4396         calculate D2E/DX2 analytically  !
 ! A4    A(2,3,5)              106.7766         calculate D2E/DX2 analytically  !
 ! A5    A(2,3,6)              111.4517         calculate D2E/DX2 analytically  !
 ! A6    A(4,3,5)              109.0607         calculate D2E/DX2 analytically  !
 ! A7    A(4,3,6)              108.9771         calculate D2E/DX2 analytically  !
 ! A8    A(5,3,6)              109.0667         calculate D2E/DX2 analytically  !
 ! A9    A(1,7,8)              113.0296         calculate D2E/DX2 analytically  !
 ! D1    D(7,1,2,3)           -179.9881         calculate D2E/DX2 analytically  !
 ! D2    D(2,1,7,8)            120.0001         calculate D2E/DX2 analytically  !
 ! D3    D(1,2,3,4)             61.052          calculate D2E/DX2 analytically  !
 ! D4    D(1,2,3,5)           -179.9467         calculate D2E/DX2 analytically  !
 ! D5    D(1,2,3,6)            -60.9312         calculate D2E/DX2 analytically  !
 --------------------------------------------------------------------------------
 Trust Radius=3.00D-01 FncErr=1.00D-07 GrdErr=1.00D-06 EigMax=2.50D+02 EigMin=1.00D-04
 Number of steps in this run=     31 maximum allowed number of steps=    100.
 GradGradGradGradGradGradGradGradGradGradGradGradGradGradGradGradGradGrad

 Leave Link  103 at Sun May 25 04:25:57 2025, MaxMem=  3758096384 cpu:               0.0 elap:               0.0
 (Enter /apps/easybuild-2022/easybuild/software/Compiler/NVHPC/22.11-CUDA-11.7.0/Gaussian/g16c01-CUDA-11.7.0/g16/l202.exe)
                          Input orientation:                          
 ---------------------------------------------------------------------
 Center     Atomic      Atomic             Coordinates (Angstroms)
 Number     Number       Type             X           Y           Z
 ---------------------------------------------------------------------
      1          6           0        1.357042    0.000000    0.000000
      2          8           0        0.000000    0.000000    0.000000
      3          6           0       -0.589887   -1.245704    0.000260
      4          9           0       -0.259136   -1.935582    1.074810
      5          9           0       -1.894692   -1.049239   -0.000957
      6          9           0       -0.257248   -1.937204   -1.072647
      7          8           0        1.719084    1.240172    0.000000
      8          1           0        2.257779    1.481098    0.778721
 ---------------------------------------------------------------------
                    Distance matrix (angstroms):
                    1          2          3          4          5
     1  C    0.000000
     2  O    1.357042   0.000000
     3  C    2.311344   1.378312   0.000000
     4  F    2.741117   2.229091   1.319086   0.000000
     5  F    3.416822   2.165816   1.319513   2.148935   0.000000
     6  F    2.740303   2.229239   1.319072   2.147458   2.149005
     7  O    1.291937   2.119735   3.392775   3.892812   4.277941
     8  H    1.900365   2.810271   4.018788   4.253967   4.924786
                    6          7          8
     6  F    0.000000
     7  O    3.892580   0.000000
     8  H    4.630088   0.977059   0.000000
 Symmetry turned off by external request.
 Stoichiometry    C2HF3O2
 Rotational constants (GHZ):           5.4871687           1.7552744           1.7351336
 Leave Link  202 at Sun May 25 04:25:57 2025, MaxMem=  3758096384 cpu:               0.0 elap:               0.0
 (Enter /apps/easybuild-2022/easybuild/software/Compiler/NVHPC/22.11-CUDA-11.7.0/Gaussian/g16c01-CUDA-11.7.0/g16/l301.exe)
 Standard basis: def2TZVPP (5D, 7F)
 Ernie: Thresh=  0.10000D-02 Tol=  0.10000D-05 Strict=F.
   231 basis functions,   374 primitive gaussians,   267 cartesian basis functions
    28 alpha electrons       28 beta electrons
       nuclear repulsion energy       334.2365005469 Hartrees.
 IExCor= 4336 DFT=T Ex+Corr=M062X ExCW=0 ScaHFX=  0.540000
 ScaDFX=  1.000000  1.000000  1.000000  1.000000 ScalE2=  1.000000  1.000000
 IRadAn=      5 IRanWt=     -1 IRanGd=            0 ICorTp=0 IEmpDi=  4
 NAtoms=    8 NActive=    8 NUniq=    8 SFac= 1.00D+00 NAtFMM=   60 NAOKFM=F Big=F
 Integral buffers will be    131072 words long.
 Raffenetti 2 integral format.
 Two-electron integral symmetry is turned off.
 Leave Link  301 at Sun May 25 04:25:57 2025, MaxMem=  3758096384 cpu:               0.1 elap:               0.0
 (Enter /apps/easybuild-2022/easybuild/software/Compiler/NVHPC/22.11-CUDA-11.7.0/Gaussian/g16c01-CUDA-11.7.0/g16/l302.exe)
 NPDir=0 NMtPBC=     1 NCelOv=     1 NCel=       1 NClECP=     1 NCelD=      1
         NCelK=      1 NCelE2=     1 NClLst=     1 CellRange=     0.0.
 One-electron integrals computed using PRISM.
   1 Symmetry operations used in ECPInt.
 ECPInt:  NShTT=    3486 NPrTT=   11183 LenC2=    3344 LenP2D=    8463.
 LDataN:  DoStor=T MaxTD1= 6 Len=  172
 NBasis=   231 RedAO= T EigKep=  1.05D-03  NBF=   231
 NBsUse=   231 1.00D-06 EigRej= -1.00D+00 NBFU=   231
 Precomputing XC quadrature grid using
 IXCGrd= 4 IRadAn=           5 IRanWt=          -1 IRanGd=           0 AccXCQ= 0.00D+00.
 Generated NRdTot=       0 NPtTot=           0 NUsed=           0 NTot=          32
 NSgBfM=   265   265   265   265   265 MxSgAt=     8 MxSgA2=     8.
 Leave Link  302 at Sun May 25 04:25:57 2025, MaxMem=  3758096384 cpu:               0.7 elap:               0.1
 (Enter /apps/easybuild-2022/easybuild/software/Compiler/NVHPC/22.11-CUDA-11.7.0/Gaussian/g16c01-CUDA-11.7.0/g16/l303.exe)
 DipDrv:  MaxL=1.
 Leave Link  303 at Sun May 25 04:25:57 2025, MaxMem=  3758096384 cpu:               0.1 elap:               0.0
 (Enter /apps/easybuild-2022/easybuild/software/Compiler/NVHPC/22.11-CUDA-11.7.0/Gaussian/g16c01-CUDA-11.7.0/g16/l401.exe)
 ExpMin= 9.52D-02 ExpMax= 3.55D+04 ExpMxC= 1.21D+03 IAcc=3 IRadAn=         5 AccDes= 0.00D+00
 Harris functional with IExCor= 1009 and IRadAn=       5 diagonalized for initial guess.
 HarFok:  IExCor= 1009 AccDes= 0.00D+00 IRadAn=         5 IDoV= 1 UseB2=F ITyADJ=14
 ICtDFT=  3500011 ScaDFX=  1.000000  1.000000  1.000000  1.000000
 FoFCou: FMM=F IPFlag=           0 FMFlag=      100000 FMFlg1=           0
         NFxFlg=           0 DoJE=T BraDBF=F KetDBF=T FulRan=T
         wScrn=  0.000000 ICntrl=       500 IOpCl=  0 I1Cent=   200000004 NGrid=           0
         NMat0=    1 NMatS0=      1 NMatT0=    0 NMatD0=    1 NMtDS0=    0 NMtDT0=    0
 Symmetry not used in FoFCou.
 Harris En= -526.446121322940    
 JPrj=0 DoOrth=F DoCkMO=F.
 Leave Link  401 at Sun May 25 04:25:58 2025, MaxMem=  3758096384 cpu:               2.0 elap:               0.3
 (Enter /apps/easybuild-2022/easybuild/software/Compiler/NVHPC/22.11-CUDA-11.7.0/Gaussian/g16c01-CUDA-11.7.0/g16/l502.exe)
 Keep R1 ints in memory in canonical form, NReq=368651279.
 FoFCou: FMM=F IPFlag=           0 FMFlag=           0 FMFlg1=           0
         NFxFlg=           0 DoJE=F BraDBF=F KetDBF=F FulRan=T
         wScrn=  0.000000 ICntrl=       600 IOpCl=  0 I1Cent=           0 NGrid=           0
         NMat0=    1 NMatS0=  26796 NMatT0=    0 NMatD0=    1 NMtDS0=    0 NMtDT0=    0
 Symmetry not used in FoFCou.
 Two-electron integral symmetry not used.
 Closed shell SCF:
 Using DIIS extrapolation, IDIIS=  1040.
 NGot=  3758096384 LenX=  3398923531 LenY=  3398851801
 Requested convergence on RMS density matrix=1.00D-08 within  32 cycles.
 Requested convergence on MAX density matrix=1.00D-06.
 Requested convergence on             energy=1.00D-06.
 No special actions if energy rises.
 Integral accuracy reduced to 1.0D-05 until final iterations.

 Cycle   1  Pass 0  IDiag  1:
 E= -526.649561535615    
 DIIS: error= 2.44D-02 at cycle   1 NSaved=   1.
 NSaved= 1 IEnMin= 1 EnMin= -526.649561535615     IErMin= 1 ErrMin= 2.44D-02
 ErrMax= 2.44D-02  0.00D+00 EMaxC= 1.00D-01 BMatC= 2.41D-01 BMatP= 2.41D-01
 IDIUse=3 WtCom= 7.56D-01 WtEn= 2.44D-01
 Coeff-Com:  0.100D+01
 Coeff-En:   0.100D+01
 Coeff:      0.100D+01
 Gap=     0.291 Goal=   None    Shift=    0.000
 GapD=    0.291 DampG=1.000 DampE=0.500 DampFc=0.5000 IDamp=-1.
 Damping current iteration by 5.00D-01
 RMSDP=1.93D-03 MaxDP=8.78D-02              OVMax= 1.07D-01

 Cycle   2  Pass 0  IDiag  1:
 E= -526.701507606021     Delta-E=       -0.051946070406 Rises=F Damp=T
 DIIS: error= 7.37D-03 at cycle   2 NSaved=   2.
 NSaved= 2 IEnMin= 2 EnMin= -526.701507606021     IErMin= 2 ErrMin= 7.37D-03
 ErrMax= 7.37D-03  0.00D+00 EMaxC= 1.00D-01 BMatC= 2.22D-02 BMatP= 2.41D-01
 IDIUse=3 WtCom= 9.26D-01 WtEn= 7.37D-02
 Coeff-Com: -0.348D-01 0.103D+01
 Coeff-En:   0.579D-01 0.942D+00
 Coeff:     -0.280D-01 0.103D+01
 Gap=     0.307 Goal=   None    Shift=    0.000
 RMSDP=5.64D-04 MaxDP=2.49D-02 DE=-5.19D-02 OVMax= 5.86D-02

 Cycle   3  Pass 0  IDiag  1:
 E= -526.761549354361     Delta-E=       -0.060041748340 Rises=F Damp=F
 DIIS: error= 2.19D-03 at cycle   3 NSaved=   3.
 NSaved= 3 IEnMin= 3 EnMin= -526.761549354361     IErMin= 3 ErrMin= 2.19D-03
 ErrMax= 2.19D-03  0.00D+00 EMaxC= 1.00D-01 BMatC= 4.11D-03 BMatP= 2.22D-02
 IDIUse=3 WtCom= 9.78D-01 WtEn= 2.19D-02
 Coeff-Com: -0.107D+00 0.252D+00 0.854D+00
 Coeff-En:   0.000D+00 0.000D+00 0.100D+01
 Coeff:     -0.104D+00 0.247D+00 0.857D+00
 Gap=     0.299 Goal=   None    Shift=    0.000
 RMSDP=2.03D-04 MaxDP=1.07D-02 DE=-6.00D-02 OVMax= 1.39D-02

 Cycle   4  Pass 0  IDiag  1:
 E= -526.763852447089     Delta-E=       -0.002303092728 Rises=F Damp=F
 DIIS: error= 1.01D-03 at cycle   4 NSaved=   4.
 NSaved= 4 IEnMin= 4 EnMin= -526.763852447089     IErMin= 4 ErrMin= 1.01D-03
 ErrMax= 1.01D-03  0.00D+00 EMaxC= 1.00D-01 BMatC= 5.64D-04 BMatP= 4.11D-03
 IDIUse=3 WtCom= 9.90D-01 WtEn= 1.01D-02
 Coeff-Com: -0.506D-01 0.976D-01 0.429D+00 0.524D+00
 Coeff-En:   0.000D+00 0.000D+00 0.000D+00 0.100D+01
 Coeff:     -0.501D-01 0.966D-01 0.424D+00 0.529D+00
 Gap=     0.299 Goal=   None    Shift=    0.000
 RMSDP=6.14D-05 MaxDP=3.21D-03 DE=-2.30D-03 OVMax= 5.09D-03

 Cycle   5  Pass 0  IDiag  1:
 E= -526.764234567308     Delta-E=       -0.000382120219 Rises=F Damp=F
 DIIS: error= 1.58D-04 at cycle   5 NSaved=   5.
 NSaved= 5 IEnMin= 5 EnMin= -526.764234567308     IErMin= 5 ErrMin= 1.58D-04
 ErrMax= 1.58D-04  0.00D+00 EMaxC= 1.00D-01 BMatC= 1.67D-05 BMatP= 5.64D-04
 IDIUse=3 WtCom= 9.98D-01 WtEn= 1.58D-03
 Coeff-Com: -0.114D-01 0.199D-01 0.967D-01 0.193D+00 0.702D+00
 Coeff-En:   0.000D+00 0.000D+00 0.000D+00 0.000D+00 0.100D+01
 Coeff:     -0.114D-01 0.198D-01 0.966D-01 0.192D+00 0.703D+00
 Gap=     0.298 Goal=   None    Shift=    0.000
 RMSDP=1.38D-05 MaxDP=9.50D-04 DE=-3.82D-04 OVMax= 1.06D-03

 Cycle   6  Pass 0  IDiag  1:
 E= -526.764245425472     Delta-E=       -0.000010858165 Rises=F Damp=F
 DIIS: error= 8.30D-05 at cycle   6 NSaved=   6.
 NSaved= 6 IEnMin= 6 EnMin= -526.764245425472     IErMin= 6 ErrMin= 8.30D-05
 ErrMax= 8.30D-05  0.00D+00 EMaxC= 1.00D-01 BMatC= 2.18D-06 BMatP= 1.67D-05
 IDIUse=1 WtCom= 1.00D+00 WtEn= 0.00D+00
 Coeff-Com: -0.113D-02 0.109D-02 0.593D-02 0.360D-01 0.294D+00 0.664D+00
 Coeff:     -0.113D-02 0.109D-02 0.593D-02 0.360D-01 0.294D+00 0.664D+00
 Gap=     0.298 Goal=   None    Shift=    0.000
 RMSDP=5.53D-06 MaxDP=3.68D-04 DE=-1.09D-05 OVMax= 3.84D-04

 Initial convergence to 1.0D-05 achieved.  Increase integral accuracy.
 Cycle   7  Pass 1  IDiag  1:
 E= -526.764251191204     Delta-E=       -0.000005765732 Rises=F Damp=F
 DIIS: error= 3.79D-05 at cycle   1 NSaved=   1.
 NSaved= 1 IEnMin= 1 EnMin= -526.764251191204     IErMin= 1 ErrMin= 3.79D-05
 ErrMax= 3.79D-05  0.00D+00 EMaxC= 1.00D-01 BMatC= 5.26D-07 BMatP= 5.26D-07
 IDIUse=1 WtCom= 1.00D+00 WtEn= 0.00D+00
 Coeff-Com:  0.100D+01
 Coeff:      0.100D+01
 Gap=     0.298 Goal=   None    Shift=    0.000
 RMSDP=5.53D-06 MaxDP=3.68D-04 DE=-5.77D-06 OVMax= 2.05D-04

 Cycle   8  Pass 1  IDiag  1:
 E= -526.764251532190     Delta-E=       -0.000000340986 Rises=F Damp=F
 DIIS: error= 2.09D-05 at cycle   2 NSaved=   2.
 NSaved= 2 IEnMin= 2 EnMin= -526.764251532190     IErMin= 2 ErrMin= 2.09D-05
 ErrMax= 2.09D-05  0.00D+00 EMaxC= 1.00D-01 BMatC= 1.95D-07 BMatP= 5.26D-07
 IDIUse=1 WtCom= 1.00D+00 WtEn= 0.00D+00
 Coeff-Com:  0.323D+00 0.677D+00
 Coeff:      0.323D+00 0.677D+00
 Gap=     0.298 Goal=   None    Shift=    0.000
 RMSDP=1.51D-06 MaxDP=5.36D-05 DE=-3.41D-07 OVMax= 8.98D-05

 Cycle   9  Pass 1  IDiag  1:
 E= -526.764251622798     Delta-E=       -0.000000090608 Rises=F Damp=F
 DIIS: error= 1.06D-05 at cycle   3 NSaved=   3.
 NSaved= 3 IEnMin= 3 EnMin= -526.764251622798     IErMin= 3 ErrMin= 1.06D-05
 ErrMax= 1.06D-05  0.00D+00 EMaxC= 1.00D-01 BMatC= 5.72D-08 BMatP= 1.95D-07
 IDIUse=1 WtCom= 1.00D+00 WtEn= 0.00D+00
 Coeff-Com: -0.308D-01 0.344D+00 0.687D+00
 Coeff:     -0.308D-01 0.344D+00 0.687D+00
 Gap=     0.298 Goal=   None    Shift=    0.000
 RMSDP=6.84D-07 MaxDP=3.06D-05 DE=-9.06D-08 OVMax= 5.44D-05

 Cycle  10  Pass 1  IDiag  1:
 E= -526.764251661433     Delta-E=       -0.000000038635 Rises=F Damp=F
 DIIS: error= 1.58D-06 at cycle   4 NSaved=   4.
 NSaved= 4 IEnMin= 4 EnMin= -526.764251661433     IErMin= 4 ErrMin= 1.58D-06
 ErrMax= 1.58D-06  0.00D+00 EMaxC= 1.00D-01 BMatC= 1.59D-09 BMatP= 5.72D-08
 IDIUse=1 WtCom= 1.00D+00 WtEn= 0.00D+00
 Coeff-Com: -0.209D-01 0.986D-01 0.256D+00 0.667D+00
 Coeff:     -0.209D-01 0.986D-01 0.256D+00 0.667D+00
 Gap=     0.298 Goal=   None    Shift=    0.000
 RMSDP=1.34D-07 MaxDP=4.69D-06 DE=-3.86D-08 OVMax= 8.25D-06

 Cycle  11  Pass 1  IDiag  1:
 E= -526.764251662609     Delta-E=       -0.000000001176 Rises=F Damp=F
 DIIS: error= 6.90D-07 at cycle   5 NSaved=   5.
 NSaved= 5 IEnMin= 5 EnMin= -526.764251662609     IErMin= 5 ErrMin= 6.90D-07
 ErrMax= 6.90D-07  0.00D+00 EMaxC= 1.00D-01 BMatC= 2.42D-10 BMatP= 1.59D-09
 IDIUse=1 WtCom= 1.00D+00 WtEn= 0.00D+00
 Coeff-Com: -0.136D-03-0.381D-01-0.427D-01 0.241D+00 0.840D+00
 Coeff:     -0.136D-03-0.381D-01-0.427D-01 0.241D+00 0.840D+00
 Gap=     0.298 Goal=   None    Shift=    0.000
 RMSDP=6.86D-08 MaxDP=2.36D-06 DE=-1.18D-09 OVMax= 6.14D-06

 Cycle  12  Pass 1  IDiag  1:
 E= -526.764251662807     Delta-E=       -0.000000000198 Rises=F Damp=F
 DIIS: error= 2.27D-07 at cycle   6 NSaved=   6.
 NSaved= 6 IEnMin= 6 EnMin= -526.764251662807     IErMin= 6 ErrMin= 2.27D-07
 ErrMax= 2.27D-07  0.00D+00 EMaxC= 1.00D-01 BMatC= 2.51D-11 BMatP= 2.42D-10
 IDIUse=1 WtCom= 1.00D+00 WtEn= 0.00D+00
 Coeff-Com:  0.181D-02-0.257D-01-0.398D-01 0.358D-01 0.338D+00 0.690D+00
 Coeff:      0.181D-02-0.257D-01-0.398D-01 0.358D-01 0.338D+00 0.690D+00
 Gap=     0.298 Goal=   None    Shift=    0.000
 RMSDP=1.85D-08 MaxDP=4.65D-07 DE=-1.98D-10 OVMax= 1.52D-06

 Cycle  13  Pass 1  IDiag  1:
 E= -526.764251662817     Delta-E=       -0.000000000010 Rises=F Damp=F
 DIIS: error= 5.16D-08 at cycle   7 NSaved=   7.
 NSaved= 7 IEnMin= 7 EnMin= -526.764251662817     IErMin= 7 ErrMin= 5.16D-08
 ErrMax= 5.16D-08  0.00D+00 EMaxC= 1.00D-01 BMatC= 1.36D-12 BMatP= 2.51D-11
 IDIUse=1 WtCom= 1.00D+00 WtEn= 0.00D+00
 Coeff-Com:  0.484D-03-0.383D-02-0.691D-02-0.130D-01 0.154D-01 0.166D+00
 Coeff-Com:  0.842D+00
 Coeff:      0.484D-03-0.383D-02-0.691D-02-0.130D-01 0.154D-01 0.166D+00
 Coeff:      0.842D+00
 Gap=     0.298 Goal=   None    Shift=    0.000
 RMSDP=6.07D-09 MaxDP=1.58D-07 DE=-1.02D-11 OVMax= 6.17D-07

 SCF Done:  E(RM062X) =  -526.764251663     A.U. after   13 cycles
            NFock= 13  Conv=0.61D-08     -V/T= 2.0036
 KE= 5.248500299912D+02 PE=-1.916249449362D+03 EE= 5.303986671606D+02
 Leave Link  502 at Sun May 25 04:26:06 2025, MaxMem=  3758096384 cpu:              42.4 elap:               8.4
 (Enter /apps/easybuild-2022/easybuild/software/Compiler/NVHPC/22.11-CUDA-11.7.0/Gaussian/g16c01-CUDA-11.7.0/g16/l508.exe)
 QCSCF skips out because SCF is already converged.
 Leave Link  508 at Sun May 25 04:26:06 2025, MaxMem=  3758096384 cpu:               0.0 elap:               0.0
 (Enter /apps/easybuild-2022/easybuild/software/Compiler/NVHPC/22.11-CUDA-11.7.0/Gaussian/g16c01-CUDA-11.7.0/g16/l801.exe)
 DoSCS=F DFT=T ScalE2(SS,OS)=  1.000000  1.000000
 Range of M.O.s used for correlation:     1   231
 NBasis=   231 NAE=    28 NBE=    28 NFC=     0 NFV=     0
 NROrb=    231 NOA=    28 NOB=    28 NVA=   203 NVB=   203

 **** Warning!!: The largest alpha MO coefficient is  0.10420645D+02

 Leave Link  801 at Sun May 25 04:26:06 2025, MaxMem=  3758096384 cpu:               0.0 elap:               0.0
 (Enter /apps/easybuild-2022/easybuild/software/Compiler/NVHPC/22.11-CUDA-11.7.0/Gaussian/g16c01-CUDA-11.7.0/g16/l1101.exe)
 Using compressed storage, NAtomX=     8.
 Will process      9 centers per pass.
   1 Symmetry operations used in ECPInt.
 ECPInt:  NShTT=    3486 NPrTT=   11183 LenC2=    3344 LenP2D=    8463.
 LDataN:  DoStor=T MaxTD1= 7 Len=  274
 Leave Link 1101 at Sun May 25 04:26:06 2025, MaxMem=  3758096384 cpu:               0.7 elap:               0.1
 (Enter /apps/easybuild-2022/easybuild/software/Compiler/NVHPC/22.11-CUDA-11.7.0/Gaussian/g16c01-CUDA-11.7.0/g16/l1102.exe)
 Symmetrizing basis deriv contribution to polar:
 IMax=3 JMax=2 DiffMx= 0.00D+00
 Leave Link 1102 at Sun May 25 04:26:06 2025, MaxMem=  3758096384 cpu:               0.1 elap:               0.0
 (Enter /apps/easybuild-2022/easybuild/software/Compiler/NVHPC/22.11-CUDA-11.7.0/Gaussian/g16c01-CUDA-11.7.0/g16/l1110.exe)
 Forming Gx(P) for the SCF density, NAtomX=     8.
 Integral derivatives from FoFJK, PRISM(SPDF).
 Do as many integral derivatives as possible in FoFJK.
 G2DrvN: MDV=    3758095424.
 G2DrvN: will do     9 centers at a time, making    1 passes.
 Calling FoFCou, ICntrl=  3107 FMM=F I1Cent=   0 AccDes= 0.00D+00.
 FoFJK:  IHMeth= 1 ICntrl=    3107 DoSepK=F KAlg= 0 I1Cent=           0 FoldK=F
 IRaf=         0 NMat=       1 IRICut=       1 DoRegI=T DoRafI=F ISym2E= 0 IDoP0=0 IntGTp=1.
 FoFCou: FMM=F IPFlag=           0 FMFlag=      100000 FMFlg1=           0
         NFxFlg=           0 DoJE=F BraDBF=F KetDBF=F FulRan=T
         wScrn=  0.000000 ICntrl=      3107 IOpCl=  0 I1Cent=           0 NGrid=           0
         NMat0=    1 NMatS0=      1 NMatT0=    0 NMatD0=    1 NMtDS0=    0 NMtDT0=    0
 Symmetry not used in FoFCou.
 End of G2Drv F.D. properties file   721 does not exist.
 End of G2Drv F.D. properties file   722 does not exist.
 End of G2Drv F.D. properties file   788 does not exist.
 Leave Link 1110 at Sun May 25 04:26:19 2025, MaxMem=  3758096384 cpu:             103.8 elap:              13.1
 (Enter /apps/easybuild-2022/easybuild/software/Compiler/NVHPC/22.11-CUDA-11.7.0/Gaussian/g16c01-CUDA-11.7.0/g16/l1002.exe)
 Minotr:  Closed shell wavefunction.
          IDoAtm=11111111
          Direct CPHF calculation.
          Differentiating once with respect to nuclear coordinates.
          Requested convergence is 1.0D-08 RMS, and 1.0D-07 maximum.
          Secondary convergence is 1.0D-12 RMS, and 1.0D-12 maximum.
          NewPWx=T KeepS1=F KeepF1=F KeepIn=T MapXYZ=F SortEE=F KeepMc=T.
         2399 words used for storage of precomputed grid.
 Keep R1 ints in memory in canonical form, NReq=368655247.
 FoFCou: FMM=F IPFlag=           0 FMFlag=           0 FMFlg1=           0
         NFxFlg=           0 DoJE=F BraDBF=F KetDBF=F FulRan=T
         wScrn=  0.000000 ICntrl=       600 IOpCl=  0 I1Cent=           0 NGrid=           0
         NMat0=    1 NMatS0=  26796 NMatT0=    0 NMatD0=    1 NMtDS0=    0 NMtDT0=    0
 Symmetry not used in FoFCou.
 Two-electron integral symmetry not used.
          MDV=    3758096384 using IRadAn=       1.
          Solving linear equations simultaneously, MaxMat=       0.
          There are    27 degrees of freedom in the 1st order CPHF.  IDoFFX=6 NUNeed=     0.
     21 vectors produced by pass  0 Test12= 2.11D-14 3.70D-09 XBig12= 1.17D-01 2.20D-01.
 AX will form    21 AO Fock derivatives at one time.
     21 vectors produced by pass  1 Test12= 2.11D-14 3.70D-09 XBig12= 1.52D-02 4.01D-02.
     21 vectors produced by pass  2 Test12= 2.11D-14 3.70D-09 XBig12= 7.03D-04 4.62D-03.
     21 vectors produced by pass  3 Test12= 2.11D-14 3.70D-09 XBig12= 1.68D-05 8.21D-04.
     21 vectors produced by pass  4 Test12= 2.11D-14 3.70D-09 XBig12= 2.89D-07 9.37D-05.
     21 vectors produced by pass  5 Test12= 2.11D-14 3.70D-09 XBig12= 3.35D-09 9.22D-06.
     21 vectors produced by pass  6 Test12= 2.11D-14 3.70D-09 XBig12= 2.44D-11 6.95D-07.
      9 vectors produced by pass  7 Test12= 2.11D-14 3.70D-09 XBig12= 1.01D-13 3.74D-08.
      1 vectors produced by pass  8 Test12= 2.11D-14 3.70D-09 XBig12= 6.55D-16 3.80D-09.
 InvSVY:  IOpt=1 It=  1 EMax= 1.33D-15
 Solved reduced A of dimension   157 with    21 vectors.
 End of Minotr F.D. properties file   721 does not exist.
 End of Minotr F.D. properties file   722 does not exist.
 End of Minotr F.D. properties file   788 does not exist.
 Leave Link 1002 at Sun May 25 04:26:37 2025, MaxMem=  3758096384 cpu:             135.4 elap:              17.5
 (Enter /apps/easybuild-2022/easybuild/software/Compiler/NVHPC/22.11-CUDA-11.7.0/Gaussian/g16c01-CUDA-11.7.0/g16/l701.exe)
 ... and contract with generalized density number  0.
 Compute integral second derivatives.
   1 Symmetry operations used in ECPInt.
 ECPInt:  NShTT=    3486 NPrTT=   11183 LenC2=    3344 LenP2D=    8463.
 LDataN:  DoStor=T MaxTD1= 8 Len=  415
 Leave Link  701 at Sun May 25 04:26:37 2025, MaxMem=  3758096384 cpu:               0.6 elap:               0.1
 (Enter /apps/easybuild-2022/easybuild/software/Compiler/NVHPC/22.11-CUDA-11.7.0/Gaussian/g16c01-CUDA-11.7.0/g16/l702.exe)
 L702 exits ... SP integral derivatives will be done elsewhere.
 Leave Link  702 at Sun May 25 04:26:37 2025, MaxMem=  3758096384 cpu:               0.0 elap:               0.0
 (Enter /apps/easybuild-2022/easybuild/software/Compiler/NVHPC/22.11-CUDA-11.7.0/Gaussian/g16c01-CUDA-11.7.0/g16/l703.exe)
 Integral derivatives from FoFJK, PRISM(SPDF).
 Compute integral second derivatives, UseDBF=F ICtDFT=           0.
 Calling FoFJK, ICntrl=    100127 FMM=F ISym2X=0 I1Cent= 0 IOpClX= 0 NMat=1 NMatS=1 NMatT=0.
 FoFJK:  IHMeth= 1 ICntrl=  100127 DoSepK=F KAlg= 0 I1Cent=           0 FoldK=F
 IRaf=         0 NMat=       1 IRICut=       1 DoRegI=T DoRafI=F ISym2E= 0 IDoP0=0 IntGTp=1.
 FoFCou: FMM=F IPFlag=           0 FMFlag=      100000 FMFlg1=         800
         NFxFlg=           0 DoJE=F BraDBF=F KetDBF=F FulRan=T
         wScrn=  0.000000 ICntrl=    100127 IOpCl=  0 I1Cent=           0 NGrid=           0
         NMat0=    1 NMatS0=      1 NMatT0=    0 NMatD0=    1 NMtDS0=    0 NMtDT0=    0
 Symmetry not used in FoFCou.
 Leave Link  703 at Sun May 25 04:27:14 2025, MaxMem=  3758096384 cpu:             290.0 elap:              36.6
 (Enter /apps/easybuild-2022/easybuild/software/Compiler/NVHPC/22.11-CUDA-11.7.0/Gaussian/g16c01-CUDA-11.7.0/g16/l716.exe)
 Dipole        = 4.42450260D-01 6.79345415D-01 5.07958486D-01
 Polarizability= 0.00000000D+00 0.00000000D+00 0.00000000D+00
                 0.00000000D+00 0.00000000D+00 0.00000000D+00
 -------------------------------------------------------------------
 Center     Atomic                   Forces (Hartrees/Bohr)
 Number     Number              X              Y              Z
 -------------------------------------------------------------------
      1        6          -0.007011807   -0.032131719    0.015471945
      2        8           0.009788096    0.008130885   -0.008849861
      3        6           0.001696578    0.001424993   -0.003348557
      4        9          -0.000186247   -0.000511565    0.000983480
      5        9           0.000284325   -0.000504406    0.000535003
      6        9          -0.000167243   -0.001208019   -0.000547158
      7        8          -0.010235148    0.034727195    0.014358824
      8        1           0.005831448   -0.009927365   -0.018603676
 -------------------------------------------------------------------
 Cartesian Forces:  Max     0.034727195 RMS     0.012207567
 Force constants in Cartesian coordinates: 
                1             2             3             4             5 
      1  0.348363D+00
      2  0.348881D-01  0.594795D+00
      3  0.168073D-01 -0.649691D-02 -0.192214D-02
      4 -0.239602D+00  0.837490D-01 -0.613559D-02  0.448677D+00
      5  0.846048D-01 -0.945607D-01  0.605356D-02  0.947069D-01  0.438726D+00
      6  0.143079D-02  0.111099D-01  0.203180D-01  0.849329D-03  0.118875D-02
      7 -0.383976D-01 -0.543533D-01 -0.274155D-03 -0.104549D+00 -0.294547D-01
      8 -0.867485D-01 -0.233754D-01 -0.288998D-03  0.404021D-02 -0.207590D+00
      9  0.311624D-03 -0.151782D-02 -0.211582D-01  0.152290D-02 -0.315267D-04
     10 -0.260604D-02 -0.562438D-03  0.304958D-02  0.141087D-01 -0.116512D-01
     11  0.194012D-01  0.104636D-02  0.366458D-02 -0.197239D-01 -0.520921D-01
     12 -0.118327D-01 -0.461253D-03  0.154301D-02  0.111016D-01  0.317025D-01
     13  0.159790D-01 -0.283219D-03 -0.628237D-03 -0.785766D-01 -0.244896D-01
     14  0.880899D-02 -0.710348D-03 -0.535532D-03 -0.612354D-01 -0.318000D-02
     15 -0.356572D-03 -0.116660D-03  0.223259D-02  0.489579D-03 -0.157887D-04
     16 -0.285768D-02 -0.684741D-03 -0.320671D-02  0.145913D-01 -0.115220D-01
     17  0.188280D-01  0.105684D-02 -0.287195D-02 -0.175223D-01 -0.520455D-01
     18  0.114713D-01  0.836171D-03  0.167578D-02 -0.101667D-01 -0.316618D-01
     19 -0.616003D-01 -0.523140D-01  0.285866D-02 -0.585060D-01 -0.992040D-01
     20 -0.518960D-01 -0.467353D+00  0.126468D-01 -0.878138D-01 -0.250847D-01
     21 -0.189634D-01 -0.134625D-01 -0.380492D-02 -0.560482D-02 -0.105844D-01
     22 -0.192778D-01 -0.104394D-01 -0.124708D-01  0.385767D-02 -0.299020D-02
     23 -0.278866D-01 -0.108983D-01 -0.121715D-01  0.379923D-02 -0.417341D-02
     24  0.113168D-02  0.101090D-01  0.111586D-02  0.794369D-02  0.334867D-02
                6             7             8             9            10 
      6  0.828849D-01
      7  0.365055D-02  0.641087D+00
      8  0.166687D-02 -0.174521D-01  0.581517D+00
      9 -0.785144D-01 -0.727498D-03  0.917877D-03  0.622660D+00
     10  0.895891D-02 -0.959437D-01  0.267118D-01 -0.443181D-01  0.110505D+00
     11  0.463909D-01  0.275363D-01 -0.145180D+00  0.977534D-01 -0.501726D-01
     12 -0.846980D-02 -0.422630D-01  0.954228D-01 -0.227838D+00  0.783620D-01
     13  0.125261D-02 -0.301974D+00  0.298088D-01 -0.402638D-03 -0.428685D-01
     14  0.984310D-03  0.322155D-01 -0.847676D-01 -0.202014D-03  0.386768D-01
     15  0.132606D-01 -0.751412D-04 -0.108554D-03 -0.827122D-01 -0.497042D-01
     16 -0.896641D-02 -0.960950D-01  0.268431D-01  0.444543D-01  0.159424D-01
     17 -0.482717D-01  0.270514D-01 -0.146725D+00 -0.978295D-01 -0.118395D-02
     18 -0.886558D-02  0.419943D-01 -0.963415D-01 -0.227118D+00  0.402677D-02
     19 -0.991894D-02 -0.915344D-03  0.215107D-01 -0.136290D-02  0.693180D-03
     20 -0.527354D-02  0.171517D-01  0.272605D-01 -0.745202D-03 -0.210947D-02
     21 -0.171278D-01 -0.183530D-02  0.477142D-03  0.133877D-01 -0.479316D-03
     22  0.274316D-02 -0.321220D-02 -0.471389D-02  0.522317D-03  0.169416D-03
     23 -0.779549D-02 -0.269481D-02 -0.113915D-02  0.165475D-02  0.291158D-03
     24 -0.348596D-02 -0.469790D-03 -0.174564D-02  0.129312D-02  0.104405D-03
               11            12            13            14            15 
     11  0.184735D+00
     12 -0.158497D+00  0.333706D+00
     13  0.283799D-01 -0.342912D-01  0.455438D+00
     14 -0.224660D-02  0.199700D-01 -0.543579D-01  0.961419D-01
     15  0.215923D-01 -0.877426D-02 -0.551097D-04 -0.301763D-03  0.851435D-01
     16 -0.122636D-02 -0.388145D-02 -0.428956D-01  0.388753D-01  0.494704D-01
     17  0.186026D-01  0.942575D-02  0.283448D-01 -0.233301D-02 -0.213011D-01
     18 -0.952852D-02 -0.895458D-01  0.342870D-01 -0.197960D-01 -0.849048D-02
     19 -0.483896D-02  0.299054D-02 -0.534339D-02 -0.307074D-02  0.301243D-03
     20 -0.513968D-02  0.270878D-02 -0.795946D-02 -0.290735D-02  0.260523D-03
     21 -0.190401D-02  0.615757D-04 -0.132128D-02 -0.709505D-03 -0.578730D-03
     22  0.644307D-03 -0.185748D-03  0.240791D-03  0.875236D-04 -0.701733D-04
     23  0.274268D-03 -0.271959D-03  0.556717D-03  0.302916D-05 -0.895951D-05
     24  0.528093D-03 -0.682887D-03  0.115885D-02  0.590490D-03 -0.809892D-04
               16            17            18            19            20 
     16  0.110318D+00
     17 -0.508360D-01  0.186096D+00
     18 -0.786528D-01  0.158979D+00  0.332798D+00
     19  0.882749D-03 -0.593737D-02 -0.358053D-02  0.266621D+00
     20 -0.191919D-02 -0.501185D-02 -0.244428D-02  0.198787D+00  0.530465D+00
     21  0.513912D-03  0.148925D-02 -0.443450D-03  0.235822D+00  0.945725D-01
     22  0.114077D-03  0.125539D-02  0.620686D-03 -0.141832D+00 -0.642408D-01
     23  0.469893D-03  0.359739D-03 -0.431661D-04 -0.549326D-01 -0.522280D-01
     24  0.268806D-03  0.380039D-03 -0.105659D-04 -0.227110D+00 -0.101726D+00
               21            22            23            24 
     21  0.306366D+00
     22 -0.208132D+00  0.159940D+00
     23 -0.698785D-01  0.803970D-01  0.678018D-01
     24 -0.297861D+00  0.216972D+00  0.885149D-01  0.299712D+00
 FormGI is forming the generalized inverse of G from B-inverse, IUseBI=4.
 Force constants in internal coordinates: 
                1             2             3             4             5 
      1  0.329536D+00
      2  0.944067D-01  0.552325D+00
      3  0.465047D-01 -0.138133D-01  0.398700D+00
      4 -0.157419D-01  0.522647D-02  0.511073D-01  0.459147D+00
      5 -0.989851D-02  0.791425D-02  0.529677D-01  0.570022D-01  0.463472D+00
      6 -0.148075D-01  0.535281D-02  0.504401D-01  0.560592D-01  0.569821D-01
      7 -0.841235D-02  0.441069D-02  0.206384D-02 -0.960547D-03 -0.110338D-02
      8  0.924652D-01  0.969489D-01  0.708214D-02  0.831747D-02  0.648406D-02
      9  0.491352D-01  0.111724D-01  0.692854D-01 -0.624599D-03  0.116741D-01
     10 -0.891696D-02  0.514829D-02  0.407190D-01  0.261663D-01 -0.365604D-01
     11 -0.110091D-01  0.633396D-02  0.502086D-01 -0.376992D-01  0.322418D-01
     12 -0.728094D-02  0.472754D-02  0.392768D-01 -0.402656D-01 -0.366686D-01
     13  0.753873D-02 -0.600153D-02 -0.446471D-01  0.341792D-01  0.297801D-01
     14  0.126761D-01 -0.510516D-02 -0.436659D-01  0.326233D-01 -0.147815D-01
     15  0.717494D-02 -0.536887D-02 -0.438843D-01 -0.156942D-01  0.298776D-01
     16  0.123971D-02  0.506631D-01  0.243782D-02 -0.507306D-04 -0.317219D-03
     17 -0.117045D-02  0.178086D-02  0.232069D-02  0.334068D-03  0.658094D-03
     18  0.703080D-02  0.331689D-01  0.486047D-02  0.166650D-03  0.799118D-03
     19  0.267522D-02  0.244395D-03  0.228399D-03 -0.423719D-03 -0.356807D-01
     20  0.194245D-04 -0.235543D-03 -0.786148D-04  0.325115D-01 -0.264692D-03
     21 -0.216291D-02 -0.181889D-03 -0.247345D-03 -0.324235D-01  0.352182D-01
                6             7             8             9            10 
      6  0.459618D+00
      7 -0.730031D-03  0.490463D+00
      8  0.871585D-02  0.472395D-02  0.517215D+00
      9 -0.182990D-02 -0.284214D-04  0.345131D-01  0.253057D+00
     10 -0.402683D-01 -0.464339D-03 -0.855153D-03  0.122083D-01  0.254742D+00
     11 -0.376827D-01 -0.750170D-03  0.115955D-01  0.378253D-02 -0.267556D-01
     12  0.266859D-01 -0.148344D-02  0.179903D-02  0.869526D-02 -0.276508D-01
     13 -0.156417D-01  0.101926D-02 -0.325768D-02 -0.119434D-01 -0.800374D-01
     14  0.323114D-01  0.815433D-03 -0.619029D-02 -0.243246D-02 -0.875183D-01
     15  0.338804D-01  0.919268D-03 -0.294877D-02 -0.112265D-01 -0.378707D-01
     16 -0.137439D-03  0.290126D-01  0.238798D-01  0.383618D-02 -0.736800D-03
     17 -0.945531D-03  0.186314D-02 -0.594935D-02  0.314113D-02  0.954703D-02
     18 -0.147704D-02  0.424113D-02  0.183849D-01  0.408957D-02 -0.643640D-03
     19  0.325834D-01 -0.347458D-03 -0.341076D-02  0.596686D-02  0.128991D-01
     20 -0.322469D-01  0.165205D-03 -0.697904D-03  0.680013D-03  0.426204D-01
     21  0.627775D-03 -0.170858D-04  0.388715D-02 -0.571133D-02 -0.353660D-01
               11            12            13            14            15 
     11  0.267778D+00
     12 -0.267512D-01  0.254361D+00
     13 -0.880402D-01 -0.376210D-01  0.180989D+00
     14 -0.380812D-01 -0.877421D-01  0.158325D-01  0.179551D+00
     15 -0.876505D-01 -0.796870D-01  0.150130D-01  0.160133D-01  0.180272D+00
     16  0.127182D-02 -0.156780D-02  0.321033D-03  0.276794D-03  0.507787D-03
     17  0.311290D-03 -0.101912D-01  0.232674D-03  0.239397D-03 -0.126533D-03
     18  0.106941D-02 -0.998018D-03 -0.162156D-03  0.818767D-03 -0.731954D-04
     19 -0.443978D-01  0.361064D-01 -0.615237D-01  0.533062D-01 -0.128050D-02
     20 -0.122382D-02 -0.415459D-01  0.586960D-01 -0.175442D-03 -0.583753D-01
     21  0.425144D-01 -0.115623D-01  0.145482D-02 -0.536038D-01  0.613883D-01
               16            17            18            19            20 
     16  0.106663D+00
     17  0.447456D-02  0.491515D-01
     18  0.213816D-01  0.165169D-03 -0.256166D-01
     19 -0.583838D-03 -0.240241D-02 -0.163700D-03  0.672761D-01
     20  0.174677D-03  0.344057D-02 -0.634309D-04 -0.274293D-01  0.669622D-01
     21  0.692503D-03 -0.225545D-02 -0.544366D-04 -0.360391D-01 -0.279704D-01
               21 
     21  0.661908D-01
 Leave Link  716 at Sun May 25 04:27:14 2025, MaxMem=  3758096384 cpu:               0.0 elap:               0.0
 (Enter /apps/easybuild-2022/easybuild/software/Compiler/NVHPC/22.11-CUDA-11.7.0/Gaussian/g16c01-CUDA-11.7.0/g16/l103.exe)

 GradGradGradGradGradGradGradGradGradGradGradGradGradGradGradGradGradGrad
 Berny optimization.
 Red2BG is reusing G-inverse.
 Internal  Forces:  Max     0.028140928 RMS     0.009520722
 Search for a local minimum.
 Step number   1 out of a maximum of   31
 All quantities printed in internal units (Hartrees-Bohrs-Radians)
 RMS Force = .95207D-02 SwitMx=.10000D-02 MixMth= 1
 Mixed Optimization -- RFO/linear search
 Second derivative matrix not updated -- analytic derivatives used.
 ITU=  0
     Eigenvalues ---   -0.03041   0.00489   0.04780   0.09984   0.19299
     Eigenvalues ---    0.20352   0.21565   0.22276   0.28273   0.29283
     Eigenvalues ---    0.34442   0.43884   0.45861   0.46177   0.49302
     Eigenvalues ---    0.52907   0.61523   0.69830
 Eigenvalue     1 is  -3.04D-02 should be greater than     0.000000 Eigenvector:
                          D2        A9        R2        A1        R3
   1                   -0.98955   0.13524   0.04180   0.01963   0.01312
                          D1        A2        R6        A7        A5
   1                   -0.00584   0.00572  -0.00549   0.00534  -0.00398
 RFO step:  Lambda=-4.76377111D-02 EMin=-3.04062526D-02
 Linear search not attempted -- first point.
 Iteration  1 RMS(Cart)=  0.06296187 RMS(Int)=  0.15681170
 Iteration  2 RMS(Cart)=  0.05924161 RMS(Int)=  0.11316492
 Iteration  3 RMS(Cart)=  0.05840100 RMS(Int)=  0.06962571
 Iteration  4 RMS(Cart)=  0.05796783 RMS(Int)=  0.02643928
 Iteration  5 RMS(Cart)=  0.03439249 RMS(Int)=  0.00218224
 Iteration  6 RMS(Cart)=  0.00192607 RMS(Int)=  0.00000290
 Iteration  7 RMS(Cart)=  0.00000378 RMS(Int)=  0.00000122
 Iteration  8 RMS(Cart)=  0.00000000 RMS(Int)=  0.00000122
 ITry= 1 IFail=0 DXMaxC= 6.81D-01 DCOld= 1.00D+10 DXMaxT= 3.00D-01 DXLimC= 3.00D+00 Rises=F
 Variable       Old X    -DE/DX   Delta X   Delta X   Delta X     New X
                                 (Linear)    (Quad)   (Total)
    R1        2.56444  -0.01141   0.00000  -0.03738  -0.03738   2.52705
    R2        2.44141   0.02257   0.00000   0.01338   0.01338   2.45478
    R3        2.60463   0.00002   0.00000  -0.00267  -0.00267   2.60196
    R4        2.49271   0.00102   0.00000   0.00196   0.00196   2.49467
    R5        2.49352  -0.00036   0.00000  -0.00230  -0.00230   2.49122
    R6        2.49268   0.00104   0.00000   0.00397   0.00397   2.49665
    R7        1.84637  -0.01406   0.00000  -0.02603  -0.02603   1.82035
    A1        1.85483  -0.01451   0.00000  -0.04464  -0.04464   1.81019
    A2        2.01305  -0.00430   0.00000  -0.01303  -0.01303   2.00002
    A3        1.94499  -0.00029   0.00000   0.00046   0.00045   1.94544
    A4        1.86360   0.00042   0.00000  -0.00017  -0.00017   1.86343
    A5        1.94520   0.00169   0.00000   0.00455   0.00455   1.94974
    A6        1.90347  -0.00106   0.00000  -0.00194  -0.00194   1.90153
    A7        1.90201  -0.00045   0.00000  -0.00303  -0.00303   1.89898
    A8        1.90357  -0.00036   0.00000   0.00008   0.00008   1.90365
    A9        1.97274  -0.00481   0.00000  -0.13700  -0.13700   1.83573
    D1       -3.14138  -0.00381   0.00000  -0.03716  -0.03716   3.10464
    D2        2.09440   0.02814   0.00000   0.90667   0.90667   3.00106
    D3        1.06556   0.00048   0.00000   0.00117   0.00117   1.06673
    D4       -3.14066  -0.00070   0.00000  -0.00103  -0.00103   3.14149
    D5       -1.06345   0.00007   0.00000   0.00152   0.00152  -1.06193
         Item               Value     Threshold  Converged?
 Maximum Force            0.028141     0.000450     NO 
 RMS     Force            0.009521     0.000300     NO 
 Maximum Displacement     0.681454     0.001800     NO 
 RMS     Displacement     0.248835     0.001200     NO 
 Predicted change in Energy=-3.975999D-02
 Lowest energy point so far.  Saving SCF results.
 GradGradGradGradGradGradGradGradGradGradGradGradGradGradGradGradGradGrad

 Leave Link  103 at Sun May 25 04:27:14 2025, MaxMem=  3758096384 cpu:               0.0 elap:               0.0
 (Enter /apps/easybuild-2022/easybuild/software/Compiler/NVHPC/22.11-CUDA-11.7.0/Gaussian/g16c01-CUDA-11.7.0/g16/l202.exe)
                          Input orientation:                          
 ---------------------------------------------------------------------
 Center     Atomic      Atomic             Coordinates (Angstroms)
 Number     Number       Type             X           Y           Z
 ---------------------------------------------------------------------
      1          6           0        1.280358    0.049611    0.193100
      2          8           0       -0.051141    0.017938    0.073231
      3          6           0       -0.589335   -1.246885   -0.006917
      4          9           0       -0.330331   -1.951789    1.078786
      5          9           0       -1.894377   -1.098421   -0.119730
      6          9           0       -0.137098   -1.904674   -1.059672
      7          8           0        1.558611    1.318435    0.203278
      8          1           0        2.496255    1.369325    0.418111
 ---------------------------------------------------------------------
                    Distance matrix (angstroms):
                    1          2          3          4          5
     1  C    0.000000
     2  O    1.337259   0.000000
     3  C    2.284002   1.376900   0.000000
     4  F    2.717418   2.229106   1.320123   0.000000
     5  F    3.390396   2.163564   1.318296   2.147305   0.000000
     6  F    2.719899   2.233225   1.321173   2.147688   2.149783
     7  O    1.299016   2.073525   3.352421   3.876723   4.227133
     8  H    1.808502   2.904207   4.067687   4.410882   5.065244
                    6          7          8
     6  F    0.000000
     7  O    3.854725   0.000000
     8  H    4.453927   0.963286   0.000000
 Symmetry turned off by external request.
 Stoichiometry    C2HF3O2
 Rotational constants (GHZ):           5.4908069           1.7825939           1.7555331
 Leave Link  202 at Sun May 25 04:27:14 2025, MaxMem=  3758096384 cpu:               0.0 elap:               0.0
 (Enter /apps/easybuild-2022/easybuild/software/Compiler/NVHPC/22.11-CUDA-11.7.0/Gaussian/g16c01-CUDA-11.7.0/g16/l301.exe)
 Standard basis: def2TZVPP (5D, 7F)
 Ernie: Thresh=  0.10000D-02 Tol=  0.10000D-05 Strict=F.
   231 basis functions,   374 primitive gaussians,   267 cartesian basis functions
    28 alpha electrons       28 beta electrons
       nuclear repulsion energy       335.4727352580 Hartrees.
 IExCor= 4336 DFT=T Ex+Corr=M062X ExCW=0 ScaHFX=  0.540000
 ScaDFX=  1.000000  1.000000  1.000000  1.000000 ScalE2=  1.000000  1.000000
 IRadAn=      5 IRanWt=     -1 IRanGd=            0 ICorTp=0 IEmpDi=  4
 NAtoms=    8 NActive=    8 NUniq=    8 SFac= 1.00D+00 NAtFMM=   60 NAOKFM=F Big=F
 Integral buffers will be    131072 words long.
 Raffenetti 2 integral format.
 Two-electron integral symmetry is turned off.
 Leave Link  301 at Sun May 25 04:27:14 2025, MaxMem=  3758096384 cpu:               0.0 elap:               0.0
 (Enter /apps/easybuild-2022/easybuild/software/Compiler/NVHPC/22.11-CUDA-11.7.0/Gaussian/g16c01-CUDA-11.7.0/g16/l302.exe)
 NPDir=0 NMtPBC=     1 NCelOv=     1 NCel=       1 NClECP=     1 NCelD=      1
         NCelK=      1 NCelE2=     1 NClLst=     1 CellRange=     0.0.
 One-electron integrals computed using PRISM.
   1 Symmetry operations used in ECPInt.
 ECPInt:  NShTT=    3486 NPrTT=   11183 LenC2=    3342 LenP2D=    8476.
 LDataN:  DoStor=T MaxTD1= 6 Len=  172
 NBasis=   231 RedAO= T EigKep=  1.04D-03  NBF=   231
 NBsUse=   231 1.00D-06 EigRej= -1.00D+00 NBFU=   231
 Precomputing XC quadrature grid using
 IXCGrd= 4 IRadAn=           5 IRanWt=          -1 IRanGd=           0 AccXCQ= 0.00D+00.
 Generated NRdTot=       0 NPtTot=           0 NUsed=           0 NTot=          32
 NSgBfM=   265   265   265   265   265 MxSgAt=     8 MxSgA2=     8.
 Leave Link  302 at Sun May 25 04:27:14 2025, MaxMem=  3758096384 cpu:               0.5 elap:               0.1
 (Enter /apps/easybuild-2022/easybuild/software/Compiler/NVHPC/22.11-CUDA-11.7.0/Gaussian/g16c01-CUDA-11.7.0/g16/l303.exe)
 DipDrv:  MaxL=1.
 Leave Link  303 at Sun May 25 04:27:14 2025, MaxMem=  3758096384 cpu:               0.1 elap:               0.0
 (Enter /apps/easybuild-2022/easybuild/software/Compiler/NVHPC/22.11-CUDA-11.7.0/Gaussian/g16c01-CUDA-11.7.0/g16/l401.exe)
 Initial guess from the checkpoint file:  "/tmp/Gau-126371.chk"
 B after Tr=    -0.094800    0.022706    0.084637
         Rot=    0.999225   -0.005300    0.035049   -0.017086 Ang=  -4.51 deg.
 Guess basis will be translated and rotated to current coordinates.
 JPrj=2 DoOrth=T DoCkMO=T.
 Generating alternative initial guess.
 ExpMin= 9.52D-02 ExpMax= 3.55D+04 ExpMxC= 1.21D+03 IAcc=3 IRadAn=         5 AccDes= 0.00D+00
 Harris functional with IExCor= 1009 and IRadAn=       5 diagonalized for initial guess.
 HarFok:  IExCor= 1009 AccDes= 0.00D+00 IRadAn=         5 IDoV= 1 UseB2=F ITyADJ=14
 ICtDFT=  3500011 ScaDFX=  1.000000  1.000000  1.000000  1.000000
 FoFCou: FMM=F IPFlag=           0 FMFlag=      100000 FMFlg1=           0
         NFxFlg=           0 DoJE=T BraDBF=F KetDBF=T FulRan=T
         wScrn=  0.000000 ICntrl=       500 IOpCl=  0 I1Cent=   200000004 NGrid=           0
         NMat0=    1 NMatS0=      1 NMatT0=    0 NMatD0=    1 NMtDS0=    0 NMtDT0=    0
 Symmetry not used in FoFCou.
 Harris En= -526.462031611643    
 Leave Link  401 at Sun May 25 04:27:14 2025, MaxMem=  3758096384 cpu:               2.1 elap:               0.3
 (Enter /apps/easybuild-2022/easybuild/software/Compiler/NVHPC/22.11-CUDA-11.7.0/Gaussian/g16c01-CUDA-11.7.0/g16/l502.exe)
 Keep R1 ints in memory in canonical form, NReq=368651279.
 FoFCou: FMM=F IPFlag=           0 FMFlag=           0 FMFlg1=           0
         NFxFlg=           0 DoJE=F BraDBF=F KetDBF=F FulRan=T
         wScrn=  0.000000 ICntrl=       600 IOpCl=  0 I1Cent=           0 NGrid=           0
         NMat0=    1 NMatS0=  26796 NMatT0=    0 NMatD0=    1 NMtDS0=    0 NMtDT0=    0
 Symmetry not used in FoFCou.
 Two-electron integral symmetry not used.
 Closed shell SCF:
 Using DIIS extrapolation, IDIIS=  1040.
 NGot=  3758096384 LenX=  3398923531 LenY=  3398851801
 Requested convergence on RMS density matrix=1.00D-08 within  32 cycles.
 Requested convergence on MAX density matrix=1.00D-06.
 Requested convergence on             energy=1.00D-06.
 No special actions if energy rises.
 Integral accuracy reduced to 1.0D-05 until final iterations.

 Cycle   1  Pass 0  IDiag  1:
 E= -526.694199860345    
 DIIS: error= 1.94D-02 at cycle   1 NSaved=   1.
 NSaved= 1 IEnMin= 1 EnMin= -526.694199860345     IErMin= 1 ErrMin= 1.94D-02
 ErrMax= 1.94D-02  0.00D+00 EMaxC= 1.00D-01 BMatC= 8.32D-02 BMatP= 8.32D-02
 IDIUse=3 WtCom= 8.06D-01 WtEn= 1.94D-01
 Coeff-Com:  0.100D+01
 Coeff-En:   0.100D+01
 Coeff:      0.100D+01
 Recover alternate guess density for next cycle.
 RMSDP=1.91D-03 MaxDP=7.67D-02              OVMax= 0.00D+00

 Cycle   2  Pass 0  IDiag  1:
 E= -526.679629389923     Delta-E=        0.014570470422 Rises=F Damp=F
 Switch densities from cycles 1 and 2 for lowest energy.
 DIIS: error= 2.40D-02 at cycle   2 NSaved=   2.
 NSaved= 2 IEnMin= 1 EnMin= -526.694199860345     IErMin= 1 ErrMin= 1.94D-02
 ErrMax= 2.40D-02  0.00D+00 EMaxC= 1.00D+00 BMatC= 2.30D-01 BMatP= 8.32D-02
 IDIUse=1 WtCom= 1.00D+00 WtEn= 0.00D+00
 Coeff-Com:  0.758D+00 0.242D+00
 Coeff:      0.758D+00 0.242D+00
 Gap=     0.338 Goal=   None    Shift=    0.000
 RMSDP=1.32D-03 MaxDP=6.10D-02 DE= 1.46D-02 OVMax= 6.66D-02

 Cycle   3  Pass 0  IDiag  1:
 E= -526.774015758397     Delta-E=       -0.094386368474 Rises=F Damp=F
 DIIS: error= 6.97D-03 at cycle   3 NSaved=   3.
 NSaved= 3 IEnMin= 3 EnMin= -526.774015758397     IErMin= 3 ErrMin= 6.97D-03
 ErrMax= 6.97D-03  0.00D+00 EMaxC= 1.00D+00 BMatC= 2.00D-02 BMatP= 8.32D-02
 IDIUse=1 WtCom= 1.00D+00 WtEn= 0.00D+00
 Coeff-Com:  0.519D-01 0.187D+00 0.761D+00
 Coeff:      0.519D-01 0.187D+00 0.761D+00
 Gap=     0.332 Goal=   None    Shift=    0.000
 RMSDP=3.75D-04 MaxDP=1.67D-02 DE=-9.44D-02 OVMax= 2.63D-02

 Cycle   4  Pass 0  IDiag  1:
 E= -526.785603638232     Delta-E=       -0.011587879834 Rises=F Damp=F
 DIIS: error= 3.25D-03 at cycle   4 NSaved=   4.
 NSaved= 4 IEnMin= 4 EnMin= -526.785603638232     IErMin= 4 ErrMin= 3.25D-03
 ErrMax= 3.25D-03  0.00D+00 EMaxC= 1.00D+00 BMatC= 2.52D-03 BMatP= 2.00D-02
 IDIUse=1 WtCom= 1.00D+00 WtEn= 0.00D+00
 Coeff-Com: -0.303D-01 0.267D-01 0.284D+00 0.719D+00
 Coeff:     -0.303D-01 0.267D-01 0.284D+00 0.719D+00
 Gap=     0.335 Goal=   None    Shift=    0.000
 RMSDP=1.36D-04 MaxDP=7.59D-03 DE=-1.16D-02 OVMax= 1.53D-02

 Cycle   5  Pass 0  IDiag  1:
 E= -526.787106032690     Delta-E=       -0.001502394458 Rises=F Damp=F
 DIIS: error= 1.02D-03 at cycle   5 NSaved=   5.
 NSaved= 5 IEnMin= 5 EnMin= -526.787106032690     IErMin= 5 ErrMin= 1.02D-03
 ErrMax= 1.02D-03  0.00D+00 EMaxC= 1.00D+00 BMatC= 3.99D-04 BMatP= 2.52D-03
 IDIUse=1 WtCom= 1.00D+00 WtEn= 0.00D+00
 Coeff-Com: -0.150D-01-0.455D-02 0.789D-01 0.370D+00 0.570D+00
 Coeff:     -0.150D-01-0.455D-02 0.789D-01 0.370D+00 0.570D+00
 Gap=     0.334 Goal=   None    Shift=    0.000
 RMSDP=4.11D-05 MaxDP=1.68D-03 DE=-1.50D-03 OVMax= 3.40D-03

 Cycle   6  Pass 0  IDiag  1:
 E= -526.787365927551     Delta-E=       -0.000259894862 Rises=F Damp=F
 DIIS: error= 1.43D-04 at cycle   6 NSaved=   6.
 NSaved= 6 IEnMin= 6 EnMin= -526.787365927551     IErMin= 6 ErrMin= 1.43D-04
 ErrMax= 1.43D-04  0.00D+00 EMaxC= 1.00D+00 BMatC= 4.90D-06 BMatP= 3.99D-04
 IDIUse=1 WtCom= 1.00D+00 WtEn= 0.00D+00
 Coeff-Com: -0.974D-03-0.861D-03-0.135D-01-0.558D-02 0.383D-01 0.983D+00
 Coeff:     -0.974D-03-0.861D-03-0.135D-01-0.558D-02 0.383D-01 0.983D+00
 Gap=     0.334 Goal=   None    Shift=    0.000
 RMSDP=1.27D-05 MaxDP=5.68D-04 DE=-2.60D-04 OVMax= 1.56D-03

 Cycle   7  Pass 0  IDiag  1:
 E= -526.787372276330     Delta-E=       -0.000006348779 Rises=F Damp=F
 DIIS: error= 5.87D-05 at cycle   7 NSaved=   7.
 NSaved= 7 IEnMin= 7 EnMin= -526.787372276330     IErMin= 7 ErrMin= 5.87D-05
 ErrMax= 5.87D-05  0.00D+00 EMaxC= 1.00D+00 BMatC= 1.73D-06 BMatP= 4.90D-06
 IDIUse=1 WtCom= 1.00D+00 WtEn= 0.00D+00
 Coeff-Com:  0.422D-03-0.226D-03-0.116D-01-0.253D-01-0.178D-01 0.466D+00
 Coeff-Com:  0.588D+00
 Coeff:      0.422D-03-0.226D-03-0.116D-01-0.253D-01-0.178D-01 0.466D+00
 Coeff:      0.588D+00
 Gap=     0.334 Goal=   None    Shift=    0.000
 RMSDP=3.97D-06 MaxDP=1.58D-04 DE=-6.35D-06 OVMax= 2.97D-04

 Initial convergence to 1.0D-05 achieved.  Increase integral accuracy.
 Cycle   8  Pass 1  IDiag  1:
 E= -526.787394197120     Delta-E=       -0.000021920789 Rises=F Damp=F
 DIIS: error= 2.96D-05 at cycle   1 NSaved=   1.
 NSaved= 1 IEnMin= 1 EnMin= -526.787394197120     IErMin= 1 ErrMin= 2.96D-05
 ErrMax= 2.96D-05  0.00D+00 EMaxC= 1.00D+00 BMatC= 5.00D-07 BMatP= 5.00D-07
 IDIUse=1 WtCom= 1.00D+00 WtEn= 0.00D+00
 Coeff-Com:  0.100D+01
 Coeff:      0.100D+01
 Gap=     0.334 Goal=   None    Shift=    0.000
 RMSDP=3.97D-06 MaxDP=1.58D-04 DE=-2.19D-05 OVMax= 2.50D-04

 Cycle   9  Pass 1  IDiag  1:
 E= -526.787394506107     Delta-E=       -0.000000308988 Rises=F Damp=F
 DIIS: error= 2.04D-05 at cycle   2 NSaved=   2.
 NSaved= 2 IEnMin= 2 EnMin= -526.787394506107     IErMin= 2 ErrMin= 2.04D-05
 ErrMax= 2.04D-05  0.00D+00 EMaxC= 1.00D+00 BMatC= 1.75D-07 BMatP= 5.00D-07
 IDIUse=1 WtCom= 1.00D+00 WtEn= 0.00D+00
 Coeff-Com:  0.311D+00 0.689D+00
 Coeff:      0.311D+00 0.689D+00
 Gap=     0.334 Goal=   None    Shift=    0.000
 RMSDP=1.54D-06 MaxDP=6.25D-05 DE=-3.09D-07 OVMax= 1.04D-04

 Cycle  10  Pass 1  IDiag  1:
 E= -526.787394580854     Delta-E=       -0.000000074746 Rises=F Damp=F
 DIIS: error= 1.31D-05 at cycle   3 NSaved=   3.
 NSaved= 3 IEnMin= 3 EnMin= -526.787394580854     IErMin= 3 ErrMin= 1.31D-05
 ErrMax= 1.31D-05  0.00D+00 EMaxC= 1.00D+00 BMatC= 6.14D-08 BMatP= 1.75D-07
 IDIUse=1 WtCom= 1.00D+00 WtEn= 0.00D+00
 Coeff-Com: -0.382D-01 0.368D+00 0.670D+00
 Coeff:     -0.382D-01 0.368D+00 0.670D+00
 Gap=     0.334 Goal=   None    Shift=    0.000
 RMSDP=7.09D-07 MaxDP=3.04D-05 DE=-7.47D-08 OVMax= 6.83D-05

 Cycle  11  Pass 1  IDiag  1:
 E= -526.787394621941     Delta-E=       -0.000000041087 Rises=F Damp=F
 DIIS: error= 9.35D-07 at cycle   4 NSaved=   4.
 NSaved= 4 IEnMin= 4 EnMin= -526.787394621941     IErMin= 4 ErrMin= 9.35D-07
 ErrMax= 9.35D-07  0.00D+00 EMaxC= 1.00D+00 BMatC= 4.66D-10 BMatP= 6.14D-08
 IDIUse=1 WtCom= 1.00D+00 WtEn= 0.00D+00
 Coeff-Com: -0.107D-01 0.398D-01 0.106D+00 0.865D+00
 Coeff:     -0.107D-01 0.398D-01 0.106D+00 0.865D+00
 Gap=     0.334 Goal=   None    Shift=    0.000
 RMSDP=1.21D-07 MaxDP=3.58D-06 DE=-4.11D-08 OVMax= 1.02D-05

 Cycle  12  Pass 1  IDiag  1:
 E= -526.787394622392     Delta-E=       -0.000000000451 Rises=F Damp=F
 DIIS: error= 9.26D-07 at cycle   5 NSaved=   5.
 NSaved= 5 IEnMin= 5 EnMin= -526.787394622392     IErMin= 5 ErrMin= 9.26D-07
 ErrMax= 9.26D-07  0.00D+00 EMaxC= 1.00D+00 BMatC= 2.25D-10 BMatP= 4.66D-10
 IDIUse=1 WtCom= 1.00D+00 WtEn= 0.00D+00
 Coeff-Com:  0.241D-02-0.554D-01-0.788D-01 0.449D+00 0.683D+00
 Coeff:      0.241D-02-0.554D-01-0.788D-01 0.449D+00 0.683D+00
 Gap=     0.334 Goal=   None    Shift=    0.000
 RMSDP=5.58D-08 MaxDP=2.16D-06 DE=-4.51D-10 OVMax= 7.47D-06

 Cycle  13  Pass 1  IDiag  1:
 E= -526.787394622615     Delta-E=       -0.000000000223 Rises=F Damp=F
 DIIS: error= 1.45D-07 at cycle   6 NSaved=   6.
 NSaved= 6 IEnMin= 6 EnMin= -526.787394622615     IErMin= 6 ErrMin= 1.45D-07
 ErrMax= 1.45D-07  0.00D+00 EMaxC= 1.00D+00 BMatC= 1.00D-11 BMatP= 2.25D-10
 IDIUse=1 WtCom= 1.00D+00 WtEn= 0.00D+00
 Coeff-Com:  0.154D-02-0.160D-01-0.255D-01 0.213D-02 0.163D+00 0.875D+00
 Coeff:      0.154D-02-0.160D-01-0.255D-01 0.213D-02 0.163D+00 0.875D+00
 Gap=     0.334 Goal=   None    Shift=    0.000
 RMSDP=1.64D-08 MaxDP=4.88D-07 DE=-2.23D-10 OVMax= 2.43D-06

 Cycle  14  Pass 1  IDiag  1:
 E= -526.787394622603     Delta-E=        0.000000000012 Rises=F Damp=F
 DIIS: error= 4.77D-08 at cycle   7 NSaved=   7.
 NSaved= 7 IEnMin= 6 EnMin= -526.787394622615     IErMin= 7 ErrMin= 4.77D-08
 ErrMax= 4.77D-08  0.00D+00 EMaxC= 1.00D+00 BMatC= 1.41D-12 BMatP= 1.00D-11
 IDIUse=1 WtCom= 1.00D+00 WtEn= 0.00D+00
 Coeff-Com:  0.335D-03-0.637D-03-0.143D-02-0.417D-01-0.272D-02 0.309D+00
 Coeff-Com:  0.737D+00
 Coeff:      0.335D-03-0.637D-03-0.143D-02-0.417D-01-0.272D-02 0.309D+00
 Coeff:      0.737D+00
 Gap=     0.334 Goal=   None    Shift=    0.000
 RMSDP=5.88D-09 MaxDP=1.73D-07 DE= 1.18D-11 OVMax= 8.47D-07

 SCF Done:  E(RM062X) =  -526.787394623     A.U. after   14 cycles
            NFock= 14  Conv=0.59D-08     -V/T= 2.0036
 KE= 5.248962592953D+02 PE=-1.918707383412D+03 EE= 5.315509942364D+02
 Leave Link  502 at Sun May 25 04:27:23 2025, MaxMem=  3758096384 cpu:              42.1 elap:               8.4
 (Enter /apps/easybuild-2022/easybuild/software/Compiler/NVHPC/22.11-CUDA-11.7.0/Gaussian/g16c01-CUDA-11.7.0/g16/l508.exe)
 QCSCF skips out because SCF is already converged.
 Leave Link  508 at Sun May 25 04:27:23 2025, MaxMem=  3758096384 cpu:               0.0 elap:               0.0
 (Enter /apps/easybuild-2022/easybuild/software/Compiler/NVHPC/22.11-CUDA-11.7.0/Gaussian/g16c01-CUDA-11.7.0/g16/l701.exe)
 ... and contract with generalized density number  0.
 Compute integral first derivatives.
   1 Symmetry operations used in ECPInt.
 ECPInt:  NShTT=    3486 NPrTT=   11183 LenC2=    3342 LenP2D=    8476.
 LDataN:  DoStor=T MaxTD1= 7 Len=  274
 Leave Link  701 at Sun May 25 04:27:23 2025, MaxMem=  3758096384 cpu:               0.5 elap:               0.1
 (Enter /apps/easybuild-2022/easybuild/software/Compiler/NVHPC/22.11-CUDA-11.7.0/Gaussian/g16c01-CUDA-11.7.0/g16/l702.exe)
 L702 exits ... SP integral derivatives will be done elsewhere.
 Leave Link  702 at Sun May 25 04:27:23 2025, MaxMem=  3758096384 cpu:               0.0 elap:               0.0
 (Enter /apps/easybuild-2022/easybuild/software/Compiler/NVHPC/22.11-CUDA-11.7.0/Gaussian/g16c01-CUDA-11.7.0/g16/l703.exe)
 Integral derivatives from FoFJK, PRISM(SPDF).
 Compute integral first derivatives, UseDBF=F ICtDFT=           0.
 Calling FoFJK, ICntrl=      2127 FMM=F ISym2X=0 I1Cent= 0 IOpClX= 0 NMat=1 NMatS=1 NMatT=0.
 FoFJK:  IHMeth= 1 ICntrl=    2127 DoSepK=F KAlg= 0 I1Cent=           0 FoldK=F
 IRaf=         0 NMat=       1 IRICut=       1 DoRegI=T DoRafI=F ISym2E= 0 IDoP0=0 IntGTp=1.
 FoFCou: FMM=F IPFlag=           0 FMFlag=      100000 FMFlg1=         800
         NFxFlg=           0 DoJE=F BraDBF=F KetDBF=F FulRan=T
         wScrn=  0.000000 ICntrl=      2127 IOpCl=  0 I1Cent=           0 NGrid=           0
         NMat0=    1 NMatS0=      1 NMatT0=    0 NMatD0=    1 NMtDS0=    0 NMtDT0=    0
 Symmetry not used in FoFCou.
 Leave Link  703 at Sun May 25 04:27:26 2025, MaxMem=  3758096384 cpu:              25.8 elap:               3.3
 (Enter /apps/easybuild-2022/easybuild/software/Compiler/NVHPC/22.11-CUDA-11.7.0/Gaussian/g16c01-CUDA-11.7.0/g16/l716.exe)
 Dipole        = 6.62974802D-01 5.73469203D-01 1.31881486D-01
 -------------------------------------------------------------------
 Center     Atomic                   Forces (Hartrees/Bohr)
 Number     Number              X              Y              Z
 -------------------------------------------------------------------
      1        6          -0.002442889   -0.002397282    0.002123710
      2        8          -0.003028592   -0.002941033   -0.004455090
      3        6          -0.000762810    0.000610015    0.000618517
      4        9           0.000210805   -0.000711601    0.000386988
      5        9          -0.000314944   -0.000283737   -0.000398073
      6        9          -0.000138772    0.000456833    0.000284683
      7        8           0.005263602    0.001056116    0.005813494
      8        1           0.001213600    0.004210691   -0.004374230
 -------------------------------------------------------------------
 Cartesian Forces:  Max     0.005813494 RMS     0.002562008
 Leave Link  716 at Sun May 25 04:27:26 2025, MaxMem=  3758096384 cpu:               0.0 elap:               0.0
 (Enter /apps/easybuild-2022/easybuild/software/Compiler/NVHPC/22.11-CUDA-11.7.0/Gaussian/g16c01-CUDA-11.7.0/g16/l103.exe)

 GradGradGradGradGradGradGradGradGradGradGradGradGradGradGradGradGradGrad
 Berny optimization.
 Using GEDIIS/GDIIS optimizer.
 FormGI is forming the generalized inverse of G from B-inverse, IUseBI=4.
 Internal  Forces:  Max     0.007969452 RMS     0.003236949
 Search for a local minimum.
 Step number   2 out of a maximum of   31
 All quantities printed in internal units (Hartrees-Bohrs-Radians)
 RMS Force = .32369D-02 SwitMx=.10000D-02 MixMth= 1
 Mixed Optimization -- RFO/linear search
 Update second derivatives using D2CorX and points    1    2
 DE= -2.31D-02 DEPred=-3.98D-02 R= 5.82D-01
 TightC=F SS=  1.41D+00  RLast= 9.20D-01 DXNew= 5.0454D-01 2.7605D+00
 Trust test= 5.82D-01 RLast= 9.20D-01 DXMaxT set to 5.05D-01
 ITU=  1  0
 Use linear search instead of GDIIS.
     Eigenvalues ---    0.00489   0.02267   0.04856   0.10560   0.19346
     Eigenvalues ---    0.20366   0.21922   0.22283   0.28284   0.29283
     Eigenvalues ---    0.34731   0.45866   0.46173   0.47318   0.52292
     Eigenvalues ---    0.54426   0.61530   0.70172
 RFO step:  Lambda=-9.80987257D-04 EMin= 4.88665470D-03
 Quartic linear search produced a step of  0.06509.
 Iteration  1 RMS(Cart)=  0.03907795 RMS(Int)=  0.00303007
 Iteration  2 RMS(Cart)=  0.00273623 RMS(Int)=  0.00000713
 Iteration  3 RMS(Cart)=  0.00001003 RMS(Int)=  0.00000182
 Iteration  4 RMS(Cart)=  0.00000000 RMS(Int)=  0.00000182
 ITry= 1 IFail=0 DXMaxC= 1.05D-01 DCOld= 1.00D+10 DXMaxT= 5.05D-01 DXLimC= 3.00D+00 Rises=F
 Variable       Old X    -DE/DX   Delta X   Delta X   Delta X     New X
                                 (Linear)    (Quad)   (Total)
    R1        2.52705   0.00441  -0.00243   0.01312   0.01069   2.53774
    R2        2.45478   0.00654   0.00087  -0.00128  -0.00041   2.45438
    R3        2.60196   0.00027  -0.00017  -0.00379  -0.00396   2.59800
    R4        2.49467   0.00074   0.00013   0.00213   0.00226   2.49693
    R5        2.49122   0.00031  -0.00015   0.00093   0.00078   2.49199
    R6        2.49665  -0.00050   0.00026   0.00044   0.00070   2.49735
    R7        1.82035   0.00043  -0.00169  -0.00379  -0.00548   1.81487
    A1        1.81019   0.00542  -0.00291   0.00378   0.00088   1.81107
    A2        2.00002   0.00148  -0.00085   0.00193   0.00109   2.00111
    A3        1.94544   0.00068   0.00003   0.00286   0.00289   1.94833
    A4        1.86343   0.00065  -0.00001   0.00227   0.00225   1.86568
    A5        1.94974  -0.00081   0.00030  -0.00136  -0.00107   1.94868
    A6        1.90153   0.00007  -0.00013  -0.00007  -0.00020   1.90133
    A7        1.89898  -0.00018  -0.00020  -0.00171  -0.00191   1.89707
    A8        1.90365  -0.00040   0.00000  -0.00200  -0.00199   1.90166
    A9        1.83573   0.00797  -0.00892   0.07713   0.06821   1.90395
    D1        3.10464   0.00091  -0.00242   0.01734   0.01492   3.11956
    D2        3.00106   0.00765   0.05901   0.06295   0.12196   3.12302
    D3        1.06673  -0.00040   0.00008  -0.00625  -0.00618   1.06054
    D4        3.14149   0.00047  -0.00007  -0.00334  -0.00340   3.13809
    D5       -1.06193  -0.00008   0.00010  -0.00512  -0.00503  -1.06696
         Item               Value     Threshold  Converged?
 Maximum Force            0.007969     0.000450     NO 
 RMS     Force            0.003237     0.000300     NO 
 Maximum Displacement     0.104532     0.001800     NO 
 RMS     Displacement     0.038923     0.001200     NO 
 Predicted change in Energy=-1.015847D-03
 Lowest energy point so far.  Saving SCF results.
 GradGradGradGradGradGradGradGradGradGradGradGradGradGradGradGradGradGrad

 Leave Link  103 at Sun May 25 04:27:26 2025, MaxMem=  3758096384 cpu:               0.0 elap:               0.0
 (Enter /apps/easybuild-2022/easybuild/software/Compiler/NVHPC/22.11-CUDA-11.7.0/Gaussian/g16c01-CUDA-11.7.0/g16/l202.exe)
                          Input orientation:                          
 ---------------------------------------------------------------------
 Center     Atomic      Atomic             Coordinates (Angstroms)
 Number     Number       Type             X           Y           Z
 ---------------------------------------------------------------------
      1          6           0        1.283537    0.037781    0.215854
      2          8           0       -0.052033    0.011134    0.078148
      3          6           0       -0.594617   -1.249101   -0.008453
      4          9           0       -0.348451   -1.961045    1.077099
      5          9           0       -1.898506   -1.097188   -0.134079
      6          9           0       -0.135770   -1.906366   -1.059136
      7          8           0        1.565713    1.305153    0.247958
      8          1           0        2.513069    1.413173    0.362795
 ---------------------------------------------------------------------
                    Distance matrix (angstroms):
                    1          2          3          4          5
     1  C    0.000000
     2  O    1.342915   0.000000
     3  C    2.287760   1.374805   0.000000
     4  F    2.720375   2.230529   1.321320   0.000000
     5  F    3.396470   2.163996   1.318706   2.148458   0.000000
     6  F    2.723921   2.230971   1.321542   2.147493   2.148892
     7  O    1.298801   2.078563   3.355143   3.875507   4.232966
     8  H    1.850687   2.937088   4.108922   4.481504   5.100078
                    6          7          8
     6  F    0.000000
     7  O    3.862304   0.000000
     8  H    4.478569   0.960386   0.000000
 Symmetry turned off by external request.
 Stoichiometry    C2HF3O2
 Rotational constants (GHZ):           5.4938241           1.7772885           1.7503777
 Leave Link  202 at Sun May 25 04:27:26 2025, MaxMem=  3758096384 cpu:               0.0 elap:               0.0
 (Enter /apps/easybuild-2022/easybuild/software/Compiler/NVHPC/22.11-CUDA-11.7.0/Gaussian/g16c01-CUDA-11.7.0/g16/l301.exe)
 Standard basis: def2TZVPP (5D, 7F)
 Ernie: Thresh=  0.10000D-02 Tol=  0.10000D-05 Strict=F.
   231 basis functions,   374 primitive gaussians,   267 cartesian basis functions
    28 alpha electrons       28 beta electrons
       nuclear repulsion energy       335.1834888806 Hartrees.
 IExCor= 4336 DFT=T Ex+Corr=M062X ExCW=0 ScaHFX=  0.540000
 ScaDFX=  1.000000  1.000000  1.000000  1.000000 ScalE2=  1.000000  1.000000
 IRadAn=      5 IRanWt=     -1 IRanGd=            0 ICorTp=0 IEmpDi=  4
 NAtoms=    8 NActive=    8 NUniq=    8 SFac= 1.00D+00 NAtFMM=   60 NAOKFM=F Big=F
 Integral buffers will be    131072 words long.
 Raffenetti 2 integral format.
 Two-electron integral symmetry is turned off.
 Leave Link  301 at Sun May 25 04:27:26 2025, MaxMem=  3758096384 cpu:               0.0 elap:               0.0
 (Enter /apps/easybuild-2022/easybuild/software/Compiler/NVHPC/22.11-CUDA-11.7.0/Gaussian/g16c01-CUDA-11.7.0/g16/l302.exe)
 NPDir=0 NMtPBC=     1 NCelOv=     1 NCel=       1 NClECP=     1 NCelD=      1
         NCelK=      1 NCelE2=     1 NClLst=     1 CellRange=     0.0.
 One-electron integrals computed using PRISM.
   1 Symmetry operations used in ECPInt.
 ECPInt:  NShTT=    3486 NPrTT=   11183 LenC2=    3342 LenP2D=    8470.
 LDataN:  DoStor=T MaxTD1= 6 Len=  172
 NBasis=   231 RedAO= T EigKep=  1.05D-03  NBF=   231
 NBsUse=   231 1.00D-06 EigRej= -1.00D+00 NBFU=   231
 Precomputing XC quadrature grid using
 IXCGrd= 4 IRadAn=           5 IRanWt=          -1 IRanGd=           0 AccXCQ= 0.00D+00.
 Generated NRdTot=       0 NPtTot=           0 NUsed=           0 NTot=          32
 NSgBfM=   265   265   265   265   265 MxSgAt=     8 MxSgA2=     8.
 Leave Link  302 at Sun May 25 04:27:26 2025, MaxMem=  3758096384 cpu:               0.5 elap:               0.1
 (Enter /apps/easybuild-2022/easybuild/software/Compiler/NVHPC/22.11-CUDA-11.7.0/Gaussian/g16c01-CUDA-11.7.0/g16/l303.exe)
 DipDrv:  MaxL=1.
 Leave Link  303 at Sun May 25 04:27:26 2025, MaxMem=  3758096384 cpu:               0.1 elap:               0.0
 (Enter /apps/easybuild-2022/easybuild/software/Compiler/NVHPC/22.11-CUDA-11.7.0/Gaussian/g16c01-CUDA-11.7.0/g16/l401.exe)
 Initial guess from the checkpoint file:  "/tmp/Gau-126371.chk"
 B after Tr=     0.001273   -0.009653    0.017937
         Rot=    0.999986   -0.002255    0.004388    0.001864 Ang=  -0.60 deg.
 Guess basis will be translated and rotated to current coordinates.
 JPrj=2 DoOrth=T DoCkMO=T.
 Generating alternative initial guess.
 ExpMin= 9.52D-02 ExpMax= 3.55D+04 ExpMxC= 1.21D+03 IAcc=3 IRadAn=         5 AccDes= 0.00D+00
 Harris functional with IExCor= 1009 and IRadAn=       5 diagonalized for initial guess.
 HarFok:  IExCor= 1009 AccDes= 0.00D+00 IRadAn=         5 IDoV= 1 UseB2=F ITyADJ=14
 ICtDFT=  3500011 ScaDFX=  1.000000  1.000000  1.000000  1.000000
 FoFCou: FMM=F IPFlag=           0 FMFlag=      100000 FMFlg1=           0
         NFxFlg=           0 DoJE=T BraDBF=F KetDBF=T FulRan=T
         wScrn=  0.000000 ICntrl=       500 IOpCl=  0 I1Cent=   200000004 NGrid=           0
         NMat0=    1 NMatS0=      1 NMatT0=    0 NMatD0=    1 NMtDS0=    0 NMtDT0=    0
 Symmetry not used in FoFCou.
 Harris En= -526.463179137852    
 Leave Link  401 at Sun May 25 04:27:27 2025, MaxMem=  3758096384 cpu:               2.1 elap:               0.3
 (Enter /apps/easybuild-2022/easybuild/software/Compiler/NVHPC/22.11-CUDA-11.7.0/Gaussian/g16c01-CUDA-11.7.0/g16/l502.exe)
 Keep R1 ints in memory in canonical form, NReq=368651279.
 FoFCou: FMM=F IPFlag=           0 FMFlag=           0 FMFlg1=           0
         NFxFlg=           0 DoJE=F BraDBF=F KetDBF=F FulRan=T
         wScrn=  0.000000 ICntrl=       600 IOpCl=  0 I1Cent=           0 NGrid=           0
         NMat0=    1 NMatS0=  26796 NMatT0=    0 NMatD0=    1 NMtDS0=    0 NMtDT0=    0
 Symmetry not used in FoFCou.
 Two-electron integral symmetry not used.
 Closed shell SCF:
 Using DIIS extrapolation, IDIIS=  1040.
 NGot=  3758096384 LenX=  3398923531 LenY=  3398851801
 Requested convergence on RMS density matrix=1.00D-08 within  32 cycles.
 Requested convergence on MAX density matrix=1.00D-06.
 Requested convergence on             energy=1.00D-06.
 No special actions if energy rises.
 Integral accuracy reduced to 1.0D-05 until final iterations.

 Cycle   1  Pass 0  IDiag  1:
 E= -526.786101291580    
 DIIS: error= 2.83D-03 at cycle   1 NSaved=   1.
 NSaved= 1 IEnMin= 1 EnMin= -526.786101291580     IErMin= 1 ErrMin= 2.83D-03
 ErrMax= 2.83D-03  0.00D+00 EMaxC= 1.00D-01 BMatC= 1.90D-03 BMatP= 1.90D-03
 IDIUse=3 WtCom= 9.72D-01 WtEn= 2.83D-02
 Coeff-Com:  0.100D+01
 Coeff-En:   0.100D+01
 Coeff:      0.100D+01
 Gap=     1.048 Goal=   None    Shift=    0.000
 GapD=    1.048 DampG=2.000 DampE=1.000 DampFc=2.0000 IDamp=-1.
 RMSDP=1.80D-04 MaxDP=1.06D-02              OVMax= 1.33D-02

 Cycle   2  Pass 0  IDiag  1:
 E= -526.787948068192     Delta-E=       -0.001846776612 Rises=F Damp=F
 DIIS: error= 4.72D-04 at cycle   2 NSaved=   2.
 NSaved= 2 IEnMin= 2 EnMin= -526.787948068192     IErMin= 2 ErrMin= 4.72D-04
 ErrMax= 4.72D-04  0.00D+00 EMaxC= 1.00D-01 BMatC= 4.37D-05 BMatP= 1.90D-03
 IDIUse=3 WtCom= 9.95D-01 WtEn= 4.72D-03
 Coeff-Com: -0.104D+00 0.110D+01
 Coeff-En:   0.000D+00 0.100D+01
 Coeff:     -0.104D+00 0.110D+01
 Gap=     0.333 Goal=   None    Shift=    0.000
 RMSDP=3.81D-05 MaxDP=2.37D-03 DE=-1.85D-03 OVMax= 3.33D-03

 Cycle   3  Pass 0  IDiag  1:
 E= -526.788019618637     Delta-E=       -0.000071550446 Rises=F Damp=F
 DIIS: error= 1.10D-04 at cycle   3 NSaved=   3.
 NSaved= 3 IEnMin= 3 EnMin= -526.788019618637     IErMin= 3 ErrMin= 1.10D-04
 ErrMax= 1.10D-04  0.00D+00 EMaxC= 1.00D-01 BMatC= 4.03D-06 BMatP= 4.37D-05
 IDIUse=3 WtCom= 9.99D-01 WtEn= 1.10D-03
 Coeff-Com: -0.285D-01 0.181D+00 0.847D+00
 Coeff-En:   0.000D+00 0.000D+00 0.100D+01
 Coeff:     -0.285D-01 0.181D+00 0.847D+00
 Gap=     0.333 Goal=   None    Shift=    0.000
 RMSDP=1.05D-05 MaxDP=4.97D-04 DE=-7.16D-05 OVMax= 9.70D-04

 Cycle   4  Pass 0  IDiag  1:
 E= -526.788023914173     Delta-E=       -0.000004295536 Rises=F Damp=F
 DIIS: error= 6.25D-05 at cycle   4 NSaved=   4.
 NSaved= 4 IEnMin= 4 EnMin= -526.788023914173     IErMin= 4 ErrMin= 6.25D-05
 ErrMax= 6.25D-05  0.00D+00 EMaxC= 1.00D-01 BMatC= 1.33D-06 BMatP= 4.03D-06
 IDIUse=1 WtCom= 1.00D+00 WtEn= 0.00D+00
 Coeff-Com:  0.124D-02-0.611D-01 0.339D+00 0.721D+00
 Coeff:      0.124D-02-0.611D-01 0.339D+00 0.721D+00
 Gap=     0.333 Goal=   None    Shift=    0.000
 RMSDP=4.29D-06 MaxDP=1.77D-04 DE=-4.30D-06 OVMax= 4.71D-04

 Initial convergence to 1.0D-05 achieved.  Increase integral accuracy.
 Cycle   5  Pass 1  IDiag  1:
 E= -526.788055553154     Delta-E=       -0.000031638982 Rises=F Damp=F
 DIIS: error= 2.90D-05 at cycle   1 NSaved=   1.
 NSaved= 1 IEnMin= 1 EnMin= -526.788055553154     IErMin= 1 ErrMin= 2.90D-05
 ErrMax= 2.90D-05  0.00D+00 EMaxC= 1.00D-01 BMatC= 5.29D-07 BMatP= 5.29D-07
 IDIUse=1 WtCom= 1.00D+00 WtEn= 0.00D+00
 Coeff-Com:  0.100D+01
 Coeff:      0.100D+01
 Gap=     0.333 Goal=   None    Shift=    0.000
 RMSDP=4.29D-06 MaxDP=1.77D-04 DE=-3.16D-05 OVMax= 2.86D-04

 Cycle   6  Pass 1  IDiag  1:
 E= -526.788055890836     Delta-E=       -0.000000337681 Rises=F Damp=F
 DIIS: error= 2.26D-05 at cycle   2 NSaved=   2.
 NSaved= 2 IEnMin= 2 EnMin= -526.788055890836     IErMin= 2 ErrMin= 2.26D-05
 ErrMax= 2.26D-05  0.00D+00 EMaxC= 1.00D-01 BMatC= 1.87D-07 BMatP= 5.29D-07
 IDIUse=1 WtCom= 1.00D+00 WtEn= 0.00D+00
 Coeff-Com:  0.314D+00 0.686D+00
 Coeff:      0.314D+00 0.686D+00
 Gap=     0.333 Goal=   None    Shift=    0.000
 RMSDP=1.76D-06 MaxDP=6.69D-05 DE=-3.38D-07 OVMax= 1.42D-04

 Cycle   7  Pass 1  IDiag  1:
 E= -526.788055981522     Delta-E=       -0.000000090686 Rises=F Damp=F
 DIIS: error= 1.45D-05 at cycle   3 NSaved=   3.
 NSaved= 3 IEnMin= 3 EnMin= -526.788055981522     IErMin= 3 ErrMin= 1.45D-05
 ErrMax= 1.45D-05  0.00D+00 EMaxC= 1.00D-01 BMatC= 6.89D-08 BMatP= 1.87D-07
 IDIUse=1 WtCom= 1.00D+00 WtEn= 0.00D+00
 Coeff-Com: -0.382D-01 0.372D+00 0.666D+00
 Coeff:     -0.382D-01 0.372D+00 0.666D+00
 Gap=     0.333 Goal=   None    Shift=    0.000
 RMSDP=7.02D-07 MaxDP=2.79D-05 DE=-9.07D-08 OVMax= 6.76D-05

 Cycle   8  Pass 1  IDiag  1:
 E= -526.788056030731     Delta-E=       -0.000000049210 Rises=F Damp=F
 DIIS: error= 1.69D-06 at cycle   4 NSaved=   4.
 NSaved= 4 IEnMin= 4 EnMin= -526.788056030731     IErMin= 4 ErrMin= 1.69D-06
 ErrMax= 1.69D-06  0.00D+00 EMaxC= 1.00D-01 BMatC= 9.38D-10 BMatP= 6.89D-08
 IDIUse=1 WtCom= 1.00D+00 WtEn= 0.00D+00
 Coeff-Com: -0.166D-01 0.561D-01 0.130D+00 0.830D+00
 Coeff:     -0.166D-01 0.561D-01 0.130D+00 0.830D+00
 Gap=     0.333 Goal=   None    Shift=    0.000
 RMSDP=1.86D-07 MaxDP=5.86D-06 DE=-4.92D-08 OVMax= 2.98D-05

 Cycle   9  Pass 1  IDiag  1:
 E= -526.788056032436     Delta-E=       -0.000000001705 Rises=F Damp=F
 DIIS: error= 9.14D-07 at cycle   5 NSaved=   5.
 NSaved= 5 IEnMin= 5 EnMin= -526.788056032436     IErMin= 5 ErrMin= 9.14D-07
 ErrMax= 9.14D-07  0.00D+00 EMaxC= 1.00D-01 BMatC= 3.31D-10 BMatP= 9.38D-10
 IDIUse=1 WtCom= 1.00D+00 WtEn= 0.00D+00
 Coeff-Com:  0.272D-02-0.711D-01-0.113D+00 0.323D+00 0.858D+00
 Coeff:      0.272D-02-0.711D-01-0.113D+00 0.323D+00 0.858D+00
 Gap=     0.333 Goal=   None    Shift=    0.000
 RMSDP=1.27D-07 MaxDP=4.38D-06 DE=-1.70D-09 OVMax= 2.20D-05

 Cycle  10  Pass 1  IDiag  1:
 E= -526.788056033030     Delta-E=       -0.000000000593 Rises=F Damp=F
 DIIS: error= 3.01D-07 at cycle   6 NSaved=   6.
 NSaved= 6 IEnMin= 6 EnMin= -526.788056033030     IErMin= 6 ErrMin= 3.01D-07
 ErrMax= 3.01D-07  0.00D+00 EMaxC= 1.00D-01 BMatC= 4.22D-11 BMatP= 3.31D-10
 IDIUse=1 WtCom= 1.00D+00 WtEn= 0.00D+00
 Coeff-Com:  0.302D-02-0.328D-01-0.563D-01-0.280D-03 0.321D+00 0.765D+00
 Coeff:      0.302D-02-0.328D-01-0.563D-01-0.280D-03 0.321D+00 0.765D+00
 Gap=     0.333 Goal=   None    Shift=    0.000
 RMSDP=3.96D-08 MaxDP=1.38D-06 DE=-5.93D-10 OVMax= 7.09D-06

 Cycle  11  Pass 1  IDiag  1:
 E= -526.788056033097     Delta-E=       -0.000000000068 Rises=F Damp=F
 DIIS: error= 7.71D-08 at cycle   7 NSaved=   7.
 NSaved= 7 IEnMin= 7 EnMin= -526.788056033097     IErMin= 7 ErrMin= 7.71D-08
 ErrMax= 7.71D-08  0.00D+00 EMaxC= 1.00D-01 BMatC= 3.18D-12 BMatP= 4.22D-11
 IDIUse=1 WtCom= 1.00D+00 WtEn= 0.00D+00
 Coeff-Com:  0.537D-03-0.269D-03-0.182D-02-0.362D-01-0.162D-01 0.189D+00
 Coeff-Com:  0.865D+00
 Coeff:      0.537D-03-0.269D-03-0.182D-02-0.362D-01-0.162D-01 0.189D+00
 Coeff:      0.865D+00
 Gap=     0.333 Goal=   None    Shift=    0.000
 RMSDP=1.39D-08 MaxDP=6.29D-07 DE=-6.76D-11 OVMax= 2.04D-06

 Cycle  12  Pass 1  IDiag  1:
[...]
     24 -0.405231D-03  0.155269D-04  0.123383D-03  0.390386D-04 -0.437270D-03
               16            17            18            19            20 
     16  0.132599D+00
     17 -0.651102D-01  0.174460D+00
     18 -0.104051D+00  0.144702D+00  0.318441D+00
     19  0.142865D-02 -0.495397D-02 -0.300378D-02  0.683850D+00
     20 -0.146171D-02 -0.489390D-02 -0.267395D-02  0.131979D+00  0.495856D+00
     21  0.609277D-03  0.229085D-03 -0.753558D-03  0.681289D-01  0.236988D-01
     22  0.249769D-03  0.653823D-03  0.351718D-03 -0.518543D+00 -0.482880D-01
     23  0.482198D-03 -0.105368D-03 -0.821448D-04  0.358286D-02 -0.415065D-01
     24 -0.357308D-04  0.539311D-03  0.811386D-04 -0.494921D-01 -0.540621D-02
               21            22            23            24 
     21  0.321933D-01
     22 -0.506638D-01  0.527928D+00
     23 -0.273276D-03  0.511528D-01  0.595064D-01
     24 -0.228820D-01  0.516018D-01  0.609743D-02  0.236611D-01
 FormGI is forming the generalized inverse of G from B-inverse, IUseBI=4.
 Force constants in internal coordinates: 
                1             2             3             4             5 
      1  0.394824D+00
      2  0.888549D-01  0.518185D+00
      3  0.458505D-01 -0.146496D-01  0.404677D+00
      4 -0.146127D-01  0.526144D-02  0.510519D-01  0.454930D+00
      5 -0.802154D-02  0.696368D-02  0.526558D-01  0.569930D-01  0.467435D+00
      6 -0.146223D-01  0.528512D-02  0.509497D-01  0.560560D-01  0.570207D-01
      7 -0.734987D-02  0.743539D-02  0.166264D-02 -0.517893D-03 -0.783225D-03
      8  0.113451D+00  0.104230D+00  0.297934D-02  0.875660D-02  0.661392D-02
      9  0.573955D-01  0.931594D-02  0.731480D-01 -0.101450D-02  0.123915D-01
     10 -0.882676D-02  0.487659D-02  0.402886D-01  0.258002D-01 -0.368450D-01
     11 -0.699012D-02  0.517424D-02  0.494052D-01 -0.377255D-01  0.329744D-01
     12 -0.897623D-02  0.493468D-02  0.402877D-01 -0.401751D-01 -0.369616D-01
     13  0.658231D-02 -0.508594D-02 -0.443442D-01  0.342469D-01  0.299268D-01
     14  0.119415D-01 -0.510140D-02 -0.438759D-01  0.329489D-01 -0.148807D-01
     15  0.661982D-02 -0.511106D-02 -0.443603D-01 -0.155420D-01  0.298416D-01
     16  0.101741D-01  0.528813D-01  0.561398D-03  0.582991D-03  0.457025D-03
     17  0.107029D-04 -0.721300D-04  0.121447D-04  0.627000D-03 -0.485181D-04
     18 -0.105737D-04 -0.280419D-04 -0.209035D-04 -0.530650D-03  0.254922D-04
     19  0.142900D-02  0.189710D-03  0.380248D-03 -0.378440D-03 -0.358919D-01
     20  0.896671D-04 -0.171151D-04 -0.217364D-04  0.324361D-01  0.901636D-04
     21 -0.128993D-02 -0.220824D-03 -0.436793D-03 -0.326460D-01  0.359069D-01
                6             7             8             9            10 
      6  0.454773D+00
      7 -0.518607D-03  0.538447D+00
      8  0.873178D-02  0.120996D-01  0.537171D+00
      9 -0.993167D-03  0.369859D-03  0.335152D-01  0.266369D+00
     10 -0.400540D-01 -0.841523D-03  0.749861D-03  0.990345D-02  0.253946D+00
     11 -0.378079D-01 -0.362828D-03  0.119951D-01  0.542536D-02 -0.275308D-01
     12  0.256851D-01 -0.868467D-03  0.377766D-03  0.102690D-01 -0.278453D-01
     13 -0.155422D-01  0.761993D-03 -0.322793D-02 -0.120789D-01 -0.794802D-01
     14  0.328964D-01  0.604396D-03 -0.665594D-02 -0.235900D-02 -0.875568D-01
     15  0.343774D-01  0.766687D-03 -0.315084D-02 -0.121888D-01 -0.373846D-01
     16  0.582572D-03  0.196871D-01  0.390677D-01  0.639900D-02 -0.104961D-02
     17 -0.696429D-03  0.179514D-04 -0.389324D-03  0.260654D-03  0.835117D-02
     18  0.540798D-03  0.178321D-03  0.223751D-03 -0.157228D-03 -0.169057D-02
     19  0.326275D-01 -0.178027D-03 -0.388644D-02  0.566822D-02  0.118184D-01
     20 -0.324276D-01  0.462250D-04  0.631630D-04 -0.352529D-04  0.419526D-01
     21  0.428004D-03  0.260860D-03  0.389726D-02 -0.566464D-02 -0.363639D-01
               11            12            13            14            15 
     11  0.268266D+00
     12 -0.277252D-01  0.254338D+00
     13 -0.880375D-01 -0.373712D-01  0.181099D+00
     14 -0.375779D-01 -0.877195D-01  0.158177D-01  0.180149D+00
     15 -0.880496D-01 -0.795326D-01  0.150403D-01  0.158142D-01  0.181174D+00
     16  0.251020D-02 -0.965184D-03  0.394117D-04 -0.479369D-03  0.246183D-04
     17 -0.607793D-04 -0.815263D-02  0.341047D-04 -0.754250D-04 -0.100837D-03
     18  0.490859D-04  0.158834D-02 -0.431762D-03  0.241063D-04  0.463566D-03
     19 -0.439092D-01  0.363426D-01 -0.614413D-01  0.537605D-01 -0.143587D-02
     20  0.686628D-04 -0.420695D-01  0.589971D-01  0.599695D-04 -0.590040D-01
     21  0.439524D-01 -0.118893D-01  0.142944D-02 -0.537479D-01  0.614835D-01
               16            17            18            19            20 
     16  0.179606D+00
     17 -0.502285D-04  0.439761D-01
     18 -0.299978D-03 -0.585437D-02  0.555197D-01
     19 -0.111509D-02 -0.182153D-02  0.386120D-03  0.675473D-01
     20 -0.102976D-03  0.291234D-02 -0.106575D-02 -0.277054D-01  0.678098D-01
     21  0.939273D-03 -0.186629D-02  0.427992D-03 -0.361354D-01 -0.277024D-01
               21 
     21  0.675985D-01
 Leave Link  716 at Sun May 25 04:29:22 2025, MaxMem=  3758096384 cpu:               0.0 elap:               0.0
 (Enter /apps/easybuild-2022/easybuild/software/Compiler/NVHPC/22.11-CUDA-11.7.0/Gaussian/g16c01-CUDA-11.7.0/g16/l103.exe)

 GradGradGradGradGradGradGradGradGradGradGradGradGradGradGradGradGradGrad
 Berny optimization.
 Red2BG is reusing G-inverse.
 Internal  Forces:  Max     0.000022576 RMS     0.000009383
 Search for a local minimum.
 Step number   1 out of a maximum of    2
 All quantities printed in internal units (Hartrees-Bohrs-Radians)
 Second derivative matrix not updated -- analytic derivatives used.
 ITU=  0
     Eigenvalues ---    0.00579   0.04112   0.05775   0.16800   0.19640
     Eigenvalues ---    0.20369   0.22555   0.24041   0.28247   0.29441
     Eigenvalues ---    0.37008   0.42766   0.45480   0.46363   0.53167
     Eigenvalues ---    0.54061   0.61526   0.71853
 Angle between quadratic step and forces=  72.38 degrees.
 Linear search not attempted -- first point.
 Iteration  1 RMS(Cart)=  0.00011069 RMS(Int)=  0.00000002
 Iteration  2 RMS(Cart)=  0.00000002 RMS(Int)=  0.00000000
 ITry= 1 IFail=0 DXMaxC= 3.44D-04 DCOld= 1.00D+10 DXMaxT= 3.00D-01 DXLimC= 3.00D+00 Rises=F
 Variable       Old X    -DE/DX   Delta X   Delta X   Delta X     New X
                                 (Linear)    (Quad)   (Total)
    R1        2.53435   0.00002   0.00000   0.00004   0.00004   2.53439
    R2        2.45987   0.00002   0.00000   0.00003   0.00003   2.45989
    R3        2.60067  -0.00000   0.00000  -0.00001  -0.00001   2.60066
    R4        2.49625   0.00000   0.00000   0.00001   0.00001   2.49626
    R5        2.49160   0.00000   0.00000   0.00000   0.00000   2.49160
    R6        2.49626  -0.00000   0.00000  -0.00000  -0.00000   2.49626
    R7        1.81938   0.00002   0.00000   0.00004   0.00004   1.81942
    A1        1.81416   0.00002   0.00000   0.00003   0.00003   1.81419
    A2        2.00229  -0.00000   0.00000  -0.00002  -0.00002   2.00228
    A3        1.94761  -0.00000   0.00000  -0.00002  -0.00002   1.94759
    A4        1.86504   0.00001   0.00000   0.00002   0.00002   1.86507
    A5        1.94772  -0.00000   0.00000   0.00001   0.00001   1.94773
    A6        1.90215   0.00000   0.00000   0.00000   0.00000   1.90215
    A7        1.89815   0.00000   0.00000  -0.00000  -0.00000   1.89815
    A8        1.90211  -0.00000   0.00000  -0.00001  -0.00001   1.90210
    A9        1.87549  -0.00001   0.00000  -0.00009  -0.00009   1.87540
    D1       -3.14156   0.00001   0.00000   0.00014   0.00014  -3.14142
    D2        3.14157  -0.00000   0.00000  -0.00005  -0.00005   3.14152
    D3        1.06338  -0.00000   0.00000   0.00026   0.00026   1.06364
    D4        3.14112   0.00000   0.00000   0.00026   0.00026   3.14138
    D5       -1.06432   0.00000   0.00000   0.00027   0.00027  -1.06405
         Item               Value     Threshold  Converged?
 Maximum Force            0.000023     0.000450     YES
 RMS     Force            0.000009     0.000300     YES
 Maximum Displacement     0.000344     0.001800     YES
 RMS     Displacement     0.000111     0.001200     YES
 Predicted change in Energy=-3.188622D-09
 Optimization completed.
    -- Stationary point found.
                           ----------------------------
                           !   Optimized Parameters   !
                           ! (Angstroms and Degrees)  !
 --------------------------                            --------------------------
 ! Name  Definition              Value          Derivative Info.                !
 --------------------------------------------------------------------------------
 ! R1    R(1,2)                  1.3411         -DE/DX =    0.0                 !
 ! R2    R(1,7)                  1.3017         -DE/DX =    0.0                 !
 ! R3    R(2,3)                  1.3762         -DE/DX =    0.0                 !
 ! R4    R(3,4)                  1.321          -DE/DX =    0.0                 !
 ! R5    R(3,5)                  1.3185         -DE/DX =    0.0                 !
 ! R6    R(3,6)                  1.321          -DE/DX =    0.0                 !
 ! R7    R(7,8)                  0.9628         -DE/DX =    0.0                 !
 ! A1    A(2,1,7)              103.9438         -DE/DX =    0.0                 !
 ! A2    A(1,2,3)              114.723          -DE/DX =    0.0                 !
 ! A3    A(2,3,4)              111.59           -DE/DX =    0.0                 !
 ! A4    A(2,3,5)              106.859          -DE/DX =    0.0                 !
 ! A5    A(2,3,6)              111.5962         -DE/DX =    0.0                 !
 ! A6    A(4,3,5)              108.9853         -DE/DX =    0.0                 !
 ! A7    A(4,3,6)              108.7561         -DE/DX =    0.0                 !
 ! A8    A(5,3,6)              108.9828         -DE/DX =    0.0                 !
 ! A9    A(1,7,8)              107.4579         -DE/DX =    0.0                 !
 ! D1    D(7,1,2,3)           -179.9982         -DE/DX =    0.0                 !
 ! D2    D(2,1,7,8)            179.9987         -DE/DX =    0.0                 !
 ! D3    D(1,2,3,4)             60.9272         -DE/DX =    0.0                 !
 ! D4    D(1,2,3,5)            179.9729         -DE/DX =    0.0                 !
 ! D5    D(1,2,3,6)            -60.9809         -DE/DX =    0.0                 !
 --------------------------------------------------------------------------------
 GradGradGradGradGradGradGradGradGradGradGradGradGradGradGradGradGradGrad

 Leave Link  103 at Sun May 25 04:29:22 2025, MaxMem=  3758096384 cpu:               0.0 elap:               0.0
 (Enter /apps/easybuild-2022/easybuild/software/Compiler/NVHPC/22.11-CUDA-11.7.0/Gaussian/g16c01-CUDA-11.7.0/g16/l9999.exe)

 ----------------------------------------------------------------------

 Electric dipole moment (input orientation):
 (Debye = 10**-18 statcoulomb cm , SI units = C m)
                  (au)            (Debye)         (10**-30 SI)
   Tot        0.912721D+00      0.231991D+01      0.773837D+01
   x          0.684887D+00      0.174081D+01      0.580672D+01
   y          0.597808D+00      0.151948D+01      0.506843D+01
   z          0.813295D-01      0.206719D+00      0.689540D+00

 Dipole polarizability, Alpha (input orientation).
 (esu units = cm**3 , SI units = C**2 m**2 J**-1)
 Alpha(0;0):
               (au)            (10**-24 esu)      (10**-40 SI)
   iso        0.342843D+02      0.508041D+01      0.565272D+01
   aniso      0.150267D+02      0.222672D+01      0.247756D+01
   xx         0.384809D+02      0.570228D+01      0.634464D+01
   yx         0.683841D+01      0.101335D+01      0.112750D+01
   yy         0.358302D+02      0.530949D+01      0.590760D+01
   zx         0.113294D+01      0.167884D+00      0.186796D+00
   zy         0.855166D+00      0.126723D+00      0.140998D+00
   zz         0.285419D+02      0.422948D+01      0.470593D+01

 ----------------------------------------------------------------------

 Dipole orientation:
     6          0.83864375         -1.29669914          1.90630229
     8         -0.16349742         -0.03021409         -0.04681750
     6          0.53604181         -0.91433348         -2.39041831
     9         -0.17708705         -3.28243999         -2.72919513
     9         -0.60382757          0.52440304         -4.07528902
     9          3.00441812         -0.76295322         -2.73030564
     8         -0.06865455         -0.15013516          3.88446817
     1          0.59605537         -0.99024824          5.35501188

 Electric dipole moment (dipole orientation):
 (Debye = 10**-18 statcoulomb cm , SI units = C m)
                  (au)            (Debye)         (10**-30 SI)
   Tot        0.912721D+00      0.231991D+01      0.773837D+01
   x          0.000000D+00      0.000000D+00      0.000000D+00
   y          0.000000D+00      0.000000D+00      0.000000D+00
   z          0.912721D+00      0.231991D+01      0.773837D+01

 Dipole polarizability, Alpha (dipole orientation).
 (esu units = cm**3 , SI units = C**2 m**2 J**-1)
 Alpha(0;0):
               (au)            (10**-24 esu)      (10**-40 SI)
   iso        0.342843D+02      0.508041D+01      0.565272D+01
   aniso      0.150267D+02      0.222672D+01      0.247756D+01
   xx         0.291217D+02      0.431539D+01      0.480151D+01
   yx        -0.876197D+00     -0.129839D+00     -0.144465D+00
   yy         0.294933D+02      0.437045D+01      0.486279D+01
   zx         0.251880D+00      0.373247D-01      0.415293D-01
   zy        -0.306304D+00     -0.453896D-01     -0.505027D-01
   zz         0.442380D+02      0.655540D+01      0.729387D+01

 ----------------------------------------------------------------------
 Unable to Open any file for archive entry.
 1\1\GINC-SPARTAN-BM143\Freq\RM062X\def2TZVPP\C2H1F3O2\AKHALILOV\25-May
 -2025\0\\#P Geom=AllCheck Guess=TCheck SCRF=Check GenChk RM062X/def2TZ
 VPP Freq\\Gaussian input prepared by ASE\\0,1\C,1.2809648855,0.0445490
 931,0.2063087834\O,-0.0531639555,0.0131256639,0.0731866888\C,-0.593844
 7215,-1.249781317,-0.0086639473\F,-0.3451320397,-1.9564474814,1.079312
 5724\F,-1.8977922187,-1.1000931109,-0.1341494894\F,-0.1340609134,-1.90
 84818181,-1.0573107399\O,1.5607638867,1.3145864205,0.2624631752\H,2.51
 52069717,1.3960830172,0.3590393836\\Version=ES64L-G16RevC.01\HF=-526.7
 881518\RMSD=1.069e-09\RMSF=8.895e-06\ZeroPoint=0.0392513\Thermal=0.045
 3307\ETot=-526.7428212\HTot=-526.741877\GTot=-526.77946\Dipole=0.68488
 72,0.5978084,0.0813295\DipoleDeriv=1.2505992,0.6962508,0.156305,0.5207
 07,1.0855551,0.0805994,0.1540182,0.0972294,-0.1618985,-1.6643403,-0.87
 51555,-0.1647021,-0.2537877,-0.8053143,-0.0390528,-0.1522917,-0.100553
 ,-0.2081664,2.1622078,0.202652,0.0340793,0.5022413,2.1728313,0.0566314
 ,0.0415171,0.0270388,1.8702755,-0.3394368,0.0108328,-0.066458,-0.06199
 55,-0.5760032,0.2651608,-0.0392559,0.2925818,-0.6846534,-0.9762721,0.0
 0638,-0.0664111,-0.0037825,-0.33776,-0.0010756,-0.0665393,-0.000163,-0
 .3111277,-0.3726839,0.0628034,0.1326683,-0.0130204,-0.5514644,-0.26738
 69,0.1014297,-0.2800374,-0.6759365,-0.4552647,-0.2244178,-0.0368185,-0
 .7776866,-1.3432243,-0.1045525,-0.0494127,-0.0490294,-0.1384065,0.3951
 908,0.1206544,0.0113371,0.0873244,0.3553797,0.0096762,0.0105347,0.0129
 328,0.3099136\Polar=38.4808943,6.8384133,35.8301946,1.132939,0.8551659
 ,28.5419201\PG=Unknown\NImag=0\\0.43247438,0.02920246,0.56327542,0.041
 57804,0.01507928,0.02247343,-0.29376631,0.06138254,-0.02789280,0.49844
 199,0.07269627,-0.09086460,0.00516051,0.11008580,0.45497876,-0.0276294
 9,0.00401230,-0.00073609,0.04282924,0.01897884,0.09543104,-0.03595115,
 -0.05627011,-0.00299945,-0.10408761,-0.02590539,-0.00322109,0.64929748
 ,-0.08294782,-0.02522433,-0.00842089,0.00133243,-0.21486056,-0.0029286
 9,-0.01179247,0.58269871,-0.00355609,-0.00573409,-0.01891085,-0.002645
 46,-0.00567604,-0.07783521,0.00318145,-0.00195539,0.61628262,-0.002330
 59,-0.00089875,0.00233561,0.01308225,-0.01263620,0.00919125,-0.0901987
 1,0.01954058,-0.03302870,0.09997363,0.01830900,0.00130144,0.00525163,-
 0.02049027,-0.05479170,0.04421764,0.01964420,-0.14710170,0.09835864,-0
 .03857003,0.18820736,-0.01115209,-0.00087716,0.00030345,0.01090764,0.0
 2962954,-0.00452745,-0.03094728,0.09668744,-0.22790528,0.05942513,-0.1
 6178936,0.33723364,0.01338359,-0.00131179,0.00104514,-0.07308894,-0.02
 544091,-0.00906242,-0.30466749,0.02106916,-0.02155559,-0.03678800,0.02
 570822,-0.03708964,0.45928679,0.00784885,-0.00152347,0.00070025,-0.062
 34098,-0.00529043,-0.00655425,0.02494093,-0.08349193,0.00246857,0.0364
 5894,-0.00100131,0.02258074,-0.04157769,0.09334808,0.00123772,-0.00022
 190,0.00276856,-0.00987805,-0.00287695,0.01146215,-0.02144608,0.002072
 91,-0.08492640,-0.05225588,0.02258111,-0.01640488,0.03607439,-0.003914
 08,0.08919023,-0.00396864,-0.00090955,-0.00320789,0.01625335,-0.006137
 65,-0.00510588,-0.10812367,0.03570276,0.05902511,0.01504264,-0.0004446
 9,0.00602203,-0.05348152,0.03787883,0.04674388,0.13259942,0.01852074,0
 .00147202,-0.00156814,-0.01086609,-0.05120927,-0.04932179,0.03614652,-
 0.13882697,-0.08910214,-0.00243538,0.01843337,0.01147112,0.02804454,0.
 00066965,-0.01694903,-0.06511020,0.17446047,0.01113468,0.00072400,0.00
 186289,-0.00707387,-0.03344609,-0.01131480,0.05691278,-0.08749344,-0.2
 1828175,0.01458749,-0.00681686,-0.08854446,0.03114179,-0.01491311,-0.0
 0149093,-0.10405080,0.14470159,0.31844147,-0.09249238,-0.03214551,-0.0
 1048906,-0.06559286,-0.11025529,-0.00675532,-0.00408049,0.02032841,-0.
 00088161,0.00092011,-0.00491896,0.00310710,-0.00549007,-0.00361673,-0.
 00061417,0.00142865,-0.00495397,-0.00300378,0.68385031,-0.01355124,-0.
 44076244,-0.01136544,-0.07668999,-0.02713617,-0.00767820,0.01617043,0.
 02563689,0.00196602,-0.00191475,-0.00495746,0.00212665,-0.00624395,-0.
 00223624,-0.00066765,-0.00146171,-0.00489390,-0.00267395,0.13197919,0.
 49585584,-0.01006865,-0.01317722,0.00572831,-0.00601862,-0.01106005,-0
 .02309834,-0.00095301,0.00238742,0.00914432,-0.00035706,-0.00139756,-0
 .00017056,-0.00067704,-0.00040718,-0.00016147,0.00060928,0.00022909,-0
 .00075356,0.06812891,0.02369878,0.03219330,-0.01734889,0.00095071,-0.0
 0036958,0.00875813,-0.00240662,-0.00024629,-0.00218836,-0.00323306,-0.
 00053911,0.00029865,0.00076253,-0.00027289,0.00084563,0.00040786,0.000
 13818,0.00024977,0.00065382,0.00035172,-0.51854327,-0.04828800,-0.0506
 6381,0.52792835,-0.05007827,-0.00767404,-0.00483719,-0.00241345,-0.010
 82604,-0.00072586,-0.00293411,0.00116989,-0.00032558,0.00045558,-0.000
 08999,0.00017102,-0.00024757,-0.00047436,-0.00002440,0.00048220,-0.000
 10537,-0.00008214,0.00358286,-0.04150653,-0.00027328,0.05115276,0.0595
 0645,-0.00154413,0.00019478,-0.01348971,-0.00022809,-0.00070977,0.0106
 1869,-0.00052732,-0.00034936,0.00243254,0.00010216,-0.00040523,0.00001
 553,0.00012338,0.00003904,-0.00043727,-0.00003573,0.00053931,0.0000811
 4,-0.04949206,-0.00540621,-0.02288200,0.05160179,0.00609743,0.02366109
 \\-0.00001261,0.00000774,0.00000402,0.00001601,0.00001047,0.00000158,0
 .00000276,-0.00000557,-0.00000147,-0.00000084,0.00000088,-0.00000164,0
 .00000187,0.00000207,0.00000287,0.00000062,-0.00000227,-0.00000111,0.0
 0001572,-0.00001925,0.00000033,-0.00002353,0.00000592,-0.00000459\\\@
 The archive entry for this job was punched.


 YE HAVE SOWN MUCH, AND BRING IN LITTLE.
 YE EAT, BUT YE HAVE NOT ENOUGH.
 YE DRINK, BUT YE ARE NOT FILLED WITH DRINK.
 YE CLOTHE YOU, BUT THERE IS NONE WARM.
 AND HE THAT EARNETH WAGES EARNETH WAGES TO PUT
 IT INTO A BAG WITH HOLES.
                                     HAGGAI I,6
 Job cpu time:       0 days  0 hours  9 minutes 17.7 seconds.
 Elapsed time:       0 days  0 hours  1 minutes 11.4 seconds.
 File lengths (MBytes):  RWF=     48 Int=      0 D2E=      0 Chk=      5 Scr=      1
 Normal termination of Gaussian 16 at Sun May 25 04:29:22 2025.
done
