8
energy = -526.807894539
C 1.56713700 0.04188200 0.07767800
O 2.15242200 -0.78488600 0.69079900
C 0.01650000 0.02426400 0.03160900
F -0.48064200 0.13843000 1.25180500
F -0.45900300 1.04183100 -0.70735700
F -0.41391600 -1.10570400 -0.50447000
O 2.14787000 1.02467900 -0.60366800
H 1.49448600 1.59086100 -1.03167700
8
energy = -526.80789356
C 1.56723300 0.04076000 -0.07637000
O 2.15265800 -0.78917800 -0.68505400
C 0.01657100 0.02370600 -0.03099500
F -0.45894600 1.04294300 0.70566300
F -0.47984700 0.13574100 -1.25174100
F -0.41459000 -1.10501300 0.50698000
O 2.14782000 1.02707500 0.60001500
H 1.49435900 1.59517600 1.02535500
8
energy = -526.812756917
C 1.54391200 -0.00000400 0.00048700
O 2.19885800 -0.99113900 0.00270600
C -0.00003400 -0.00002700 -0.00004700
F -0.46087000 0.63083500 1.07700500
F -0.46006900 0.62551700 -1.08054700
F -0.45861400 -1.23713000 0.00283100
O 1.99482000 1.24997900 -0.00192500
H 2.96162100 1.22624500 -0.00159800
