 Entering Gaussian System, Link 0=g16
 Initial command:
 /apps/easybuild-2022/easybuild/software/Compiler/NVHPC/22.11-CUDA-11.7.0/Gaussian/g16c01-CUDA-11.7.0/g16/l1.exe "/tmp/Gau-269676.inp" -scrdir="/tmp/"
 Entering Link 1 = /apps/easybuild-2022/easybuild/software/Compiler/NVHPC/22.11-CUDA-11.7.0/Gaussian/g16c01-CUDA-11.7.0/g16/l1.exe PID=    269678.
  
 Copyright (c) 1988-2019, Gaussian, Inc.  All Rights Reserved.
  
 This is part of the Gaussian(R) 16 program.  It is based on
 the Gaussian(R) 09 system (copyright 2009, Gaussian, Inc.),
 the Gaussian(R) 03 system (copyright 2003, Gaussian, Inc.),
 the Gaussian(R) 98 system (copyright 1998, Gaussian, Inc.),
 the Gaussian(R) 94 system (copyright 1995, Gaussian, Inc.),
 the Gaussian 92(TM) system (copyright 1992, Gaussian, Inc.),
 the Gaussian 90(TM) system (copyright 1990, Gaussian, Inc.),
 the Gaussian 88(TM) system (copyright 1988, Gaussian, Inc.),
 the Gaussian 86(TM) system (copyright 1986, Carnegie Mellon
 University), and the Gaussian 82(TM) system (copyright 1983,
 Carnegie Mellon University). Gaussian is a federally registered
 trademark of Gaussian, Inc.
  
 This software contains proprietary and confidential information,
 including trade secrets, belonging to Gaussian, Inc.
  
 This software is provided under written license and may be
 used, copied, transmitted, or stored only in accord with that
 written license.
  
 The following legend is applicable only to US Government
 contracts under FAR:
  
                    RESTRICTED RIGHTS LEGEND
  
 Use, reproduction and disclosure by the US Government is
 subject to restrictions as set forth in subparagraphs (a)
 and (c) of the Commercial Computer Software - Restricted
 Rights clause in FAR 52.227-19.
  
 Gaussian, Inc.
 340 Quinnipiac St., Bldg. 40, Wallingford CT 06492
  
  
 ---------------------------------------------------------------
 Warning -- This program may not be used in any manner that
 competes with the business of Gaussian, Inc. or will provide
 assistance to any competitor of Gaussian, Inc.  The licensee
 of this program is prohibited from giving any competitor of
 Gaussian, Inc. access to this program.  By using this program,
 the user acknowledges that Gaussian, Inc. is engaged in the
 business of creating and licensing software in the field of
 computational chemistry and represents and warrants to the
 licensee that it is not a competitor of Gaussian, Inc. and that
 it will not use this program in any manner prohibited above.
 ---------------------------------------------------------------
  

 Cite this work as:
 Gaussian 16, Revision C.01,
 M. J. Frisch, G. W. Trucks, H. B. Schlegel, G. E. Scuseria, 
 M. A. Robb, J. R. Cheeseman, G. Scalmani, V. Barone, 
 G. A. Petersson, H. Nakatsuji, X. Li, M. Caricato, A. V. Marenich, 
 J. Bloino, B. G. Janesko, R. Gomperts, B. Mennucci, H. P. Hratchian, 
 J. V. Ortiz, A. F. Izmaylov, J. L. Sonnenberg, D. Williams-Young, 
 F. Ding, F. Lipparini, F. Egidi, J. Goings, B. Peng, A. Petrone, 
 T. Henderson, D. Ranasinghe, V. G. Zakrzewski, J. Gao, N. Rega, 
 G. Zheng, W. Liang, M. Hada, M. Ehara, K. Toyota, R. Fukuda, 
 J. Hasegawa, M. Ishida, T. Nakajima, Y. Honda, O. Kitao, H. Nakai, 
 T. Vreven, K. Throssell, J. A. Montgomery, Jr., J. E. Peralta, 
 F. Ogliaro, M. J. Bearpark, J. J. Heyd, E. N. Brothers, K. N. Kudin, 
 V. N. Staroverov, T. A. Keith, R. Kobayashi, J. Normand, 
 K. Raghavachari, A. P. Rendell, J. C. Burant, S. S. Iyengar, 
 J. Tomasi, M. Cossi, J. M. Millam, M. Klene, C. Adamo, R. Cammi, 
 J. W. Ochterski, R. L. Martin, K. Morokuma, O. Farkas, 
 J. B. Foresman, and D. J. Fox, Gaussian, Inc., Wallingford CT, 2019.
 
 ******************************************
 Gaussian 16:  ES64L-G16RevC.01  3-Jul-2019
                25-May-2025 
 ******************************************
 %mem=28GB
 %nprocshared=8
 Will use up to    8 processors via shared memory.
 ----------------------------------------------------------------------
 #P M062X/Def2TZVPP Symm(None) scf(xqc) pop(None) opt(NoFreeze,TS,CalcA
 ll,NoEigentest,MaxCycle=999)
 ----------------------------------------------------------------------
 1/5=1,6=999,10=4,11=1,18=20,26=3,29=2000,38=1/1,3;
 2/9=110,12=2,15=3,17=6,18=5,40=1/2;
 3/5=44,7=202,11=2,25=1,30=1,71=2,74=-55,140=1/1,2,3;
 4//1;
 5/5=2,8=3,13=1,38=5/2,8;
 8/6=4,10=90,11=11/1;
 11/6=1,8=1,9=11,15=111,16=1,31=1/1,2,10;
 10/6=1,31=1/2;
 7/10=1,25=1,30=1/1,2,3,16;
 1/5=1,6=999,10=4,11=1,18=20,26=3/3(3);
 2/9=110,15=3/2;
 7/8=1,9=1,25=1,30=1,44=-1/16;
 99//99;
 2/9=110,15=3/2;
 3/5=44,7=202,11=2,25=1,30=1,71=2,74=-55,140=1/1,2,3;
 4/5=5,16=3,69=1/1;
 5/5=2,8=3,13=1,38=5/2,8;
 8/6=4,10=90,11=11/1;
 11/6=1,8=1,9=11,15=111,16=1,31=1/1,2,10;
 10/6=1,31=1/2;
 7/10=1,25=1,30=1/1,2,3,16;
 1/5=1,6=999,10=4,11=1,18=20,26=3/3(-8);
 2/9=110,15=3/2;
 7/8=1,9=1,25=1,30=1,44=-1/16;
 99//99;
 Leave Link    1 at Sun May 25 04:22:06 2025, MaxMem=  3758096384 cpu:               0.0 elap:               0.0
 (Enter /apps/easybuild-2022/easybuild/software/Compiler/NVHPC/22.11-CUDA-11.7.0/Gaussian/g16c01-CUDA-11.7.0/g16/l101.exe)
 ------------------------------
 Gaussian input prepared by ASE
 ------------------------------
 Symbolic Z-matrix:
 Charge =  0 Multiplicity = 1
 C                     1.76714   0.        0. 
 O                     2.2495   -0.8902   -0.60719 
 C                     0.        0.        0. 
 F                     1.35279  -0.26873   1.4771 
 F                    -0.75933   0.90199   0.48224 
 F                    -0.62677  -1.09263  -0.09208 
 O                     2.17403   1.28095   0. 
 H                     1.74855   1.75885  -0.7196 
 
 ITRead=  0  0  0  0  0  0  0  0
 MicOpt= -1 -1 -1 -1 -1 -1 -1 -1
 NAtoms=      8 NQM=        8 NQMF=       0 NMMI=      0 NMMIF=      0
                NMic=       0 NMicF=      0.
                    Isotopes and Nuclear Properties:
 (Nuclear quadrupole moments (NQMom) in fm**2, nuclear magnetic moments (NMagM)
  in nuclear magnetons)

  Atom         1           2           3           4           5           6           7           8
 IAtWgt=          12          16          12          19          19          19          16           1
 AtmWgt=  12.0000000  15.9949146  12.0000000  18.9984032  18.9984032  18.9984032  15.9949146   1.0078250
 NucSpn=           0           0           0           1           1           1           0           1
 AtZEff=  -0.0000000  -0.0000000  -0.0000000  -0.0000000  -0.0000000  -0.0000000  -0.0000000  -0.0000000
 NQMom=    0.0000000   0.0000000   0.0000000   0.0000000   0.0000000   0.0000000   0.0000000   0.0000000
 NMagM=    0.0000000   0.0000000   0.0000000   2.6288670   2.6288670   2.6288670   0.0000000   2.7928460
 AtZNuc=   6.0000000   8.0000000   6.0000000   9.0000000   9.0000000   9.0000000   8.0000000   1.0000000
 Leave Link  101 at Sun May 25 04:22:06 2025, MaxMem=  3758096384 cpu:               0.2 elap:               0.2
 (Enter /apps/easybuild-2022/easybuild/software/Compiler/NVHPC/22.11-CUDA-11.7.0/Gaussian/g16c01-CUDA-11.7.0/g16/l103.exe)

 GradGradGradGradGradGradGradGradGradGradGradGradGradGradGradGradGradGrad
 Berny optimization.
 Initialization pass.
                           ----------------------------
                           !    Initial Parameters    !
                           ! (Angstroms and Degrees)  !
 --------------------------                            --------------------------
 ! Name  Definition              Value          Derivative Info.                !
 --------------------------------------------------------------------------------
 ! R1    R(1,2)                  1.1806         calculate D2E/DX2 analytically  !
 ! R2    R(1,3)                  1.7671         calculate D2E/DX2 analytically  !
 ! R3    R(1,4)                  1.5575         calculate D2E/DX2 analytically  !
 ! R4    R(1,7)                  1.344          calculate D2E/DX2 analytically  !
 ! R5    R(3,5)                  1.2739         calculate D2E/DX2 analytically  !
 ! R6    R(3,6)                  1.263          calculate D2E/DX2 analytically  !
 ! R7    R(7,8)                  0.9629         calculate D2E/DX2 analytically  !
 ! A1    A(2,1,3)              114.1152         calculate D2E/DX2 analytically  !
 ! A2    A(2,1,4)              117.7981         calculate D2E/DX2 analytically  !
 ! A3    A(2,1,7)              126.5092         calculate D2E/DX2 analytically  !
 ! A4    A(3,1,4)               74.5713         calculate D2E/DX2 analytically  !
 ! A5    A(3,1,7)              107.6223         calculate D2E/DX2 analytically  !
 ! A6    A(4,1,7)              104.1811         calculate D2E/DX2 analytically  !
 ! A7    A(1,3,5)              126.5901         calculate D2E/DX2 analytically  !
 ! A8    A(1,3,6)              119.7525         calculate D2E/DX2 analytically  !
 ! A9    A(5,3,6)              110.1423         calculate D2E/DX2 analytically  !
 ! A10   A(1,7,8)              109.83           calculate D2E/DX2 analytically  !
 ! D1    D(2,1,3,5)           -173.8335         calculate D2E/DX2 analytically  !
 ! D2    D(2,1,3,6)             29.4801         calculate D2E/DX2 analytically  !
 ! D3    D(4,1,3,5)             72.1807         calculate D2E/DX2 analytically  !
 ! D4    D(4,1,3,6)            -84.5057         calculate D2E/DX2 analytically  !
 ! D5    D(7,1,3,5)            -28.1305         calculate D2E/DX2 analytically  !
 ! D6    D(7,1,3,6)            175.1831         calculate D2E/DX2 analytically  !
 ! D7    D(2,1,7,8)             87.6184         calculate D2E/DX2 analytically  !
 ! D8    D(3,1,7,8)            -52.5992         calculate D2E/DX2 analytically  !
 ! D9    D(4,1,7,8)           -130.6148         calculate D2E/DX2 analytically  !
 --------------------------------------------------------------------------------
 Trust Radius=3.00D-01 FncErr=1.00D-07 GrdErr=1.00D-06 EigMax=2.50D+02 EigMin=1.00D-04
 Number of steps in this run=    100 maximum allowed number of steps=    100.
 Search for a saddle point of order  1.
 GradGradGradGradGradGradGradGradGradGradGradGradGradGradGradGradGradGrad

 Leave Link  103 at Sun May 25 04:22:06 2025, MaxMem=  3758096384 cpu:               0.1 elap:               0.0
 (Enter /apps/easybuild-2022/easybuild/software/Compiler/NVHPC/22.11-CUDA-11.7.0/Gaussian/g16c01-CUDA-11.7.0/g16/l202.exe)
                          Input orientation:                          
 ---------------------------------------------------------------------
 Center     Atomic      Atomic             Coordinates (Angstroms)
 Number     Number       Type             X           Y           Z
 ---------------------------------------------------------------------
      1          6           0        1.767137    0.000000    0.000000
      2          8           0        2.249496   -0.890202   -0.607186
      3          6           0        0.000000    0.000000    0.000000
      4          9           0        1.352787   -0.268733    1.477103
      5          9           0       -0.759332    0.901994    0.482236
      6          9           0       -0.626766   -1.092629   -0.092076
      7          8           0        2.174029    1.280954    0.000000
      8          1           0        1.748548    1.758848   -0.719603
 ---------------------------------------------------------------------
                    Distance matrix (angstroms):
                    1          2          3          4          5
     1  C    0.000000
     2  O    1.180595   0.000000
     3  C    1.767137   2.494266   0.000000
     4  F    1.557477   2.352567   2.020911   0.000000
     5  F    2.725653   3.667676   1.273864   2.611782   0.000000
     6  F    2.633075   2.929027   1.262993   2.657020   2.079886
     7  O    1.344025   2.255723   2.523340   2.292990   2.996793
     8  H    1.900453   2.698342   2.582401   3.015498   2.909996
                    6          7          8
     6  F    0.000000
     7  O    3.672441   0.000000
     8  H    3.763885   0.962936   0.000000
 Symmetry turned off by external request.
 Stoichiometry    C2HF3O2
 Rotational constants (GHZ):           3.9879297           2.3095867           1.9440803
 Leave Link  202 at Sun May 25 04:22:06 2025, MaxMem=  3758096384 cpu:               0.1 elap:               0.0
 (Enter /apps/easybuild-2022/easybuild/software/Compiler/NVHPC/22.11-CUDA-11.7.0/Gaussian/g16c01-CUDA-11.7.0/g16/l301.exe)
 Standard basis: def2TZVPP (5D, 7F)
 Ernie: Thresh=  0.10000D-02 Tol=  0.10000D-05 Strict=F.
   231 basis functions,   374 primitive gaussians,   267 cartesian basis functions
    28 alpha electrons       28 beta electrons
       nuclear repulsion energy       331.1346110811 Hartrees.
 IExCor= 4336 DFT=T Ex+Corr=M062X ExCW=0 ScaHFX=  0.540000
 ScaDFX=  1.000000  1.000000  1.000000  1.000000 ScalE2=  1.000000  1.000000
 IRadAn=      5 IRanWt=     -1 IRanGd=            0 ICorTp=0 IEmpDi=  4
 NAtoms=    8 NActive=    8 NUniq=    8 SFac= 1.00D+00 NAtFMM=   60 NAOKFM=F Big=F
 Integral buffers will be    131072 words long.
 Raffenetti 2 integral format.
 Two-electron integral symmetry is turned off.
 Leave Link  301 at Sun May 25 04:22:06 2025, MaxMem=  3758096384 cpu:               0.1 elap:               0.0
 (Enter /apps/easybuild-2022/easybuild/software/Compiler/NVHPC/22.11-CUDA-11.7.0/Gaussian/g16c01-CUDA-11.7.0/g16/l302.exe)
 NPDir=0 NMtPBC=     1 NCelOv=     1 NCel=       1 NClECP=     1 NCelD=      1
         NCelK=      1 NCelE2=     1 NClLst=     1 CellRange=     0.0.
 One-electron integrals computed using PRISM.
   1 Symmetry operations used in ECPInt.
 ECPInt:  NShTT=    3486 NPrTT=   11183 LenC2=    3397 LenP2D=    8656.
 LDataN:  DoStor=T MaxTD1= 6 Len=  172
 NBasis=   231 RedAO= T EigKep=  8.60D-04  NBF=   231
 NBsUse=   231 1.00D-06 EigRej= -1.00D+00 NBFU=   231
 Precomputing XC quadrature grid using
 IXCGrd= 4 IRadAn=           5 IRanWt=          -1 IRanGd=           0 AccXCQ= 0.00D+00.
 Generated NRdTot=       0 NPtTot=           0 NUsed=           0 NTot=          32
 NSgBfM=   264   264   264   264   264 MxSgAt=     8 MxSgA2=     8.
 Leave Link  302 at Sun May 25 04:22:06 2025, MaxMem=  3758096384 cpu:               0.7 elap:               0.2
 (Enter /apps/easybuild-2022/easybuild/software/Compiler/NVHPC/22.11-CUDA-11.7.0/Gaussian/g16c01-CUDA-11.7.0/g16/l303.exe)
 DipDrv:  MaxL=1.
 Leave Link  303 at Sun May 25 04:22:06 2025, MaxMem=  3758096384 cpu:               0.1 elap:               0.0
 (Enter /apps/easybuild-2022/easybuild/software/Compiler/NVHPC/22.11-CUDA-11.7.0/Gaussian/g16c01-CUDA-11.7.0/g16/l401.exe)
 ExpMin= 9.52D-02 ExpMax= 3.55D+04 ExpMxC= 1.21D+03 IAcc=3 IRadAn=         5 AccDes= 0.00D+00
 Harris functional with IExCor= 1009 and IRadAn=       5 diagonalized for initial guess.
 HarFok:  IExCor= 1009 AccDes= 0.00D+00 IRadAn=         5 IDoV= 1 UseB2=F ITyADJ=14
 ICtDFT=  3500011 ScaDFX=  1.000000  1.000000  1.000000  1.000000
 FoFCou: FMM=F IPFlag=           0 FMFlag=      100000 FMFlg1=           0
         NFxFlg=           0 DoJE=T BraDBF=F KetDBF=T FulRan=T
         wScrn=  0.000000 ICntrl=       500 IOpCl=  0 I1Cent=   200000004 NGrid=           0
         NMat0=    1 NMatS0=      1 NMatT0=    0 NMatD0=    1 NMtDS0=    0 NMtDT0=    0
 Symmetry not used in FoFCou.
 Harris En= -526.469361558257    
 JPrj=0 DoOrth=F DoCkMO=F.
 Leave Link  401 at Sun May 25 04:22:06 2025, MaxMem=  3758096384 cpu:               2.2 elap:               0.3
 (Enter /apps/easybuild-2022/easybuild/software/Compiler/NVHPC/22.11-CUDA-11.7.0/Gaussian/g16c01-CUDA-11.7.0/g16/l502.exe)
 Keep R1 ints in memory in canonical form, NReq=368651279.
 FoFCou: FMM=F IPFlag=           0 FMFlag=           0 FMFlg1=           0
         NFxFlg=           0 DoJE=F BraDBF=F KetDBF=F FulRan=T
         wScrn=  0.000000 ICntrl=       600 IOpCl=  0 I1Cent=           0 NGrid=           0
         NMat0=    1 NMatS0=  26796 NMatT0=    0 NMatD0=    1 NMtDS0=    0 NMtDT0=    0
 Symmetry not used in FoFCou.
 Two-electron integral symmetry not used.
 Closed shell SCF:
 Using DIIS extrapolation, IDIIS=  1040.
 NGot=  3758096384 LenX=  3398923531 LenY=  3398851801
 Requested convergence on RMS density matrix=1.00D-08 within  32 cycles.
 Requested convergence on MAX density matrix=1.00D-06.
 Requested convergence on             energy=1.00D-06.
 No special actions if energy rises.
 Integral accuracy reduced to 1.0D-05 until final iterations.

 Cycle   1  Pass 0  IDiag  1:
 E= -526.498303510881    
 DIIS: error= 2.08D-02 at cycle   1 NSaved=   1.
 NSaved= 1 IEnMin= 1 EnMin= -526.498303510881     IErMin= 1 ErrMin= 2.08D-02
 ErrMax= 2.08D-02  0.00D+00 EMaxC= 1.00D-01 BMatC= 3.53D-01 BMatP= 3.53D-01
 IDIUse=3 WtCom= 7.92D-01 WtEn= 2.08D-01
 Coeff-Com:  0.100D+01
 Coeff-En:   0.100D+01
 Coeff:      0.100D+01
 Gap=     0.207 Goal=   None    Shift=    0.000
 GapD=    0.207 DampG=1.000 DampE=0.500 DampFc=0.5000 IDamp=-1.
 Damping current iteration by 5.00D-01
 RMSDP=3.69D-03 MaxDP=1.23D-01              OVMax= 3.41D-01

 Cycle   2  Pass 0  IDiag  1:
 E= -526.552412194582     Delta-E=       -0.054108683702 Rises=F Damp=T
 DIIS: error= 8.97D-03 at cycle   2 NSaved=   2.
 NSaved= 2 IEnMin= 2 EnMin= -526.552412194582     IErMin= 2 ErrMin= 8.97D-03
 ErrMax= 8.97D-03  0.00D+00 EMaxC= 1.00D-01 BMatC= 4.41D-02 BMatP= 3.53D-01
 IDIUse=3 WtCom= 9.10D-01 WtEn= 8.97D-02
 Coeff-Com:  0.153D+00 0.847D+00
 Coeff-En:   0.354D+00 0.646D+00
 Coeff:      0.171D+00 0.829D+00
 Gap=     0.290 Goal=   None    Shift=    0.000
 RMSDP=9.84D-04 MaxDP=3.13D-02 DE=-5.41D-02 OVMax= 2.69D-01

 Cycle   3  Pass 0  IDiag  1:
 E= -526.705025825550     Delta-E=       -0.152613630968 Rises=F Damp=F
 DIIS: error= 4.41D-03 at cycle   3 NSaved=   3.
 NSaved= 3 IEnMin= 3 EnMin= -526.705025825550     IErMin= 3 ErrMin= 4.41D-03
 ErrMax= 4.41D-03  0.00D+00 EMaxC= 1.00D-01 BMatC= 1.29D-02 BMatP= 4.41D-02
 IDIUse=3 WtCom= 9.56D-01 WtEn= 4.41D-02
 Coeff-Com: -0.362D-01 0.299D+00 0.737D+00
 Coeff-En:   0.000D+00 0.000D+00 0.100D+01
 Coeff:     -0.346D-01 0.286D+00 0.749D+00
 Gap=     0.293 Goal=   None    Shift=    0.000
 RMSDP=4.00D-04 MaxDP=1.35D-02 DE=-1.53D-01 OVMax= 3.60D-02

 Cycle   4  Pass 0  IDiag  1:
 E= -526.711858514181     Delta-E=       -0.006832688631 Rises=F Damp=F
 DIIS: error= 2.70D-03 at cycle   4 NSaved=   4.
 NSaved= 4 IEnMin= 4 EnMin= -526.711858514181     IErMin= 4 ErrMin= 2.70D-03
 ErrMax= 2.70D-03  0.00D+00 EMaxC= 1.00D-01 BMatC= 4.45D-03 BMatP= 1.29D-02
 IDIUse=3 WtCom= 9.73D-01 WtEn= 2.70D-02
 Coeff-Com: -0.424D-01 0.764D-01 0.420D+00 0.546D+00
 Coeff-En:   0.000D+00 0.000D+00 0.188D+00 0.812D+00
 Coeff:     -0.413D-01 0.743D-01 0.413D+00 0.553D+00
 Gap=     0.296 Goal=   None    Shift=    0.000
 RMSDP=1.61D-04 MaxDP=5.55D-03 DE=-6.83D-03 OVMax= 1.59D-02

 Cycle   5  Pass 0  IDiag  1:
 E= -526.714760564298     Delta-E=       -0.002902050117 Rises=F Damp=F
 DIIS: error= 3.90D-04 at cycle   5 NSaved=   5.
 NSaved= 5 IEnMin= 5 EnMin= -526.714760564298     IErMin= 5 ErrMin= 3.90D-04
 ErrMax= 3.90D-04  0.00D+00 EMaxC= 1.00D-01 BMatC= 1.10D-04 BMatP= 4.45D-03
 IDIUse=3 WtCom= 9.96D-01 WtEn= 3.90D-03
 Coeff-Com: -0.118D-01 0.127D-01 0.896D-01 0.188D+00 0.721D+00
 Coeff-En:   0.000D+00 0.000D+00 0.000D+00 0.000D+00 0.100D+01
 Coeff:     -0.118D-01 0.126D-01 0.893D-01 0.187D+00 0.722D+00
 Gap=     0.296 Goal=   None    Shift=    0.000
 RMSDP=4.32D-05 MaxDP=1.27D-03 DE=-2.90D-03 OVMax= 3.93D-03

 Cycle   6  Pass 0  IDiag  1:
 E= -526.714857371892     Delta-E=       -0.000096807594 Rises=F Damp=F
 DIIS: error= 2.28D-04 at cycle   6 NSaved=   6.
 NSaved= 6 IEnMin= 6 EnMin= -526.714857371892     IErMin= 6 ErrMin= 2.28D-04
 ErrMax= 2.28D-04  0.00D+00 EMaxC= 1.00D-01 BMatC= 2.56D-05 BMatP= 1.10D-04
 IDIUse=3 WtCom= 9.98D-01 WtEn= 2.28D-03
 Coeff-Com: -0.436D-03-0.284D-02-0.146D-01 0.150D-01 0.345D+00 0.658D+00
 Coeff-En:   0.000D+00 0.000D+00 0.000D+00 0.000D+00 0.000D+00 0.100D+01
 Coeff:     -0.435D-03-0.284D-02-0.145D-01 0.150D-01 0.344D+00 0.658D+00
 Gap=     0.298 Goal=   None    Shift=    0.000
 RMSDP=1.98D-05 MaxDP=7.73D-04 DE=-9.68D-05 OVMax= 2.72D-03

 Cycle   7  Pass 0  IDiag  1:
 E= -526.714882290242     Delta-E=       -0.000024918350 Rises=F Damp=F
 DIIS: error= 7.45D-05 at cycle   7 NSaved=   7.
 NSaved= 7 IEnMin= 7 EnMin= -526.714882290242     IErMin= 7 ErrMin= 7.45D-05
 ErrMax= 7.45D-05  0.00D+00 EMaxC= 1.00D-01 BMatC= 2.95D-06 BMatP= 2.56D-05
 IDIUse=1 WtCom= 1.00D+00 WtEn= 0.00D+00
 Coeff-Com:  0.214D-02-0.388D-02-0.247D-01-0.326D-01-0.711D-02 0.254D+00
 Coeff-Com:  0.812D+00
 Coeff:      0.214D-02-0.388D-02-0.247D-01-0.326D-01-0.711D-02 0.254D+00
 Coeff:      0.812D+00
 Gap=     0.298 Goal=   None    Shift=    0.000
 RMSDP=1.13D-05 MaxDP=2.59D-04 DE=-2.49D-05 OVMax= 1.50D-03

 Cycle   8  Pass 0  IDiag  1:
 E= -526.714886967824     Delta-E=       -0.000004677582 Rises=F Damp=F
 DIIS: error= 2.13D-05 at cycle   8 NSaved=   8.
 NSaved= 8 IEnMin= 8 EnMin= -526.714886967824     IErMin= 8 ErrMin= 2.13D-05
 ErrMax= 2.13D-05  0.00D+00 EMaxC= 1.00D-01 BMatC= 2.38D-07 BMatP= 2.95D-06
 IDIUse=1 WtCom= 1.00D+00 WtEn= 0.00D+00
 Coeff-Com:  0.638D-03-0.834D-03-0.450D-02-0.848D-02-0.314D-01 0.161D-01
 Coeff-Com:  0.228D+00 0.801D+00
 Coeff:      0.638D-03-0.834D-03-0.450D-02-0.848D-02-0.314D-01 0.161D-01
 Coeff:      0.228D+00 0.801D+00
 Gap=     0.298 Goal=   None    Shift=    0.000
 RMSDP=3.23D-06 MaxDP=7.85D-05 DE=-4.68D-06 OVMax= 4.80D-04

 Initial convergence to 1.0D-05 achieved.  Increase integral accuracy.
 Cycle   9  Pass 1  IDiag  1:
 E= -526.714886789916     Delta-E=        0.000000177908 Rises=F Damp=F
 DIIS: error= 1.74D-05 at cycle   1 NSaved=   1.
 NSaved= 1 IEnMin= 1 EnMin= -526.714886789916     IErMin= 1 ErrMin= 1.74D-05
 ErrMax= 1.74D-05  0.00D+00 EMaxC= 1.00D-01 BMatC= 2.74D-07 BMatP= 2.74D-07
 IDIUse=1 WtCom= 1.00D+00 WtEn= 0.00D+00
 Coeff-Com:  0.100D+01
 Coeff:      0.100D+01
 Gap=     0.298 Goal=   None    Shift=    0.000
 RMSDP=3.23D-06 MaxDP=7.85D-05 DE= 1.78D-07 OVMax= 1.55D-04

 Cycle  10  Pass 1  IDiag  1:
 E= -526.714887003807     Delta-E=       -0.000000213891 Rises=F Damp=F
 DIIS: error= 1.25D-05 at cycle   2 NSaved=   2.
 NSaved= 2 IEnMin= 2 EnMin= -526.714887003807     IErMin= 2 ErrMin= 1.25D-05
 ErrMax= 1.25D-05  0.00D+00 EMaxC= 1.00D-01 BMatC= 5.02D-08 BMatP= 2.74D-07
 IDIUse=1 WtCom= 1.00D+00 WtEn= 0.00D+00
 Coeff-Com:  0.192D+00 0.808D+00
 Coeff:      0.192D+00 0.808D+00
 Gap=     0.298 Goal=   None    Shift=    0.000
 RMSDP=1.05D-06 MaxDP=3.75D-05 DE=-2.14D-07 OVMax= 8.54D-05

 Cycle  11  Pass 1  IDiag  1:
 E= -526.714887024650     Delta-E=       -0.000000020843 Rises=F Damp=F
 DIIS: error= 8.73D-06 at cycle   3 NSaved=   3.
 NSaved= 3 IEnMin= 3 EnMin= -526.714887024650     IErMin= 3 ErrMin= 8.73D-06
 ErrMax= 8.73D-06  0.00D+00 EMaxC= 1.00D-01 BMatC= 3.19D-08 BMatP= 5.02D-08
 IDIUse=1 WtCom= 1.00D+00 WtEn= 0.00D+00
 Coeff-Com: -0.394D-01 0.444D+00 0.596D+00
 Coeff:     -0.394D-01 0.444D+00 0.596D+00
 Gap=     0.298 Goal=   None    Shift=    0.000
 RMSDP=4.66D-07 MaxDP=1.57D-05 DE=-2.08D-08 OVMax= 2.86D-05

 Cycle  12  Pass 1  IDiag  1:
 E= -526.714887044620     Delta-E=       -0.000000019969 Rises=F Damp=F
 DIIS: error= 1.26D-06 at cycle   4 NSaved=   4.
 NSaved= 4 IEnMin= 4 EnMin= -526.714887044620     IErMin= 4 ErrMin= 1.26D-06
 ErrMax= 1.26D-06  0.00D+00 EMaxC= 1.00D-01 BMatC= 7.36D-10 BMatP= 3.19D-08
 IDIUse=1 WtCom= 1.00D+00 WtEn= 0.00D+00
 Coeff-Com: -0.198D-01 0.114D+00 0.186D+00 0.720D+00
 Coeff:     -0.198D-01 0.114D+00 0.186D+00 0.720D+00
 Gap=     0.298 Goal=   None    Shift=    0.000
 RMSDP=1.32D-07 MaxDP=4.93D-06 DE=-2.00D-08 OVMax= 1.86D-05

 Cycle  13  Pass 1  IDiag  1:
 E= -526.714887045517     Delta-E=       -0.000000000897 Rises=F Damp=F
 DIIS: error= 7.18D-07 at cycle   5 NSaved=   5.
 NSaved= 5 IEnMin= 5 EnMin= -526.714887045517     IErMin= 5 ErrMin= 7.18D-07
 ErrMax= 7.18D-07  0.00D+00 EMaxC= 1.00D-01 BMatC= 2.48D-10 BMatP= 7.36D-10
 IDIUse=1 WtCom= 1.00D+00 WtEn= 0.00D+00
 Coeff-Com:  0.320D-02-0.829D-01-0.990D-01 0.339D+00 0.840D+00
 Coeff:      0.320D-02-0.829D-01-0.990D-01 0.339D+00 0.840D+00
 Gap=     0.298 Goal=   None    Shift=    0.000
 RMSDP=1.01D-07 MaxDP=3.00D-06 DE=-8.97D-10 OVMax= 1.33D-05

 Cycle  14  Pass 1  IDiag  1:
 E= -526.714887045888     Delta-E=       -0.000000000372 Rises=F Damp=F
 DIIS: error= 2.60D-07 at cycle   6 NSaved=   6.
 NSaved= 6 IEnMin= 6 EnMin= -526.714887045888     IErMin= 6 ErrMin= 2.60D-07
 ErrMax= 2.60D-07  0.00D+00 EMaxC= 1.00D-01 BMatC= 3.62D-11 BMatP= 2.48D-10
 IDIUse=1 WtCom= 1.00D+00 WtEn= 0.00D+00
 Coeff-Com:  0.352D-02-0.529D-01-0.675D-01 0.984D-01 0.413D+00 0.606D+00
 Coeff:      0.352D-02-0.529D-01-0.675D-01 0.984D-01 0.413D+00 0.606D+00
 Gap=     0.298 Goal=   None    Shift=    0.000
 RMSDP=2.60D-08 MaxDP=7.29D-07 DE=-3.72D-10 OVMax= 3.91D-06

 Cycle  15  Pass 1  IDiag  1:
 E= -526.714887045901     Delta-E=       -0.000000000013 Rises=F Damp=F
 DIIS: error= 6.26D-08 at cycle   7 NSaved=   7.
 NSaved= 7 IEnMin= 7 EnMin= -526.714887045901     IErMin= 7 ErrMin= 6.26D-08
 ErrMax= 6.26D-08  0.00D+00 EMaxC= 1.00D-01 BMatC= 2.68D-12 BMatP= 3.62D-11
 IDIUse=1 WtCom= 1.00D+00 WtEn= 0.00D+00
 Coeff-Com:  0.289D-03 0.822D-03 0.108D-02-0.352D-01-0.470D-01 0.172D+00
 Coeff-Com:  0.908D+00
 Coeff:      0.289D-03 0.822D-03 0.108D-02-0.352D-01-0.470D-01 0.172D+00
 Coeff:      0.908D+00
 Gap=     0.298 Goal=   None    Shift=    0.000
 RMSDP=1.33D-08 MaxDP=3.27D-07 DE=-1.30D-11 OVMax= 1.48D-06

 Cycle  16  Pass 1  IDiag  1:
 E= -526.714887045922     Delta-E=       -0.000000000021 Rises=F Damp=F
 DIIS: error= 2.19D-08 at cycle   8 NSaved=   8.
 NSaved= 8 IEnMin= 8 EnMin= -526.714887045922     IErMin= 8 ErrMin= 2.19D-08
 ErrMax= 2.19D-08  0.00D+00 EMaxC= 1.00D-01 BMatC= 4.23D-13 BMatP= 2.68D-12
 IDIUse=1 WtCom= 1.00D+00 WtEn= 0.00D+00
 Coeff-Com: -0.157D-03 0.466D-02 0.624D-02-0.238D-01-0.540D-01 0.205D-01
 Coeff-Com:  0.402D+00 0.644D+00
 Coeff:     -0.157D-03 0.466D-02 0.624D-02-0.238D-01-0.540D-01 0.205D-01
 Coeff:      0.402D+00 0.644D+00
 Gap=     0.298 Goal=   None    Shift=    0.000
 RMSDP=2.71D-09 MaxDP=7.09D-08 DE=-2.07D-11 OVMax= 2.72D-07

 SCF Done:  E(RM062X) =  -526.714887046     A.U. after   16 cycles
            NFock= 16  Conv=0.27D-08     -V/T= 2.0037
 KE= 5.247896666978D+02 PE=-1.910057948339D+03 EE= 5.274187835137D+02
 Leave Link  502 at Sun May 25 04:22:18 2025, MaxMem=  3758096384 cpu:              54.2 elap:              11.2
 (Enter /apps/easybuild-2022/easybuild/software/Compiler/NVHPC/22.11-CUDA-11.7.0/Gaussian/g16c01-CUDA-11.7.0/g16/l508.exe)
 QCSCF skips out because SCF is already converged.
 Leave Link  508 at Sun May 25 04:22:18 2025, MaxMem=  3758096384 cpu:               0.1 elap:               0.0
 (Enter /apps/easybuild-2022/easybuild/software/Compiler/NVHPC/22.11-CUDA-11.7.0/Gaussian/g16c01-CUDA-11.7.0/g16/l801.exe)
 DoSCS=F DFT=T ScalE2(SS,OS)=  1.000000  1.000000
 Range of M.O.s used for correlation:     1   231
 NBasis=   231 NAE=    28 NBE=    28 NFC=     0 NFV=     0
 NROrb=    231 NOA=    28 NOB=    28 NVA=   203 NVB=   203

 **** Warning!!: The largest alpha MO coefficient is  0.10533802D+02

 Leave Link  801 at Sun May 25 04:22:18 2025, MaxMem=  3758096384 cpu:               0.0 elap:               0.0
 (Enter /apps/easybuild-2022/easybuild/software/Compiler/NVHPC/22.11-CUDA-11.7.0/Gaussian/g16c01-CUDA-11.7.0/g16/l1101.exe)
 Using compressed storage, NAtomX=     8.
 Will process      9 centers per pass.
   1 Symmetry operations used in ECPInt.
 ECPInt:  NShTT=    3486 NPrTT=   11183 LenC2=    3397 LenP2D=    8656.
 LDataN:  DoStor=T MaxTD1= 7 Len=  274
 Leave Link 1101 at Sun May 25 04:22:18 2025, MaxMem=  3758096384 cpu:               1.1 elap:               0.2
 (Enter /apps/easybuild-2022/easybuild/software/Compiler/NVHPC/22.11-CUDA-11.7.0/Gaussian/g16c01-CUDA-11.7.0/g16/l1102.exe)
 Symmetrizing basis deriv contribution to polar:
 IMax=3 JMax=2 DiffMx= 0.00D+00
 Leave Link 1102 at Sun May 25 04:22:18 2025, MaxMem=  3758096384 cpu:               0.1 elap:               0.0
 (Enter /apps/easybuild-2022/easybuild/software/Compiler/NVHPC/22.11-CUDA-11.7.0/Gaussian/g16c01-CUDA-11.7.0/g16/l1110.exe)
 Forming Gx(P) for the SCF density, NAtomX=     8.
 Integral derivatives from FoFJK, PRISM(SPDF).
 Do as many integral derivatives as possible in FoFJK.
 G2DrvN: MDV=    3758095424.
 G2DrvN: will do     9 centers at a time, making    1 passes.
 Calling FoFCou, ICntrl=  3107 FMM=F I1Cent=   0 AccDes= 0.00D+00.
 FoFJK:  IHMeth= 1 ICntrl=    3107 DoSepK=F KAlg= 0 I1Cent=           0 FoldK=F
 IRaf=         0 NMat=       1 IRICut=       1 DoRegI=T DoRafI=F ISym2E= 0 IDoP0=0 IntGTp=1.
 FoFCou: FMM=F IPFlag=           0 FMFlag=      100000 FMFlg1=           0
         NFxFlg=           0 DoJE=F BraDBF=F KetDBF=F FulRan=T
         wScrn=  0.000000 ICntrl=      3107 IOpCl=  0 I1Cent=           0 NGrid=           0
         NMat0=    1 NMatS0=      1 NMatT0=    0 NMatD0=    1 NMtDS0=    0 NMtDT0=    0
 Symmetry not used in FoFCou.
 End of G2Drv F.D. properties file   721 does not exist.
 End of G2Drv F.D. properties file   722 does not exist.
 End of G2Drv F.D. properties file   788 does not exist.
 Leave Link 1110 at Sun May 25 04:22:34 2025, MaxMem=  3758096384 cpu:             123.2 elap:              15.7
 (Enter /apps/easybuild-2022/easybuild/software/Compiler/NVHPC/22.11-CUDA-11.7.0/Gaussian/g16c01-CUDA-11.7.0/g16/l1002.exe)
 Minotr:  Closed shell wavefunction.
          IDoAtm=11111111
          Direct CPHF calculation.
          Differentiating once with respect to electric field.
                with respect to dipole field.
          Differentiating once with respect to nuclear coordinates.
          Requested convergence is 1.0D-08 RMS, and 1.0D-07 maximum.
          Secondary convergence is 1.0D-12 RMS, and 1.0D-12 maximum.
          NewPWx=T KeepS1=F KeepF1=F KeepIn=T MapXYZ=F SortEE=F KeepMc=T.
         2392 words used for storage of precomputed grid.
 Keep R1 ints in memory in canonical form, NReq=368655240.
 FoFCou: FMM=F IPFlag=           0 FMFlag=           0 FMFlg1=           0
         NFxFlg=           0 DoJE=F BraDBF=F KetDBF=F FulRan=T
         wScrn=  0.000000 ICntrl=       600 IOpCl=  0 I1Cent=           0 NGrid=           0
         NMat0=    1 NMatS0=  26796 NMatT0=    0 NMatD0=    1 NMtDS0=    0 NMtDT0=    0
 Symmetry not used in FoFCou.
 Two-electron integral symmetry not used.
          MDV=    3758096384 using IRadAn=       1.
          Solving linear equations simultaneously, MaxMat=       0.
          There are    27 degrees of freedom in the 1st order CPHF.  IDoFFX=6 NUNeed=     3.
     24 vectors produced by pass  0 Test12= 2.11D-14 3.70D-09 XBig12= 1.88D+01 2.06D+00.
 AX will form    24 AO Fock derivatives at one time.
     24 vectors produced by pass  1 Test12= 2.11D-14 3.70D-09 XBig12= 3.07D+00 3.30D-01.
     24 vectors produced by pass  2 Test12= 2.11D-14 3.70D-09 XBig12= 1.61D-01 7.82D-02.
     24 vectors produced by pass  3 Test12= 2.11D-14 3.70D-09 XBig12= 3.43D-03 9.49D-03.
     24 vectors produced by pass  4 Test12= 2.11D-14 3.70D-09 XBig12= 4.43D-05 1.18D-03.
     24 vectors produced by pass  5 Test12= 2.11D-14 3.70D-09 XBig12= 3.96D-07 1.09D-04.
     24 vectors produced by pass  6 Test12= 2.11D-14 3.70D-09 XBig12= 2.34D-09 6.23D-06.
     11 vectors produced by pass  7 Test12= 2.11D-14 3.70D-09 XBig12= 9.41D-12 3.67D-07.
      3 vectors produced by pass  8 Test12= 2.11D-14 3.70D-09 XBig12= 4.26D-14 2.36D-08.
 InvSVY:  IOpt=1 It=  1 EMax= 2.22D-15
 Solved reduced A of dimension   182 with    27 vectors.
 FullF1:  Do perturbations      1 to       3.
 Isotropic polarizability for W=    0.000000       36.41 Bohr**3.
 End of Minotr F.D. properties file   721 does not exist.
 End of Minotr F.D. properties file   722 does not exist.
 End of Minotr F.D. properties file   788 does not exist.
 Leave Link 1002 at Sun May 25 04:22:57 2025, MaxMem=  3758096384 cpu:             180.6 elap:              23.0
 (Enter /apps/easybuild-2022/easybuild/software/Compiler/NVHPC/22.11-CUDA-11.7.0/Gaussian/g16c01-CUDA-11.7.0/g16/l701.exe)
 ... and contract with generalized density number  0.
 Compute integral second derivatives.
   1 Symmetry operations used in ECPInt.
 ECPInt:  NShTT=    3486 NPrTT=   11183 LenC2=    3397 LenP2D=    8656.
 LDataN:  DoStor=T MaxTD1= 8 Len=  415
 Leave Link  701 at Sun May 25 04:22:57 2025, MaxMem=  3758096384 cpu:               1.1 elap:               0.2
 (Enter /apps/easybuild-2022/easybuild/software/Compiler/NVHPC/22.11-CUDA-11.7.0/Gaussian/g16c01-CUDA-11.7.0/g16/l702.exe)
 L702 exits ... SP integral derivatives will be done elsewhere.
 Leave Link  702 at Sun May 25 04:22:57 2025, MaxMem=  3758096384 cpu:               0.1 elap:               0.0
 (Enter /apps/easybuild-2022/easybuild/software/Compiler/NVHPC/22.11-CUDA-11.7.0/Gaussian/g16c01-CUDA-11.7.0/g16/l703.exe)
 Integral derivatives from FoFJK, PRISM(SPDF).
 Compute integral second derivatives, UseDBF=F ICtDFT=           0.
 Calling FoFJK, ICntrl=    100127 FMM=F ISym2X=0 I1Cent= 0 IOpClX= 0 NMat=1 NMatS=1 NMatT=0.
 FoFJK:  IHMeth= 1 ICntrl=  100127 DoSepK=F KAlg= 0 I1Cent=           0 FoldK=F
 IRaf=         0 NMat=       1 IRICut=       1 DoRegI=T DoRafI=F ISym2E= 0 IDoP0=0 IntGTp=1.
 FoFCou: FMM=F IPFlag=           0 FMFlag=      100000 FMFlg1=         800
         NFxFlg=           0 DoJE=F BraDBF=F KetDBF=F FulRan=T
         wScrn=  0.000000 ICntrl=    100127 IOpCl=  0 I1Cent=           0 NGrid=           0
         NMat0=    1 NMatS0=      1 NMatT0=    0 NMatD0=    1 NMtDS0=    0 NMtDT0=    0
 Symmetry not used in FoFCou.
 Leave Link  703 at Sun May 25 04:23:34 2025, MaxMem=  3758096384 cpu:             284.1 elap:              36.5
 (Enter /apps/easybuild-2022/easybuild/software/Compiler/NVHPC/22.11-CUDA-11.7.0/Gaussian/g16c01-CUDA-11.7.0/g16/l716.exe)
 Dipole        =-1.51818405D+00 9.40596190D-01-6.87664192D-01
 Polarizability= 4.14023410D+01-1.99719938D+00 3.57612458D+01
                -4.15502061D-02 1.17247868D+00 3.20697954D+01
 -------------------------------------------------------------------
 Center     Atomic                   Forces (Hartrees/Bohr)
 Number     Number              X              Y              Z
 -------------------------------------------------------------------
      1        6          -0.004540425   -0.004979158    0.002540132
      2        8           0.001948570   -0.008984251    0.002353120
      3        6          -0.000913717    0.003071602    0.004386857
      4        9           0.003133998    0.002069624   -0.016018133
      5        9          -0.000069681   -0.000411325    0.000492446
      6        9           0.000730804   -0.001336897    0.000506030
      7        8          -0.004682840    0.011445794    0.006468027
      8        1           0.004393291   -0.000875389   -0.000728481
 -------------------------------------------------------------------
 Cartesian Forces:  Max     0.016018133 RMS     0.005245924
 Force constants in Cartesian coordinates: 
                1             2             3             4             5 
      1  0.280359D+00
      2 -0.151976D+00  0.907376D+00
      3 -0.166607D+00  0.286004D+00  0.322362D+00
      4 -0.195725D+00  0.235298D+00  0.154293D+00  0.222854D+00
      5  0.198830D+00 -0.514985D+00 -0.270467D+00 -0.262257D+00  0.589421D+00
      6  0.133428D+00 -0.281860D+00 -0.257250D+00 -0.191772D+00  0.331199D+00
      7 -0.171909D-01 -0.231300D-01  0.747027D-01 -0.333331D-01  0.217998D-01
      8 -0.387068D-01 -0.127056D-01 -0.907367D-02  0.364416D-01 -0.195309D-01
      9  0.853424D-01 -0.122990D-01  0.335172D-01  0.259998D-03  0.139553D-03
     10 -0.541288D-01  0.180003D-01 -0.775155D-01  0.559334D-02  0.741455D-02
     11  0.205266D-02 -0.545904D-01 -0.851005D-02  0.512930D-02  0.139291D-01
     12  0.156319D-01 -0.158312D-02 -0.213816D-01  0.240657D-01 -0.186092D-01
     13  0.384285D-01  0.171034D-01  0.166118D-01 -0.188293D-01  0.688467D-02
     14 -0.750595D-02 -0.824754D-02  0.373403D-02  0.286590D-02  0.152145D-02
     15 -0.348783D-01 -0.933539D-02 -0.274479D-02  0.105629D-01 -0.372958D-02
     16  0.322867D-01 -0.294165D-01  0.991576D-03 -0.402146D-02  0.111413D-01
     17  0.326855D-01 -0.156006D-01 -0.114593D-01 -0.652905D-02  0.123259D-01
     18 -0.244440D-01  0.554307D-02  0.157858D-02  0.215917D-02 -0.322049D-02
     19 -0.926108D-01 -0.542806D-01 -0.893171D-02  0.241864D-01  0.154572D-01
     20 -0.540633D-01 -0.269792D+00 -0.231266D-01 -0.743692D-02 -0.836278D-01
     21 -0.994531D-02  0.148597D-01 -0.768916D-01  0.170484D-02 -0.302986D-01
     22  0.858118D-02 -0.115993D-01  0.645513D-02 -0.724801D-03  0.729973D-03
     23  0.186839D-01 -0.314546D-01  0.328984D-01 -0.351199D-02  0.945885D-03
     24  0.147215D-02 -0.132932D-02  0.809797D-03 -0.127366D-02 -0.501359D-02
                6             7             8             9            10 
      6  0.290158D+00
      7  0.305981D-02  0.516153D+00
      8 -0.118919D-01  0.645552D-01  0.614345D+00
      9  0.248284D-02 -0.189354D+00  0.116354D+00  0.193683D+00
     10  0.435810D-01  0.362381D-01  0.267087D-02  0.252550D-02  0.225602D-01
     11 -0.208737D-01  0.409578D-02 -0.105303D-01  0.160928D-01 -0.389627D-02
     12 -0.458273D-01 -0.264073D-01  0.235273D-01 -0.798092D-01  0.424772D-02
     13  0.355737D-02 -0.255481D+00  0.147445D+00  0.105591D+00 -0.869063D-02
     14 -0.943500D-03  0.140490D+00 -0.213405D+00 -0.102363D+00  0.129745D-01
     15 -0.348134D-02  0.124883D+00 -0.102744D+00 -0.101263D+00  0.262522D-02
     16  0.419580D-02 -0.223172D+00 -0.183718D+00  0.761329D-02 -0.765111D-02
     17  0.810901D-02 -0.195985D+00 -0.342945D+00 -0.116215D-01 -0.151122D-01
     18 -0.303225D-02  0.224769D-01 -0.145270D-01 -0.449290D-01 -0.170435D-02
     19  0.907825D-03 -0.222164D-01 -0.248818D-01 -0.121920D-01  0.115520D-01
     20 -0.201391D-01 -0.952927D-02 -0.173954D-01 -0.844864D-02 -0.198260D-01
     21  0.205282D-01 -0.893771D-02 -0.174494D-02 -0.321108D-02  0.239656D-01
     22  0.304206D-02 -0.997006D-03 -0.380679D-02  0.214736D-03 -0.547309D-02
     23 -0.359954D-02 -0.229675D-02  0.216705D-02  0.214638D-02 -0.222570D-02
     24 -0.357788D-02 -0.422552D-03  0.101003D-03 -0.470724D-03  0.227485D-02
               11            12            13            14            15 
     11  0.681752D-01
     12 -0.197020D-01  0.136268D+00
     13  0.298168D-02 -0.144662D-01  0.208844D+00
     14 -0.545175D-03  0.463319D-02 -0.170748D+00  0.321582D+00
     15  0.234803D-02  0.190075D-01 -0.101981D+00  0.135408D+00  0.863200D-01
     16  0.968050D-03 -0.996113D-02  0.404556D-01  0.186406D-01 -0.508128D-02
     17  0.462672D-02 -0.126394D-01  0.541609D-02 -0.106970D+00 -0.290489D-01
     18 -0.753522D-02  0.108693D-01 -0.805794D-02 -0.398800D-01  0.172783D-02
     19 -0.586034D-02  0.244727D-02 -0.259173D-02  0.146241D-02  0.206400D-02
     20 -0.198098D-01  0.248792D-01 -0.105263D-01  0.711823D-02  0.753402D-02
     21  0.361796D-01 -0.189540D-01 -0.178352D-02  0.583684D-04  0.747410D-03
     22 -0.547086D-02  0.444205D-02 -0.213537D-02  0.182096D-02  0.180610D-02
     23 -0.125525D-02 -0.505952D-03  0.144342D-02 -0.105461D-02 -0.431826D-03
     24  0.200052D-02 -0.173174D-03  0.529244D-03 -0.646981D-03 -0.313552D-03
               16            17            18            19            20 
     16  0.175298D+00
     17  0.186514D+00  0.450018D+00
     18  0.468034D-02  0.570724D-01  0.326032D-01
     19 -0.139718D-01 -0.741996D-02  0.444432D-02  0.206615D+00
     20 -0.646460D-02 -0.229403D-02  0.306402D-02 -0.634791D-02  0.530474D+00
     21 -0.127701D-03  0.121768D-02  0.603651D-03  0.190645D+00 -0.187503D+00
     22  0.776366D-03  0.430371D-03  0.445515D-03 -0.110962D+00  0.114194D+00
     23  0.233481D-02  0.838507D-03 -0.516768D-03  0.818710D-01 -0.144673D+00
     24 -0.231090D-02 -0.162984D-02  0.578608D-03 -0.179385D+00  0.203740D+00
               21            22            23            24 
     21  0.370614D+00
     22 -0.195521D+00  0.110935D+00
     23  0.167231D+00 -0.962987D-01  0.174486D+00
     24 -0.293437D+00  0.179116D+00 -0.197222D+00  0.296583D+00
 FormGI is forming the generalized inverse of G from B-inverse, IUseBI=4.
 Force constants in internal coordinates: 
                1             2             3             4             5 
      1  0.948107D+00
      2  0.585403D-01  0.238940D-01
      3  0.514420D-01  0.548914D-01  0.130143D+00
      4  0.653843D-01  0.363242D-01  0.331673D-01  0.440195D+00
      5  0.124908D-01 -0.219892D-02  0.142579D-01  0.137966D-01  0.510570D+00
      6  0.196587D-01 -0.580054D-02  0.104628D-01  0.672158D-02  0.858471D-01
      7 -0.288219D-02 -0.341948D-02 -0.193189D-02 -0.176843D-03 -0.164546D-02
      8  0.197951D-01  0.259905D-01 -0.179354D-02 -0.420001D-01  0.147503D-01
      9  0.596004D-02  0.206377D-02 -0.308508D-02 -0.190844D-01 -0.322017D-02
     10  0.243304D-01 -0.336334D-01 -0.144146D-01  0.248036D-01 -0.952292D-02
     11 -0.181058D-01 -0.236959D-01  0.685217D-01 -0.223283D-01  0.321087D-01
     12 -0.401224D-01  0.375967D-01 -0.163833D-01  0.220883D-01 -0.765398D-02
     13 -0.143209D-01  0.308454D-05  0.204204D-02  0.173590D-01 -0.925026D-02
     14  0.121492D-01 -0.354846D-02  0.329390D-02 -0.665958D-03 -0.149284D-01
     15 -0.314763D-02 -0.134942D-02 -0.486897D-03  0.644085D-02 -0.351343D-01
     16 -0.104403D-01  0.118333D-01 -0.749574D-02 -0.662715D-02  0.495977D-01
     17 -0.741005D-04  0.908044D-03  0.574555D-02  0.544368D-01 -0.298489D-03
     18 -0.907305D-02  0.147369D-02  0.142392D-01 -0.158432D-01  0.806673D-02
     19 -0.194102D-02 -0.232370D-01  0.308754D-01 -0.118064D-01 -0.932080D-03
     20 -0.694719D-02  0.105771D-01 -0.770847D-02  0.903421D-02  0.133930D-02
     21  0.184842D-03 -0.141335D-01  0.892769D-02  0.130710D-01 -0.765951D-02
     22  0.441399D-02  0.254082D-01 -0.322303D-01  0.142206D-02  0.802076D-03
     23  0.115460D-01  0.697593D-03 -0.155941D-01  0.545885D-02 -0.819673D-02
     24 -0.161493D-02  0.332688D-01 -0.120567D-01 -0.134689D-01  0.979211D-02
     25 -0.104618D-01 -0.263661D-01  0.364553D-01 -0.360365D-02  0.729332D-02
     26  0.203885D-01 -0.827304D-02 -0.340466D-01  0.112863D-01 -0.229806D-01
                6             7             8             9            10 
      6  0.547841D+00
      7 -0.247666D-02  0.537052D+00
      8 -0.113061D-01  0.280742D-02  0.112377D+00
      9 -0.762187D-02  0.115759D-02  0.131255D-01  0.520354D-01
     10 -0.470117D-02 -0.275357D-03 -0.545080D-01 -0.253737D-01  0.112657D+00
     11  0.345133D-01  0.929320D-04  0.194726D-01 -0.211772D-01  0.123465D-02
     12  0.132515D-01 -0.527996D-02 -0.530585D-01  0.471600D-02 -0.661455D-01
     13 -0.662166D-02  0.136063D-02 -0.747411D-02 -0.201944D-01 -0.261860D-01
     14 -0.345819D-01  0.622235D-03  0.222719D-01 -0.194849D-02 -0.354802D-02
     15 -0.156124D-01 -0.214487D-02 -0.185792D-01  0.110811D-02 -0.130478D-02
     16  0.498198D-01  0.160549D-02 -0.362466D-02  0.849695D-03  0.540805D-02
     17 -0.219109D-02  0.211245D-01 -0.406864D-02 -0.374509D-03  0.218128D-02
     18  0.907319D-02  0.158976D-02  0.589261D-02  0.204336D-01 -0.171403D-01
     19 -0.952953D-03  0.102385D-02  0.718752D-02  0.201644D-01 -0.201296D-01
     20  0.362546D-02  0.570665D-03 -0.413707D-02 -0.277024D-01  0.471974D-02
     21 -0.640069D-02  0.476239D-05 -0.284216D-02 -0.279716D-01  0.173042D-02
     22  0.426927D-02 -0.209008D-02 -0.132469D-01  0.782811D-03  0.177384D-01
     23 -0.575687D-02 -0.265599D-02 -0.119520D-01  0.513658D-03  0.147491D-01
     24  0.871377D-02 -0.167278D-02  0.369386D-01 -0.102796D-01 -0.350777D-01
     25  0.158948D-01  0.160328D-02 -0.151776D-01 -0.682176D-02  0.120949D-01
     26 -0.216469D-01  0.214322D-02 -0.237899D-01  0.203371D-01  0.305034D-01
               11            12            13            14            15 
     11  0.632349D-01
     12 -0.113670D-01  0.143135D+00
     13 -0.271667D-01  0.198856D-01  0.655063D-01
     14  0.183611D-03 -0.173979D-01  0.944358D-03  0.998467D-01
     15 -0.255304D-02  0.233360D-01 -0.839141D-03  0.987438D-02  0.103029D+00
     16  0.143061D-02 -0.650730D-02  0.760249D-04 -0.102729D+00 -0.106872D+00
     17 -0.112054D-01 -0.109039D-02  0.902552D-02  0.733567D-03 -0.330315D-02
     18 -0.426495D-02  0.106116D-02  0.620168D-03 -0.388070D-03 -0.419620D-02
     19 -0.153949D-02  0.357788D-02  0.577903D-04  0.137293D-02 -0.169727D-02
     20 -0.217399D-02 -0.541481D-02  0.320482D-01  0.398050D-02 -0.639006D-02
     21  0.551476D-03 -0.289810D-02  0.314859D-01  0.574150D-02 -0.389112D-02
     22  0.719262D-02  0.823460D-02 -0.263788D-01 -0.957431D-03  0.403612D-03
     23  0.991809D-02  0.107513D-01 -0.269412D-01  0.803565D-03  0.290255D-02
     24  0.361034D-01  0.241806D-01 -0.192218D-01  0.496818D-02  0.965512D-03
     25  0.156195D-01 -0.556767D-02  0.383830D-03 -0.482486D-02  0.147107D-02
     26 -0.422837D-01 -0.261591D-01  0.780216D-02 -0.195558D-02 -0.333488D-04
               16            17            18            19            20 
     16  0.199677D+00
     17  0.218551D-02  0.159358D+00
     18  0.792582D-02 -0.119286D-02  0.203100D-01
     19 -0.402074D-02 -0.376095D-03  0.800384D-02  0.227739D-01
     20  0.609255D-02  0.291472D-02 -0.372239D-05 -0.128811D-01  0.308537D-01
     21 -0.585401D-02  0.373148D-02 -0.123098D-01  0.188895D-02  0.179763D-01
     22  0.417161D-02 -0.395390D-02  0.730268D-03 -0.117264D-01 -0.413508D-02
     23 -0.777495D-02 -0.313713D-02 -0.115758D-01  0.304359D-02 -0.170124D-01
     24 -0.621148D-02 -0.124439D-01 -0.787651D-02 -0.556430D-02 -0.601894D-02
     25  0.305565D-02 -0.621246D-02  0.326498D-02  0.343595D-02  0.347535D-02
     26  0.275153D-02  0.349911D-02  0.744270D-02  0.437910D-02 -0.186039D-02
               21            22            23            24            25 
     21  0.321751D-01
     22 -0.165918D-01  0.240323D-01
     23 -0.239300D-02  0.115756D-01  0.261950D-01
     24 -0.370673D-02  0.101406D-01  0.124528D-01  0.486748D-01
     25  0.364633D-02 -0.243509D-02 -0.226412D-02 -0.870713D-02  0.113628D-01
     26 -0.492398D-02 -0.452669D-02 -0.759029D-02 -0.466151D-01 -0.433603D-02
               26 
     26  0.436364D-01
 Leave Link  716 at Sun May 25 04:23:34 2025, MaxMem=  3758096384 cpu:               0.1 elap:               0.0
 (Enter /apps/easybuild-2022/easybuild/software/Compiler/NVHPC/22.11-CUDA-11.7.0/Gaussian/g16c01-CUDA-11.7.0/g16/l103.exe)

 GradGradGradGradGradGradGradGradGradGradGradGradGradGradGradGradGradGrad
 Berny optimization.
 Red2BG is reusing G-inverse.
 Internal  Forces:  Max     0.016382660 RMS     0.004828777
 Search for a saddle point.
 Step number   1 out of a maximum of  100
 All quantities printed in internal units (Hartrees-Bohrs-Radians)
 Swapping is turned off.
 Second derivative matrix not updated -- analytic derivatives used.
 ITU=  0
     Eigenvalues ---   -0.08295  -0.00666   0.00853   0.02642   0.06522
     Eigenvalues ---    0.07482   0.12833   0.13837   0.16107   0.16992
     Eigenvalues ---    0.21396   0.24626   0.29771   0.44604   0.46481
     Eigenvalues ---    0.53851   0.64767   0.97066
 Eigenvectors required to have negative eigenvalues:
                          R2        R3        A4        D5        D2
   1                   -0.63576   0.43729  -0.33847   0.25333  -0.22601
                          D8        D7        A1        A5        D9
   1                   -0.22038   0.21331   0.14484   0.12743   0.12024
 Eigenvalue     2 is  -6.66D-03 should be greater than     0.000000 Eigenvector:
                          D9        D7        D8        R2        D1
   1                    0.58606   0.56097   0.55996   0.10190  -0.06839
                          D5        A10       A6        D3        A4
   1                   -0.06514   0.04777   0.03814  -0.03540  -0.03539
 RFO step:  Lambda0=3.794929626D-05 Lambda=-9.02115586D-03.
 Linear search not attempted -- option 19 set.
 Iteration  1 RMS(Cart)=  0.05338784 RMS(Int)=  0.08092791
 Iteration  2 RMS(Cart)=  0.05941693 RMS(Int)=  0.01420061
 Iteration  3 RMS(Cart)=  0.01351332 RMS(Int)=  0.00046668
 Iteration  4 RMS(Cart)=  0.00025756 RMS(Int)=  0.00035491
 Iteration  5 RMS(Cart)=  0.00000007 RMS(Int)=  0.00035491
 ITry= 1 IFail=0 DXMaxC= 4.24D-01 DCOld= 1.00D+10 DXMaxT= 3.00D-01 DXLimC= 3.00D+00 Rises=F
 Variable       Old X    -DE/DX   Delta X   Delta X   Delta X     New X
                                 (Linear)    (Quad)   (Total)
    R1        2.23100   0.00636   0.00000   0.01293   0.01293   2.24393
    R2        3.33940   0.00025   0.00000  -0.07804  -0.07804   3.26137
    R3        2.94321  -0.01638   0.00000  -0.07559  -0.07559   2.86761
    R4        2.53984   0.00998   0.00000   0.03166   0.03166   2.57150
    R5        2.40725  -0.00006   0.00000  -0.00558  -0.00558   2.40168
    R6        2.38671   0.00076   0.00000   0.00618   0.00618   2.39289
    R7        1.81969  -0.00183   0.00000  -0.00070  -0.00070   1.81899
    A1        1.99169   0.00186   0.00000   0.03694   0.03597   2.02765
    A2        2.05597  -0.00260   0.00000  -0.01013  -0.00981   2.04616
    A3        2.20800   0.00482   0.00000   0.02382   0.02285   2.23086
    A4        1.30151  -0.00539   0.00000  -0.02397  -0.02415   1.27736
    A5        1.87836  -0.00182   0.00000  -0.01193  -0.01281   1.86555
    A6        1.81830  -0.00168   0.00000  -0.03867  -0.03892   1.77939
    A7        2.20941   0.00109   0.00000  -0.00411  -0.00411   2.20530
    A8        2.09008  -0.00226   0.00000  -0.00235  -0.00235   2.08773
    A9        1.92235   0.00083   0.00000   0.00626   0.00626   1.92861
   A10        1.91689   0.00215   0.00000  -0.02810  -0.02810   1.88880
    D1       -3.03397  -0.00479   0.00000  -0.01172  -0.01203  -3.04599
    D2        0.51452  -0.00380   0.00000  -0.01249  -0.01280   0.50173
    D3        1.25979   0.00023   0.00000   0.01203   0.01225   1.27204
    D4       -1.47490   0.00123   0.00000   0.01126   0.01148  -1.46342
    D5       -0.49097   0.00310   0.00000   0.05738   0.05747  -0.43350
    D6        3.05752   0.00410   0.00000   0.05661   0.05670   3.11422
    D7        1.52923   0.00045   0.00000  -0.38783  -0.38761   1.14162
    D8       -0.91803  -0.00691   0.00000  -0.47127  -0.47125  -1.38928
    D9       -2.27966  -0.00036   0.00000  -0.43295  -0.43319  -2.71285
         Item               Value     Threshold  Converged?
 Maximum Force            0.016383     0.000450     NO 
 RMS     Force            0.004829     0.000300     NO 
 Maximum Displacement     0.423951     0.001800     NO 
 RMS     Displacement     0.115195     0.001200     NO 
 Predicted change in Energy=-6.272765D-03
 Lowest energy point so far.  Saving SCF results.
 GradGradGradGradGradGradGradGradGradGradGradGradGradGradGradGradGradGrad

 Leave Link  103 at Sun May 25 04:23:34 2025, MaxMem=  3758096384 cpu:               0.1 elap:               0.0
 (Enter /apps/easybuild-2022/easybuild/software/Compiler/NVHPC/22.11-CUDA-11.7.0/Gaussian/g16c01-CUDA-11.7.0/g16/l202.exe)
                          Input orientation:                          
 ---------------------------------------------------------------------
 Center     Atomic      Atomic             Coordinates (Angstroms)
 Number     Number       Type             X           Y           Z
 ---------------------------------------------------------------------
      1          6           0        1.710129    0.026202   -0.014695
      2          8           0        2.240197   -0.842746   -0.626219
      3          6           0       -0.014628   -0.016407    0.029139
      4          9           0        1.314816   -0.274947    1.419100
      5          9           0       -0.777225    0.862956    0.539417
      6          9           0       -0.615616   -1.127489   -0.058831
      7          8           0        2.075331    1.334779    0.062604
      8          1           0        1.972893    1.727884   -0.810041
 ---------------------------------------------------------------------
                    Distance matrix (angstroms):
                    1          2          3          4          5
     1  C    0.000000
     2  O    1.187436   0.000000
     3  C    1.725840   2.489290   0.000000
     4  F    1.517475   2.315611   1.940684   0.000000
     5  F    2.682187   3.656906   1.270912   2.538760   0.000000
     6  F    2.596544   2.925521   1.266265   2.576369   2.084680
     7  O    1.360779   2.289819   2.488926   2.238231   2.930366
     8  H    1.896666   2.591019   2.774349   3.068137   3.183125
                    6          7          8
     6  F    0.000000
     7  O    3.649480   0.000000
     8  H    3.926557   0.962567   0.000000
 Symmetry turned off by external request.
 Stoichiometry    C2HF3O2
 Rotational constants (GHZ):           4.0665903           2.3931890           1.9671626
 Leave Link  202 at Sun May 25 04:23:34 2025, MaxMem=  3758096384 cpu:               0.1 elap:               0.0
 (Enter /apps/easybuild-2022/easybuild/software/Compiler/NVHPC/22.11-CUDA-11.7.0/Gaussian/g16c01-CUDA-11.7.0/g16/l301.exe)
 Standard basis: def2TZVPP (5D, 7F)
 Ernie: Thresh=  0.10000D-02 Tol=  0.10000D-05 Strict=F.
   231 basis functions,   374 primitive gaussians,   267 cartesian basis functions
    28 alpha electrons       28 beta electrons
       nuclear repulsion energy       334.1156140461 Hartrees.
 IExCor= 4336 DFT=T Ex+Corr=M062X ExCW=0 ScaHFX=  0.540000
 ScaDFX=  1.000000  1.000000  1.000000  1.000000 ScalE2=  1.000000  1.000000
 IRadAn=      5 IRanWt=     -1 IRanGd=            0 ICorTp=0 IEmpDi=  4
 NAtoms=    8 NActive=    8 NUniq=    8 SFac= 1.00D+00 NAtFMM=   60 NAOKFM=F Big=F
 Integral buffers will be    131072 words long.
 Raffenetti 2 integral format.
 Two-electron integral symmetry is turned off.
 Leave Link  301 at Sun May 25 04:23:34 2025, MaxMem=  3758096384 cpu:               0.1 elap:               0.0
 (Enter /apps/easybuild-2022/easybuild/software/Compiler/NVHPC/22.11-CUDA-11.7.0/Gaussian/g16c01-CUDA-11.7.0/g16/l302.exe)
 NPDir=0 NMtPBC=     1 NCelOv=     1 NCel=       1 NClECP=     1 NCelD=      1
         NCelK=      1 NCelE2=     1 NClLst=     1 CellRange=     0.0.
 One-electron integrals computed using PRISM.
   1 Symmetry operations used in ECPInt.
 ECPInt:  NShTT=    3486 NPrTT=   11183 LenC2=    3400 LenP2D=    8674.
 LDataN:  DoStor=T MaxTD1= 6 Len=  172
 NBasis=   231 RedAO= T EigKep=  7.59D-04  NBF=   231
 NBsUse=   231 1.00D-06 EigRej= -1.00D+00 NBFU=   231
 Precomputing XC quadrature grid using
 IXCGrd= 4 IRadAn=           5 IRanWt=          -1 IRanGd=           0 AccXCQ= 0.00D+00.
 Generated NRdTot=       0 NPtTot=           0 NUsed=           0 NTot=          32
 NSgBfM=   265   265   265   265   265 MxSgAt=     8 MxSgA2=     8.
 Leave Link  302 at Sun May 25 04:23:34 2025, MaxMem=  3758096384 cpu:               0.7 elap:               0.2
 (Enter /apps/easybuild-2022/easybuild/software/Compiler/NVHPC/22.11-CUDA-11.7.0/Gaussian/g16c01-CUDA-11.7.0/g16/l303.exe)
 DipDrv:  MaxL=1.
 Leave Link  303 at Sun May 25 04:23:34 2025, MaxMem=  3758096384 cpu:               0.1 elap:               0.1
 (Enter /apps/easybuild-2022/easybuild/software/Compiler/NVHPC/22.11-CUDA-11.7.0/Gaussian/g16c01-CUDA-11.7.0/g16/l401.exe)
 Initial guess from the checkpoint file:  "/tmp/Gau-269678.chk"
 B after Tr=    -0.052914   -0.025979    0.038788
         Rot=    0.999870   -0.009695   -0.005643   -0.011577 Ang=  -1.85 deg.
 Guess basis will be translated and rotated to current coordinates.
 JPrj=2 DoOrth=T DoCkMO=T.
 Generating alternative initial guess.
 ExpMin= 9.52D-02 ExpMax= 3.55D+04 ExpMxC= 1.21D+03 IAcc=3 IRadAn=         5 AccDes= 0.00D+00
 Harris functional with IExCor= 1009 and IRadAn=       5 diagonalized for initial guess.
 HarFok:  IExCor= 1009 AccDes= 0.00D+00 IRadAn=         5 IDoV= 1 UseB2=F ITyADJ=14
 ICtDFT=  3500011 ScaDFX=  1.000000  1.000000  1.000000  1.000000
 FoFCou: FMM=F IPFlag=           0 FMFlag=      100000 FMFlg1=           0
         NFxFlg=           0 DoJE=T BraDBF=F KetDBF=T FulRan=T
         wScrn=  0.000000 ICntrl=       500 IOpCl=  0 I1Cent=   200000004 NGrid=           0
         NMat0=    1 NMatS0=      1 NMatT0=    0 NMatD0=    1 NMtDS0=    0 NMtDT0=    0
 Symmetry not used in FoFCou.
 Harris En= -526.470814278503    
 Leave Link  401 at Sun May 25 04:23:35 2025, MaxMem=  3758096384 cpu:               2.8 elap:               0.8
 (Enter /apps/easybuild-2022/easybuild/software/Compiler/NVHPC/22.11-CUDA-11.7.0/Gaussian/g16c01-CUDA-11.7.0/g16/l502.exe)
 Keep R1 ints in memory in canonical form, NReq=368651279.
 FoFCou: FMM=F IPFlag=           0 FMFlag=           0 FMFlg1=           0
         NFxFlg=           0 DoJE=F BraDBF=F KetDBF=F FulRan=T
         wScrn=  0.000000 ICntrl=       600 IOpCl=  0 I1Cent=           0 NGrid=           0
         NMat0=    1 NMatS0=  26796 NMatT0=    0 NMatD0=    1 NMtDS0=    0 NMtDT0=    0
 Symmetry not used in FoFCou.
 Two-electron integral symmetry not used.
 Closed shell SCF:
 Using DIIS extrapolation, IDIIS=  1040.
 NGot=  3758096384 LenX=  3398923531 LenY=  3398851801
 Requested convergence on RMS density matrix=1.00D-08 within  32 cycles.
 Requested convergence on MAX density matrix=1.00D-06.
 Requested convergence on             energy=1.00D-06.
 No special actions if energy rises.
 Integral accuracy reduced to 1.0D-05 until final iterations.

 Cycle   1  Pass 0  IDiag  1:
 E= -526.693966210354    
 DIIS: error= 8.36D-03 at cycle   1 NSaved=   1.
 NSaved= 1 IEnMin= 1 EnMin= -526.693966210354     IErMin= 1 ErrMin= 8.36D-03
 ErrMax= 8.36D-03  0.00D+00 EMaxC= 1.00D-01 BMatC= 2.40D-02 BMatP= 2.40D-02
 IDIUse=3 WtCom= 9.16D-01 WtEn= 8.36D-02
 Coeff-Com:  0.100D+01
 Coeff-En:   0.100D+01
 Coeff:      0.100D+01
 Gap=     1.094 Goal=   None    Shift=    0.000
 GapD=    1.094 DampG=2.000 DampE=1.000 DampFc=2.0000 IDamp=-1.
 RMSDP=7.52D-04 MaxDP=4.15D-02              OVMax= 6.01D-02

 Cycle   2  Pass 0  IDiag  1:
 E= -526.719042692001     Delta-E=       -0.025076481647 Rises=F Damp=F
 DIIS: error= 1.95D-03 at cycle   2 NSaved=   2.
 NSaved= 2 IEnMin= 2 EnMin= -526.719042692001     IErMin= 2 ErrMin= 1.95D-03
 ErrMax= 1.95D-03  0.00D+00 EMaxC= 1.00D-01 BMatC= 1.02D-03 BMatP= 2.40D-02
 IDIUse=3 WtCom= 9.81D-01 WtEn= 1.95D-02
 Coeff-Com: -0.556D-01 0.106D+01
 Coeff-En:   0.000D+00 0.100D+01
 Coeff:     -0.545D-01 0.105D+01
 Gap=     0.303 Goal=   None    Shift=    0.000
 RMSDP=1.69D-04 MaxDP=8.88D-03 DE=-2.51D-02 OVMax= 1.61D-02

 Cycle   3  Pass 0  IDiag  1:
 E= -526.719988243061     Delta-E=       -0.000945551060 Rises=F Damp=F
 DIIS: error= 1.20D-03 at cycle   3 NSaved=   3.
 NSaved= 3 IEnMin= 3 EnMin= -526.719988243061     IErMin= 3 ErrMin= 1.20D-03
 ErrMax= 1.20D-03  0.00D+00 EMaxC= 1.00D-01 BMatC= 6.20D-04 BMatP= 1.02D-03
 IDIUse=3 WtCom= 9.88D-01 WtEn= 1.20D-02
 Coeff-Com: -0.604D-01 0.474D+00 0.586D+00
 Coeff-En:   0.000D+00 0.000D+00 0.100D+01
 Coeff:     -0.597D-01 0.469D+00 0.591D+00
 Gap=     0.302 Goal=   None    Shift=    0.000
 RMSDP=6.70D-05 MaxDP=3.41D-03 DE=-9.46D-04 OVMax= 6.59D-03

 Cycle   4  Pass 0  IDiag  1:
 E= -526.720392485930     Delta-E=       -0.000404242868 Rises=F Damp=F
 DIIS: error= 3.28D-04 at cycle   4 NSaved=   4.
 NSaved= 4 IEnMin= 4 EnMin= -526.720392485930     IErMin= 4 ErrMin= 3.28D-04
 ErrMax= 3.28D-04  0.00D+00 EMaxC= 1.00D-01 BMatC= 4.90D-05 BMatP= 6.20D-04
 IDIUse=3 WtCom= 9.97D-01 WtEn= 3.28D-03
 Coeff-Com: -0.955D-02-0.338D-03 0.209D+00 0.801D+00
 Coeff-En:   0.000D+00 0.000D+00 0.000D+00 0.100D+01
 Coeff:     -0.952D-02-0.337D-03 0.208D+00 0.802D+00
 Gap=     0.301 Goal=   None    Shift=    0.000
 RMSDP=2.64D-05 MaxDP=1.06D-03 DE=-4.04D-04 OVMax= 2.42D-03

 Cycle   5  Pass 0  IDiag  1:
 E= -526.720435182094     Delta-E=       -0.000042696164 Rises=F Damp=F
 DIIS: error= 7.72D-05 at cycle   5 NSaved=   5.
 NSaved= 5 IEnMin= 5 EnMin= -526.720435182094     IErMin= 5 ErrMin= 7.72D-05
 ErrMax= 7.72D-05  0.00D+00 EMaxC= 1.00D-01 BMatC= 4.20D-06 BMatP= 4.90D-05
 IDIUse=1 WtCom= 1.00D+00 WtEn= 0.00D+00
 Coeff-Com:  0.163D-02-0.417D-01 0.280D-01 0.289D+00 0.723D+00
 Coeff:      0.163D-02-0.417D-01 0.280D-01 0.289D+00 0.723D+00
 Gap=     0.302 Goal=   None    Shift=    0.000
 RMSDP=9.73D-06 MaxDP=3.43D-04 DE=-4.27D-05 OVMax= 9.73D-04

 Initial convergence to 1.0D-05 achieved.  Increase integral accuracy.
 Cycle   6  Pass 1  IDiag  1:
 E= -526.720426593617     Delta-E=        0.000008588476 Rises=F Damp=F
 DIIS: error= 4.88D-05 at cycle   1 NSaved=   1.
 NSaved= 1 IEnMin= 1 EnMin= -526.720426593617     IErMin= 1 ErrMin= 4.88D-05
 ErrMax= 4.88D-05  0.00D+00 EMaxC= 1.00D-01 BMatC= 1.72D-06 BMatP= 1.72D-06
 IDIUse=1 WtCom= 1.00D+00 WtEn= 0.00D+00
 Coeff-Com:  0.100D+01
 Coeff:      0.100D+01
 Gap=     0.301 Goal=   None    Shift=    0.000
 RMSDP=9.73D-06 MaxDP=3.43D-04 DE= 8.59D-06 OVMax= 7.75D-04

 Cycle   7  Pass 1  IDiag  1:
 E= -526.720426095921     Delta-E=        0.000000497696 Rises=F Damp=F
 DIIS: error= 6.20D-05 at cycle   2 NSaved=   2.
 NSaved= 2 IEnMin= 1 EnMin= -526.720426593617     IErMin= 1 ErrMin= 4.88D-05
 ErrMax= 6.20D-05  0.00D+00 EMaxC= 1.00D-01 BMatC= 3.03D-06 BMatP= 1.72D-06
 IDIUse=1 WtCom= 1.00D+00 WtEn= 0.00D+00
 Coeff-Com:  0.575D+00 0.425D+00
 Coeff:      0.575D+00 0.425D+00
 Gap=     0.302 Goal=   None    Shift=    0.000
 RMSDP=4.21D-06 MaxDP=1.76D-04 DE= 4.98D-07 OVMax= 3.92D-04

 Cycle   8  Pass 1  IDiag  1:
 E= -526.720428060628     Delta-E=       -0.000001964707 Rises=F Damp=F
 DIIS: error= 8.10D-06 at cycle   3 NSaved=   3.
 NSaved= 3 IEnMin= 3 EnMin= -526.720428060628     IErMin= 3 ErrMin= 8.10D-06
 ErrMax= 8.10D-06  0.00D+00 EMaxC= 1.00D-01 BMatC= 3.81D-08 BMatP= 1.72D-06
 IDIUse=1 WtCom= 1.00D+00 WtEn= 0.00D+00
 Coeff-Com: -0.270D-01 0.595D-01 0.967D+00
 Coeff:     -0.270D-01 0.595D-01 0.967D+00
 Gap=     0.302 Goal=   None    Shift=    0.000
 RMSDP=1.24D-06 MaxDP=3.70D-05 DE=-1.96D-06 OVMax= 9.35D-05

 Cycle   9  Pass 1  IDiag  1:
 E= -526.720428111171     Delta-E=       -0.000000050543 Rises=F Damp=F
 DIIS: error= 4.29D-06 at cycle   4 NSaved=   4.
 NSaved= 4 IEnMin= 4 EnMin= -526.720428111171     IErMin= 4 ErrMin= 4.29D-06
 ErrMax= 4.29D-06  0.00D+00 EMaxC= 1.00D-01 BMatC= 1.13D-08 BMatP= 3.81D-08
 IDIUse=1 WtCom= 1.00D+00 WtEn= 0.00D+00
 Coeff-Com: -0.711D-01-0.129D-01 0.442D+00 0.642D+00
 Coeff:     -0.711D-01-0.129D-01 0.442D+00 0.642D+00
 Gap=     0.302 Goal=   None    Shift=    0.000
 RMSDP=4.36D-07 MaxDP=1.29D-05 DE=-5.05D-08 OVMax= 4.34D-05

 Cycle  10  Pass 1  IDiag  1:
 E= -526.720428123042     Delta-E=       -0.000000011871 Rises=F Damp=F
 DIIS: error= 1.78D-06 at cycle   5 NSaved=   5.
 NSaved= 5 IEnMin= 5 EnMin= -526.720428123042     IErMin= 5 ErrMin= 1.78D-06
 ErrMax= 1.78D-06  0.00D+00 EMaxC= 1.00D-01 BMatC= 1.09D-09 BMatP= 1.13D-08
 IDIUse=1 WtCom= 1.00D+00 WtEn= 0.00D+00
 Coeff-Com: -0.588D-02-0.125D-01-0.142D+00 0.129D+00 0.103D+01
 Coeff:     -0.588D-02-0.125D-01-0.142D+00 0.129D+00 0.103D+01
 Gap=     0.302 Goal=   None    Shift=    0.000
 RMSDP=2.71D-07 MaxDP=9.05D-06 DE=-1.19D-08 OVMax= 3.06D-05

 Cycle  11  Pass 1  IDiag  1:
 E= -526.720428125192     Delta-E=       -0.000000002150 Rises=F Damp=F
 DIIS: error= 5.64D-07 at cycle   6 NSaved=   6.
 NSaved= 6 IEnMin= 6 EnMin= -526.720428125192     IErMin= 6 ErrMin= 5.64D-07
 ErrMax= 5.64D-07  0.00D+00 EMaxC= 1.00D-01 BMatC= 1.00D-10 BMatP= 1.09D-09
 IDIUse=1 WtCom= 1.00D+00 WtEn= 0.00D+00
 Coeff-Com:  0.404D-02-0.260D-02-0.874D-01-0.629D-02 0.346D+00 0.747D+00
 Coeff:      0.404D-02-0.260D-02-0.874D-01-0.629D-02 0.346D+00 0.747D+00
 Gap=     0.302 Goal=   None    Shift=    0.000
 RMSDP=5.62D-08 MaxDP=2.18D-06 DE=-2.15D-09 OVMax= 6.08D-06

 Cycle  12  Pass 1  IDiag  1:
 E= -526.720428125300     Delta-E=       -0.000000000108 Rises=F Damp=F
 DIIS: error= 1.85D-07 at cycle   7 NSaved=   7.
 NSaved= 7 IEnMin= 7 EnMin= -526.720428125300     IErMin= 7 ErrMin= 1.85D-07
 ErrMax= 1.85D-07  0.00D+00 EMaxC= 1.00D-01 BMatC= 2.00D-11 BMatP= 1.00D-10
 IDIUse=1 WtCom= 1.00D+00 WtEn= 0.00D+00
 Coeff-Com:  0.281D-02 0.356D-03-0.262D-01-0.171D-01 0.479D-01 0.333D+00
 Coeff-Com:  0.659D+00
 Coeff:      0.281D-02 0.356D-03-0.262D-01-0.171D-01 0.479D-01 0.333D+00
 Coeff:      0.659D+00
 Gap=     0.302 Goal=   None    Shift=    0.000
 RMSDP=1.76D-08 MaxDP=4.57D-07 DE=-1.08D-10 OVMax= 1.65D-06

 Cycle  13  Pass 1  IDiag  1:
 E= -526.720428125315     Delta-E=       -0.000000000015 Rises=F Damp=F
 DIIS: error= 6.33D-08 at cycle   8 NSaved=   8.
 NSaved= 8 IEnMin= 8 EnMin= -526.720428125315     IErMin= 8 ErrMin= 6.33D-08
 ErrMax= 6.33D-08  0.00D+00 EMaxC= 1.00D-01 BMatC= 1.73D-12 BMatP= 2.00D-11
 IDIUse=1 WtCom= 1.00D+00 WtEn= 0.00D+00
 Coeff-Com:  0.788D-04 0.481D-03 0.649D-02-0.178D-02-0.368D-01-0.414D-01
 Coeff-Com:  0.169D+00 0.904D+00
 Coeff:      0.788D-04 0.481D-03 0.649D-02-0.178D-02-0.368D-01-0.414D-01
 Coeff:      0.169D+00 0.904D+00
 Gap=     0.302 Goal=   None    Shift=    0.000
 RMSDP=9.37D-09 MaxDP=2.89D-07 DE=-1.55D-11 OVMax= 1.05D-06

 SCF Done:  E(RM062X) =  -526.720428125     A.U. after   13 cycles
            NFock= 13  Conv=0.94D-08     -V/T= 2.0036
 KE= 5.248124110527D+02 PE=-1.916034367324D+03 EE= 5.303859140995D+02
 Leave Link  502 at Sun May 25 04:23:45 2025, MaxMem=  3758096384 cpu:              50.2 elap:               9.9
 (Enter /apps/easybuild-2022/easybuild/software/Compiler/NVHPC/22.11-CUDA-11.7.0/Gaussian/g16c01-CUDA-11.7.0/g16/l508.exe)
 QCSCF skips out because SCF is already converged.
 Leave Link  508 at Sun May 25 04:23:45 2025, MaxMem=  3758096384 cpu:               0.1 elap:               0.0
 (Enter /apps/easybuild-2022/easybuild/software/Compiler/NVHPC/22.11-CUDA-11.7.0/Gaussian/g16c01-CUDA-11.7.0/g16/l801.exe)
 DoSCS=F DFT=T ScalE2(SS,OS)=  1.000000  1.000000
 Range of M.O.s used for correlation:     1   231
 NBasis=   231 NAE=    28 NBE=    28 NFC=     0 NFV=     0
 NROrb=    231 NOA=    28 NOB=    28 NVA=   203 NVB=   203

 **** Warning!!: The largest alpha MO coefficient is  0.10194020D+02

 Leave Link  801 at Sun May 25 04:23:45 2025, MaxMem=  3758096384 cpu:               0.1 elap:               0.0
 (Enter /apps/easybuild-2022/easybuild/software/Compiler/NVHPC/22.11-CUDA-11.7.0/Gaussian/g16c01-CUDA-11.7.0/g16/l1101.exe)
 Using compressed storage, NAtomX=     8.
 Will process      9 centers per pass.
   1 Symmetry operations used in ECPInt.
 ECPInt:  NShTT=    3486 NPrTT=   11183 LenC2=    3400 LenP2D=    8674.
 LDataN:  DoStor=T MaxTD1= 7 Len=  274
 Leave Link 1101 at Sun May 25 04:23:45 2025, MaxMem=  3758096384 cpu:               1.0 elap:               0.2
 (Enter /apps/easybuild-2022/easybuild/software/Compiler/NVHPC/22.11-CUDA-11.7.0/Gaussian/g16c01-CUDA-11.7.0/g16/l1102.exe)
 Symmetrizing basis deriv contribution to polar:
 IMax=3 JMax=2 DiffMx= 0.00D+00
 Leave Link 1102 at Sun May 25 04:23:45 2025, MaxMem=  3758096384 cpu:               0.1 elap:               0.0
 (Enter /apps/easybuild-2022/easybuild/software/Compiler/NVHPC/22.11-CUDA-11.7.0/Gaussian/g16c01-CUDA-11.7.0/g16/l1110.exe)
 Forming Gx(P) for the SCF density, NAtomX=     8.
 Integral derivatives from FoFJK, PRISM(SPDF).
 Do as many integral derivatives as possible in FoFJK.
 G2DrvN: MDV=    3758095424.
 G2DrvN: will do     9 centers at a time, making    1 passes.
 Calling FoFCou, ICntrl=  3107 FMM=F I1Cent=   0 AccDes= 0.00D+00.
 FoFJK:  IHMeth= 1 ICntrl=    3107 DoSepK=F KAlg= 0 I1Cent=           0 FoldK=F
 IRaf=         0 NMat=       1 IRICut=       1 DoRegI=T DoRafI=F ISym2E= 0 IDoP0=0 IntGTp=1.
 FoFCou: FMM=F IPFlag=           0 FMFlag=      100000 FMFlg1=           0
         NFxFlg=           0 DoJE=F BraDBF=F KetDBF=F FulRan=T
         wScrn=  0.000000 ICntrl=      3107 IOpCl=  0 I1Cent=           0 NGrid=           0
         NMat0=    1 NMatS0=      1 NMatT0=    0 NMatD0=    1 NMtDS0=    0 NMtDT0=    0
 Symmetry not used in FoFCou.
 End of G2Drv F.D. properties file   721 does not exist.
 End of G2Drv F.D. properties file   722 does not exist.
 End of G2Drv F.D. properties file   788 does not exist.
 Leave Link 1110 at Sun May 25 04:24:01 2025, MaxMem=  3758096384 cpu:             122.2 elap:              15.7
 (Enter /apps/easybuild-2022/easybuild/software/Compiler/NVHPC/22.11-CUDA-11.7.0/Gaussian/g16c01-CUDA-11.7.0/g16/l1002.exe)
 Minotr:  Closed shell wavefunction.
          IDoAtm=11111111
          Direct CPHF calculation.
          Differentiating once with respect to electric field.
                with respect to dipole field.
          Differentiating once with respect to nuclear coordinates.
          Requested convergence is 1.0D-08 RMS, and 1.0D-07 maximum.
          Secondary convergence is 1.0D-12 RMS, and 1.0D-12 maximum.
          NewPWx=T KeepS1=F KeepF1=F KeepIn=T MapXYZ=F SortEE=F KeepMc=T.
         2392 words used for storage of precomputed grid.
 Keep R1 ints in memory in canonical form, NReq=368655240.
 FoFCou: FMM=F IPFlag=           0 FMFlag=           0 FMFlg1=           0
         NFxFlg=           0 DoJE=F BraDBF=F KetDBF=F FulRan=T
         wScrn=  0.000000 ICntrl=       600 IOpCl=  0 I1Cent=           0 NGrid=           0
         NMat0=    1 NMatS0=  26796 NMatT0=    0 NMatD0=    1 NMtDS0=    0 NMtDT0=    0
 Symmetry not used in FoFCou.
 Two-electron integral symmetry not used.
          MDV=    3758096384 using IRadAn=       1.
          Solving linear equations simultaneously, MaxMat=       0.
          There are    27 degrees of freedom in the 1st order CPHF.  IDoFFX=6 NUNeed=     3.
     24 vectors produced by pass  0 Test12= 2.11D-14 3.70D-09 XBig12= 1.85D+01 2.05D+00.
 AX will form    24 AO Fock derivatives at one time.
     24 vectors produced by pass  1 Test12= 2.11D-14 3.70D-09 XBig12= 2.83D+00 3.26D-01.
     24 vectors produced by pass  2 Test12= 2.11D-14 3.70D-09 XBig12= 1.47D-01 7.71D-02.
     24 vectors produced by pass  3 Test12= 2.11D-14 3.70D-09 XBig12= 3.09D-03 8.60D-03.
     24 vectors produced by pass  4 Test12= 2.11D-14 3.70D-09 XBig12= 3.48D-05 8.80D-04.
     24 vectors produced by pass  5 Test12= 2.11D-14 3.70D-09 XBig12= 2.86D-07 8.35D-05.
     24 vectors produced by pass  6 Test12= 2.11D-14 3.70D-09 XBig12= 1.75D-09 5.91D-06.
     11 vectors produced by pass  7 Test12= 2.11D-14 3.70D-09 XBig12= 7.60D-12 3.11D-07.
      3 vectors produced by pass  8 Test12= 2.11D-14 3.70D-09 XBig12= 3.53D-14 2.23D-08.
 InvSVY:  IOpt=1 It=  1 EMax= 1.78D-15
 Solved reduced A of dimension   182 with    27 vectors.
 FullF1:  Do perturbations      1 to       3.
 Isotropic polarizability for W=    0.000000       36.02 Bohr**3.
 End of Minotr F.D. properties file   721 does not exist.
 End of Minotr F.D. properties file   722 does not exist.
 End of Minotr F.D. properties file   788 does not exist.
 Leave Link 1002 at Sun May 25 04:24:25 2025, MaxMem=  3758096384 cpu:             189.8 elap:              24.6
 (Enter /apps/easybuild-2022/easybuild/software/Compiler/NVHPC/22.11-CUDA-11.7.0/Gaussian/g16c01-CUDA-11.7.0/g16/l701.exe)
 ... and contract with generalized density number  0.
 Compute integral second derivatives.
   1 Symmetry operations used in ECPInt.
 ECPInt:  NShTT=    3486 NPrTT=   11183 LenC2=    3400 LenP2D=    8674.
 LDataN:  DoStor=T MaxTD1= 8 Len=  415
 Leave Link  701 at Sun May 25 04:24:26 2025, MaxMem=  3758096384 cpu:               0.9 elap:               0.2
 (Enter /apps/easybuild-2022/easybuild/software/Compiler/NVHPC/22.11-CUDA-11.7.0/Gaussian/g16c01-CUDA-11.7.0/g16/l702.exe)
 L702 exits ... SP integral derivatives will be done elsewhere.
 Leave Link  702 at Sun May 25 04:24:26 2025, MaxMem=  3758096384 cpu:               0.1 elap:               0.0
 (Enter /apps/easybuild-2022/easybuild/software/Compiler/NVHPC/22.11-CUDA-11.7.0/Gaussian/g16c01-CUDA-11.7.0/g16/l703.exe)
 Integral derivatives from FoFJK, PRISM(SPDF).
 Compute integral second derivatives, UseDBF=F ICtDFT=           0.
 Calling FoFJK, ICntrl=    100127 FMM=F ISym2X=0 I1Cent= 0 IOpClX= 0 NMat=1 NMatS=1 NMatT=0.
 FoFJK:  IHMeth= 1 ICntrl=  100127 DoSepK=F KAlg= 0 I1Cent=           0 FoldK=F
 IRaf=         0 NMat=       1 IRICut=       1 DoRegI=T DoRafI=F ISym2E= 0 IDoP0=0 IntGTp=1.
 FoFCou: FMM=F IPFlag=           0 FMFlag=      100000 FMFlg1=         800
         NFxFlg=           0 DoJE=F BraDBF=F KetDBF=F FulRan=T
         wScrn=  0.000000 ICntrl=    100127 IOpCl=  0 I1Cent=           0 NGrid=           0
         NMat0=    1 NMatS0=      1 NMatT0=    0 NMatD0=    1 NMtDS0=    0 NMtDT0=    0
 Symmetry not used in FoFCou.
 Leave Link  703 at Sun May 25 04:25:06 2025, MaxMem=  3758096384 cpu:             284.0 elap:              40.2
 (Enter /apps/easybuild-2022/easybuild/software/Compiler/NVHPC/22.11-CUDA-11.7.0/Gaussian/g16c01-CUDA-11.7.0/g16/l716.exe)
 Dipole        =-1.37050877D+00 8.69492131D-01-6.32805046D-01
 Polarizability= 4.10857519D+01-1.31073140D+00 3.53939201D+01
                -6.27975016D-01 1.33190714D+00 3.15847242D+01
 -------------------------------------------------------------------
 Center     Atomic                   Forces (Hartrees/Bohr)
 Number     Number              X              Y              Z
 -------------------------------------------------------------------
      1        6           0.000367025    0.000685955   -0.001800150
      2        8          -0.000241679    0.000264691   -0.001988903
      3        6           0.000826814   -0.000812398    0.002246941
      4        9           0.000652535   -0.001052521    0.002204467
      5        9          -0.000517819    0.000711898   -0.000399343
      6        9          -0.000088209   -0.000124288   -0.000074301
      7        8          -0.007124636    0.001678071    0.001151572
      8        1           0.006125968   -0.001351406   -0.001340284
 -------------------------------------------------------------------
 Cartesian Forces:  Max     0.007124636 RMS     0.002214831
 Force constants in Cartesian coordinates: 
                1             2             3             4             5 
      1  0.306416D+00
      2 -0.156550D+00  0.832471D+00
      3 -0.187011D+00  0.262183D+00  0.348255D+00
      4 -0.216412D+00  0.235205D+00  0.159152D+00  0.247144D+00
      5  0.200757D+00 -0.473148D+00 -0.245928D+00 -0.265953D+00  0.532131D+00
      6  0.138870D+00 -0.255725D+00 -0.248769D+00 -0.202067D+00  0.310330D+00
      7 -0.247061D-01 -0.246664D-01  0.900776D-01 -0.345505D-01  0.207254D-01
      8 -0.421537D-01 -0.122968D-01 -0.112863D-01  0.364410D-01 -0.186982D-01
      9  0.910914D-01 -0.130776D-01  0.430991D-01  0.494097D-03 -0.203280D-03
     10 -0.526629D-01  0.170337D-01 -0.817908D-01  0.388651D-02  0.799816D-02
     11  0.604260D-03 -0.553091D-01 -0.474235D-02  0.464135D-02  0.158757D-01
     12  0.223267D-01  0.891498D-02 -0.492931D-01  0.289706D-01 -0.206090D-01
     13  0.358125D-01  0.188944D-01  0.151946D-01 -0.184397D-01  0.625069D-02
     14 -0.584294D-02 -0.839733D-02  0.603896D-02  0.214520D-02  0.182424D-02
     15 -0.380219D-01 -0.109224D-01 -0.437295D-02  0.117698D-01 -0.392751D-02
     16  0.295930D-01 -0.282039D-01 -0.313270D-03 -0.387557D-02  0.101156D-01
     17  0.351161D-01 -0.158162D-01 -0.130759D-01 -0.697212D-02  0.126009D-01
     18 -0.267735D-01  0.657378D-02 -0.133048D-03  0.253635D-02 -0.345197D-02
     19 -0.811902D-01 -0.507255D-01 -0.211213D-02  0.239595D-01  0.185349D-01
     20 -0.329719D-01 -0.242422D+00 -0.362318D-01 -0.489684D-02 -0.733479D-01
     21 -0.257728D-02  0.253954D-02 -0.895721D-01 -0.534327D-03 -0.313585D-01
     22  0.314992D-02 -0.109875D-01  0.680303D-02 -0.171277D-02  0.157117D-02
     23  0.104174D-02 -0.250813D-01  0.430420D-01 -0.611239D-03  0.276214D-02
     24  0.209619D-02 -0.486321D-03  0.786224D-03 -0.321732D-03 -0.485115D-02
                6             7             8             9            10 
      6  0.290372D+00
      7  0.247088D-02  0.503391D+00
      8 -0.111851D-01  0.597570D-01  0.624215D+00
      9 -0.321358D-03 -0.209069D+00  0.117371D+00  0.218541D+00
     10  0.489500D-01  0.431511D-01  0.241037D-02  0.660974D-02  0.225647D-01
     11 -0.214924D-01  0.648526D-02 -0.123442D-01  0.196224D-01 -0.334266D-02
     12 -0.491313D-01 -0.340104D-01  0.267736D-01 -0.898876D-01 -0.482033D-03
     13  0.390339D-02 -0.255448D+00  0.146187D+00  0.113782D+00 -0.130230D-01
     14 -0.115969D-02  0.138802D+00 -0.214225D+00 -0.110101D+00  0.170404D-01
     15 -0.336516D-02  0.134959D+00 -0.106414D+00 -0.115873D+00  0.208546D-02
     16  0.391789D-02 -0.208435D+00 -0.174597D+00  0.994722D-02 -0.987474D-02
     17  0.826522D-02 -0.187416D+00 -0.347149D+00 -0.569248D-02 -0.186922D-01
     18 -0.251338D-02  0.269071D-01 -0.116757D-01 -0.498903D-01 -0.411827D-02
     19  0.607977D-03 -0.225505D-01 -0.264944D-01 -0.134225D-01  0.907973D-02
     20 -0.241802D-01 -0.128233D-01 -0.204402D-01 -0.973397D-02 -0.194742D-01
     21  0.160100D-01 -0.110298D-01 -0.363426D-02 -0.479018D-02  0.286569D-01
     22  0.334737D-02 -0.851823D-03 -0.154964D-02  0.567276D-03 -0.312144D-02
     23 -0.485194D-02 -0.864318D-03  0.938123D-03  0.181496D-02 -0.297355D-02
     24 -0.228218D-02 -0.305159D-03  0.510640D-04 -0.877905D-03  0.890050D-04
               11            12            13            14            15 
     11  0.746656D-01
     12 -0.298478D-01  0.172771D+00
     13  0.483888D-02 -0.143001D-01  0.216516D+00
     14 -0.134905D-02  0.483442D-02 -0.174727D+00  0.318759D+00
     15  0.266848D-02  0.221132D-01 -0.109500D+00  0.141372D+00  0.979184D-01
     16 -0.747980D-03 -0.100360D-01  0.377311D-01  0.208688D-01 -0.439724D-02
     17  0.483380D-02 -0.150742D-01  0.711992D-02 -0.102782D+00 -0.300322D-01
     18 -0.983031D-02  0.119154D-01 -0.734327D-02 -0.408186D-01  0.240207D-02
     19 -0.742447D-02  0.524309D-02 -0.182240D-02  0.644465D-03  0.176314D-02
     20 -0.233638D-01  0.242181D-01 -0.997638D-02  0.681583D-02  0.789501D-02
     21  0.435172D-01 -0.212409D-01 -0.152083D-02 -0.399040D-04  0.978537D-03
     22 -0.505465D-02  0.228806D-02 -0.132606D-02  0.106833D-02  0.134192D-02
     23 -0.300896D-02  0.789858D-03  0.141252D-02 -0.645782D-03 -0.639073D-03
     24  0.104885D-03  0.275320D-02 -0.215538D-03 -0.126245D-03  0.199093D-03
               16            17            18            19            20 
     16  0.167456D+00
     17  0.178521D+00  0.450803D+00
     18  0.350569D-02  0.559916D-01  0.364743D-01
     19 -0.134669D-01 -0.801369D-02  0.505581D-02  0.940561D-01
     20 -0.720605D-02 -0.293607D-02  0.367058D-02  0.668826D-01  0.467142D+00
     21 -0.105906D-02  0.797559D-03  0.122415D-02  0.546364D-01 -0.165628D+00
     22  0.872339D-03  0.337207D-03  0.230074D-03 -0.806529D-02  0.204660D-01
     23  0.124983D-02  0.445281D-03 -0.459367D-03  0.659601D-02 -0.111448D+00
     24 -0.156521D-02 -0.117960D-02  0.520817D-03 -0.517718D-01  0.199990D+00
               21            22            23            24 
     21  0.540352D+00
     22 -0.665720D-01  0.110551D-01
     23  0.153806D+00 -0.585099D-02  0.136038D+00
     24 -0.442962D+00  0.519943D-01 -0.193503D+00  0.441862D+00
 FormGI is forming the generalized inverse of G from B-inverse, IUseBI=4.
 Force constants in internal coordinates: 
                1             2             3             4             5 
      1  0.911812D+00
      2  0.577163D-01  0.378699D-01
      3  0.577126D-01  0.606057D-01  0.169794D+00
      4  0.609054D-01  0.391414D-01  0.336234D-01  0.402883D+00
      5  0.130209D-01  0.557401D-03  0.148736D-01  0.131140D-01  0.522734D+00
      6  0.194925D-01 -0.171694D-02  0.112834D-01  0.803296D-02  0.830515D-01
      7 -0.367697D-02 -0.279944D-02 -0.185858D-02  0.168241D-02 -0.975684D-03
      8  0.220724D-01  0.243308D-01 -0.153239D-02 -0.426693D-01  0.150482D-01
      9  0.102886D-01  0.227704D-02 -0.637061D-02 -0.159101D-01 -0.608111D-02
     10  0.204157D-01 -0.342339D-01 -0.156052D-01  0.152779D-01 -0.844835D-02
     11 -0.209119D-01 -0.203819D-01  0.754948D-01 -0.216655D-01  0.411810D-01
     12 -0.396539D-01  0.345914D-01 -0.135585D-01  0.296450D-01 -0.110477D-01
     13 -0.139748D-01 -0.101088D-02  0.327700D-02  0.226464D-01 -0.108893D-01
     14  0.124066D-01 -0.444576D-03  0.203998D-02 -0.234264D-02 -0.131383D-01
     15 -0.383674D-02  0.925392D-03 -0.126816D-02  0.855009D-02 -0.354696D-01
[...]
      7 -0.104238D-01 -0.241258D-01  0.683128D-01 -0.355232D-01  0.195379D-01
      8 -0.371735D-01 -0.196586D-01  0.475589D-03  0.325888D-01 -0.138179D-01
      9  0.824363D-01 -0.221448D-02  0.414969D-02  0.860356D-02 -0.306304D-02
     10 -0.625496D-01  0.156234D-01 -0.656389D-01  0.101665D-01  0.449289D-02
     11 -0.507802D-03 -0.593265D-01 -0.757587D-02  0.226074D-02  0.168792D-01
     12  0.208396D-01  0.990760D-02 -0.527245D-01  0.256855D-01 -0.174219D-01
     13  0.379857D-01  0.225117D-01  0.150934D-01 -0.193393D-01  0.411178D-02
     14 -0.299938D-02 -0.646362D-02  0.303652D-02  0.115851D-02  0.241258D-02
     15 -0.353043D-01 -0.135885D-01  0.446081D-02  0.103224D-01 -0.248850D-02
     16  0.335058D-01 -0.266178D-01 -0.129823D-03 -0.387149D-02  0.906666D-02
     17  0.377062D-01 -0.147730D-01 -0.146846D-01 -0.690955D-02  0.118271D-01
     18 -0.244165D-01  0.242924D-02  0.859688D-02  0.121719D-02 -0.233137D-02
     19 -0.949966D-01 -0.488657D-01  0.215523D-01  0.245292D-01  0.266804D-01
     20  0.641091D-02 -0.251682D+00 -0.241119D-01  0.592489D-02 -0.760572D-01
     21  0.206897D-01  0.654838D-02 -0.829867D-01  0.284547D-02 -0.364722D-01
     22 -0.566504D-02 -0.913704D-02  0.930936D-02 -0.201469D-02  0.688765D-02
     23 -0.435436D-01 -0.136362D-01  0.381925D-01  0.524969D-02  0.413018D-02
     24  0.502632D-02  0.471578D-02  0.168802D-02 -0.150424D-02 -0.447621D-02
                6             7             8             9            10 
      6  0.329126D+00
      7  0.109662D-01  0.523923D+00
      8 -0.136960D-01  0.487673D-01  0.644682D+00
      9  0.223797D-02 -0.194810D+00  0.110446D+00  0.238743D+00
     10  0.420847D-01  0.204754D-01  0.972450D-02 -0.258596D-01  0.350667D-01
     11 -0.202030D-01  0.119829D-01 -0.500949D-02  0.177090D-01 -0.723750D-02
     12 -0.580327D-01 -0.469032D-01  0.183044D-01 -0.788446D-01  0.153535D-01
     13  0.536040D-02 -0.281943D+00  0.147055D+00  0.125453D+00 -0.893878D-02
     14 -0.284711D-03  0.145877D+00 -0.205336D+00 -0.105786D+00  0.930975D-02
     15 -0.542877D-02  0.144061D+00 -0.102614D+00 -0.117760D+00  0.882435D-02
     16  0.427861D-02 -0.197161D+00 -0.170110D+00  0.905526D-02 -0.660660D-02
     17  0.932199D-02 -0.188641D+00 -0.375169D+00 -0.123633D-01 -0.163071D-01
     18 -0.366652D-02  0.224824D-01 -0.151832D-01 -0.501007D-01  0.434459D-02
     19  0.532364D-02 -0.162358D-01 -0.273625D-01 -0.386290D-02  0.102713D-01
     20 -0.252767D-01 -0.125066D-01 -0.223264D-01 -0.412342D-02 -0.151099D-01
     21  0.160279D-01 -0.223819D-02  0.576274D-02  0.250233D-02  0.197286D-01
     22 -0.717716D-04 -0.311222D-02 -0.348926D-02 -0.101537D-02  0.211511D-02
     23 -0.364906D-02 -0.891875D-03 -0.336430D-02 -0.604941D-03 -0.496080D-03
     24 -0.358871D-02 -0.187052D-02 -0.349530D-02 -0.927863D-03  0.116282D-02
               11            12            13            14            15 
     11  0.704077D-01
     12 -0.299156D-01  0.181691D+00
     13  0.119036D-02 -0.127986D-01  0.236676D+00
     14  0.800013D-03  0.175917D-02 -0.182739D+00  0.307473D+00
     15  0.136917D-02  0.179814D-01 -0.125966D+00  0.144243D+00  0.998062D-01
     16  0.159750D-02 -0.900487D-02  0.377318D-01  0.282929D-01 -0.309757D-02
     17  0.388775D-02 -0.116753D-01  0.168069D-01 -0.104133D+00 -0.330281D-01
     18 -0.657496D-02  0.110885D-01 -0.545432D-02 -0.426896D-01  0.110118D-02
     19 -0.141528D-01  0.118664D-01 -0.262204D-02  0.875136D-03  0.107408D-02
     20 -0.230756D-01  0.271702D-01 -0.981645D-02  0.498433D-02  0.626419D-02
     21  0.416323D-01 -0.190492D-01 -0.114947D-02 -0.528000D-03 -0.507087D-03
     22  0.486663D-02 -0.503842D-02  0.449215D-03  0.224711D-03  0.864303D-04
     23 -0.456301D-02  0.187142D-02  0.879487D-03  0.262591D-03 -0.157094D-03
     24  0.355895D-02 -0.210985D-02 -0.538283D-03  0.249246D-03  0.346225D-03
               16            17            18            19            20 
     16  0.149047D+00
     17  0.165369D+00  0.481909D+00
     18 -0.165951D-02  0.608569D-01  0.334455D-01
     19 -0.117429D-01 -0.752249D-02  0.299865D-02  0.364043D+00
     20 -0.686540D-02 -0.320901D-02  0.323329D-02  0.956559D-01  0.421284D+00
     21  0.297610D-02  0.297915D-02 -0.107919D-02 -0.296333D+00 -0.381956D-01
     22 -0.903188D-03 -0.502143D-03  0.487590D-03 -0.273247D+00 -0.636933D-01
     23 -0.732401D-03 -0.339918D-03  0.259736D-03 -0.253080D-01 -0.499181D-01
     24 -0.241820D-02 -0.140666D-02  0.614377D-03  0.257381D+00  0.550399D-01
               21            22            23            24 
     21  0.325202D+00
     22  0.253481D+00  0.282377D+00
     23  0.182732D-01  0.648428D-01  0.674287D-01
     24 -0.240110D+00 -0.257239D+00 -0.541857D-01  0.244088D+00
 Red2BG is reusing G-inverse.
 Force constants in internal coordinates: 
                1             2             3             4             5 
      1  0.866857D+00
      2  0.607776D-01  0.331607D-01
      3  0.575446D-01  0.658753D-01  0.182952D+00
      4  0.666443D-01  0.376846D-01  0.372377D-01  0.404677D+00
      5  0.127885D-01 -0.700321D-02  0.141708D-01  0.118918D-01  0.539136D+00
      6  0.190048D-01 -0.883039D-02  0.118387D-01  0.800764D-02  0.881183D-01
      7 -0.669678D-02 -0.582915D-03 -0.207726D-02  0.491820D-02 -0.598362D-03
      8  0.190089D-01  0.228017D-01 -0.721953D-02 -0.378216D-01  0.155791D-01
      9  0.854486D-02 -0.104702D-02 -0.472234D-02 -0.141242D-01 -0.387925D-02
     10  0.281631D-01 -0.322288D-01 -0.166476D-01  0.627428D-02 -0.711964D-02
     11 -0.198196D-01 -0.129254D-01  0.688706D-01 -0.233462D-01  0.279151D-01
     12 -0.424921D-01  0.382390D-01 -0.138245D-01  0.387788D-01 -0.112727D-01
     13 -0.173859D-01 -0.259658D-02  0.651116D-02  0.225218D-01 -0.827002D-02
     14  0.130992D-01 -0.637851D-02  0.340999D-02 -0.171887D-02 -0.174404D-01
     15 -0.324208D-02 -0.256705D-02  0.226203D-02  0.931335D-02 -0.344748D-01
     16 -0.109940D-01  0.138013D-01 -0.925826D-02 -0.793191D-02  0.517745D-01
     17  0.489940D-02  0.320949D-02  0.466264D-02  0.432602D-01 -0.536813D-03
     18 -0.855805D-02  0.172639D-02  0.174660D-01 -0.139506D-01  0.948645D-02
     19 -0.205291D-02 -0.187081D-01  0.323537D-01 -0.113559D-01  0.293153D-03
     20 -0.926904D-02  0.864275D-02 -0.782978D-02  0.121080D-01  0.143566D-02
     21 -0.276391D-02 -0.117917D-01  0.705797D-02  0.147027D-01 -0.775763D-02
     22  0.647016D-02  0.202281D-01 -0.318110D-01 -0.189306D-03  0.221163D-02
     23  0.129753D-01 -0.206370D-03 -0.169233D-01  0.240539D-02 -0.698166D-02
     24 -0.557149D-02  0.295587D-01 -0.625346D-02 -0.671508D-02  0.100390D-01
     25 -0.135628D-01 -0.231875D-01  0.444900D-01 -0.226437D-02  0.717964D-02
     26  0.206155D-01 -0.174483D-01 -0.266015D-01  0.883235D-02 -0.179780D-01
                6             7             8             9            10 
      6  0.554233D+00
      7 -0.820703D-03  0.535901D+00
      8 -0.124764D-01  0.300862D-02  0.109024D+00
      9 -0.788643D-02  0.151464D-02  0.800420D-02  0.555844D-01
     10 -0.568902D-02 -0.698402D-02 -0.492842D-01 -0.240514D-01  0.112874D+00
     11  0.276310D-01  0.496035D-03  0.165006D-01 -0.273426D-01  0.138636D-02
     12  0.166704D-01  0.392929D-02 -0.516757D-01  0.627378D-02 -0.715251D-01
     13 -0.370318D-02  0.159504D-02 -0.869646D-02 -0.205403D-01 -0.239181D-01
     14 -0.355939D-01 -0.573471D-03  0.230617D-01 -0.345181D-03 -0.341186D-02
     15 -0.142568D-01 -0.445971D-03 -0.189440D-01  0.163546D-03 -0.256268D-02
     16  0.497273D-01  0.944464D-03 -0.367735D-02  0.780199D-03  0.606838D-02
     17  0.165323D-02  0.271417D-01  0.121399D-02  0.849916D-03 -0.212625D-01
     18  0.712788D-02  0.162915D-02  0.901809D-02  0.232157D-01 -0.209146D-01
     19 -0.230058D-02  0.171930D-02  0.873715D-02  0.208734D-01 -0.224368D-01
     20  0.364537D-02 -0.275568D-03 -0.713550D-02 -0.265554D-01  0.522084D-02
     21 -0.578308D-02 -0.185418D-03 -0.741644D-02 -0.288978D-01  0.369865D-02
     22  0.414150D-02 -0.142685D-02 -0.983281D-02  0.184421D-02  0.185664D-01
     23 -0.528696D-02 -0.133670D-02 -0.101138D-01 -0.498163D-03  0.170442D-01
     24  0.588741D-02  0.235486D-02  0.426928D-01 -0.166493D-01 -0.380646D-01
     25  0.112529D-01  0.136477D-03 -0.148995D-01 -0.104153D-01  0.980323D-02
     26 -0.208068D-01 -0.160973D-02 -0.189492D-01  0.215857D-01  0.294652D-01
               11            12            13            14            15 
     11  0.790222D-01
     12 -0.785407D-02  0.148831D+00
     13 -0.323549D-01  0.158963D-01  0.715709D-01
     14 -0.226909D-02 -0.172912D-01 -0.361693D-03  0.996285D-01
     15 -0.316727D-02  0.260594D-01  0.313142D-03  0.688453D-02  0.106158D+00
     16  0.194103D-02 -0.819437D-02  0.490772D-03 -0.101295D+00 -0.108156D+00
     17 -0.286027D-02  0.201672D-01  0.119891D-01 -0.322659D-02  0.331325D-02
     18 -0.709469D-02  0.232806D-02 -0.780715D-03 -0.520686D-03 -0.401703D-02
     19  0.530350D-02  0.117073D-02 -0.249920D-02  0.128074D-02 -0.251315D-02
     20 -0.116832D-01 -0.121333D-02  0.364412D-01  0.887260D-03 -0.280818D-02
     21  0.714948D-03 -0.237065D-02  0.347227D-01  0.268869D-02 -0.130429D-02
     22  0.366804D-02  0.747897D-02 -0.287538D-01 -0.981389D-03  0.168396D-02
     23  0.160662D-01  0.632165D-02 -0.304722D-01  0.820040D-03  0.318784D-02
     24  0.369307D-01  0.244541D-01 -0.161840D-01  0.664384D-02 -0.679578D-03
     25  0.178128D-01 -0.500224D-02  0.531343D-02 -0.518555D-02 -0.722058D-03
     26 -0.567707D-01 -0.332146D-01  0.202055D-01  0.112501D-02 -0.322599D-02
               16            17            18            19            20 
     16  0.201509D+00
     17 -0.154818D-03  0.176123D+00
     18  0.677321D-02  0.287829D-02  0.194549D-01
     19 -0.289610D-02  0.306048D-02  0.100439D-01  0.257262D-01
     20  0.504057D-02  0.320138D-02 -0.324736D-02 -0.155494D-01  0.315053D-01
     21 -0.462874D-02  0.338356D-02 -0.126584D-01  0.132939D-03  0.192032D-01
     22  0.280687D-02 -0.550269D-02 -0.518829D-03 -0.139078D-01 -0.420709D-02
     23 -0.686245D-02 -0.532050D-02 -0.992983D-02  0.177462D-02 -0.165092D-01
     24 -0.599565D-02  0.455464D-02 -0.678287D-02 -0.540724D-02 -0.459048D-02
     25  0.423530D-02  0.213904D-03 -0.625635D-03  0.459810D-02  0.306168D-02
     26  0.389503D-02 -0.387650D-02  0.652156D-02 -0.711948D-03  0.764957D-02
               21            22            23            24            25 
     21  0.319945D-01
     22 -0.175960D-01  0.262132D-01
     23 -0.480472D-02  0.128243D-01  0.245288D-01
     24 -0.321485D-02  0.815147D-02  0.952710D-02  0.551749D-01
     25  0.828541D-02 -0.715786D-02 -0.193412D-02 -0.589077D-02  0.147364D-01
     26  0.416061D-03 -0.636309D-02 -0.135966D-01 -0.467507D-01 -0.413308D-02
               26 
     26  0.587353D-01
 Leave Link  716 at Sun May 25 04:30:56 2025, MaxMem=  3758096384 cpu:               0.1 elap:               0.0
 (Enter /apps/easybuild-2022/easybuild/software/Compiler/NVHPC/22.11-CUDA-11.7.0/Gaussian/g16c01-CUDA-11.7.0/g16/l9999.exe)

 ----------------------------------------------------------------------

 Electric dipole moment (input orientation):
 (Debye = 10**-18 statcoulomb cm , SI units = C m)
                  (au)            (Debye)         (10**-30 SI)
   Tot        0.138202D+01      0.351275D+01      0.117173D+02
   x         -0.117108D+01     -0.297658D+01     -0.992879D+01
   y          0.627744D+00      0.159557D+01      0.532223D+01
   z         -0.380137D+00     -0.966212D+00     -0.322294D+01

 Dipole polarizability, Alpha (input orientation).
 (esu units = cm**3 , SI units = C**2 m**2 J**-1)
 Alpha(0;0):
               (au)            (10**-24 esu)      (10**-40 SI)
   iso        0.357206D+02      0.529325D+01      0.588954D+01
   aniso      0.993489D+01      0.147220D+01      0.163804D+01
   xx         0.411843D+02      0.610289D+01      0.679038D+01
   yx        -0.184718D+00     -0.273723D-01     -0.304558D-01
   yy         0.347415D+02      0.514816D+01      0.572810D+01
   zx        -0.219275D+01     -0.324932D+00     -0.361536D+00
   zy         0.161164D+01      0.238820D+00      0.265723D+00
   zz         0.312361D+02      0.462871D+01      0.515014D+01

 ----------------------------------------------------------------------

 Dipole orientation:
     6          1.44349382         -1.04228447         -2.47328856
     8          2.53961273          0.50310180         -3.70866919
     6         -0.24524615          0.09074266          0.07081811
     9         -1.20155586         -1.66747711         -3.21335182
     9         -1.26568875         -1.21290242          1.79548421
     9         -1.18674728          2.27997015         -0.00304022
     8          2.42263930         -3.26842708         -1.64915443
     1          4.11901023         -3.33368476         -2.30851488

 Electric dipole moment (dipole orientation):
 (Debye = 10**-18 statcoulomb cm , SI units = C m)
                  (au)            (Debye)         (10**-30 SI)
   Tot        0.138202D+01      0.351275D+01      0.117173D+02
   x          0.000000D+00      0.000000D+00      0.000000D+00
   y          0.000000D+00      0.000000D+00      0.000000D+00
   z          0.138202D+01      0.351275D+01      0.117173D+02

 Dipole polarizability, Alpha (dipole orientation).
 (esu units = cm**3 , SI units = C**2 m**2 J**-1)
 Alpha(0;0):
               (au)            (10**-24 esu)      (10**-40 SI)
   iso        0.357206D+02      0.529325D+01      0.588954D+01
   aniso      0.993489D+01      0.147220D+01      0.163804D+01
   xx         0.342044D+02      0.506857D+01      0.563955D+01
   yx        -0.131643D+01     -0.195074D+00     -0.217049D+00
   yy         0.351377D+02      0.520687D+01      0.579343D+01
   zx        -0.525657D+01     -0.778943D+00     -0.866691D+00
   zy         0.117201D+00      0.173674D-01      0.193238D-01
   zz         0.378198D+02      0.560431D+01      0.623563D+01

 ----------------------------------------------------------------------
 Unable to Open any file for archive entry.
 1\1\GINC-SPARTAN-BM163\Freq\RM062X\def2TZVPP\C2H1F3O2\AKHALILOV\25-May
 -2025\0\\#P M062X/Def2TZVPP Symm(None) scf(xqc) pop(None) opt(NoFreeze
 ,TS,CalcAll,NoEigentest,MaxCycle=999)\\Gaussian input prepared by ASE\
 \0,1\C,1.6092373452,0.0983991227,-0.0367449859\O,2.1697336868,-0.70890
 72754,-0.7198900206\C,-0.102946495,-0.062402076,0.0778506521\F,1.42946
 84907,-0.2246953126,1.4073037283\F,-0.9039616299,0.7673744928,0.597738
 4213\F,-0.6371879263,-1.2015829441,-0.0154347885\O,1.8216501798,1.4403
 058933,-0.0606726193\H,2.5199036411,1.5817398606,-0.7096765367\\Versio
 n=ES64L-G16RevC.01\HF=-526.7283603\RMSD=4.286e-09\RMSF=5.954e-06\ZeroP
 oint=0.0359632\Thermal=0.0425078\ETot=-526.6858524\HTot=-526.6849083\G
 Tot=-526.723488\Dipole=-1.1710757,0.6277436,-0.3801369\DipoleDeriv=2.2
 726967,-0.0549635,-0.4963923,0.0098936,1.9055651,0.1399209,-0.7335919,
 0.1564154,1.6609365,-0.9704561,0.224128,0.3245306,0.3567897,-0.9756668
 ,-0.333992,0.4485782,-0.2944263,-0.8219196,1.1072615,-0.0197574,0.0185
 547,0.1328855,1.6752023,0.3439004,-0.3300209,0.3602694,0.6881401,-0.77
 98974,-0.015211,-0.0857619,-0.0142278,-0.3696558,0.1684504,-0.1294588,
 0.1327185,-1.2351497,-0.8103052,0.469228,0.2349065,0.293557,-0.5375994
 ,-0.1393448,0.5121211,-0.3389926,-0.1302363,-0.5218283,-0.4461911,-0.0
 483001,-0.4860058,-0.820666,-0.2381837,0.1859769,-0.0328486,-0.0345361
 ,-0.6044101,-0.2069471,0.0309637,-0.3505847,-1.2184693,0.1100324,0.043
 3009,0.0760067,-0.4243801,0.3069389,0.0497141,0.0214989,0.0576926,0.34
 12899,-0.0507836,0.0030946,-0.0591425,0.2971452\Polar=41.1843484,-0.18
 47176,34.7414755,-2.1927515,1.6116372,31.2360948\PG=Unknown\NImag=1\\0
 .32333530,-0.13477108,0.76566149,-0.21731354,0.23439666,0.39349132,-0.
 22119178,0.20538239,0.16881438,0.24724467,0.17487825,-0.40012161,-0.22
 972883,-0.24565549,0.45474760,0.14804251,-0.24219467,-0.27667561,-0.21
 598426,0.29598206,0.32912645,-0.01042380,-0.02412584,0.06831283,-0.035
 52322,0.01953787,0.01096619,0.52392326,-0.03717346,-0.01965859,0.00047
 559,0.03258881,-0.01381785,-0.01369596,0.04876732,0.64468201,0.0824363
 2,-0.00221448,0.00414969,0.00860356,-0.00306304,0.00223797,-0.19481032
 ,0.11044575,0.23874310,-0.06254960,0.01562342,-0.06563891,0.01016651,0
 .00449289,0.04208469,0.02047542,0.00972450,-0.02585960,0.03506668,-0.0
 0050780,-0.05932654,-0.00757587,0.00226074,0.01687920,-0.02020300,0.01
 198287,-0.00500949,0.01770899,-0.00723750,0.07040766,0.02083962,0.0099
 0760,-0.05272445,0.02568554,-0.01742187,-0.05803268,-0.04690317,0.0183
 0444,-0.07884459,0.01535350,-0.02991562,0.18169093,0.03798572,0.022511
 68,0.01509340,-0.01933925,0.00411178,0.00536040,-0.28194289,0.14705483
 ,0.12545305,-0.00893878,0.00119036,-0.01279862,0.23667623,-0.00299938,
 -0.00646362,0.00303652,0.00115851,0.00241258,-0.00028471,0.14587699,-0
 .20533619,-0.10578552,0.00930975,0.00080001,0.00175917,-0.18273860,0.3
 0747284,-0.03530433,-0.01358852,0.00446081,0.01032237,-0.00248850,-0.0
 0542877,0.14406082,-0.10261401,-0.11775992,0.00882435,0.00136917,0.017
 98135,-0.12596615,0.14424290,0.09980621,0.03350581,-0.02661785,-0.0001
 2982,-0.00387149,0.00906666,0.00427861,-0.19716077,-0.17011026,0.00905
 526,-0.00660660,0.00159750,-0.00900487,0.03773180,0.02829287,-0.003097
 57,0.14904730,0.03770618,-0.01477301,-0.01468461,-0.00690955,0.0118271
 0,0.00932199,-0.18864071,-0.37516914,-0.01236334,-0.01630708,0.0038877
 5,-0.01167533,0.01680692,-0.10413254,-0.03302811,0.16536887,0.48190877
 ,-0.02441655,0.00242924,0.00859688,0.00121719,-0.00233137,-0.00366652,
 0.02248236,-0.01518324,-0.05010071,0.00434459,-0.00657496,0.01108850,-
 0.00545432,-0.04268961,0.00110118,-0.00165951,0.06085691,0.03344548,-0
 .09499661,-0.04886568,0.02155229,0.02452925,0.02668039,0.00532364,-0.0
 1623578,-0.02736249,-0.00386290,0.01027127,-0.01415280,0.01186642,-0.0
 0262204,0.00087514,0.00107408,-0.01174286,-0.00752249,0.00299865,0.364
 04336,0.00641091,-0.25168191,-0.02411193,0.00592489,-0.07605720,-0.025
 27665,-0.01250663,-0.02232645,-0.00412342,-0.01510990,-0.02307559,0.02
 717019,-0.00981645,0.00498433,0.00626419,-0.00686540,-0.00320901,0.003
 23329,0.09565589,0.42128392,0.02068965,0.00654838,-0.08298666,0.002845
 47,-0.03647224,0.01602789,-0.00223819,0.00576274,0.00250233,0.01972856
 ,0.04163235,-0.01904920,-0.00114947,-0.00052800,-0.00050709,0.00297610
 ,0.00297915,-0.00107919,-0.29633327,-0.03819557,0.32520215,-0.00566504
 ,-0.00913704,0.00930936,-0.00201469,0.00688765,-0.00007177,-0.00311222
 ,-0.00348926,-0.00101537,0.00211511,0.00486663,-0.00503842,0.00044921,
 0.00022471,0.00008643,-0.00090319,-0.00050214,0.00048759,-0.27324659,-
 0.06369330,0.25348115,0.28237741,-0.04354362,-0.01363621,0.03819248,0.
 00524969,0.00413018,-0.00364906,-0.00089188,-0.00336430,-0.00060494,-0
 .00049608,-0.00456301,0.00187142,0.00087949,0.00026259,-0.00015709,-0.
 00073240,-0.00033992,0.00025974,-0.02530797,-0.04991809,0.01827319,0.0
 6484276,0.06742874,0.00502632,0.00471578,0.00168802,-0.00150424,-0.004
 47621,-0.00358871,-0.00187052,-0.00349530,-0.00092786,0.00116282,0.003
 55895,-0.00210985,-0.00053828,0.00024925,0.00034622,-0.00241820,-0.001
 40666,0.00061438,0.25738107,0.05503992,-0.24011024,-0.25723898,-0.0541
 8573,0.24408804\\-0.00000728,0.00001567,0.00001125,0.00000301,0.000003
 82,-0.00001075,-0.00000290,-0.00000225,-0.00000609,0.00000303,-0.00000
 674,-0.00000656,0.00000388,-0.00000419,0.00000597,0.00000066,0.0000004
 1,0.00000020,0.00000318,-0.00000258,0.00000455,-0.00000357,-0.00000414
 ,0.00000144\\\@
 The archive entry for this job was punched.


 IT CANNOT BE MY BEAUTY, FOR I HAVE NONE; AND IT CANNOT BE MY WIT,
 FOR HE HAS NOT ENOUGH TO KNOW THAT I HAVE ANY.
 -- CATHARINE SEDLEY, PUZZLED ABOUT WHY SHE WAS MISTRESS TO JAMES II
 Job cpu time:       0 days  1 hours  3 minutes 55.8 seconds.
 Elapsed time:       0 days  0 hours  8 minutes 49.8 seconds.
 File lengths (MBytes):  RWF=     50 Int=      0 D2E=      0 Chk=      5 Scr=      1
 Normal termination of Gaussian 16 at Sun May 25 04:30:56 2025.
done
