 Entering Gaussian System, Link 0=g16
 Initial command:
 /apps/easybuild-2022/easybuild/software/Compiler/NVHPC/22.11-CUDA-11.7.0/Gaussian/g16c01-CUDA-11.7.0/g16/l1.exe "/tmp/Gau-82415.inp" -scrdir="/tmp/"
 Entering Link 1 = /apps/easybuild-2022/easybuild/software/Compiler/NVHPC/22.11-CUDA-11.7.0/Gaussian/g16c01-CUDA-11.7.0/g16/l1.exe PID=     82416.
  
 Copyright (c) 1988-2019, Gaussian, Inc.  All Rights Reserved.
  
 This is part of the Gaussian(R) 16 program.  It is based on
 the Gaussian(R) 09 system (copyright 2009, Gaussian, Inc.),
 the Gaussian(R) 03 system (copyright 2003, Gaussian, Inc.),
 the Gaussian(R) 98 system (copyright 1998, Gaussian, Inc.),
 the Gaussian(R) 94 system (copyright 1995, Gaussian, Inc.),
 the Gaussian 92(TM) system (copyright 1992, Gaussian, Inc.),
 the Gaussian 90(TM) system (copyright 1990, Gaussian, Inc.),
 the Gaussian 88(TM) system (copyright 1988, Gaussian, Inc.),
 the Gaussian 86(TM) system (copyright 1986, Carnegie Mellon
 University), and the Gaussian 82(TM) system (copyright 1983,
 Carnegie Mellon University). Gaussian is a federally registered
 trademark of Gaussian, Inc.
  
 This software contains proprietary and confidential information,
 including trade secrets, belonging to Gaussian, Inc.
  
 This software is provided under written license and may be
 used, copied, transmitted, or stored only in accord with that
 written license.
  
 The following legend is applicable only to US Government
 contracts under FAR:
  
                    RESTRICTED RIGHTS LEGEND
  
 Use, reproduction and disclosure by the US Government is
 subject to restrictions as set forth in subparagraphs (a)
 and (c) of the Commercial Computer Software - Restricted
 Rights clause in FAR 52.227-19.
  
 Gaussian, Inc.
 340 Quinnipiac St., Bldg. 40, Wallingford CT 06492
  
  
 ---------------------------------------------------------------
 Warning -- This program may not be used in any manner that
 competes with the business of Gaussian, Inc. or will provide
 assistance to any competitor of Gaussian, Inc.  The licensee
 of this program is prohibited from giving any competitor of
 Gaussian, Inc. access to this program.  By using this program,
 the user acknowledges that Gaussian, Inc. is engaged in the
 business of creating and licensing software in the field of
 computational chemistry and represents and warrants to the
 licensee that it is not a competitor of Gaussian, Inc. and that
 it will not use this program in any manner prohibited above.
 ---------------------------------------------------------------
  

 Cite this work as:
 Gaussian 16, Revision C.01,
 M. J. Frisch, G. W. Trucks, H. B. Schlegel, G. E. Scuseria, 
 M. A. Robb, J. R. Cheeseman, G. Scalmani, V. Barone, 
 G. A. Petersson, H. Nakatsuji, X. Li, M. Caricato, A. V. Marenich, 
 J. Bloino, B. G. Janesko, R. Gomperts, B. Mennucci, H. P. Hratchian, 
 J. V. Ortiz, A. F. Izmaylov, J. L. Sonnenberg, D. Williams-Young, 
 F. Ding, F. Lipparini, F. Egidi, J. Goings, B. Peng, A. Petrone, 
 T. Henderson, D. Ranasinghe, V. G. Zakrzewski, J. Gao, N. Rega, 
 G. Zheng, W. Liang, M. Hada, M. Ehara, K. Toyota, R. Fukuda, 
 J. Hasegawa, M. Ishida, T. Nakajima, Y. Honda, O. Kitao, H. Nakai, 
 T. Vreven, K. Throssell, J. A. Montgomery, Jr., J. E. Peralta, 
 F. Ogliaro, M. J. Bearpark, J. J. Heyd, E. N. Brothers, K. N. Kudin, 
 V. N. Staroverov, T. A. Keith, R. Kobayashi, J. Normand, 
 K. Raghavachari, A. P. Rendell, J. C. Burant, S. S. Iyengar, 
 J. Tomasi, M. Cossi, J. M. Millam, M. Klene, C. Adamo, R. Cammi, 
 J. W. Ochterski, R. L. Martin, K. Morokuma, O. Farkas, 
 J. B. Foresman, and D. J. Fox, Gaussian, Inc., Wallingford CT, 2019.
 
 ******************************************
 Gaussian 16:  ES64L-G16RevC.01  3-Jul-2019
                25-May-2025 
 ******************************************
 %mem=28GB
 %nprocshared=8
 Will use up to    8 processors via shared memory.
 ----------------------------------------------------------------------
 #P M062X/Def2TZVPP Symm(None) scf(xqc) pop(None) opt(NoFreeze,TS,CalcA
 ll,NoEigentest,MaxCycle=999)
 ----------------------------------------------------------------------
 1/5=1,6=999,10=4,11=1,18=20,26=3,29=2000,38=1/1,3;
 2/9=110,12=2,15=3,17=6,18=5,40=1/2;
 3/5=44,7=202,11=2,25=1,30=1,71=2,74=-55,140=1/1,2,3;
 4//1;
 5/5=2,8=3,13=1,38=5/2,8;
 8/6=4,10=90,11=11/1;
 11/6=1,8=1,9=11,15=111,16=1,31=1/1,2,10;
 10/6=1,31=1/2;
 7/10=1,25=1,30=1/1,2,3,16;
 1/5=1,6=999,10=4,11=1,18=20,26=3/3(3);
 2/9=110,15=3/2;
 7/8=1,9=1,25=1,30=1,44=-1/16;
 99//99;
 2/9=110,15=3/2;
 3/5=44,7=202,11=2,25=1,30=1,71=2,74=-55,140=1/1,2,3;
 4/5=5,16=3,69=1/1;
 5/5=2,8=3,13=1,38=5/2,8;
 8/6=4,10=90,11=11/1;
 11/6=1,8=1,9=11,15=111,16=1,31=1/1,2,10;
 10/6=1,31=1/2;
 7/10=1,25=1,30=1/1,2,3,16;
 1/5=1,6=999,10=4,11=1,18=20,26=3/3(-8);
 2/9=110,15=3/2;
 7/8=1,9=1,25=1,30=1,44=-1/16;
 99//99;
 Leave Link    1 at Sun May 25 04:26:17 2025, MaxMem=  3758096384 cpu:               0.0 elap:               0.0
 (Enter /apps/easybuild-2022/easybuild/software/Compiler/NVHPC/22.11-CUDA-11.7.0/Gaussian/g16c01-CUDA-11.7.0/g16/l101.exe)
 ------------------------------
 Gaussian input prepared by ASE
 ------------------------------
 Symbolic Z-matrix:
 Charge =  0 Multiplicity = 1
 C                     1.47521  -0.07134   0.4343 
 O                     2.29507  -0.4543   -0.70692 
 C                    -0.00527  -0.05589   0.08936 
 F                    -0.63409   0.77321   0.92131 
 F                    -0.27275   0.35247  -1.15603 
 F                    -0.50694  -1.27702   0.23229 
 O                     2.03278   1.0927   -0.0816 
 H                     2.9356    1.14445   0.26621 
 
 ITRead=  0  0  0  0  0  0  0  0
 MicOpt= -1 -1 -1 -1 -1 -1 -1 -1
 NAtoms=      8 NQM=        8 NQMF=       0 NMMI=      0 NMMIF=      0
                NMic=       0 NMicF=      0.
                    Isotopes and Nuclear Properties:
 (Nuclear quadrupole moments (NQMom) in fm**2, nuclear magnetic moments (NMagM)
  in nuclear magnetons)

  Atom         1           2           3           4           5           6           7           8
 IAtWgt=          12          16          12          19          19          19          16           1
 AtmWgt=  12.0000000  15.9949146  12.0000000  18.9984032  18.9984032  18.9984032  15.9949146   1.0078250
 NucSpn=           0           0           0           1           1           1           0           1
 AtZEff=  -0.0000000  -0.0000000  -0.0000000  -0.0000000  -0.0000000  -0.0000000  -0.0000000  -0.0000000
 NQMom=    0.0000000   0.0000000   0.0000000   0.0000000   0.0000000   0.0000000   0.0000000   0.0000000
 NMagM=    0.0000000   0.0000000   0.0000000   2.6288670   2.6288670   2.6288670   0.0000000   2.7928460
 AtZNuc=   6.0000000   8.0000000   6.0000000   9.0000000   9.0000000   9.0000000   8.0000000   1.0000000
 Leave Link  101 at Sun May 25 04:26:17 2025, MaxMem=  3758096384 cpu:               0.2 elap:               0.2
 (Enter /apps/easybuild-2022/easybuild/software/Compiler/NVHPC/22.11-CUDA-11.7.0/Gaussian/g16c01-CUDA-11.7.0/g16/l103.exe)

 GradGradGradGradGradGradGradGradGradGradGradGradGradGradGradGradGradGrad
 Berny optimization.
 Initialization pass.
                           ----------------------------
                           !    Initial Parameters    !
                           ! (Angstroms and Degrees)  !
 --------------------------                            --------------------------
 ! Name  Definition              Value          Derivative Info.                !
 --------------------------------------------------------------------------------
 ! R1    R(1,2)                  1.4564         calculate D2E/DX2 analytically  !
 ! R2    R(1,3)                  1.5202         calculate D2E/DX2 analytically  !
 ! R3    R(1,7)                  1.39           calculate D2E/DX2 analytically  !
 ! R4    R(3,4)                  1.3323         calculate D2E/DX2 analytically  !
 ! R5    R(3,5)                  1.3377         calculate D2E/DX2 analytically  !
 ! R6    R(3,6)                  1.3279         calculate D2E/DX2 analytically  !
 ! R7    R(7,8)                  0.9689         calculate D2E/DX2 analytically  !
 ! A1    A(2,1,3)              111.9065         calculate D2E/DX2 analytically  !
 ! A2    A(2,1,7)               72.7561         calculate D2E/DX2 analytically  !
 ! A3    A(3,1,7)              107.3333         calculate D2E/DX2 analytically  !
 ! A4    A(1,3,4)              108.9221         calculate D2E/DX2 analytically  !
 ! A5    A(1,3,5)              114.1476         calculate D2E/DX2 analytically  !
 ! A6    A(1,3,6)              109.521          calculate D2E/DX2 analytically  !
 ! A7    A(4,3,5)              107.2791         calculate D2E/DX2 analytically  !
 ! A8    A(4,3,6)              109.0725         calculate D2E/DX2 analytically  !
 ! A9    A(5,3,6)              107.783          calculate D2E/DX2 analytically  !
 ! A10   A(1,7,8)              106.5756         calculate D2E/DX2 analytically  !
 ! D1    D(2,1,3,4)           -155.3446         calculate D2E/DX2 analytically  !
 ! D2    D(2,1,3,5)            -35.4904         calculate D2E/DX2 analytically  !
 ! D3    D(2,1,3,6)             85.444          calculate D2E/DX2 analytically  !
 ! D4    D(7,1,3,4)            -77.4203         calculate D2E/DX2 analytically  !
 ! D5    D(7,1,3,5)             42.4338         calculate D2E/DX2 analytically  !
 ! D6    D(7,1,3,6)            163.3682         calculate D2E/DX2 analytically  !
 ! D7    D(2,1,7,8)            -80.9081         calculate D2E/DX2 analytically  !
 ! D8    D(3,1,7,8)            170.8902         calculate D2E/DX2 analytically  !
 --------------------------------------------------------------------------------
 Trust Radius=3.00D-01 FncErr=1.00D-07 GrdErr=1.00D-06 EigMax=2.50D+02 EigMin=1.00D-04
 Number of steps in this run=    100 maximum allowed number of steps=    100.
 Search for a saddle point of order  1.
 GradGradGradGradGradGradGradGradGradGradGradGradGradGradGradGradGradGrad

 Leave Link  103 at Sun May 25 04:26:17 2025, MaxMem=  3758096384 cpu:               0.0 elap:               0.0
 (Enter /apps/easybuild-2022/easybuild/software/Compiler/NVHPC/22.11-CUDA-11.7.0/Gaussian/g16c01-CUDA-11.7.0/g16/l202.exe)
                          Input orientation:                          
 ---------------------------------------------------------------------
 Center     Atomic      Atomic             Coordinates (Angstroms)
 Number     Number       Type             X           Y           Z
 ---------------------------------------------------------------------
      1          6           0        1.475206   -0.071342    0.434299
      2          8           0        2.295073   -0.454298   -0.706917
      3          6           0       -0.005273   -0.055893    0.089361
      4          9           0       -0.634086    0.773207    0.921311
      5          9           0       -0.272751    0.352473   -1.156034
      6          9           0       -0.506935   -1.277018    0.232289
      7          8           0        2.032784    1.092700   -0.081604
      8          1           0        2.935603    1.144449    0.266207
 ---------------------------------------------------------------------
                    Distance matrix (angstroms):
                    1          2          3          4          5
     1  C    0.000000
     2  O    1.456438   0.000000
     3  C    1.520210   2.466653   0.000000
     4  F    2.323695   3.569015   1.332274   0.000000
     5  F    2.400861   2.728792   1.337653   2.150103   0.000000
     6  F    2.328808   3.067609   1.327870   2.166643   2.153491
     7  O    1.389979   1.689087   2.345671   2.867073   2.649118
     8  H    1.907659   1.978191   3.181328   3.648241   3.597712
                    6          7          8
     6  F    0.000000
     7  O    3.487731   0.000000
     8  H    4.209005   0.968882   0.000000
 Symmetry turned off by external request.
 Stoichiometry    C2HF3O2
 Rotational constants (GHZ):           4.4710341           2.3289737           2.1035435
 Leave Link  202 at Sun May 25 04:26:17 2025, MaxMem=  3758096384 cpu:               0.0 elap:               0.0
 (Enter /apps/easybuild-2022/easybuild/software/Compiler/NVHPC/22.11-CUDA-11.7.0/Gaussian/g16c01-CUDA-11.7.0/g16/l301.exe)
 Standard basis: def2TZVPP (5D, 7F)
 Ernie: Thresh=  0.10000D-02 Tol=  0.10000D-05 Strict=F.
   231 basis functions,   374 primitive gaussians,   267 cartesian basis functions
    28 alpha electrons       28 beta electrons
       nuclear repulsion energy       338.4332194837 Hartrees.
 IExCor= 4336 DFT=T Ex+Corr=M062X ExCW=0 ScaHFX=  0.540000
 ScaDFX=  1.000000  1.000000  1.000000  1.000000 ScalE2=  1.000000  1.000000
 IRadAn=      5 IRanWt=     -1 IRanGd=            0 ICorTp=0 IEmpDi=  4
 NAtoms=    8 NActive=    8 NUniq=    8 SFac= 1.00D+00 NAtFMM=   60 NAOKFM=F Big=F
 Integral buffers will be    131072 words long.
 Raffenetti 2 integral format.
 Two-electron integral symmetry is turned off.
 Leave Link  301 at Sun May 25 04:26:17 2025, MaxMem=  3758096384 cpu:               0.1 elap:               0.0
 (Enter /apps/easybuild-2022/easybuild/software/Compiler/NVHPC/22.11-CUDA-11.7.0/Gaussian/g16c01-CUDA-11.7.0/g16/l302.exe)
 NPDir=0 NMtPBC=     1 NCelOv=     1 NCel=       1 NClECP=     1 NCelD=      1
         NCelK=      1 NCelE2=     1 NClLst=     1 CellRange=     0.0.
 One-electron integrals computed using PRISM.
   1 Symmetry operations used in ECPInt.
 ECPInt:  NShTT=    3486 NPrTT=   11183 LenC2=    3402 LenP2D=    8728.
 LDataN:  DoStor=T MaxTD1= 6 Len=  172
 NBasis=   231 RedAO= T EigKep=  5.57D-04  NBF=   231
 NBsUse=   231 1.00D-06 EigRej= -1.00D+00 NBFU=   231
 Precomputing XC quadrature grid using
 IXCGrd= 4 IRadAn=           5 IRanWt=          -1 IRanGd=           0 AccXCQ= 0.00D+00.
 Generated NRdTot=       0 NPtTot=           0 NUsed=           0 NTot=          32
 NSgBfM=   266   266   266   266   266 MxSgAt=     8 MxSgA2=     8.
 Leave Link  302 at Sun May 25 04:26:17 2025, MaxMem=  3758096384 cpu:               0.5 elap:               0.1
 (Enter /apps/easybuild-2022/easybuild/software/Compiler/NVHPC/22.11-CUDA-11.7.0/Gaussian/g16c01-CUDA-11.7.0/g16/l303.exe)
 DipDrv:  MaxL=1.
 Leave Link  303 at Sun May 25 04:26:18 2025, MaxMem=  3758096384 cpu:               0.2 elap:               0.1
 (Enter /apps/easybuild-2022/easybuild/software/Compiler/NVHPC/22.11-CUDA-11.7.0/Gaussian/g16c01-CUDA-11.7.0/g16/l401.exe)
 ExpMin= 9.52D-02 ExpMax= 3.55D+04 ExpMxC= 1.21D+03 IAcc=3 IRadAn=         5 AccDes= 0.00D+00
 Harris functional with IExCor= 1009 and IRadAn=       5 diagonalized for initial guess.
 HarFok:  IExCor= 1009 AccDes= 0.00D+00 IRadAn=         5 IDoV= 1 UseB2=F ITyADJ=14
 ICtDFT=  3500011 ScaDFX=  1.000000  1.000000  1.000000  1.000000
 FoFCou: FMM=F IPFlag=           0 FMFlag=      100000 FMFlg1=           0
         NFxFlg=           0 DoJE=T BraDBF=F KetDBF=T FulRan=T
         wScrn=  0.000000 ICntrl=       500 IOpCl=  0 I1Cent=   200000004 NGrid=           0
         NMat0=    1 NMatS0=      1 NMatT0=    0 NMatD0=    1 NMtDS0=    0 NMtDT0=    0
 Symmetry not used in FoFCou.
 Harris En= -526.260923050246    
 JPrj=0 DoOrth=F DoCkMO=F.
 Leave Link  401 at Sun May 25 04:26:18 2025, MaxMem=  3758096384 cpu:               2.1 elap:               0.3
 (Enter /apps/easybuild-2022/easybuild/software/Compiler/NVHPC/22.11-CUDA-11.7.0/Gaussian/g16c01-CUDA-11.7.0/g16/l502.exe)
 Keep R1 ints in memory in canonical form, NReq=368651279.
 FoFCou: FMM=F IPFlag=           0 FMFlag=           0 FMFlg1=           0
         NFxFlg=           0 DoJE=F BraDBF=F KetDBF=F FulRan=T
         wScrn=  0.000000 ICntrl=       600 IOpCl=  0 I1Cent=           0 NGrid=           0
         NMat0=    1 NMatS0=  26796 NMatT0=    0 NMatD0=    1 NMtDS0=    0 NMtDT0=    0
 Symmetry not used in FoFCou.
 Two-electron integral symmetry not used.
 Closed shell SCF:
 Using DIIS extrapolation, IDIIS=  1040.
 NGot=  3758096384 LenX=  3398923531 LenY=  3398851801
 Requested convergence on RMS density matrix=1.00D-08 within  32 cycles.
 Requested convergence on MAX density matrix=1.00D-06.
 Requested convergence on             energy=1.00D-06.
 No special actions if energy rises.
 Integral accuracy reduced to 1.0D-05 until final iterations.

 Cycle   1  Pass 0  IDiag  1:
 E= -526.491088185418    
 DIIS: error= 2.10D-02 at cycle   1 NSaved=   1.
 NSaved= 1 IEnMin= 1 EnMin= -526.491088185418     IErMin= 1 ErrMin= 2.10D-02
 ErrMax= 2.10D-02  0.00D+00 EMaxC= 1.00D-01 BMatC= 1.65D-01 BMatP= 1.65D-01
 IDIUse=3 WtCom= 7.90D-01 WtEn= 2.10D-01
 Coeff-Com:  0.100D+01
 Coeff-En:   0.100D+01
 Coeff:      0.100D+01
 Gap=     0.129 Goal=   None    Shift=    0.000
 GapD=    0.129 DampG=1.000 DampE=0.500 DampFc=0.5000 IDamp=-1.
 Damping current iteration by 5.00D-01
 RMSDP=1.74D-03 MaxDP=8.63D-02              OVMax= 1.25D-01

 Cycle   2  Pass 0  IDiag  1:
 E= -526.526216128250     Delta-E=       -0.035127942833 Rises=F Damp=T
 DIIS: error= 7.08D-03 at cycle   2 NSaved=   2.
 NSaved= 2 IEnMin= 2 EnMin= -526.526216128250     IErMin= 2 ErrMin= 7.08D-03
 ErrMax= 7.08D-03  0.00D+00 EMaxC= 1.00D-01 BMatC= 2.49D-02 BMatP= 1.65D-01
 IDIUse=3 WtCom= 9.29D-01 WtEn= 7.08D-02
 Coeff-Com: -0.111D+00 0.111D+01
 Coeff-En:   0.000D+00 0.100D+01
 Coeff:     -0.103D+00 0.110D+01
 Gap=     0.160 Goal=   None    Shift=    0.000
 RMSDP=6.73D-04 MaxDP=1.95D-02 DE=-3.51D-02 OVMax= 7.57D-02

 Cycle   3  Pass 0  IDiag  1:
 E= -526.557455286806     Delta-E=       -0.031239158555 Rises=F Damp=F
 DIIS: error= 5.14D-03 at cycle   3 NSaved=   3.
 NSaved= 3 IEnMin= 3 EnMin= -526.557455286806     IErMin= 3 ErrMin= 5.14D-03
 ErrMax= 5.14D-03  0.00D+00 EMaxC= 1.00D-01 BMatC= 1.52D-02 BMatP= 2.49D-02
 IDIUse=3 WtCom= 9.49D-01 WtEn= 5.14D-02
 Coeff-Com: -0.180D+00 0.548D+00 0.632D+00
 Coeff-En:   0.000D+00 0.000D+00 0.100D+01
 Coeff:     -0.171D+00 0.520D+00 0.651D+00
 Gap=     0.166 Goal=   None    Shift=    0.000
 RMSDP=3.79D-04 MaxDP=1.72D-02 DE=-3.12D-02 OVMax= 5.01D-02

 Cycle   4  Pass 0  IDiag  1:
 E= -526.563435286292     Delta-E=       -0.005979999486 Rises=F Damp=F
 DIIS: error= 3.64D-03 at cycle   4 NSaved=   4.
 NSaved= 4 IEnMin= 4 EnMin= -526.563435286292     IErMin= 4 ErrMin= 3.64D-03
 ErrMax= 3.64D-03  0.00D+00 EMaxC= 1.00D-01 BMatC= 6.05D-03 BMatP= 1.52D-02
 IDIUse=3 WtCom= 9.64D-01 WtEn= 3.64D-02
 Coeff-Com: -0.100D+00 0.219D+00 0.441D+00 0.441D+00
 Coeff-En:   0.000D+00 0.000D+00 0.319D+00 0.681D+00
 Coeff:     -0.968D-01 0.211D+00 0.437D+00 0.450D+00
 Gap=     0.162 Goal=   None    Shift=    0.000
 RMSDP=1.99D-04 MaxDP=9.34D-03 DE=-5.98D-03 OVMax= 2.38D-02

 Cycle   5  Pass 0  IDiag  1:
 E= -526.567635663448     Delta-E=       -0.004200377156 Rises=F Damp=F
 DIIS: error= 5.99D-04 at cycle   5 NSaved=   5.
 NSaved= 5 IEnMin= 5 EnMin= -526.567635663448     IErMin= 5 ErrMin= 5.99D-04
 ErrMax= 5.99D-04  0.00D+00 EMaxC= 1.00D-01 BMatC= 1.70D-04 BMatP= 6.05D-03
 IDIUse=3 WtCom= 9.94D-01 WtEn= 5.99D-03
 Coeff-Com: -0.360D-01 0.669D-01 0.174D+00 0.224D+00 0.571D+00
 Coeff-En:   0.000D+00 0.000D+00 0.000D+00 0.000D+00 0.100D+01
 Coeff:     -0.358D-01 0.665D-01 0.173D+00 0.223D+00 0.573D+00
 Gap=     0.165 Goal=   None    Shift=    0.000
 RMSDP=3.76D-05 MaxDP=1.44D-03 DE=-4.20D-03 OVMax= 4.50D-03

 Cycle   6  Pass 0  IDiag  1:
 E= -526.567746464542     Delta-E=       -0.000110801093 Rises=F Damp=F
 DIIS: error= 1.78D-04 at cycle   6 NSaved=   6.
 NSaved= 6 IEnMin= 6 EnMin= -526.567746464542     IErMin= 6 ErrMin= 1.78D-04
 ErrMax= 1.78D-04  0.00D+00 EMaxC= 1.00D-01 BMatC= 1.69D-05 BMatP= 1.70D-04
 IDIUse=3 WtCom= 9.98D-01 WtEn= 1.78D-03
 Coeff-Com: -0.501D-02 0.678D-02 0.327D-01 0.538D-01 0.261D+00 0.650D+00
 Coeff-En:   0.000D+00 0.000D+00 0.000D+00 0.000D+00 0.000D+00 0.100D+01
 Coeff:     -0.500D-02 0.677D-02 0.327D-01 0.537D-01 0.261D+00 0.651D+00
 Gap=     0.164 Goal=   None    Shift=    0.000
 RMSDP=2.90D-05 MaxDP=9.29D-04 DE=-1.11D-04 OVMax= 5.47D-03

 Cycle   7  Pass 0  IDiag  1:
 E= -526.567771388862     Delta-E=       -0.000024924320 Rises=F Damp=F
 DIIS: error= 1.52D-04 at cycle   7 NSaved=   7.
 NSaved= 7 IEnMin= 7 EnMin= -526.567771388862     IErMin= 7 ErrMin= 1.52D-04
 ErrMax= 1.52D-04  0.00D+00 EMaxC= 1.00D-01 BMatC= 8.72D-06 BMatP= 1.69D-05
 IDIUse=3 WtCom= 9.98D-01 WtEn= 1.52D-03
 Coeff-Com:  0.559D-02-0.113D-01-0.226D-01-0.278D-01-0.662D-01 0.399D+00
 Coeff-Com:  0.724D+00
 Coeff-En:   0.000D+00 0.000D+00 0.000D+00 0.000D+00 0.000D+00 0.000D+00
 Coeff-En:   0.100D+01
 Coeff:      0.559D-02-0.113D-01-0.225D-01-0.278D-01-0.661D-01 0.398D+00
 Coeff:      0.724D+00
 Gap=     0.165 Goal=   None    Shift=    0.000
 RMSDP=1.78D-05 MaxDP=1.19D-03 DE=-2.49D-05 OVMax= 2.28D-03

 Cycle   8  Pass 0  IDiag  1:
 E= -526.567786348142     Delta-E=       -0.000014959280 Rises=F Damp=F
 DIIS: error= 8.62D-05 at cycle   8 NSaved=   8.
 NSaved= 8 IEnMin= 8 EnMin= -526.567786348142     IErMin= 8 ErrMin= 8.62D-05
 ErrMax= 8.62D-05  0.00D+00 EMaxC= 1.00D-01 BMatC= 2.41D-06 BMatP= 8.72D-06
 IDIUse=1 WtCom= 1.00D+00 WtEn= 0.00D+00
 Coeff-Com:  0.329D-02-0.559D-02-0.131D-01-0.163D-01-0.928D-01 0.102D+00
 Coeff-Com: -0.791D-01 0.110D+01
 Coeff:      0.329D-02-0.559D-02-0.131D-01-0.163D-01-0.928D-01 0.102D+00
 Coeff:     -0.791D-01 0.110D+01
 Gap=     0.165 Goal=   None    Shift=    0.000
 RMSDP=1.81D-05 MaxDP=8.45D-04 DE=-1.50D-05 OVMax= 3.01D-03

 Cycle   9  Pass 0  IDiag  1:
 E= -526.567795486171     Delta-E=       -0.000009138029 Rises=F Damp=F
 DIIS: error= 6.88D-05 at cycle   9 NSaved=   9.
 NSaved= 9 IEnMin= 9 EnMin= -526.567795486171     IErMin= 9 ErrMin= 6.88D-05
 ErrMax= 6.88D-05  0.00D+00 EMaxC= 1.00D-01 BMatC= 1.52D-06 BMatP= 2.41D-06
 IDIUse=1 WtCom= 1.00D+00 WtEn= 0.00D+00
 Coeff-Com: -0.155D-02 0.337D-02 0.903D-02 0.166D-01 0.822D-02-0.249D-01
 Coeff-Com: -0.594D+00-0.137D+00 0.172D+01
 Coeff:     -0.155D-02 0.337D-02 0.903D-02 0.166D-01 0.822D-02-0.249D-01
 Coeff:     -0.594D+00-0.137D+00 0.172D+01
 Gap=     0.166 Goal=   None    Shift=    0.000
 RMSDP=2.76D-05 MaxDP=1.42D-03 DE=-9.14D-06 OVMax= 4.63D-03

 Failed to achieve initial convergence to 1.0D-08 in 10 cycles.
 Switch to full accuracy anyway.
 Cycle  10  Pass 1  IDiag  1:
 E= -526.567797622353     Delta-E=       -0.000002136182 Rises=F Damp=F
 DIIS: error= 3.61D-05 at cycle   1 NSaved=   1.
 NSaved= 1 IEnMin= 1 EnMin= -526.567797622353     IErMin= 1 ErrMin= 3.61D-05
 ErrMax= 3.61D-05  0.00D+00 EMaxC= 1.00D-01 BMatC= 8.04D-07 BMatP= 8.04D-07
 IDIUse=1 WtCom= 1.00D+00 WtEn= 0.00D+00
 Coeff-Com:  0.100D+01
 Coeff:      0.100D+01
 Gap=     0.166 Goal=   None    Shift=    0.000
 RMSDP=2.76D-05 MaxDP=1.42D-03 DE=-2.14D-06 OVMax= 5.20D-04

 Cycle  11  Pass 1  IDiag  1:
 E= -526.567798503794     Delta-E=       -0.000000881441 Rises=F Damp=F
 DIIS: error= 2.97D-05 at cycle   2 NSaved=   2.
 NSaved= 2 IEnMin= 2 EnMin= -526.567798503794     IErMin= 2 ErrMin= 2.97D-05
 ErrMax= 2.97D-05  0.00D+00 EMaxC= 1.00D-01 BMatC= 4.95D-07 BMatP= 8.04D-07
 IDIUse=1 WtCom= 1.00D+00 WtEn= 0.00D+00
 Coeff-Com:  0.416D+00 0.584D+00
 Coeff:      0.416D+00 0.584D+00
 Gap=     0.166 Goal=   None    Shift=    0.000
 RMSDP=5.23D-06 MaxDP=2.41D-04 DE=-8.81D-07 OVMax= 1.03D-03

 Cycle  12  Pass 1  IDiag  1:
 E= -526.567799050774     Delta-E=       -0.000000546980 Rises=F Damp=F
 DIIS: error= 4.32D-05 at cycle   3 NSaved=   3.
 NSaved= 3 IEnMin= 3 EnMin= -526.567799050774     IErMin= 2 ErrMin= 2.97D-05
 ErrMax= 4.32D-05  0.00D+00 EMaxC= 1.00D-01 BMatC= 4.98D-07 BMatP= 4.95D-07
 IDIUse=1 WtCom= 1.00D+00 WtEn= 0.00D+00
 Coeff-Com: -0.474D-01 0.506D+00 0.542D+00
 Coeff:     -0.474D-01 0.506D+00 0.542D+00
 Gap=     0.166 Goal=   None    Shift=    0.000
 RMSDP=2.80D-06 MaxDP=1.26D-04 DE=-5.47D-07 OVMax= 3.63D-04

 Cycle  13  Pass 1  IDiag  1:
 E= -526.567799637820     Delta-E=       -0.000000587046 Rises=F Damp=F
 DIIS: error= 1.76D-05 at cycle   4 NSaved=   4.
 NSaved= 4 IEnMin= 4 EnMin= -526.567799637820     IErMin= 4 ErrMin= 1.76D-05
 ErrMax= 1.76D-05  0.00D+00 EMaxC= 1.00D-01 BMatC= 1.15D-07 BMatP= 4.95D-07
 IDIUse=1 WtCom= 1.00D+00 WtEn= 0.00D+00
 Coeff-Com: -0.776D-01 0.309D+00 0.122D+00 0.646D+00
 Coeff:     -0.776D-01 0.309D+00 0.122D+00 0.646D+00
 Gap=     0.166 Goal=   None    Shift=    0.000
 RMSDP=2.08D-06 MaxDP=1.01D-04 DE=-5.87D-07 OVMax= 3.51D-04

 Cycle  14  Pass 1  IDiag  1:
 E= -526.567799857054     Delta-E=       -0.000000219234 Rises=F Damp=F
 DIIS: error= 1.98D-05 at cycle   5 NSaved=   5.
 NSaved= 5 IEnMin= 5 EnMin= -526.567799857054     IErMin= 4 ErrMin= 1.76D-05
 ErrMax= 1.98D-05  0.00D+00 EMaxC= 1.00D-01 BMatC= 8.74D-08 BMatP= 1.15D-07
 IDIUse=1 WtCom= 1.00D+00 WtEn= 0.00D+00
 Coeff-Com:  0.420D-02-0.184D+00-0.998D+00 0.278D+00 0.190D+01
 Coeff:      0.420D-02-0.184D+00-0.998D+00 0.278D+00 0.190D+01
 Gap=     0.166 Goal=   None    Shift=    0.000
 RMSDP=7.14D-06 MaxDP=3.41D-04 DE=-2.19D-07 OVMax= 1.24D-03

 Cycle  15  Pass 1  IDiag  1:
 E= -526.567800375529     Delta-E=       -0.000000518475 Rises=F Damp=F
 DIIS: error= 9.44D-06 at cycle   6 NSaved=   6.
 NSaved= 6 IEnMin= 6 EnMin= -526.567800375529     IErMin= 6 ErrMin= 9.44D-06
 ErrMax= 9.44D-06  0.00D+00 EMaxC= 1.00D-01 BMatC= 2.90D-08 BMatP= 8.74D-08
 IDIUse=1 WtCom= 1.00D+00 WtEn= 0.00D+00
 Coeff-Com:  0.329D-01-0.228D+00-0.852D+00-0.154D+00 0.145D+01 0.754D+00
 Coeff:      0.329D-01-0.228D+00-0.852D+00-0.154D+00 0.145D+01 0.754D+00
 Gap=     0.166 Goal=   None    Shift=    0.000
 RMSDP=4.33D-06 MaxDP=2.34D-04 DE=-5.18D-07 OVMax= 7.32D-04

 Cycle  16  Pass 1  IDiag  1:
 E= -526.567800505224     Delta-E=       -0.000000129695 Rises=F Damp=F
 DIIS: error= 1.58D-06 at cycle   7 NSaved=   7.
 NSaved= 7 IEnMin= 7 EnMin= -526.567800505224     IErMin= 7 ErrMin= 1.58D-06
 ErrMax= 1.58D-06  0.00D+00 EMaxC= 1.00D-01 BMatC= 1.06D-09 BMatP= 2.90D-08
 IDIUse=1 WtCom= 1.00D+00 WtEn= 0.00D+00
 Coeff-Com:  0.100D-01-0.187D-01-0.719D-01-0.107D+00 0.105D+00 0.134D+00
 Coeff-Com:  0.949D+00
 Coeff:      0.100D-01-0.187D-01-0.719D-01-0.107D+00 0.105D+00 0.134D+00
 Coeff:      0.949D+00
 Gap=     0.166 Goal=   None    Shift=    0.000
 RMSDP=1.04D-06 MaxDP=5.82D-05 DE=-1.30D-07 OVMax= 1.76D-04

 Cycle  17  Pass 1  IDiag  1:
 E= -526.567800512597     Delta-E=       -0.000000007373 Rises=F Damp=F
 DIIS: error= 6.98D-07 at cycle   8 NSaved=   8.
 NSaved= 8 IEnMin= 8 EnMin= -526.567800512597     IErMin= 8 ErrMin= 6.98D-07
 ErrMax= 6.98D-07  0.00D+00 EMaxC= 1.00D-01 BMatC= 2.80D-10 BMatP= 1.06D-09
 IDIUse=1 WtCom= 1.00D+00 WtEn= 0.00D+00
 Coeff-Com: -0.345D-02 0.360D-01 0.134D+00-0.236D-01-0.217D+00-0.114D+00
 Coeff-Com:  0.381D+00 0.807D+00
 Coeff:     -0.345D-02 0.360D-01 0.134D+00-0.236D-01-0.217D+00-0.114D+00
 Coeff:      0.381D+00 0.807D+00
 Gap=     0.166 Goal=   None    Shift=    0.000
 RMSDP=3.18D-07 MaxDP=1.63D-05 DE=-7.37D-09 OVMax= 5.12D-05

 Cycle  18  Pass 1  IDiag  1:
 E= -526.567800513301     Delta-E=       -0.000000000704 Rises=F Damp=F
 DIIS: error= 1.91D-07 at cycle   9 NSaved=   9.
 NSaved= 9 IEnMin= 9 EnMin= -526.567800513301     IErMin= 9 ErrMin= 1.91D-07
 ErrMax= 1.91D-07  0.00D+00 EMaxC= 1.00D-01 BMatC= 2.53D-11 BMatP= 2.80D-10
 IDIUse=1 WtCom= 1.00D+00 WtEn= 0.00D+00
 Coeff-Com: -0.196D-02 0.970D-02 0.381D-01 0.273D-02-0.492D-01-0.395D-01
 Coeff-Com: -0.574D-01 0.179D+00 0.919D+00
 Coeff:     -0.196D-02 0.970D-02 0.381D-01 0.273D-02-0.492D-01-0.395D-01
 Coeff:     -0.574D-01 0.179D+00 0.919D+00
 Gap=     0.166 Goal=   None    Shift=    0.000
 RMSDP=3.51D-08 MaxDP=1.29D-06 DE=-7.04D-10 OVMax= 4.94D-06

 Cycle  19  Pass 1  IDiag  1:
 E= -526.567800513342     Delta-E=       -0.000000000041 Rises=F Damp=F
 DIIS: error= 8.95D-08 at cycle  10 NSaved=  10.
 NSaved=10 IEnMin=10 EnMin= -526.567800513342     IErMin=10 ErrMin= 8.95D-08
 ErrMax= 8.95D-08  0.00D+00 EMaxC= 1.00D-01 BMatC= 3.33D-12 BMatP= 2.53D-11
 IDIUse=1 WtCom= 1.00D+00 WtEn= 0.00D+00
 Coeff-Com:  0.294D-03-0.537D-02-0.166D-01 0.352D-02 0.298D-01 0.161D-01
 Coeff-Com: -0.733D-01-0.101D+00 0.723D-01 0.107D+01
 Coeff:      0.294D-03-0.537D-02-0.166D-01 0.352D-02 0.298D-01 0.161D-01
 Coeff:     -0.733D-01-0.101D+00 0.723D-01 0.107D+01
 Gap=     0.166 Goal=   None    Shift=    0.000
 RMSDP=1.96D-08 MaxDP=1.05D-06 DE=-4.07D-11 OVMax= 2.66D-06

 Cycle  20  Pass 1  IDiag  1:
 E= -526.567800513405     Delta-E=       -0.000000000063 Rises=F Damp=F
 DIIS: error= 2.66D-08 at cycle  11 NSaved=  11.
 NSaved=11 IEnMin=11 EnMin= -526.567800513405     IErMin=11 ErrMin= 2.66D-08
 ErrMax= 2.66D-08  0.00D+00 EMaxC= 1.00D-01 BMatC= 5.91D-13 BMatP= 3.33D-12
 IDIUse=1 WtCom= 1.00D+00 WtEn= 0.00D+00
 Coeff-Com:  0.309D-03-0.264D-02-0.811D-02 0.144D-02 0.122D-01 0.804D-02
 Coeff-Com: -0.124D-01-0.440D-01-0.838D-01 0.274D+00 0.855D+00
 Coeff:      0.309D-03-0.264D-02-0.811D-02 0.144D-02 0.122D-01 0.804D-02
 Coeff:     -0.124D-01-0.440D-01-0.838D-01 0.274D+00 0.855D+00
 Gap=     0.166 Goal=   None    Shift=    0.000
 RMSDP=6.67D-09 MaxDP=4.39D-07 DE=-6.34D-11 OVMax= 7.91D-07

 SCF Done:  E(RM062X) =  -526.567800513     A.U. after   20 cycles
            NFock= 20  Conv=0.67D-08     -V/T= 2.0036
 KE= 5.246560146127D+02 PE=-1.924594669230D+03 EE= 5.349376346203D+02
 Leave Link  502 at Sun May 25 04:26:31 2025, MaxMem=  3758096384 cpu:              64.0 elap:              13.4
 (Enter /apps/easybuild-2022/easybuild/software/Compiler/NVHPC/22.11-CUDA-11.7.0/Gaussian/g16c01-CUDA-11.7.0/g16/l508.exe)
 QCSCF skips out because SCF is already converged.
 Leave Link  508 at Sun May 25 04:26:31 2025, MaxMem=  3758096384 cpu:               0.0 elap:               0.0
 (Enter /apps/easybuild-2022/easybuild/software/Compiler/NVHPC/22.11-CUDA-11.7.0/Gaussian/g16c01-CUDA-11.7.0/g16/l801.exe)
 DoSCS=F DFT=T ScalE2(SS,OS)=  1.000000  1.000000
 Range of M.O.s used for correlation:     1   231
 NBasis=   231 NAE=    28 NBE=    28 NFC=     0 NFV=     0
 NROrb=    231 NOA=    28 NOB=    28 NVA=   203 NVB=   203

 **** Warning!!: The largest alpha MO coefficient is  0.16919881D+02

 Leave Link  801 at Sun May 25 04:26:31 2025, MaxMem=  3758096384 cpu:               0.1 elap:               0.1
 (Enter /apps/easybuild-2022/easybuild/software/Compiler/NVHPC/22.11-CUDA-11.7.0/Gaussian/g16c01-CUDA-11.7.0/g16/l1101.exe)
 Using compressed storage, NAtomX=     8.
 Will process      9 centers per pass.
   1 Symmetry operations used in ECPInt.
 ECPInt:  NShTT=    3486 NPrTT=   11183 LenC2=    3402 LenP2D=    8728.
 LDataN:  DoStor=T MaxTD1= 7 Len=  274
 Leave Link 1101 at Sun May 25 04:26:32 2025, MaxMem=  3758096384 cpu:               0.7 elap:               0.1
 (Enter /apps/easybuild-2022/easybuild/software/Compiler/NVHPC/22.11-CUDA-11.7.0/Gaussian/g16c01-CUDA-11.7.0/g16/l1102.exe)
 Symmetrizing basis deriv contribution to polar:
 IMax=3 JMax=2 DiffMx= 0.00D+00
 Leave Link 1102 at Sun May 25 04:26:32 2025, MaxMem=  3758096384 cpu:               0.1 elap:               0.0
 (Enter /apps/easybuild-2022/easybuild/software/Compiler/NVHPC/22.11-CUDA-11.7.0/Gaussian/g16c01-CUDA-11.7.0/g16/l1110.exe)
 Forming Gx(P) for the SCF density, NAtomX=     8.
 Integral derivatives from FoFJK, PRISM(SPDF).
 Do as many integral derivatives as possible in FoFJK.
 G2DrvN: MDV=    3758095424.
 G2DrvN: will do     9 centers at a time, making    1 passes.
 Calling FoFCou, ICntrl=  3107 FMM=F I1Cent=   0 AccDes= 0.00D+00.
 FoFJK:  IHMeth= 1 ICntrl=    3107 DoSepK=F KAlg= 0 I1Cent=           0 FoldK=F
 IRaf=         0 NMat=       1 IRICut=       1 DoRegI=T DoRafI=F ISym2E= 0 IDoP0=0 IntGTp=1.
 FoFCou: FMM=F IPFlag=           0 FMFlag=      100000 FMFlg1=           0
         NFxFlg=           0 DoJE=F BraDBF=F KetDBF=F FulRan=T
         wScrn=  0.000000 ICntrl=      3107 IOpCl=  0 I1Cent=           0 NGrid=           0
         NMat0=    1 NMatS0=      1 NMatT0=    0 NMatD0=    1 NMtDS0=    0 NMtDT0=    0
 Symmetry not used in FoFCou.
 End of G2Drv F.D. properties file   721 does not exist.
 End of G2Drv F.D. properties file   722 does not exist.
 End of G2Drv F.D. properties file   788 does not exist.
 Leave Link 1110 at Sun May 25 04:26:46 2025, MaxMem=  3758096384 cpu:             114.7 elap:              14.5
 (Enter /apps/easybuild-2022/easybuild/software/Compiler/NVHPC/22.11-CUDA-11.7.0/Gaussian/g16c01-CUDA-11.7.0/g16/l1002.exe)
 Minotr:  Closed shell wavefunction.
          IDoAtm=11111111
          Direct CPHF calculation.
          Differentiating once with respect to electric field.
                with respect to dipole field.
          Differentiating once with respect to nuclear coordinates.
          Requested convergence is 1.0D-08 RMS, and 1.0D-07 maximum.
          Secondary convergence is 1.0D-12 RMS, and 1.0D-12 maximum.
          NewPWx=T KeepS1=F KeepF1=F KeepIn=T MapXYZ=F SortEE=F KeepMc=T.
         2392 words used for storage of precomputed grid.
 Keep R1 ints in memory in canonical form, NReq=368655240.
 FoFCou: FMM=F IPFlag=           0 FMFlag=           0 FMFlg1=           0
         NFxFlg=           0 DoJE=F BraDBF=F KetDBF=F FulRan=T
         wScrn=  0.000000 ICntrl=       600 IOpCl=  0 I1Cent=           0 NGrid=           0
         NMat0=    1 NMatS0=  26796 NMatT0=    0 NMatD0=    1 NMtDS0=    0 NMtDT0=    0
 Symmetry not used in FoFCou.
 Two-electron integral symmetry not used.
          MDV=    3758096384 using IRadAn=       1.
          Solving linear equations simultaneously, MaxMat=       0.
          There are    27 degrees of freedom in the 1st order CPHF.  IDoFFX=6 NUNeed=     3.
     24 vectors produced by pass  0 Test12= 2.11D-14 3.70D-09 XBig12= 2.23D+01 2.82D+00.
 AX will form    24 AO Fock derivatives at one time.
     24 vectors produced by pass  1 Test12= 2.11D-14 3.70D-09 XBig12= 6.24D+00 5.64D-01.
     24 vectors produced by pass  2 Test12= 2.11D-14 3.70D-09 XBig12= 2.65D-01 1.10D-01.
     24 vectors produced by pass  3 Test12= 2.11D-14 3.70D-09 XBig12= 6.01D-03 1.13D-02.
     24 vectors produced by pass  4 Test12= 2.11D-14 3.70D-09 XBig12= 1.01D-04 1.68D-03.
     24 vectors produced by pass  5 Test12= 2.11D-14 3.70D-09 XBig12= 8.66D-07 1.45D-04.
     24 vectors produced by pass  6 Test12= 2.11D-14 3.70D-09 XBig12= 4.58D-09 9.72D-06.
     12 vectors produced by pass  7 Test12= 2.11D-14 3.70D-09 XBig12= 2.25D-11 7.29D-07.
      3 vectors produced by pass  8 Test12= 2.11D-14 3.70D-09 XBig12= 1.14D-13 4.93D-08.
      1 vectors produced by pass  9 Test12= 2.11D-14 3.70D-09 XBig12= 6.42D-16 3.74D-09.
 InvSVY:  IOpt=1 It=  1 EMax= 8.88D-15
 Solved reduced A of dimension   184 with    27 vectors.
 FullF1:  Do perturbations      1 to       3.
 Isotropic polarizability for W=    0.000000       39.30 Bohr**3.
 End of Minotr F.D. properties file   721 does not exist.
 End of Minotr F.D. properties file   722 does not exist.
 End of Minotr F.D. properties file   788 does not exist.
 Leave Link 1002 at Sun May 25 04:27:08 2025, MaxMem=  3758096384 cpu:             171.5 elap:              22.1
 (Enter /apps/easybuild-2022/easybuild/software/Compiler/NVHPC/22.11-CUDA-11.7.0/Gaussian/g16c01-CUDA-11.7.0/g16/l701.exe)
 ... and contract with generalized density number  0.
 Compute integral second derivatives.
   1 Symmetry operations used in ECPInt.
 ECPInt:  NShTT=    3486 NPrTT=   11183 LenC2=    3402 LenP2D=    8728.
 LDataN:  DoStor=T MaxTD1= 8 Len=  415
 Leave Link  701 at Sun May 25 04:27:08 2025, MaxMem=  3758096384 cpu:               0.7 elap:               0.1
 (Enter /apps/easybuild-2022/easybuild/software/Compiler/NVHPC/22.11-CUDA-11.7.0/Gaussian/g16c01-CUDA-11.7.0/g16/l702.exe)
 L702 exits ... SP integral derivatives will be done elsewhere.
 Leave Link  702 at Sun May 25 04:27:08 2025, MaxMem=  3758096384 cpu:               0.0 elap:               0.0
 (Enter /apps/easybuild-2022/easybuild/software/Compiler/NVHPC/22.11-CUDA-11.7.0/Gaussian/g16c01-CUDA-11.7.0/g16/l703.exe)
 Integral derivatives from FoFJK, PRISM(SPDF).
 Compute integral second derivatives, UseDBF=F ICtDFT=           0.
 Calling FoFJK, ICntrl=    100127 FMM=F ISym2X=0 I1Cent= 0 IOpClX= 0 NMat=1 NMatS=1 NMatT=0.
 FoFJK:  IHMeth= 1 ICntrl=  100127 DoSepK=F KAlg= 0 I1Cent=           0 FoldK=F
 IRaf=         0 NMat=       1 IRICut=       1 DoRegI=T DoRafI=F ISym2E= 0 IDoP0=0 IntGTp=1.
 FoFCou: FMM=F IPFlag=           0 FMFlag=      100000 FMFlg1=         800
         NFxFlg=           0 DoJE=F BraDBF=F KetDBF=F FulRan=T
         wScrn=  0.000000 ICntrl=    100127 IOpCl=  0 I1Cent=           0 NGrid=           0
         NMat0=    1 NMatS0=      1 NMatT0=    0 NMatD0=    1 NMtDS0=    0 NMtDT0=    0
 Symmetry not used in FoFCou.
 Leave Link  703 at Sun May 25 04:27:44 2025, MaxMem=  3758096384 cpu:             282.9 elap:              35.7
 (Enter /apps/easybuild-2022/easybuild/software/Compiler/NVHPC/22.11-CUDA-11.7.0/Gaussian/g16c01-CUDA-11.7.0/g16/l716.exe)
 Dipole        = 1.05407815D+00 6.99006268D-01 1.26097875D-01
 Polarizability= 4.19443622D+01 2.85918434D+00 3.57146912D+01
                -8.36786913D+00 5.40225638D-01 4.02457659D+01
 -------------------------------------------------------------------
 Center     Atomic                   Forces (Hartrees/Bohr)
 Number     Number              X              Y              Z
 -------------------------------------------------------------------
      1        6           0.000000660   -0.000002379   -0.000000142
      2        8          -0.000000508    0.000003154   -0.000003195
      3        6          -0.000000513    0.000001119   -0.000001607
      4        9          -0.000000176   -0.000003965    0.000002702
      5        9          -0.000000044    0.000004775    0.000000715
      6        9          -0.000001177   -0.000001594   -0.000004841
      7        8           0.000001725   -0.000000230    0.000003044
      8        1           0.000000033   -0.000000880    0.000003323
 -------------------------------------------------------------------
 Cartesian Forces:  Max     0.000004841 RMS     0.000002314
 Force constants in Cartesian coordinates: 
                1             2             3             4             5 
      1  0.370938D+00
      2 -0.202653D-01  0.151020D+00
      3  0.888141D-01  0.132532D+00 -0.689712D-01
      4 -0.105320D+00 -0.113663D-01  0.809448D-01  0.124550D+00
      5  0.208669D+00  0.192775D+00 -0.415266D+00 -0.364436D-01 -0.239514D+00
      6  0.103394D+00 -0.282566D-01 -0.137207D+00 -0.969929D-01  0.112134D+00
      7 -0.153332D+00  0.117526D-01 -0.689557D-01 -0.137756D-01 -0.629304D-01
      8  0.318311D-01 -0.451129D-01 -0.143880D-01  0.199297D-01 -0.192718D-01
      9 -0.727907D-01 -0.167793D-01 -0.224211D-01  0.354569D-01  0.270056D-01
     10 -0.236385D-01  0.339741D-01  0.289543D-01 -0.108847D-01  0.133613D-02
     11  0.134553D-01 -0.694478D-02 -0.130907D-01  0.293500D-02 -0.177592D-02
     12  0.798789D-02 -0.706164D-02 -0.504237D-02  0.159477D-03 -0.377318D-02
     13 -0.334975D-01 -0.205273D-02 -0.128416D-01  0.127631D-02  0.307183D-01
     14  0.761448D-02  0.672793D-02  0.254340D-02 -0.583218D-03 -0.857611D-02
     15 -0.355407D-01 -0.653990D-02  0.248240D-02  0.111188D-02  0.390252D-01
     16 -0.100306D-01 -0.399102D-01  0.238577D-02  0.113187D-03  0.100938D-02
     17 -0.131696D-01 -0.190450D-01  0.347938D-02 -0.339156D-02  0.264406D-02
     18 -0.516364D-02 -0.596048D-02  0.620845D-02 -0.217754D-02  0.236676D-02
     19 -0.358967D-01  0.262815D-01 -0.101524D+00 -0.302859D-03 -0.133145D+00
     20 -0.207901D+00 -0.283504D+00  0.328666D+00  0.397334D-01  0.103618D+00
     21 -0.127615D+00 -0.909681D-01  0.246327D+00 -0.128502D-01  0.276633D+00
     22 -0.922303D-02  0.158621D-02 -0.177779D-01  0.434356D-02 -0.921384D-02
     23 -0.202340D-01  0.408424D-02 -0.244760D-01 -0.108134D-01 -0.298994D-01
     24  0.409142D-01  0.230341D-01 -0.213758D-01 -0.565245D-02 -0.381263D-01
                6             7             8             9            10 
      6  0.166788D+00
      7 -0.748002D-03  0.598781D+00
      8 -0.152732D-03  0.124841D-01  0.575053D+00
      9 -0.184962D-01 -0.369269D-02  0.520389D-02  0.536521D+00
     10  0.747506D-03 -0.158042D+00  0.758840D-01  0.687552D-01  0.152701D+00
     11  0.460659D-03  0.753063D-01 -0.152374D+00 -0.749042D-01 -0.107129D+00
     12  0.530953D-02  0.748707D-01 -0.768911D-01 -0.148658D+00 -0.104518D+00
     13 -0.125956D-02 -0.943664D-01  0.171486D-01 -0.560558D-01  0.144567D-01
     14  0.313243D-03  0.162746D-01 -0.905048D-01  0.536399D-01 -0.173866D-02
     15  0.532647D-02 -0.511733D-01  0.552855D-01 -0.244364D+00  0.101742D-01
     16  0.144644D-02 -0.140086D+00 -0.975041D-01  0.483656D-02  0.222567D-01
     17  0.253348D-02 -0.100653D+00 -0.256560D+00  0.165654D-01  0.127990D-02
     18  0.169763D-02  0.114692D-01  0.191646D-01 -0.766674D-01 -0.529574D-02
     19 -0.117538D-01 -0.330737D-01 -0.561118D-01  0.208836D-01  0.192754D-02
     20 -0.770282D-01  0.527755D-01 -0.744935D-02 -0.133017D-01 -0.398854D-02
     21 -0.134694D-01  0.449482D-01  0.585510D-02 -0.287246D-01  0.110047D-02
     22  0.516654D-02 -0.610510D-02 -0.366156D-02  0.260688D-02  0.122297D-02
     23 -0.100044D-01 -0.500987D-02 -0.378037D-02  0.257053D-02  0.381612D-03
     24 -0.994870D-02 -0.671837D-02  0.592276D-02  0.280985D-02  0.822800D-04
               11            12            13            14            15 
     11  0.214001D+00
     12  0.136398D+00  0.222217D+00
     13 -0.405493D-03  0.254730D-01  0.817068D-01
     14  0.138742D-01 -0.270340D-01 -0.178534D-01  0.112524D+00
     15 -0.142745D-01 -0.799082D-01  0.514279D-01 -0.925670D-01  0.367150D+00
     16  0.138676D-01 -0.149565D-02  0.153253D-01 -0.887513D-03  0.598648D-02
     17 -0.724998D-01 -0.255145D-01 -0.994328D-02 -0.422809D-01  0.439756D-01
     18 -0.341502D-01  0.561850D-02  0.151675D-01  0.586283D-01 -0.244783D-01
     19  0.235069D-02 -0.190360D-02  0.120320D-01 -0.229110D-02  0.151323D-01
     20  0.599128D-02  0.415374D-02 -0.202041D-01  0.863652D-02 -0.272559D-01
     21  0.272729D-03  0.812716D-03 -0.241473D-01  0.639059D-02 -0.295149D-01
     22 -0.380787D-03 -0.573547D-03  0.306678D-02 -0.535230D-03  0.288113D-02
     23 -0.271662D-03 -0.277132D-03  0.259203D-02 -0.401181D-03  0.235099D-02
     24 -0.711607D-03 -0.349589D-03  0.223580D-02 -0.191446D-02  0.330627D-02
               16            17            18            19            20 
     16  0.125149D+00
     17  0.129248D+00  0.389035D+00
     18 -0.134248D-01 -0.383192D-01  0.865124D-01
     19 -0.125971D-01 -0.336097D-02 -0.626831D-03  0.511297D+00
     20 -0.517526D-02 -0.151906D-02 -0.192149D-02  0.160944D+00  0.197516D+00
     21 -0.251191D-02 -0.452908D-02  0.116332D-02  0.274336D+00 -0.220801D+00
     22 -0.130401D-03 -0.973426D-05  0.518556D-04 -0.443386D+00 -0.161838D-01
     23 -0.647986D-03  0.225390D-03  0.191651D-03  0.533284D-02 -0.232894D-01
     24  0.277711D-02  0.180893D-02 -0.545876D-04 -0.194544D+00  0.748902D-02
               21            22            23            24 
     21 -0.112414D+00
     22 -0.153261D+00  0.450211D+00
     23  0.271469D-01  0.283988D-01  0.533324D-01
     24 -0.641806D-01  0.160906D+00  0.249747D-02  0.897932D-01
 FormGI is forming the generalized inverse of G from B-inverse, IUseBI=4.
 Force constants in internal coordinates: 
                1             2             3             4             5 
      1  0.267850D+00
      2  0.376933D-02  0.281253D+00
      3  0.928095D-01  0.961944D-03  0.342643D+00
      4  0.251526D-02  0.241641D-01  0.587032D-02  0.434140D+00
      5  0.146755D-01  0.255456D-01  0.501760D-02  0.551706D-01  0.405917D+00
      6  0.437441D-02  0.241820D-01  0.495263D-02  0.560940D-01  0.551082D-01
      7  0.655040D-02  0.873778D-03  0.562596D-02 -0.135452D-02 -0.485962D-02
      8  0.140054D-01  0.279468D-01 -0.278530D-01  0.122833D-01 -0.151676D-01
      9 -0.252294D-01 -0.288885D-01  0.600447D-01  0.280814D-02  0.490370D-01
     10 -0.569020D-02  0.489828D-01  0.224579D-01 -0.632400D-02 -0.234253D-01
     11  0.132269D-01  0.177210D-01 -0.346397D-02  0.202031D-01 -0.327521D-01
     12  0.302429D-02  0.263205D-01 -0.496135D-02 -0.346640D-01  0.377066D-02
     13 -0.256473D-02  0.148257D-01  0.183056D-01 -0.259858D-01 -0.326024D-01
     14 -0.683336D-02 -0.241820D-01 -0.189929D-02  0.246705D-01  0.325934D-01
     15 -0.203508D-02 -0.137138D-01 -0.393397D-02  0.202301D-01 -0.712329D-03
     16 -0.526450D-02 -0.236528D-01 -0.457930D-02 -0.140260D-02  0.313386D-01
     17  0.201991D-02  0.217023D-02  0.594930D-01 -0.540442D-03 -0.159600D-02
     18  0.140522D-01  0.507119D-02 -0.296629D-01 -0.292070D-02 -0.409628D-01
     19  0.167497D-01  0.405072D-02 -0.377952D-01  0.203434D-01 -0.203042D-01
     20  0.101315D-01  0.236974D-02 -0.336326D-01 -0.242112D-01 -0.124852D-02
     21 -0.124645D-01 -0.339776D-02  0.377937D-01  0.861286D-03  0.150767D-02
     22 -0.976699D-02 -0.441824D-02  0.296614D-01  0.241254D-01  0.221662D-01
     23 -0.163852D-01 -0.609922D-02  0.338240D-01 -0.204292D-01  0.412219D-01
     24 -0.896540D-02  0.552502D-02 -0.994699D-02  0.801473D-02  0.319130D-02
     25 -0.195304D-01 -0.689316D-02  0.113255D-01 -0.719741D-02  0.308409D-02
                6             7             8             9            10 
      6  0.446381D+00
      7 -0.936164D-03  0.513218D+00
      8  0.879925D-03 -0.141238D-03  0.123669D+00
      9 -0.154493D-02  0.232705D-01 -0.298305D-01 -0.259709D+00
     10  0.155850D-01 -0.237587D-02  0.646805D-02  0.176820D-02  0.237048D+00
     11 -0.263663D-01  0.408156D-04  0.195362D-01 -0.105418D-01 -0.106885D-01
     12 -0.344131D-01 -0.510024D-02 -0.867170D-02  0.470764D-01 -0.213380D-01
     13  0.201503D-01  0.277800D-03 -0.490591D-02 -0.145369D-01  0.345495D-01
     14 -0.216614D-02  0.212594D-02 -0.423142D-02 -0.109696D-01  0.557201D-02
     15  0.207997D-01  0.804758D-03 -0.472038D-02  0.210619D-02 -0.493701D-02
     16  0.242394D-01  0.208850D-02  0.277840D-02 -0.141697D-01 -0.343391D-02
     17  0.265108D-02  0.622879D-02 -0.144673D-01  0.134486D-01  0.181660D-01
     18  0.201001D-01 -0.117494D-01 -0.109526D-02  0.138875D+00 -0.317517D-01
     19 -0.239370D-01 -0.123370D-01  0.179118D-02  0.148081D+00 -0.461976D-01
     20 -0.130587D-02 -0.129154D-01 -0.414316D-02  0.151211D+00 -0.397839D-01
     21  0.239699D-01  0.130608D-01 -0.293127D-02 -0.153865D+00  0.533592D-01
     22 -0.200672D-01  0.124733D-01 -0.448324D-04 -0.144658D+00  0.389134D-01
     23  0.256397D-02  0.118949D-01 -0.597917D-02 -0.141529D+00  0.453270D-01
     24  0.413143D-03  0.309845D-02  0.806267D-01 -0.863985D-01 -0.656131D-02
     25  0.331325D-02 -0.255304D-02 -0.436518D-01  0.477361D-02  0.392355D-01
               11            12            13            14            15 
     11  0.188617D+00
     12 -0.605599D-02  0.192323D+00
     13  0.445283D-02 -0.799724D-02  0.185037D+00
     14 -0.973397D-01 -0.857850D-01 -0.143406D-01  0.145210D+00
     15 -0.833089D-01 -0.143319D-01 -0.813954D-01  0.302473D-01  0.130488D+00
     16 -0.153934D-01 -0.862266D-01 -0.956049D-01  0.303861D-01  0.304284D-01
     17 -0.147406D-02 -0.559644D-02  0.626528D-02  0.128239D-02 -0.128427D-02
     18  0.959659D-02 -0.341211D-01  0.126265D-01 -0.249125D-01  0.303596D-01
     19  0.161007D-01 -0.223544D-01 -0.770555D-02  0.348501D-01  0.131262D-03
     20 -0.462557D-02 -0.836832D-02 -0.537454D-03  0.502401D-02 -0.302035D-01
     21 -0.115553D-02  0.842073D-02  0.735306D-02 -0.360764D-01  0.298811D-01
     22  0.534856D-02  0.201875D-01 -0.129790D-01  0.236862D-01 -0.347212D-03
     23 -0.153777D-01  0.341735D-01 -0.581091D-02 -0.613991D-02 -0.306820D-01
     24  0.900972D-02  0.501705D-02 -0.633003D-02 -0.502619D-02 -0.209116D-02
     25 -0.119270D-01 -0.113725D-02  0.996103D-02  0.324003D-02  0.138220D-02
               16            17            18            19            20 
     16  0.144361D+00
     17  0.788426D-03  0.176079D+00
     18  0.860799D-02 -0.733726D-02 -0.381292D-01
     19 -0.198906D-01 -0.104057D-01 -0.853225D-01 -0.439693D-01
     20  0.373581D-01 -0.859897D-02 -0.882000D-01 -0.905541D-01 -0.484352D-01
     21 -0.755274D-02  0.103778D-01  0.103823D+00  0.624787D-01  0.638783D-01
     22 -0.360513D-01  0.730932D-02  0.566297D-01  0.103832D+00  0.615241D-01
     23  0.211974D-01  0.911606D-02  0.537523D-01  0.572472D-01  0.103643D+00
     24 -0.904405D-03 -0.187979D-01  0.363614D-01  0.396547D-01  0.372555D-01
     25 -0.144128D-02 -0.227392D-02 -0.103389D-02 -0.615543D-02 -0.146869D-02
               21            22            23            24            25 
     21 -0.481547D-01
     22 -0.894989D-01 -0.422966D-01
     23 -0.880994D-01 -0.846045D-01 -0.382087D-01
     24 -0.423778D-01 -0.390846D-01 -0.414838D-01  0.588738D-01
     25  0.756847D-02  0.244693D-02  0.713367D-02 -0.940271D-02  0.450727D-01
 Leave Link  716 at Sun May 25 04:27:44 2025, MaxMem=  3758096384 cpu:               0.0 elap:               0.0
 (Enter /apps/easybuild-2022/easybuild/software/Compiler/NVHPC/22.11-CUDA-11.7.0/Gaussian/g16c01-CUDA-11.7.0/g16/l103.exe)

 GradGradGradGradGradGradGradGradGradGradGradGradGradGradGradGradGradGrad
 Berny optimization.
 Red2BG is reusing G-inverse.
 Internal  Forces:  Max     0.000001744 RMS     0.000000695
 Search for a saddle point.
 Step number   1 out of a maximum of  100
 All quantities printed in internal units (Hartrees-Bohrs-Radians)
 Swapping is turned off.
 Second derivative matrix not updated -- analytic derivatives used.
 ITU=  0
     Eigenvalues ---   -0.77231   0.00281   0.03871   0.11814   0.13866
     Eigenvalues ---    0.15071   0.16257   0.18830   0.22585   0.24116
     Eigenvalues ---    0.27209   0.30934   0.37293   0.40883   0.41434
     Eigenvalues ---    0.44074   0.51608   0.57031
 Eigenvectors required to have negative eigenvalues:
                          A2        D4        D3        D2        D5
   1                   -0.59547  -0.32511   0.32071   0.31723  -0.31162
                          D6        D1        D7        R3        A3
   1                   -0.30814   0.30373  -0.15025   0.08932   0.08210
 RFO step:  Lambda0=1.655731108D-12 Lambda= 0.00000000D+00.
 Linear search not attempted -- option 19 set.
 Iteration  1 RMS(Cart)=  0.00000714 RMS(Int)=  0.00000000
 Iteration  2 RMS(Cart)=  0.00000000 RMS(Int)=  0.00000000
 ITry= 1 IFail=0 DXMaxC= 1.61D-05 DCOld= 1.00D+10 DXMaxT= 3.00D-01 DXLimC= 3.00D+00 Rises=F
 Variable       Old X    -DE/DX   Delta X   Delta X   Delta X     New X
                                 (Linear)    (Quad)   (Total)
    R1        2.75227  -0.00000   0.00000  -0.00000  -0.00000   2.75227
    R2        2.87278   0.00000   0.00000   0.00001   0.00001   2.87279
    R3        2.62668   0.00000   0.00000   0.00000   0.00000   2.62668
    R4        2.51763  -0.00000   0.00000  -0.00000  -0.00000   2.51763
    R5        2.52780   0.00000   0.00000  -0.00000  -0.00000   2.52780
    R6        2.50931   0.00000   0.00000   0.00000   0.00000   2.50931
    R7        1.83092  -0.00000   0.00000  -0.00000  -0.00000   1.83092
    A1        1.95314  -0.00000   0.00000  -0.00000  -0.00000   1.95314
    A2        1.26983  -0.00000   0.00000   0.00000   0.00000   1.26983
    A3        1.87332   0.00000   0.00000   0.00000   0.00000   1.87332
    A4        1.90105   0.00000   0.00000   0.00000   0.00000   1.90105
    A5        1.99225  -0.00000   0.00000  -0.00000  -0.00000   1.99225
    A6        1.91150   0.00000   0.00000  -0.00000  -0.00000   1.91150
    A7        1.87237   0.00000   0.00000   0.00000   0.00000   1.87238
    A8        1.90367  -0.00000   0.00000  -0.00000  -0.00000   1.90367
    A9        1.88117   0.00000   0.00000   0.00000   0.00000   1.88117
   A10        1.86009   0.00000   0.00000   0.00000   0.00000   1.86010
    D1       -2.71127  -0.00000   0.00000   0.00001   0.00001  -2.71127
    D2       -0.61943   0.00000   0.00000   0.00001   0.00001  -0.61941
    D3        1.49128   0.00000   0.00000   0.00001   0.00001   1.49129
    D4       -1.35124  -0.00000   0.00000   0.00001   0.00001  -1.35123
    D5        0.74061  -0.00000   0.00000   0.00001   0.00001   0.74062
    D6        2.85131   0.00000   0.00000   0.00001   0.00001   2.85133
    D7       -1.41211  -0.00000   0.00000  -0.00000  -0.00000  -1.41212
    D8        2.98260   0.00000   0.00000  -0.00000  -0.00000   2.98260
         Item               Value     Threshold  Converged?
 Maximum Force            0.000002     0.000450     YES
 RMS     Force            0.000001     0.000300     YES
 Maximum Displacement     0.000016     0.001800     YES
 RMS     Displacement     0.000007     0.001200     YES
 Predicted change in Energy=-1.929993D-11
 Optimization completed.
    -- Stationary point found.
                           ----------------------------
                           !   Optimized Parameters   !
                           ! (Angstroms and Degrees)  !
 --------------------------                            --------------------------
 ! Name  Definition              Value          Derivative Info.                !
 --------------------------------------------------------------------------------
 ! R1    R(1,2)                  1.4564         -DE/DX =    0.0                 !
 ! R2    R(1,3)                  1.5202         -DE/DX =    0.0                 !
 ! R3    R(1,7)                  1.39           -DE/DX =    0.0                 !
 ! R4    R(3,4)                  1.3323         -DE/DX =    0.0                 !
 ! R5    R(3,5)                  1.3377         -DE/DX =    0.0                 !
 ! R6    R(3,6)                  1.3279         -DE/DX =    0.0                 !
 ! R7    R(7,8)                  0.9689         -DE/DX =    0.0                 !
 ! A1    A(2,1,3)              111.9065         -DE/DX =    0.0                 !
 ! A2    A(2,1,7)               72.7561         -DE/DX =    0.0                 !
 ! A3    A(3,1,7)              107.3333         -DE/DX =    0.0                 !
 ! A4    A(1,3,4)              108.9221         -DE/DX =    0.0                 !
 ! A5    A(1,3,5)              114.1476         -DE/DX =    0.0                 !
 ! A6    A(1,3,6)              109.521          -DE/DX =    0.0                 !
 ! A7    A(4,3,5)              107.2791         -DE/DX =    0.0                 !
 ! A8    A(4,3,6)              109.0725         -DE/DX =    0.0                 !
 ! A9    A(5,3,6)              107.783          -DE/DX =    0.0                 !
 ! A10   A(1,7,8)              106.5756         -DE/DX =    0.0                 !
 ! D1    D(2,1,3,4)           -155.3446         -DE/DX =    0.0                 !
 ! D2    D(2,1,3,5)            -35.4904         -DE/DX =    0.0                 !
 ! D3    D(2,1,3,6)             85.444          -DE/DX =    0.0                 !
 ! D4    D(7,1,3,4)            -77.4203         -DE/DX =    0.0                 !
 ! D5    D(7,1,3,5)             42.4338         -DE/DX =    0.0                 !
 ! D6    D(7,1,3,6)            163.3682         -DE/DX =    0.0                 !
 ! D7    D(2,1,7,8)            -80.9081         -DE/DX =    0.0                 !
 ! D8    D(3,1,7,8)            170.8902         -DE/DX =    0.0                 !
 --------------------------------------------------------------------------------
 Lowest energy point so far.  Saving SCF results.
 Largest change from initial coordinates is atom    0       0.000 Angstoms.
 GradGradGradGradGradGradGradGradGradGradGradGradGradGradGradGradGradGrad

 Leave Link  103 at Sun May 25 04:27:44 2025, MaxMem=  3758096384 cpu:               0.1 elap:               0.0
 (Enter /apps/easybuild-2022/easybuild/software/Compiler/NVHPC/22.11-CUDA-11.7.0/Gaussian/g16c01-CUDA-11.7.0/g16/l202.exe)
                          Input orientation:                          
 ---------------------------------------------------------------------
 Center     Atomic      Atomic             Coordinates (Angstroms)
 Number     Number       Type             X           Y           Z
 ---------------------------------------------------------------------
      1          6           0        1.475206   -0.071342    0.434299
      2          8           0        2.295073   -0.454298   -0.706917
      3          6           0       -0.005273   -0.055893    0.089361
      4          9           0       -0.634086    0.773207    0.921311
      5          9           0       -0.272751    0.352473   -1.156034
      6          9           0       -0.506935   -1.277018    0.232289
      7          8           0        2.032784    1.092700   -0.081604
      8          1           0        2.935603    1.144449    0.266207
 ---------------------------------------------------------------------
                    Distance matrix (angstroms):
                    1          2          3          4          5
     1  C    0.000000
     2  O    1.456438   0.000000
     3  C    1.520210   2.466653   0.000000
     4  F    2.323695   3.569015   1.332274   0.000000
     5  F    2.400861   2.728792   1.337653   2.150103   0.000000
     6  F    2.328808   3.067609   1.327870   2.166643   2.153491
     7  O    1.389979   1.689087   2.345671   2.867073   2.649118
     8  H    1.907659   1.978191   3.181328   3.648241   3.597712
                    6          7          8
     6  F    0.000000
     7  O    3.487731   0.000000
     8  H    4.209005   0.968882   0.000000
 Symmetry turned off by external request.
 Stoichiometry    C2HF3O2
 Rotational constants (GHZ):           4.4710341           2.3289737           2.1035435
 Leave Link  202 at Sun May 25 04:27:44 2025, MaxMem=  3758096384 cpu:               0.1 elap:               0.0
 (Enter /apps/easybuild-2022/easybuild/software/Compiler/NVHPC/22.11-CUDA-11.7.0/Gaussian/g16c01-CUDA-11.7.0/g16/l716.exe)
 Dipole        = 1.05407815D+00 6.99006268D-01 1.26097875D-01
 Polarizability= 4.19443622D+01 2.85918434D+00 3.57146912D+01
                -8.36786913D+00 5.40225638D-01 4.02457659D+01
 Full mass-weighted force constant matrix:
 Low frequencies ----1456.4587  -12.3861   -3.6157   -0.0011   -0.0004    0.0004
 Low frequencies ---    7.9690   70.3016  226.2225
 ******    1 imaginary frequencies (negative Signs) ****** 
 Diagonal vibrational polarizability:
       16.3765222       9.2395038      24.3467106
 Harmonic frequencies (cm**-1), IR intensities (KM/Mole), Raman scattering
 activities (A**4/AMU), depolarization ratios for plane and unpolarized
 incident light, reduced masses (AMU), force constants (mDyne/A),
 and normal coordinates:
                      1                      2                      3
                      A                      A                      A
 Frequencies --  -1456.4587                70.2661               226.2216
 Red. masses --     11.6235                13.3378                10.0591
 Frc consts  --     14.5272                 0.0388                 0.3033
 IR Inten    --   1187.7866                 1.7785                 2.9817
  Atom  AN      X      Y      Z        X      Y      Z        X      Y      Z
     1   6    -0.19  -0.26   0.51     0.03  -0.27  -0.11     0.01  -0.05  -0.03
     2   8    -0.02   0.45   0.01     0.05   0.35  -0.30     0.37  -0.01   0.25
     3   6     0.05   0.01  -0.03     0.01  -0.11  -0.05     0.00  -0.11  -0.04
     4   9    -0.00   0.00  -0.00     0.24   0.17  -0.13     0.30  -0.02   0.11
     5   9    -0.02   0.01  -0.03     0.00  -0.27  -0.10    -0.03   0.04   0.01
     6   9    -0.00  -0.00  -0.01    -0.24   0.03   0.19    -0.29   0.01  -0.10
     7   8     0.17  -0.29  -0.35    -0.07   0.03   0.44    -0.33   0.06  -0.22
     8   1    -0.07   0.20   0.39    -0.07  -0.07   0.44    -0.40   0.51  -0.09
                      4                      5                      6
                      A                      A                      A
 Frequencies --    243.1960               384.8551               446.4097
 Red. masses --     11.3734                16.0842                15.1746
 Frc consts  --      0.3963                 1.4036                 1.7817
 IR Inten    --      1.7711                 0.0513                 0.5624
  Atom  AN      X      Y      Z        X      Y      Z        X      Y      Z
     1   6     0.07  -0.04   0.13    -0.17  -0.07   0.20     0.02  -0.33  -0.10
     2   8    -0.30   0.01  -0.17    -0.36  -0.10   0.15     0.36  -0.04  -0.14
     3   6     0.08  -0.06   0.14     0.08   0.03  -0.07    -0.00   0.00  -0.00
     4   9    -0.04  -0.02   0.01     0.41   0.28  -0.08    -0.23   0.10  -0.26
     5   9     0.57   0.02   0.07    -0.17   0.01  -0.03    -0.02   0.40   0.13
     6   9    -0.09   0.01   0.01     0.43  -0.13  -0.22     0.23  -0.05   0.28
     7   8    -0.33   0.04  -0.11    -0.35  -0.07   0.14    -0.33  -0.25   0.03
     8   1    -0.18   0.20  -0.54    -0.27   0.04  -0.07    -0.31   0.10  -0.08
                      7                      8                      9
                      A                      A                      A
 Frequencies --    556.4751               586.7855               658.7332
 Red. masses --     13.1558                15.4309                 5.8069
 Frc consts  --      2.4003                 3.1304                 1.4846
 IR Inten    --      1.2009                 4.8776                32.0057
  Atom  AN      X      Y      Z        X      Y      Z        X      Y      Z
     1   6     0.27  -0.01   0.12    -0.02  -0.10   0.01     0.29  -0.01   0.28
     2   8     0.14   0.01  -0.12     0.24  -0.04  -0.14    -0.05  -0.04  -0.02
     3   6     0.02  -0.06   0.27    -0.01   0.31   0.05     0.18   0.01  -0.06
     4   9    -0.16   0.34  -0.14    -0.20   0.06   0.40     0.01  -0.20  -0.15
     5   9    -0.10  -0.19   0.41     0.02  -0.33  -0.19    -0.17   0.02  -0.02
     6   9    -0.09  -0.13  -0.37     0.21   0.38  -0.17    -0.05   0.20   0.02
     7   8     0.06   0.02  -0.03    -0.24  -0.23   0.07    -0.07   0.01   0.08
     8   1     0.21   0.09  -0.45    -0.10  -0.02  -0.33     0.25   0.15  -0.76
                     10                     11                     12
                      A                      A                      A
 Frequencies --    801.2743               855.1981               928.5880
 Red. masses --      4.0154                 8.2604                 1.6619
 Frc consts  --      1.5189                 3.5594                 0.8443
 IR Inten    --      6.2065                11.2532                39.9657
  Atom  AN      X      Y      Z        X      Y      Z        X      Y      Z
     1   6    -0.01  -0.23  -0.19    -0.30   0.47   0.02     0.09   0.05   0.11
     2   8    -0.10  -0.00   0.10     0.09  -0.01  -0.15     0.01  -0.10  -0.10
     3   6     0.11   0.03   0.04     0.09  -0.03  -0.01     0.02  -0.01   0.00
     4   9    -0.02  -0.08  -0.08     0.10  -0.14  -0.15    -0.02   0.02   0.03
     5   9    -0.01  -0.07   0.14     0.03  -0.06   0.23    -0.02   0.02  -0.05
     6   9     0.05   0.19  -0.04    -0.01   0.14  -0.02    -0.01  -0.03   0.00
     7   8     0.01   0.09  -0.07    -0.07  -0.24   0.04    -0.01   0.02  -0.01
     8   1    -0.33   0.26   0.78    -0.24  -0.37   0.51    -0.34   0.45   0.80
                     13                     14                     15
                      A                      A                      A
 Frequencies --   1145.8949              1226.7211              1250.2209
 Red. masses --     11.8864                 3.2912                 3.4815
 Frc consts  --      9.1958                 2.9180                 3.2062
 IR Inten    --    128.2486               337.4502               290.4534
  Atom  AN      X      Y      Z        X      Y      Z        X      Y      Z
     1   6    -0.31  -0.24   0.34    -0.05  -0.04   0.06    -0.03  -0.01  -0.03
     2   8     0.16  -0.21  -0.21     0.05  -0.02  -0.04     0.01  -0.00  -0.01
     3   6    -0.36   0.12  -0.31    -0.03  -0.11   0.35    -0.18   0.27   0.24
     4   9     0.08  -0.06  -0.03     0.03  -0.03  -0.05     0.09  -0.10  -0.10
     5   9     0.07  -0.06   0.19    -0.03   0.04  -0.12     0.01  -0.01  -0.03
     6   9     0.07   0.06   0.02     0.03   0.06  -0.03    -0.01  -0.05  -0.01
     7   8     0.07   0.39  -0.02    -0.02   0.10  -0.04     0.03  -0.06   0.03
     8   1     0.20  -0.21  -0.26    -0.05  -0.88   0.19     0.06   0.87  -0.19
                     16                     17                     18
                      A                      A                      A
 Frequencies --   1288.9658              1345.5985              3782.7468
 Red. masses --      3.8605                 4.0486                 1.0682
 Frc consts  --      3.7790                 4.3190                 9.0056
 IR Inten    --    101.3960               164.6473               316.8470
  Atom  AN      X      Y      Z        X      Y      Z        X      Y      Z
     1   6     0.01  -0.03   0.02    -0.31  -0.05  -0.00     0.00   0.00  -0.00
     2   8     0.02  -0.01  -0.00     0.04  -0.07  -0.06     0.00  -0.00   0.00
     3   6     0.22   0.38  -0.03     0.35  -0.06   0.09    -0.00   0.00   0.00
     4   9    -0.01  -0.03  -0.01    -0.05   0.03   0.03     0.00  -0.00  -0.00
     5   9    -0.01  -0.02   0.01    -0.03   0.02  -0.05     0.00  -0.00   0.00
     6   9    -0.08  -0.16   0.02    -0.04  -0.03   0.00     0.00   0.00  -0.00
     7   8    -0.06   0.05  -0.03     0.06   0.08   0.04    -0.06  -0.00  -0.02
     8   1    -0.12  -0.83   0.25     0.21   0.72  -0.43     0.93   0.05   0.36

 -------------------
 - Thermochemistry -
 -------------------
 Temperature   298.150 Kelvin.  Pressure   1.00000 Atm.
 Atom     1 has atomic number  6 and mass  12.00000
 Atom     2 has atomic number  8 and mass  15.99491
 Atom     3 has atomic number  6 and mass  12.00000
 Atom     4 has atomic number  9 and mass  18.99840
 Atom     5 has atomic number  9 and mass  18.99840
 Atom     6 has atomic number  9 and mass  18.99840
 Atom     7 has atomic number  8 and mass  15.99491
 Atom     8 has atomic number  1 and mass   1.00783
 Molecular mass:   113.99286 amu.
 Principal axes and moments of inertia in atomic units:
                           1         2         3
     Eigenvalues --   403.65185 774.90838 857.95287
           X            0.96822  -0.08172   0.23639
           Y            0.16274   0.92353  -0.34730
           Z           -0.18993   0.37473   0.90747
 This molecule is an asymmetric top.
 Rotational symmetry number  1.
 Rotational temperatures (Kelvin)      0.21458     0.11177     0.10095
 Rotational constants (GHZ):           4.47103     2.32897     2.10354
    1 imaginary frequencies ignored.
 Zero-point vibrational energy      94493.9 (Joules/Mol)
                                   22.58459 (Kcal/Mol)
 Warning -- explicit consideration of   7 degrees of freedom as
           vibrations may cause significant error
 Vibrational temperatures:    101.10   325.48   349.90   553.72   642.28
          (Kelvin)            800.64   844.25   947.77  1152.86  1230.44
                             1336.03  1648.69  1764.98  1798.79  1854.53
                             1936.02  5442.53
 
 Zero-point correction=                           0.035991 (Hartree/Particle)
 Thermal correction to Energy=                    0.041969
 Thermal correction to Enthalpy=                  0.042913
 Thermal correction to Gibbs Free Energy=         0.005430
 Sum of electronic and zero-point Energies=           -526.531810
 Sum of electronic and thermal Energies=              -526.525832
 Sum of electronic and thermal Enthalpies=            -526.524887
 Sum of electronic and thermal Free Energies=         -526.562370
 
                     E (Thermal)             CV                S
                      KCal/Mol        Cal/Mol-Kelvin    Cal/Mol-Kelvin
 Total                   26.336             20.033             78.890
 Electronic               0.000              0.000              0.000
 Translational            0.889              2.981             40.108
 Rotational               0.889              2.981             27.087
 Vibrational             24.558             14.071             11.695
 Vibration     1          0.598              1.968              4.146
 Vibration     2          0.650              1.801              1.909
 Vibration     3          0.659              1.774              1.779
 Vibration     4          0.754              1.503              1.020
 Vibration     5          0.806              1.369              0.807
 Vibration     6          0.912              1.126              0.531
 Vibration     7          0.944              1.060              0.473
                       Q            Log10(Q)             Ln(Q)
 Total Bot       0.317921D-02         -2.497681         -5.751123
 Total V=0       0.114009D+15         14.056940         32.367300
 Vib (Bot)       0.358379D-15        -15.445657        -35.564940
 Vib (Bot)    1  0.293506D+01          0.467617          1.076728
 Vib (Bot)    2  0.872071D+00         -0.059448         -0.136884
 Vib (Bot)    3  0.805085D+00         -0.094158         -0.216807
 Vib (Bot)    4  0.468200D+00         -0.329569         -0.758860
 Vib (Bot)    5  0.385264D+00         -0.414241         -0.953826
 Vib (Bot)    6  0.280256D+00         -0.552446         -1.272053
 Vib (Bot)    7  0.257922D+00         -0.588511         -1.355097
 Vib (V=0)       0.128518D+02          1.108963          2.553483
 Vib (V=0)    1  0.347734D+01          0.541248          1.246269
 Vib (V=0)    2  0.150524D+01          0.177606          0.408953
 Vib (V=0)    3  0.144771D+01          0.160683          0.369986
 Vib (V=0)    4  0.118499D+01          0.073715          0.169734
 Vib (V=0)    5  0.113121D+01          0.053544          0.123290
 Vib (V=0)    6  0.107319D+01          0.030675          0.070633
 Vib (V=0)    7  0.106260D+01          0.026372          0.060723
 Electronic      0.100000D+01          0.000000          0.000000
 Translational   0.478377D+08          7.679770         17.683325
 Rotational      0.185441D+06          5.268206         12.130493
 
                                                    Gaussian input prepared by AS
 E
                                                             IR Spectrum
 
     3                                                                                 1 111  1                                      
     7                                                                                 3 222  1      9  8 8   6  55   4 3   22       
     8                                                                                 4 852  4      2  5 0   5  85   4 8   42    7  
     3                                                                                 6 907  6      9  5 1   9  76   6 5   36    0  
 
     X                                                                                 X XXX  X      X  X X   X  XX   X X   XX    X  
     X                                                                                 X XXX  X      X        X                      
     X                                                                                 X XXX  X                                      
     X                                                                                 X XXX  X                                      
     X                                                                                 X XXX  X                                      
     X                                                                                 X XXX  X                                      
     X                                                                                 X  XX  X                                      
     X                                                                                 X  XX  X                                      
     X                                                                                 X  XX                                         
     X                                                                                 X  XX                                         
     X                                                                                    XX                                         
     X                                                                                    XX                                         
     X                                                                                    XX                                         
     X                                                                                    XX                                         
     X                                                                                    XX                                         
     X                                                                                    XX                                         
     X                                                                                    XX                                         
     X                                                                                     X                                         
     X                                                                                     X                                         
                                                                                           X                                         
 
 -------------------------------------------------------------------
 Center     Atomic                   Forces (Hartrees/Bohr)
 Number     Number              X              Y              Z
 -------------------------------------------------------------------
      1        6           0.000000660   -0.000002379   -0.000000142
      2        8          -0.000000508    0.000003154   -0.000003195
      3        6          -0.000000513    0.000001119   -0.000001607
      4        9          -0.000000176   -0.000003965    0.000002702
      5        9          -0.000000044    0.000004775    0.000000715
      6        9          -0.000001177   -0.000001594   -0.000004841
      7        8           0.000001725   -0.000000230    0.000003044
      8        1           0.000000033   -0.000000880    0.000003323
 -------------------------------------------------------------------
 Cartesian Forces:  Max     0.000004841 RMS     0.000002314
 Force constants in Cartesian coordinates: 
                1             2             3             4             5 
      1  0.370938D+00
      2 -0.202653D-01  0.151020D+00
      3  0.888141D-01  0.132532D+00 -0.689712D-01
      4 -0.105320D+00 -0.113663D-01  0.809448D-01  0.124550D+00
      5  0.208669D+00  0.192775D+00 -0.415266D+00 -0.364436D-01 -0.239514D+00
      6  0.103394D+00 -0.282566D-01 -0.137207D+00 -0.969929D-01  0.112134D+00
      7 -0.153332D+00  0.117526D-01 -0.689557D-01 -0.137756D-01 -0.629304D-01
      8  0.318311D-01 -0.451129D-01 -0.143880D-01  0.199297D-01 -0.192718D-01
      9 -0.727907D-01 -0.167793D-01 -0.224211D-01  0.354569D-01  0.270056D-01
     10 -0.236385D-01  0.339741D-01  0.289543D-01 -0.108847D-01  0.133613D-02
     11  0.134553D-01 -0.694478D-02 -0.130907D-01  0.293500D-02 -0.177592D-02
     12  0.798789D-02 -0.706164D-02 -0.504237D-02  0.159477D-03 -0.377318D-02
     13 -0.334975D-01 -0.205273D-02 -0.128416D-01  0.127631D-02  0.307183D-01
     14  0.761448D-02  0.672793D-02  0.254340D-02 -0.583218D-03 -0.857611D-02
     15 -0.355407D-01 -0.653990D-02  0.248240D-02  0.111188D-02  0.390252D-01
     16 -0.100306D-01 -0.399102D-01  0.238577D-02  0.113187D-03  0.100938D-02
     17 -0.131696D-01 -0.190450D-01  0.347938D-02 -0.339156D-02  0.264406D-02
     18 -0.516364D-02 -0.596048D-02  0.620845D-02 -0.217754D-02  0.236676D-02
     19 -0.358967D-01  0.262815D-01 -0.101524D+00 -0.302859D-03 -0.133145D+00
     20 -0.207901D+00 -0.283504D+00  0.328666D+00  0.397334D-01  0.103618D+00
     21 -0.127615D+00 -0.909681D-01  0.246327D+00 -0.128502D-01  0.276633D+00
     22 -0.922303D-02  0.158621D-02 -0.177779D-01  0.434356D-02 -0.921384D-02
     23 -0.202340D-01  0.408424D-02 -0.244760D-01 -0.108134D-01 -0.298994D-01
     24  0.409142D-01  0.230341D-01 -0.213758D-01 -0.565245D-02 -0.381263D-01
                6             7             8             9            10 
      6  0.166788D+00
      7 -0.748002D-03  0.598781D+00
      8 -0.152732D-03  0.124841D-01  0.575053D+00
      9 -0.184962D-01 -0.369269D-02  0.520389D-02  0.536521D+00
     10  0.747506D-03 -0.158042D+00  0.758840D-01  0.687552D-01  0.152701D+00
     11  0.460659D-03  0.753063D-01 -0.152374D+00 -0.749042D-01 -0.107129D+00
     12  0.530953D-02  0.748707D-01 -0.768911D-01 -0.148658D+00 -0.104518D+00
     13 -0.125956D-02 -0.943664D-01  0.171486D-01 -0.560558D-01  0.144567D-01
     14  0.313243D-03  0.162746D-01 -0.905048D-01  0.536399D-01 -0.173866D-02
     15  0.532647D-02 -0.511733D-01  0.552855D-01 -0.244364D+00  0.101742D-01
     16  0.144644D-02 -0.140086D+00 -0.975041D-01  0.483656D-02  0.222567D-01
     17  0.253348D-02 -0.100653D+00 -0.256560D+00  0.165654D-01  0.127990D-02
     18  0.169763D-02  0.114692D-01  0.191646D-01 -0.766674D-01 -0.529574D-02
     19 -0.117538D-01 -0.330737D-01 -0.561118D-01  0.208836D-01  0.192754D-02
     20 -0.770282D-01  0.527755D-01 -0.744935D-02 -0.133017D-01 -0.398854D-02
     21 -0.134694D-01  0.449482D-01  0.585510D-02 -0.287246D-01  0.110047D-02
     22  0.516654D-02 -0.610510D-02 -0.366156D-02  0.260688D-02  0.122297D-02
     23 -0.100044D-01 -0.500987D-02 -0.378037D-02  0.257053D-02  0.381612D-03
     24 -0.994870D-02 -0.671837D-02  0.592276D-02  0.280985D-02  0.822800D-04
               11            12            13            14            15 
     11  0.214001D+00
     12  0.136398D+00  0.222217D+00
     13 -0.405493D-03  0.254730D-01  0.817068D-01
     14  0.138742D-01 -0.270340D-01 -0.178534D-01  0.112524D+00
     15 -0.142745D-01 -0.799082D-01  0.514279D-01 -0.925670D-01  0.367150D+00
     16  0.138676D-01 -0.149565D-02  0.153253D-01 -0.887513D-03  0.598648D-02
     17 -0.724998D-01 -0.255145D-01 -0.994328D-02 -0.422809D-01  0.439756D-01
     18 -0.341502D-01  0.561850D-02  0.151675D-01  0.586283D-01 -0.244783D-01
     19  0.235069D-02 -0.190360D-02  0.120320D-01 -0.229110D-02  0.151323D-01
     20  0.599128D-02  0.415374D-02 -0.202041D-01  0.863652D-02 -0.272559D-01
     21  0.272729D-03  0.812716D-03 -0.241473D-01  0.639059D-02 -0.295149D-01
     22 -0.380787D-03 -0.573547D-03  0.306678D-02 -0.535230D-03  0.288113D-02
     23 -0.271662D-03 -0.277132D-03  0.259203D-02 -0.401181D-03  0.235099D-02
     24 -0.711607D-03 -0.349589D-03  0.223580D-02 -0.191446D-02  0.330627D-02
               16            17            18            19            20 
     16  0.125149D+00
     17  0.129248D+00  0.389035D+00
     18 -0.134248D-01 -0.383192D-01  0.865124D-01
     19 -0.125971D-01 -0.336097D-02 -0.626831D-03  0.511297D+00
     20 -0.517526D-02 -0.151906D-02 -0.192149D-02  0.160944D+00  0.197516D+00
     21 -0.251191D-02 -0.452908D-02  0.116332D-02  0.274336D+00 -0.220801D+00
     22 -0.130401D-03 -0.973426D-05  0.518556D-04 -0.443386D+00 -0.161838D-01
     23 -0.647986D-03  0.225390D-03  0.191651D-03  0.533284D-02 -0.232894D-01
     24  0.277711D-02  0.180893D-02 -0.545876D-04 -0.194544D+00  0.748902D-02
               21            22            23            24 
     21 -0.112414D+00
     22 -0.153261D+00  0.450211D+00
     23  0.271469D-01  0.283988D-01  0.533324D-01
     24 -0.641806D-01  0.160906D+00  0.249747D-02  0.897932D-01
 Red2BG is reusing G-inverse.
 Force constants in internal coordinates: 
                1             2             3             4             5 
      1  0.267850D+00
      2  0.376933D-02  0.281253D+00
      3  0.928095D-01  0.961944D-03  0.342643D+00
      4  0.251526D-02  0.241641D-01  0.587032D-02  0.434140D+00
      5  0.146755D-01  0.255456D-01  0.501760D-02  0.551706D-01  0.405917D+00
      6  0.437441D-02  0.241820D-01  0.495263D-02  0.560940D-01  0.551082D-01
      7  0.655040D-02  0.873778D-03  0.562596D-02 -0.135452D-02 -0.485962D-02
      8  0.140054D-01  0.279468D-01 -0.278530D-01  0.122833D-01 -0.151676D-01
      9 -0.252294D-01 -0.288885D-01  0.600447D-01  0.280814D-02  0.490370D-01
     10 -0.569020D-02  0.489828D-01  0.224579D-01 -0.632400D-02 -0.234253D-01
     11  0.132269D-01  0.177210D-01 -0.346397D-02  0.202031D-01 -0.327521D-01
     12  0.302429D-02  0.263205D-01 -0.496135D-02 -0.346640D-01  0.377066D-02
     13 -0.256473D-02  0.148257D-01  0.183056D-01 -0.259858D-01 -0.326024D-01
     14 -0.683336D-02 -0.241820D-01 -0.189929D-02  0.246705D-01  0.325934D-01
     15 -0.203508D-02 -0.137138D-01 -0.393397D-02  0.202301D-01 -0.712329D-03
     16 -0.526450D-02 -0.236528D-01 -0.457930D-02 -0.140260D-02  0.313386D-01
     17  0.201991D-02  0.217023D-02  0.594930D-01 -0.540442D-03 -0.159600D-02
     18  0.140522D-01  0.507119D-02 -0.296629D-01 -0.292070D-02 -0.409628D-01
     19  0.167497D-01  0.405072D-02 -0.377952D-01  0.203434D-01 -0.203042D-01
     20  0.101315D-01  0.236974D-02 -0.336326D-01 -0.242112D-01 -0.124852D-02
     21 -0.124645D-01 -0.339776D-02  0.377937D-01  0.861286D-03  0.150767D-02
     22 -0.976699D-02 -0.441824D-02  0.296614D-01  0.241254D-01  0.221662D-01
     23 -0.163852D-01 -0.609922D-02  0.338240D-01 -0.204292D-01  0.412219D-01
     24 -0.896540D-02  0.552502D-02 -0.994699D-02  0.801473D-02  0.319130D-02
     25 -0.195304D-01 -0.689316D-02  0.113255D-01 -0.719741D-02  0.308409D-02
                6             7             8             9            10 
      6  0.446381D+00
      7 -0.936164D-03  0.513218D+00
      8  0.879925D-03 -0.141238D-03  0.123669D+00
      9 -0.154493D-02  0.232705D-01 -0.298305D-01 -0.259709D+00
     10  0.155850D-01 -0.237587D-02  0.646805D-02  0.176820D-02  0.237048D+00
     11 -0.263663D-01  0.408156D-04  0.195362D-01 -0.105418D-01 -0.106885D-01
     12 -0.344131D-01 -0.510024D-02 -0.867170D-02  0.470764D-01 -0.213380D-01
     13  0.201503D-01  0.277800D-03 -0.490591D-02 -0.145369D-01  0.345495D-01
     14 -0.216614D-02  0.212594D-02 -0.423142D-02 -0.109696D-01  0.557201D-02
     15  0.207997D-01  0.804758D-03 -0.472038D-02  0.210619D-02 -0.493701D-02
     16  0.242394D-01  0.208850D-02  0.277840D-02 -0.141697D-01 -0.343391D-02
     17  0.265108D-02  0.622879D-02 -0.144673D-01  0.134486D-01  0.181660D-01
     18  0.201001D-01 -0.117494D-01 -0.109526D-02  0.138875D+00 -0.317517D-01
     19 -0.239370D-01 -0.123370D-01  0.179118D-02  0.148081D+00 -0.461976D-01
     20 -0.130587D-02 -0.129154D-01 -0.414316D-02  0.151211D+00 -0.397839D-01
     21  0.239699D-01  0.130608D-01 -0.293127D-02 -0.153865D+00  0.533592D-01
     22 -0.200672D-01  0.124733D-01 -0.448324D-04 -0.144658D+00  0.389134D-01
     23  0.256397D-02  0.118949D-01 -0.597917D-02 -0.141529D+00  0.453270D-01
     24  0.413143D-03  0.309845D-02  0.806267D-01 -0.863985D-01 -0.656131D-02
     25  0.331325D-02 -0.255304D-02 -0.436518D-01  0.477361D-02  0.392355D-01
               11            12            13            14            15 
     11  0.188617D+00
     12 -0.605599D-02  0.192323D+00
     13  0.445283D-02 -0.799724D-02  0.185037D+00
     14 -0.973397D-01 -0.857850D-01 -0.143406D-01  0.145210D+00
     15 -0.833089D-01 -0.143319D-01 -0.813954D-01  0.302473D-01  0.130488D+00
     16 -0.153934D-01 -0.862266D-01 -0.956049D-01  0.303861D-01  0.304284D-01
     17 -0.147406D-02 -0.559644D-02  0.626528D-02  0.128239D-02 -0.128427D-02
     18  0.959659D-02 -0.341211D-01  0.126265D-01 -0.249125D-01  0.303596D-01
     19  0.161007D-01 -0.223544D-01 -0.770555D-02  0.348501D-01  0.131262D-03
     20 -0.462557D-02 -0.836832D-02 -0.537454D-03  0.502401D-02 -0.302035D-01
     21 -0.115553D-02  0.842073D-02  0.735306D-02 -0.360764D-01  0.298811D-01
     22  0.534856D-02  0.201875D-01 -0.129790D-01  0.236862D-01 -0.347212D-03
     23 -0.153777D-01  0.341735D-01 -0.581091D-02 -0.613991D-02 -0.306820D-01
     24  0.900972D-02  0.501705D-02 -0.633003D-02 -0.502619D-02 -0.209116D-02
     25 -0.119270D-01 -0.113725D-02  0.996103D-02  0.324003D-02  0.138220D-02
               16            17            18            19            20 
     16  0.144361D+00
     17  0.788426D-03  0.176079D+00
     18  0.860799D-02 -0.733726D-02 -0.381292D-01
     19 -0.198906D-01 -0.104057D-01 -0.853225D-01 -0.439693D-01
     20  0.373581D-01 -0.859897D-02 -0.882000D-01 -0.905541D-01 -0.484352D-01
     21 -0.755274D-02  0.103778D-01  0.103823D+00  0.624787D-01  0.638783D-01
     22 -0.360513D-01  0.730932D-02  0.566297D-01  0.103832D+00  0.615241D-01
     23  0.211974D-01  0.911606D-02  0.537523D-01  0.572472D-01  0.103643D+00
     24 -0.904405D-03 -0.187979D-01  0.363614D-01  0.396547D-01  0.372555D-01
     25 -0.144128D-02 -0.227392D-02 -0.103389D-02 -0.615543D-02 -0.146869D-02
               21            22            23            24            25 
     21 -0.481547D-01
     22 -0.894989D-01 -0.422966D-01
     23 -0.880994D-01 -0.846045D-01 -0.382087D-01
     24 -0.423778D-01 -0.390846D-01 -0.414838D-01  0.588738D-01
     25  0.756847D-02  0.244693D-02  0.713367D-02 -0.940271D-02  0.450727D-01
 Leave Link  716 at Sun May 25 04:27:44 2025, MaxMem=  3758096384 cpu:               0.1 elap:               0.0
 (Enter /apps/easybuild-2022/easybuild/software/Compiler/NVHPC/22.11-CUDA-11.7.0/Gaussian/g16c01-CUDA-11.7.0/g16/l9999.exe)

 ----------------------------------------------------------------------

 Electric dipole moment (input orientation):
 (Debye = 10**-18 statcoulomb cm , SI units = C m)
                  (au)            (Debye)         (10**-30 SI)
   Tot        0.127106D+01      0.323071D+01      0.107765D+02
   x          0.105408D+01      0.267920D+01      0.893685D+01
   y          0.699006D+00      0.177670D+01      0.592642D+01
   z          0.126098D+00      0.320509D+00      0.106910D+01

 Dipole polarizability, Alpha (input orientation).
 (esu units = cm**3 , SI units = C**2 m**2 J**-1)
 Alpha(0;0):
               (au)            (10**-24 esu)      (10**-40 SI)
   iso        0.393016D+02      0.582390D+01      0.647996D+01
   aniso      0.163272D+02      0.241944D+01      0.269199D+01
   xx         0.419444D+02      0.621551D+01      0.691569D+01
   yx         0.285918D+01      0.423687D+00      0.471416D+00
   yy         0.357147D+02      0.529237D+01      0.588856D+01
   zx        -0.836787D+01     -0.123999D+01     -0.137968D+01
   zy         0.540226D+00      0.800532D-01      0.890712D-01
   zz         0.402458D+02      0.596381D+01      0.663563D+01

 ----------------------------------------------------------------------

 Dipole orientation:
     6          0.41890673         -1.70569281          2.31912302
     8          3.08758189         -1.68708311          2.99203396
     6         -0.09994806         -0.16529456         -0.04959666
     9         -2.49860626          0.59882444         -0.01743090
     9          1.34235733          1.89805562         -0.27786078
     9          0.27860268         -1.59318885         -2.07800972
     8          0.70916881         -0.01222192          4.30591811
     1          0.76219232         -1.01064645          5.83974075

 Electric dipole moment (dipole orientation):
 (Debye = 10**-18 statcoulomb cm , SI units = C m)
                  (au)            (Debye)         (10**-30 SI)
   Tot        0.127106D+01      0.323071D+01      0.107765D+02
   x          0.000000D+00      0.000000D+00      0.000000D+00
   y          0.000000D+00      0.000000D+00      0.000000D+00
   z          0.127106D+01      0.323071D+01      0.107765D+02

 Dipole polarizability, Alpha (dipole orientation).
 (esu units = cm**3 , SI units = C**2 m**2 J**-1)
 Alpha(0;0):
               (au)            (10**-24 esu)      (10**-40 SI)
   iso        0.393016D+02      0.582390D+01      0.647996D+01
   aniso      0.163272D+02      0.241944D+01      0.269199D+01
   xx         0.443829D+02      0.657686D+01      0.731775D+01
   yx         0.100894D+01      0.149509D+00      0.166352D+00
   yy         0.321884D+02      0.476982D+01      0.530714D+01
   zx         0.634142D+01      0.939702D+00      0.104556D+01
   zy         0.271182D+01      0.401850D+00      0.447119D+00
   zz         0.413336D+02      0.612500D+01      0.681499D+01

 ----------------------------------------------------------------------
 Unable to Open any file for archive entry.
 1\1\GINC-SPARTAN-BM148\Freq\RM062X\def2TZVPP\C2H1F3O2\AKHALILOV\25-May
 -2025\0\\#P M062X/Def2TZVPP Symm(None) scf(xqc) pop(None) opt(NoFreeze
 ,TS,CalcAll,NoEigentest,MaxCycle=999)\\Gaussian input prepared by ASE\
 \0,1\C,1.475206,-0.071342,0.434299\O,2.295073,-0.454298,-0.706917\C,-0
 .005273,-0.055893,0.089361\F,-0.634086,0.773207,0.921311\F,-0.272751,0
 .352473,-1.156034\F,-0.506935,-1.277018,0.232289\O,2.032784,1.0927,-0.
 081604\H,2.935603,1.144449,0.266207\\Version=ES64L-G16RevC.01\HF=-526.
 5678005\RMSD=6.666e-09\RMSF=2.314e-06\ZeroPoint=0.0359908\Thermal=0.04
 19689\ETot=-526.5258316\HTot=-526.5248874\GTot=-526.5623704\Dipole=1.0
 540781,0.6990063,0.1260979\DipoleDeriv=-0.5521988,-0.1317356,0.5776756
 ,-0.5235696,0.059186,0.9095986,1.1278205,0.3697809,-1.4616251,-0.36384
 01,0.0384977,0.2075668,1.4854324,0.5337077,-1.6946645,0.1465502,-0.078
 6682,-0.2893814,1.9048759,0.1221142,-0.321984,0.1016904,1.6797336,-0.0
 730768,-0.1560091,-0.068692,1.7504183,-0.5654013,0.1886048,0.2394311,0
 .2021079,-0.5030511,-0.2508053,0.1727035,-0.2040998,-0.528137,-0.62848
 93,0.0017685,-0.0732803,0.0961878,-0.3329305,0.1412484,-0.3843499,0.12
 80493,-0.6761148,-0.4858084,-0.2867864,0.0554351,-0.2396606,-0.8065328
 ,0.0948844,-0.0088477,0.0472878,-0.2820389,0.1912229,-0.1250191,-0.684
 8869,-1.284477,-0.9591555,0.9582882,-1.0697376,-0.2496162,1.3183346,0.
 499639,0.1925559,0.0000426,0.1622887,0.3290426,-0.085473,0.1718701,0.0
 559582,0.1685442\Polar=41.9443622,2.8591843,35.7146912,-8.3678691,0.54
 02256,40.2457659\PG=Unknown\NImag=1\\0.37093820,-0.02026528,0.15101973
 ,0.08881409,0.13253188,-0.06897119,-0.10531979,-0.01136626,0.08094481,
 0.12454989,0.20866932,0.19277469,-0.41526591,-0.03644365,-0.23951357,0
 .10339383,-0.02825657,-0.13720732,-0.09699294,0.11213444,0.16678798,-0
 .15333210,0.01175265,-0.06895570,-0.01377560,-0.06293042,-0.00074800,0
 .59878068,0.03183111,-0.04511289,-0.01438802,0.01992970,-0.01927183,-0
 .00015273,0.01248411,0.57505324,-0.07279069,-0.01677932,-0.02242113,0.
 03545692,0.02700559,-0.01849621,-0.00369269,0.00520389,0.53652079,-0.0
 2363848,0.03397415,0.02895428,-0.01088470,0.00133613,0.00074751,-0.158
 04214,0.07588400,0.06875523,0.15270148,0.01345529,-0.00694478,-0.01309
 072,0.00293500,-0.00177592,0.00046066,0.07530627,-0.15237397,-0.074904
 21,-0.10712859,0.21400072,0.00798789,-0.00706164,-0.00504237,0.0001594
 8,-0.00377318,0.00530953,0.07487070,-0.07689113,-0.14865763,-0.1045182
 2,0.13639782,0.22221705,-0.03349750,-0.00205273,-0.01284165,0.00127631
 ,0.03071832,-0.00125956,-0.09436642,0.01714861,-0.05605576,0.01445665,
 -0.00040549,0.02547296,0.08170682,0.00761448,0.00672793,0.00254340,-0.
 00058322,-0.00857611,0.00031324,0.01627461,-0.09050479,0.05363989,-0.0
 0173866,0.01387417,-0.02703396,-0.01785337,0.11252436,-0.03554070,-0.0
 0653990,0.00248240,0.00111188,0.03902518,0.00532647,-0.05117325,0.0552
 8548,-0.24436365,0.01017420,-0.01427448,-0.07990820,0.05142794,-0.0925
 6701,0.36714991,-0.01003063,-0.03991023,0.00238577,0.00011319,0.001009
 38,0.00144644,-0.14008564,-0.09750412,0.00483656,0.02225669,0.01386763
 ,-0.00149565,0.01532531,-0.00088751,0.00598648,0.12514859,-0.01316964,
 -0.01904502,0.00347938,-0.00339156,0.00264406,0.00253348,-0.10065280,-
 0.25656003,0.01656535,0.00127990,-0.07249983,-0.02551452,-0.00994328,-
 0.04228089,0.04397565,0.12924810,0.38903538,-0.00516364,-0.00596048,0.
 00620845,-0.00217754,0.00236676,0.00169763,0.01146915,0.01916464,-0.07
 666740,-0.00529574,-0.03415019,0.00561850,0.01516754,0.05862829,-0.024
 47826,-0.01342479,-0.03831918,0.08651236,-0.03589666,0.02628149,-0.101
 52368,-0.00030286,-0.13314524,-0.01175381,-0.03307367,-0.05611185,0.02
 088356,0.00192754,0.00235069,-0.00190360,0.01203204,-0.00229110,0.0151
 3232,-0.01259710,-0.00336097,-0.00062683,0.51129675,-0.20790126,-0.283
 50390,0.32866600,0.03973337,0.10361807,-0.07702815,0.05277546,-0.00744
 935,-0.01330172,-0.00398854,0.00599128,0.00415374,-0.02020410,0.008636
 52,-0.02725591,-0.00517526,-0.00151906,-0.00192149,0.16094415,0.197515
 88,-0.12761499,-0.09096810,0.24632697,-0.01285016,0.27663338,-0.013469
 38,0.04494816,0.00585510,-0.02872460,0.00110047,0.00027273,0.00081272,
 -0.02414728,0.00639059,-0.02951493,-0.00251191,-0.00452908,0.00116332,
 0.27433621,-0.22080149,-0.11241352,-0.00922303,0.00158621,-0.01777792,
 0.00434356,-0.00921384,0.00516654,-0.00610510,-0.00366156,0.00260688,0
 .00122297,-0.00038079,-0.00057355,0.00306678,-0.00053523,0.00288113,-0
 .00013040,-0.00000973,0.00005186,-0.44338604,-0.01618383,-0.15326051,0
 .45021126,-0.02023402,0.00408424,-0.02447601,-0.01081338,-0.02989938,-
 0.01000438,-0.00500987,-0.00378037,0.00257053,0.00038161,-0.00027166,-
 0.00027713,0.00259203,-0.00040118,0.00235099,-0.00064799,0.00022539,0.
 00019165,0.00533284,-0.02328944,0.02714687,0.02839877,0.05333241,0.040
 91421,0.02303414,-0.02137582,-0.00565245,-0.03812626,-0.00994870,-0.00
 671837,0.00592276,0.00280985,0.00008228,-0.00071161,-0.00034959,0.0022
 3580,-0.00191446,0.00330627,0.00277711,0.00180893,-0.00005459,-0.19454
 416,0.00748902,-0.06418057,0.16090558,0.00249747,0.08979316\\-0.000000
 66,0.00000238,0.00000014,0.00000051,-0.00000315,0.00000319,0.00000051,
 -0.00000112,0.00000161,0.00000018,0.00000396,-0.00000270,0.00000004,-0
 .00000478,-0.00000072,0.00000118,0.00000159,0.00000484,-0.00000172,0.0
 0000023,-0.00000304,-0.00000003,0.00000088,-0.00000332\\\@
 The archive entry for this job was punched.


 GOORD'S AXIOM:  A MEETING IS AN EVENT AT WHICH
 THE MINUTES ARE KEPT AND THE HOURS ARE LOST.
 Job cpu time:       0 days  0 hours 10 minutes 38.3 seconds.
 Elapsed time:       0 days  0 hours  1 minutes 27.2 seconds.
 File lengths (MBytes):  RWF=     48 Int=      0 D2E=      0 Chk=      5 Scr=      1
 Normal termination of Gaussian 16 at Sun May 25 04:27:44 2025.
done
