 Entering Gaussian System, Link 0=g16
 Initial command:
 /apps/easybuild-2022/easybuild/software/Compiler/NVHPC/22.11-CUDA-11.7.0/Gaussian/g16c01-CUDA-11.7.0/g16/l1.exe "/tmp/Gau-6689.inp" -scrdir="/tmp/"
 Entering Link 1 = /apps/easybuild-2022/easybuild/software/Compiler/NVHPC/22.11-CUDA-11.7.0/Gaussian/g16c01-CUDA-11.7.0/g16/l1.exe PID=      6690.
  
 Copyright (c) 1988-2019, Gaussian, Inc.  All Rights Reserved.
  
 This is part of the Gaussian(R) 16 program.  It is based on
 the Gaussian(R) 09 system (copyright 2009, Gaussian, Inc.),
 the Gaussian(R) 03 system (copyright 2003, Gaussian, Inc.),
 the Gaussian(R) 98 system (copyright 1998, Gaussian, Inc.),
 the Gaussian(R) 94 system (copyright 1995, Gaussian, Inc.),
 the Gaussian 92(TM) system (copyright 1992, Gaussian, Inc.),
 the Gaussian 90(TM) system (copyright 1990, Gaussian, Inc.),
 the Gaussian 88(TM) system (copyright 1988, Gaussian, Inc.),
 the Gaussian 86(TM) system (copyright 1986, Carnegie Mellon
 University), and the Gaussian 82(TM) system (copyright 1983,
 Carnegie Mellon University). Gaussian is a federally registered
 trademark of Gaussian, Inc.
  
 This software contains proprietary and confidential information,
 including trade secrets, belonging to Gaussian, Inc.
  
 This software is provided under written license and may be
 used, copied, transmitted, or stored only in accord with that
 written license.
  
 The following legend is applicable only to US Government
 contracts under FAR:
  
                    RESTRICTED RIGHTS LEGEND
  
 Use, reproduction and disclosure by the US Government is
 subject to restrictions as set forth in subparagraphs (a)
 and (c) of the Commercial Computer Software - Restricted
 Rights clause in FAR 52.227-19.
  
 Gaussian, Inc.
 340 Quinnipiac St., Bldg. 40, Wallingford CT 06492
  
  
 ---------------------------------------------------------------
 Warning -- This program may not be used in any manner that
 competes with the business of Gaussian, Inc. or will provide
 assistance to any competitor of Gaussian, Inc.  The licensee
 of this program is prohibited from giving any competitor of
 Gaussian, Inc. access to this program.  By using this program,
 the user acknowledges that Gaussian, Inc. is engaged in the
 business of creating and licensing software in the field of
 computational chemistry and represents and warrants to the
 licensee that it is not a competitor of Gaussian, Inc. and that
 it will not use this program in any manner prohibited above.
 ---------------------------------------------------------------
  

 Cite this work as:
 Gaussian 16, Revision C.01,
 M. J. Frisch, G. W. Trucks, H. B. Schlegel, G. E. Scuseria, 
 M. A. Robb, J. R. Cheeseman, G. Scalmani, V. Barone, 
 G. A. Petersson, H. Nakatsuji, X. Li, M. Caricato, A. V. Marenich, 
 J. Bloino, B. G. Janesko, R. Gomperts, B. Mennucci, H. P. Hratchian, 
 J. V. Ortiz, A. F. Izmaylov, J. L. Sonnenberg, D. Williams-Young, 
 F. Ding, F. Lipparini, F. Egidi, J. Goings, B. Peng, A. Petrone, 
 T. Henderson, D. Ranasinghe, V. G. Zakrzewski, J. Gao, N. Rega, 
 G. Zheng, W. Liang, M. Hada, M. Ehara, K. Toyota, R. Fukuda, 
 J. Hasegawa, M. Ishida, T. Nakajima, Y. Honda, O. Kitao, H. Nakai, 
 T. Vreven, K. Throssell, J. A. Montgomery, Jr., J. E. Peralta, 
 F. Ogliaro, M. J. Bearpark, J. J. Heyd, E. N. Brothers, K. N. Kudin, 
 V. N. Staroverov, T. A. Keith, R. Kobayashi, J. Normand, 
 K. Raghavachari, A. P. Rendell, J. C. Burant, S. S. Iyengar, 
 J. Tomasi, M. Cossi, J. M. Millam, M. Klene, C. Adamo, R. Cammi, 
 J. W. Ochterski, R. L. Martin, K. Morokuma, O. Farkas, 
 J. B. Foresman, and D. J. Fox, Gaussian, Inc., Wallingford CT, 2019.
 
 ******************************************
 Gaussian 16:  ES64L-G16RevC.01  3-Jul-2019
                25-May-2025 
 ******************************************
 %mem=28GB
 %nprocshared=8
 Will use up to    8 processors via shared memory.
 -----------------------------------------------------------------
 #P M062X/Def2TZVPP Symm(None) scf(xqc) pop(None) freq opt(CalcFC)
 -----------------------------------------------------------------
 1/10=4,18=20,19=15,26=3,38=1/1,3;
 2/9=110,12=2,15=3,17=6,18=5,40=1/2;
 3/5=44,7=202,11=2,25=1,30=1,71=2,74=-55,140=1/1,2,3;
 4//1;
 5/5=2,8=3,13=1,38=5/2,8;
 8/6=4,10=90,11=11/1;
 11/6=1,8=1,9=11,15=111,16=1,31=1/1,2,10;
 10/6=1,13=1,31=1/2;
 7/10=1,25=1,30=1/1,2,3,16;
 1/10=4,18=20,19=15,26=3/3(2);
 2/9=110,15=3/2;
 99//99;
 2/9=110,15=3/2;
 3/5=44,7=202,11=2,25=1,30=1,71=1,74=-55/1,2,3;
 4/5=5,16=3,69=1/1;
 5/5=2,8=3,13=1,38=5/2,8;
 7/30=1/1,2,3,16;
 1/18=20,19=15,26=3/3(-5);
 2/9=110,15=3/2;
 99/9=1/99;
 Leave Link    1 at Sun May 25 04:25:57 2025, MaxMem=  3758096384 cpu:               0.0 elap:               0.0
 (Enter /apps/easybuild-2022/easybuild/software/Compiler/NVHPC/22.11-CUDA-11.7.0/Gaussian/g16c01-CUDA-11.7.0/g16/l101.exe)
 ------------------------------
 Gaussian input prepared by ASE
 ------------------------------
 Symbolic Z-matrix:
 Charge =  0 Multiplicity = 1
 C                     1.35704   0.        0. 
 O                     0.        0.        0. 
 C                    -0.58989   0.62308   1.07868 
 F                    -0.25914   1.8986    1.13886 
 F                    -1.89469   0.52379   0.90915 
 F                    -0.25725   0.03966   2.21399 
 O                     1.71908   1.24017   0. 
 H                     2.25778   1.4811    0.77872 
 
 ITRead=  0  0  0  0  0  0  0  0
 MicOpt= -1 -1 -1 -1 -1 -1 -1 -1
 NAtoms=      8 NQM=        8 NQMF=       0 NMMI=      0 NMMIF=      0
                NMic=       0 NMicF=      0.
                    Isotopes and Nuclear Properties:
 (Nuclear quadrupole moments (NQMom) in fm**2, nuclear magnetic moments (NMagM)
  in nuclear magnetons)

  Atom         1           2           3           4           5           6           7           8
 IAtWgt=          12          16          12          19          19          19          16           1
 AtmWgt=  12.0000000  15.9949146  12.0000000  18.9984032  18.9984032  18.9984032  15.9949146   1.0078250
 NucSpn=           0           0           0           1           1           1           0           1
 AtZEff=  -0.0000000  -0.0000000  -0.0000000  -0.0000000  -0.0000000  -0.0000000  -0.0000000  -0.0000000
 NQMom=    0.0000000   0.0000000   0.0000000   0.0000000   0.0000000   0.0000000   0.0000000   0.0000000
 NMagM=    0.0000000   0.0000000   0.0000000   2.6288670   2.6288670   2.6288670   0.0000000   2.7928460
 AtZNuc=   6.0000000   8.0000000   6.0000000   9.0000000   9.0000000   9.0000000   8.0000000   1.0000000
 Leave Link  101 at Sun May 25 04:25:57 2025, MaxMem=  3758096384 cpu:               0.2 elap:               0.2
 (Enter /apps/easybuild-2022/easybuild/software/Compiler/NVHPC/22.11-CUDA-11.7.0/Gaussian/g16c01-CUDA-11.7.0/g16/l103.exe)

 GradGradGradGradGradGradGradGradGradGradGradGradGradGradGradGradGradGrad
 Berny optimization.
 Initialization pass.
                           ----------------------------
                           !    Initial Parameters    !
                           ! (Angstroms and Degrees)  !
 --------------------------                            --------------------------
 ! Name  Definition              Value          Derivative Info.                !
 --------------------------------------------------------------------------------
 ! R1    R(1,2)                  1.357          calculate D2E/DX2 analytically  !
 ! R2    R(1,7)                  1.2919         calculate D2E/DX2 analytically  !
 ! R3    R(2,3)                  1.3783         calculate D2E/DX2 analytically  !
 ! R4    R(3,4)                  1.3191         calculate D2E/DX2 analytically  !
 ! R5    R(3,5)                  1.3195         calculate D2E/DX2 analytically  !
 ! R6    R(3,6)                  1.3191         calculate D2E/DX2 analytically  !
 ! R7    R(7,8)                  0.9771         calculate D2E/DX2 analytically  !
 ! A1    A(2,1,7)              106.274          calculate D2E/DX2 analytically  !
 ! A2    A(1,2,3)              115.3393         calculate D2E/DX2 analytically  !
 ! A3    A(2,3,4)              111.4396         calculate D2E/DX2 analytically  !
 ! A4    A(2,3,5)              106.7766         calculate D2E/DX2 analytically  !
 ! A5    A(2,3,6)              111.4517         calculate D2E/DX2 analytically  !
 ! A6    A(4,3,5)              109.0607         calculate D2E/DX2 analytically  !
 ! A7    A(4,3,6)              108.9771         calculate D2E/DX2 analytically  !
 ! A8    A(5,3,6)              109.0667         calculate D2E/DX2 analytically  !
 ! A9    A(1,7,8)              113.0296         calculate D2E/DX2 analytically  !
 ! D1    D(7,1,2,3)            -59.9881         calculate D2E/DX2 analytically  !
 ! D2    D(2,1,7,8)            120.0001         calculate D2E/DX2 analytically  !
 ! D3    D(1,2,3,4)             61.052          calculate D2E/DX2 analytically  !
 ! D4    D(1,2,3,5)           -179.9467         calculate D2E/DX2 analytically  !
 ! D5    D(1,2,3,6)            -60.9312         calculate D2E/DX2 analytically  !
 --------------------------------------------------------------------------------
 Trust Radius=3.00D-01 FncErr=1.00D-07 GrdErr=1.00D-06 EigMax=2.50D+02 EigMin=1.00D-04
 Number of steps in this run=     31 maximum allowed number of steps=    100.
 GradGradGradGradGradGradGradGradGradGradGradGradGradGradGradGradGradGrad

 Leave Link  103 at Sun May 25 04:25:57 2025, MaxMem=  3758096384 cpu:               0.0 elap:               0.0
 (Enter /apps/easybuild-2022/easybuild/software/Compiler/NVHPC/22.11-CUDA-11.7.0/Gaussian/g16c01-CUDA-11.7.0/g16/l202.exe)
                          Input orientation:                          
 ---------------------------------------------------------------------
 Center     Atomic      Atomic             Coordinates (Angstroms)
 Number     Number       Type             X           Y           Z
 ---------------------------------------------------------------------
      1          6           0        1.357042    0.000000    0.000000
      2          8           0        0.000000    0.000000    0.000000
      3          6           0       -0.589887    0.623077    1.078681
      4          9           0       -0.259136    1.898604    1.138858
      5          9           0       -1.894692    0.523791    0.909147
      6          9           0       -0.257248    0.039662    2.213991
      7          8           0        1.719084    1.240172    0.000000
      8          1           0        2.257779    1.481098    0.778721
 ---------------------------------------------------------------------
                    Distance matrix (angstroms):
                    1          2          3          4          5
     1  C    0.000000
     2  O    1.357042   0.000000
     3  C    2.311344   1.378312   0.000000
     4  F    2.741117   2.229091   1.319086   0.000000
     5  F    3.416822   2.165816   1.319513   2.148935   0.000000
     6  F    2.740303   2.229239   1.319072   2.147458   2.149005
     7  O    1.291937   2.119735   2.622157   2.375686   3.794617
     8  H    1.900365   2.810271   2.989211   2.576601   4.263386
                    6          7          8
     6  F    0.000000
     7  O    3.201385   0.000000
     8  H    3.234672   0.977059   0.000000
 Symmetry turned off by external request.
 Stoichiometry    C2HF3O2
 Rotational constants (GHZ):           5.0451173           2.3133220           2.2138244
 Leave Link  202 at Sun May 25 04:25:57 2025, MaxMem=  3758096384 cpu:               0.0 elap:               0.0
 (Enter /apps/easybuild-2022/easybuild/software/Compiler/NVHPC/22.11-CUDA-11.7.0/Gaussian/g16c01-CUDA-11.7.0/g16/l301.exe)
 Standard basis: def2TZVPP (5D, 7F)
 Ernie: Thresh=  0.10000D-02 Tol=  0.10000D-05 Strict=F.
   231 basis functions,   374 primitive gaussians,   267 cartesian basis functions
    28 alpha electrons       28 beta electrons
       nuclear repulsion energy       347.5294732233 Hartrees.
 IExCor= 4336 DFT=T Ex+Corr=M062X ExCW=0 ScaHFX=  0.540000
 ScaDFX=  1.000000  1.000000  1.000000  1.000000 ScalE2=  1.000000  1.000000
 IRadAn=      5 IRanWt=     -1 IRanGd=            0 ICorTp=0 IEmpDi=  4
 NAtoms=    8 NActive=    8 NUniq=    8 SFac= 1.00D+00 NAtFMM=   60 NAOKFM=F Big=F
 Integral buffers will be    131072 words long.
 Raffenetti 2 integral format.
 Two-electron integral symmetry is turned off.
 Leave Link  301 at Sun May 25 04:25:57 2025, MaxMem=  3758096384 cpu:               0.1 elap:               0.0
 (Enter /apps/easybuild-2022/easybuild/software/Compiler/NVHPC/22.11-CUDA-11.7.0/Gaussian/g16c01-CUDA-11.7.0/g16/l302.exe)
 NPDir=0 NMtPBC=     1 NCelOv=     1 NCel=       1 NClECP=     1 NCelD=      1
         NCelK=      1 NCelE2=     1 NClLst=     1 CellRange=     0.0.
 One-electron integrals computed using PRISM.
   1 Symmetry operations used in ECPInt.
 ECPInt:  NShTT=    3486 NPrTT=   11183 LenC2=    3404 LenP2D=    8747.
 LDataN:  DoStor=T MaxTD1= 6 Len=  172
 NBasis=   231 RedAO= T EigKep=  1.04D-03  NBF=   231
 NBsUse=   231 1.00D-06 EigRej= -1.00D+00 NBFU=   231
 Precomputing XC quadrature grid using
 IXCGrd= 4 IRadAn=           5 IRanWt=          -1 IRanGd=           0 AccXCQ= 0.00D+00.
 Generated NRdTot=       0 NPtTot=           0 NUsed=           0 NTot=          32
 NSgBfM=   265   265   265   265   265 MxSgAt=     8 MxSgA2=     8.
 Leave Link  302 at Sun May 25 04:25:58 2025, MaxMem=  3758096384 cpu:               0.6 elap:               0.1
 (Enter /apps/easybuild-2022/easybuild/software/Compiler/NVHPC/22.11-CUDA-11.7.0/Gaussian/g16c01-CUDA-11.7.0/g16/l303.exe)
 DipDrv:  MaxL=1.
 Leave Link  303 at Sun May 25 04:25:58 2025, MaxMem=  3758096384 cpu:               0.1 elap:               0.0
 (Enter /apps/easybuild-2022/easybuild/software/Compiler/NVHPC/22.11-CUDA-11.7.0/Gaussian/g16c01-CUDA-11.7.0/g16/l401.exe)
 ExpMin= 9.52D-02 ExpMax= 3.55D+04 ExpMxC= 1.21D+03 IAcc=3 IRadAn=         5 AccDes= 0.00D+00
 Harris functional with IExCor= 1009 and IRadAn=       5 diagonalized for initial guess.
 HarFok:  IExCor= 1009 AccDes= 0.00D+00 IRadAn=         5 IDoV= 1 UseB2=F ITyADJ=14
 ICtDFT=  3500011 ScaDFX=  1.000000  1.000000  1.000000  1.000000
 FoFCou: FMM=F IPFlag=           0 FMFlag=      100000 FMFlg1=           0
         NFxFlg=           0 DoJE=T BraDBF=F KetDBF=T FulRan=T
         wScrn=  0.000000 ICntrl=       500 IOpCl=  0 I1Cent=   200000004 NGrid=           0
         NMat0=    1 NMatS0=      1 NMatT0=    0 NMatD0=    1 NMtDS0=    0 NMtDT0=    0
 Symmetry not used in FoFCou.
 Harris En= -526.422613985063    
 JPrj=0 DoOrth=F DoCkMO=F.
 Leave Link  401 at Sun May 25 04:25:58 2025, MaxMem=  3758096384 cpu:               2.1 elap:               0.3
 (Enter /apps/easybuild-2022/easybuild/software/Compiler/NVHPC/22.11-CUDA-11.7.0/Gaussian/g16c01-CUDA-11.7.0/g16/l502.exe)
 Keep R1 ints in memory in canonical form, NReq=368651279.
 FoFCou: FMM=F IPFlag=           0 FMFlag=           0 FMFlg1=           0
         NFxFlg=           0 DoJE=F BraDBF=F KetDBF=F FulRan=T
         wScrn=  0.000000 ICntrl=       600 IOpCl=  0 I1Cent=           0 NGrid=           0
         NMat0=    1 NMatS0=  26796 NMatT0=    0 NMatD0=    1 NMtDS0=    0 NMtDT0=    0
 Symmetry not used in FoFCou.
 Two-electron integral symmetry not used.
 Closed shell SCF:
 Using DIIS extrapolation, IDIIS=  1040.
 NGot=  3758096384 LenX=  3398923531 LenY=  3398851801
 Requested convergence on RMS density matrix=1.00D-08 within  32 cycles.
 Requested convergence on MAX density matrix=1.00D-06.
 Requested convergence on             energy=1.00D-06.
 No special actions if energy rises.
 Integral accuracy reduced to 1.0D-05 until final iterations.

 Cycle   1  Pass 0  IDiag  1:
 E= -526.612534610090    
 DIIS: error= 2.05D-02 at cycle   1 NSaved=   1.
 NSaved= 1 IEnMin= 1 EnMin= -526.612534610090     IErMin= 1 ErrMin= 2.05D-02
 ErrMax= 2.05D-02  0.00D+00 EMaxC= 1.00D-01 BMatC= 2.55D-01 BMatP= 2.55D-01
 IDIUse=3 WtCom= 7.95D-01 WtEn= 2.05D-01
 Coeff-Com:  0.100D+01
 Coeff-En:   0.100D+01
 Coeff:      0.100D+01
 Gap=     0.264 Goal=   None    Shift=    0.000
 GapD=    0.264 DampG=1.000 DampE=0.500 DampFc=0.5000 IDamp=-1.
 Damping current iteration by 5.00D-01
 RMSDP=1.96D-03 MaxDP=7.82D-02              OVMax= 9.41D-02

 Cycle   2  Pass 0  IDiag  1:
 E= -526.669149310343     Delta-E=       -0.056614700253 Rises=F Damp=T
 DIIS: error= 6.57D-03 at cycle   2 NSaved=   2.
 NSaved= 2 IEnMin= 2 EnMin= -526.669149310343     IErMin= 2 ErrMin= 6.57D-03
 ErrMax= 6.57D-03  0.00D+00 EMaxC= 1.00D-01 BMatC= 2.20D-02 BMatP= 2.55D-01
 IDIUse=3 WtCom= 9.34D-01 WtEn= 6.57D-02
 Coeff-Com: -0.359D-01 0.104D+01
 Coeff-En:   0.466D-01 0.953D+00
 Coeff:     -0.305D-01 0.103D+01
 Gap=     0.284 Goal=   None    Shift=    0.000
 RMSDP=5.94D-04 MaxDP=3.03D-02 DE=-5.66D-02 OVMax= 5.87D-02

 Cycle   3  Pass 0  IDiag  1:
 E= -526.733605778963     Delta-E=       -0.064456468620 Rises=F Damp=F
 DIIS: error= 2.19D-03 at cycle   3 NSaved=   3.
 NSaved= 3 IEnMin= 3 EnMin= -526.733605778963     IErMin= 3 ErrMin= 2.19D-03
 ErrMax= 2.19D-03  0.00D+00 EMaxC= 1.00D-01 BMatC= 3.59D-03 BMatP= 2.20D-02
 IDIUse=3 WtCom= 9.78D-01 WtEn= 2.19D-02
 Coeff-Com: -0.100D+00 0.230D+00 0.870D+00
 Coeff-En:   0.000D+00 0.000D+00 0.100D+01
 Coeff:     -0.981D-01 0.225D+00 0.873D+00
 Gap=     0.280 Goal=   None    Shift=    0.000
 RMSDP=1.80D-04 MaxDP=8.78D-03 DE=-6.45D-02 OVMax= 1.28D-02

 Cycle   4  Pass 0  IDiag  1:
 E= -526.735650210281     Delta-E=       -0.002044431318 Rises=F Damp=F
 DIIS: error= 7.31D-04 at cycle   4 NSaved=   4.
 NSaved= 4 IEnMin= 4 EnMin= -526.735650210281     IErMin= 4 ErrMin= 7.31D-04
 ErrMax= 7.31D-04  0.00D+00 EMaxC= 1.00D-01 BMatC= 4.47D-04 BMatP= 3.59D-03
 IDIUse=3 WtCom= 9.93D-01 WtEn= 7.31D-03
 Coeff-Com: -0.469D-01 0.905D-01 0.432D+00 0.524D+00
 Coeff-En:   0.000D+00 0.000D+00 0.000D+00 0.100D+01
 Coeff:     -0.465D-01 0.899D-01 0.429D+00 0.528D+00
 Gap=     0.280 Goal=   None    Shift=    0.000
 RMSDP=5.92D-05 MaxDP=3.36D-03 DE=-2.04D-03 OVMax= 4.21D-03

 Cycle   5  Pass 0  IDiag  1:
 E= -526.735966837827     Delta-E=       -0.000316627546 Rises=F Damp=F
 DIIS: error= 1.46D-04 at cycle   5 NSaved=   5.
 NSaved= 5 IEnMin= 5 EnMin= -526.735966837827     IErMin= 5 ErrMin= 1.46D-04
 ErrMax= 1.46D-04  0.00D+00 EMaxC= 1.00D-01 BMatC= 1.64D-05 BMatP= 4.47D-04
 IDIUse=3 WtCom= 9.99D-01 WtEn= 1.46D-03
 Coeff-Com: -0.107D-01 0.184D-01 0.993D-01 0.198D+00 0.695D+00
 Coeff-En:   0.000D+00 0.000D+00 0.000D+00 0.000D+00 0.100D+01
 Coeff:     -0.107D-01 0.184D-01 0.992D-01 0.198D+00 0.695D+00
 Gap=     0.280 Goal=   None    Shift=    0.000
 RMSDP=1.21D-05 MaxDP=6.44D-04 DE=-3.17D-04 OVMax= 1.03D-03

 Cycle   6  Pass 0  IDiag  1:
 E= -526.735977138937     Delta-E=       -0.000010301110 Rises=F Damp=F
 DIIS: error= 4.96D-05 at cycle   6 NSaved=   6.
 NSaved= 6 IEnMin= 6 EnMin= -526.735977138937     IErMin= 6 ErrMin= 4.96D-05
 ErrMax= 4.96D-05  0.00D+00 EMaxC= 1.00D-01 BMatC= 1.55D-06 BMatP= 1.64D-05
 IDIUse=1 WtCom= 1.00D+00 WtEn= 0.00D+00
 Coeff-Com: -0.891D-03 0.815D-03 0.431D-02 0.306D-01 0.249D+00 0.716D+00
 Coeff:     -0.891D-03 0.815D-03 0.431D-02 0.306D-01 0.249D+00 0.716D+00
 Gap=     0.280 Goal=   None    Shift=    0.000
 RMSDP=4.60D-06 MaxDP=2.43D-04 DE=-1.03D-05 OVMax= 3.60D-04

 Initial convergence to 1.0D-05 achieved.  Increase integral accuracy.
 Cycle   7  Pass 1  IDiag  1:
 E= -526.735970896363     Delta-E=        0.000006242574 Rises=F Damp=F
 DIIS: error= 2.56D-05 at cycle   1 NSaved=   1.
 NSaved= 1 IEnMin= 1 EnMin= -526.735970896363     IErMin= 1 ErrMin= 2.56D-05
 ErrMax= 2.56D-05  0.00D+00 EMaxC= 1.00D-01 BMatC= 5.53D-07 BMatP= 5.53D-07
 IDIUse=1 WtCom= 1.00D+00 WtEn= 0.00D+00
 Coeff-Com:  0.100D+01
 Coeff:      0.100D+01
 Gap=     0.280 Goal=   None    Shift=    0.000
 RMSDP=4.60D-06 MaxDP=2.43D-04 DE= 6.24D-06 OVMax= 2.10D-04

 Cycle   8  Pass 1  IDiag  1:
 E= -526.735971231921     Delta-E=       -0.000000335559 Rises=F Damp=F
 DIIS: error= 2.15D-05 at cycle   2 NSaved=   2.
 NSaved= 2 IEnMin= 2 EnMin= -526.735971231921     IErMin= 2 ErrMin= 2.15D-05
 ErrMax= 2.15D-05  0.00D+00 EMaxC= 1.00D-01 BMatC= 2.53D-07 BMatP= 5.53D-07
 IDIUse=1 WtCom= 1.00D+00 WtEn= 0.00D+00
 Coeff-Com:  0.364D+00 0.636D+00
 Coeff:      0.364D+00 0.636D+00
 Gap=     0.280 Goal=   None    Shift=    0.000
 RMSDP=1.60D-06 MaxDP=5.43D-05 DE=-3.36D-07 OVMax= 1.13D-04

 Cycle   9  Pass 1  IDiag  1:
 E= -526.735971371170     Delta-E=       -0.000000139249 Rises=F Damp=F
 DIIS: error= 8.82D-06 at cycle   3 NSaved=   3.
 NSaved= 3 IEnMin= 3 EnMin= -526.735971371170     IErMin= 3 ErrMin= 8.82D-06
 ErrMax= 8.82D-06  0.00D+00 EMaxC= 1.00D-01 BMatC= 5.12D-08 BMatP= 2.53D-07
 IDIUse=1 WtCom= 1.00D+00 WtEn= 0.00D+00
 Coeff-Com: -0.289D-01 0.297D+00 0.731D+00
 Coeff:     -0.289D-01 0.297D+00 0.731D+00
 Gap=     0.280 Goal=   None    Shift=    0.000
 RMSDP=6.78D-07 MaxDP=2.18D-05 DE=-1.39D-07 OVMax= 5.30D-05

 Cycle  10  Pass 1  IDiag  1:
 E= -526.735971404330     Delta-E=       -0.000000033160 Rises=F Damp=F
 DIIS: error= 2.05D-06 at cycle   4 NSaved=   4.
 NSaved= 4 IEnMin= 4 EnMin= -526.735971404330     IErMin= 4 ErrMin= 2.05D-06
 ErrMax= 2.05D-06  0.00D+00 EMaxC= 1.00D-01 BMatC= 2.08D-09 BMatP= 5.12D-08
 IDIUse=1 WtCom= 1.00D+00 WtEn= 0.00D+00
 Coeff-Com: -0.221D-01 0.100D+00 0.292D+00 0.630D+00
 Coeff:     -0.221D-01 0.100D+00 0.292D+00 0.630D+00
 Gap=     0.280 Goal=   None    Shift=    0.000
 RMSDP=1.68D-07 MaxDP=9.94D-06 DE=-3.32D-08 OVMax= 1.30D-05

 Cycle  11  Pass 1  IDiag  1:
 E= -526.735971406064     Delta-E=       -0.000000001734 Rises=F Damp=F
 DIIS: error= 5.71D-07 at cycle   5 NSaved=   5.
 NSaved= 5 IEnMin= 5 EnMin= -526.735971406064     IErMin= 5 ErrMin= 5.71D-07
 ErrMax= 5.71D-07  0.00D+00 EMaxC= 1.00D-01 BMatC= 1.89D-10 BMatP= 2.08D-09
 IDIUse=1 WtCom= 1.00D+00 WtEn= 0.00D+00
 Coeff-Com: -0.141D-02-0.211D-01-0.409D-01 0.162D+00 0.902D+00
 Coeff:     -0.141D-02-0.211D-01-0.409D-01 0.162D+00 0.902D+00
 Gap=     0.280 Goal=   None    Shift=    0.000
 RMSDP=7.29D-08 MaxDP=1.88D-06 DE=-1.73D-09 OVMax= 6.54D-06

 Cycle  12  Pass 1  IDiag  1:
 E= -526.735971406281     Delta-E=       -0.000000000217 Rises=F Damp=F
 DIIS: error= 2.43D-07 at cycle   6 NSaved=   6.
 NSaved= 6 IEnMin= 6 EnMin= -526.735971406281     IErMin= 6 ErrMin= 2.43D-07
 ErrMax= 2.43D-07  0.00D+00 EMaxC= 1.00D-01 BMatC= 3.75D-11 BMatP= 1.89D-10
 IDIUse=1 WtCom= 1.00D+00 WtEn= 0.00D+00
 Coeff-Com:  0.205D-02-0.213D-01-0.507D-01 0.762D-02 0.403D+00 0.659D+00
 Coeff:      0.205D-02-0.213D-01-0.507D-01 0.762D-02 0.403D+00 0.659D+00
 Gap=     0.280 Goal=   None    Shift=    0.000
 RMSDP=2.57D-08 MaxDP=9.49D-07 DE=-2.17D-10 OVMax= 2.93D-06

 Cycle  13  Pass 1  IDiag  1:
 E= -526.735971406340     Delta-E=       -0.000000000060 Rises=F Damp=F
 DIIS: error= 7.56D-08 at cycle   7 NSaved=   7.
 NSaved= 7 IEnMin= 7 EnMin= -526.735971406340     IErMin= 7 ErrMin= 7.56D-08
 ErrMax= 7.56D-08  0.00D+00 EMaxC= 1.00D-01 BMatC= 2.95D-12 BMatP= 3.75D-11
 IDIUse=1 WtCom= 1.00D+00 WtEn= 0.00D+00
 Coeff-Com:  0.528D-03-0.195D-02-0.450D-02-0.186D-01-0.428D-01 0.158D+00
 Coeff-Com:  0.909D+00
 Coeff:      0.528D-03-0.195D-02-0.450D-02-0.186D-01-0.428D-01 0.158D+00
 Coeff:      0.909D+00
 Gap=     0.280 Goal=   None    Shift=    0.000
 RMSDP=1.14D-08 MaxDP=3.39D-07 DE=-5.96D-11 OVMax= 1.60D-06

 Cycle  14  Pass 1  IDiag  1:
 E= -526.735971406318     Delta-E=        0.000000000023 Rises=F Damp=F
 DIIS: error= 2.43D-08 at cycle   8 NSaved=   8.
 NSaved= 8 IEnMin= 7 EnMin= -526.735971406340     IErMin= 8 ErrMin= 2.43D-08
 ErrMax= 2.43D-08  0.00D+00 EMaxC= 1.00D-01 BMatC= 2.96D-13 BMatP= 2.95D-12
 IDIUse=1 WtCom= 1.00D+00 WtEn= 0.00D+00
 Coeff-Com: -0.228D-03 0.290D-02 0.686D-02-0.283D-02-0.669D-01-0.521D-01
 Coeff-Com:  0.152D+00 0.960D+00
 Coeff:     -0.228D-03 0.290D-02 0.686D-02-0.283D-02-0.669D-01-0.521D-01
 Coeff:      0.152D+00 0.960D+00
 Gap=     0.280 Goal=   None    Shift=    0.000
 RMSDP=5.50D-09 MaxDP=2.01D-07 DE= 2.25D-11 OVMax= 8.91D-07

 SCF Done:  E(RM062X) =  -526.735971406     A.U. after   14 cycles
            NFock= 14  Conv=0.55D-08     -V/T= 2.0033
 KE= 5.250016341629D+02 PE=-1.942689993041D+03 EE= 5.434229142482D+02
 Leave Link  502 at Sun May 25 04:26:07 2025, MaxMem=  3758096384 cpu:              48.6 elap:               9.3
 (Enter /apps/easybuild-2022/easybuild/software/Compiler/NVHPC/22.11-CUDA-11.7.0/Gaussian/g16c01-CUDA-11.7.0/g16/l508.exe)
 QCSCF skips out because SCF is already converged.
 Leave Link  508 at Sun May 25 04:26:07 2025, MaxMem=  3758096384 cpu:               0.0 elap:               0.0
 (Enter /apps/easybuild-2022/easybuild/software/Compiler/NVHPC/22.11-CUDA-11.7.0/Gaussian/g16c01-CUDA-11.7.0/g16/l801.exe)
 DoSCS=F DFT=T ScalE2(SS,OS)=  1.000000  1.000000
 Range of M.O.s used for correlation:     1   231
 NBasis=   231 NAE=    28 NBE=    28 NFC=     0 NFV=     0
 NROrb=    231 NOA=    28 NOB=    28 NVA=   203 NVB=   203
 Leave Link  801 at Sun May 25 04:26:07 2025, MaxMem=  3758096384 cpu:               0.0 elap:               0.0
 (Enter /apps/easybuild-2022/easybuild/software/Compiler/NVHPC/22.11-CUDA-11.7.0/Gaussian/g16c01-CUDA-11.7.0/g16/l1101.exe)
 Using compressed storage, NAtomX=     8.
 Will process      9 centers per pass.
   1 Symmetry operations used in ECPInt.
 ECPInt:  NShTT=    3486 NPrTT=   11183 LenC2=    3404 LenP2D=    8747.
 LDataN:  DoStor=T MaxTD1= 7 Len=  274
 Leave Link 1101 at Sun May 25 04:26:07 2025, MaxMem=  3758096384 cpu:               0.6 elap:               0.1
 (Enter /apps/easybuild-2022/easybuild/software/Compiler/NVHPC/22.11-CUDA-11.7.0/Gaussian/g16c01-CUDA-11.7.0/g16/l1102.exe)
 Symmetrizing basis deriv contribution to polar:
 IMax=3 JMax=2 DiffMx= 0.00D+00
 Leave Link 1102 at Sun May 25 04:26:07 2025, MaxMem=  3758096384 cpu:               0.0 elap:               0.0
 (Enter /apps/easybuild-2022/easybuild/software/Compiler/NVHPC/22.11-CUDA-11.7.0/Gaussian/g16c01-CUDA-11.7.0/g16/l1110.exe)
 Forming Gx(P) for the SCF density, NAtomX=     8.
 Integral derivatives from FoFJK, PRISM(SPDF).
 Do as many integral derivatives as possible in FoFJK.
 G2DrvN: MDV=    3758095424.
 G2DrvN: will do     9 centers at a time, making    1 passes.
 Calling FoFCou, ICntrl=  3107 FMM=F I1Cent=   0 AccDes= 0.00D+00.
 FoFJK:  IHMeth= 1 ICntrl=    3107 DoSepK=F KAlg= 0 I1Cent=           0 FoldK=F
 IRaf=         0 NMat=       1 IRICut=       1 DoRegI=T DoRafI=F ISym2E= 0 IDoP0=0 IntGTp=1.
 FoFCou: FMM=F IPFlag=           0 FMFlag=      100000 FMFlg1=           0
         NFxFlg=           0 DoJE=F BraDBF=F KetDBF=F FulRan=T
         wScrn=  0.000000 ICntrl=      3107 IOpCl=  0 I1Cent=           0 NGrid=           0
         NMat0=    1 NMatS0=      1 NMatT0=    0 NMatD0=    1 NMtDS0=    0 NMtDT0=    0
 Symmetry not used in FoFCou.
 End of G2Drv F.D. properties file   721 does not exist.
 End of G2Drv F.D. properties file   722 does not exist.
 End of G2Drv F.D. properties file   788 does not exist.
 Leave Link 1110 at Sun May 25 04:26:23 2025, MaxMem=  3758096384 cpu:             119.5 elap:              15.1
 (Enter /apps/easybuild-2022/easybuild/software/Compiler/NVHPC/22.11-CUDA-11.7.0/Gaussian/g16c01-CUDA-11.7.0/g16/l1002.exe)
 Minotr:  Closed shell wavefunction.
          IDoAtm=11111111
          Direct CPHF calculation.
          Differentiating once with respect to nuclear coordinates.
          Requested convergence is 1.0D-08 RMS, and 1.0D-07 maximum.
          Secondary convergence is 1.0D-12 RMS, and 1.0D-12 maximum.
          NewPWx=T KeepS1=F KeepF1=F KeepIn=T MapXYZ=F SortEE=F KeepMc=T.
         2392 words used for storage of precomputed grid.
 Keep R1 ints in memory in canonical form, NReq=368655240.
 FoFCou: FMM=F IPFlag=           0 FMFlag=           0 FMFlg1=           0
         NFxFlg=           0 DoJE=F BraDBF=F KetDBF=F FulRan=T
         wScrn=  0.000000 ICntrl=       600 IOpCl=  0 I1Cent=           0 NGrid=           0
         NMat0=    1 NMatS0=  26796 NMatT0=    0 NMatD0=    1 NMtDS0=    0 NMtDT0=    0
 Symmetry not used in FoFCou.
 Two-electron integral symmetry not used.
          MDV=    3758096384 using IRadAn=       1.
          Solving linear equations simultaneously, MaxMat=       0.
          There are    27 degrees of freedom in the 1st order CPHF.  IDoFFX=6 NUNeed=     0.
     21 vectors produced by pass  0 Test12= 2.11D-14 3.70D-09 XBig12= 1.10D-01 2.49D-01.
 AX will form    21 AO Fock derivatives at one time.
     21 vectors produced by pass  1 Test12= 2.11D-14 3.70D-09 XBig12= 1.43D-02 3.34D-02.
     21 vectors produced by pass  2 Test12= 2.11D-14 3.70D-09 XBig12= 5.27D-04 4.00D-03.
     21 vectors produced by pass  3 Test12= 2.11D-14 3.70D-09 XBig12= 9.50D-06 5.12D-04.
     21 vectors produced by pass  4 Test12= 2.11D-14 3.70D-09 XBig12= 1.38D-07 6.27D-05.
     21 vectors produced by pass  5 Test12= 2.11D-14 3.70D-09 XBig12= 1.71D-09 6.13D-06.
     21 vectors produced by pass  6 Test12= 2.11D-14 3.70D-09 XBig12= 1.42D-11 6.34D-07.
     10 vectors produced by pass  7 Test12= 2.11D-14 3.70D-09 XBig12= 8.72D-14 5.41D-08.
 InvSVY:  IOpt=1 It=  1 EMax= 1.33D-15
 Solved reduced A of dimension   157 with    21 vectors.
 End of Minotr F.D. properties file   721 does not exist.
 End of Minotr F.D. properties file   722 does not exist.
 End of Minotr F.D. properties file   788 does not exist.
 Leave Link 1002 at Sun May 25 04:26:41 2025, MaxMem=  3758096384 cpu:             145.4 elap:              18.5
 (Enter /apps/easybuild-2022/easybuild/software/Compiler/NVHPC/22.11-CUDA-11.7.0/Gaussian/g16c01-CUDA-11.7.0/g16/l701.exe)
 ... and contract with generalized density number  0.
 Compute integral second derivatives.
   1 Symmetry operations used in ECPInt.
 ECPInt:  NShTT=    3486 NPrTT=   11183 LenC2=    3404 LenP2D=    8747.
 LDataN:  DoStor=T MaxTD1= 8 Len=  415
 Leave Link  701 at Sun May 25 04:26:41 2025, MaxMem=  3758096384 cpu:               0.6 elap:               0.1
 (Enter /apps/easybuild-2022/easybuild/software/Compiler/NVHPC/22.11-CUDA-11.7.0/Gaussian/g16c01-CUDA-11.7.0/g16/l702.exe)
 L702 exits ... SP integral derivatives will be done elsewhere.
 Leave Link  702 at Sun May 25 04:26:41 2025, MaxMem=  3758096384 cpu:               0.0 elap:               0.0
 (Enter /apps/easybuild-2022/easybuild/software/Compiler/NVHPC/22.11-CUDA-11.7.0/Gaussian/g16c01-CUDA-11.7.0/g16/l703.exe)
 Integral derivatives from FoFJK, PRISM(SPDF).
 Compute integral second derivatives, UseDBF=F ICtDFT=           0.
 Calling FoFJK, ICntrl=    100127 FMM=F ISym2X=0 I1Cent= 0 IOpClX= 0 NMat=1 NMatS=1 NMatT=0.
 FoFJK:  IHMeth= 1 ICntrl=  100127 DoSepK=F KAlg= 0 I1Cent=           0 FoldK=F
 IRaf=         0 NMat=       1 IRICut=       1 DoRegI=T DoRafI=F ISym2E= 0 IDoP0=0 IntGTp=1.
 FoFCou: FMM=F IPFlag=           0 FMFlag=      100000 FMFlg1=         800
         NFxFlg=           0 DoJE=F BraDBF=F KetDBF=F FulRan=T
         wScrn=  0.000000 ICntrl=    100127 IOpCl=  0 I1Cent=           0 NGrid=           0
         NMat0=    1 NMatS0=      1 NMatT0=    0 NMatD0=    1 NMtDS0=    0 NMtDT0=    0
 Symmetry not used in FoFCou.
 Leave Link  703 at Sun May 25 04:27:19 2025, MaxMem=  3758096384 cpu:             297.6 elap:              37.5
 (Enter /apps/easybuild-2022/easybuild/software/Compiler/NVHPC/22.11-CUDA-11.7.0/Gaussian/g16c01-CUDA-11.7.0/g16/l716.exe)
 Dipole        = 4.80501228D-01 6.62469365D-01 4.72138387D-01
 Polarizability= 0.00000000D+00 0.00000000D+00 0.00000000D+00
                 0.00000000D+00 0.00000000D+00 0.00000000D+00
 -------------------------------------------------------------------
 Center     Atomic                   Forces (Hartrees/Bohr)
 Number     Number              X              Y              Z
 -------------------------------------------------------------------
      1        6           0.009873876   -0.027097450   -0.003581928
      2        8          -0.012064080   -0.011434889    0.008853993
      3        6          -0.012287754    0.002666051   -0.026822606
      4        9          -0.009547387    0.008778996    0.012786174
      5        9          -0.000107613    0.000379625    0.003698249
      6        9           0.003057554   -0.000917963    0.004222375
      7        8           0.010311097    0.034039713    0.019549404
      8        1           0.010764307   -0.006414084   -0.018705662
 -------------------------------------------------------------------
 Cartesian Forces:  Max     0.034039713 RMS     0.013851160
 Force constants in Cartesian coordinates: 
                1             2             3             4             5 
      1  0.381764D+00
      2  0.183163D-02  0.541320D+00
      3 -0.374025D-01  0.107136D-01 -0.119285D-01
      4 -0.245417D+00  0.399642D-01  0.939867D-02  0.461829D+00
      5  0.319184D-01 -0.861946D-01 -0.273604D-01  0.355578D-01  0.209505D+00
      6  0.125669D-01 -0.118087D-01  0.139825D-02 -0.838518D-01  0.115961D+00
      7 -0.589843D-01  0.159499D-01  0.184977D-01 -0.971745D-01  0.162574D-02
      8  0.664311D-01  0.297286D-01  0.140000D-01 -0.268183D-01 -0.828196D-01
      9  0.605092D-01  0.206725D-01  0.241150D-02  0.296513D-02 -0.363041D-01
     10 -0.545531D-02 -0.616397D-02 -0.186961D-02  0.185251D-01  0.983904D-02
     11 -0.177143D-01 -0.138405D-01  0.613073D-03  0.173527D-01 -0.568696D-01
     12 -0.446237D-02 -0.297405D-02  0.489993D-03  0.474966D-02 -0.480743D-01
     13  0.108694D-01  0.903537D-02  0.268414D-03 -0.784962D-01  0.115078D-01
     14 -0.597842D-02 -0.205770D-02 -0.124087D-02  0.315189D-01  0.642126D-02
     15 -0.378342D-02 -0.701335D-02  0.334123D-03  0.520079D-01 -0.495168D-02
     16 -0.852116D-03  0.117048D-02  0.283440D-02  0.157063D-01 -0.368924D-02
     17 -0.226389D-02 -0.285008D-02 -0.212555D-02  0.187048D-02  0.140596D-01
     18 -0.234350D-01 -0.471589D-02 -0.562112D-02  0.286255D-01  0.733517D-04
     19 -0.624966D-01 -0.522363D-01  0.246840D-01 -0.751244D-01 -0.778686D-01
     20 -0.488461D-01 -0.457269D+00  0.125430D-01 -0.100129D+00 -0.667349D-03
     21 -0.413890D-02 -0.130063D-01  0.108614D-01 -0.224982D-01 -0.156160D-02
     22 -0.194279D-01 -0.955127D-02 -0.164111D-01  0.151081D-03 -0.889101D-02
     23 -0.253784D-01 -0.883705D-02 -0.714283D-02  0.683257D-03 -0.343476D-02
     24  0.146088D-03  0.813220D-02  0.205433D-02  0.860297D-02  0.221748D-02
                6             7             8             9            10 
      6  0.239080D+00
      7  0.357176D-01  0.640943D+00
      8 -0.483042D-01  0.157354D-01  0.580971D+00
      9 -0.152084D+00  0.181995D-01 -0.297380D-01  0.563694D+00
     10  0.427284D-02 -0.942921D-01 -0.483948D-01 -0.564300D-03  0.127717D+00
     11 -0.365465D-01 -0.491862D-01 -0.286958D+00 -0.993972D-02  0.867971D-01
     12 -0.867380D-02 -0.280101D-02 -0.141090D-01 -0.794878D-01 -0.891502D-02
     13  0.301464D-01 -0.301162D+00 -0.156501D-01 -0.279354D-01 -0.418158D-01
     14 -0.981457D-02 -0.164975D-01 -0.817666D-01 -0.396075D-03 -0.620978D-01
     15 -0.180495D-02 -0.241350D-01 -0.139717D-02 -0.832917D-01 -0.964829D-02
     16  0.124132D-01 -0.954920D-01  0.241573D-01 -0.397092D-01  0.163314D-01
     17 -0.738068D-02  0.229451D-01 -0.122639D+00  0.851813D-01  0.427364D-02
     18 -0.755488D-01 -0.490682D-01  0.918428D-01 -0.248479D+00 -0.100372D-02
     19 -0.181087D-01  0.118979D-01 -0.130234D-01 -0.122712D-01 -0.221359D-01
     20  0.600590D-02  0.100409D-01 -0.401754D-01 -0.309855D-01  0.158935D-01
     21  0.286883D-02  0.244757D-02 -0.143460D-01 -0.810650D-02  0.175939D-01
     22  0.684350D-02 -0.573567D-02 -0.243714D-02 -0.119366D-02  0.112570D-02
     23 -0.811257D-02 -0.613276D-03  0.365972D-02  0.150966D-02 -0.146623D-03
     24 -0.523562D-02  0.114185D-02  0.205165D-02  0.534330D-02  0.134208D-03
               11            12            13            14            15 
     11  0.429417D+00
     12  0.188665D-01  0.882515D-01
     13 -0.434762D-01 -0.731632D-02  0.453024D+00
     14 -0.249052D-01 -0.828097D-02  0.278958D-01  0.876244D-01
     15 -0.736126D-02  0.133746D-01  0.446145D-01  0.476015D-02  0.931996D-01
     16 -0.244495D-02  0.249640D-02 -0.428264D-01  0.235708D-01 -0.588247D-01
     17 -0.619827D-01  0.560873D-01  0.147147D-01  0.107018D-01  0.121094D-01
     18  0.363513D-01 -0.842460D-02 -0.410583D-01  0.139983D-01 -0.213508D-01
     19  0.690281D-02  0.157075D-01 -0.629004D-03  0.864225D-03 -0.636002D-03
     20  0.176754D-01 -0.812862D-03 -0.487590D-02  0.464999D-02  0.435729D-02
     21 -0.538763D-03 -0.402069D-02  0.716704D-03  0.144905D-02  0.409943D-03
     22  0.176908D-02  0.541141D-03  0.103549D-02  0.724030D-03  0.404947D-03
     23 -0.253634D-02 -0.702542D-03  0.848508D-03 -0.667946D-03 -0.503412D-03
     24 -0.144460D-02 -0.150915D-02  0.564053D-03 -0.474977D-03 -0.870839D-03
               16            17            18            19            20 
     16  0.106516D+00
     17 -0.423823D-01  0.159740D+00
     18  0.817607D-01 -0.145482D+00  0.359791D+00
     19  0.474965D-05  0.352680D-03  0.474926D-02  0.286981D+00
     20 -0.642443D-03  0.354809D-02  0.825981D-02  0.193899D+00  0.524703D+00
     21 -0.368774D-03  0.158846D-02  0.124717D-02  0.213573D+00  0.100824D+00
     22  0.612349D-03  0.489676D-03 -0.570266D-03 -0.138497D+00 -0.653402D-01
     23  0.260445D-03 -0.577333D-03 -0.327879D-03 -0.588908D-01 -0.524648D-01
     24 -0.602107D-03  0.215239D-04 -0.161414D-02 -0.227698D+00 -0.100192D+00
               21            22            23            24 
     21  0.290399D+00
     22 -0.207326D+00  0.160736D+00
     23 -0.744087D-01  0.832368D-01  0.648586D-01
     24 -0.293659D+00  0.217711D+00  0.896882D-01  0.295491D+00
 FormGI is forming the generalized inverse of G from B-inverse, IUseBI=4.
 Force constants in internal coordinates: 
                1             2             3             4             5 
      1  0.388622D+00
      2  0.100332D+00  0.542232D+00
      3  0.734254D-01 -0.266164D-01  0.395151D+00
      4 -0.148253D-01  0.189453D-01  0.512542D-01  0.453244D+00
      5 -0.103175D-01  0.294615D-02  0.558590D-01  0.564245D-01  0.460593D+00
      6 -0.159937D-01  0.613374D-02  0.563088D-01  0.550875D-01  0.560243D-01
      7 -0.657539D-02  0.724880D-02  0.887247D-03 -0.647286D-03 -0.113642D-02
      8  0.156706D+00  0.876302D-01  0.430964D-01 -0.368274D-03 -0.321197D-02
      9  0.151314D+00 -0.269159D-01  0.132489D+00 -0.776880D-02  0.739901D-02
     10  0.536294D-01 -0.744091D-02  0.809198D-01  0.159240D-01 -0.356424D-01
     11 -0.229858D-01  0.115964D-01  0.416257D-01 -0.368254D-01  0.323107D-01
     12 -0.238195D-01  0.100158D-01  0.368368D-01 -0.387284D-01 -0.366022D-01
     13 -0.126344D-01 -0.180587D-02 -0.630561D-01  0.374030D-01  0.296230D-01
     14  0.174685D-02 -0.843164D-02 -0.534035D-01  0.353331D-01 -0.150540D-01
     15  0.290759D-02 -0.373319D-02 -0.459898D-01 -0.135595D-01  0.292223D-01
     16  0.466308D-02  0.435972D-01 -0.675118D-03 -0.312162D-02 -0.109998D-02
     17 -0.211357D-01 -0.996340D-03 -0.502605D-01  0.832497D-02 -0.219912D-02
     18  0.128139D-01  0.362662D-01  0.879459D-03  0.505085D-02 -0.967591D-03
     19  0.163158D-01 -0.680796D-02  0.175744D-01 -0.156317D-02 -0.340106D-01
     20  0.169931D-01 -0.603774D-02  0.122640D-01  0.300597D-01  0.177372D-02
     21 -0.705513D-02  0.221995D-02  0.287694D-02 -0.308826D-01  0.365416D-01
                6             7             8             9            10 
      6  0.460246D+00
      7 -0.153270D-02  0.489727D+00
      8  0.398427D-02  0.772653D-02  0.722088D+00
      9  0.959053D-02 -0.227683D-03  0.192967D+00  0.509913D+00
     10 -0.393472D-01 -0.210537D-02  0.129902D+00  0.160799D+00  0.347120D+00
     11 -0.386067D-01 -0.764526D-03 -0.341515D-01 -0.360574D-01 -0.476210D-01
     12  0.271035D-01 -0.602733D-03 -0.135778D-01 -0.541227D-02 -0.365395D-01
     13 -0.157991D-01  0.119765D-02 -0.520141D-01 -0.742079D-01 -0.119360D+00
     14  0.345527D-01  0.128790D-02 -0.258871D-01 -0.277708D-01 -0.101282D+00
     15  0.311960D-01  0.105073D-02 -0.770422D-02 -0.225107D-01 -0.502249D-01
     16  0.972604D-03  0.303075D-01  0.247038D-01  0.255383D-02 -0.319702D-04
     17 -0.376732D-02  0.874705D-03 -0.123922D+00 -0.143691D+00 -0.692374D-01
     18  0.531844D-03  0.515462D-02  0.342871D-01  0.890218D-02  0.158031D-02
     19  0.302368D-01 -0.371785D-03  0.404519D-01  0.704408D-01  0.463840D-01
     20 -0.348357D-01 -0.574526D-03  0.293911D-01  0.486687D-01  0.675172D-01
     21 -0.555149D-02 -0.110656D-03 -0.864902D-02 -0.390994D-02 -0.433192D-01
               11            12            13            14            15 
     11  0.273960D+00
     12 -0.227137D-01  0.254843D+00
     13 -0.793279D-01 -0.342621D-01  0.195468D+00
     14 -0.354235D-01 -0.882686D-01  0.241480D-01  0.180921D+00
     15 -0.878312D-01 -0.777810D-01  0.205418D-01  0.185184D-01  0.183217D+00
     16 -0.991857D-03 -0.167517D-02  0.144074D-02  0.569917D-03  0.751886D-03
     17  0.196290D-01  0.139119D-01  0.303400D-01  0.217915D-02  0.537326D-02
     18  0.441829D-02 -0.120509D-02 -0.153834D-02 -0.305914D-02 -0.994283D-04
     19 -0.494876D-01  0.316967D-01 -0.729857D-01  0.440824D-01 -0.532570D-02
     20 -0.367466D-02 -0.443939D-01  0.480454D-01 -0.541862D-02 -0.627753D-01
     21  0.459273D-01 -0.933832D-02  0.477133D-02 -0.544663D-01  0.615219D-01
               16            17            18            19            20 
     16  0.101363D+00
     17 -0.502466D-03  0.672220D-02
     18  0.283773D-01  0.111470D-02 -0.287773D-01
     19 -0.240004D-03 -0.381021D-01 -0.228491D-02  0.708094D-01
     20  0.878011D-03 -0.281548D-01 -0.539461D-03 -0.220999D-01  0.718677D-01
     21  0.235814D-03 -0.170751D-02  0.138594D-02 -0.412353D-01 -0.315150D-01
               21 
     21  0.661638D-01
 Leave Link  716 at Sun May 25 04:27:19 2025, MaxMem=  3758096384 cpu:               0.0 elap:               0.0
 (Enter /apps/easybuild-2022/easybuild/software/Compiler/NVHPC/22.11-CUDA-11.7.0/Gaussian/g16c01-CUDA-11.7.0/g16/l103.exe)

 GradGradGradGradGradGradGradGradGradGradGradGradGradGradGradGradGradGrad
 Berny optimization.
 Red2BG is reusing G-inverse.
 Internal  Forces:  Max     0.056036228 RMS     0.021471663
 Search for a local minimum.
 Step number   1 out of a maximum of   31
 All quantities printed in internal units (Hartrees-Bohrs-Radians)
 RMS Force = .21472D-01 SwitMx=.10000D-02 MixMth= 1
 Mixed Optimization -- RFO/linear search
 Second derivative matrix not updated -- analytic derivatives used.
 ITU=  0
     Eigenvalues ---   -0.05274  -0.03635   0.00188   0.09819   0.19322
     Eigenvalues ---    0.19951   0.21560   0.25226   0.28753   0.31555
     Eigenvalues ---    0.39786   0.45270   0.46019   0.49193   0.49871
     Eigenvalues ---    0.61382   0.63802   1.11764
 Eigenvalue     1 is  -5.27D-02 should be greater than     0.000000 Eigenvector:
                          D1        D2        D3        D4        D5
   1                    0.88343  -0.24890   0.21162   0.19328   0.16921
                          A2        A1        R1        R3        A7
   1                    0.15401   0.10079  -0.07323   0.04951   0.03559
 Eigenvalue     2 is  -3.64D-02 should be greater than     0.000000 Eigenvector:
                          D2        D1        A9        D3        D4
   1                   -0.94485  -0.19998   0.18189  -0.11456  -0.10137
                          D5        R2        A4        R1        A7
   1                   -0.08399   0.03457   0.02262   0.02250  -0.01957
 RFO step:  Lambda=-6.16836201D-02 EMin=-5.27442659D-02
 Linear search not attempted -- first point.
 Iteration  1 RMS(Cart)=  0.25585629 RMS(Int)=  0.14146489
 Iteration  2 RMS(Cart)=  0.12655118 RMS(Int)=  0.08964165
 Iteration  3 RMS(Cart)=  0.08439091 RMS(Int)=  0.04465138
 Iteration  4 RMS(Cart)=  0.08796430 RMS(Int)=  0.00675991
 Iteration  5 RMS(Cart)=  0.00845463 RMS(Int)=  0.00024055
 Iteration  6 RMS(Cart)=  0.00007309 RMS(Int)=  0.00023770
 Iteration  7 RMS(Cart)=  0.00000000 RMS(Int)=  0.00023770
 ITry= 1 IFail=0 DXMaxC= 1.08D+00 DCOld= 1.00D+10 DXMaxT= 3.00D-01 DXLimC= 3.00D+00 Rises=F
 Variable       Old X    -DE/DX   Delta X   Delta X   Delta X     New X
                                 (Linear)    (Quad)   (Total)
    R1        2.56444   0.03095   0.00000  -0.04132  -0.04132   2.52311
    R2        2.44141   0.03244   0.00000   0.05000   0.05000   2.49140
    R3        2.60463   0.00822   0.00000   0.02334   0.02334   2.62798
    R4        2.49271   0.00668   0.00000  -0.01281  -0.01281   2.47990
    R5        2.49352  -0.00040   0.00000   0.00007   0.00007   2.49359
    R6        2.49268   0.00481   0.00000   0.01484   0.01484   2.50753
    R7        1.84637  -0.01056   0.00000  -0.02281  -0.02281   1.82356
    A1        1.85483   0.04188   0.00000   0.09103   0.09103   1.94586
    A2        2.01305   0.05604   0.00000   0.22184   0.22184   2.23489
    A3        1.94499   0.03129   0.00000   0.06296   0.06305   2.00804
    A4        1.86360   0.00086   0.00000  -0.01173  -0.01204   1.85156
    A5        1.94520  -0.00784   0.00000  -0.04467  -0.04475   1.90045
    A6        1.90347  -0.01083   0.00000  -0.01646  -0.01657   1.88689
    A7        1.90201  -0.01003   0.00000   0.00877   0.00904   1.91105
    A8        1.90357  -0.00398   0.00000  -0.00008  -0.00063   1.90295
    A9        1.97274   0.00200   0.00000  -0.04413  -0.04413   1.92861
    D1       -1.04699   0.00287   0.00000   0.79690   0.79690  -0.25009
    D2        2.09440   0.03374   0.00000   0.30900   0.30900   2.40339
    D3        1.06556   0.00432   0.00000   0.12853   0.12823   1.19379
    D4       -3.14066   0.00931   0.00000   0.13674   0.13636  -3.00430
    D5       -1.06345   0.00060   0.00000   0.10428   0.10495  -0.95850
         Item               Value     Threshold  Converged?
 Maximum Force            0.056036     0.000450     NO 
 RMS     Force            0.021472     0.000300     NO 
 Maximum Displacement     1.080363     0.001800     NO 
 RMS     Displacement     0.497047     0.001200     NO 
 Predicted change in Energy=-4.902589D-02
 Lowest energy point so far.  Saving SCF results.
 GradGradGradGradGradGradGradGradGradGradGradGradGradGradGradGradGradGrad

 Leave Link  103 at Sun May 25 04:27:19 2025, MaxMem=  3758096384 cpu:               0.0 elap:               0.0
 (Enter /apps/easybuild-2022/easybuild/software/Compiler/NVHPC/22.11-CUDA-11.7.0/Gaussian/g16c01-CUDA-11.7.0/g16/l202.exe)
                          Input orientation:                          
 ---------------------------------------------------------------------
 Center     Atomic      Atomic             Coordinates (Angstroms)
 Number     Number       Type             X           Y           Z
 ---------------------------------------------------------------------
      1          6           0        1.292681    0.252318   -0.293595
      2          8           0       -0.003539    0.129437    0.002044
      3          6           0       -0.697176    0.694537    1.066694
      4          9           0       -0.830839    1.998919    1.013119
      5          9           0       -1.902264    0.157440    1.044240
      6          9           0       -0.094219    0.357331    2.199596
      7          8           0        1.850017    1.239683    0.379199
      8          1           0        2.718281    0.976737    0.708102
 ---------------------------------------------------------------------
                    Distance matrix (angstroms):
                    1          2          3          4          5
     1  C    0.000000
     2  O    1.335173   0.000000
     3  C    2.450607   1.390665   0.000000
     4  F    3.044249   2.280715   1.312306   0.000000
     5  F    3.465036   2.166129   1.319551   2.130719   0.000000
     6  F    2.854912   2.211198   1.326926   2.155261   2.154955
     7  O    1.318394   2.193299   2.694072   2.857495   3.961457
     8  H    1.886932   2.936790   3.445804   3.705960   4.704643
                    6          7          8
     6  F    0.000000
     7  O    2.805787   0.000000
     8  H    3.243204   0.964987   0.000000
 Symmetry turned off by external request.
 Stoichiometry    C2HF3O2
 Rotational constants (GHZ):           4.9953877           2.1912796           2.0755464
 Leave Link  202 at Sun May 25 04:27:19 2025, MaxMem=  3758096384 cpu:               0.0 elap:               0.0
 (Enter /apps/easybuild-2022/easybuild/software/Compiler/NVHPC/22.11-CUDA-11.7.0/Gaussian/g16c01-CUDA-11.7.0/g16/l301.exe)
 Standard basis: def2TZVPP (5D, 7F)
 Ernie: Thresh=  0.10000D-02 Tol=  0.10000D-05 Strict=F.
   231 basis functions,   374 primitive gaussians,   267 cartesian basis functions
    28 alpha electrons       28 beta electrons
       nuclear repulsion energy       341.9576656242 Hartrees.
 IExCor= 4336 DFT=T Ex+Corr=M062X ExCW=0 ScaHFX=  0.540000
 ScaDFX=  1.000000  1.000000  1.000000  1.000000 ScalE2=  1.000000  1.000000
 IRadAn=      5 IRanWt=     -1 IRanGd=            0 ICorTp=0 IEmpDi=  4
 NAtoms=    8 NActive=    8 NUniq=    8 SFac= 1.00D+00 NAtFMM=   60 NAOKFM=F Big=F
 Integral buffers will be    131072 words long.
 Raffenetti 2 integral format.
 Two-electron integral symmetry is turned off.
 Leave Link  301 at Sun May 25 04:27:19 2025, MaxMem=  3758096384 cpu:               0.0 elap:               0.0
 (Enter /apps/easybuild-2022/easybuild/software/Compiler/NVHPC/22.11-CUDA-11.7.0/Gaussian/g16c01-CUDA-11.7.0/g16/l302.exe)
 NPDir=0 NMtPBC=     1 NCelOv=     1 NCel=       1 NClECP=     1 NCelD=      1
         NCelK=      1 NCelE2=     1 NClLst=     1 CellRange=     0.0.
 One-electron integrals computed using PRISM.
   1 Symmetry operations used in ECPInt.
 ECPInt:  NShTT=    3486 NPrTT=   11183 LenC2=    3396 LenP2D=    8673.
 LDataN:  DoStor=T MaxTD1= 6 Len=  172
 NBasis=   231 RedAO= T EigKep=  1.02D-03  NBF=   231
 NBsUse=   231 1.00D-06 EigRej= -1.00D+00 NBFU=   231
 Precomputing XC quadrature grid using
 IXCGrd= 4 IRadAn=           5 IRanWt=          -1 IRanGd=           0 AccXCQ= 0.00D+00.
 Generated NRdTot=       0 NPtTot=           0 NUsed=           0 NTot=          32
 NSgBfM=   265   265   265   265   265 MxSgAt=     8 MxSgA2=     8.
 Leave Link  302 at Sun May 25 04:27:19 2025, MaxMem=  3758096384 cpu:               0.5 elap:               0.1
 (Enter /apps/easybuild-2022/easybuild/software/Compiler/NVHPC/22.11-CUDA-11.7.0/Gaussian/g16c01-CUDA-11.7.0/g16/l303.exe)
 DipDrv:  MaxL=1.
 Leave Link  303 at Sun May 25 04:27:19 2025, MaxMem=  3758096384 cpu:               0.1 elap:               0.0
 (Enter /apps/easybuild-2022/easybuild/software/Compiler/NVHPC/22.11-CUDA-11.7.0/Gaussian/g16c01-CUDA-11.7.0/g16/l401.exe)
 Initial guess from the checkpoint file:  "/tmp/Gau-6690.chk"
 B after Tr=     0.076530    0.013828    0.127766
         Rot=    0.997270    0.034140    0.005869   -0.065214 Ang=   8.47 deg.
 Guess basis will be translated and rotated to current coordinates.
 JPrj=2 DoOrth=T DoCkMO=T.
 Generating alternative initial guess.
 ExpMin= 9.52D-02 ExpMax= 3.55D+04 ExpMxC= 1.21D+03 IAcc=3 IRadAn=         5 AccDes= 0.00D+00
 Harris functional with IExCor= 1009 and IRadAn=       5 diagonalized for initial guess.
 HarFok:  IExCor= 1009 AccDes= 0.00D+00 IRadAn=         5 IDoV= 1 UseB2=F ITyADJ=14
 ICtDFT=  3500011 ScaDFX=  1.000000  1.000000  1.000000  1.000000
 FoFCou: FMM=F IPFlag=           0 FMFlag=      100000 FMFlg1=           0
         NFxFlg=           0 DoJE=T BraDBF=F KetDBF=T FulRan=T
         wScrn=  0.000000 ICntrl=       500 IOpCl=  0 I1Cent=   200000004 NGrid=           0
         NMat0=    1 NMatS0=      1 NMatT0=    0 NMatD0=    1 NMtDS0=    0 NMtDT0=    0
 Symmetry not used in FoFCou.
 Harris En= -526.448887140461    
 Leave Link  401 at Sun May 25 04:27:19 2025, MaxMem=  3758096384 cpu:               2.2 elap:               0.3
 (Enter /apps/easybuild-2022/easybuild/software/Compiler/NVHPC/22.11-CUDA-11.7.0/Gaussian/g16c01-CUDA-11.7.0/g16/l502.exe)
 Keep R1 ints in memory in canonical form, NReq=368651279.
 FoFCou: FMM=F IPFlag=           0 FMFlag=           0 FMFlg1=           0
         NFxFlg=           0 DoJE=F BraDBF=F KetDBF=F FulRan=T
         wScrn=  0.000000 ICntrl=       600 IOpCl=  0 I1Cent=           0 NGrid=           0
         NMat0=    1 NMatS0=  26796 NMatT0=    0 NMatD0=    1 NMtDS0=    0 NMtDT0=    0
 Symmetry not used in FoFCou.
 Two-electron integral symmetry not used.
 Closed shell SCF:
 Using DIIS extrapolation, IDIIS=  1040.
 NGot=  3758096384 LenX=  3398923531 LenY=  3398851801
 Requested convergence on RMS density matrix=1.00D-08 within  32 cycles.
 Requested convergence on MAX density matrix=1.00D-06.
 Requested convergence on             energy=1.00D-06.
 No special actions if energy rises.
 Integral accuracy reduced to 1.0D-05 until final iterations.

 Cycle   1  Pass 0  IDiag  1:
 E= -526.289305019382    
 DIIS: error= 2.12D-02 at cycle   1 NSaved=   1.
 NSaved= 1 IEnMin= 1 EnMin= -526.289305019382     IErMin= 1 ErrMin= 2.12D-02
 ErrMax= 2.12D-02  0.00D+00 EMaxC= 1.00D-01 BMatC= 3.16D-01 BMatP= 3.16D-01
 IDIUse=3 WtCom= 7.88D-01 WtEn= 2.12D-01
 Coeff-Com:  0.100D+01
 Coeff-En:   0.100D+01
 Coeff:      0.100D+01
 Recover alternate guess density for next cycle.
 RMSDP=3.78D-03 MaxDP=1.06D-01              OVMax= 0.00D+00

 Cycle   2  Pass 0  IDiag  1:
 E= -526.649491029778     Delta-E=       -0.360186010396 Rises=F Damp=F
 DIIS: error= 2.43D-02 at cycle   2 NSaved=   2.
 NSaved= 2 IEnMin= 2 EnMin= -526.649491029778     IErMin= 1 ErrMin= 2.12D-02
 ErrMax= 2.43D-02  0.00D+00 EMaxC= 1.00D-01 BMatC= 2.40D-01 BMatP= 3.16D-01
 IDIUse=3 WtCom= 7.57D-01 WtEn= 2.43D-01
 Coeff-Com:  0.418D+00 0.582D+00
 Coeff-En:   0.000D+00 0.100D+01
 Coeff:      0.316D+00 0.684D+00
 Gap=     0.281 Goal=   None    Shift=    0.000
 RMSDP=1.76D-03 MaxDP=6.28D-02 DE=-3.60D-01 OVMax= 1.03D-01

 Cycle   3  Pass 0  IDiag  1:
 E= -526.691713706837     Delta-E=       -0.042222677059 Rises=F Damp=F
 DIIS: error= 1.41D-02 at cycle   3 NSaved=   3.
 NSaved= 3 IEnMin= 3 EnMin= -526.691713706837     IErMin= 3 ErrMin= 1.41D-02
 ErrMax= 1.41D-02  0.00D+00 EMaxC= 1.00D-01 BMatC= 1.21D-01 BMatP= 2.40D-01
 IDIUse=3 WtCom= 8.59D-01 WtEn= 1.41D-01
 Coeff-Com:  0.489D-01 0.380D+00 0.571D+00
 Coeff-En:   0.000D+00 0.376D+00 0.624D+00
 Coeff:      0.420D-01 0.379D+00 0.579D+00
 Gap=     0.306 Goal=   None    Shift=    0.000
 RMSDP=7.47D-04 MaxDP=3.28D-02 DE=-4.22D-02 OVMax= 5.48D-02

 Cycle   4  Pass 0  IDiag  1:
 E= -526.762092347855     Delta-E=       -0.070378641018 Rises=F Damp=F
 DIIS: error= 2.77D-03 at cycle   4 NSaved=   4.
 NSaved= 4 IEnMin= 4 EnMin= -526.762092347855     IErMin= 4 ErrMin= 2.77D-03
 ErrMax= 2.77D-03  0.00D+00 EMaxC= 1.00D-01 BMatC= 4.74D-03 BMatP= 1.21D-01
 IDIUse=3 WtCom= 9.72D-01 WtEn= 2.77D-02
 Coeff-Com: -0.212D-01 0.349D-01 0.173D+00 0.814D+00
 Coeff-En:   0.000D+00 0.000D+00 0.000D+00 0.100D+01
 Coeff:     -0.206D-01 0.340D-01 0.168D+00 0.819D+00
 Gap=     0.309 Goal=   None    Shift=    0.000
 RMSDP=2.17D-04 MaxDP=9.43D-03 DE=-7.04D-02 OVMax= 2.11D-02

 Cycle   5  Pass 0  IDiag  1:
 E= -526.764654806366     Delta-E=       -0.002562458511 Rises=F Damp=F
 DIIS: error= 1.27D-03 at cycle   5 NSaved=   5.
 NSaved= 5 IEnMin= 5 EnMin= -526.764654806366     IErMin= 5 ErrMin= 1.27D-03
 ErrMax= 1.27D-03  0.00D+00 EMaxC= 1.00D-01 BMatC= 1.08D-03 BMatP= 4.74D-03
 IDIUse=3 WtCom= 9.87D-01 WtEn= 1.27D-02
 Coeff-Com: -0.705D-02-0.536D-02 0.580D-01 0.443D+00 0.512D+00
 Coeff-En:   0.000D+00 0.000D+00 0.000D+00 0.897D-01 0.910D+00
 Coeff:     -0.696D-02-0.529D-02 0.573D-01 0.438D+00 0.517D+00
 Gap=     0.309 Goal=   None    Shift=    0.000
 RMSDP=7.25D-05 MaxDP=2.79D-03 DE=-2.56D-03 OVMax= 6.90D-03

 Cycle   6  Pass 0  IDiag  1:
 E= -526.765395392612     Delta-E=       -0.000740586246 Rises=F Damp=F
 DIIS: error= 1.39D-04 at cycle   6 NSaved=   6.
 NSaved= 6 IEnMin= 6 EnMin= -526.765395392612     IErMin= 6 ErrMin= 1.39D-04
 ErrMax= 1.39D-04  0.00D+00 EMaxC= 1.00D-01 BMatC= 1.83D-05 BMatP= 1.08D-03
 IDIUse=3 WtCom= 9.99D-01 WtEn= 1.39D-03
 Coeff-Com: -0.143D-02-0.251D-02 0.390D-02 0.631D-01 0.130D+00 0.807D+00
 Coeff-En:   0.000D+00 0.000D+00 0.000D+00 0.000D+00 0.000D+00 0.100D+01
 Coeff:     -0.143D-02-0.251D-02 0.390D-02 0.630D-01 0.130D+00 0.808D+00
 Gap=     0.308 Goal=   None    Shift=    0.000
 RMSDP=2.04D-05 MaxDP=7.00D-04 DE=-7.41D-04 OVMax= 2.97D-03

 Cycle   7  Pass 0  IDiag  1:
 E= -526.765417175367     Delta-E=       -0.000021782755 Rises=F Damp=F
 DIIS: error= 9.89D-05 at cycle   7 NSaved=   7.
 NSaved= 7 IEnMin= 7 EnMin= -526.765417175367     IErMin= 7 ErrMin= 9.89D-05
 ErrMax= 9.89D-05  0.00D+00 EMaxC= 1.00D-01 BMatC= 4.49D-06 BMatP= 1.83D-05
 IDIUse=1 WtCom= 1.00D+00 WtEn= 0.00D+00
 Coeff-Com: -0.490D-04-0.266D-03-0.588D-02-0.324D-01-0.162D-01 0.312D+00
 Coeff-Com:  0.742D+00
 Coeff:     -0.490D-04-0.266D-03-0.588D-02-0.324D-01-0.162D-01 0.312D+00
 Coeff:      0.742D+00
 Gap=     0.308 Goal=   None    Shift=    0.000
 RMSDP=1.16D-05 MaxDP=5.08D-04 DE=-2.18D-05 OVMax= 1.87D-03

 Cycle   8  Pass 0  IDiag  1:
 E= -526.765423675399     Delta-E=       -0.000006500032 Rises=F Damp=F
 DIIS: error= 3.09D-05 at cycle   8 NSaved=   8.
 NSaved= 8 IEnMin= 8 EnMin= -526.765423675399     IErMin= 8 ErrMin= 3.09D-05
 ErrMax= 3.09D-05  0.00D+00 EMaxC= 1.00D-01 BMatC= 7.03D-07 BMatP= 4.49D-06
 IDIUse=1 WtCom= 1.00D+00 WtEn= 0.00D+00
 Coeff-Com:  0.350D-03 0.399D-03-0.283D-02-0.246D-01-0.294D-01-0.358D-01
 Coeff-Com:  0.263D+00 0.829D+00
 Coeff:      0.350D-03 0.399D-03-0.283D-02-0.246D-01-0.294D-01-0.358D-01
 Coeff:      0.263D+00 0.829D+00
 Gap=     0.308 Goal=   None    Shift=    0.000
 RMSDP=5.55D-06 MaxDP=1.62D-04 DE=-6.50D-06 OVMax= 1.01D-03

 Initial convergence to 1.0D-05 achieved.  Increase integral accuracy.
 Cycle   9  Pass 1  IDiag  1:
 E= -526.765432343444     Delta-E=       -0.000008668046 Rises=F Damp=F
 DIIS: error= 2.14D-05 at cycle   1 NSaved=   1.
 NSaved= 1 IEnMin= 1 EnMin= -526.765432343444     IErMin= 1 ErrMin= 2.14D-05
 ErrMax= 2.14D-05  0.00D+00 EMaxC= 1.00D-01 BMatC= 5.07D-07 BMatP= 5.07D-07
 IDIUse=1 WtCom= 1.00D+00 WtEn= 0.00D+00
 Coeff-Com:  0.100D+01
 Coeff:      0.100D+01
 Gap=     0.308 Goal=   None    Shift=    0.000
 RMSDP=5.55D-06 MaxDP=1.62D-04 DE=-8.67D-06 OVMax= 3.32D-04

 Cycle  10  Pass 1  IDiag  1:
 E= -526.765432779264     Delta-E=       -0.000000435819 Rises=F Damp=F
 DIIS: error= 1.56D-05 at cycle   2 NSaved=   2.
 NSaved= 2 IEnMin= 2 EnMin= -526.765432779264     IErMin= 2 ErrMin= 1.56D-05
 ErrMax= 1.56D-05  0.00D+00 EMaxC= 1.00D-01 BMatC= 1.31D-07 BMatP= 5.07D-07
 IDIUse=1 WtCom= 1.00D+00 WtEn= 0.00D+00
 Coeff-Com:  0.260D+00 0.740D+00
 Coeff:      0.260D+00 0.740D+00
 Gap=     0.308 Goal=   None    Shift=    0.000
 RMSDP=1.45D-06 MaxDP=4.14D-05 DE=-4.36D-07 OVMax= 1.30D-04

 Cycle  11  Pass 1  IDiag  1:
 E= -526.765432853951     Delta-E=       -0.000000074687 Rises=F Damp=F
 DIIS: error= 9.46D-06 at cycle   3 NSaved=   3.
 NSaved= 3 IEnMin= 3 EnMin= -526.765432853951     IErMin= 3 ErrMin= 9.46D-06
 ErrMax= 9.46D-06  0.00D+00 EMaxC= 1.00D-01 BMatC= 5.08D-08 BMatP= 1.31D-07
 IDIUse=1 WtCom= 1.00D+00 WtEn= 0.00D+00
 Coeff-Com: -0.523D-01 0.369D+00 0.683D+00
 Coeff:     -0.523D-01 0.369D+00 0.683D+00
 Gap=     0.308 Goal=   None    Shift=    0.000
 RMSDP=7.12D-07 MaxDP=1.89D-05 DE=-7.47D-08 OVMax= 8.29D-05

 Cycle  12  Pass 1  IDiag  1:
 E= -526.765432891681     Delta-E=       -0.000000037730 Rises=F Damp=F
 DIIS: error= 1.64D-06 at cycle   4 NSaved=   4.
 NSaved= 4 IEnMin= 4 EnMin= -526.765432891681     IErMin= 4 ErrMin= 1.64D-06
 ErrMax= 1.64D-06  0.00D+00 EMaxC= 1.00D-01 BMatC= 1.30D-09 BMatP= 5.08D-08
 IDIUse=1 WtCom= 1.00D+00 WtEn= 0.00D+00
 Coeff-Com: -0.172D-01 0.144D-01 0.727D-01 0.930D+00
 Coeff:     -0.172D-01 0.144D-01 0.727D-01 0.930D+00
 Gap=     0.308 Goal=   None    Shift=    0.000
 RMSDP=3.00D-07 MaxDP=9.73D-06 DE=-3.77D-08 OVMax= 4.81D-05

 Cycle  13  Pass 1  IDiag  1:
 E= -526.765432894947     Delta-E=       -0.000000003266 Rises=F Damp=F
 DIIS: error= 1.07D-06 at cycle   5 NSaved=   5.
 NSaved= 5 IEnMin= 5 EnMin= -526.765432894947     IErMin= 5 ErrMin= 1.07D-06
 ErrMax= 1.07D-06  0.00D+00 EMaxC= 1.00D-01 BMatC= 5.30D-10 BMatP= 1.30D-09
 IDIUse=1 WtCom= 1.00D+00 WtEn= 0.00D+00
 Coeff-Com:  0.653D-02-0.939D-01-0.161D+00 0.405D+00 0.844D+00
 Coeff:      0.653D-02-0.939D-01-0.161D+00 0.405D+00 0.844D+00
 Gap=     0.308 Goal=   None    Shift=    0.000
 RMSDP=1.85D-07 MaxDP=6.40D-06 DE=-3.27D-09 OVMax= 3.34D-05

 Cycle  14  Pass 1  IDiag  1:
 E= -526.765432896037     Delta-E=       -0.000000001090 Rises=F Damp=F
 DIIS: error= 2.23D-07 at cycle   6 NSaved=   6.
 NSaved= 6 IEnMin= 6 EnMin= -526.765432896037     IErMin= 6 ErrMin= 2.23D-07
 ErrMax= 2.23D-07  0.00D+00 EMaxC= 1.00D-01 BMatC= 4.69D-11 BMatP= 5.30D-10
 IDIUse=1 WtCom= 1.00D+00 WtEn= 0.00D+00
 Coeff-Com:  0.391D-02-0.341D-01-0.617D-01 0.534D-01 0.289D+00 0.750D+00
 Coeff:      0.391D-02-0.341D-01-0.617D-01 0.534D-01 0.289D+00 0.750D+00
 Gap=     0.308 Goal=   None    Shift=    0.000
 RMSDP=4.26D-08 MaxDP=1.38D-06 DE=-1.09D-09 OVMax= 7.36D-06

 Cycle  15  Pass 1  IDiag  1:
 E= -526.765432896081     Delta-E=       -0.000000000044 Rises=F Damp=F
 DIIS: error= 1.37D-07 at cycle   7 NSaved=   7.
 NSaved= 7 IEnMin= 7 EnMin= -526.765432896081     IErMin= 7 ErrMin= 1.37D-07
 ErrMax= 1.37D-07  0.00D+00 EMaxC= 1.00D-01 BMatC= 1.04D-11 BMatP= 4.69D-11
 IDIUse=1 WtCom= 1.00D+00 WtEn= 0.00D+00
 Coeff-Com:  0.250D-03 0.381D-02 0.573D-02-0.569D-01-0.369D-01 0.333D+00
 Coeff-Com:  0.751D+00
 Coeff:      0.250D-03 0.381D-02 0.573D-02-0.569D-01-0.369D-01 0.333D+00
 Coeff:      0.751D+00
 Gap=     0.308 Goal=   None    Shift=    0.000
 RMSDP=1.86D-08 MaxDP=5.27D-07 DE=-4.41D-11 OVMax= 2.88D-06

 Cycle  16  Pass 1  IDiag  1:
 E= -526.765432896106     Delta-E=       -0.000000000025 Rises=F Damp=F
 DIIS: error= 3.83D-08 at cycle   8 NSaved=   8.
 NSaved= 8 IEnMin= 8 EnMin= -526.765432896106     IErMin= 8 ErrMin= 3.83D-08
 ErrMax= 3.83D-08  0.00D+00 EMaxC= 1.00D-01 BMatC= 1.03D-12 BMatP= 1.04D-11
 IDIUse=1 WtCom= 1.00D+00 WtEn= 0.00D+00
 Coeff-Com: -0.266D-03 0.524D-02 0.866D-02-0.326D-01-0.453D-01 0.610D-01
 Coeff-Com:  0.311D+00 0.692D+00
 Coeff:     -0.266D-03 0.524D-02 0.866D-02-0.326D-01-0.453D-01 0.610D-01
 Coeff:      0.311D+00 0.692D+00
 Gap=     0.308 Goal=   None    Shift=    0.000
 RMSDP=4.33D-09 MaxDP=1.68D-07 DE=-2.50D-11 OVMax= 6.44D-07

 SCF Done:  E(RM062X) =  -526.765432896     A.U. after   16 cycles
            NFock= 16  Conv=0.43D-08     -V/T= 2.0037
 KE= 5.248267483083D+02 PE=-1.931451962804D+03 EE= 5.379021159755D+02
 Leave Link  502 at Sun May 25 04:27:29 2025, MaxMem=  3758096384 cpu:              50.0 elap:              10.0
 (Enter /apps/easybuild-2022/easybuild/software/Compiler/NVHPC/22.11-CUDA-11.7.0/Gaussian/g16c01-CUDA-11.7.0/g16/l508.exe)
 QCSCF skips out because SCF is already converged.
 Leave Link  508 at Sun May 25 04:27:29 2025, MaxMem=  3758096384 cpu:               0.0 elap:               0.0
 (Enter /apps/easybuild-2022/easybuild/software/Compiler/NVHPC/22.11-CUDA-11.7.0/Gaussian/g16c01-CUDA-11.7.0/g16/l701.exe)
 ... and contract with generalized density number  0.
 Compute integral first derivatives.
   1 Symmetry operations used in ECPInt.
 ECPInt:  NShTT=    3486 NPrTT=   11183 LenC2=    3396 LenP2D=    8673.
 LDataN:  DoStor=T MaxTD1= 7 Len=  274
 Leave Link  701 at Sun May 25 04:27:29 2025, MaxMem=  3758096384 cpu:               0.5 elap:               0.1
 (Enter /apps/easybuild-2022/easybuild/software/Compiler/NVHPC/22.11-CUDA-11.7.0/Gaussian/g16c01-CUDA-11.7.0/g16/l702.exe)
 L702 exits ... SP integral derivatives will be done elsewhere.
 Leave Link  702 at Sun May 25 04:27:29 2025, MaxMem=  3758096384 cpu:               0.0 elap:               0.0
 (Enter /apps/easybuild-2022/easybuild/software/Compiler/NVHPC/22.11-CUDA-11.7.0/Gaussian/g16c01-CUDA-11.7.0/g16/l703.exe)
 Integral derivatives from FoFJK, PRISM(SPDF).
 Compute integral first derivatives, UseDBF=F ICtDFT=           0.
 Calling FoFJK, ICntrl=      2127 FMM=F ISym2X=0 I1Cent= 0 IOpClX= 0 NMat=1 NMatS=1 NMatT=0.
 FoFJK:  IHMeth= 1 ICntrl=    2127 DoSepK=F KAlg= 0 I1Cent=           0 FoldK=F
 IRaf=         0 NMat=       1 IRICut=       1 DoRegI=T DoRafI=F ISym2E= 0 IDoP0=0 IntGTp=1.
 FoFCou: FMM=F IPFlag=           0 FMFlag=      100000 FMFlg1=         800
         NFxFlg=           0 DoJE=F BraDBF=F KetDBF=F FulRan=T
         wScrn=  0.000000 ICntrl=      2127 IOpCl=  0 I1Cent=           0 NGrid=           0
         NMat0=    1 NMatS0=      1 NMatT0=    0 NMatD0=    1 NMtDS0=    0 NMtDT0=    0
 Symmetry not used in FoFCou.
 Leave Link  703 at Sun May 25 04:27:33 2025, MaxMem=  3758096384 cpu:              26.7 elap:               3.4
 (Enter /apps/easybuild-2022/easybuild/software/Compiler/NVHPC/22.11-CUDA-11.7.0/Gaussian/g16c01-CUDA-11.7.0/g16/l716.exe)
 Dipole        = 6.65338675D-01 2.83580812D-01 4.86659015D-01
 -------------------------------------------------------------------
 Center     Atomic                   Forces (Hartrees/Bohr)
 Number     Number              X              Y              Z
 -------------------------------------------------------------------
      1        6           0.010301280   -0.011821944   -0.001231900
      2        8          -0.004679838    0.010371137   -0.008400562
      3        6           0.004100170   -0.008311555    0.002231581
      4        9           0.005123848    0.003957462   -0.003595380
      5        9           0.001293209   -0.000454434    0.000820844
      6        9          -0.002516140    0.003334819    0.002378686
      7        8          -0.018436220   -0.000694313    0.023609261
      8        1           0.004813692    0.003618827   -0.015812531
 -------------------------------------------------------------------
 Cartesian Forces:  Max     0.023609261 RMS     0.008667176
 Leave Link  716 at Sun May 25 04:27:33 2025, MaxMem=  3758096384 cpu:               0.0 elap:               0.0
 (Enter /apps/easybuild-2022/easybuild/software/Compiler/NVHPC/22.11-CUDA-11.7.0/Gaussian/g16c01-CUDA-11.7.0/g16/l103.exe)

 GradGradGradGradGradGradGradGradGradGradGradGradGradGradGradGradGradGrad
 Berny optimization.
 Using GEDIIS/GDIIS optimizer.
 FormGI is forming the generalized inverse of G from B-inverse, IUseBI=4.
 Internal  Forces:  Max     0.028818603 RMS     0.010914821
 Search for a local minimum.
 Step number   2 out of a maximum of   31
 All quantities printed in internal units (Hartrees-Bohrs-Radians)
 RMS Force = .10915D-01 SwitMx=.10000D-02 MixMth= 1
 Mixed Optimization -- RFO/linear search
 Update second derivatives using D2CorX and points    1    2
 DE= -2.95D-02 DEPred=-4.90D-02 R= 6.01D-01
 TightC=F SS=  1.41D+00  RLast= 9.21D-01 DXNew= 5.0454D-01 2.7629D+00
 Trust test= 6.01D-01 RLast= 9.21D-01 DXMaxT set to 5.05D-01
 ITU=  1  0
 Use linear search instead of GDIIS.
     Eigenvalues ---   -0.03912   0.00187   0.02264   0.09865   0.19740
     Eigenvalues ---    0.20084   0.21562   0.25436   0.29240   0.32210
     Eigenvalues ---    0.40315   0.45544   0.46070   0.49516   0.50383
     Eigenvalues ---    0.61484   0.64316   1.91045
 Eigenvalue     1 is  -3.91D-02 should be greater than     0.000000 Eigenvector:
                          D2        D1        A9        A1        A2
   1                   -0.95262   0.23445   0.17069   0.05276   0.04843
                          R2        D5        D4        D3        R1
   1                    0.04252   0.02189   0.01605   0.01524  -0.01301
 RFO step:  Lambda=-5.42320758D-02 EMin=-3.91152531D-02
 Quartic linear search produced a step of  0.08093.
 Iteration  1 RMS(Cart)=  0.09075722 RMS(Int)=  0.17270422
 Iteration  2 RMS(Cart)=  0.06363064 RMS(Int)=  0.12959083
 Iteration  3 RMS(Cart)=  0.06011068 RMS(Int)=  0.08609395
 Iteration  4 RMS(Cart)=  0.05900610 RMS(Int)=  0.04267723
 Iteration  5 RMS(Cart)=  0.05663198 RMS(Int)=  0.00582182
 Iteration  6 RMS(Cart)=  0.00565002 RMS(Int)=  0.00002217
 Iteration  7 RMS(Cart)=  0.00002105 RMS(Int)=  0.00001622
 Iteration  8 RMS(Cart)=  0.00000000 RMS(Int)=  0.00001622
 ITry= 1 IFail=0 DXMaxC= 8.24D-01 DCOld= 1.00D+10 DXMaxT= 5.05D-01 DXLimC= 3.00D+00 Rises=F
 Variable       Old X    -DE/DX   Delta X   Delta X   Delta X     New X
                                 (Linear)    (Quad)   (Total)
    R1        2.52311  -0.00550  -0.00334   0.02458   0.02123   2.54434
    R2        2.49140   0.00040   0.00405  -0.03569  -0.03165   2.45976
    R3        2.62798  -0.00318   0.00189  -0.01260  -0.01071   2.61727
    R4        2.47990   0.00356  -0.00104   0.00543   0.00439   2.48429
    R5        2.49359  -0.00101   0.00001   0.00211   0.00212   2.49571
    R6        2.50753   0.00004   0.00120   0.00077   0.00197   2.50949
    R7        1.82356  -0.00204  -0.00185  -0.00316  -0.00501   1.81856
    A1        1.94586  -0.02882   0.00737  -0.07867  -0.07130   1.87457
    A2        2.23489  -0.02014   0.01795  -0.06418  -0.04623   2.18866
    A3        2.00804  -0.01306   0.00510  -0.01035  -0.00525   2.00279
    A4        1.85156   0.00217  -0.00097  -0.00578  -0.00678   1.84478
    A5        1.90045   0.00995  -0.00362   0.03064   0.02701   1.92746
    A6        1.88689   0.00468  -0.00134   0.00544   0.00407   1.89097
    A7        1.91105  -0.00192   0.00073  -0.01214  -0.01139   1.89966
    A8        1.90295  -0.00143  -0.00005  -0.00812  -0.00820   1.89475
    A9        1.92861  -0.00509  -0.00357  -0.16283  -0.16641   1.76221
    D1       -0.25009   0.00815   0.06450  -0.22144  -0.15694  -0.40703
    D2        2.40339   0.02829   0.02501   0.95612   0.98113  -2.89866
    D3        1.19379  -0.00162   0.01038   0.00086   0.01120   1.20500
    D4       -3.00430  -0.00201   0.01104  -0.00253   0.00850  -2.99580
    D5       -0.95850   0.00246   0.00849   0.00023   0.00876  -0.94974
         Item               Value     Threshold  Converged?
 Maximum Force            0.028819     0.000450     NO 
 RMS     Force            0.010915     0.000300     NO 
 Maximum Displacement     0.823570     0.001800     NO 
 RMS     Displacement     0.284661     0.001200     NO 
 Predicted change in Energy=-4.975116D-02
 Lowest energy point so far.  Saving SCF results.
 GradGradGradGradGradGradGradGradGradGradGradGradGradGradGradGradGradGrad

 Leave Link  103 at Sun May 25 04:27:33 2025, MaxMem=  3758096384 cpu:               0.1 elap:               0.0
 (Enter /apps/easybuild-2022/easybuild/software/Compiler/NVHPC/22.11-CUDA-11.7.0/Gaussian/g16c01-CUDA-11.7.0/g16/l202.exe)
                          Input orientation:                          
 ---------------------------------------------------------------------
 Center     Atomic      Atomic             Coordinates (Angstroms)
 Number     Number       Type             X           Y           Z
 ---------------------------------------------------------------------
      1          6           0        1.373014    0.129185   -0.077742
      2          8           0        0.032115    0.102240    0.040908
      3          6           0       -0.694261    0.681561    1.068034
      4          9           0       -0.691058    1.996186    1.071010
      5          9           0       -1.938016    0.269311    0.902810
      6          9           0       -0.258425    0.248934    2.245479
      7          8           0        1.802996    1.156145    0.596613
      8          1           0        2.706577    1.222841    0.272287
 ---------------------------------------------------------------------
                    Distance matrix (angstroms):
                    1          2          3          4          5
     1  C    0.000000
     2  O    1.346408   0.000000
     3  C    2.427251   1.384999   0.000000
     4  F    3.010933   2.274010   1.314632   0.000000
     5  F    3.456015   2.156897   1.320672   2.136654   0.000000
     6  F    2.841353   2.228467   1.327967   2.149287   2.150396
     7  O    1.301648   2.134372   2.585296   2.674139   3.856864
     8  H    1.759828   2.908957   3.534387   3.574905   4.783202
                    6          7          8
     6  F    0.000000
     7  O    2.791280   0.000000
     8  H    3.692318   0.962338   0.000000
 Symmetry turned off by external request.
 Stoichiometry    C2HF3O2
 Rotational constants (GHZ):           4.9996611           2.2637443           2.1337951
 Leave Link  202 at Sun May 25 04:27:33 2025, MaxMem=  3758096384 cpu:               0.0 elap:               0.0
 (Enter /apps/easybuild-2022/easybuild/software/Compiler/NVHPC/22.11-CUDA-11.7.0/Gaussian/g16c01-CUDA-11.7.0/g16/l301.exe)
 Standard basis: def2TZVPP (5D, 7F)
 Ernie: Thresh=  0.10000D-02 Tol=  0.10000D-05 Strict=F.
   231 basis functions,   374 primitive gaussians,   267 cartesian basis functions
    28 alpha electrons       28 beta electrons
       nuclear repulsion energy       344.3730790303 Hartrees.
 IExCor= 4336 DFT=T Ex+Corr=M062X ExCW=0 ScaHFX=  0.540000
 ScaDFX=  1.000000  1.000000  1.000000  1.000000 ScalE2=  1.000000  1.000000
 IRadAn=      5 IRanWt=     -1 IRanGd=            0 ICorTp=0 IEmpDi=  4
 NAtoms=    8 NActive=    8 NUniq=    8 SFac= 1.00D+00 NAtFMM=   60 NAOKFM=F Big=F
 Integral buffers will be    131072 words long.
 Raffenetti 2 integral format.
 Two-electron integral symmetry is turned off.
 Leave Link  301 at Sun May 25 04:27:33 2025, MaxMem=  3758096384 cpu:               0.0 elap:               0.0
 (Enter /apps/easybuild-2022/easybuild/software/Compiler/NVHPC/22.11-CUDA-11.7.0/Gaussian/g16c01-CUDA-11.7.0/g16/l302.exe)
 NPDir=0 NMtPBC=     1 NCelOv=     1 NCel=       1 NClECP=     1 NCelD=      1
         NCelK=      1 NCelE2=     1 NClLst=     1 CellRange=     0.0.
 One-electron integrals computed using PRISM.
   1 Symmetry operations used in ECPInt.
 ECPInt:  NShTT=    3486 NPrTT=   11183 LenC2=    3397 LenP2D=    8688.
 LDataN:  DoStor=T MaxTD1= 6 Len=  172
 NBasis=   231 RedAO= T EigKep=  1.04D-03  NBF=   231
 NBsUse=   231 1.00D-06 EigRej= -1.00D+00 NBFU=   231
 Precomputing XC quadrature grid using
 IXCGrd= 4 IRadAn=           5 IRanWt=          -1 IRanGd=           0 AccXCQ= 0.00D+00.
 Generated NRdTot=       0 NPtTot=           0 NUsed=           0 NTot=          32
 NSgBfM=   265   265   265   265   265 MxSgAt=     8 MxSgA2=     8.
 Leave Link  302 at Sun May 25 04:27:33 2025, MaxMem=  3758096384 cpu:               0.5 elap:               0.1
 (Enter /apps/easybuild-2022/easybuild/software/Compiler/NVHPC/22.11-CUDA-11.7.0/Gaussian/g16c01-CUDA-11.7.0/g16/l303.exe)
 DipDrv:  MaxL=1.
 Leave Link  303 at Sun May 25 04:27:33 2025, MaxMem=  3758096384 cpu:               0.1 elap:               0.0
 (Enter /apps/easybuild-2022/easybuild/software/Compiler/NVHPC/22.11-CUDA-11.7.0/Gaussian/g16c01-CUDA-11.7.0/g16/l401.exe)
 Initial guess from the checkpoint file:  "/tmp/Gau-6690.chk"
 B after Tr=     0.036121   -0.003053    0.052924
         Rot=    0.998854   -0.017238    0.035516    0.027051 Ang=  -5.49 deg.
 Guess basis will be translated and rotated to current coordinates.
 JPrj=2 DoOrth=T DoCkMO=T.
 Generating alternative initial guess.
 ExpMin= 9.52D-02 ExpMax= 3.55D+04 ExpMxC= 1.21D+03 IAcc=3 IRadAn=         5 AccDes= 0.00D+00
 Harris functional with IExCor= 1009 and IRadAn=       5 diagonalized for initial guess.
 HarFok:  IExCor= 1009 AccDes= 0.00D+00 IRadAn=         5 IDoV= 1 UseB2=F ITyADJ=14
 ICtDFT=  3500011 ScaDFX=  1.000000  1.000000  1.000000  1.000000
 FoFCou: FMM=F IPFlag=           0 FMFlag=      100000 FMFlg1=           0
         NFxFlg=           0 DoJE=T BraDBF=F KetDBF=T FulRan=T
         wScrn=  0.000000 ICntrl=       500 IOpCl=  0 I1Cent=   200000004 NGrid=           0
         NMat0=    1 NMatS0=      1 NMatT0=    0 NMatD0=    1 NMtDS0=    0 NMtDT0=    0
 Symmetry not used in FoFCou.
 Harris En= -526.452934444258    
 Leave Link  401 at Sun May 25 04:27:33 2025, MaxMem=  3758096384 cpu:               2.2 elap:               0.3
 (Enter /apps/easybuild-2022/easybuild/software/Compiler/NVHPC/22.11-CUDA-11.7.0/Gaussian/g16c01-CUDA-11.7.0/g16/l502.exe)
 Keep R1 ints in memory in canonical form, NReq=368651279.
 FoFCou: FMM=F IPFlag=           0 FMFlag=           0 FMFlg1=           0
         NFxFlg=           0 DoJE=F BraDBF=F KetDBF=F FulRan=T
         wScrn=  0.000000 ICntrl=       600 IOpCl=  0 I1Cent=           0 NGrid=           0
         NMat0=    1 NMatS0=  26796 NMatT0=    0 NMatD0=    1 NMtDS0=    0 NMtDT0=    0
 Symmetry not used in FoFCou.
 Two-electron integral symmetry not used.
 Closed shell SCF:
 Using DIIS extrapolation, IDIIS=  1040.
 NGot=  3758096384 LenX=  3398923531 LenY=  3398851801
 Requested convergence on RMS density matrix=1.00D-08 within  32 cycles.
 Requested convergence on MAX density matrix=1.00D-06.
 Requested convergence on             energy=1.00D-06.
 No special actions if energy rises.
 Integral accuracy reduced to 1.0D-05 until final iterations.

 Cycle   1  Pass 0  IDiag  1:
 E= -526.662883571988    
 DIIS: error= 1.45D-02 at cycle   1 NSaved=   1.
 NSaved= 1 IEnMin= 1 EnMin= -526.662883571988     IErMin= 1 ErrMin= 1.45D-02
 ErrMax= 1.45D-02  0.00D+00 EMaxC= 1.00D-01 BMatC= 9.76D-02 BMatP= 9.76D-02
 IDIUse=3 WtCom= 8.55D-01 WtEn= 1.45D-01
 Coeff-Com:  0.100D+01
 Coeff-En:   0.100D+01
 Coeff:      0.100D+01
 Recover alternate guess density for next cycle.
 RMSDP=1.94D-03 MaxDP=8.27D-02              OVMax= 0.00D+00

 Cycle   2  Pass 0  IDiag  1:
 E= -526.664854314737     Delta-E=       -0.001970742748 Rises=F Damp=F
 DIIS: error= 2.13D-02 at cycle   2 NSaved=   2.
 NSaved= 2 IEnMin= 2 EnMin= -526.664854314737     IErMin= 1 ErrMin= 1.45D-02
 ErrMax= 2.13D-02  0.00D+00 EMaxC= 1.00D-01 BMatC= 2.33D-01 BMatP= 9.76D-02
 IDIUse=2 WtCom= 0.00D+00 WtEn= 1.00D+00
 Coeff-En:   0.442D+00 0.558D+00
 Coeff:      0.442D+00 0.558D+00
 Gap=     0.331 Goal=   None    Shift=    0.000
 RMSDP=1.53D-03 MaxDP=4.71D-02 DE=-1.97D-03 OVMax= 7.00D-02

 Cycle   3  Pass 0  IDiag  1:
 E= -526.736491647425     Delta-E=       -0.071637332688 Rises=F Damp=F
 DIIS: error= 1.13D-02 at cycle   3 NSaved=   3.
 NSaved= 3 IEnMin= 3 EnMin= -526.736491647425     IErMin= 3 ErrMin= 1.13D-02
 ErrMax= 1.13D-02  0.00D+00 EMaxC= 1.00D-01 BMatC= 6.51D-02 BMatP= 9.76D-02
 IDIUse=3 WtCom= 8.87D-01 WtEn= 1.13D-01
 Coeff-Com:  0.956D-01 0.294D+00 0.610D+00
 Coeff-En:   0.000D+00 0.216D+00 0.784D+00
 Coeff:      0.848D-01 0.286D+00 0.630D+00
 Gap=     0.328 Goal=   None    Shift=    0.000
 RMSDP=5.32D-04 MaxDP=2.19D-02 DE=-7.16D-02 OVMax= 3.35D-02

 Cycle   4  Pass 0  IDiag  1:
 E= -526.772913682651     Delta-E=       -0.036422035227 Rises=F Damp=F
 DIIS: error= 2.36D-03 at cycle   4 NSaved=   4.
 NSaved= 4 IEnMin= 4 EnMin= -526.772913682651     IErMin= 4 ErrMin= 2.36D-03
 ErrMax= 2.36D-03  0.00D+00 EMaxC= 1.00D-01 BMatC= 3.42D-03 BMatP= 6.51D-02
 IDIUse=3 WtCom= 9.76D-01 WtEn= 2.36D-02
 Coeff-Com: -0.181D-01 0.112D-01 0.192D+00 0.815D+00
 Coeff-En:   0.000D+00 0.000D+00 0.000D+00 0.100D+01
 Coeff:     -0.177D-01 0.110D-01 0.187D+00 0.819D+00
 Gap=     0.331 Goal=   None    Shift=    0.000
 RMSDP=1.47D-04 MaxDP=6.77D-03 DE=-3.64D-02 OVMax= 1.23D-02

 Cycle   5  Pass 0  IDiag  1:
 E= -526.774856292336     Delta-E=       -0.001942609685 Rises=F Damp=F
 DIIS: error= 8.58D-04 at cycle   5 NSaved=   5.
 NSaved= 5 IEnMin= 5 EnMin= -526.774856292336     IErMin= 5 ErrMin= 8.58D-04
 ErrMax= 8.58D-04  0.00D+00 EMaxC= 1.00D-01 BMatC= 3.50D-04 BMatP= 3.42D-03
 IDIUse=3 WtCom= 9.91D-01 WtEn= 8.58D-03
 Coeff-Com: -0.938D-02-0.376D-02 0.761D-01 0.423D+00 0.514D+00
 Coeff-En:   0.000D+00 0.000D+00 0.000D+00 0.000D+00 0.100D+01
 Coeff:     -0.930D-02-0.373D-02 0.754D-01 0.419D+00 0.519D+00
 Gap=     0.331 Goal=   None    Shift=    0.000
 RMSDP=4.64D-05 MaxDP=2.16D-03 DE=-1.94D-03 OVMax= 3.50D-03

 Cycle   6  Pass 0  IDiag  1:
 E= -526.775104861489     Delta-E=       -0.000248569153 Rises=F Damp=F
 DIIS: error= 1.45D-04 at cycle   6 NSaved=   6.
 NSaved= 6 IEnMin= 6 EnMin= -526.775104861489     IErMin= 6 ErrMin= 1.45D-04
 ErrMax= 1.45D-04  0.00D+00 EMaxC= 1.00D-01 BMatC= 1.18D-05 BMatP= 3.50D-04
 IDIUse=3 WtCom= 9.99D-01 WtEn= 1.45D-03
 Coeff-Com: -0.318D-02-0.171D-02 0.701D-02 0.625D-01 0.168D+00 0.768D+00
 Coeff-En:   0.000D+00 0.000D+00 0.000D+00 0.000D+00 0.000D+00 0.100D+01
[...]
     22 -0.104447D-02 -0.533311D-03  0.114277D-02  0.754544D-04 -0.515370D-03
     23 -0.398398D-03 -0.146529D-04  0.417836D-03 -0.165838D-03  0.209051D-03
     24  0.131753D-03 -0.607891D-04 -0.762282D-04  0.339821D-03  0.744526D-05
               16            17            18            19            20 
     16  0.142129D+00
     17 -0.329772D-01  0.107196D+00
     18  0.124926D+00 -0.840229D-01  0.369707D+00
     19 -0.438661D-02 -0.178745D-02  0.767801D-02  0.693338D+00
     20 -0.153773D-02  0.165009D-02  0.103941D-01  0.166535D+00  0.217983D+00
     21  0.623647D-02  0.195485D-02  0.582585D-02 -0.422670D-01  0.182690D+00
     22  0.398207D-03  0.242988D-04 -0.135055D-02 -0.489838D+00 -0.639294D-01
     23  0.273791D-03 -0.814874D-04 -0.313124D-03 -0.340678D-01 -0.305056D-01
     24  0.797587D-03  0.456001D-03 -0.294169D-03  0.137486D+00  0.712455D-02
               21            22            23            24 
     21  0.276387D+00
     22  0.991958D-01  0.507973D+00
     23 -0.433335D-02  0.697564D-01  0.406674D-01
     24 -0.608155D-01 -0.984561D-01  0.299755D-02  0.593537D-01
 FormGI is forming the generalized inverse of G from B-inverse, IUseBI=4.
 Force constants in internal coordinates: 
                1             2             3             4             5 
      1  0.398297D+00
      2  0.834885D-01  0.485533D+00
      3  0.611632D-01 -0.170024D-01  0.355694D+00
      4 -0.112886D-01  0.116197D-01  0.459739D-01  0.448321D+00
      5 -0.917031D-02  0.212197D-02  0.502497D-01  0.573375D-01  0.464681D+00
      6 -0.112300D-01  0.115813D-01  0.459328D-01  0.541696D-01  0.572991D-01
      7 -0.944573D-02  0.872171D-02  0.274890D-03 -0.104044D-02 -0.107946D-02
      8  0.111016D+00  0.913870D-01  0.149729D-02  0.158227D-02 -0.268594D-02
      9  0.768258D-01 -0.831394D-02  0.723486D-01  0.101233D-03  0.107636D-01
     10  0.100085D-02  0.544330D-02  0.341078D-01  0.224004D-01 -0.363259D-01
     11 -0.168699D-01  0.782897D-02  0.518282D-01 -0.367933D-01  0.285987D-01
     12  0.781655D-03  0.533517D-02  0.341590D-01 -0.400130D-01 -0.362909D-01
     13  0.771265D-04 -0.465394D-02 -0.422062D-01  0.361173D-01  0.314325D-01
     14  0.139982D-01 -0.951136D-02 -0.384876D-01  0.323617D-01 -0.137865D-01
     15  0.210456D-03 -0.461220D-02 -0.421637D-01 -0.145283D-01  0.315935D-01
     16  0.757747D-02  0.523102D-01 -0.477231D-02 -0.430372D-03 -0.617407D-03
     17  0.216815D-03 -0.245236D-04  0.143919D-03  0.237637D-02 -0.253137D-04
     18  0.482217D-04  0.767452D-05 -0.396172D-04 -0.248792D-03  0.147106D-04
     19  0.997943D-02 -0.224020D-02  0.953790D-04 -0.601448D-03 -0.357018D-01
     20  0.173485D-03  0.308251D-05  0.396562D-04  0.329215D-01 -0.998783D-04
     21 -0.959955D-02  0.224015D-02  0.842841D-04 -0.298766D-01  0.357264D-01
                6             7             8             9            10 
      6  0.448619D+00
      7 -0.102978D-02  0.537644D+00
      8  0.161328D-02  0.101161D-01  0.587557D+00
      9  0.102592D-03 -0.220642D-02  0.106279D+00  0.340154D+00
     10 -0.399365D-01 -0.104771D-02  0.239231D-01  0.220136D-01  0.243214D+00
     11 -0.367825D-01 -0.641482D-03 -0.218203D-01 -0.776539D-02 -0.244342D-01
     12  0.223670D-01 -0.104322D-02  0.232939D-01  0.213480D-01 -0.255870D-01
     13 -0.144591D-01  0.971098D-03 -0.175185D-01 -0.222391D-01 -0.804113D-01
     14  0.323389D-01  0.872394D-03  0.609491D-02  0.524142D-02 -0.837830D-01
     15  0.360029D-01  0.975866D-03 -0.170817D-01 -0.216953D-01 -0.365733D-01
     16 -0.446107D-03  0.181159D-01  0.429668D-01 -0.448422D-02 -0.228389D-02
     17 -0.223478D-02  0.250503D-04  0.521382D-03  0.700327D-03  0.229142D-01
     18  0.236946D-03 -0.177926D-04  0.219077D-03  0.507856D-04 -0.204273D-03
     19  0.299052D-01 -0.190790D-03  0.216609D-01  0.197782D-01  0.190443D-01
     20 -0.327322D-01  0.533236D-05  0.224914D-03  0.260916D-03  0.420447D-01
     21  0.637966D-03  0.209437D-03 -0.210389D-01 -0.189705D-01 -0.317900D-01
               11            12            13            14            15 
     11  0.262556D+00
     12 -0.243222D-01  0.242986D+00
     13 -0.874782D-01 -0.365825D-01  0.184308D+00
     14 -0.384037D-01 -0.839123D-01  0.145704D-01  0.175661D+00
     15 -0.875496D-01 -0.801447D-01  0.141767D-01  0.146048D-01  0.184024D+00
     16  0.187650D-02 -0.230401D-02  0.163183D-02 -0.215919D-03  0.157458D-02
     17 -0.201618D-03 -0.226037D-01 -0.593929D-02  0.444945D-04  0.576691D-02
     18  0.169996D-04  0.174608D-03  0.108844D-02  0.348958D-05 -0.107776D-02
     19 -0.430957D-01  0.318034D-01 -0.667886D-01  0.529376D-01 -0.313717D-03
     20 -0.127366D-03 -0.419496D-01  0.577768D-01  0.546689D-04 -0.577943D-01
     21  0.428987D-01 -0.186519D-01  0.294393D-03 -0.528909D-01  0.665144D-01
               16            17            18            19            20 
     16  0.174521D+00
     17 -0.174218D-03  0.505499D-01
     18 -0.333649D-03 -0.839615D-03  0.528965D-01
     19 -0.184308D-02  0.987331D-02 -0.107198D-02  0.740045D-01
     20  0.259631D-04  0.153285D-01  0.145464D-03 -0.231361D-01  0.703655D-01
     21  0.181483D-02  0.958315D-02 -0.105467D-02 -0.324940D-01 -0.232841D-01
               21 
     21  0.736471D-01
 Leave Link  716 at Sun May 25 04:30:53 2025, MaxMem=  3758096384 cpu:               0.0 elap:               0.0
 (Enter /apps/easybuild-2022/easybuild/software/Compiler/NVHPC/22.11-CUDA-11.7.0/Gaussian/g16c01-CUDA-11.7.0/g16/l103.exe)

 GradGradGradGradGradGradGradGradGradGradGradGradGradGradGradGradGradGrad
 Berny optimization.
 Red2BG is reusing G-inverse.
 Internal  Forces:  Max     0.000078860 RMS     0.000030706
 Search for a local minimum.
 Step number   1 out of a maximum of    2
 All quantities printed in internal units (Hartrees-Bohrs-Radians)
 Second derivative matrix not updated -- analytic derivatives used.
 ITU=  0
     Eigenvalues ---    0.00985   0.05190   0.05422   0.16122   0.18950
     Eigenvalues ---    0.20275   0.21653   0.25985   0.28280   0.28423
     Eigenvalues ---    0.37585   0.43590   0.44658   0.46625   0.51287
     Eigenvalues ---    0.54216   0.60586   0.75691
 Angle between quadratic step and forces=  54.00 degrees.
 Linear search not attempted -- first point.
 Iteration  1 RMS(Cart)=  0.00027780 RMS(Int)=  0.00000004
 Iteration  2 RMS(Cart)=  0.00000007 RMS(Int)=  0.00000000
 ITry= 1 IFail=0 DXMaxC= 5.49D-04 DCOld= 1.00D+10 DXMaxT= 3.00D-01 DXLimC= 3.00D+00 Rises=F
 Variable       Old X    -DE/DX   Delta X   Delta X   Delta X     New X
                                 (Linear)    (Quad)   (Total)
    R1        2.53253   0.00004   0.00000   0.00001   0.00001   2.53255
    R2        2.47264   0.00008   0.00000   0.00016   0.00016   2.47280
    R3        2.61934   0.00001   0.00000  -0.00003  -0.00003   2.61932
    R4        2.49908   0.00002   0.00000   0.00003   0.00003   2.49910
    R5        2.49085  -0.00001   0.00000  -0.00002  -0.00002   2.49083
    R6        2.49906   0.00000   0.00000   0.00002   0.00002   2.49908
    R7        1.81949  -0.00003   0.00000  -0.00005  -0.00005   1.81944
    A1        1.90037   0.00007   0.00000   0.00006   0.00006   1.90043
    A2        2.17677   0.00007   0.00000   0.00020   0.00020   2.17696
    A3        1.95270   0.00001   0.00000   0.00004   0.00004   1.95274
    A4        1.85987  -0.00000   0.00000   0.00001   0.00001   1.85987
    A5        1.95295   0.00001   0.00000  -0.00004  -0.00004   1.95292
    A6        1.89647  -0.00000   0.00000   0.00001   0.00001   1.89648
    A7        1.90349   0.00000   0.00000  -0.00000  -0.00000   1.90349
    A8        1.89644  -0.00001   0.00000  -0.00002  -0.00002   1.89643
    A9        1.87778  -0.00000   0.00000  -0.00007  -0.00007   1.87770
    D1        0.00048  -0.00002   0.00000  -0.00041  -0.00041   0.00007
    D2        3.14145   0.00001   0.00000   0.00017   0.00017  -3.14156
    D3        1.07141  -0.00000   0.00000  -0.00002  -0.00002   1.07139
    D4       -3.14129   0.00000   0.00000   0.00002   0.00002  -3.14127
    D5       -1.07069  -0.00001   0.00000  -0.00002  -0.00002  -1.07071
         Item               Value     Threshold  Converged?
 Maximum Force            0.000079     0.000450     YES
 RMS     Force            0.000031     0.000300     YES
 Maximum Displacement     0.000549     0.001800     YES
 RMS     Displacement     0.000278     0.001200     YES
 Predicted change in Energy=-2.203498D-08
 Optimization completed.
    -- Stationary point found.
                           ----------------------------
                           !   Optimized Parameters   !
                           ! (Angstroms and Degrees)  !
 --------------------------                            --------------------------
 ! Name  Definition              Value          Derivative Info.                !
 --------------------------------------------------------------------------------
 ! R1    R(1,2)                  1.3402         -DE/DX =    0.0                 !
 ! R2    R(1,7)                  1.3085         -DE/DX =    0.0001              !
 ! R3    R(2,3)                  1.3861         -DE/DX =    0.0                 !
 ! R4    R(3,4)                  1.3225         -DE/DX =    0.0                 !
 ! R5    R(3,5)                  1.3181         -DE/DX =    0.0                 !
 ! R6    R(3,6)                  1.3224         -DE/DX =    0.0                 !
 ! R7    R(7,8)                  0.9628         -DE/DX =    0.0                 !
 ! A1    A(2,1,7)              108.8831         -DE/DX =    0.0001              !
 ! A2    A(1,2,3)              124.7195         -DE/DX =    0.0001              !
 ! A3    A(2,3,4)              111.8817         -DE/DX =    0.0                 !
 ! A4    A(2,3,5)              106.5626         -DE/DX =    0.0                 !
 ! A5    A(2,3,6)              111.8961         -DE/DX =    0.0                 !
 ! A6    A(4,3,5)              108.6597         -DE/DX =    0.0                 !
 ! A7    A(4,3,6)              109.0618         -DE/DX =    0.0                 !
 ! A8    A(5,3,6)              108.6583         -DE/DX =    0.0                 !
 ! A9    A(1,7,8)              107.5887         -DE/DX =    0.0                 !
 ! D1    D(7,1,2,3)              0.0275         -DE/DX =    0.0                 !
 ! D2    D(2,1,7,8)           -180.0081         -DE/DX =    0.0                 !
 ! D3    D(1,2,3,4)             61.3872         -DE/DX =    0.0                 !
 ! D4    D(1,2,3,5)           -179.9825         -DE/DX =    0.0                 !
 ! D5    D(1,2,3,6)            -61.3459         -DE/DX =    0.0                 !
 --------------------------------------------------------------------------------
 GradGradGradGradGradGradGradGradGradGradGradGradGradGradGradGradGradGrad

 Leave Link  103 at Sun May 25 04:30:53 2025, MaxMem=  3758096384 cpu:               0.0 elap:               0.0
 (Enter /apps/easybuild-2022/easybuild/software/Compiler/NVHPC/22.11-CUDA-11.7.0/Gaussian/g16c01-CUDA-11.7.0/g16/l9999.exe)

 ----------------------------------------------------------------------

 Electric dipole moment (input orientation):
 (Debye = 10**-18 statcoulomb cm , SI units = C m)
                  (au)            (Debye)         (10**-30 SI)
   Tot        0.910389D+00      0.231398D+01      0.771860D+01
   x          0.773093D+00      0.196501D+01      0.655455D+01
   y          0.417239D+00      0.106052D+01      0.353750D+01
   z          0.238844D+00      0.607082D+00      0.202501D+01

 Dipole polarizability, Alpha (input orientation).
 (esu units = cm**3 , SI units = C**2 m**2 J**-1)
 Alpha(0;0):
               (au)            (10**-24 esu)      (10**-40 SI)
   iso        0.340693D+02      0.504856D+01      0.561728D+01
   aniso      0.118307D+02      0.175314D+01      0.195063D+01
   xx         0.409211D+02      0.606389D+01      0.674698D+01
   yx         0.190969D+01      0.282988D+00      0.314866D+00
   yy         0.301114D+02      0.446205D+01      0.496470D+01
   zx        -0.232951D+01     -0.345198D+00     -0.384085D+00
   zy         0.144521D+01      0.214158D+00      0.238283D+00
   zz         0.311755D+02      0.461973D+01      0.514015D+01

 ----------------------------------------------------------------------

 Dipole orientation:
     6          1.29436479         -0.16593883          2.18077062
     8         -0.07771712          0.07500699          0.06581175
     6         -2.65657073          0.52962249          0.00421718
     9         -3.24573182          2.70119365          1.09166600
     9         -3.30066193          0.64135672         -2.39932162
     9         -3.95307094         -1.30750574          1.09479592
     8         -0.19630815          0.09659864          4.13599452
     1          0.82297127         -0.08265665          5.63248421

 Electric dipole moment (dipole orientation):
 (Debye = 10**-18 statcoulomb cm , SI units = C m)
                  (au)            (Debye)         (10**-30 SI)
   Tot        0.910389D+00      0.231398D+01      0.771860D+01
   x          0.000000D+00      0.000000D+00      0.000000D+00
   y          0.000000D+00      0.000000D+00      0.000000D+00
   z          0.910389D+00      0.231398D+01      0.771860D+01

 Dipole polarizability, Alpha (dipole orientation).
 (esu units = cm**3 , SI units = C**2 m**2 J**-1)
 Alpha(0;0):
               (au)            (10**-24 esu)      (10**-40 SI)
   iso        0.340693D+02      0.504856D+01      0.561728D+01
   aniso      0.118307D+02      0.175314D+01      0.195063D+01
   xx         0.348140D+02      0.515890D+01      0.574005D+01
   yx        -0.112168D+01     -0.166216D+00     -0.184940D+00
   yy         0.286182D+02      0.424078D+01      0.471850D+01
   zx         0.431237D+01      0.639028D+00      0.711014D+00
   zy        -0.768473D+00     -0.113876D+00     -0.126704D+00
   zz         0.387758D+02      0.574598D+01      0.639327D+01

 ----------------------------------------------------------------------
 Unable to Open any file for archive entry.
 1\1\GINC-SPARTAN-BM174\Freq\RM062X\def2TZVPP\C2H1F3O2\AKHALILOV\25-May
 -2025\0\\#P Geom=AllCheck Guess=TCheck SCRF=Check GenChk RM062X/def2TZ
 VPP Freq\\Gaussian input prepared by ASE\\0,1\C,1.3007193769,0.2445215
 683,-0.2386459705\O,-0.0002960509,0.0617280483,0.0258694574\C,-0.68724
 3753,0.6680683255,1.0659259078\F,-0.6865342649,1.9858603137,0.95498689
 49\F,-1.9316892073,0.2395173463,0.9945759865\F,-0.1915980897,0.3336802
 974,2.2454963022\O,1.7983004022,1.0777285926,0.6389955163\H,2.73128348
 19,1.195299293,0.4321947468\\Version=ES64L-G16RevC.01\HF=-526.7811371\
 RMSD=3.361e-09\RMSF=2.786e-05\ZeroPoint=0.0390398\Thermal=0.0450069\ET
 ot=-526.7361302\HTot=-526.735186\GTot=-526.7722741\Dipole=0.7730929,0.
 4172395,0.2388444\DipoleDeriv=1.4516271,0.3670422,-0.1611608,0.587087,
 0.3063935,0.4195512,0.1209057,0.5040178,0.4039241,-1.6370967,-0.133052
 1,0.3442599,0.1287526,-0.375687,-0.1547037,0.6805694,-0.0541893,-0.624
 2001,2.1662895,0.0145277,-0.0573163,-0.2309824,1.8661703,-0.0401059,-0
 .373613,-0.1353076,1.9376061,-0.3603031,0.033526,0.0396236,0.1465643,-
 0.8750411,0.0015624,0.0835536,0.0385777,-0.3369391,-0.9779773,-0.19294
 06,0.0101475,-0.1623642,-0.3606169,-0.0065524,0.0499001,0.0053969,-0.3
 191614,-0.3993287,0.0663527,-0.1486361,0.0844901,-0.3344056,0.1228343,
 -0.0235532,0.1368107,-0.8376921,-0.6728889,-0.2212075,-0.0661254,-0.61
 99202,-0.5636181,-0.3487818,-0.5773954,-0.5015723,-0.528678,0.4296781,
 0.0657515,0.0392075,0.0663728,0.3368048,0.0061959,0.0396328,0.0062662,
 0.3051406\Polar=40.9211325,1.9096945,30.1114043,-2.3295125,1.4452092,3
 1.1754994\PG=Unknown\NImag=0\\0.44282422,0.08400375,0.22659029,-0.0501
 6050,0.21893323,0.33073764,-0.25955292,-0.02576451,0.05293937,0.495161
 05,-0.01619182,-0.06515406,-0.03273237,0.05026383,0.20490141,0.0651466
 2,-0.02909373,-0.09706382,-0.08541104,0.11079018,0.27824549,-0.0496679
 5,0.00939466,0.03672512,-0.10633156,0.00687521,0.01804803,0.62569091,0
 .04263619,0.03098431,0.00454791,-0.01275593,-0.11114393,-0.03213483,0.
 02136553,0.59636915,0.07922266,0.01721960,0.00636240,-0.00692885,-0.03
 966476,-0.13047623,0.02090926,-0.02276552,0.57127375,0.00168864,-0.001
 99126,-0.00062208,0.00740093,0.02853338,0.00743129,-0.08314380,0.00443
 975,0.00286104,0.08936194,-0.01670215,-0.00807220,-0.00573525,0.029040
 91,-0.05006240,-0.02501171,0.00441847,-0.29730002,0.01541433,0.0049974
 0,0.44525228,-0.00809044,-0.00256145,-0.00298033,0.01586881,-0.0373555
 9,0.00063558,0.00087376,0.01273183,-0.08214057,0.00101115,-0.03355927,
 0.08435090,0.01034118,0.00706707,0.00522107,-0.07793895,-0.00515348,0.
 02828187,-0.28637035,-0.06854322,-0.00973324,-0.01657974,-0.04242428,0
 .00161555,0.42305892,-0.00170441,-0.00119859,-0.00131719,0.01457980,0.
 01337370,-0.00514849,-0.06916848,-0.10430577,-0.00182800,-0.06145368,-
 0.05329131,0.00121666,0.11652722,0.12719945,-0.00601959,-0.00467083,-0
 .00334145,0.05354018,0.00242065,-0.00444626,-0.01052015,-0.00207688,-0
 .08084491,0.00187041,0.00155426,0.01523029,0.02016565,0.00777527,0.088
 40283,-0.00280600,-0.00166351,-0.00351379,0.01813496,-0.00092943,0.012
 65416,-0.11039220,0.02092790,-0.06731454,0.00953653,0.01538230,-0.0135
 1241,-0.05261343,0.00052389,-0.06027324,0.14212854,-0.00351807,-0.0028
 6635,-0.00098433,0.00326621,0.01399161,-0.01535285,0.01836521,-0.09292
 645,0.04687272,0.02178226,-0.04322048,0.05818660,-0.00515525,0.0162570
 0,-0.00711004,-0.03297721,0.10719606,-0.01718510,-0.01045593,-0.003654
 83,0.01016326,-0.00119501,-0.07420676,-0.06862651,0.04853919,-0.259567
 81,-0.01267616,0.03871526,-0.01956385,-0.04292872,-0.00166156,-0.01824
 509,0.12492576,-0.08402294,0.36970668,-0.11592247,-0.06976418,-0.04428
 254,-0.08514017,-0.05858411,-0.04152203,0.01175251,-0.00928354,-0.0216
 1148,-0.00876320,0.00633182,0.00276688,-0.00104040,0.00062020,0.001752
 11,-0.00438661,-0.00178745,0.00767801,0.69333793,-0.05694805,-0.167478
 54,-0.19494509,-0.05379773,-0.00921335,0.00559166,0.00980898,-0.021659
 10,-0.01411001,0.00260480,0.00709252,0.00135587,-0.00273590,0.00213135
 ,0.00189852,-0.00153773,0.00165009,0.01039412,0.16653506,0.21798262,-0
 .02778321,-0.18998338,-0.23141736,-0.03549926,0.00739026,0.02563180,0.
 00288624,-0.00683289,-0.02337797,-0.00022309,0.00849063,0.00452878,-0.
 00254595,0.00062350,0.00323715,0.00623647,0.00195485,0.00582585,-0.042
 26696,0.18269039,0.27638725,-0.02690469,-0.00128202,0.00369336,0.00826
 667,-0.00481358,-0.00462891,-0.00153756,0.00121332,0.00259514,0.000498
 73,-0.00104447,-0.00053331,0.00114277,0.00007545,-0.00051537,0.0003982
 1,0.00002430,-0.00135055,-0.48983758,-0.06392944,0.09919576,0.50797345
 ,-0.03157544,-0.01280487,0.01223310,-0.00483258,0.00330702,-0.00964022
 ,-0.00105958,-0.00001819,-0.00113835,0.00108735,-0.00039840,-0.0000146
 5,0.00041784,-0.00016584,0.00020905,0.00027379,-0.00008149,-0.00031312
 ,-0.03406781,-0.03050560,-0.00433335,0.06975643,0.04066737,-0.03513045
 ,0.00061249,0.00135777,-0.00467247,-0.00965336,0.00168021,-0.00029576,
 -0.00200880,-0.00122864,0.00034744,0.00013175,-0.00006079,-0.00007623,
 0.00033982,0.00000745,0.00079759,0.00045600,-0.00029417,0.13748600,0.0
 0712455,-0.06081549,-0.09845612,0.00299755,0.05935368\\0.00001268,0.00
 006127,0.00003798,0.00001941,-0.00000690,-0.00000850,0.00001742,0.0000
 1609,0.00001193,0.00000120,-0.00001827,0.00000633,-0.00000707,-0.00000
 524,-0.00000490,0.00000991,-0.00000105,-0.00000741,-0.00008183,-0.0000
 5212,-0.00003441,0.00002828,0.00000621,-0.00000101\\\@
 The archive entry for this job was punched.


 ORIGINALITY CONSISTS NOT IN SAYING WHAT NO ONE HAS EVER SAID BEFORE, 
 BUT IN SAYING WHAT YOU THINK YOUR SELF.

                                    -- JAMES F. STEPHEN
 Job cpu time:       0 days  0 hours  9 minutes 45.8 seconds.
 Elapsed time:       0 days  0 hours  1 minutes 14.9 seconds.
 File lengths (MBytes):  RWF=     48 Int=      0 D2E=      0 Chk=      5 Scr=      1
 Normal termination of Gaussian 16 at Sun May 25 04:30:53 2025.
done
