 Entering Gaussian System, Link 0=g16
 Initial command:
 /apps/easybuild-2022/easybuild/software/Compiler/NVHPC/22.11-CUDA-11.7.0/Gaussian/g16c01-CUDA-11.7.0/g16/l1.exe "/tmp/Gau-124499.inp" -scrdir="/tmp/"
 Entering Link 1 = /apps/easybuild-2022/easybuild/software/Compiler/NVHPC/22.11-CUDA-11.7.0/Gaussian/g16c01-CUDA-11.7.0/g16/l1.exe PID=    124500.
  
 Copyright (c) 1988-2019, Gaussian, Inc.  All Rights Reserved.
  
 This is part of the Gaussian(R) 16 program.  It is based on
 the Gaussian(R) 09 system (copyright 2009, Gaussian, Inc.),
 the Gaussian(R) 03 system (copyright 2003, Gaussian, Inc.),
 the Gaussian(R) 98 system (copyright 1998, Gaussian, Inc.),
 the Gaussian(R) 94 system (copyright 1995, Gaussian, Inc.),
 the Gaussian 92(TM) system (copyright 1992, Gaussian, Inc.),
 the Gaussian 90(TM) system (copyright 1990, Gaussian, Inc.),
 the Gaussian 88(TM) system (copyright 1988, Gaussian, Inc.),
 the Gaussian 86(TM) system (copyright 1986, Carnegie Mellon
 University), and the Gaussian 82(TM) system (copyright 1983,
 Carnegie Mellon University). Gaussian is a federally registered
 trademark of Gaussian, Inc.
  
 This software contains proprietary and confidential information,
 including trade secrets, belonging to Gaussian, Inc.
  
 This software is provided under written license and may be
 used, copied, transmitted, or stored only in accord with that
 written license.
  
 The following legend is applicable only to US Government
 contracts under FAR:
  
                    RESTRICTED RIGHTS LEGEND
  
 Use, reproduction and disclosure by the US Government is
 subject to restrictions as set forth in subparagraphs (a)
 and (c) of the Commercial Computer Software - Restricted
 Rights clause in FAR 52.227-19.
  
 Gaussian, Inc.
 340 Quinnipiac St., Bldg. 40, Wallingford CT 06492
  
  
 ---------------------------------------------------------------
 Warning -- This program may not be used in any manner that
 competes with the business of Gaussian, Inc. or will provide
 assistance to any competitor of Gaussian, Inc.  The licensee
 of this program is prohibited from giving any competitor of
 Gaussian, Inc. access to this program.  By using this program,
 the user acknowledges that Gaussian, Inc. is engaged in the
 business of creating and licensing software in the field of
 computational chemistry and represents and warrants to the
 licensee that it is not a competitor of Gaussian, Inc. and that
 it will not use this program in any manner prohibited above.
 ---------------------------------------------------------------
  

 Cite this work as:
 Gaussian 16, Revision C.01,
 M. J. Frisch, G. W. Trucks, H. B. Schlegel, G. E. Scuseria, 
 M. A. Robb, J. R. Cheeseman, G. Scalmani, V. Barone, 
 G. A. Petersson, H. Nakatsuji, X. Li, M. Caricato, A. V. Marenich, 
 J. Bloino, B. G. Janesko, R. Gomperts, B. Mennucci, H. P. Hratchian, 
 J. V. Ortiz, A. F. Izmaylov, J. L. Sonnenberg, D. Williams-Young, 
 F. Ding, F. Lipparini, F. Egidi, J. Goings, B. Peng, A. Petrone, 
 T. Henderson, D. Ranasinghe, V. G. Zakrzewski, J. Gao, N. Rega, 
 G. Zheng, W. Liang, M. Hada, M. Ehara, K. Toyota, R. Fukuda, 
 J. Hasegawa, M. Ishida, T. Nakajima, Y. Honda, O. Kitao, H. Nakai, 
 T. Vreven, K. Throssell, J. A. Montgomery, Jr., J. E. Peralta, 
 F. Ogliaro, M. J. Bearpark, J. J. Heyd, E. N. Brothers, K. N. Kudin, 
 V. N. Staroverov, T. A. Keith, R. Kobayashi, J. Normand, 
 K. Raghavachari, A. P. Rendell, J. C. Burant, S. S. Iyengar, 
 J. Tomasi, M. Cossi, J. M. Millam, M. Klene, C. Adamo, R. Cammi, 
 J. W. Ochterski, R. L. Martin, K. Morokuma, O. Farkas, 
 J. B. Foresman, and D. J. Fox, Gaussian, Inc., Wallingford CT, 2019.
 
 ******************************************
 Gaussian 16:  ES64L-G16RevC.01  3-Jul-2019
                25-May-2025 
 ******************************************
 %mem=28GB
 %nprocshared=8
 Will use up to    8 processors via shared memory.
 ----------------------------------------------------------------------
 #P M062X/Def2TZVPP Symm(None) scf(xqc) pop(None) opt(CalcAll,Cartesian
 )
 ----------------------------------------------------------------------
 1/10=4,18=10,26=3,38=1/1,3;
 2/12=2,15=3,17=6,18=5,29=2,40=1/2;
 3/5=44,7=202,11=2,25=1,30=1,71=2,74=-55,140=1/1,2,3;
 4//1;
 5/5=2,8=3,13=1,38=5/2,8;
 8/6=4,10=90,11=11/1;
 11/6=1,8=1,9=11,15=111,16=1,31=1/1,2,10;
 10/6=1,31=1/2;
 7/7=1,10=1,25=1,30=1/1,2,3,16;
 1/10=4,18=10,26=3/3(3);
 2/15=3,29=1/2;
 7/7=1,8=1,9=1,25=1,30=1,44=-1/16;
 99/12=1/99;
 2/15=3,29=1/2;
 3/5=44,7=202,11=2,25=1,30=1,71=2,74=-55,140=1/1,2,3;
 4/5=5,16=3,69=1/1;
 5/5=2,8=3,13=1,38=5/2,8;
 8/6=4,10=90,11=11/1;
 11/6=1,8=1,9=11,15=111,16=1,31=1/1,2,10;
 10/6=1,31=1/2;
 7/7=1,10=1,25=1,30=1/1,2,3,16;
 1/10=4,18=10,26=3/3(-8);
 2/15=3,29=1/2;
 7/7=1,8=1,9=1,25=1,30=1,44=-1/16;
 99/12=1/99;
 Leave Link    1 at Sun May 25 05:13:24 2025, MaxMem=  3758096384 cpu:               0.0 elap:               0.0
 (Enter /apps/easybuild-2022/easybuild/software/Compiler/NVHPC/22.11-CUDA-11.7.0/Gaussian/g16c01-CUDA-11.7.0/g16/l101.exe)
 ------------------------------
 Gaussian input prepared by ASE
 ------------------------------
 Symbolic Z-matrix:
 Charge =  0 Multiplicity = 1
 C                     0.25233   1.76124  -1.2957 
 O                     1.55976   0.3166    0.06752 
 C                     1.21915   1.28451  -2.37239 
 F                     2.47613   1.59534  -2.0854 
 F                     1.05388  -0.01485  -2.55831 
 F                     0.9055    1.88471  -3.51236 
 O                     0.38871   1.31847  -0.17435 
 H                     1.21946  -0.06324   0.8871 
 
 ITRead=  0  0  0  0  0  0  0  0
 MicOpt= -1 -1 -1 -1 -1 -1 -1 -1
 NAtoms=      8 NQM=        8 NQMF=       0 NMMI=      0 NMMIF=      0
                NMic=       0 NMicF=      0.
                    Isotopes and Nuclear Properties:
 (Nuclear quadrupole moments (NQMom) in fm**2, nuclear magnetic moments (NMagM)
  in nuclear magnetons)

  Atom         1           2           3           4           5           6           7           8
 IAtWgt=          12          16          12          19          19          19          16           1
 AtmWgt=  12.0000000  15.9949146  12.0000000  18.9984032  18.9984032  18.9984032  15.9949146   1.0078250
 NucSpn=           0           0           0           1           1           1           0           1
 AtZEff=  -0.0000000  -0.0000000  -0.0000000  -0.0000000  -0.0000000  -0.0000000  -0.0000000  -0.0000000
 NQMom=    0.0000000   0.0000000   0.0000000   0.0000000   0.0000000   0.0000000   0.0000000   0.0000000
 NMagM=    0.0000000   0.0000000   0.0000000   2.6288670   2.6288670   2.6288670   0.0000000   2.7928460
 AtZNuc=   6.0000000   8.0000000   6.0000000   9.0000000   9.0000000   9.0000000   8.0000000   1.0000000
 Leave Link  101 at Sun May 25 05:13:24 2025, MaxMem=  3758096384 cpu:               0.1 elap:               0.1
 (Enter /apps/easybuild-2022/easybuild/software/Compiler/NVHPC/22.11-CUDA-11.7.0/Gaussian/g16c01-CUDA-11.7.0/g16/l103.exe)

 GradGradGradGradGradGradGradGradGradGradGradGradGradGradGradGradGradGrad
 Berny optimization.
 Initialization pass.
 No Z-matrix variables, so optimization will use Cartesian coordinates.
 Trust Radius=3.00D-01 FncErr=1.00D-07 GrdErr=1.00D-06 EigMax=2.50D+02 EigMin=1.00D-04
 Number of steps in this run=     34 maximum allowed number of steps=    100.
 GradGradGradGradGradGradGradGradGradGradGradGradGradGradGradGradGradGrad

 Leave Link  103 at Sun May 25 05:13:24 2025, MaxMem=  3758096384 cpu:               0.1 elap:               0.0
 (Enter /apps/easybuild-2022/easybuild/software/Compiler/NVHPC/22.11-CUDA-11.7.0/Gaussian/g16c01-CUDA-11.7.0/g16/l202.exe)
 ---------------------------------------------------------------------------------------------------
                            Z-MATRIX (ANGSTROMS AND DEGREES)
   CD    Cent   Atom    N1       Length/X        N2       Alpha/Y        N3        Beta/Z          J
 ---------------------------------------------------------------------------------------------------
      1      1  C        0   0.252332          1.761237         -1.295704
      2      2  O        0   1.559764          0.316602          0.067519
      3      3  C        0   1.219154          1.284506         -2.372392
      4      4  F        0   2.476125          1.595337         -2.085398
      5      5  F        0   1.053878         -0.014849         -2.558313
      6      6  F        0   0.905495          1.884710         -3.512355
      7      7  O        0   0.388710          1.318470         -0.174348
      8      8  H        0   1.219456         -0.063239          0.887096
 ---------------------------------------------------------------------------------------------------
                         Z-Matrix orientation:                         
 ---------------------------------------------------------------------
 Center     Atomic      Atomic             Coordinates (Angstroms)
 Number     Number       Type             X           Y           Z
 ---------------------------------------------------------------------
      1          6           0        0.252332    1.761237   -1.295704
      2          8           0        1.559764    0.316602    0.067519
      3          6           0        1.219154    1.284506   -2.372392
      4          9           0        2.476125    1.595337   -2.085398
      5          9           0        1.053878   -0.014849   -2.558313
      6          9           0        0.905495    1.884710   -3.512355
      7          8           0        0.388710    1.318470   -0.174348
      8          1           0        1.219456   -0.063239    0.887096
 ---------------------------------------------------------------------
                    Distance matrix (angstroms):
                    1          2          3          4          5
     1  C    0.000000
     2  O    2.377967   0.000000
     3  C    1.523573   2.646889   0.000000
     4  F    2.365670   2.666446   1.326257   0.000000
     5  F    2.321883   2.694582   1.322954   2.199803   0.000000
     6  F    2.314176   3.962642   1.325950   2.141687   2.130854
     7  O    1.213293   1.560002   2.349934   2.843601   2.811312
     8  H    3.004772   0.965295   3.527135   3.628472   3.449725
                    6          7          8
     6  F    0.000000
     7  O    3.424907   0.000000
     8  H    4.821643   1.930265   0.000000
 Symmetry turned off by external request.
 Stoichiometry    C2HF3O2
 Rotational constants (GHZ):           4.7719379           2.1589822           2.0369941
 Leave Link  202 at Sun May 25 05:13:24 2025, MaxMem=  3758096384 cpu:               0.1 elap:               0.0
 (Enter /apps/easybuild-2022/easybuild/software/Compiler/NVHPC/22.11-CUDA-11.7.0/Gaussian/g16c01-CUDA-11.7.0/g16/l301.exe)
 Standard basis: def2TZVPP (5D, 7F)
 Ernie: Thresh=  0.10000D-02 Tol=  0.10000D-05 Strict=F.
   231 basis functions,   374 primitive gaussians,   267 cartesian basis functions
    28 alpha electrons       28 beta electrons
       nuclear repulsion energy       335.6178053811 Hartrees.
 IExCor= 4336 DFT=T Ex+Corr=M062X ExCW=0 ScaHFX=  0.540000
 ScaDFX=  1.000000  1.000000  1.000000  1.000000 ScalE2=  1.000000  1.000000
 IRadAn=      5 IRanWt=     -1 IRanGd=            0 ICorTp=0 IEmpDi=  4
 NAtoms=    8 NActive=    8 NUniq=    8 SFac= 1.00D+00 NAtFMM=   60 NAOKFM=F Big=F
 Integral buffers will be    131072 words long.
 Raffenetti 2 integral format.
 Two-electron integral symmetry is turned off.
 Leave Link  301 at Sun May 25 05:13:24 2025, MaxMem=  3758096384 cpu:               0.1 elap:               0.0
 (Enter /apps/easybuild-2022/easybuild/software/Compiler/NVHPC/22.11-CUDA-11.7.0/Gaussian/g16c01-CUDA-11.7.0/g16/l302.exe)
 NPDir=0 NMtPBC=     1 NCelOv=     1 NCel=       1 NClECP=     1 NCelD=      1
         NCelK=      1 NCelE2=     1 NClLst=     1 CellRange=     0.0.
 One-electron integrals computed using PRISM.
   1 Symmetry operations used in ECPInt.
 ECPInt:  NShTT=    3486 NPrTT=   11183 LenC2=    3392 LenP2D=    8687.
 LDataN:  DoStor=T MaxTD1= 6 Len=  172
 NBasis=   231 RedAO= T EigKep=  5.41D-04  NBF=   231
 NBsUse=   231 1.00D-06 EigRej= -1.00D+00 NBFU=   231
 Precomputing XC quadrature grid using
 IXCGrd= 4 IRadAn=           5 IRanWt=          -1 IRanGd=           0 AccXCQ= 0.00D+00.
 Generated NRdTot=       0 NPtTot=           0 NUsed=           0 NTot=          32
 NSgBfM=   266   266   266   266   266 MxSgAt=     8 MxSgA2=     8.
 Leave Link  302 at Sun May 25 05:13:25 2025, MaxMem=  3758096384 cpu:               0.8 elap:               0.2
 (Enter /apps/easybuild-2022/easybuild/software/Compiler/NVHPC/22.11-CUDA-11.7.0/Gaussian/g16c01-CUDA-11.7.0/g16/l303.exe)
 DipDrv:  MaxL=1.
 Leave Link  303 at Sun May 25 05:13:25 2025, MaxMem=  3758096384 cpu:               0.1 elap:               0.0
 (Enter /apps/easybuild-2022/easybuild/software/Compiler/NVHPC/22.11-CUDA-11.7.0/Gaussian/g16c01-CUDA-11.7.0/g16/l401.exe)
 ExpMin= 9.52D-02 ExpMax= 3.55D+04 ExpMxC= 1.21D+03 IAcc=3 IRadAn=         5 AccDes= 0.00D+00
 Harris functional with IExCor= 1009 and IRadAn=       5 diagonalized for initial guess.
 HarFok:  IExCor= 1009 AccDes= 0.00D+00 IRadAn=         5 IDoV= 1 UseB2=F ITyADJ=14
 ICtDFT=  3500011 ScaDFX=  1.000000  1.000000  1.000000  1.000000
 FoFCou: FMM=F IPFlag=           0 FMFlag=      100000 FMFlg1=           0
         NFxFlg=           0 DoJE=T BraDBF=F KetDBF=T FulRan=T
         wScrn=  0.000000 ICntrl=       500 IOpCl=  0 I1Cent=   200000004 NGrid=           0
         NMat0=    1 NMatS0=      1 NMatT0=    0 NMatD0=    1 NMtDS0=    0 NMtDT0=    0
 Symmetry not used in FoFCou.
 Harris En= -526.350384899300    
 JPrj=0 DoOrth=F DoCkMO=F.
 Leave Link  401 at Sun May 25 05:13:25 2025, MaxMem=  3758096384 cpu:               2.1 elap:               0.4
 (Enter /apps/easybuild-2022/easybuild/software/Compiler/NVHPC/22.11-CUDA-11.7.0/Gaussian/g16c01-CUDA-11.7.0/g16/l502.exe)
 Keep R1 ints in memory in canonical form, NReq=368651279.
 FoFCou: FMM=F IPFlag=           0 FMFlag=           0 FMFlg1=           0
         NFxFlg=           0 DoJE=F BraDBF=F KetDBF=F FulRan=T
         wScrn=  0.000000 ICntrl=       600 IOpCl=  0 I1Cent=           0 NGrid=           0
         NMat0=    1 NMatS0=  26796 NMatT0=    0 NMatD0=    1 NMtDS0=    0 NMtDT0=    0
 Symmetry not used in FoFCou.
 Two-electron integral symmetry not used.
 Closed shell SCF:
 Using DIIS extrapolation, IDIIS=  1040.
 NGot=  3758096384 LenX=  3398923531 LenY=  3398851801
 Requested convergence on RMS density matrix=1.00D-08 within  32 cycles.
 Requested convergence on MAX density matrix=1.00D-06.
 Requested convergence on             energy=1.00D-06.
 No special actions if energy rises.
 Integral accuracy reduced to 1.0D-05 until final iterations.

 Cycle   1  Pass 0  IDiag  1:
 E= -526.529019814763    
 DIIS: error= 1.81D-02 at cycle   1 NSaved=   1.
 NSaved= 1 IEnMin= 1 EnMin= -526.529019814763     IErMin= 1 ErrMin= 1.81D-02
 ErrMax= 1.81D-02  0.00D+00 EMaxC= 1.00D-01 BMatC= 2.26D-01 BMatP= 2.26D-01
 IDIUse=3 WtCom= 8.19D-01 WtEn= 1.81D-01
 Coeff-Com:  0.100D+01
 Coeff-En:   0.100D+01
 Coeff:      0.100D+01
 Gap=     0.251 Goal=   None    Shift=    0.000
 GapD=    0.251 DampG=1.000 DampE=0.500 DampFc=0.5000 IDamp=-1.
 Damping current iteration by 5.00D-01
 RMSDP=2.42D-03 MaxDP=9.12D-02              OVMax= 3.10D-01

 Cycle   2  Pass 0  IDiag  1:
 E= -526.563418751282     Delta-E=       -0.034398936520 Rises=F Damp=T
 DIIS: error= 7.88D-03 at cycle   2 NSaved=   2.
 NSaved= 2 IEnMin= 2 EnMin= -526.563418751282     IErMin= 2 ErrMin= 7.88D-03
 ErrMax= 7.88D-03  0.00D+00 EMaxC= 1.00D-01 BMatC= 3.78D-02 BMatP= 2.26D-01
 IDIUse=3 WtCom= 9.21D-01 WtEn= 7.88D-02
 Coeff-Com:  0.119D+00 0.881D+00
 Coeff-En:   0.322D+00 0.678D+00
 Coeff:      0.135D+00 0.865D+00
 Gap=     0.410 Goal=   None    Shift=    0.000
 RMSDP=9.30D-04 MaxDP=2.16D-02 DE=-3.44D-02 OVMax= 2.23D-01

 Cycle   3  Pass 0  IDiag  1:
 E= -526.631169095804     Delta-E=       -0.067750344522 Rises=F Damp=F
 DIIS: error= 7.80D-03 at cycle   3 NSaved=   3.
 NSaved= 3 IEnMin= 3 EnMin= -526.631169095804     IErMin= 3 ErrMin= 7.80D-03
 ErrMax= 7.80D-03  0.00D+00 EMaxC= 1.00D-01 BMatC= 1.95D-02 BMatP= 3.78D-02
 IDIUse=3 WtCom= 9.22D-01 WtEn= 7.80D-02
 Coeff-Com: -0.803D-01 0.414D+00 0.666D+00
 Coeff-En:   0.000D+00 0.000D+00 0.100D+01
 Coeff:     -0.740D-01 0.382D+00 0.692D+00
 Gap=     0.303 Goal=   None    Shift=    0.000
 RMSDP=6.39D-04 MaxDP=2.08D-02 DE=-6.78D-02 OVMax= 1.04D-01

 Cycle   4  Pass 0  IDiag  1:
 E= -526.643944367843     Delta-E=       -0.012775272039 Rises=F Damp=F
 DIIS: error= 3.60D-03 at cycle   4 NSaved=   4.
 NSaved= 4 IEnMin= 4 EnMin= -526.643944367843     IErMin= 4 ErrMin= 3.60D-03
 ErrMax= 3.60D-03  0.00D+00 EMaxC= 1.00D-01 BMatC= 6.22D-03 BMatP= 1.95D-02
 IDIUse=3 WtCom= 9.64D-01 WtEn= 3.60D-02
 Coeff-Com: -0.436D-01 0.878D-01 0.415D+00 0.541D+00
 Coeff-En:   0.000D+00 0.000D+00 0.230D+00 0.770D+00
 Coeff:     -0.421D-01 0.846D-01 0.408D+00 0.549D+00
 Gap=     0.284 Goal=   None    Shift=    0.000
 RMSDP=1.94D-04 MaxDP=5.72D-03 DE=-1.28D-02 OVMax= 2.09D-02

 Cycle   5  Pass 0  IDiag  1:
 E= -526.648580365982     Delta-E=       -0.004635998138 Rises=F Damp=F
 DIIS: error= 5.69D-04 at cycle   5 NSaved=   5.
 NSaved= 5 IEnMin= 5 EnMin= -526.648580365982     IErMin= 5 ErrMin= 5.69D-04
 ErrMax= 5.69D-04  0.00D+00 EMaxC= 1.00D-01 BMatC= 1.69D-04 BMatP= 6.22D-03
 IDIUse=3 WtCom= 9.94D-01 WtEn= 5.69D-03
 Coeff-Com: -0.116D-01 0.907D-02 0.151D+00 0.214D+00 0.637D+00
 Coeff-En:   0.000D+00 0.000D+00 0.000D+00 0.000D+00 0.100D+01
 Coeff:     -0.116D-01 0.902D-02 0.150D+00 0.213D+00 0.639D+00
 Gap=     0.285 Goal=   None    Shift=    0.000
 RMSDP=4.47D-05 MaxDP=2.10D-03 DE=-4.64D-03 OVMax= 5.18D-03

 Cycle   6  Pass 0  IDiag  1:
 E= -526.648716141165     Delta-E=       -0.000135775183 Rises=F Damp=F
 DIIS: error= 3.62D-04 at cycle   6 NSaved=   6.
 NSaved= 6 IEnMin= 6 EnMin= -526.648716141165     IErMin= 6 ErrMin= 3.62D-04
 ErrMax= 3.62D-04  0.00D+00 EMaxC= 1.00D-01 BMatC= 4.13D-05 BMatP= 1.69D-04
 IDIUse=3 WtCom= 9.96D-01 WtEn= 3.62D-03
 Coeff-Com:  0.502D-02-0.153D-01-0.854D-02-0.294D-01 0.244D+00 0.804D+00
 Coeff-En:   0.000D+00 0.000D+00 0.000D+00 0.000D+00 0.000D+00 0.100D+01
 Coeff:      0.500D-02-0.153D-01-0.851D-02-0.293D-01 0.244D+00 0.804D+00
 Gap=     0.286 Goal=   None    Shift=    0.000
 RMSDP=3.09D-05 MaxDP=1.29D-03 DE=-1.36D-04 OVMax= 4.29D-03

 Cycle   7  Pass 0  IDiag  1:
 E= -526.648765739120     Delta-E=       -0.000049597955 Rises=F Damp=F
 DIIS: error= 1.81D-04 at cycle   7 NSaved=   7.
 NSaved= 7 IEnMin= 7 EnMin= -526.648765739120     IErMin= 7 ErrMin= 1.81D-04
 ErrMax= 1.81D-04  0.00D+00 EMaxC= 1.00D-01 BMatC= 1.46D-05 BMatP= 4.13D-05
 IDIUse=3 WtCom= 9.98D-01 WtEn= 1.81D-03
 Coeff-Com:  0.585D-02-0.108D-01-0.387D-01-0.757D-01-0.743D-01 0.488D+00
 Coeff-Com:  0.705D+00
 Coeff-En:   0.000D+00 0.000D+00 0.000D+00 0.000D+00 0.000D+00 0.000D+00
 Coeff-En:   0.100D+01
 Coeff:      0.584D-02-0.108D-01-0.386D-01-0.756D-01-0.742D-01 0.487D+00
 Coeff:      0.706D+00
 Gap=     0.286 Goal=   None    Shift=    0.000
 RMSDP=1.77D-05 MaxDP=4.33D-04 DE=-4.96D-05 OVMax= 2.31D-03

 Cycle   8  Pass 0  IDiag  1:
 E= -526.648780883957     Delta-E=       -0.000015144837 Rises=F Damp=F
 DIIS: error= 3.90D-05 at cycle   8 NSaved=   8.
 NSaved= 8 IEnMin= 8 EnMin= -526.648780883957     IErMin= 8 ErrMin= 3.90D-05
 ErrMax= 3.90D-05  0.00D+00 EMaxC= 1.00D-01 BMatC= 6.12D-07 BMatP= 1.46D-05
 IDIUse=1 WtCom= 1.00D+00 WtEn= 0.00D+00
 Coeff-Com:  0.133D-02-0.205D-02-0.737D-02-0.164D-01-0.522D-01 0.773D-01
 Coeff-Com:  0.165D+00 0.835D+00
 Coeff:      0.133D-02-0.205D-02-0.737D-02-0.164D-01-0.522D-01 0.773D-01
 Coeff:      0.165D+00 0.835D+00
 Gap=     0.286 Goal=   None    Shift=    0.000
 RMSDP=4.45D-06 MaxDP=2.28D-04 DE=-1.51D-05 OVMax= 4.96D-04

 Initial convergence to 1.0D-05 achieved.  Increase integral accuracy.
 Cycle   9  Pass 1  IDiag  1:
 E= -526.648807731010     Delta-E=       -0.000026847052 Rises=F Damp=F
 DIIS: error= 2.94D-05 at cycle   1 NSaved=   1.
 NSaved= 1 IEnMin= 1 EnMin= -526.648807731010     IErMin= 1 ErrMin= 2.94D-05
 ErrMax= 2.94D-05  0.00D+00 EMaxC= 1.00D-01 BMatC= 6.59D-07 BMatP= 6.59D-07
 IDIUse=1 WtCom= 1.00D+00 WtEn= 0.00D+00
 Coeff-Com:  0.100D+01
 Coeff:      0.100D+01
 Gap=     0.286 Goal=   None    Shift=    0.000
 RMSDP=4.45D-06 MaxDP=2.28D-04 DE=-2.68D-05 OVMax= 1.58D-04

 Cycle  10  Pass 1  IDiag  1:
 E= -526.648808254378     Delta-E=       -0.000000523368 Rises=F Damp=F
 DIIS: error= 1.41D-05 at cycle   2 NSaved=   2.
 NSaved= 2 IEnMin= 2 EnMin= -526.648808254378     IErMin= 2 ErrMin= 1.41D-05
 ErrMax= 1.41D-05  0.00D+00 EMaxC= 1.00D-01 BMatC= 9.67D-08 BMatP= 6.59D-07
 IDIUse=1 WtCom= 1.00D+00 WtEn= 0.00D+00
 Coeff-Com:  0.158D+00 0.842D+00
 Coeff:      0.158D+00 0.842D+00
 Gap=     0.286 Goal=   None    Shift=    0.000
 RMSDP=1.80D-06 MaxDP=6.47D-05 DE=-5.23D-07 OVMax= 2.24D-04

 Cycle  11  Pass 1  IDiag  1:
 E= -526.648808246621     Delta-E=        0.000000007757 Rises=F Damp=F
 DIIS: error= 1.88D-05 at cycle   3 NSaved=   3.
 NSaved= 3 IEnMin= 2 EnMin= -526.648808254378     IErMin= 2 ErrMin= 1.41D-05
 ErrMax= 1.88D-05  0.00D+00 EMaxC= 1.00D-01 BMatC= 1.49D-07 BMatP= 9.67D-08
 IDIUse=1 WtCom= 1.00D+00 WtEn= 0.00D+00
 Coeff-Com: -0.346D-01 0.566D+00 0.469D+00
 Coeff:     -0.346D-01 0.566D+00 0.469D+00
 Gap=     0.286 Goal=   None    Shift=    0.000
 RMSDP=8.50D-07 MaxDP=3.56D-05 DE= 7.76D-09 OVMax= 7.79D-05

 Cycle  12  Pass 1  IDiag  1:
 E= -526.648808343484     Delta-E=       -0.000000096863 Rises=F Damp=F
 DIIS: error= 2.27D-06 at cycle   4 NSaved=   4.
 NSaved= 4 IEnMin= 4 EnMin= -526.648808343484     IErMin= 4 ErrMin= 2.27D-06
 ErrMax= 2.27D-06  0.00D+00 EMaxC= 1.00D-01 BMatC= 2.69D-09 BMatP= 9.67D-08
 IDIUse=1 WtCom= 1.00D+00 WtEn= 0.00D+00
 Coeff-Com: -0.252D-01 0.192D+00 0.166D+00 0.667D+00
 Coeff:     -0.252D-01 0.192D+00 0.166D+00 0.667D+00
 Gap=     0.286 Goal=   None    Shift=    0.000
 RMSDP=2.37D-07 MaxDP=6.60D-06 DE=-9.69D-08 OVMax= 3.53D-05

 Cycle  13  Pass 1  IDiag  1:
 E= -526.648808346084     Delta-E=       -0.000000002599 Rises=F Damp=F
 DIIS: error= 1.51D-06 at cycle   5 NSaved=   5.
 NSaved= 5 IEnMin= 5 EnMin= -526.648808346084     IErMin= 5 ErrMin= 1.51D-06
 ErrMax= 1.51D-06  0.00D+00 EMaxC= 1.00D-01 BMatC= 7.81D-10 BMatP= 2.69D-09
 IDIUse=1 WtCom= 1.00D+00 WtEn= 0.00D+00
 Coeff-Com: -0.248D-02-0.294D-01-0.554D-01 0.232D+00 0.855D+00
 Coeff:     -0.248D-02-0.294D-01-0.554D-01 0.232D+00 0.855D+00
 Gap=     0.286 Goal=   None    Shift=    0.000
 RMSDP=1.33D-07 MaxDP=4.25D-06 DE=-2.60D-09 OVMax= 1.70D-05

 Cycle  14  Pass 1  IDiag  1:
 E= -526.648808346890     Delta-E=       -0.000000000807 Rises=F Damp=F
 DIIS: error= 6.42D-07 at cycle   6 NSaved=   6.
 NSaved= 6 IEnMin= 6 EnMin= -526.648808346890     IErMin= 6 ErrMin= 6.42D-07
 ErrMax= 6.42D-07  0.00D+00 EMaxC= 1.00D-01 BMatC= 2.94D-10 BMatP= 7.81D-10
 IDIUse=1 WtCom= 1.00D+00 WtEn= 0.00D+00
 Coeff-Com:  0.376D-02-0.542D-01-0.736D-01 0.193D-01 0.546D+00 0.558D+00
 Coeff:      0.376D-02-0.542D-01-0.736D-01 0.193D-01 0.546D+00 0.558D+00
 Gap=     0.286 Goal=   None    Shift=    0.000
 RMSDP=6.96D-08 MaxDP=1.73D-06 DE=-8.07D-10 OVMax= 1.14D-05

 Cycle  15  Pass 1  IDiag  1:
 E= -526.648808347159     Delta-E=       -0.000000000268 Rises=F Damp=F
 DIIS: error= 1.84D-07 at cycle   7 NSaved=   7.
 NSaved= 7 IEnMin= 7 EnMin= -526.648808347159     IErMin= 7 ErrMin= 1.84D-07
 ErrMax= 1.84D-07  0.00D+00 EMaxC= 1.00D-01 BMatC= 1.38D-11 BMatP= 2.94D-10
 IDIUse=1 WtCom= 1.00D+00 WtEn= 0.00D+00
 Coeff-Com:  0.123D-02-0.995D-02-0.145D-01-0.216D-01 0.205D-01 0.155D+00
 Coeff-Com:  0.869D+00
 Coeff:      0.123D-02-0.995D-02-0.145D-01-0.216D-01 0.205D-01 0.155D+00
 Coeff:      0.869D+00
 Gap=     0.286 Goal=   None    Shift=    0.000
 RMSDP=2.30D-08 MaxDP=6.49D-07 DE=-2.68D-10 OVMax= 2.82D-06

 Cycle  16  Pass 1  IDiag  1:
 E= -526.648808347184     Delta-E=       -0.000000000025 Rises=F Damp=F
 DIIS: error= 8.90D-08 at cycle   8 NSaved=   8.
 NSaved= 8 IEnMin= 8 EnMin= -526.648808347184     IErMin= 8 ErrMin= 8.90D-08
 ErrMax= 8.90D-08  0.00D+00 EMaxC= 1.00D-01 BMatC= 3.22D-12 BMatP= 1.38D-11
 IDIUse=1 WtCom= 1.00D+00 WtEn= 0.00D+00
 Coeff-Com: -0.124D-03 0.500D-02 0.542D-02-0.131D-01-0.877D-01-0.189D-01
 Coeff-Com:  0.398D+00 0.712D+00
 Coeff:     -0.124D-03 0.500D-02 0.542D-02-0.131D-01-0.877D-01-0.189D-01
 Coeff:      0.398D+00 0.712D+00
 Gap=     0.286 Goal=   None    Shift=    0.000
 RMSDP=9.00D-09 MaxDP=2.45D-07 DE=-2.49D-11 OVMax= 1.17D-06

 SCF Done:  E(RM062X) =  -526.648808347     A.U. after   16 cycles
            NFock= 16  Conv=0.90D-08     -V/T= 2.0035
 KE= 5.248209351326D+02 PE=-1.919093005628D+03 EE= 5.320054567669D+02
 Leave Link  502 at Sun May 25 05:13:36 2025, MaxMem=  3758096384 cpu:              52.3 elap:              10.6
 (Enter /apps/easybuild-2022/easybuild/software/Compiler/NVHPC/22.11-CUDA-11.7.0/Gaussian/g16c01-CUDA-11.7.0/g16/l508.exe)
 QCSCF skips out because SCF is already converged.
 Leave Link  508 at Sun May 25 05:13:36 2025, MaxMem=  3758096384 cpu:               0.1 elap:               0.0
 (Enter /apps/easybuild-2022/easybuild/software/Compiler/NVHPC/22.11-CUDA-11.7.0/Gaussian/g16c01-CUDA-11.7.0/g16/l801.exe)
 DoSCS=F DFT=T ScalE2(SS,OS)=  1.000000  1.000000
 Range of M.O.s used for correlation:     1   231
 NBasis=   231 NAE=    28 NBE=    28 NFC=     0 NFV=     0
 NROrb=    231 NOA=    28 NOB=    28 NVA=   203 NVB=   203

 **** Warning!!: The largest alpha MO coefficient is  0.17234458D+02

 Leave Link  801 at Sun May 25 05:13:36 2025, MaxMem=  3758096384 cpu:               0.1 elap:               0.0
 (Enter /apps/easybuild-2022/easybuild/software/Compiler/NVHPC/22.11-CUDA-11.7.0/Gaussian/g16c01-CUDA-11.7.0/g16/l1101.exe)
 Using compressed storage, NAtomX=     8.
 Will process      9 centers per pass.
   1 Symmetry operations used in ECPInt.
 ECPInt:  NShTT=    3486 NPrTT=   11183 LenC2=    3392 LenP2D=    8687.
 LDataN:  DoStor=T MaxTD1= 7 Len=  274
 Leave Link 1101 at Sun May 25 05:13:36 2025, MaxMem=  3758096384 cpu:               0.8 elap:               0.1
 (Enter /apps/easybuild-2022/easybuild/software/Compiler/NVHPC/22.11-CUDA-11.7.0/Gaussian/g16c01-CUDA-11.7.0/g16/l1102.exe)
 Symmetrizing basis deriv contribution to polar:
 IMax=3 JMax=2 DiffMx= 0.00D+00
 Leave Link 1102 at Sun May 25 05:13:36 2025, MaxMem=  3758096384 cpu:               0.1 elap:               0.0
 (Enter /apps/easybuild-2022/easybuild/software/Compiler/NVHPC/22.11-CUDA-11.7.0/Gaussian/g16c01-CUDA-11.7.0/g16/l1110.exe)
 Forming Gx(P) for the SCF density, NAtomX=     8.
 Integral derivatives from FoFJK, PRISM(SPDF).
 Do as many integral derivatives as possible in FoFJK.
 G2DrvN: MDV=    3758095424.
 G2DrvN: will do     9 centers at a time, making    1 passes.
 Calling FoFCou, ICntrl=  3107 FMM=F I1Cent=   0 AccDes= 0.00D+00.
 FoFJK:  IHMeth= 1 ICntrl=    3107 DoSepK=F KAlg= 0 I1Cent=           0 FoldK=F
 IRaf=         0 NMat=       1 IRICut=       1 DoRegI=T DoRafI=F ISym2E= 0 IDoP0=0 IntGTp=1.
 FoFCou: FMM=F IPFlag=           0 FMFlag=      100000 FMFlg1=           0
         NFxFlg=           0 DoJE=F BraDBF=F KetDBF=F FulRan=T
         wScrn=  0.000000 ICntrl=      3107 IOpCl=  0 I1Cent=           0 NGrid=           0
         NMat0=    1 NMatS0=      1 NMatT0=    0 NMatD0=    1 NMtDS0=    0 NMtDT0=    0
 Symmetry not used in FoFCou.
 End of G2Drv F.D. properties file   721 does not exist.
 End of G2Drv F.D. properties file   722 does not exist.
 End of G2Drv F.D. properties file   788 does not exist.
 Leave Link 1110 at Sun May 25 05:13:51 2025, MaxMem=  3758096384 cpu:             115.8 elap:              14.7
 (Enter /apps/easybuild-2022/easybuild/software/Compiler/NVHPC/22.11-CUDA-11.7.0/Gaussian/g16c01-CUDA-11.7.0/g16/l1002.exe)
 Minotr:  Closed shell wavefunction.
          IDoAtm=11111111
          Direct CPHF calculation.
          Differentiating once with respect to electric field.
                with respect to dipole field.
          Differentiating once with respect to nuclear coordinates.
          Requested convergence is 1.0D-08 RMS, and 1.0D-07 maximum.
          Secondary convergence is 1.0D-12 RMS, and 1.0D-12 maximum.
          NewPWx=T KeepS1=F KeepF1=F KeepIn=T MapXYZ=F SortEE=F KeepMc=T.
         2392 words used for storage of precomputed grid.
 Keep R1 ints in memory in canonical form, NReq=368655240.
 FoFCou: FMM=F IPFlag=           0 FMFlag=           0 FMFlg1=           0
         NFxFlg=           0 DoJE=F BraDBF=F KetDBF=F FulRan=T
         wScrn=  0.000000 ICntrl=       600 IOpCl=  0 I1Cent=           0 NGrid=           0
         NMat0=    1 NMatS0=  26796 NMatT0=    0 NMatD0=    1 NMtDS0=    0 NMtDT0=    0
 Symmetry not used in FoFCou.
 Two-electron integral symmetry not used.
          MDV=    3758096384 using IRadAn=       1.
          Solving linear equations simultaneously, MaxMat=       0.
          There are    27 degrees of freedom in the 1st order CPHF.  IDoFFX=6 NUNeed=     3.
     24 vectors produced by pass  0 Test12= 2.11D-14 3.70D-09 XBig12= 1.99D+01 2.79D+00.
 AX will form    24 AO Fock derivatives at one time.
     24 vectors produced by pass  1 Test12= 2.11D-14 3.70D-09 XBig12= 5.43D+00 6.67D-01.
     24 vectors produced by pass  2 Test12= 2.11D-14 3.70D-09 XBig12= 3.49D-01 1.33D-01.
     24 vectors produced by pass  3 Test12= 2.11D-14 3.70D-09 XBig12= 9.85D-03 1.92D-02.
     24 vectors produced by pass  4 Test12= 2.11D-14 3.70D-09 XBig12= 1.25D-04 2.08D-03.
     24 vectors produced by pass  5 Test12= 2.11D-14 3.70D-09 XBig12= 9.96D-07 1.70D-04.
     24 vectors produced by pass  6 Test12= 2.11D-14 3.70D-09 XBig12= 6.50D-09 1.10D-05.
     11 vectors produced by pass  7 Test12= 2.11D-14 3.70D-09 XBig12= 2.97D-11 9.70D-07.
      3 vectors produced by pass  8 Test12= 2.11D-14 3.70D-09 XBig12= 1.21D-13 5.17D-08.
      1 vectors produced by pass  9 Test12= 2.11D-14 3.70D-09 XBig12= 5.90D-16 4.92D-09.
 InvSVY:  IOpt=1 It=  1 EMax= 1.78D-15
 Solved reduced A of dimension   183 with    27 vectors.
 FullF1:  Do perturbations      1 to       3.
 Isotropic polarizability for W=    0.000000       40.20 Bohr**3.
 End of Minotr F.D. properties file   721 does not exist.
 End of Minotr F.D. properties file   722 does not exist.
 End of Minotr F.D. properties file   788 does not exist.
 Leave Link 1002 at Sun May 25 05:14:15 2025, MaxMem=  3758096384 cpu:             179.5 elap:              23.9
 (Enter /apps/easybuild-2022/easybuild/software/Compiler/NVHPC/22.11-CUDA-11.7.0/Gaussian/g16c01-CUDA-11.7.0/g16/l701.exe)
 ... and contract with generalized density number  0.
 Compute integral second derivatives.
   1 Symmetry operations used in ECPInt.
 ECPInt:  NShTT=    3486 NPrTT=   11183 LenC2=    3392 LenP2D=    8687.
 LDataN:  DoStor=T MaxTD1= 8 Len=  415
 Leave Link  701 at Sun May 25 05:14:15 2025, MaxMem=  3758096384 cpu:               1.1 elap:               0.2
 (Enter /apps/easybuild-2022/easybuild/software/Compiler/NVHPC/22.11-CUDA-11.7.0/Gaussian/g16c01-CUDA-11.7.0/g16/l702.exe)
 L702 exits ... SP integral derivatives will be done elsewhere.
 Leave Link  702 at Sun May 25 05:14:15 2025, MaxMem=  3758096384 cpu:               0.1 elap:               0.0
 (Enter /apps/easybuild-2022/easybuild/software/Compiler/NVHPC/22.11-CUDA-11.7.0/Gaussian/g16c01-CUDA-11.7.0/g16/l703.exe)
 Integral derivatives from FoFJK, PRISM(SPDF).
 Compute integral second derivatives, UseDBF=F ICtDFT=           0.
 Calling FoFJK, ICntrl=    100127 FMM=F ISym2X=0 I1Cent= 0 IOpClX= 0 NMat=1 NMatS=1 NMatT=0.
 FoFJK:  IHMeth= 1 ICntrl=  100127 DoSepK=F KAlg= 0 I1Cent=           0 FoldK=F
 IRaf=         0 NMat=       1 IRICut=       1 DoRegI=T DoRafI=F ISym2E= 0 IDoP0=0 IntGTp=1.
 FoFCou: FMM=F IPFlag=           0 FMFlag=      100000 FMFlg1=         800
         NFxFlg=           0 DoJE=F BraDBF=F KetDBF=F FulRan=T
         wScrn=  0.000000 ICntrl=    100127 IOpCl=  0 I1Cent=           0 NGrid=           0
         NMat0=    1 NMatS0=      1 NMatT0=    0 NMatD0=    1 NMtDS0=    0 NMtDT0=    0
 Symmetry not used in FoFCou.
 Leave Link  703 at Sun May 25 05:14:51 2025, MaxMem=  3758096384 cpu:             289.0 elap:              36.6
 (Enter /apps/easybuild-2022/easybuild/software/Compiler/NVHPC/22.11-CUDA-11.7.0/Gaussian/g16c01-CUDA-11.7.0/g16/l716.exe)
 Dipole        =-1.45889224D-01-3.53060350D-01 7.46071094D-01
 Polarizability= 3.56100407D+01-8.00991980D+00 3.84833231D+01
                 6.40519393D+00-1.17039829D+01 4.65107915D+01
 -------------------------------------------------------------------
 Center     Atomic                   Forces (Hartrees/Bohr)
 Number     Number              X              Y              Z
 -------------------------------------------------------------------
      1        6          -0.002234389    0.004742242    0.004079547
      2        8           0.001690175   -0.002151159    0.002575531
      3        6          -0.004764610    0.005549273   -0.006604883
      4        9          -0.000701065   -0.005052265    0.000388372
      5        9           0.006270605   -0.005963108    0.000337418
      6        9           0.001498899    0.002799296   -0.004324389
      7        8          -0.003362702    0.001038246    0.002701219
      8        1           0.001603088   -0.000962526    0.000847185
 -------------------------------------------------------------------
 Cartesian Forces:  Max     0.006604883 RMS     0.003589349
 Force constants in Cartesian coordinates: 
                1             2             3             4             5 
      1  0.210722D+00
      2 -0.872677D-01  0.209541D+00
      3 -0.419756D-01 -0.159411D+00  0.739792D+00
      4 -0.684670D-03  0.538801D-01 -0.922376D-01  0.168473D+00
      5  0.405560D-01 -0.339322D-01  0.928555D-01  0.223792D-01  0.135438D+00
      6 -0.430362D-01  0.468313D-01 -0.231001D-01 -0.182703D+00 -0.189545D+00
      7 -0.111243D+00  0.308182D-01  0.707380D-01 -0.165553D-01  0.303887D-02
      8  0.404818D-01 -0.660714D-01 -0.399896D-01 -0.492413D-02 -0.131105D-01
      9  0.407548D-01 -0.183746D-01 -0.980483D-01  0.204726D-01 -0.239421D-01
     10 -0.387875D-01 -0.858248D-02  0.793587D-02  0.108808D-01 -0.157594D-01
     11 -0.245494D-02  0.827636D-02  0.218678D-02  0.116979D-02 -0.225471D-02
     12  0.167001D-01  0.263553D-03  0.481460D-02 -0.544062D-03  0.836643D-02
     13  0.841969D-02  0.112118D-01  0.383156D-02  0.330767D-02  0.359389D-03
     14  0.224184D-02 -0.304148D-01 -0.217425D-01 -0.131656D-01  0.972481D-02
     15  0.522051D-02 -0.269566D-01 -0.649563D-02 -0.980204D-02  0.330365D-02
     16  0.841093D-02 -0.372179D-02  0.193925D-01  0.122392D-02 -0.719507D-03
     17  0.291182D-02  0.776211D-02  0.102031D-02 -0.520739D-03  0.175187D-02
     18 -0.542655D-02  0.216620D-01 -0.478812D-01  0.343424D-03 -0.117487D-03
     19 -0.663629D-01 -0.539979D-02  0.394299D-01 -0.647496D-01  0.180337D-01
     20 -0.447077D-02 -0.923343D-01  0.123403D+00 -0.132064D-01 -0.109347D-01
     21  0.271255D-01  0.136386D+00 -0.572035D+00  0.107685D+00 -0.685423D-01
     22 -0.104743D-01  0.906167D-02 -0.711464D-02 -0.101896D+00 -0.678883D-01
     23  0.800192D-02 -0.282664D-02  0.167827D-02 -0.456122D-01 -0.866825D-01
     24  0.637435D-03 -0.399924D-03  0.295388D-02  0.156786D+00  0.177621D+00
                6             7             8             9            10 
      6  0.459631D+00
      7 -0.716063D-02  0.569624D+00
      8 -0.132449D-02 -0.578689D-02  0.565048D+00
      9  0.605332D-02 -0.128803D-01 -0.176206D-02  0.594467D+00
     10  0.415879D-02 -0.308137D+00 -0.438421D-01 -0.266024D-01  0.398571D+00
     11  0.426226D-02 -0.361389D-01 -0.812628D-01 -0.862237D-02  0.765001D-01
     12 -0.533590D-02 -0.223009D-01 -0.521691D-02 -0.821815D-01  0.852044D-01
     13 -0.121937D-02 -0.752727D-01 -0.247739D-02  0.474120D-02 -0.145861D-01
     14 -0.241051D-02 -0.107469D-01 -0.314256D+00 -0.543335D-01 -0.373656D-01
     15 -0.988817D-02 -0.289802D-03 -0.577842D-01 -0.888849D-01 -0.109247D-01
     16  0.635417D-03 -0.838605D-01  0.186822D-01 -0.338760D-01 -0.384054D-01
     17 -0.211415D-03  0.180889D-01 -0.113288D+00  0.858214D-01  0.927603D-02
     18  0.658006D-03 -0.295061D-01  0.826812D-01 -0.268699D+00 -0.470536D-01
     19  0.404235D-01  0.275941D-01 -0.436887D-02  0.690598D-02 -0.107063D-01
     20 -0.124609D-01  0.431833D-03  0.246655D-01  0.197895D-01  0.193690D-01
     21 -0.462594D-01 -0.695655D-03  0.235336D-01 -0.610519D-01 -0.106370D-01
     22  0.188902D+00 -0.214945D-02  0.223540D-02  0.484069D-03  0.117064D-02
     23  0.154859D+00  0.294970D-03 -0.172562D-02  0.142377D-02  0.404547D-03
     24 -0.381759D+00  0.209529D-02 -0.137574D-03 -0.165480D-02 -0.208134D-02
               11            12            13            14            15 
     11  0.887747D-01
     12  0.786072D-02  0.989626D-01
     13 -0.545966D-01 -0.164621D-01  0.688546D-01
     14 -0.270883D-01 -0.112913D-01  0.376430D-01  0.442304D+00
     15 -0.106233D-01  0.750224D-02  0.116888D-01  0.401440D-01  0.883475D-01
     16  0.162660D-01 -0.640034D-01  0.141790D-01  0.603296D-02 -0.261086D-02
     17  0.138290D-01  0.480199D-02  0.759786D-02 -0.702395D-01  0.568430D-01
     18  0.860502D-02 -0.282714D-01 -0.262913D-02  0.381938D-01  0.100024D-02
     19  0.148775D-03  0.153839D-03 -0.505554D-02  0.161273D-01  0.662261D-02
     20 -0.955506D-03 -0.393940D-02  0.512320D-03 -0.912928D-02 -0.300785D-02
     21 -0.345530D-02  0.396525D-02  0.662686D-03  0.103822D-01  0.783586D-02
     22 -0.894274D-03  0.125204D-02  0.153353D-03 -0.766957D-03  0.954126D-04
     23  0.681181D-03 -0.845095D-03 -0.250484D-03 -0.901131D-03 -0.191874D-02
     24 -0.213805D-03  0.544042D-03 -0.613705D-03  0.105778D-02  0.582879D-03
               16            17            18            19            20 
     16  0.101495D+00
     17 -0.364082D-01  0.161781D+00
     18  0.769880D-01 -0.147974D+00  0.354852D+00
     19 -0.337533D-02 -0.606652D-03  0.700678D-02  0.110295D+00
     20 -0.127050D-03 -0.165254D-02 -0.249411D-02 -0.130605D-01  0.100259D+00
     21  0.381978D-02 -0.265715D-03 -0.122088D-01 -0.100624D+00 -0.122352D+00
     22  0.332804D-03 -0.338933D-03  0.277146D-03  0.123608D-01  0.105516D-01
     23 -0.458903D-05  0.560899D-04 -0.556945D-03 -0.108739D-01 -0.991765D-02
     24 -0.345495D-03 -0.360406D-04  0.549890D-03  0.817566D-04  0.106255D-02
               21            22            23            24 
     21  0.685292D+00
     22 -0.273361D-01  0.100502D+00
     23  0.243142D-01  0.480398D-01  0.101316D+00
     24 -0.553790D-02 -0.156560D+00 -0.178954D+00  0.384321D+00
 Leave Link  716 at Sun May 25 05:14:52 2025, MaxMem=  3758096384 cpu:               0.1 elap:               0.0
 (Enter /apps/easybuild-2022/easybuild/software/Compiler/NVHPC/22.11-CUDA-11.7.0/Gaussian/g16c01-CUDA-11.7.0/g16/l103.exe)

 GradGradGradGradGradGradGradGradGradGradGradGradGradGradGradGradGradGrad
 Berny optimization.
 Search for a local minimum.
 Step number   1 out of a maximum of   34
 All quantities printed in internal units (Hartrees-Bohrs-Radians)
 Second derivative matrix not updated -- analytic derivatives used.
 ITU=  0
     Eigenvalues ---    0.00086   0.00407   0.01736   0.03724   0.05591
     Eigenvalues ---    0.06792   0.13139   0.14842   0.18618   0.20328
     Eigenvalues ---    0.23949   0.32970   0.45757   0.83185   0.84548
     Eigenvalues ---    0.84973   1.06620   1.39386
 RFO step:  Lambda=-1.69240177D-03 EMin= 8.61512241D-04
 Linear search not attempted -- first point.
 B after Tr=    -0.024213   -0.022843   -0.037104
         Rot=    0.999989   -0.003995    0.001721    0.001938 Ang=  -0.55 deg.
 Variable       Old X    -DE/DX   Delta X   Delta X   Delta X     New X
                                 (Linear)    (Quad)   (Total)
    X1        0.47684  -0.00223   0.00000   0.00007  -0.00283   0.47401
    Y1        3.32826   0.00474   0.00000   0.01520   0.00977   3.33802
    Z1       -2.44853   0.00408   0.00000   0.01910   0.01047  -2.43806
    X2        2.94753   0.00169   0.00000  -0.02430  -0.04706   2.90046
    Y2        0.59829  -0.00215   0.00000  -0.07559  -0.11104   0.48725
    Z2        0.12759   0.00258   0.00000   0.02565   0.00274   0.13033
    X3        2.30387  -0.00476   0.00000  -0.02045  -0.01966   2.28421
    Y3        2.42736   0.00555   0.00000   0.00828   0.01254   2.43990
    Z3       -4.48317  -0.00660   0.00000  -0.03604  -0.04567  -4.52885
    X4        4.67920  -0.00070   0.00000  -0.01932  -0.01842   4.66078
    Y4        3.01475  -0.00505   0.00000  -0.02900  -0.03859   2.97616
    Z4       -3.94083   0.00039   0.00000  -0.00464  -0.00174  -3.94258
    X5        1.99154   0.00627   0.00000   0.04532   0.03783   2.02937
    Y5       -0.02806  -0.00596   0.00000  -0.00404   0.00415  -0.02391
    Z5       -4.83451   0.00034   0.00000  -0.04549  -0.07568  -4.91019
    X6        1.71114   0.00150   0.00000   0.00038   0.01308   1.72422
    Y6        3.56159   0.00280   0.00000   0.03472   0.05829   3.61988
    Z6       -6.63739  -0.00432   0.00000  -0.02758  -0.02981  -6.66719
    X7        0.73456  -0.00336   0.00000  -0.02278  -0.03624   0.69832
    Y7        2.49155   0.00104   0.00000   0.00887  -0.01429   2.47725
    Z7       -0.32947   0.00270   0.00000   0.01030  -0.00436  -0.33383
    X8        2.30444   0.00160   0.00000   0.10391   0.07330   2.37773
    Y8       -0.11950  -0.00096   0.00000   0.12615   0.07918  -0.04033
    Z8        1.67637   0.00085   0.00000   0.17293   0.14407   1.82043
         Item               Value     Threshold  Converged?
 Maximum Force            0.006605     0.000450     NO 
 RMS     Force            0.003589     0.000300     NO 
 Maximum Displacement     0.144065     0.001800     NO 
 RMS     Displacement     0.051959     0.001200     NO 
 Predicted change in Energy=-9.072773D-04
 Lowest energy point so far.  Saving SCF results.
 GradGradGradGradGradGradGradGradGradGradGradGradGradGradGradGradGradGrad

 Leave Link  103 at Sun May 25 05:14:52 2025, MaxMem=  3758096384 cpu:               0.1 elap:               0.0
 (Enter /apps/easybuild-2022/easybuild/software/Compiler/NVHPC/22.11-CUDA-11.7.0/Gaussian/g16c01-CUDA-11.7.0/g16/l202.exe)
                          Input orientation:                          
 ---------------------------------------------------------------------
 Center     Atomic      Atomic             Coordinates (Angstroms)
 Number     Number       Type             X           Y           Z
 ---------------------------------------------------------------------
      1          6           0        0.250833    1.766405   -1.290166
      2          8           0        1.534860    0.257840    0.068966
      3          6           0        1.208752    1.291140   -2.396562
      4          9           0        2.466377    1.574918   -2.086321
      5          9           0        1.073897   -0.012651   -2.598363
      6          9           0        0.912419    1.915556   -3.528127
      7          8           0        0.369533    1.310907   -0.176654
      8          1           0        1.258243   -0.021341    0.963332
 ---------------------------------------------------------------------
                    Distance matrix (angstroms):
                    1          2          3          4          5
     1  C    0.000000
     2  O    2.402443   0.000000
     3  C    1.538700   2.693118   0.000000
     4  F    2.362026   2.692152   1.326047   0.000000
     5  F    2.356662   2.720349   1.326190   2.172916   0.000000
     6  F    2.338464   4.009307   1.325952   2.147004   2.146746
     7  O    1.208916   1.589737   2.373325   2.848383   2.848265
     8  H    3.047812   0.976908   3.607484   3.648015   3.566473
                    6          7          8
     6  F    0.000000
     7  O    3.448580   0.000000
     8  H    4.903506   1.965771   0.000000
 Symmetry turned off by external request.
 Stoichiometry    C2HF3O2
 Rotational constants (GHZ):           4.7502143           2.1303402           1.9907266
 Leave Link  202 at Sun May 25 05:14:52 2025, MaxMem=  3758096384 cpu:               0.1 elap:               0.0
 (Enter /apps/easybuild-2022/easybuild/software/Compiler/NVHPC/22.11-CUDA-11.7.0/Gaussian/g16c01-CUDA-11.7.0/g16/l301.exe)
 Standard basis: def2TZVPP (5D, 7F)
 Ernie: Thresh=  0.10000D-02 Tol=  0.10000D-05 Strict=F.
   231 basis functions,   374 primitive gaussians,   267 cartesian basis functions
    28 alpha electrons       28 beta electrons
       nuclear repulsion energy       333.6341598112 Hartrees.
 IExCor= 4336 DFT=T Ex+Corr=M062X ExCW=0 ScaHFX=  0.540000
 ScaDFX=  1.000000  1.000000  1.000000  1.000000 ScalE2=  1.000000  1.000000
 IRadAn=      5 IRanWt=     -1 IRanGd=            0 ICorTp=0 IEmpDi=  4
 NAtoms=    8 NActive=    8 NUniq=    8 SFac= 1.00D+00 NAtFMM=   60 NAOKFM=F Big=F
 Integral buffers will be    131072 words long.
 Raffenetti 2 integral format.
 Two-electron integral symmetry is turned off.
 Leave Link  301 at Sun May 25 05:14:52 2025, MaxMem=  3758096384 cpu:               0.1 elap:               0.0
 (Enter /apps/easybuild-2022/easybuild/software/Compiler/NVHPC/22.11-CUDA-11.7.0/Gaussian/g16c01-CUDA-11.7.0/g16/l302.exe)
 NPDir=0 NMtPBC=     1 NCelOv=     1 NCel=       1 NClECP=     1 NCelD=      1
         NCelK=      1 NCelE2=     1 NClLst=     1 CellRange=     0.0.
 One-electron integrals computed using PRISM.
   1 Symmetry operations used in ECPInt.
 ECPInt:  NShTT=    3486 NPrTT=   11183 LenC2=    3390 LenP2D=    8667.
 LDataN:  DoStor=T MaxTD1= 6 Len=  172
 NBasis=   231 RedAO= T EigKep=  5.84D-04  NBF=   231
 NBsUse=   231 1.00D-06 EigRej= -1.00D+00 NBFU=   231
 Precomputing XC quadrature grid using
 IXCGrd= 4 IRadAn=           5 IRanWt=          -1 IRanGd=           0 AccXCQ= 0.00D+00.
 Generated NRdTot=       0 NPtTot=           0 NUsed=           0 NTot=          32
 NSgBfM=   266   266   266   266   266 MxSgAt=     8 MxSgA2=     8.
 Leave Link  302 at Sun May 25 05:14:52 2025, MaxMem=  3758096384 cpu:               0.7 elap:               0.2
 (Enter /apps/easybuild-2022/easybuild/software/Compiler/NVHPC/22.11-CUDA-11.7.0/Gaussian/g16c01-CUDA-11.7.0/g16/l303.exe)
 DipDrv:  MaxL=1.
 Leave Link  303 at Sun May 25 05:14:52 2025, MaxMem=  3758096384 cpu:               0.1 elap:               0.0
 (Enter /apps/easybuild-2022/easybuild/software/Compiler/NVHPC/22.11-CUDA-11.7.0/Gaussian/g16c01-CUDA-11.7.0/g16/l401.exe)
 Initial guess from the checkpoint file:  "/tmp/Gau-124500.chk"
 B after Tr=    -0.037970   -0.037443   -0.057711
         Rot=    0.999972   -0.006256    0.002805    0.002885 Ang=  -0.85 deg.
 Guess basis will be translated and rotated to current coordinates.
 JPrj=2 DoOrth=T DoCkMO=T.
 Generating alternative initial guess.
 ExpMin= 9.52D-02 ExpMax= 3.55D+04 ExpMxC= 1.21D+03 IAcc=3 IRadAn=         5 AccDes= 0.00D+00
 Harris functional with IExCor= 1009 and IRadAn=       5 diagonalized for initial guess.
 HarFok:  IExCor= 1009 AccDes= 0.00D+00 IRadAn=         5 IDoV= 1 UseB2=F ITyADJ=14
 ICtDFT=  3500011 ScaDFX=  1.000000  1.000000  1.000000  1.000000
 FoFCou: FMM=F IPFlag=           0 FMFlag=      100000 FMFlg1=           0
         NFxFlg=           0 DoJE=T BraDBF=F KetDBF=T FulRan=T
         wScrn=  0.000000 ICntrl=       500 IOpCl=  0 I1Cent=   200000004 NGrid=           0
         NMat0=    1 NMatS0=      1 NMatT0=    0 NMatD0=    1 NMtDS0=    0 NMtDT0=    0
 Symmetry not used in FoFCou.
 Harris En= -526.356267906732    
 Leave Link  401 at Sun May 25 05:14:52 2025, MaxMem=  3758096384 cpu:               2.2 elap:               0.3
 (Enter /apps/easybuild-2022/easybuild/software/Compiler/NVHPC/22.11-CUDA-11.7.0/Gaussian/g16c01-CUDA-11.7.0/g16/l502.exe)
 Keep R1 ints in memory in canonical form, NReq=368651279.
 FoFCou: FMM=F IPFlag=           0 FMFlag=           0 FMFlg1=           0
         NFxFlg=           0 DoJE=F BraDBF=F KetDBF=F FulRan=T
         wScrn=  0.000000 ICntrl=       600 IOpCl=  0 I1Cent=           0 NGrid=           0
         NMat0=    1 NMatS0=  26796 NMatT0=    0 NMatD0=    1 NMtDS0=    0 NMtDT0=    0
 Symmetry not used in FoFCou.
 Two-electron integral symmetry not used.
 Closed shell SCF:
 Using DIIS extrapolation, IDIIS=  1040.
 NGot=  3758096384 LenX=  3398923531 LenY=  3398851801
 Requested convergence on RMS density matrix=1.00D-08 within  32 cycles.
 Requested convergence on MAX density matrix=1.00D-06.
 Requested convergence on             energy=1.00D-06.
 No special actions if energy rises.
 Integral accuracy reduced to 1.0D-05 until final iterations.

 Cycle   1  Pass 0  IDiag  1:
 E= -526.644975738775    
 DIIS: error= 4.07D-03 at cycle   1 NSaved=   1.
 NSaved= 1 IEnMin= 1 EnMin= -526.644975738775     IErMin= 1 ErrMin= 4.07D-03
 ErrMax= 4.07D-03  0.00D+00 EMaxC= 1.00D-01 BMatC= 3.98D-03 BMatP= 3.98D-03
 IDIUse=3 WtCom= 9.59D-01 WtEn= 4.07D-02
 Coeff-Com:  0.100D+01
 Coeff-En:   0.100D+01
 Coeff:      0.100D+01
 Gap=     1.012 Goal=   None    Shift=    0.000
 GapD=    1.012 DampG=2.000 DampE=1.000 DampFc=2.0000 IDamp=-1.
 RMSDP=2.87D-04 MaxDP=1.28D-02              OVMax= 2.68D-02

 Cycle   2  Pass 0  IDiag  1:
 E= -526.649266676446     Delta-E=       -0.004290937671 Rises=F Damp=F
 DIIS: error= 6.35D-04 at cycle   2 NSaved=   2.
 NSaved= 2 IEnMin= 2 EnMin= -526.649266676446     IErMin= 2 ErrMin= 6.35D-04
 ErrMax= 6.35D-04  0.00D+00 EMaxC= 1.00D-01 BMatC= 1.74D-04 BMatP= 3.98D-03
 IDIUse=3 WtCom= 9.94D-01 WtEn= 6.35D-03
 Coeff-Com: -0.770D-01 0.108D+01
 Coeff-En:   0.000D+00 0.100D+01
 Coeff:     -0.765D-01 0.108D+01
 Gap=     0.285 Goal=   None    Shift=    0.000
 RMSDP=7.72D-05 MaxDP=2.92D-03 DE=-4.29D-03 OVMax= 7.34D-03

 Cycle   3  Pass 0  IDiag  1:
 E= -526.649417912706     Delta-E=       -0.000151236260 Rises=F Damp=F
 DIIS: error= 6.11D-04 at cycle   3 NSaved=   3.
 NSaved= 3 IEnMin= 3 EnMin= -526.649417912706     IErMin= 3 ErrMin= 6.11D-04
 ErrMax= 6.11D-04  0.00D+00 EMaxC= 1.00D-01 BMatC= 1.81D-04 BMatP= 1.74D-04
 IDIUse=3 WtCom= 9.94D-01 WtEn= 6.11D-03
 Coeff-Com: -0.725D-01 0.583D+00 0.490D+00
 Coeff-En:   0.000D+00 0.000D+00 0.100D+01
 Coeff:     -0.720D-01 0.579D+00 0.493D+00
 Gap=     0.284 Goal=   None    Shift=    0.000
 RMSDP=3.10D-05 MaxDP=1.45D-03 DE=-1.51D-04 OVMax= 2.92D-03

 Cycle   4  Pass 0  IDiag  1:
 E= -526.649532516572     Delta-E=       -0.000114603866 Rises=F Damp=F
 DIIS: error= 1.71D-04 at cycle   4 NSaved=   4.
 NSaved= 4 IEnMin= 4 EnMin= -526.649532516572     IErMin= 4 ErrMin= 1.71D-04
 ErrMax= 1.71D-04  0.00D+00 EMaxC= 1.00D-01 BMatC= 1.45D-05 BMatP= 1.74D-04
 IDIUse=3 WtCom= 9.98D-01 WtEn= 1.71D-03
 Coeff-Com: -0.115D-01 0.145D-01 0.209D+00 0.788D+00
 Coeff-En:   0.000D+00 0.000D+00 0.000D+00 0.100D+01
 Coeff:     -0.115D-01 0.145D-01 0.209D+00 0.788D+00
 Gap=     0.284 Goal=   None    Shift=    0.000
 RMSDP=1.67D-05 MaxDP=4.91D-04 DE=-1.15D-04 OVMax= 2.43D-03

 Cycle   5  Pass 0  IDiag  1:
 E= -526.649546653192     Delta-E=       -0.000014136620 Rises=F Damp=F
 DIIS: error= 7.37D-05 at cycle   5 NSaved=   5.
 NSaved= 5 IEnMin= 5 EnMin= -526.649546653192     IErMin= 5 ErrMin= 7.37D-05
 ErrMax= 7.37D-05  0.00D+00 EMaxC= 1.00D-01 BMatC= 2.99D-06 BMatP= 1.45D-05
 IDIUse=1 WtCom= 1.00D+00 WtEn= 0.00D+00
 Coeff-Com:  0.188D-02-0.614D-01 0.420D-01 0.409D+00 0.608D+00
 Coeff:      0.188D-02-0.614D-01 0.420D-01 0.409D+00 0.608D+00
 Gap=     0.284 Goal=   None    Shift=    0.000
 RMSDP=6.13D-06 MaxDP=1.48D-04 DE=-1.41D-05 OVMax= 6.49D-04

 Initial convergence to 1.0D-05 achieved.  Increase integral accuracy.
 Cycle   6  Pass 1  IDiag  1:
 E= -526.649591684850     Delta-E=       -0.000045031657 Rises=F Damp=F
 DIIS: error= 3.23D-05 at cycle   1 NSaved=   1.
 NSaved= 1 IEnMin= 1 EnMin= -526.649591684850     IErMin= 1 ErrMin= 3.23D-05
 ErrMax= 3.23D-05  0.00D+00 EMaxC= 1.00D-01 BMatC= 1.05D-06 BMatP= 1.05D-06
 IDIUse=1 WtCom= 1.00D+00 WtEn= 0.00D+00
 Coeff-Com:  0.100D+01
 Coeff:      0.100D+01
 Gap=     0.284 Goal=   None    Shift=    0.000
 RMSDP=6.13D-06 MaxDP=1.48D-04 DE=-4.50D-05 OVMax= 8.58D-04

 Cycle   7  Pass 1  IDiag  1:
 E= -526.649591961199     Delta-E=       -0.000000276349 Rises=F Damp=F
 DIIS: error= 4.49D-05 at cycle   2 NSaved=   2.
 NSaved= 2 IEnMin= 2 EnMin= -526.649591961199     IErMin= 1 ErrMin= 3.23D-05
 ErrMax= 4.49D-05  0.00D+00 EMaxC= 1.00D-01 BMatC= 1.06D-06 BMatP= 1.05D-06
 IDIUse=1 WtCom= 1.00D+00 WtEn= 0.00D+00
 Coeff-Com:  0.501D+00 0.499D+00
 Coeff:      0.501D+00 0.499D+00
 Gap=     0.284 Goal=   None    Shift=    0.000
 RMSDP=3.72D-06 MaxDP=1.25D-04 DE=-2.76D-07 OVMax= 5.64D-04

 Cycle   8  Pass 1  IDiag  1:
 E= -526.649592632559     Delta-E=       -0.000000671360 Rises=F Damp=F
 DIIS: error= 2.17D-05 at cycle   3 NSaved=   3.
 NSaved= 3 IEnMin= 3 EnMin= -526.649592632559     IErMin= 3 ErrMin= 2.17D-05
 ErrMax= 2.17D-05  0.00D+00 EMaxC= 1.00D-01 BMatC= 2.04D-07 BMatP= 1.05D-06
 IDIUse=1 WtCom= 1.00D+00 WtEn= 0.00D+00
 Coeff-Com: -0.292D-01 0.294D+00 0.735D+00
 Coeff:     -0.292D-01 0.294D+00 0.735D+00
 Gap=     0.284 Goal=   None    Shift=    0.000
 RMSDP=1.91D-06 MaxDP=5.30D-05 DE=-6.71D-07 OVMax= 3.15D-04

 Cycle   9  Pass 1  IDiag  1:
 E= -526.649592823501     Delta-E=       -0.000000190942 Rises=F Damp=F
 DIIS: error= 5.89D-06 at cycle   4 NSaved=   4.
 NSaved= 4 IEnMin= 4 EnMin= -526.649592823501     IErMin= 4 ErrMin= 5.89D-06
 ErrMax= 5.89D-06  0.00D+00 EMaxC= 1.00D-01 BMatC= 1.80D-08 BMatP= 2.04D-07
 IDIUse=1 WtCom= 1.00D+00 WtEn= 0.00D+00
 Coeff-Com: -0.433D-01 0.116D+00 0.384D+00 0.544D+00
 Coeff:     -0.433D-01 0.116D+00 0.384D+00 0.544D+00
 Gap=     0.284 Goal=   None    Shift=    0.000
 RMSDP=4.14D-07 MaxDP=1.22D-05 DE=-1.91D-07 OVMax= 5.84D-05

 Cycle  10  Pass 1  IDiag  1:
 E= -526.649592840660     Delta-E=       -0.000000017159 Rises=F Damp=F
 DIIS: error= 2.30D-06 at cycle   5 NSaved=   5.
 NSaved= 5 IEnMin= 5 EnMin= -526.649592840660     IErMin= 5 ErrMin= 2.30D-06
 ErrMax= 2.30D-06  0.00D+00 EMaxC= 1.00D-01 BMatC= 1.86D-09 BMatP= 1.80D-08
 IDIUse=1 WtCom= 1.00D+00 WtEn= 0.00D+00
 Coeff-Com: -0.252D-02-0.565D-01-0.908D-01 0.129D+00 0.102D+01
 Coeff:     -0.252D-02-0.565D-01-0.908D-01 0.129D+00 0.102D+01
 Gap=     0.284 Goal=   None    Shift=    0.000
 RMSDP=3.98D-07 MaxDP=1.30D-05 DE=-1.72D-08 OVMax= 7.69D-05

 Cycle  11  Pass 1  IDiag  1:
 E= -526.649592846317     Delta-E=       -0.000000005657 Rises=F Damp=F
 DIIS: error= 1.34D-06 at cycle   6 NSaved=   6.
 NSaved= 6 IEnMin= 6 EnMin= -526.649592846317     IErMin= 6 ErrMin= 1.34D-06
 ErrMax= 1.34D-06  0.00D+00 EMaxC= 1.00D-01 BMatC= 1.06D-09 BMatP= 1.86D-09
 IDIUse=1 WtCom= 1.00D+00 WtEn= 0.00D+00
 Coeff-Com:  0.652D-02-0.588D-01-0.133D+00-0.316D-01 0.640D+00 0.577D+00
 Coeff:      0.652D-02-0.588D-01-0.133D+00-0.316D-01 0.640D+00 0.577D+00
 Gap=     0.284 Goal=   None    Shift=    0.000
 RMSDP=1.54D-07 MaxDP=5.12D-06 DE=-5.66D-09 OVMax= 2.85D-05

 Cycle  12  Pass 1  IDiag  1:
 E= -526.649592847666     Delta-E=       -0.000000001350 Rises=F Damp=F
 DIIS: error= 3.07D-07 at cycle   7 NSaved=   7.
 NSaved= 7 IEnMin= 7 EnMin= -526.649592847666     IErMin= 7 ErrMin= 3.07D-07
 ErrMax= 3.07D-07  0.00D+00 EMaxC= 1.00D-01 BMatC= 6.10D-11 BMatP= 1.06D-09
 IDIUse=1 WtCom= 1.00D+00 WtEn= 0.00D+00
 Coeff-Com:  0.314D-02-0.976D-02-0.300D-01-0.396D-01 0.347D-01 0.185D+00
 Coeff-Com:  0.857D+00
 Coeff:      0.314D-02-0.976D-02-0.300D-01-0.396D-01 0.347D-01 0.185D+00
 Coeff:      0.857D+00
 Gap=     0.284 Goal=   None    Shift=    0.000
 RMSDP=6.91D-08 MaxDP=2.03D-06 DE=-1.35D-09 OVMax= 1.37D-05

 Cycle  13  Pass 1  IDiag  1:
 E= -526.649592847848     Delta-E=       -0.000000000181 Rises=F Damp=F
 DIIS: error= 1.19D-07 at cycle   8 NSaved=   8.
 NSaved= 8 IEnMin= 8 EnMin= -526.649592847848     IErMin= 8 ErrMin= 1.19D-07
 ErrMax= 1.19D-07  0.00D+00 EMaxC= 1.00D-01 BMatC= 5.69D-12 BMatP= 6.10D-11
 IDIUse=1 WtCom= 1.00D+00 WtEn= 0.00D+00
 Coeff-Com: -0.457D-03 0.580D-02 0.134D-01-0.109D-02-0.730D-01-0.583D-01
 Coeff-Com:  0.664D-01 0.105D+01
 Coeff:     -0.457D-03 0.580D-02 0.134D-01-0.109D-02-0.730D-01-0.583D-01
 Coeff:      0.664D-01 0.105D+01
 Gap=     0.284 Goal=   None    Shift=    0.000
 RMSDP=2.85D-08 MaxDP=8.34D-07 DE=-1.81D-10 OVMax= 4.94D-06

 Cycle  14  Pass 1  IDiag  1:
 E= -526.649592847843     Delta-E=        0.000000000005 Rises=F Damp=F
 DIIS: error= 5.71D-08 at cycle   9 NSaved=   9.
 NSaved= 9 IEnMin= 8 EnMin= -526.649592847848     IErMin= 9 ErrMin= 5.71D-08
 ErrMax= 5.71D-08  0.00D+00 EMaxC= 1.00D-01 BMatC= 1.31D-12 BMatP= 5.69D-12
 IDIUse=1 WtCom= 1.00D+00 WtEn= 0.00D+00
 Coeff-Com: -0.342D-03 0.226D-02 0.553D-02 0.458D-02-0.207D-01-0.313D-01
 Coeff-Com: -0.891D-01 0.318D+00 0.811D+00
 Coeff:     -0.342D-03 0.226D-02 0.553D-02 0.458D-02-0.207D-01-0.313D-01
 Coeff:     -0.891D-01 0.318D+00 0.811D+00
 Gap=     0.284 Goal=   None    Shift=    0.000
 RMSDP=7.53D-09 MaxDP=2.33D-07 DE= 4.77D-12 OVMax= 1.19D-06

 SCF Done:  E(RM062X) =  -526.649592848     A.U. after   14 cycles
            NFock= 14  Conv=0.75D-08     -V/T= 2.0037
 KE= 5.247329479350D+02 PE=-1.915091688665D+03 EE= 5.300749880714D+02
 Leave Link  502 at Sun May 25 05:15:02 2025, MaxMem=  3758096384 cpu:              50.0 elap:              10.1
 (Enter /apps/easybuild-2022/easybuild/software/Compiler/NVHPC/22.11-CUDA-11.7.0/Gaussian/g16c01-CUDA-11.7.0/g16/l508.exe)
 QCSCF skips out because SCF is already converged.
 Leave Link  508 at Sun May 25 05:15:02 2025, MaxMem=  3758096384 cpu:               0.1 elap:               0.0
 (Enter /apps/easybuild-2022/easybuild/software/Compiler/NVHPC/22.11-CUDA-11.7.0/Gaussian/g16c01-CUDA-11.7.0/g16/l801.exe)
 DoSCS=F DFT=T ScalE2(SS,OS)=  1.000000  1.000000
 Range of M.O.s used for correlation:     1   231
 NBasis=   231 NAE=    28 NBE=    28 NFC=     0 NFV=     0
 NROrb=    231 NOA=    28 NOB=    28 NVA=   203 NVB=   203

 **** Warning!!: The largest alpha MO coefficient is  0.16709310D+02

 Leave Link  801 at Sun May 25 05:15:02 2025, MaxMem=  3758096384 cpu:               0.0 elap:               0.0
 (Enter /apps/easybuild-2022/easybuild/software/Compiler/NVHPC/22.11-CUDA-11.7.0/Gaussian/g16c01-CUDA-11.7.0/g16/l1101.exe)
 Using compressed storage, NAtomX=     8.
 Will process      9 centers per pass.
   1 Symmetry operations used in ECPInt.
 ECPInt:  NShTT=    3486 NPrTT=   11183 LenC2=    3390 LenP2D=    8667.
 LDataN:  DoStor=T MaxTD1= 7 Len=  274
 Leave Link 1101 at Sun May 25 05:15:03 2025, MaxMem=  3758096384 cpu:               1.0 elap:               0.2
 (Enter /apps/easybuild-2022/easybuild/software/Compiler/NVHPC/22.11-CUDA-11.7.0/Gaussian/g16c01-CUDA-11.7.0/g16/l1102.exe)
 Symmetrizing basis deriv contribution to polar:
 IMax=3 JMax=2 DiffMx= 0.00D+00
 Leave Link 1102 at Sun May 25 05:15:03 2025, MaxMem=  3758096384 cpu:               0.1 elap:               0.0
 (Enter /apps/easybuild-2022/easybuild/software/Compiler/NVHPC/22.11-CUDA-11.7.0/Gaussian/g16c01-CUDA-11.7.0/g16/l1110.exe)
 Forming Gx(P) for the SCF density, NAtomX=     8.
 Integral derivatives from FoFJK, PRISM(SPDF).
 Do as many integral derivatives as possible in FoFJK.
 G2DrvN: MDV=    3758095424.
 G2DrvN: will do     9 centers at a time, making    1 passes.
 Calling FoFCou, ICntrl=  3107 FMM=F I1Cent=   0 AccDes= 0.00D+00.
 FoFJK:  IHMeth= 1 ICntrl=    3107 DoSepK=F KAlg= 0 I1Cent=           0 FoldK=F
 IRaf=         0 NMat=       1 IRICut=       1 DoRegI=T DoRafI=F ISym2E= 0 IDoP0=0 IntGTp=1.
 FoFCou: FMM=F IPFlag=           0 FMFlag=      100000 FMFlg1=           0
         NFxFlg=           0 DoJE=F BraDBF=F KetDBF=F FulRan=T
         wScrn=  0.000000 ICntrl=      3107 IOpCl=  0 I1Cent=           0 NGrid=           0
         NMat0=    1 NMatS0=      1 NMatT0=    0 NMatD0=    1 NMtDS0=    0 NMtDT0=    0
 Symmetry not used in FoFCou.
 End of G2Drv F.D. properties file   721 does not exist.
 End of G2Drv F.D. properties file   722 does not exist.
 End of G2Drv F.D. properties file   788 does not exist.
 Leave Link 1110 at Sun May 25 05:15:17 2025, MaxMem=  3758096384 cpu:             112.3 elap:              14.2
 (Enter /apps/easybuild-2022/easybuild/software/Compiler/NVHPC/22.11-CUDA-11.7.0/Gaussian/g16c01-CUDA-11.7.0/g16/l1002.exe)
 Minotr:  Closed shell wavefunction.
          IDoAtm=11111111
          Direct CPHF calculation.
          Differentiating once with respect to electric field.
                with respect to dipole field.
          Differentiating once with respect to nuclear coordinates.
          Requested convergence is 1.0D-08 RMS, and 1.0D-07 maximum.
          Secondary convergence is 1.0D-12 RMS, and 1.0D-12 maximum.
          NewPWx=T KeepS1=F KeepF1=F KeepIn=T MapXYZ=F SortEE=F KeepMc=T.
         2392 words used for storage of precomputed grid.
 Keep R1 ints in memory in canonical form, NReq=368655240.
 FoFCou: FMM=F IPFlag=           0 FMFlag=           0 FMFlg1=           0
         NFxFlg=           0 DoJE=F BraDBF=F KetDBF=F FulRan=T
         wScrn=  0.000000 ICntrl=       600 IOpCl=  0 I1Cent=           0 NGrid=           0
         NMat0=    1 NMatS0=  26796 NMatT0=    0 NMatD0=    1 NMtDS0=    0 NMtDT0=    0
 Symmetry not used in FoFCou.
 Two-electron integral symmetry not used.
          MDV=    3758096384 using IRadAn=       1.
          Solving linear equations simultaneously, MaxMat=       0.
          There are    27 degrees of freedom in the 1st order CPHF.  IDoFFX=6 NUNeed=     3.
     24 vectors produced by pass  0 Test12= 2.11D-14 3.70D-09 XBig12= 2.09D+01 3.06D+00.
 AX will form    24 AO Fock derivatives at one time.
     24 vectors produced by pass  1 Test12= 2.11D-14 3.70D-09 XBig12= 5.86D+00 6.50D-01.
     24 vectors produced by pass  2 Test12= 2.11D-14 3.70D-09 XBig12= 3.69D-01 1.51D-01.
     24 vectors produced by pass  3 Test12= 2.11D-14 3.70D-09 XBig12= 1.04D-02 2.11D-02.
     24 vectors produced by pass  4 Test12= 2.11D-14 3.70D-09 XBig12= 1.34D-04 2.50D-03.
     24 vectors produced by pass  5 Test12= 2.11D-14 3.70D-09 XBig12= 1.08D-06 2.01D-04.
     24 vectors produced by pass  6 Test12= 2.11D-14 3.70D-09 XBig12= 7.23D-09 1.25D-05.
     10 vectors produced by pass  7 Test12= 2.11D-14 3.70D-09 XBig12= 3.20D-11 1.01D-06.
      3 vectors produced by pass  8 Test12= 2.11D-14 3.70D-09 XBig12= 1.21D-13 4.84D-08.
      1 vectors produced by pass  9 Test12= 2.11D-14 3.70D-09 XBig12= 5.77D-16 4.33D-09.
 InvSVY:  IOpt=1 It=  1 EMax= 1.78D-15
 Solved reduced A of dimension   182 with    27 vectors.
 FullF1:  Do perturbations      1 to       3.
 Isotropic polarizability for W=    0.000000       41.20 Bohr**3.
 End of Minotr F.D. properties file   721 does not exist.
 End of Minotr F.D. properties file   722 does not exist.
 End of Minotr F.D. properties file   788 does not exist.
 Leave Link 1002 at Sun May 25 05:15:39 2025, MaxMem=  3758096384 cpu:             176.3 elap:              22.7
 (Enter /apps/easybuild-2022/easybuild/software/Compiler/NVHPC/22.11-CUDA-11.7.0/Gaussian/g16c01-CUDA-11.7.0/g16/l701.exe)
 ... and contract with generalized density number  0.
 Compute integral second derivatives.
   1 Symmetry operations used in ECPInt.
 ECPInt:  NShTT=    3486 NPrTT=   11183 LenC2=    3390 LenP2D=    8667.
 LDataN:  DoStor=T MaxTD1= 8 Len=  415
 Leave Link  701 at Sun May 25 05:15:40 2025, MaxMem=  3758096384 cpu:               1.0 elap:               0.2
 (Enter /apps/easybuild-2022/easybuild/software/Compiler/NVHPC/22.11-CUDA-11.7.0/Gaussian/g16c01-CUDA-11.7.0/g16/l702.exe)
 L702 exits ... SP integral derivatives will be done elsewhere.
 Leave Link  702 at Sun May 25 05:15:40 2025, MaxMem=  3758096384 cpu:               0.1 elap:               0.0
 (Enter /apps/easybuild-2022/easybuild/software/Compiler/NVHPC/22.11-CUDA-11.7.0/Gaussian/g16c01-CUDA-11.7.0/g16/l703.exe)
 Integral derivatives from FoFJK, PRISM(SPDF).
 Compute integral second derivatives, UseDBF=F ICtDFT=           0.
 Calling FoFJK, ICntrl=    100127 FMM=F ISym2X=0 I1Cent= 0 IOpClX= 0 NMat=1 NMatS=1 NMatT=0.
 FoFJK:  IHMeth= 1 ICntrl=  100127 DoSepK=F KAlg= 0 I1Cent=           0 FoldK=F
 IRaf=         0 NMat=       1 IRICut=       1 DoRegI=T DoRafI=F ISym2E= 0 IDoP0=0 IntGTp=1.
 FoFCou: FMM=F IPFlag=           0 FMFlag=      100000 FMFlg1=         800
         NFxFlg=           0 DoJE=F BraDBF=F KetDBF=F FulRan=T
         wScrn=  0.000000 ICntrl=    100127 IOpCl=  0 I1Cent=           0 NGrid=           0
         NMat0=    1 NMatS0=      1 NMatT0=    0 NMatD0=    1 NMtDS0=    0 NMtDT0=    0
 Symmetry not used in FoFCou.
 Leave Link  703 at Sun May 25 05:16:15 2025, MaxMem=  3758096384 cpu:             279.7 elap:              35.7
 (Enter /apps/easybuild-2022/easybuild/software/Compiler/NVHPC/22.11-CUDA-11.7.0/Gaussian/g16c01-CUDA-11.7.0/g16/l716.exe)
 Dipole        =-1.70596504D-01-2.28064224D-01 7.13518821D-01
 Polarizability= 3.57286607D+01-8.88832994D+00 3.97601096D+01
                 6.77750669D+00-1.28176351D+01 4.81252608D+01
 -------------------------------------------------------------------
 Center     Atomic                   Forces (Hartrees/Bohr)
 Number     Number              X              Y              Z
 -------------------------------------------------------------------
      1        6          -0.000397467    0.000142042    0.000007702
      2        8          -0.003364315   -0.003411439    0.010409446
      3        6           0.000355762    0.000087215   -0.000357841
      4        9          -0.000072483    0.000100874    0.000000313
      5        9          -0.000132021   -0.000168609   -0.000153491
      6        9           0.000120615    0.000032281   -0.000075815
      7        8          -0.000146412    0.000328289   -0.000068926
      8        1           0.003636321    0.002889346   -0.009761388
 -------------------------------------------------------------------
 Cartesian Forces:  Max     0.010409446 RMS     0.003220051
 Force constants in Cartesian coordinates: 
                1             2             3             4             5 
      1  0.197754D+00
      2 -0.782500D-01  0.213232D+00
      3 -0.394605D-01 -0.171451D+00  0.738099D+00
      4  0.793732D-03  0.515585D-01 -0.889527D-01  0.132614D+00
      5  0.370317D-01 -0.355295D-01  0.925844D-01 -0.105285D-01  0.974789D-01
      6 -0.402761D-01  0.480948D-01 -0.228135D-01 -0.151422D+00 -0.133098D+00
      7 -0.100905D+00  0.271861D-01  0.573603D-01 -0.172784D-01  0.417854D-02
      8  0.350125D-01 -0.665806D-01 -0.365084D-01 -0.489555D-02 -0.116316D-01
      9  0.331116D-01 -0.161423D-01 -0.881762D-01  0.205262D-01 -0.247192D-01
     10 -0.395349D-01 -0.865583D-02  0.970751D-02  0.107191D-01 -0.157768D-01
     11 -0.182564D-02  0.848128D-02  0.233728D-02  0.117456D-02 -0.214814D-02
     12  0.164978D-01  0.919276D-04  0.453009D-02 -0.288608D-03  0.794753D-02
     13  0.768488D-02  0.110210D-01  0.481352D-02  0.372823D-02 -0.438389D-04
     14  0.194103D-02 -0.263199D-01 -0.218494D-01 -0.124716D-01  0.960587D-02
     15  0.502273D-02 -0.254646D-01 -0.766390D-02 -0.959549D-02  0.458419D-02
     16  0.855573D-02 -0.461696D-02  0.184900D-01  0.135178D-02 -0.683009D-03
     17  0.299784D-02  0.700166D-02  0.160771D-02 -0.405625D-03  0.154042D-02
     18 -0.550515D-02  0.223867D-01 -0.445220D-01 -0.212876D-04  0.217126D-03
     19 -0.650778D-01 -0.840167D-02  0.445001D-01 -0.560631D-01  0.151365D-01
     20 -0.514535D-02 -0.958093D-01  0.130612D+00 -0.108886D-01 -0.642564D-02
     21  0.293992D-01  0.143838D+00 -0.583624D+00  0.104716D+00 -0.742621D-01
     22 -0.927045D-02  0.101589D-01 -0.645823D-02 -0.758650D-01 -0.293146D-01
     23  0.823800D-02 -0.447554D-02  0.266775D-02 -0.135432D-01 -0.528903D-01
     24  0.121032D-02 -0.135330D-02  0.417110D-02  0.125039D+00  0.126746D+00
                6             7             8             9            10 
      6  0.487548D+00
      7 -0.725632D-02  0.558052D+00
      8 -0.869394D-03 -0.569465D-02  0.557809D+00
      9  0.636161D-02 -0.179185D-02 -0.897562D-02  0.582069D+00
     10  0.430517D-02 -0.307316D+00 -0.419256D-01 -0.319871D-01  0.398670D+00
     11  0.417269D-02 -0.327190D-01 -0.795450D-01 -0.849805D-02  0.745016D-01
     12 -0.530805D-02 -0.259079D-01 -0.504260D-02 -0.827551D-01  0.900173D-01
     13 -0.527940D-03 -0.753863D-01  0.155369D-02  0.562539D-02 -0.171535D-01
     14 -0.281013D-02 -0.796638D-02 -0.303717D+00 -0.539215D-01 -0.395842D-01
     15 -0.901587D-02 -0.358079D-03 -0.578470D-01 -0.907091D-01 -0.126399D-01
     16  0.620260D-03 -0.835389D-01  0.181241D-01 -0.308262D-01 -0.357180D-01
     17 -0.273598D-03  0.171107D-01 -0.117593D+00  0.888661D-01  0.109625D-01
     18  0.442602D-03 -0.270353D-01  0.856505D-01 -0.265476D+00 -0.459683D-01
     19  0.393383D-01  0.287764D-01 -0.400388D-02  0.500785D-02 -0.105396D-01
     20 -0.181571D-01 -0.257506D-02  0.230379D-01  0.224691D-01  0.202318D-01
     21 -0.460008D-01  0.298075D-02  0.242907D-01 -0.593858D-01 -0.112260D-01
     22  0.155219D+00 -0.240357D-02  0.182940D-02  0.334075D-03  0.873747D-03
     23  0.102941D+00  0.479837D-03 -0.178000D-02  0.921293D-03  0.246526D-03
     24 -0.411214D+00  0.200845D-02 -0.698238D-03 -0.192861D-02 -0.220864D-02
               11            12            13            14            15 
     11  0.917556D-01
     12  0.917801D-02  0.100702D+00
     13 -0.583627D-01 -0.190021D-01  0.729715D-01
     14 -0.312411D-01 -0.141196D-01  0.370185D-01  0.430054D+00
     15 -0.136414D-01  0.744341D-02  0.130679D-01  0.449962D-01  0.876341D-01
     16  0.179843D-01 -0.626576D-01  0.134380D-01  0.632739D-02 -0.247990D-02
     17  0.130897D-01  0.634710D-02  0.785086D-02 -0.675480D-01  0.531952D-01
     18  0.101901D-01 -0.287389D-01 -0.258425D-02  0.348847D-01  0.274724D-02
     19  0.208800D-03 -0.213006D-05 -0.558990D-02  0.155608D-01  0.688889D-02
     20 -0.911634D-03 -0.382562D-02  0.126156D-02 -0.104487D-01 -0.389900D-02
     21 -0.352768D-02  0.349118D-02 -0.818779D-03  0.113491D-01  0.887697D-02
     22 -0.961926D-03  0.134325D-02  0.307007D-03 -0.825571D-03  0.938653D-04
     23  0.519274D-03 -0.576765D-03 -0.299169D-03 -0.385565D-03 -0.192363D-02
     24 -0.210945D-03  0.635242D-03 -0.573725D-03  0.147072D-02  0.687172D-03
               16            17            18            19            20 
     16  0.993044D-01
     17 -0.373878D-01  0.164787D+00
     18  0.737108D-01 -0.149678D+00  0.346249D+00
     19 -0.366575D-02 -0.809353D-03  0.712639D-02  0.101141D+00
     20  0.276167D-03 -0.140308D-02 -0.314630D-02 -0.703838D-02  0.978605D-01
     21  0.351491D-02 -0.122095D-03 -0.112461D-01 -0.102404D+00 -0.125212D+00
     22  0.272761D-03 -0.319042D-03  0.277082D-03  0.110189D-01  0.387784D-02
     23 -0.242303D-04  0.125056D-03 -0.504745D-03 -0.106528D-01 -0.590001D-02
     24 -0.372346D-03  0.575712D-04  0.544488D-03 -0.455011D-03  0.115872D-02
               21            22            23            24 
     21  0.693687D+00
     22 -0.261613D-01  0.750665D-01
     23  0.236458D-01  0.155550D-01  0.647871D-01
     24 -0.579799D-02 -0.124648D+00 -0.127170D+00  0.412903D+00
 Leave Link  716 at Sun May 25 05:16:15 2025, MaxMem=  3758096384 cpu:               0.1 elap:               0.0
 (Enter /apps/easybuild-2022/easybuild/software/Compiler/NVHPC/22.11-CUDA-11.7.0/Gaussian/g16c01-CUDA-11.7.0/g16/l103.exe)

 GradGradGradGradGradGradGradGradGradGradGradGradGradGradGradGradGradGrad
 Berny optimization.
 Search for a local minimum.
 Step number   2 out of a maximum of   34
 All quantities printed in internal units (Hartrees-Bohrs-Radians)
 Second derivative matrix not updated -- analytic derivatives used.
 DE= -7.85D-04 DEPred=-9.07D-04 R= 8.65D-01
 TightC=F SS=  1.41D+00  RLast= 2.55D-01 DXNew= 5.0454D-01 7.6364D-01
 Trust test= 8.65D-01 RLast= 2.55D-01 DXMaxT set to 5.05D-01
 ITU=  1  0
     Eigenvalues ---    0.00381   0.01166   0.01750   0.03877   0.05183
     Eigenvalues ---    0.06393   0.12389   0.14713   0.18787   0.19596
     Eigenvalues ---    0.23545   0.31939   0.44247   0.81643   0.83132
     Eigenvalues ---    0.84090   0.99296   1.41263
 RFO step:  Lambda=-2.74946905D-04 EMin= 3.80650869D-03
 Quintic linear search produced a step of -0.12239.
 B after Tr=    -0.010949   -0.005127   -0.009666
         Rot=    0.999999   -0.001123    0.000742    0.000931 Ang=  -0.19 deg.
 Variable       Old X    -DE/DX   Delta X   Delta X   Delta X     New X
                                 (Linear)    (Quad)   (Total)
    X1        0.47401  -0.00040   0.00035  -0.00692  -0.00771   0.46629
    Y1        3.33802   0.00014  -0.00120  -0.00978  -0.01151   3.32651
    Z1       -2.43806   0.00001  -0.00128  -0.00013  -0.00290  -2.44096
    X2        2.90046  -0.00336   0.00576   0.00253  -0.00197   2.89849
    Y2        0.48725  -0.00341   0.01359  -0.00828  -0.00557   0.48168
    Z2        0.13033   0.01041  -0.00033   0.01826   0.01367   0.14400
    X3        2.28421   0.00036   0.00241  -0.00296  -0.00025   2.28396
    Y3        2.43990   0.00009  -0.00153  -0.00084  -0.00158   2.43832
    Z3       -4.52885  -0.00036   0.00559  -0.00864  -0.00384  -4.53268
    X4        4.66078  -0.00007   0.00225  -0.00433  -0.00167   4.65910
    Y4        2.97616   0.00010   0.00472  -0.01450  -0.01475   2.96141
    Z4       -3.94258   0.00000   0.00021   0.00460   0.00873  -3.93384
    X5        2.02937  -0.00013  -0.00463  -0.00273  -0.01105   2.01833
    Y5       -0.02391  -0.00017  -0.00051   0.00026   0.00191  -0.02200
    Z5       -4.91019  -0.00015   0.00926  -0.02187  -0.01932  -4.92951
    X6        1.72422   0.00012  -0.00160   0.00880   0.01289   1.73711
    Y6        3.61988   0.00003  -0.00713   0.01586   0.01533   3.63520
    Z6       -6.66719  -0.00008   0.00365  -0.00240   0.00232  -6.66487
    X7        0.69832  -0.00015   0.00444  -0.01202  -0.01343   0.68488
    Y7        2.47725   0.00033   0.00175   0.00057  -0.00336   2.47390
    Z7       -0.33383  -0.00007   0.00053   0.00069  -0.00184  -0.33567
    X8        2.37773   0.00364  -0.00897   0.04585   0.02320   2.40093
    Y8       -0.04033   0.00289  -0.00969   0.04296   0.01954  -0.02079
    Z8        1.82043  -0.00976  -0.01763   0.02691   0.00316   1.82360
         Item               Value     Threshold  Converged?
 Maximum Force            0.010409     0.000450     NO 
 RMS     Force            0.003220     0.000300     NO 
 Maximum Displacement     0.023198     0.001800     NO 
 RMS     Displacement     0.010737     0.001200     NO 
 Predicted change in Energy=-1.293590D-04
 Lowest energy point so far.  Saving SCF results.
 GradGradGradGradGradGradGradGradGradGradGradGradGradGradGradGradGradGrad

 Leave Link  103 at Sun May 25 05:16:15 2025, MaxMem=  3758096384 cpu:               0.1 elap:               0.0
 (Enter /apps/easybuild-2022/easybuild/software/Compiler/NVHPC/22.11-CUDA-11.7.0/Gaussian/g16c01-CUDA-11.7.0/g16/l202.exe)
                          Input orientation:                          
 ---------------------------------------------------------------------
 Center     Atomic      Atomic             Coordinates (Angstroms)
 Number     Number       Type             X           Y           Z
 ---------------------------------------------------------------------
      1          6           0        0.246752    1.760314   -1.291699
      2          8           0        1.533815    0.254892    0.076202
      3          6           0        1.208621    1.290302   -2.398592
      4          9           0        2.465492    1.567111   -2.081699
      5          9           0        1.068052   -0.011641   -2.608587
      6          9           0        0.919242    1.923667   -3.526898
      7          8           0        0.362424    1.309129   -0.177628
      8          1           0        1.270518   -0.011000    0.965005
 ---------------------------------------------------------------------
                    Distance matrix (angstroms):
                    1          2          3          4          5
     1  C    0.000000
     2  O    2.407069   0.000000
     3  C    1.539908   2.702302   0.000000
     4  F    2.363099   2.691929   1.325432   0.000000
     5  F    2.355536   2.737894   1.326240   2.173225   0.000000
     6  F    2.339881   4.018064   1.325883   2.146304   2.147290
     7  O    1.207519   1.596246   2.376781   2.848673   2.855154
     8  H    3.046041   0.964362   3.607077   3.633291   3.579323
                    6          7          8
     6  F    0.000000
     7  O    3.450408   0.000000
     8  H    4.903419   1.967990   0.000000
 Symmetry turned off by external request.
 Stoichiometry    C2HF3O2
 Rotational constants (GHZ):           4.7452676           2.1242761           1.9846688
 Leave Link  202 at Sun May 25 05:16:16 2025, MaxMem=  3758096384 cpu:               0.1 elap:               0.1
 (Enter /apps/easybuild-2022/easybuild/software/Compiler/NVHPC/22.11-CUDA-11.7.0/Gaussian/g16c01-CUDA-11.7.0/g16/l301.exe)
 Standard basis: def2TZVPP (5D, 7F)
 Ernie: Thresh=  0.10000D-02 Tol=  0.10000D-05 Strict=F.
   231 basis functions,   374 primitive gaussians,   267 cartesian basis functions
    28 alpha electrons       28 beta electrons
       nuclear repulsion energy       333.4022081564 Hartrees.
 IExCor= 4336 DFT=T Ex+Corr=M062X ExCW=0 ScaHFX=  0.540000
 ScaDFX=  1.000000  1.000000  1.000000  1.000000 ScalE2=  1.000000  1.000000
 IRadAn=      5 IRanWt=     -1 IRanGd=            0 ICorTp=0 IEmpDi=  4
 NAtoms=    8 NActive=    8 NUniq=    8 SFac= 1.00D+00 NAtFMM=   60 NAOKFM=F Big=F
 Integral buffers will be    131072 words long.
 Raffenetti 2 integral format.
 Two-electron integral symmetry is turned off.
 Leave Link  301 at Sun May 25 05:16:16 2025, MaxMem=  3758096384 cpu:               0.1 elap:               0.1
 (Enter /apps/easybuild-2022/easybuild/software/Compiler/NVHPC/22.11-CUDA-11.7.0/Gaussian/g16c01-CUDA-11.7.0/g16/l302.exe)
 NPDir=0 NMtPBC=     1 NCelOv=     1 NCel=       1 NClECP=     1 NCelD=      1
         NCelK=      1 NCelE2=     1 NClLst=     1 CellRange=     0.0.
 One-electron integrals computed using PRISM.
   1 Symmetry operations used in ECPInt.
 ECPInt:  NShTT=    3486 NPrTT=   11183 LenC2=    3390 LenP2D=    8663.
 LDataN:  DoStor=T MaxTD1= 6 Len=  172
 NBasis=   231 RedAO= T EigKep=  5.87D-04  NBF=   231
 NBsUse=   231 1.00D-06 EigRej= -1.00D+00 NBFU=   231
 Precomputing XC quadrature grid using
 IXCGrd= 4 IRadAn=           5 IRanWt=          -1 IRanGd=           0 AccXCQ= 0.00D+00.
 Generated NRdTot=       0 NPtTot=           0 NUsed=           0 NTot=          32
 NSgBfM=   266   266   266   266   266 MxSgAt=     8 MxSgA2=     8.
 Leave Link  302 at Sun May 25 05:16:16 2025, MaxMem=  3758096384 cpu:               0.8 elap:               0.2
 (Enter /apps/easybuild-2022/easybuild/software/Compiler/NVHPC/22.11-CUDA-11.7.0/Gaussian/g16c01-CUDA-11.7.0/g16/l303.exe)
 DipDrv:  MaxL=1.
 Leave Link  303 at Sun May 25 05:16:16 2025, MaxMem=  3758096384 cpu:               0.1 elap:               0.0
 (Enter /apps/easybuild-2022/easybuild/software/Compiler/NVHPC/22.11-CUDA-11.7.0/Gaussian/g16c01-CUDA-11.7.0/g16/l401.exe)
 Initial guess from the checkpoint file:  "/tmp/Gau-124500.chk"
 B after Tr=    -0.012795   -0.003577   -0.008330
         Rot=    0.999998   -0.001027    0.000841    0.001131 Ang=  -0.20 deg.
 Guess basis will be translated and rotated to current coordinates.
 JPrj=2 DoOrth=T DoCkMO=T.
 Generating alternative initial guess.
 ExpMin= 9.52D-02 ExpMax= 3.55D+04 ExpMxC= 1.21D+03 IAcc=3 IRadAn=         5 AccDes= 0.00D+00
 Harris functional with IExCor= 1009 and IRadAn=       5 diagonalized for initial guess.
 HarFok:  IExCor= 1009 AccDes= 0.00D+00 IRadAn=         5 IDoV= 1 UseB2=F ITyADJ=14
 ICtDFT=  3500011 ScaDFX=  1.000000  1.000000  1.000000  1.000000
 FoFCou: FMM=F IPFlag=           0 FMFlag=      100000 FMFlg1=           0
         NFxFlg=           0 DoJE=T BraDBF=F KetDBF=T FulRan=T
         wScrn=  0.000000 ICntrl=       500 IOpCl=  0 I1Cent=   200000004 NGrid=           0
         NMat0=    1 NMatS0=      1 NMatT0=    0 NMatD0=    1 NMtDS0=    0 NMtDT0=    0
 Symmetry not used in FoFCou.
 Harris En= -526.358288158930    
[...]
 Vib (Bot)    2  0.130868D+01          0.116833          0.269017
 Vib (Bot)    3  0.100242D+01          0.001051          0.002420
 Vib (Bot)    4  0.798400D+00         -0.097780         -0.225146
 Vib (Bot)    5  0.636640D+00         -0.196106         -0.451550
 Vib (Bot)    6  0.409292D+00         -0.387967         -0.893327
 Vib (Bot)    7  0.332265D+00         -0.478516         -1.101823
 Vib (Bot)    8  0.331232D+00         -0.479867         -1.104935
 Vib (Bot)    9  0.285963D+00         -0.543691         -1.251894
 Vib (V=0)       0.309752D+02          1.491014          3.433187
 Vib (V=0)    1  0.321304D+01          0.506916          1.167217
 Vib (V=0)    2  0.190094D+01          0.278969          0.642349
 Vib (V=0)    3  0.162020D+01          0.209569          0.482551
 Vib (V=0)    4  0.144204D+01          0.158978          0.366060
 Vib (V=0)    5  0.130951D+01          0.117110          0.269655
 Vib (V=0)    6  0.114616D+01          0.059244          0.136415
 Vib (V=0)    7  0.110033D+01          0.041524          0.095613
 Vib (V=0)    8  0.109976D+01          0.041299          0.095094
 Vib (V=0)    9  0.107600D+01          0.031812          0.073249
 Electronic      0.100000D+01          0.000000          0.000000
 Translational   0.478377D+08          7.679770         17.683325
 Rotational      0.193784D+06          5.287317         12.174498
 
                                                    Gaussian input prepared by AS
 E
                                                             IR Spectrum
 
     3                                                                        1          1111                                        
     8                                                                        6          2222           8   7   6 544 4    22 11     
     4                                                                        6          7651           5   4   2 499 2    94 95  7  
     8                                                                        5          7232           5   3   4 976 7    95 95  7  
 
     X                                                                        X          XXXX           X   X   X XXX X    XX XX  X  
     X                                                                        X          XXXX                         X    X   X     
     X                                                                        X          XXXX                         X    X   X     
     X                                                                        X          XXXX                         X    X   X     
     X                                                                        X          XXX                          X    X   X     
     X                                                                        X          XXX                          X    X   X     
     X                                                                        X          XXX                          X              
     X                                                                                   XXX                          X              
                                                                                         XXX                          X              
                                                                                         XXX                          X              
                                                                                         XXX                          X              
                                                                                         XX                           X              
                                                                                         XX                           X              
                                                                                         XX                           X              
                                                                                         XX                                          
                                                                                         XX                                          
                                                                                         XX                                          
                                                                                         X                                           
                                                                                         X                                           
                                                                                         X                                           
 
 -------------------------------------------------------------------
 Center     Atomic                   Forces (Hartrees/Bohr)
 Number     Number              X              Y              Z
 -------------------------------------------------------------------
      1        6          -0.000001145   -0.000000779   -0.000001639
      2        8           0.000019014    0.000008783   -0.000060520
      3        6          -0.000000594    0.000000091    0.000000066
      4        9          -0.000000714    0.000001225   -0.000000438
      5        9           0.000000014    0.000000785   -0.000000439
      6        9          -0.000002075    0.000001240    0.000000962
      7        8           0.000000002   -0.000001797    0.000005745
      8        1          -0.000014502   -0.000009548    0.000056263
 -------------------------------------------------------------------
 Cartesian Forces:  Max     0.000060520 RMS     0.000017818
 Force constants in Cartesian coordinates: 
                1             2             3             4             5 
      1  0.195177D+00
      2 -0.751982D-01  0.219697D+00
      3 -0.465585D-01 -0.178539D+00  0.736260D+00
      4  0.156702D-02  0.513016D-01 -0.871746D-01  0.986202D-01
      5  0.347573D-01 -0.369946D-01  0.934332D-01 -0.351418D-01  0.724492D-01
      6 -0.387212D-01  0.505573D-01 -0.222611D-01 -0.122489D+00 -0.900695D-01
      7 -0.100047D+00  0.267721D-01  0.559574D-01 -0.176398D-01  0.459489D-02
      8  0.347029D-01 -0.665025D-01 -0.363221D-01 -0.489794D-02 -0.107654D-01
      9  0.327699D-01 -0.158444D-01 -0.871379D-01  0.200862D-01 -0.252556D-01
     10 -0.399614D-01 -0.863866D-02  0.966354D-02  0.106704D-01 -0.157746D-01
     11 -0.173401D-02  0.854780D-02  0.233495D-02  0.105666D-02 -0.217330D-02
     12  0.161287D-01 -0.266441D-04  0.478577D-02  0.138983D-03  0.769309D-02
     13  0.762777D-02  0.109711D-01  0.503995D-02  0.367360D-02 -0.551256D-04
     14  0.189509D-02 -0.258128D-01 -0.223396D-01 -0.122917D-01  0.954851D-02
     15  0.507660D-02 -0.256664D-01 -0.844960D-02 -0.991091D-02  0.533632D-02
     16  0.851503D-02 -0.504288D-02  0.187250D-01  0.144433D-02 -0.640000D-03
     17  0.302756D-02  0.667427D-02  0.203514D-02 -0.391976D-03  0.143584D-02
     18 -0.484741D-02  0.229154D-01 -0.441515D-01 -0.602490D-04  0.252931D-03
     19 -0.649478D-01 -0.109670D-01  0.496609D-01 -0.518424D-01  0.155864D-01
     20 -0.597151D-02 -0.991705D-01  0.135660D+00 -0.697133D-02 -0.597499D-02
     21  0.346970D-01  0.148764D+00 -0.583946D+00  0.102343D+00 -0.800957D-01
     22 -0.792995D-02  0.108018D-01 -0.531380D-02 -0.464932D-01 -0.332704D-02
     23  0.852087D-02 -0.643892D-02  0.373734D-02  0.733643D-02 -0.275252D-01
     24  0.145498D-02 -0.216014D-02  0.490015D-02  0.970668D-01  0.887053D-01
                6             7             8             9            10 
      6  0.574061D+00
      7 -0.755149D-02  0.556826D+00
      8 -0.827532D-03 -0.512467D-02  0.558996D+00
      9  0.667665D-02 -0.751681D-03 -0.942897D-02  0.580074D+00
     10  0.419122D-02 -0.307461D+00 -0.405070D-01 -0.347069D-01  0.398396D+00
     11  0.428149D-02 -0.312924D-01 -0.790591D-01 -0.866860D-02  0.718963D-01
     12 -0.518938D-02 -0.281031D-01 -0.533563D-02 -0.832038D-01  0.932169D-01
     13 -0.447561D-03 -0.754832D-01  0.523259D-03  0.548048D-02 -0.173153D-01
     14 -0.319451D-02 -0.896732D-02 -0.302924D+00 -0.561499D-01 -0.393034D-01
     15 -0.948630D-02 -0.719623D-03 -0.600109D-01 -0.916458D-01 -0.132588D-01
     16  0.620274D-03 -0.828918D-01  0.177710D-01 -0.287852D-01 -0.347466D-01
     17 -0.336032D-03  0.166336D-01 -0.119886D+00  0.909213D-01  0.116853D-01
     18  0.388629D-03 -0.253040D-01  0.877791D-01 -0.263991D+00 -0.458629D-01
     19  0.369406D-01  0.292112D-01 -0.406583D-02  0.597025D-02 -0.100119D-01
     20 -0.223380D-01 -0.352436D-02  0.218866D-01  0.238245D-01  0.205910D-01
     21 -0.488767D-01  0.460009D-02  0.252277D-01 -0.585307D-01 -0.110011D-01
     22  0.127457D+00 -0.251499D-02  0.159828D-02 -0.628952D-04  0.428877D-03
     23  0.619269D-01  0.908157D-03 -0.174551D-02  0.601719D-03  0.512092D-04
     24 -0.495313D+00  0.187243D-02 -0.108163D-02 -0.224160D-02 -0.224203D-02
               11            12            13            14            15 
     11  0.908031D-01
     12  0.918743D-02  0.102343D+00
     13 -0.580662D-01 -0.198818D-01  0.731859D-01
     14 -0.304152D-01 -0.147030D-01  0.385340D-01  0.429178D+00
     15 -0.144762D-01  0.691258D-02  0.136396D-01  0.488962D-01  0.888737D-01
     16  0.188226D-01 -0.625289D-01  0.135313D-01  0.564689D-02 -0.208470D-02
     17  0.127635D-01  0.724985D-02  0.707136D-02 -0.685454D-01  0.524624D-01
     18  0.110464D-01 -0.294217D-01 -0.223852D-02  0.340811D-01  0.361858D-02
     19  0.351134D-03 -0.378920D-03 -0.563218D-02  0.153063D-01  0.700929D-02
     20 -0.809987D-03 -0.366387D-02  0.140203D-02 -0.111013D-01 -0.469773D-02
     21 -0.352090D-02  0.308309D-02 -0.107556D-02  0.115961D-01  0.926115D-02
     22 -0.103399D-02  0.140818D-02  0.411998D-03 -0.819794D-03  0.248494D-03
     23  0.343250D-03 -0.401210D-03 -0.380418D-03  0.722603D-04 -0.184365D-02
     24 -0.184566D-03  0.689982D-03 -0.516571D-03  0.181361D-02  0.915700D-03
               16            17            18            19            20 
     16  0.977559D-01
     17 -0.368165D-01  0.168648D+00
     18  0.709297D-01 -0.152431D+00  0.344093D+00
     19 -0.381388D-02 -0.896832D-03  0.708523D-02  0.985364D-01
     20  0.338350D-03 -0.128398D-02 -0.316950D-02 -0.571910D-02  0.992814D-01
     21  0.350258D-02 -0.221656D-04 -0.111059D-01 -0.105927D+00 -0.126975D+00
     22  0.205651D-03 -0.312510D-03  0.298141D-03  0.850046D-02 -0.145035D-03
     23 -0.794819D-04  0.193252D-03 -0.474456D-03 -0.959505D-02 -0.282717D-02
     24 -0.378709D-03  0.120408D-03  0.569825D-03 -0.360007D-03  0.135973D-02
               21            22            23            24 
     21  0.695734D+00
     22 -0.271385D-01  0.473912D-01
     23  0.250261D-01 -0.676172D-02  0.379281D-01
     24 -0.561904D-02 -0.968969D-01 -0.885727D-01  0.496098D+00
 Leave Link  716 at Sun May 25 05:33:42 2025, MaxMem=  3758096384 cpu:               0.1 elap:               0.0
 (Enter /apps/easybuild-2022/easybuild/software/Compiler/NVHPC/22.11-CUDA-11.7.0/Gaussian/g16c01-CUDA-11.7.0/g16/l9999.exe)

 ----------------------------------------------------------------------

 Electric dipole moment (input orientation):
 (Debye = 10**-18 statcoulomb cm , SI units = C m)
                  (au)            (Debye)         (10**-30 SI)
   Tot        0.750384D+00      0.190729D+01      0.636202D+01
   x         -0.121744D+00     -0.309443D+00     -0.103219D+01
   y         -0.146429D+00     -0.372185D+00     -0.124148D+01
   z          0.725819D+00      0.184485D+01      0.615375D+01

 Dipole polarizability, Alpha (input orientation).
 (esu units = cm**3 , SI units = C**2 m**2 J**-1)
 Alpha(0;0):
               (au)            (10**-24 esu)      (10**-40 SI)
   iso        0.412390D+02      0.611100D+01      0.679940D+01
   aniso      0.316640D+02      0.469212D+01      0.522068D+01
   xx         0.354018D+02      0.524601D+01      0.583697D+01
   yx        -0.901977D+01     -0.133659D+01     -0.148716D+01
   yy         0.401998D+02      0.595699D+01      0.662805D+01
   zx         0.671711D+01      0.995373D+00      0.110750D+01
   zy        -0.129038D+02     -0.191214D+01     -0.212754D+01
   zz         0.481155D+02      0.712999D+01      0.793318D+01

 ----------------------------------------------------------------------

 Dipole orientation:
     6          0.01534380          2.78410025         -3.08661412
     8          2.79362762          0.35538882         -0.43225217
     6          1.48105495          1.47383097         -5.23150940
     9          3.91385925          2.06406002         -5.12715709
     9          1.19269641         -1.01194003         -5.10527686
     9          0.58531885          2.25069201         -7.43868678
     8          0.56107114          2.31932281         -0.91957437
     1          2.74486513          0.39460856          1.39144303

 Electric dipole moment (dipole orientation):
 (Debye = 10**-18 statcoulomb cm , SI units = C m)
                  (au)            (Debye)         (10**-30 SI)
   Tot        0.750384D+00      0.190729D+01      0.636202D+01
   x          0.000000D+00      0.000000D+00      0.000000D+00
   y          0.000000D+00      0.000000D+00      0.000000D+00
   z          0.750384D+00      0.190729D+01      0.636202D+01

 Dipole polarizability, Alpha (dipole orientation).
 (esu units = cm**3 , SI units = C**2 m**2 J**-1)
 Alpha(0;0):
               (au)            (10**-24 esu)      (10**-40 SI)
   iso        0.412390D+02      0.611100D+01      0.679940D+01
   aniso      0.316640D+02      0.469212D+01      0.522068D+01
   xx         0.382420D+02      0.566688D+01      0.630525D+01
   yx        -0.913917D+01     -0.135429D+01     -0.150685D+01
   yy         0.358039D+02      0.530559D+01      0.590327D+01
   zx         0.105661D+02      0.156574D+01      0.174212D+01
   zy        -0.917729D+01     -0.135993D+01     -0.151313D+01
   zz         0.496712D+02      0.736052D+01      0.818968D+01

 ----------------------------------------------------------------------
 Unable to Open any file for archive entry.
 1\1\GINC-SPARTAN-BM163\Freq\RM062X\def2TZVPP\C2H1F3O2\AKHALILOV\25-May
 -2025\0\\#P M062X/Def2TZVPP Symm(None) scf(xqc) pop(None) opt(CalcAll,
 Cartesian)\\Gaussian input prepared by ASE\\0,1\C,0.2493023893,1.76336
 68522,-1.2910835117\O,1.4926280715,0.2052679076,0.0552956203\C,1.20985
 38814,1.2924288421,-2.3984195073\F,2.4660271542,1.5672249524,-2.075189
 137\F,1.0696344934,-0.0081023444,-2.6152516709\F,0.9250744878,1.931116
 2979,-3.5248540507\O,0.352131634,1.2937557494,-0.1830169537\H,1.310261
 8884,0.0377157428,0.988624211\\Version=ES64L-G16RevC.01\HF=-526.649751
 7\RMSD=9.129e-09\RMSF=1.782e-05\ZeroPoint=0.0357318\Thermal=0.0427485\
 ETot=-526.6070032\HTot=-526.606059\GTot=-526.6454528\Dipole=-0.1217443
 ,-0.1464289,0.7258194\DipoleDeriv=-0.1774898,0.1128371,-0.2180734,0.24
 08117,-0.4499981,0.3020353,-0.5917097,0.6316777,-0.4497735,-0.6304081,
 0.5340253,-0.7123333,0.3812719,-0.8866912,0.7207467,-0.2632241,0.32397
 07,-0.5756694,1.4394613,0.3020151,0.0108473,0.2268409,1.6161815,-0.095
 162,0.231112,-0.2890052,2.0316352,-0.7448584,-0.2595948,0.1028122,-0.1
 20308,-0.2975664,-0.0312904,-0.0655685,-0.0184585,-0.4175993,-0.278546
 1,-0.0800847,0.0724144,-0.137493,-0.7079719,-0.2780759,0.0006702,-0.07
 72062,-0.4749067,-0.3012584,0.0232876,-0.0358182,0.0536375,-0.4122412,
 0.2223838,-0.124011,0.2996475,-0.8427963,0.4512726,-0.728872,0.7743546
 ,-0.7069094,0.8401109,-0.8455366,0.7069893,-0.7874255,0.4013552,0.2418
 269,0.0963865,0.0057965,0.0621483,0.2981765,0.004899,0.1057418,-0.0832
 005,0.3277547\Polar=35.4018387,-9.0197688,40.19977,6.7171101,-12.90375
 81,48.1155327\PG=Unknown\NImag=0\\0.19517671,-0.07519821,0.21969721,-0
 .04655849,-0.17853914,0.73626005,0.00156702,0.05130165,-0.08717458,0.0
 9862016,0.03475735,-0.03699458,0.09343323,-0.03514179,0.07244917,-0.03
 872121,0.05055727,-0.02226113,-0.12248912,-0.09006954,0.57406075,-0.10
 004741,0.02677214,0.05595739,-0.01763984,0.00459489,-0.00755149,0.5568
 2646,0.03470286,-0.06650249,-0.03632208,-0.00489794,-0.01076543,-0.000
 82753,-0.00512467,0.55899598,0.03276985,-0.01584443,-0.08713793,0.0200
 8616,-0.02525564,0.00667665,-0.00075168,-0.00942897,0.58007370,-0.0399
 6143,-0.00863866,0.00966354,0.01067036,-0.01577463,0.00419122,-0.30746
 051,-0.04050700,-0.03470694,0.39839649,-0.00173401,0.00854780,0.002334
 95,0.00105666,-0.00217330,0.00428149,-0.03129241,-0.07905909,-0.008668
 60,0.07189628,0.09080308,0.01612871,-0.00002664,0.00478577,0.00013898,
 0.00769309,-0.00518938,-0.02810312,-0.00533563,-0.08320379,0.09321692,
 0.00918743,0.10234346,0.00762777,0.01097110,0.00503995,0.00367360,-0.0
 0005513,-0.00044756,-0.07548317,0.00052326,0.00548048,-0.01731527,-0.0
 5806621,-0.01988184,0.07318594,0.00189509,-0.02581279,-0.02233961,-0.0
 1229171,0.00954851,-0.00319451,-0.00896732,-0.30292429,-0.05614987,-0.
 03930345,-0.03041522,-0.01470301,0.03853401,0.42917831,0.00507660,-0.0
 2566641,-0.00844960,-0.00991091,0.00533632,-0.00948630,-0.00071962,-0.
 06001095,-0.09164584,-0.01325876,-0.01447619,0.00691258,0.01363962,0.0
 4889623,0.08887373,0.00851503,-0.00504288,0.01872504,0.00144433,-0.000
 64000,0.00062027,-0.08289179,0.01777104,-0.02878524,-0.03474658,0.0188
 2255,-0.06252891,0.01353132,0.00564689,-0.00208470,0.09775593,0.003027
 56,0.00667427,0.00203514,-0.00039198,0.00143584,-0.00033603,0.01663357
 ,-0.11988574,0.09092135,0.01168530,0.01276347,0.00724985,0.00707136,-0
 .06854544,0.05246240,-0.03681647,0.16864833,-0.00484741,0.02291542,-0.
 04415151,-0.00006025,0.00025293,0.00038863,-0.02530400,0.08777908,-0.2
 6399052,-0.04586287,0.01104639,-0.02942171,-0.00223852,0.03408108,0.00
 361858,0.07092966,-0.15243095,0.34409256,-0.06494775,-0.01096695,0.049
 66094,-0.05184238,0.01558635,0.03694062,0.02921125,-0.00406583,0.00597
 025,-0.01001194,0.00035113,-0.00037892,-0.00563218,0.01530629,0.007009
 29,-0.00381388,-0.00089683,0.00708523,0.09853642,-0.00597151,-0.099170
 51,0.13566017,-0.00697133,-0.00597499,-0.02233803,-0.00352436,0.021886
 57,0.02382445,0.02059096,-0.00080999,-0.00366387,0.00140203,-0.0111013
 4,-0.00469773,0.00033835,-0.00128398,-0.00316950,-0.00571910,0.0992814
 1,0.03469696,0.14876409,-0.58394580,0.10234289,-0.08009571,-0.04887667
 ,0.00460009,0.02522772,-0.05853068,-0.01100109,-0.00352090,0.00308309,
 -0.00107556,0.01159608,0.00926115,0.00350258,-0.00002217,-0.01110585,-
 0.10592741,-0.12697522,0.69573381,-0.00792995,0.01080182,-0.00531380,-
 0.04649324,-0.00332704,0.12745726,-0.00251499,0.00159828,-0.00006290,0
 .00042888,-0.00103399,0.00140818,0.00041200,-0.00081979,0.00024849,0.0
 0020565,-0.00031251,0.00029814,0.00850046,-0.00014504,-0.02713845,0.04
 739119,0.00852087,-0.00643892,0.00373734,0.00733643,-0.02752522,0.0619
 2689,0.00090816,-0.00174551,0.00060172,0.00005121,0.00034325,-0.000401
 21,-0.00038042,0.00007226,-0.00184365,-0.00007948,0.00019325,-0.000474
 46,-0.00959505,-0.00282717,0.02502612,-0.00676172,0.03792806,0.0014549
 8,-0.00216014,0.00490015,0.09706682,0.08870534,-0.49531255,0.00187243,
 -0.00108163,-0.00224160,-0.00224203,-0.00018457,0.00068998,-0.00051657
 ,0.00181361,0.00091570,-0.00037871,0.00012041,0.00056982,-0.00036001,0
 .00135973,-0.00561904,-0.09689692,-0.08857275,0.49609754\\0.00000114,0
 .00000078,0.00000164,-0.00001901,-0.00000878,0.00006052,0.00000059,-0.
 00000009,-0.00000007,0.00000071,-0.00000122,0.00000044,-0.00000001,-0.
 00000079,0.00000044,0.00000208,-0.00000124,-0.00000096,0.,0.00000180,-
 0.00000575,0.00001450,0.00000955,-0.00005626\\\@
 The archive entry for this job was punched.


 HO!  SUCH BUGS AND GOBLINS IN MY LIFE!

                            -- HAMLET, ACT 5, SCENE 2
 Job cpu time:       0 days  2 hours 25 minutes 23.0 seconds.
 Elapsed time:       0 days  0 hours 20 minutes 16.7 seconds.
 File lengths (MBytes):  RWF=     51 Int=      0 D2E=      0 Chk=      5 Scr=      1
 Normal termination of Gaussian 16 at Sun May 25 05:33:42 2025.
done
