8
energy = -526.6950380589999
C 2.01262200 0.22260000 -0.30740400
O 2.17007700 -0.29444000 -1.31545400
C -0.07583500 0.21601600 0.14290700
F -0.80679900 0.68786000 1.18311600
F -0.56491100 0.79750800 -0.95948400
F -0.34159500 -1.09338300 0.05496600
O 2.38229100 0.81301800 0.72242300
H 1.21944000 0.74370000 0.84852800
