1
energy = -75.0661577121
O 2.19885800 -0.99113900 0.00270600
