2
energy = -75.72487699750002
O 1.99280500 1.25002800 -0.00192600
H 2.96363600 1.22619600 -0.00159700
