1
energy = -99.7337277474
F -0.46087000 0.63083500 1.07700500
