3
energy = -188.58510814100003
C 2.06331200 -0.11522300 -0.66595300
O 2.11230500 -0.69060900 -1.64821500
O 2.01519600 0.46009600 0.31606300
