4
energy = -189.08248991800005
C 1.56913000 -0.00457000 0.00050700
O 2.17231800 -1.01351100 0.00274200
O 1.99225000 1.24549700 -0.00191900
H 2.96551300 1.25766500 -0.00165900
