3
energy = -237.716058668
C -1.26630800 0.11850000 -0.85392300
F -2.38762100 -0.17116000 -0.27752100
F -1.14383400 -0.76771500 -1.78831400
