 Entering Gaussian System, Link 0=g16
 Initial command:
 /apps/easybuild-2022/easybuild/software/Compiler/NVHPC/22.11-CUDA-11.7.0/Gaussian/g16c01-CUDA-11.7.0/g16/l1.exe "/tmp/Gau-110595.inp" -scrdir="/tmp/"
 Entering Link 1 = /apps/easybuild-2022/easybuild/software/Compiler/NVHPC/22.11-CUDA-11.7.0/Gaussian/g16c01-CUDA-11.7.0/g16/l1.exe PID=    110598.
  
 Copyright (c) 1988-2019, Gaussian, Inc.  All Rights Reserved.
  
 This is part of the Gaussian(R) 16 program.  It is based on
 the Gaussian(R) 09 system (copyright 2009, Gaussian, Inc.),
 the Gaussian(R) 03 system (copyright 2003, Gaussian, Inc.),
 the Gaussian(R) 98 system (copyright 1998, Gaussian, Inc.),
 the Gaussian(R) 94 system (copyright 1995, Gaussian, Inc.),
 the Gaussian 92(TM) system (copyright 1992, Gaussian, Inc.),
 the Gaussian 90(TM) system (copyright 1990, Gaussian, Inc.),
 the Gaussian 88(TM) system (copyright 1988, Gaussian, Inc.),
 the Gaussian 86(TM) system (copyright 1986, Carnegie Mellon
 University), and the Gaussian 82(TM) system (copyright 1983,
 Carnegie Mellon University). Gaussian is a federally registered
 trademark of Gaussian, Inc.
  
 This software contains proprietary and confidential information,
 including trade secrets, belonging to Gaussian, Inc.
  
 This software is provided under written license and may be
 used, copied, transmitted, or stored only in accord with that
 written license.
  
 The following legend is applicable only to US Government
 contracts under FAR:
  
                    RESTRICTED RIGHTS LEGEND
  
 Use, reproduction and disclosure by the US Government is
 subject to restrictions as set forth in subparagraphs (a)
 and (c) of the Commercial Computer Software - Restricted
 Rights clause in FAR 52.227-19.
  
 Gaussian, Inc.
 340 Quinnipiac St., Bldg. 40, Wallingford CT 06492
  
  
 ---------------------------------------------------------------
 Warning -- This program may not be used in any manner that
 competes with the business of Gaussian, Inc. or will provide
 assistance to any competitor of Gaussian, Inc.  The licensee
 of this program is prohibited from giving any competitor of
 Gaussian, Inc. access to this program.  By using this program,
 the user acknowledges that Gaussian, Inc. is engaged in the
 business of creating and licensing software in the field of
 computational chemistry and represents and warrants to the
 licensee that it is not a competitor of Gaussian, Inc. and that
 it will not use this program in any manner prohibited above.
 ---------------------------------------------------------------
  

 Cite this work as:
 Gaussian 16, Revision C.01,
 M. J. Frisch, G. W. Trucks, H. B. Schlegel, G. E. Scuseria, 
 M. A. Robb, J. R. Cheeseman, G. Scalmani, V. Barone, 
 G. A. Petersson, H. Nakatsuji, X. Li, M. Caricato, A. V. Marenich, 
 J. Bloino, B. G. Janesko, R. Gomperts, B. Mennucci, H. P. Hratchian, 
 J. V. Ortiz, A. F. Izmaylov, J. L. Sonnenberg, D. Williams-Young, 
 F. Ding, F. Lipparini, F. Egidi, J. Goings, B. Peng, A. Petrone, 
 T. Henderson, D. Ranasinghe, V. G. Zakrzewski, J. Gao, N. Rega, 
 G. Zheng, W. Liang, M. Hada, M. Ehara, K. Toyota, R. Fukuda, 
 J. Hasegawa, M. Ishida, T. Nakajima, Y. Honda, O. Kitao, H. Nakai, 
 T. Vreven, K. Throssell, J. A. Montgomery, Jr., J. E. Peralta, 
 F. Ogliaro, M. J. Bearpark, J. J. Heyd, E. N. Brothers, K. N. Kudin, 
 V. N. Staroverov, T. A. Keith, R. Kobayashi, J. Normand, 
 K. Raghavachari, A. P. Rendell, J. C. Burant, S. S. Iyengar, 
 J. Tomasi, M. Cossi, J. M. Millam, M. Klene, C. Adamo, R. Cammi, 
 J. W. Ochterski, R. L. Martin, K. Morokuma, O. Farkas, 
 J. B. Foresman, and D. J. Fox, Gaussian, Inc., Wallingford CT, 2019.
 
 ******************************************
 Gaussian 16:  ES64L-G16RevC.01  3-Jul-2019
                25-May-2025 
 ******************************************
 %mem=28GB
 %nprocshared=8
 Will use up to    8 processors via shared memory.
 -----------------------------------------------------------------
 #P M062X/Def2TZVPP Symm(None) scf(xqc) pop(None) freq opt(CalcFC)
 -----------------------------------------------------------------
 1/10=4,18=20,19=15,26=3,38=1/1,3;
 2/9=110,12=2,15=3,17=6,18=5,40=1/2;
 3/5=44,7=202,11=2,25=1,30=1,71=2,74=-55,140=1/1,2,3;
 4//1;
 5/5=2,8=3,13=1,38=5/2,8;
 8/6=4,10=90,11=11/1;
 11/6=1,8=1,9=11,15=111,16=1,31=1/1,2,10;
 10/6=1,13=1,31=1/2;
 7/10=1,25=1,30=1/1,2,3,16;
 1/10=4,18=20,19=15,26=3/3(2);
 2/9=110,15=3/2;
 99//99;
 2/9=110,15=3/2;
 3/5=44,7=202,11=2,25=1,30=1,71=1,74=-55/1,2,3;
 4/5=5,16=3,69=1/1;
 5/5=2,8=3,13=1,38=5/2,8;
 7/30=1/1,2,3,16;
 1/18=20,19=15,26=3/3(-5);
 2/9=110,15=3/2;
 99/9=1/99;
 Leave Link    1 at Sun May 25 04:22:05 2025, MaxMem=  3758096384 cpu:               0.0 elap:               0.0
 (Enter /apps/easybuild-2022/easybuild/software/Compiler/NVHPC/22.11-CUDA-11.7.0/Gaussian/g16c01-CUDA-11.7.0/g16/l101.exe)
 ------------------------------
 Gaussian input prepared by ASE
 ------------------------------
 Symbolic Z-matrix:
 Charge =  0 Multiplicity = 1
 C                     1.34174   0.        0. 
 O                     1.97866  -0.98433  -0.00002 
 F                     0.        0.        0. 
 O                     1.79743   1.24134   0. 
 H                     2.33661   1.40176   0.78252 
 
 Add atom      1 valence  3 ND=      2 dihedral       2      1      3      4
 ITRead=  0  0  0  0  0
 MicOpt= -1 -1 -1 -1 -1
 NAtoms=      5 NQM=        5 NQMF=       0 NMMI=      0 NMMIF=      0
                NMic=       0 NMicF=      0.
                    Isotopes and Nuclear Properties:
 (Nuclear quadrupole moments (NQMom) in fm**2, nuclear magnetic moments (NMagM)
  in nuclear magnetons)

  Atom         1           2           3           4           5
 IAtWgt=          12          16          19          16           1
 AtmWgt=  12.0000000  15.9949146  18.9984032  15.9949146   1.0078250
 NucSpn=           0           0           1           0           1
 AtZEff=  -0.0000000  -0.0000000  -0.0000000  -0.0000000  -0.0000000
 NQMom=    0.0000000   0.0000000   0.0000000   0.0000000   0.0000000
 NMagM=    0.0000000   0.0000000   2.6288670   0.0000000   2.7928460
 AtZNuc=   6.0000000   8.0000000   9.0000000   8.0000000   1.0000000
 Leave Link  101 at Sun May 25 04:22:05 2025, MaxMem=  3758096384 cpu:               0.2 elap:               0.2
 (Enter /apps/easybuild-2022/easybuild/software/Compiler/NVHPC/22.11-CUDA-11.7.0/Gaussian/g16c01-CUDA-11.7.0/g16/l103.exe)

 GradGradGradGradGradGradGradGradGradGradGradGradGradGradGradGradGradGrad
 Berny optimization.
 Initialization pass.
                           ----------------------------
                           !    Initial Parameters    !
                           ! (Angstroms and Degrees)  !
 --------------------------                            --------------------------
 ! Name  Definition              Value          Derivative Info.                !
 --------------------------------------------------------------------------------
 ! R1    R(1,2)                  1.1724         calculate D2E/DX2 analytically  !
 ! R2    R(1,3)                  1.3417         calculate D2E/DX2 analytically  !
 ! R3    R(1,4)                  1.3223         calculate D2E/DX2 analytically  !
 ! R4    R(4,5)                  0.9637         calculate D2E/DX2 analytically  !
 ! A1    A(2,1,3)              122.9052         calculate D2E/DX2 analytically  !
 ! A2    A(2,1,4)              126.9369         calculate D2E/DX2 analytically  !
 ! A3    A(3,1,4)              110.1579         calculate D2E/DX2 analytically  !
 ! A4    A(1,4,5)              110.4297         calculate D2E/DX2 analytically  !
 ! D1    D(2,1,3,4)           -179.9988         calculate D2E/DX2 analytically  !
 ! D2    D(2,1,4,5)            -60.0514         calculate D2E/DX2 analytically  !
 ! D3    D(3,1,4,5)            119.9498         calculate D2E/DX2 analytically  !
 --------------------------------------------------------------------------------
 Trust Radius=3.00D-01 FncErr=1.00D-07 GrdErr=1.00D-06 EigMax=2.50D+02 EigMin=1.00D-04
 Number of steps in this run=     21 maximum allowed number of steps=    100.
 GradGradGradGradGradGradGradGradGradGradGradGradGradGradGradGradGradGrad

 Leave Link  103 at Sun May 25 04:22:05 2025, MaxMem=  3758096384 cpu:               0.0 elap:               0.0
 (Enter /apps/easybuild-2022/easybuild/software/Compiler/NVHPC/22.11-CUDA-11.7.0/Gaussian/g16c01-CUDA-11.7.0/g16/l202.exe)
                          Input orientation:                          
 ---------------------------------------------------------------------
 Center     Atomic      Atomic             Coordinates (Angstroms)
 Number     Number       Type             X           Y           Z
 ---------------------------------------------------------------------
      1          6           0        1.341741    0.000000    0.000000
      2          8           0        1.978657   -0.984326   -0.000020
      3          9           0        0.000000    0.000000    0.000000
      4          8           0        1.797430    1.241340    0.000000
      5          1           0        2.336613    1.401760    0.782519
 ---------------------------------------------------------------------
                    Distance matrix (angstroms):
                    1          2          3          4          5
     1  C    0.000000
     2  O    1.172416   0.000000
     3  F    1.341741   2.209973   0.000000
     4  O    1.322338   2.233032   2.184418   0.000000
     5  H    1.888660   2.536514   2.834965   0.963737   0.000000
 Symmetry turned off by external request.
 Stoichiometry    CHFO2
 Rotational constants (GHZ):          12.0717134          11.1817325           5.8811598
 Leave Link  202 at Sun May 25 04:22:05 2025, MaxMem=  3758096384 cpu:               0.0 elap:               0.0
 (Enter /apps/easybuild-2022/easybuild/software/Compiler/NVHPC/22.11-CUDA-11.7.0/Gaussian/g16c01-CUDA-11.7.0/g16/l301.exe)
 Standard basis: def2TZVPP (5D, 7F)
 Ernie: Thresh=  0.10000D-02 Tol=  0.10000D-05 Strict=F.
   138 basis functions,   221 primitive gaussians,   159 cartesian basis functions
    16 alpha electrons       16 beta electrons
       nuclear repulsion energy       121.4429820275 Hartrees.
 IExCor= 4336 DFT=T Ex+Corr=M062X ExCW=0 ScaHFX=  0.540000
 ScaDFX=  1.000000  1.000000  1.000000  1.000000 ScalE2=  1.000000  1.000000
 IRadAn=      5 IRanWt=     -1 IRanGd=            0 ICorTp=0 IEmpDi=  4
 NAtoms=    5 NActive=    5 NUniq=    5 SFac= 1.00D+00 NAtFMM=   60 NAOKFM=F Big=F
 Integral buffers will be    131072 words long.
 Raffenetti 2 integral format.
 Two-electron integral symmetry is turned off.
 Leave Link  301 at Sun May 25 04:22:05 2025, MaxMem=  3758096384 cpu:               0.0 elap:               0.0
 (Enter /apps/easybuild-2022/easybuild/software/Compiler/NVHPC/22.11-CUDA-11.7.0/Gaussian/g16c01-CUDA-11.7.0/g16/l302.exe)
 NPDir=0 NMtPBC=     1 NCelOv=     1 NCel=       1 NClECP=     1 NCelD=      1
         NCelK=      1 NCelE2=     1 NClLst=     1 CellRange=     0.0.
 One-electron integrals computed using PRISM.
   1 Symmetry operations used in ECPInt.
 ECPInt:  NShTT=    1275 NPrTT=    4007 LenC2=    1265 LenP2D=    3416.
 LDataN:  DoStor=T MaxTD1= 6 Len=  172
 NBasis=   138 RedAO= T EigKep=  9.83D-04  NBF=   138
 NBsUse=   138 1.00D-06 EigRej= -1.00D+00 NBFU=   138
 Precomputing XC quadrature grid using
 IXCGrd= 4 IRadAn=           5 IRanWt=          -1 IRanGd=           0 AccXCQ= 0.00D+00.
 Generated NRdTot=       0 NPtTot=           0 NUsed=           0 NTot=          32
 NSgBfM=   159   159   159   159   159 MxSgAt=     5 MxSgA2=     5.
 Leave Link  302 at Sun May 25 04:22:05 2025, MaxMem=  3758096384 cpu:               0.3 elap:               0.1
 (Enter /apps/easybuild-2022/easybuild/software/Compiler/NVHPC/22.11-CUDA-11.7.0/Gaussian/g16c01-CUDA-11.7.0/g16/l303.exe)
 DipDrv:  MaxL=1.
 Leave Link  303 at Sun May 25 04:22:05 2025, MaxMem=  3758096384 cpu:               0.0 elap:               0.0
 (Enter /apps/easybuild-2022/easybuild/software/Compiler/NVHPC/22.11-CUDA-11.7.0/Gaussian/g16c01-CUDA-11.7.0/g16/l401.exe)
 ExpMin= 9.52D-02 ExpMax= 3.55D+04 ExpMxC= 1.21D+03 IAcc=3 IRadAn=         5 AccDes= 0.00D+00
 Harris functional with IExCor= 1009 and IRadAn=       5 diagonalized for initial guess.
 HarFok:  IExCor= 1009 AccDes= 0.00D+00 IRadAn=         5 IDoV= 1 UseB2=F ITyADJ=14
 ICtDFT=  3500011 ScaDFX=  1.000000  1.000000  1.000000  1.000000
 FoFCou: FMM=F IPFlag=           0 FMFlag=      100000 FMFlg1=           0
         NFxFlg=           0 DoJE=T BraDBF=F KetDBF=T FulRan=T
         wScrn=  0.000000 ICntrl=       500 IOpCl=  0 I1Cent=   200000004 NGrid=           0
         NMat0=    1 NMatS0=      1 NMatT0=    0 NMatD0=    1 NMtDS0=    0 NMtDT0=    0
 Symmetry not used in FoFCou.
 Harris En= -288.888597408716    
 JPrj=0 DoOrth=F DoCkMO=F.
 Leave Link  401 at Sun May 25 04:22:06 2025, MaxMem=  3758096384 cpu:               0.9 elap:               0.1
 (Enter /apps/easybuild-2022/easybuild/software/Compiler/NVHPC/22.11-CUDA-11.7.0/Gaussian/g16c01-CUDA-11.7.0/g16/l502.exe)
 Keep R1 ints in memory in canonical form, NReq=53882713.
 FoFCou: FMM=F IPFlag=           0 FMFlag=           0 FMFlg1=           0
         NFxFlg=           0 DoJE=F BraDBF=F KetDBF=F FulRan=T
         wScrn=  0.000000 ICntrl=       600 IOpCl=  0 I1Cent=           0 NGrid=           0
         NMat0=    1 NMatS0=   9591 NMatT0=    0 NMatD0=    1 NMtDS0=    0 NMtDT0=    0
 Symmetry not used in FoFCou.
 Two-electron integral symmetry not used.
 Closed shell SCF:
 Using DIIS extrapolation, IDIIS=  1040.
 NGot=  3758096384 LenX=  3712044893 LenY=  3712019171
 Requested convergence on RMS density matrix=1.00D-08 within  32 cycles.
 Requested convergence on MAX density matrix=1.00D-06.
 Requested convergence on             energy=1.00D-06.
 No special actions if energy rises.
 Integral accuracy reduced to 1.0D-05 until final iterations.

 Cycle   1  Pass 0  IDiag  1:
 E= -288.906305400800    
 DIIS: error= 2.64D-02 at cycle   1 NSaved=   1.
 NSaved= 1 IEnMin= 1 EnMin= -288.906305400800     IErMin= 1 ErrMin= 2.64D-02
 ErrMax= 2.64D-02  0.00D+00 EMaxC= 1.00D-01 BMatC= 2.17D-01 BMatP= 2.17D-01
 IDIUse=3 WtCom= 7.36D-01 WtEn= 2.64D-01
 Coeff-Com:  0.100D+01
 Coeff-En:   0.100D+01
 Coeff:      0.100D+01
 Gap=     0.351 Goal=   None    Shift=    0.000
 GapD=    0.351 DampG=1.000 DampE=0.500 DampFc=0.5000 IDamp=-1.
 Damping current iteration by 5.00D-01
 RMSDP=3.00D-03 MaxDP=9.99D-02              OVMax= 2.07D-01

 Cycle   2  Pass 0  IDiag  1:
 E= -288.953783006895     Delta-E=       -0.047477606094 Rises=F Damp=T
 DIIS: error= 7.73D-03 at cycle   2 NSaved=   2.
 NSaved= 2 IEnMin= 2 EnMin= -288.953783006895     IErMin= 2 ErrMin= 7.73D-03
 ErrMax= 7.73D-03  0.00D+00 EMaxC= 1.00D-01 BMatC= 1.97D-02 BMatP= 2.17D-01
 IDIUse=3 WtCom= 9.23D-01 WtEn= 7.73D-02
 Coeff-Com:  0.815D-01 0.918D+00
 Coeff-En:   0.210D+00 0.790D+00
 Coeff:      0.915D-01 0.909D+00
 Gap=     0.436 Goal=   None    Shift=    0.000
 RMSDP=7.49D-04 MaxDP=1.90D-02 DE=-4.75D-02 OVMax= 1.11D-01

 Cycle   3  Pass 0  IDiag  1:
 E= -289.023044822043     Delta-E=       -0.069261815149 Rises=F Damp=F
 DIIS: error= 5.50D-03 at cycle   3 NSaved=   3.
 NSaved= 3 IEnMin= 3 EnMin= -289.023044822043     IErMin= 3 ErrMin= 5.50D-03
 ErrMax= 5.50D-03  0.00D+00 EMaxC= 1.00D-01 BMatC= 6.10D-03 BMatP= 1.97D-02
 IDIUse=3 WtCom= 9.45D-01 WtEn= 5.50D-02
 Coeff-Com: -0.308D-01 0.316D+00 0.715D+00
 Coeff-En:   0.000D+00 0.000D+00 0.100D+01
 Coeff:     -0.291D-01 0.298D+00 0.731D+00
 Gap=     0.432 Goal=   None    Shift=    0.000
 RMSDP=3.85D-04 MaxDP=1.13D-02 DE=-6.93D-02 OVMax= 3.46D-02

 Cycle   4  Pass 0  IDiag  1:
 E= -289.025943202623     Delta-E=       -0.002898380580 Rises=F Damp=F
 DIIS: error= 2.60D-03 at cycle   4 NSaved=   4.
 NSaved= 4 IEnMin= 4 EnMin= -289.025943202623     IErMin= 4 ErrMin= 2.60D-03
 ErrMax= 2.60D-03  0.00D+00 EMaxC= 1.00D-01 BMatC= 2.20D-03 BMatP= 6.10D-03
 IDIUse=3 WtCom= 9.74D-01 WtEn= 2.60D-02
 Coeff-Com: -0.234D-01 0.467D-01 0.404D+00 0.573D+00
 Coeff-En:   0.000D+00 0.000D+00 0.243D+00 0.757D+00
 Coeff:     -0.228D-01 0.454D-01 0.399D+00 0.578D+00
 Gap=     0.434 Goal=   None    Shift=    0.000
 RMSDP=1.43D-04 MaxDP=3.81D-03 DE=-2.90D-03 OVMax= 9.28D-03

 Cycle   5  Pass 0  IDiag  1:
 E= -289.027286551356     Delta-E=       -0.001343348733 Rises=F Damp=F
 DIIS: error= 3.07D-04 at cycle   5 NSaved=   5.
 NSaved= 5 IEnMin= 5 EnMin= -289.027286551356     IErMin= 5 ErrMin= 3.07D-04
 ErrMax= 3.07D-04  0.00D+00 EMaxC= 1.00D-01 BMatC= 2.44D-05 BMatP= 2.20D-03
 IDIUse=3 WtCom= 9.97D-01 WtEn= 3.07D-03
 Coeff-Com: -0.599D-02 0.661D-02 0.122D+00 0.199D+00 0.679D+00
 Coeff-En:   0.000D+00 0.000D+00 0.000D+00 0.000D+00 0.100D+01
 Coeff:     -0.597D-02 0.659D-02 0.122D+00 0.198D+00 0.680D+00
 Gap=     0.433 Goal=   None    Shift=    0.000
 RMSDP=2.16D-05 MaxDP=6.02D-04 DE=-1.34D-03 OVMax= 1.51D-03

 Cycle   6  Pass 0  IDiag  1:
 E= -289.027306443094     Delta-E=       -0.000019891738 Rises=F Damp=F
 DIIS: error= 6.82D-05 at cycle   6 NSaved=   6.
 NSaved= 6 IEnMin= 6 EnMin= -289.027306443094     IErMin= 6 ErrMin= 6.82D-05
 ErrMax= 6.82D-05  0.00D+00 EMaxC= 1.00D-01 BMatC= 1.60D-06 BMatP= 2.44D-05
 IDIUse=1 WtCom= 1.00D+00 WtEn= 0.00D+00
 Coeff-Com:  0.161D-02-0.412D-02-0.182D-01-0.320D-01 0.920D-01 0.961D+00
 Coeff:      0.161D-02-0.412D-02-0.182D-01-0.320D-01 0.920D-01 0.961D+00
 Gap=     0.433 Goal=   None    Shift=    0.000
 RMSDP=9.40D-06 MaxDP=1.94D-04 DE=-1.99D-05 OVMax= 5.75D-04

 Initial convergence to 1.0D-05 achieved.  Increase integral accuracy.
 Cycle   7  Pass 1  IDiag  1:
 E= -289.027302831816     Delta-E=        0.000003611278 Rises=F Damp=F
 DIIS: error= 3.21D-05 at cycle   1 NSaved=   1.
 NSaved= 1 IEnMin= 1 EnMin= -289.027302831816     IErMin= 1 ErrMin= 3.21D-05
 ErrMax= 3.21D-05  0.00D+00 EMaxC= 1.00D-01 BMatC= 3.88D-07 BMatP= 3.88D-07
 IDIUse=1 WtCom= 1.00D+00 WtEn= 0.00D+00
 Coeff-Com:  0.100D+01
 Coeff:      0.100D+01
 Gap=     0.433 Goal=   None    Shift=    0.000
 RMSDP=9.40D-06 MaxDP=1.94D-04 DE= 3.61D-06 OVMax= 2.40D-04

 Cycle   8  Pass 1  IDiag  1:
 E= -289.027303034172     Delta-E=       -0.000000202356 Rises=F Damp=F
 DIIS: error= 3.92D-05 at cycle   2 NSaved=   2.
 NSaved= 2 IEnMin= 2 EnMin= -289.027303034172     IErMin= 1 ErrMin= 3.21D-05
 ErrMax= 3.92D-05  0.00D+00 EMaxC= 1.00D-01 BMatC= 2.82D-07 BMatP= 3.88D-07
 IDIUse=1 WtCom= 1.00D+00 WtEn= 0.00D+00
 Coeff-Com:  0.450D+00 0.550D+00
 Coeff:      0.450D+00 0.550D+00
 Gap=     0.433 Goal=   None    Shift=    0.000
 RMSDP=1.91D-06 MaxDP=6.50D-05 DE=-2.02D-07 OVMax= 1.05D-04

 Cycle   9  Pass 1  IDiag  1:
 E= -289.027303192469     Delta-E=       -0.000000158297 Rises=F Damp=F
 DIIS: error= 1.08D-05 at cycle   3 NSaved=   3.
 NSaved= 3 IEnMin= 3 EnMin= -289.027303192469     IErMin= 3 ErrMin= 1.08D-05
 ErrMax= 1.08D-05  0.00D+00 EMaxC= 1.00D-01 BMatC= 2.13D-08 BMatP= 2.82D-07
 IDIUse=1 WtCom= 1.00D+00 WtEn= 0.00D+00
 Coeff-Com: -0.629D-01 0.171D+00 0.892D+00
 Coeff:     -0.629D-01 0.171D+00 0.892D+00
 Gap=     0.433 Goal=   None    Shift=    0.000
 RMSDP=8.92D-07 MaxDP=1.94D-05 DE=-1.58D-07 OVMax= 5.70D-05

 Cycle  10  Pass 1  IDiag  1:
 E= -289.027303210520     Delta-E=       -0.000000018051 Rises=F Damp=F
 DIIS: error= 4.06D-06 at cycle   4 NSaved=   4.
 NSaved= 4 IEnMin= 4 EnMin= -289.027303210520     IErMin= 4 ErrMin= 4.06D-06
 ErrMax= 4.06D-06  0.00D+00 EMaxC= 1.00D-01 BMatC= 1.20D-09 BMatP= 2.13D-08
 IDIUse=1 WtCom= 1.00D+00 WtEn= 0.00D+00
 Coeff-Com: -0.337D-01 0.326D-01 0.255D+00 0.746D+00
 Coeff:     -0.337D-01 0.326D-01 0.255D+00 0.746D+00
 Gap=     0.433 Goal=   None    Shift=    0.000
 RMSDP=2.39D-07 MaxDP=1.06D-05 DE=-1.81D-08 OVMax= 2.86D-05

 Cycle  11  Pass 1  IDiag  1:
 E= -289.027303211581     Delta-E=       -0.000000001062 Rises=F Damp=F
 DIIS: error= 1.83D-06 at cycle   5 NSaved=   5.
 NSaved= 5 IEnMin= 5 EnMin= -289.027303211581     IErMin= 5 ErrMin= 1.83D-06
 ErrMax= 1.83D-06  0.00D+00 EMaxC= 1.00D-01 BMatC= 8.47D-10 BMatP= 1.20D-09
 IDIUse=1 WtCom= 1.00D+00 WtEn= 0.00D+00
 Coeff-Com:  0.116D-02-0.358D-01-0.149D+00 0.472D+00 0.711D+00
 Coeff:      0.116D-02-0.358D-01-0.149D+00 0.472D+00 0.711D+00
 Gap=     0.433 Goal=   None    Shift=    0.000
 RMSDP=1.50D-07 MaxDP=4.27D-06 DE=-1.06D-09 OVMax= 1.17D-05

 Cycle  12  Pass 1  IDiag  1:
 E= -289.027303212274     Delta-E=       -0.000000000693 Rises=F Damp=F
 DIIS: error= 1.88D-07 at cycle   6 NSaved=   6.
 NSaved= 6 IEnMin= 6 EnMin= -289.027303212274     IErMin= 6 ErrMin= 1.88D-07
 ErrMax= 1.88D-07  0.00D+00 EMaxC= 1.00D-01 BMatC= 5.24D-12 BMatP= 8.47D-10
 IDIUse=1 WtCom= 1.00D+00 WtEn= 0.00D+00
 Coeff-Com:  0.222D-02-0.813D-02-0.435D-01 0.465D-01 0.979D-01 0.905D+00
 Coeff:      0.222D-02-0.813D-02-0.435D-01 0.465D-01 0.979D-01 0.905D+00
 Gap=     0.433 Goal=   None    Shift=    0.000
 RMSDP=2.33D-08 MaxDP=5.05D-07 DE=-6.93D-10 OVMax= 1.70D-06

 Cycle  13  Pass 1  IDiag  1:
 E= -289.027303212277     Delta-E=       -0.000000000003 Rises=F Damp=F
 DIIS: error= 4.03D-08 at cycle   7 NSaved=   7.
 NSaved= 7 IEnMin= 7 EnMin= -289.027303212277     IErMin= 7 ErrMin= 4.03D-08
 ErrMax= 4.03D-08  0.00D+00 EMaxC= 1.00D-01 BMatC= 6.06D-13 BMatP= 5.24D-12
 IDIUse=1 WtCom= 1.00D+00 WtEn= 0.00D+00
 Coeff-Com:  0.670D-03-0.139D-02-0.894D-02 0.920D-03 0.805D-02 0.276D+00
 Coeff-Com:  0.725D+00
 Coeff:      0.670D-03-0.139D-02-0.894D-02 0.920D-03 0.805D-02 0.276D+00
 Coeff:      0.725D+00
 Gap=     0.433 Goal=   None    Shift=    0.000
 RMSDP=4.46D-09 MaxDP=1.06D-07 DE=-2.73D-12 OVMax= 3.02D-07

 SCF Done:  E(RM062X) =  -289.027303212     A.U. after   13 cycles
            NFock= 13  Conv=0.45D-08     -V/T= 2.0037
 KE= 2.879722089664D+02 PE=-9.266086264535D+02 EE= 2.281661322474D+02
 Leave Link  502 at Sun May 25 04:22:07 2025, MaxMem=  3758096384 cpu:              10.6 elap:               1.8
 (Enter /apps/easybuild-2022/easybuild/software/Compiler/NVHPC/22.11-CUDA-11.7.0/Gaussian/g16c01-CUDA-11.7.0/g16/l508.exe)
 QCSCF skips out because SCF is already converged.
 Leave Link  508 at Sun May 25 04:22:07 2025, MaxMem=  3758096384 cpu:               0.0 elap:               0.0
 (Enter /apps/easybuild-2022/easybuild/software/Compiler/NVHPC/22.11-CUDA-11.7.0/Gaussian/g16c01-CUDA-11.7.0/g16/l801.exe)
 DoSCS=F DFT=T ScalE2(SS,OS)=  1.000000  1.000000
 Range of M.O.s used for correlation:     1   138
 NBasis=   138 NAE=    16 NBE=    16 NFC=     0 NFV=     0
 NROrb=    138 NOA=    16 NOB=    16 NVA=   122 NVB=   122
 Leave Link  801 at Sun May 25 04:22:07 2025, MaxMem=  3758096384 cpu:               0.0 elap:               0.0
 (Enter /apps/easybuild-2022/easybuild/software/Compiler/NVHPC/22.11-CUDA-11.7.0/Gaussian/g16c01-CUDA-11.7.0/g16/l1101.exe)
 Using compressed storage, NAtomX=     5.
 Will process      6 centers per pass.
   1 Symmetry operations used in ECPInt.
 ECPInt:  NShTT=    1275 NPrTT=    4007 LenC2=    1265 LenP2D=    3416.
 LDataN:  DoStor=T MaxTD1= 7 Len=  274
 Leave Link 1101 at Sun May 25 04:22:07 2025, MaxMem=  3758096384 cpu:               0.4 elap:               0.1
 (Enter /apps/easybuild-2022/easybuild/software/Compiler/NVHPC/22.11-CUDA-11.7.0/Gaussian/g16c01-CUDA-11.7.0/g16/l1102.exe)
 Symmetrizing basis deriv contribution to polar:
 IMax=3 JMax=2 DiffMx= 0.00D+00
 Leave Link 1102 at Sun May 25 04:22:07 2025, MaxMem=  3758096384 cpu:               0.0 elap:               0.0
 (Enter /apps/easybuild-2022/easybuild/software/Compiler/NVHPC/22.11-CUDA-11.7.0/Gaussian/g16c01-CUDA-11.7.0/g16/l1110.exe)
 Forming Gx(P) for the SCF density, NAtomX=     5.
 Integral derivatives from FoFJK, PRISM(SPDF).
 Do as many integral derivatives as possible in FoFJK.
 G2DrvN: MDV=    3758095743.
 G2DrvN: will do     6 centers at a time, making    1 passes.
 Calling FoFCou, ICntrl=  3107 FMM=F I1Cent=   0 AccDes= 0.00D+00.
 FoFJK:  IHMeth= 1 ICntrl=    3107 DoSepK=F KAlg= 0 I1Cent=           0 FoldK=F
 IRaf=         0 NMat=       1 IRICut=       1 DoRegI=T DoRafI=F ISym2E= 0 IDoP0=0 IntGTp=1.
 FoFCou: FMM=F IPFlag=           0 FMFlag=      100000 FMFlg1=           0
         NFxFlg=           0 DoJE=F BraDBF=F KetDBF=F FulRan=T
         wScrn=  0.000000 ICntrl=      3107 IOpCl=  0 I1Cent=           0 NGrid=           0
         NMat0=    1 NMatS0=      1 NMatT0=    0 NMatD0=    1 NMtDS0=    0 NMtDT0=    0
 Symmetry not used in FoFCou.
 End of G2Drv F.D. properties file   721 does not exist.
 End of G2Drv F.D. properties file   722 does not exist.
 End of G2Drv F.D. properties file   788 does not exist.
 Leave Link 1110 at Sun May 25 04:22:10 2025, MaxMem=  3758096384 cpu:              18.7 elap:               2.4
 (Enter /apps/easybuild-2022/easybuild/software/Compiler/NVHPC/22.11-CUDA-11.7.0/Gaussian/g16c01-CUDA-11.7.0/g16/l1002.exe)
 Minotr:  Closed shell wavefunction.
          IDoAtm=11111
          Direct CPHF calculation.
          Differentiating once with respect to nuclear coordinates.
          Requested convergence is 1.0D-08 RMS, and 1.0D-07 maximum.
          Secondary convergence is 1.0D-12 RMS, and 1.0D-12 maximum.
          NewPWx=T KeepS1=F KeepF1=F KeepIn=T MapXYZ=F SortEE=F KeepMc=T.
         1491 words used for storage of precomputed grid.
 Keep R1 ints in memory in canonical form, NReq=53859594.
 FoFCou: FMM=F IPFlag=           0 FMFlag=           0 FMFlg1=           0
         NFxFlg=           0 DoJE=F BraDBF=F KetDBF=F FulRan=T
         wScrn=  0.000000 ICntrl=       600 IOpCl=  0 I1Cent=           0 NGrid=           0
         NMat0=    1 NMatS0=   9591 NMatT0=    0 NMatD0=    1 NMtDS0=    0 NMtDT0=    0
 Symmetry not used in FoFCou.
 Two-electron integral symmetry not used.
          MDV=    3758096384 using IRadAn=       1.
          Solving linear equations simultaneously, MaxMat=       0.
          There are    18 degrees of freedom in the 1st order CPHF.  IDoFFX=6 NUNeed=     0.
     12 vectors produced by pass  0 Test12= 1.08D-14 5.56D-09 XBig12= 1.71D-01 1.02D-01.
 AX will form    12 AO Fock derivatives at one time.
     12 vectors produced by pass  1 Test12= 1.08D-14 5.56D-09 XBig12= 4.27D-02 7.12D-02.
     12 vectors produced by pass  2 Test12= 1.08D-14 5.56D-09 XBig12= 3.17D-03 1.16D-02.
     12 vectors produced by pass  3 Test12= 1.08D-14 5.56D-09 XBig12= 8.39D-05 2.24D-03.
     12 vectors produced by pass  4 Test12= 1.08D-14 5.56D-09 XBig12= 1.08D-06 2.26D-04.
     12 vectors produced by pass  5 Test12= 1.08D-14 5.56D-09 XBig12= 1.37D-08 1.92D-05.
     12 vectors produced by pass  6 Test12= 1.08D-14 5.56D-09 XBig12= 1.20D-10 2.13D-06.
      6 vectors produced by pass  7 Test12= 1.08D-14 5.56D-09 XBig12= 4.51D-13 9.71D-08.
      2 vectors produced by pass  8 Test12= 1.08D-14 5.56D-09 XBig12= 1.99D-15 8.09D-09.
 InvSVY:  IOpt=1 It=  1 EMax= 1.22D-15
 Solved reduced A of dimension    92 with    12 vectors.
 End of Minotr F.D. properties file   721 does not exist.
 End of Minotr F.D. properties file   722 does not exist.
 End of Minotr F.D. properties file   788 does not exist.
 Leave Link 1002 at Sun May 25 04:22:13 2025, MaxMem=  3758096384 cpu:              25.3 elap:               3.3
 (Enter /apps/easybuild-2022/easybuild/software/Compiler/NVHPC/22.11-CUDA-11.7.0/Gaussian/g16c01-CUDA-11.7.0/g16/l701.exe)
 ... and contract with generalized density number  0.
 Compute integral second derivatives.
   1 Symmetry operations used in ECPInt.
 ECPInt:  NShTT=    1275 NPrTT=    4007 LenC2=    1265 LenP2D=    3416.
 LDataN:  DoStor=T MaxTD1= 8 Len=  415
 Leave Link  701 at Sun May 25 04:22:13 2025, MaxMem=  3758096384 cpu:               0.5 elap:               0.1
 (Enter /apps/easybuild-2022/easybuild/software/Compiler/NVHPC/22.11-CUDA-11.7.0/Gaussian/g16c01-CUDA-11.7.0/g16/l702.exe)
 L702 exits ... SP integral derivatives will be done elsewhere.
 Leave Link  702 at Sun May 25 04:22:13 2025, MaxMem=  3758096384 cpu:               0.0 elap:               0.0
 (Enter /apps/easybuild-2022/easybuild/software/Compiler/NVHPC/22.11-CUDA-11.7.0/Gaussian/g16c01-CUDA-11.7.0/g16/l703.exe)
 Integral derivatives from FoFJK, PRISM(SPDF).
 Compute integral second derivatives, UseDBF=F ICtDFT=           0.
 Calling FoFJK, ICntrl=    100127 FMM=F ISym2X=0 I1Cent= 0 IOpClX= 0 NMat=1 NMatS=1 NMatT=0.
 FoFJK:  IHMeth= 1 ICntrl=  100127 DoSepK=F KAlg= 0 I1Cent=           0 FoldK=F
 IRaf=         0 NMat=       1 IRICut=       1 DoRegI=T DoRafI=F ISym2E= 0 IDoP0=0 IntGTp=1.
 FoFCou: FMM=F IPFlag=           0 FMFlag=      100000 FMFlg1=         800
         NFxFlg=           0 DoJE=F BraDBF=F KetDBF=F FulRan=T
         wScrn=  0.000000 ICntrl=    100127 IOpCl=  0 I1Cent=           0 NGrid=           0
         NMat0=    1 NMatS0=      1 NMatT0=    0 NMatD0=    1 NMtDS0=    0 NMtDT0=    0
 Symmetry not used in FoFCou.
 Leave Link  703 at Sun May 25 04:22:20 2025, MaxMem=  3758096384 cpu:              54.1 elap:               6.8
 (Enter /apps/easybuild-2022/easybuild/software/Compiler/NVHPC/22.11-CUDA-11.7.0/Gaussian/g16c01-CUDA-11.7.0/g16/l716.exe)
 Dipole        = 3.17098025D-01 7.43320431D-01 5.45211275D-01
 Polarizability= 0.00000000D+00 0.00000000D+00 0.00000000D+00
                 0.00000000D+00 0.00000000D+00 0.00000000D+00
 -------------------------------------------------------------------
 Center     Atomic                   Forces (Hartrees/Bohr)
 Number     Number              X              Y              Z
 -------------------------------------------------------------------
      1        6          -0.010527883   -0.004814189    0.004673943
      2        8          -0.000465972   -0.010661009    0.000749869
      3        9           0.014108341    0.000790137   -0.005167213
      4        8          -0.009084258    0.017042480    0.004617739
      5        1           0.005969772   -0.002357419   -0.004874338
 -------------------------------------------------------------------
 Cartesian Forces:  Max     0.017042480 RMS     0.007982952
 Force constants in Cartesian coordinates: 
                1             2             3             4             5 
      1  0.695739D+00
      2 -0.248703D+00  0.108057D+01
      3  0.271286D-01  0.206444D-01  0.258667D+00
      4 -0.323884D+00  0.354078D+00 -0.183427D-03  0.374563D+00
      5  0.348197D+00 -0.664167D+00 -0.229830D-02 -0.415042D+00  0.765366D+00
      6 -0.208372D-02 -0.707110D-02 -0.913915D-01 -0.140832D-02  0.203906D-02
      7 -0.246492D+00 -0.856686D-02 -0.248059D-02 -0.791222D-01  0.459688D-01
      8  0.294700D-03 -0.868838D-01  0.932621D-03  0.580604D-01  0.317892D-02
      9 -0.359471D-02  0.478171D-03 -0.730521D-01  0.135983D-02 -0.143372D-02
     10 -0.113371D+00 -0.835429D-01 -0.134625D-01  0.313857D-01  0.125382D-01
     11 -0.681989D-01 -0.313397D+00  0.186090D-01  0.520177D-03 -0.104960D+00
     12 -0.202724D-01 -0.161408D-01 -0.942580D-01 -0.107198D-02 -0.301363D-02
     13 -0.119922D-01 -0.132649D-01 -0.110020D-01 -0.294249D-02  0.833791D-02
     14 -0.315898D-01 -0.161243D-01 -0.378877D-01  0.238360D-02  0.582392D-03
     15 -0.117777D-02  0.208935D-02  0.346954D-04  0.130391D-02  0.470659D-02
                6             7             8             9            10 
      6  0.312880D-01
      7 -0.875395D-03  0.381956D+00
      8  0.176993D-03  0.215227D-02  0.997518D-01
      9  0.270032D-01  0.563120D-02  0.291824D-02  0.243427D-01
     10  0.535610D-02 -0.531171D-01 -0.560046D-01 -0.521189D-02  0.290322D+00
     11 -0.139435D-02 -0.385114D-01 -0.137382D-01 -0.277524D-02  0.163945D+00
     12  0.318072D-01 -0.954987D-02 -0.794891D-02  0.222032D-01  0.264439D+00
     13 -0.988660D-03 -0.322485D-02 -0.450283D-02  0.181558D-02 -0.155219D+00
     14  0.624939D-02 -0.104278D-02 -0.230874D-02  0.812551D-03 -0.369353D-01
     15  0.129316D-02  0.727466D-02  0.392106D-02 -0.496991D-03 -0.251120D+00
               11            12            13            14            15 
     11  0.472122D+00
     12  0.625825D-01  0.386758D+00
     13 -0.577545D-01 -0.233545D+00  0.173379D+00
     14 -0.400267D-01 -0.354792D-01  0.671843D-01  0.578774D-01
     15 -0.770219D-01 -0.346510D+00  0.243720D+00  0.663049D-01  0.345679D+00
 FormGI is forming the generalized inverse of G from B-inverse, IUseBI=4.
 Force constants in internal coordinates: 
                1             2             3             4             5 
      1  0.102863D+01
      2  0.815754D-01  0.381957D+00
      3  0.830276D-01  0.565451D-01  0.502983D+00
      4 -0.730116D-02 -0.392776D-02  0.275480D-02  0.535600D+00
      5  0.204276D-01  0.285324D-01 -0.590054D-01  0.355009D-02  0.193126D+00
      6  0.323435D-01 -0.632870D-01  0.269759D-01 -0.643590D-02 -0.899317D-01
      7 -0.527711D-01  0.347546D-01  0.320295D-01  0.288584D-02 -0.103194D+00
      8  0.669267D-03  0.671392D-02  0.578526D-01  0.258145D-01 -0.437499D-02
      9  0.117771D-03  0.237635D-02 -0.121299D-02 -0.152802D-02 -0.102345D-02
     10 -0.484848D-02  0.381510D-02  0.958453D-02  0.136169D-02 -0.355310D-02
     11 -0.472454D-02  0.630974D-02  0.831169D-02 -0.243467D-03 -0.463230D-02
                6             7             8             9            10 
      6  0.192848D+00
      7 -0.102916D+00  0.206110D+00
      8 -0.100858D-01  0.144610D-01  0.151048D+00
      9 -0.415429D-02  0.517668D-02 -0.762349D-02  0.518762D-01
     10 -0.313537D-03  0.386718D-02  0.987741D-02 -0.265762D-01  0.964009D-02
     11 -0.467272D-02  0.930445D-02  0.186972D-02  0.279136D-01 -0.182751D-01
               11 
     11  0.110449D-01
 Leave Link  716 at Sun May 25 04:22:20 2025, MaxMem=  3758096384 cpu:               0.0 elap:               0.0
 (Enter /apps/easybuild-2022/easybuild/software/Compiler/NVHPC/22.11-CUDA-11.7.0/Gaussian/g16c01-CUDA-11.7.0/g16/l103.exe)

 GradGradGradGradGradGradGradGradGradGradGradGradGradGradGradGradGradGrad
 Berny optimization.
 Red2BG is reusing G-inverse.
 Internal  Forces:  Max     0.014107693 RMS     0.007967557
 Search for a local minimum.
 Step number   1 out of a maximum of   21
 All quantities printed in internal units (Hartrees-Bohrs-Radians)
 RMS Force = .79676D-02 SwitMx=.10000D-02 MixMth= 1
 Mixed Optimization -- RFO/linear search
 Second derivative matrix not updated -- analytic derivatives used.
 The second derivative matrix:
                          R1        R2        R3        R4        A1
           R1           1.02863
           R2           0.08158   0.38196
           R3           0.08303   0.05655   0.50298
           R4          -0.00730  -0.00393   0.00275   0.53560
           A1           0.02043   0.02853  -0.05901   0.00355   0.19313
           A2           0.03234  -0.06329   0.02698  -0.00644  -0.08993
           A3          -0.05277   0.03475   0.03203   0.00289  -0.10319
           A4           0.00067   0.00671   0.05785   0.02581  -0.00437
           D1           0.00012   0.00238  -0.00121  -0.00153  -0.00102
           D2          -0.00485   0.00382   0.00958   0.00136  -0.00355
           D3          -0.00472   0.00631   0.00831  -0.00024  -0.00463
                          A2        A3        A4        D1        D2
           A2           0.19285
           A3          -0.10292   0.20611
           A4          -0.01009   0.01446   0.15105
           D1          -0.00415   0.00518  -0.00762   0.05188
           D2          -0.00031   0.00387   0.00988  -0.02658   0.00964
           D3          -0.00467   0.00930   0.00187   0.02791  -0.01828
                          D3
           D3           0.01104
 ITU=  0
     Eigenvalues ---   -0.00900   0.07866   0.13935   0.22761   0.28208
     Eigenvalues ---    0.41553   0.53024   0.54315   1.05724
 Eigenvalue     1 is  -9.00D-03 should be greater than     0.000000 Eigenvector:
                          D2        D3        A4        A3        R3
   1                    0.71234   0.69943  -0.04338  -0.02246  -0.01656
                          A1        R2        D1        R1        A2
   1                    0.01560  -0.01458  -0.01228   0.00736   0.00686
 RFO step:  Lambda=-1.56870593D-02 EMin=-8.99974594D-03
 Linear search not attempted -- first point.
 Iteration  1 RMS(Cart)=  0.06542753 RMS(Int)=  0.21827271
 Iteration  2 RMS(Cart)=  0.06823020 RMS(Int)=  0.13300297
 Iteration  3 RMS(Cart)=  0.06614851 RMS(Int)=  0.04803638
 Iteration  4 RMS(Cart)=  0.03601394 RMS(Int)=  0.00219824
 Iteration  5 RMS(Cart)=  0.00201229 RMS(Int)=  0.00012179
 Iteration  6 RMS(Cart)=  0.00000467 RMS(Int)=  0.00012175
 Iteration  7 RMS(Cart)=  0.00000000 RMS(Int)=  0.00012175
 ITry= 1 IFail=0 DXMaxC= 3.54D-01 DCOld= 1.00D+10 DXMaxT= 3.00D-01 DXLimC= 3.00D+00 Rises=F
 Variable       Old X    -DE/DX   Delta X   Delta X   Delta X     New X
                                 (Linear)    (Quad)   (Total)
    R1        2.21555   0.00870   0.00000   0.01487   0.01487   2.23041
    R2        2.53552  -0.01411   0.00000  -0.05011  -0.05011   2.48542
    R3        2.49886   0.01271   0.00000   0.00994   0.00994   2.50880
    R4        1.82120  -0.00101   0.00000  -0.00097  -0.00097   1.82023
    A1        2.14510  -0.00390   0.00000   0.00974   0.00958   2.15468
    A2        2.21547   0.00981   0.00000   0.02905   0.02889   2.24435
    A3        1.92262  -0.00591   0.00000  -0.03879  -0.03894   1.88367
    A4        1.92736   0.00038   0.00000  -0.04045  -0.04045   1.88691
    D1       -3.14157   0.00371   0.00000   0.03075   0.03057  -3.11101
    D2       -1.04809   0.00487   0.00000   0.69001   0.68984  -0.35825
    D3        2.09352   0.00877   0.00000   0.72231   0.72247   2.81599
         Item               Value     Threshold  Converged?
 Maximum Force            0.014108     0.000450     NO 
 RMS     Force            0.007968     0.000300     NO 
 Maximum Displacement     0.353931     0.001800     NO 
 RMS     Displacement     0.225749     0.001200     NO 
 Predicted change in Energy=-1.503407D-02
 Lowest energy point so far.  Saving SCF results.
 GradGradGradGradGradGradGradGradGradGradGradGradGradGradGradGradGradGrad

 Leave Link  103 at Sun May 25 04:22:20 2025, MaxMem=  3758096384 cpu:               0.0 elap:               0.0
 (Enter /apps/easybuild-2022/easybuild/software/Compiler/NVHPC/22.11-CUDA-11.7.0/Gaussian/g16c01-CUDA-11.7.0/g16/l202.exe)
                          Input orientation:                          
 ---------------------------------------------------------------------
 Center     Atomic      Atomic             Coordinates (Angstroms)
 Number     Number       Type             X           Y           Z
 ---------------------------------------------------------------------
      1          6           0        1.302230    0.015477    0.055102
      2          8           0        1.997154   -0.938467    0.066950
      3          9           0        0.002765   -0.036515   -0.141128
      4          8           0        1.644811    1.291285    0.187292
      5          1           0        2.507482    1.326994    0.614283
 ---------------------------------------------------------------------
                    Distance matrix (angstroms):
                    1          2          3          4          5
     1  C    0.000000
     2  O    1.180283   0.000000
     3  F    1.315226   2.198728   0.000000
     4  O    1.327600   2.260624   2.137107   0.000000
     5  H    1.866921   2.385858   2.950154   0.963223   0.000000
 Symmetry turned off by external request.
 Stoichiometry    CHFO2
 Rotational constants (GHZ):          11.9842625          11.6068209           5.9076174
 Leave Link  202 at Sun May 25 04:22:20 2025, MaxMem=  3758096384 cpu:               0.0 elap:               0.0
 (Enter /apps/easybuild-2022/easybuild/software/Compiler/NVHPC/22.11-CUDA-11.7.0/Gaussian/g16c01-CUDA-11.7.0/g16/l301.exe)
 Standard basis: def2TZVPP (5D, 7F)
 Ernie: Thresh=  0.10000D-02 Tol=  0.10000D-05 Strict=F.
   138 basis functions,   221 primitive gaussians,   159 cartesian basis functions
    16 alpha electrons       16 beta electrons
       nuclear repulsion energy       122.0027106709 Hartrees.
 IExCor= 4336 DFT=T Ex+Corr=M062X ExCW=0 ScaHFX=  0.540000
 ScaDFX=  1.000000  1.000000  1.000000  1.000000 ScalE2=  1.000000  1.000000
 IRadAn=      5 IRanWt=     -1 IRanGd=            0 ICorTp=0 IEmpDi=  4
 NAtoms=    5 NActive=    5 NUniq=    5 SFac= 1.00D+00 NAtFMM=   60 NAOKFM=F Big=F
 Integral buffers will be    131072 words long.
 Raffenetti 2 integral format.
 Two-electron integral symmetry is turned off.
 Leave Link  301 at Sun May 25 04:22:20 2025, MaxMem=  3758096384 cpu:               0.0 elap:               0.0
 (Enter /apps/easybuild-2022/easybuild/software/Compiler/NVHPC/22.11-CUDA-11.7.0/Gaussian/g16c01-CUDA-11.7.0/g16/l302.exe)
 NPDir=0 NMtPBC=     1 NCelOv=     1 NCel=       1 NClECP=     1 NCelD=      1
         NCelK=      1 NCelE2=     1 NClLst=     1 CellRange=     0.0.
 One-electron integrals computed using PRISM.
   1 Symmetry operations used in ECPInt.
 ECPInt:  NShTT=    1275 NPrTT=    4007 LenC2=    1265 LenP2D=    3421.
 LDataN:  DoStor=T MaxTD1= 6 Len=  172
 NBasis=   138 RedAO= T EigKep=  1.01D-03  NBF=   138
 NBsUse=   138 1.00D-06 EigRej= -1.00D+00 NBFU=   138
 Precomputing XC quadrature grid using
 IXCGrd= 4 IRadAn=           5 IRanWt=          -1 IRanGd=           0 AccXCQ= 0.00D+00.
 Generated NRdTot=       0 NPtTot=           0 NUsed=           0 NTot=          32
 NSgBfM=   159   159   159   159   159 MxSgAt=     5 MxSgA2=     5.
 Leave Link  302 at Sun May 25 04:22:20 2025, MaxMem=  3758096384 cpu:               0.4 elap:               0.1
 (Enter /apps/easybuild-2022/easybuild/software/Compiler/NVHPC/22.11-CUDA-11.7.0/Gaussian/g16c01-CUDA-11.7.0/g16/l303.exe)
 DipDrv:  MaxL=1.
 Leave Link  303 at Sun May 25 04:22:20 2025, MaxMem=  3758096384 cpu:               0.1 elap:               0.0
 (Enter /apps/easybuild-2022/easybuild/software/Compiler/NVHPC/22.11-CUDA-11.7.0/Gaussian/g16c01-CUDA-11.7.0/g16/l401.exe)
 Initial guess from the checkpoint file:  "/tmp/Gau-110598.chk"
 B after Tr=    -0.034404   -0.078178   -0.211711
         Rot=    0.998006   -0.024179    0.053213   -0.023842 Ang=  -7.24 deg.
 Guess basis will be translated and rotated to current coordinates.
 JPrj=2 DoOrth=T DoCkMO=T.
 Generating alternative initial guess.
 ExpMin= 9.52D-02 ExpMax= 3.55D+04 ExpMxC= 1.21D+03 IAcc=3 IRadAn=         5 AccDes= 0.00D+00
 Harris functional with IExCor= 1009 and IRadAn=       5 diagonalized for initial guess.
 HarFok:  IExCor= 1009 AccDes= 0.00D+00 IRadAn=         5 IDoV= 1 UseB2=F ITyADJ=14
 ICtDFT=  3500011 ScaDFX=  1.000000  1.000000  1.000000  1.000000
 FoFCou: FMM=F IPFlag=           0 FMFlag=      100000 FMFlg1=           0
         NFxFlg=           0 DoJE=T BraDBF=F KetDBF=T FulRan=T
         wScrn=  0.000000 ICntrl=       500 IOpCl=  0 I1Cent=   200000004 NGrid=           0
         NMat0=    1 NMatS0=      1 NMatT0=    0 NMatD0=    1 NMtDS0=    0 NMtDT0=    0
 Symmetry not used in FoFCou.
 Harris En= -288.895395866677    
 Leave Link  401 at Sun May 25 04:22:21 2025, MaxMem=  3758096384 cpu:               1.1 elap:               0.2
 (Enter /apps/easybuild-2022/easybuild/software/Compiler/NVHPC/22.11-CUDA-11.7.0/Gaussian/g16c01-CUDA-11.7.0/g16/l502.exe)
 Keep R1 ints in memory in canonical form, NReq=53882713.
 FoFCou: FMM=F IPFlag=           0 FMFlag=           0 FMFlg1=           0
         NFxFlg=           0 DoJE=F BraDBF=F KetDBF=F FulRan=T
         wScrn=  0.000000 ICntrl=       600 IOpCl=  0 I1Cent=           0 NGrid=           0
         NMat0=    1 NMatS0=   9591 NMatT0=    0 NMatD0=    1 NMtDS0=    0 NMtDT0=    0
 Symmetry not used in FoFCou.
 Two-electron integral symmetry not used.
 Closed shell SCF:
 Using DIIS extrapolation, IDIIS=  1040.
 NGot=  3758096384 LenX=  3712044893 LenY=  3712019171
 Requested convergence on RMS density matrix=1.00D-08 within  32 cycles.
 Requested convergence on MAX density matrix=1.00D-06.
 Requested convergence on             energy=1.00D-06.
 No special actions if energy rises.
 Integral accuracy reduced to 1.0D-05 until final iterations.

 Cycle   1  Pass 0  IDiag  1:
 E= -288.982430814246    
 DIIS: error= 1.29D-02 at cycle   1 NSaved=   1.
 NSaved= 1 IEnMin= 1 EnMin= -288.982430814246     IErMin= 1 ErrMin= 1.29D-02
 ErrMax= 1.29D-02  0.00D+00 EMaxC= 1.00D-01 BMatC= 5.17D-02 BMatP= 5.17D-02
 IDIUse=3 WtCom= 8.71D-01 WtEn= 1.29D-01
 Coeff-Com:  0.100D+01
 Coeff-En:   0.100D+01
 Coeff:      0.100D+01
 Recover alternate guess density for next cycle.
 RMSDP=2.48D-03 MaxDP=5.96D-02              OVMax= 0.00D+00

 Cycle   2  Pass 0  IDiag  1:
 E= -288.922493568455     Delta-E=        0.059937245791 Rises=F Damp=F
 Switch densities from cycles 1 and 2 for lowest energy.
 DIIS: error= 3.71D-02 at cycle   2 NSaved=   2.
 NSaved= 2 IEnMin= 1 EnMin= -288.982430814246     IErMin= 1 ErrMin= 1.29D-02
 ErrMax= 3.71D-02  0.00D+00 EMaxC= 1.00D+00 BMatC= 2.09D-01 BMatP= 5.17D-02
 IDIUse=1 WtCom= 1.00D+00 WtEn= 0.00D+00
 Coeff-Com:  0.826D+00 0.174D+00
 Coeff:      0.826D+00 0.174D+00
 Gap=     0.453 Goal=   None    Shift=    0.000
 RMSDP=1.69D-03 MaxDP=4.75D-02 DE= 5.99D-02 OVMax= 1.16D-01

 Cycle   3  Pass 0  IDiag  1:
 E= -289.030718020719     Delta-E=       -0.108224452264 Rises=F Damp=F
 DIIS: error= 8.54D-03 at cycle   3 NSaved=   3.
 NSaved= 3 IEnMin= 3 EnMin= -289.030718020719     IErMin= 3 ErrMin= 8.54D-03
 ErrMax= 8.54D-03  0.00D+00 EMaxC= 1.00D+00 BMatC= 1.10D-02 BMatP= 5.17D-02
 IDIUse=1 WtCom= 1.00D+00 WtEn= 0.00D+00
 Coeff-Com:  0.128D-03 0.168D+00 0.832D+00
 Coeff:      0.128D-03 0.168D+00 0.832D+00
 Gap=     0.454 Goal=   None    Shift=    0.000
 RMSDP=4.35D-04 MaxDP=1.13D-02 DE=-1.08D-01 OVMax= 2.51D-02

 Cycle   4  Pass 0  IDiag  1:
 E= -289.037910260949     Delta-E=       -0.007192240230 Rises=F Damp=F
 DIIS: error= 2.12D-03 at cycle   4 NSaved=   4.
 NSaved= 4 IEnMin= 4 EnMin= -289.037910260949     IErMin= 4 ErrMin= 2.12D-03
 ErrMax= 2.12D-03  0.00D+00 EMaxC= 1.00D+00 BMatC= 7.55D-04 BMatP= 1.10D-02
 IDIUse=1 WtCom= 1.00D+00 WtEn= 0.00D+00
 Coeff-Com: -0.328D-01 0.283D-01 0.246D+00 0.758D+00
 Coeff:     -0.328D-01 0.283D-01 0.246D+00 0.758D+00
 Gap=     0.457 Goal=   None    Shift=    0.000
 RMSDP=1.28D-04 MaxDP=4.10D-03 DE=-7.19D-03 OVMax= 7.64D-03

 Cycle   5  Pass 0  IDiag  1:
 E= -289.038289175701     Delta-E=       -0.000378914752 Rises=F Damp=F
 DIIS: error= 1.44D-03 at cycle   5 NSaved=   5.
 NSaved= 5 IEnMin= 5 EnMin= -289.038289175701     IErMin= 5 ErrMin= 1.44D-03
 ErrMax= 1.44D-03  0.00D+00 EMaxC= 1.00D+00 BMatC= 2.37D-04 BMatP= 7.55D-04
 IDIUse=1 WtCom= 1.00D+00 WtEn= 0.00D+00
 Coeff-Com: -0.118D-01-0.526D-02 0.478D-01 0.406D+00 0.563D+00
 Coeff:     -0.118D-01-0.526D-02 0.478D-01 0.406D+00 0.563D+00
 Gap=     0.454 Goal=   None    Shift=    0.000
 RMSDP=5.06D-05 MaxDP=1.32D-03 DE=-3.79D-04 OVMax= 3.86D-03

 Cycle   6  Pass 0  IDiag  1:
 E= -289.038438542592     Delta-E=       -0.000149366891 Rises=F Damp=F
 DIIS: error= 1.45D-04 at cycle   6 NSaved=   6.
 NSaved= 6 IEnMin= 6 EnMin= -289.038438542592     IErMin= 6 ErrMin= 1.45D-04
 ErrMax= 1.45D-04  0.00D+00 EMaxC= 1.00D+00 BMatC= 3.52D-06 BMatP= 2.37D-04
 IDIUse=1 WtCom= 1.00D+00 WtEn= 0.00D+00
 Coeff-Com: -0.144D-02-0.120D-02-0.921D-02 0.211D-01 0.775D-01 0.913D+00
 Coeff:     -0.144D-02-0.120D-02-0.921D-02 0.211D-01 0.775D-01 0.913D+00
 Gap=     0.454 Goal=   None    Shift=    0.000
 RMSDP=1.51D-05 MaxDP=3.66D-04 DE=-1.49D-04 OVMax= 1.16D-03

 Cycle   7  Pass 0  IDiag  1:
 E= -289.038442261251     Delta-E=       -0.000003718659 Rises=F Damp=F
 DIIS: error= 9.31D-05 at cycle   7 NSaved=   7.
 NSaved= 7 IEnMin= 7 EnMin= -289.038442261251     IErMin= 7 ErrMin= 9.31D-05
 ErrMax= 9.31D-05  0.00D+00 EMaxC= 1.00D+00 BMatC= 1.39D-06 BMatP= 3.52D-06
 IDIUse=1 WtCom= 1.00D+00 WtEn= 0.00D+00
 Coeff-Com:  0.712D-03-0.132D-03-0.104D-01-0.362D-01-0.279D-01 0.464D+00
 Coeff-Com:  0.610D+00
 Coeff:      0.712D-03-0.132D-03-0.104D-01-0.362D-01-0.279D-01 0.464D+00
 Coeff:      0.610D+00
 Gap=     0.454 Goal=   None    Shift=    0.000
 RMSDP=5.35D-06 MaxDP=1.24D-04 DE=-3.72D-06 OVMax= 3.37D-04

 Initial convergence to 1.0D-05 achieved.  Increase integral accuracy.
 Cycle   8  Pass 1  IDiag  1:
 E= -289.038464448319     Delta-E=       -0.000022187069 Rises=F Damp=F
 DIIS: error= 1.97D-05 at cycle   1 NSaved=   1.
 NSaved= 1 IEnMin= 1 EnMin= -289.038464448319     IErMin= 1 ErrMin= 1.97D-05
 ErrMax= 1.97D-05  0.00D+00 EMaxC= 1.00D+00 BMatC= 1.64D-07 BMatP= 1.64D-07
 IDIUse=1 WtCom= 1.00D+00 WtEn= 0.00D+00
 Coeff-Com:  0.100D+01
 Coeff:      0.100D+01
 Gap=     0.454 Goal=   None    Shift=    0.000
 RMSDP=5.35D-06 MaxDP=1.24D-04 DE=-2.22D-05 OVMax= 1.35D-04

 Cycle   9  Pass 1  IDiag  1:
 E= -289.038464544100     Delta-E=       -0.000000095780 Rises=F Damp=F
 DIIS: error= 2.09D-05 at cycle   2 NSaved=   2.
 NSaved= 2 IEnMin= 2 EnMin= -289.038464544100     IErMin= 1 ErrMin= 1.97D-05
 ErrMax= 2.09D-05  0.00D+00 EMaxC= 1.00D+00 BMatC= 7.25D-08 BMatP= 1.64D-07
 IDIUse=1 WtCom= 1.00D+00 WtEn= 0.00D+00
 Coeff-Com:  0.361D+00 0.639D+00
 Coeff:      0.361D+00 0.639D+00
 Gap=     0.454 Goal=   None    Shift=    0.000
 RMSDP=1.26D-06 MaxDP=3.26D-05 DE=-9.58D-08 OVMax= 9.21D-05

 Cycle  10  Pass 1  IDiag  1:
 E= -289.038464579073     Delta-E=       -0.000000034974 Rises=F Damp=F
 DIIS: error= 9.49D-06 at cycle   3 NSaved=   3.
 NSaved= 3 IEnMin= 3 EnMin= -289.038464579073     IErMin= 3 ErrMin= 9.49D-06
 ErrMax= 9.49D-06  0.00D+00 EMaxC= 1.00D+00 BMatC= 1.94D-08 BMatP= 7.25D-08
 IDIUse=1 WtCom= 1.00D+00 WtEn= 0.00D+00
 Coeff-Com: -0.231D-01 0.331D+00 0.692D+00
 Coeff:     -0.231D-01 0.331D+00 0.692D+00
 Gap=     0.454 Goal=   None    Shift=    0.000
 RMSDP=5.85D-07 MaxDP=1.30D-05 DE=-3.50D-08 OVMax= 4.00D-05

 Cycle  11  Pass 1  IDiag  1:
 E= -289.038464591540     Delta-E=       -0.000000012466 Rises=F Damp=F
 DIIS: error= 2.51D-06 at cycle   4 NSaved=   4.
 NSaved= 4 IEnMin= 4 EnMin= -289.038464591540     IErMin= 4 ErrMin= 2.51D-06
 ErrMax= 2.51D-06  0.00D+00 EMaxC= 1.00D+00 BMatC= 9.94D-10 BMatP= 1.94D-08
 IDIUse=1 WtCom= 1.00D+00 WtEn= 0.00D+00
 Coeff-Com: -0.253D-01 0.126D+00 0.318D+00 0.581D+00
 Coeff:     -0.253D-01 0.126D+00 0.318D+00 0.581D+00
 Gap=     0.454 Goal=   None    Shift=    0.000
 RMSDP=1.35D-07 MaxDP=3.58D-06 DE=-1.25D-08 OVMax= 9.44D-06

 Cycle  12  Pass 1  IDiag  1:
 E= -289.038464592298     Delta-E=       -0.000000000758 Rises=F Damp=F
 DIIS: error= 5.93D-07 at cycle   5 NSaved=   5.
 NSaved= 5 IEnMin= 5 EnMin= -289.038464592298     IErMin= 5 ErrMin= 5.93D-07
 ErrMax= 5.93D-07  0.00D+00 EMaxC= 1.00D+00 BMatC= 9.44D-11 BMatP= 9.94D-10
 IDIUse=1 WtCom= 1.00D+00 WtEn= 0.00D+00
 Coeff-Com: -0.262D-02-0.219D-01-0.317D-01 0.194D+00 0.863D+00
 Coeff:     -0.262D-02-0.219D-01-0.317D-01 0.194D+00 0.863D+00
 Gap=     0.454 Goal=   None    Shift=    0.000
 RMSDP=6.74D-08 MaxDP=1.62D-06 DE=-7.58D-10 OVMax= 4.41D-06

 Cycle  13  Pass 1  IDiag  1:
 E= -289.038464592398     Delta-E=       -0.000000000100 Rises=F Damp=F
 DIIS: error= 1.83D-07 at cycle   6 NSaved=   6.
 NSaved= 6 IEnMin= 6 EnMin= -289.038464592398     IErMin= 6 ErrMin= 1.83D-07
 ErrMax= 1.83D-07  0.00D+00 EMaxC= 1.00D+00 BMatC= 8.12D-12 BMatP= 9.44D-11
 IDIUse=1 WtCom= 1.00D+00 WtEn= 0.00D+00
 Coeff-Com:  0.157D-02-0.221D-01-0.474D-01 0.640D-02 0.273D+00 0.788D+00
 Coeff:      0.157D-02-0.221D-01-0.474D-01 0.640D-02 0.273D+00 0.788D+00
 Gap=     0.454 Goal=   None    Shift=    0.000
 RMSDP=2.15D-08 MaxDP=4.85D-07 DE=-1.00D-10 OVMax= 1.59D-06

 Cycle  14  Pass 1  IDiag  1:
 E= -289.038464592404     Delta-E=       -0.000000000006 Rises=F Damp=F
 DIIS: error= 3.28D-08 at cycle   7 NSaved=   7.
 NSaved= 7 IEnMin= 7 EnMin= -289.038464592404     IErMin= 7 ErrMin= 3.28D-08
 ErrMax= 3.28D-08  0.00D+00 EMaxC= 1.00D+00 BMatC= 3.60D-13 BMatP= 8.12D-12
 IDIUse=1 WtCom= 1.00D+00 WtEn= 0.00D+00
 Coeff-Com:  0.646D-03-0.292D-02-0.817D-02-0.113D-01-0.302D-02 0.132D+00
 Coeff-Com:  0.893D+00
 Coeff:      0.646D-03-0.292D-02-0.817D-02-0.113D-01-0.302D-02 0.132D+00
 Coeff:      0.893D+00
 Gap=     0.454 Goal=   None    Shift=    0.000
 RMSDP=5.78D-09 MaxDP=1.03D-07 DE=-6.03D-12 OVMax= 5.71D-07

 SCF Done:  E(RM062X) =  -289.038464592     A.U. after   14 cycles
            NFock= 14  Conv=0.58D-08     -V/T= 2.0037
 KE= 2.879746672437D+02 PE=-9.276505156691D+02 EE= 2.286346731621D+02
 Leave Link  502 at Sun May 25 04:22:23 2025, MaxMem=  3758096384 cpu:              13.2 elap:               2.2
 (Enter /apps/easybuild-2022/easybuild/software/Compiler/NVHPC/22.11-CUDA-11.7.0/Gaussian/g16c01-CUDA-11.7.0/g16/l508.exe)
 QCSCF skips out because SCF is already converged.
 Leave Link  508 at Sun May 25 04:22:23 2025, MaxMem=  3758096384 cpu:               0.0 elap:               0.0
 (Enter /apps/easybuild-2022/easybuild/software/Compiler/NVHPC/22.11-CUDA-11.7.0/Gaussian/g16c01-CUDA-11.7.0/g16/l701.exe)
 ... and contract with generalized density number  0.
 Compute integral first derivatives.
   1 Symmetry operations used in ECPInt.
 ECPInt:  NShTT=    1275 NPrTT=    4007 LenC2=    1265 LenP2D=    3421.
 LDataN:  DoStor=T MaxTD1= 7 Len=  274
 Leave Link  701 at Sun May 25 04:22:23 2025, MaxMem=  3758096384 cpu:               0.4 elap:               0.1
 (Enter /apps/easybuild-2022/easybuild/software/Compiler/NVHPC/22.11-CUDA-11.7.0/Gaussian/g16c01-CUDA-11.7.0/g16/l702.exe)
 L702 exits ... SP integral derivatives will be done elsewhere.
 Leave Link  702 at Sun May 25 04:22:23 2025, MaxMem=  3758096384 cpu:               0.0 elap:               0.0
 (Enter /apps/easybuild-2022/easybuild/software/Compiler/NVHPC/22.11-CUDA-11.7.0/Gaussian/g16c01-CUDA-11.7.0/g16/l703.exe)
 Integral derivatives from FoFJK, PRISM(SPDF).
 Compute integral first derivatives, UseDBF=F ICtDFT=           0.
 Calling FoFJK, ICntrl=      2127 FMM=F ISym2X=0 I1Cent= 0 IOpClX= 0 NMat=1 NMatS=1 NMatT=0.
 FoFJK:  IHMeth= 1 ICntrl=    2127 DoSepK=F KAlg= 0 I1Cent=           0 FoldK=F
 IRaf=         0 NMat=       1 IRICut=       1 DoRegI=T DoRafI=F ISym2E= 0 IDoP0=0 IntGTp=1.
 FoFCou: FMM=F IPFlag=           0 FMFlag=      100000 FMFlg1=         800
         NFxFlg=           0 DoJE=F BraDBF=F KetDBF=F FulRan=T
         wScrn=  0.000000 ICntrl=      2127 IOpCl=  0 I1Cent=           0 NGrid=           0
         NMat0=    1 NMatS0=      1 NMatT0=    0 NMatD0=    1 NMtDS0=    0 NMtDT0=    0
 Symmetry not used in FoFCou.
 Leave Link  703 at Sun May 25 04:22:24 2025, MaxMem=  3758096384 cpu:               6.3 elap:               0.8
 (Enter /apps/easybuild-2022/easybuild/software/Compiler/NVHPC/22.11-CUDA-11.7.0/Gaussian/g16c01-CUDA-11.7.0/g16/l716.exe)
 Dipole        = 4.28765721D-01 7.13957025D-01 3.32226218D-01
 -------------------------------------------------------------------
 Center     Atomic                   Forces (Hartrees/Bohr)
 Number     Number              X              Y              Z
 -------------------------------------------------------------------
      1        6           0.002725142    0.001157784   -0.004486112
      2        8          -0.000262266    0.000477306    0.003772627
      3        9          -0.002645900   -0.000630046   -0.002146424
      4        8          -0.003490784   -0.000935008    0.007809118
      5        1           0.003673809   -0.000070036   -0.004949209
 -------------------------------------------------------------------
 Cartesian Forces:  Max     0.007809118 RMS     0.003341306
 Leave Link  716 at Sun May 25 04:22:24 2025, MaxMem=  3758096384 cpu:               0.0 elap:               0.0
 (Enter /apps/easybuild-2022/easybuild/software/Compiler/NVHPC/22.11-CUDA-11.7.0/Gaussian/g16c01-CUDA-11.7.0/g16/l103.exe)

 GradGradGradGradGradGradGradGradGradGradGradGradGradGradGradGradGradGrad
 Berny optimization.
 Using GEDIIS/GDIIS optimizer.
 FormGI is forming the generalized inverse of G from B-inverse, IUseBI=4.
 Internal  Forces:  Max     0.005722358 RMS     0.002541452
 Search for a local minimum.
 Step number   2 out of a maximum of   21
 All quantities printed in internal units (Hartrees-Bohrs-Radians)
 RMS Force = .25415D-02 SwitMx=.10000D-02 MixMth= 1
 Mixed Optimization -- RFO/linear search
 Update second derivatives using D2CorX and points    1    2
 DE= -1.12D-02 DEPred=-1.50D-02 R= 7.42D-01
 TightC=F SS=  1.41D+00  RLast= 1.00D+00 DXNew= 5.0454D-01 3.0085D+00
 Trust test= 7.42D-01 RLast= 1.00D+00 DXMaxT set to 5.05D-01
 The second derivative matrix:
                          R1        R2        R3        R4        A1
           R1           1.05852
           R2           0.02877   0.47576
           R3           0.12679  -0.02069   0.56706
           R4          -0.01309   0.00651  -0.00570   0.53680
           A1           0.00731   0.05158  -0.07823   0.00604   0.19891
           A2           0.06769  -0.12594   0.07869  -0.01337  -0.10539
           A3          -0.07506   0.07447  -0.00055   0.00734  -0.09349
           A4           0.00258   0.00353   0.06068   0.02552  -0.00526
           D1           0.01392  -0.02221   0.01897  -0.00428  -0.00703
           D2          -0.01578   0.02154  -0.00666   0.00286   0.00162
           D3          -0.00104  -0.00199   0.01343  -0.00166  -0.00581
                          A2        A3        A4        D1        D2
           A2           0.23473
           A3          -0.12941   0.22295
           A4          -0.00790   0.01316   0.15124
           D1           0.01225  -0.00524  -0.00681   0.05833
           D2          -0.01261   0.01099   0.00859  -0.03101   0.01851
           D3           0.00039   0.00540   0.00144   0.03031  -0.01407
                          D3
           D3           0.01781
 ITU=  1  0
 Use linear search instead of GDIIS.
     Eigenvalues ---    0.00286   0.08531   0.13997   0.22797   0.28394
     Eigenvalues ---    0.51864   0.54206   0.63207   1.10767
 RFO step:  Lambda=-4.72621588D-04 EMin= 2.85988361D-03
 Quartic linear search produced a step of  0.35133.
 Iteration  1 RMS(Cart)=  0.06318947 RMS(Int)=  0.08129717
 Iteration  2 RMS(Cart)=  0.06034508 RMS(Int)=  0.00629140
 Iteration  3 RMS(Cart)=  0.00588316 RMS(Int)=  0.00005936
 Iteration  4 RMS(Cart)=  0.00004026 RMS(Int)=  0.00005199
 Iteration  5 RMS(Cart)=  0.00000000 RMS(Int)=  0.00005199
 ITry= 1 IFail=0 DXMaxC= 2.57D-01 DCOld= 1.00D+10 DXMaxT= 5.05D-01 DXLimC= 3.00D+00 Rises=F
 Variable       Old X    -DE/DX   Delta X   Delta X   Delta X     New X
                                 (Linear)    (Quad)   (Total)
    R1        2.23041  -0.00050   0.00522   0.00031   0.00553   2.23595
    R2        2.48542   0.00296  -0.01760   0.00993  -0.00767   2.47775
    R3        2.50880  -0.00063   0.00349  -0.00807  -0.00458   2.50422
    R4        1.82023   0.00109  -0.00034   0.00280   0.00246   1.82269
    A1        2.15468  -0.00006   0.00337   0.00125   0.00454   2.15922
    A2        2.24435  -0.00139   0.01015  -0.00400   0.00607   2.25042
    A3        1.88367   0.00147  -0.01368   0.00347  -0.01029   1.87338
    A4        1.88691   0.00010  -0.01421  -0.00722  -0.02144   1.86547
    D1       -3.11101  -0.00085   0.01074  -0.02335  -0.01267  -3.12368
    D2       -0.35825   0.00572   0.24236   0.15052   0.39283   0.03458
    D3        2.81599   0.00478   0.25383   0.12546   0.37934  -3.08785
         Item               Value     Threshold  Converged?
 Maximum Force            0.005722     0.000450     NO 
 RMS     Force            0.002541     0.000300     NO 
 Maximum Displacement     0.257387     0.001800     NO 
 RMS     Displacement     0.120279     0.001200     NO 
 Predicted change in Energy=-3.577068D-03
 Lowest energy point so far.  Saving SCF results.
 GradGradGradGradGradGradGradGradGradGradGradGradGradGradGradGradGradGrad

 Leave Link  103 at Sun May 25 04:22:24 2025, MaxMem=  3758096384 cpu:               0.0 elap:               0.0
 (Enter /apps/easybuild-2022/easybuild/software/Compiler/NVHPC/22.11-CUDA-11.7.0/Gaussian/g16c01-CUDA-11.7.0/g16/l202.exe)
                          Input orientation:                          
 ---------------------------------------------------------------------
 Center     Atomic      Atomic             Coordinates (Angstroms)
 Number     Number       Type             X           Y           Z
 ---------------------------------------------------------------------
      1          6           0        1.293887    0.017204    0.083003
      2          8           0        2.000409   -0.931806    0.097047
      3          9           0        0.017619   -0.029985   -0.213765
      4          8           0        1.596786    1.284686    0.323496
      5          1           0        2.545740    1.318675    0.492719
 ---------------------------------------------------------------------
                    Distance matrix (angstroms):
                    1          2          3          4          5
     1  C    0.000000
     2  O    1.183212   0.000000
     3  F    1.311167   2.200304   0.000000
     4  O    1.325178   2.264294   2.123859   0.000000
     5  H    1.851710   2.349171   2.951169   0.964524   0.000000
 Symmetry turned off by external request.
 Stoichiometry    CHFO2
 Rotational constants (GHZ):          11.9864621          11.6953232           5.9198832
 Leave Link  202 at Sun May 25 04:22:24 2025, MaxMem=  3758096384 cpu:               0.0 elap:               0.0
 (Enter /apps/easybuild-2022/easybuild/software/Compiler/NVHPC/22.11-CUDA-11.7.0/Gaussian/g16c01-CUDA-11.7.0/g16/l301.exe)
 Standard basis: def2TZVPP (5D, 7F)
 Ernie: Thresh=  0.10000D-02 Tol=  0.10000D-05 Strict=F.
   138 basis functions,   221 primitive gaussians,   159 cartesian basis functions
    16 alpha electrons       16 beta electrons
       nuclear repulsion energy       122.1613957958 Hartrees.
 IExCor= 4336 DFT=T Ex+Corr=M062X ExCW=0 ScaHFX=  0.540000
 ScaDFX=  1.000000  1.000000  1.000000  1.000000 ScalE2=  1.000000  1.000000
 IRadAn=      5 IRanWt=     -1 IRanGd=            0 ICorTp=0 IEmpDi=  4
 NAtoms=    5 NActive=    5 NUniq=    5 SFac= 1.00D+00 NAtFMM=   60 NAOKFM=F Big=F
 Integral buffers will be    131072 words long.
 Raffenetti 2 integral format.
 Two-electron integral symmetry is turned off.
 Leave Link  301 at Sun May 25 04:22:24 2025, MaxMem=  3758096384 cpu:               0.1 elap:               0.0
 (Enter /apps/easybuild-2022/easybuild/software/Compiler/NVHPC/22.11-CUDA-11.7.0/Gaussian/g16c01-CUDA-11.7.0/g16/l302.exe)
 NPDir=0 NMtPBC=     1 NCelOv=     1 NCel=       1 NClECP=     1 NCelD=      1
         NCelK=      1 NCelE2=     1 NClLst=     1 CellRange=     0.0.
 One-electron integrals computed using PRISM.
   1 Symmetry operations used in ECPInt.
 ECPInt:  NShTT=    1275 NPrTT=    4007 LenC2=    1265 LenP2D=    3420.
 LDataN:  DoStor=T MaxTD1= 6 Len=  172
 NBasis=   138 RedAO= T EigKep=  1.01D-03  NBF=   138
 NBsUse=   138 1.00D-06 EigRej= -1.00D+00 NBFU=   138
 Precomputing XC quadrature grid using
 IXCGrd= 4 IRadAn=           5 IRanWt=          -1 IRanGd=           0 AccXCQ= 0.00D+00.
 Generated NRdTot=       0 NPtTot=           0 NUsed=           0 NTot=          32
 NSgBfM=   159   159   159   159   159 MxSgAt=     5 MxSgA2=     5.
 Leave Link  302 at Sun May 25 04:22:24 2025, MaxMem=  3758096384 cpu:               0.4 elap:               0.1
 (Enter /apps/easybuild-2022/easybuild/software/Compiler/NVHPC/22.11-CUDA-11.7.0/Gaussian/g16c01-CUDA-11.7.0/g16/l303.exe)
 DipDrv:  MaxL=1.
 Leave Link  303 at Sun May 25 04:22:24 2025, MaxMem=  3758096384 cpu:               0.1 elap:               0.0
 (Enter /apps/easybuild-2022/easybuild/software/Compiler/NVHPC/22.11-CUDA-11.7.0/Gaussian/g16c01-CUDA-11.7.0/g16/l401.exe)
 Initial guess from the checkpoint file:  "/tmp/Gau-110598.chk"
 B after Tr=    -0.001296   -0.010962   -0.105602
         Rot=    0.999307   -0.022068    0.029598   -0.004795 Ang=  -4.27 deg.
 Guess basis will be translated and rotated to current coordinates.
 JPrj=2 DoOrth=T DoCkMO=T.
 Generating alternative initial guess.
 ExpMin= 9.52D-02 ExpMax= 3.55D+04 ExpMxC= 1.21D+03 IAcc=3 IRadAn=         5 AccDes= 0.00D+00
 Harris functional with IExCor= 1009 and IRadAn=       5 diagonalized for initial guess.
 HarFok:  IExCor= 1009 AccDes= 0.00D+00 IRadAn=         5 IDoV= 1 UseB2=F ITyADJ=14
 ICtDFT=  3500011 ScaDFX=  1.000000  1.000000  1.000000  1.000000
 FoFCou: FMM=F IPFlag=           0 FMFlag=      100000 FMFlg1=           0
         NFxFlg=           0 DoJE=T BraDBF=F KetDBF=T FulRan=T
         wScrn=  0.000000 ICntrl=       500 IOpCl=  0 I1Cent=   200000004 NGrid=           0
         NMat0=    1 NMatS0=      1 NMatT0=    0 NMatD0=    1 NMtDS0=    0 NMtDT0=    0
 Symmetry not used in FoFCou.
 Harris En= -288.896083729650    
 Leave Link  401 at Sun May 25 04:22:24 2025, MaxMem=  3758096384 cpu:               1.1 elap:               0.2
 (Enter /apps/easybuild-2022/easybuild/software/Compiler/NVHPC/22.11-CUDA-11.7.0/Gaussian/g16c01-CUDA-11.7.0/g16/l502.exe)
 Keep R1 ints in memory in canonical form, NReq=53882713.
 FoFCou: FMM=F IPFlag=           0 FMFlag=           0 FMFlg1=           0
         NFxFlg=           0 DoJE=F BraDBF=F KetDBF=F FulRan=T
         wScrn=  0.000000 ICntrl=       600 IOpCl=  0 I1Cent=           0 NGrid=           0
         NMat0=    1 NMatS0=   9591 NMatT0=    0 NMatD0=    1 NMtDS0=    0 NMtDT0=    0
 Symmetry not used in FoFCou.
 Two-electron integral symmetry not used.
 Closed shell SCF:
 Using DIIS extrapolation, IDIIS=  1040.
 NGot=  3758096384 LenX=  3712044893 LenY=  3712019171
 Requested convergence on RMS density matrix=1.00D-08 within  32 cycles.
 Requested convergence on MAX density matrix=1.00D-06.
 Requested convergence on             energy=1.00D-06.
 No special actions if energy rises.
 Integral accuracy reduced to 1.0D-05 until final iterations.

 Cycle   1  Pass 0  IDiag  1:
 E= -289.025307998393    
 DIIS: error= 1.05D-02 at cycle   1 NSaved=   1.
 NSaved= 1 IEnMin= 1 EnMin= -289.025307998393     IErMin= 1 ErrMin= 1.05D-02
 ErrMax= 1.05D-02  0.00D+00 EMaxC= 1.00D-01 BMatC= 1.43D-02 BMatP= 1.43D-02
 IDIUse=3 WtCom= 8.95D-01 WtEn= 1.05D-01
 Coeff-Com:  0.100D+01
 Coeff-En:   0.100D+01
 Coeff:      0.100D+01
 Recover alternate guess density for next cycle.
 RMSDP=1.88D-03 MaxDP=5.17D-02              OVMax= 0.00D+00

 Cycle   2  Pass 0  IDiag  1:
 E= -288.925414413022     Delta-E=        0.099893585371 Rises=F Damp=F
 Switch densities from cycles 1 and 2 for lowest energy.
 DIIS: error= 3.80D-02 at cycle   2 NSaved=   2.
 NSaved= 2 IEnMin= 1 EnMin= -289.025307998393     IErMin= 1 ErrMin= 1.05D-02
 ErrMax= 3.80D-02  0.00D+00 EMaxC= 1.00D+00 BMatC= 2.08D-01 BMatP= 1.43D-02
 IDIUse=1 WtCom= 1.00D+00 WtEn= 0.00D+00
 Coeff-Com:  0.946D+00 0.545D-01
 Coeff:      0.946D+00 0.545D-01
 Gap=     0.468 Goal=   None    Shift=    0.000
 RMSDP=8.16D-04 MaxDP=3.09D-02 DE= 9.99D-02 OVMax= 1.02D-01

 Cycle   3  Pass 0  IDiag  1:
 E= -289.039077367681     Delta-E=       -0.113662954659 Rises=F Damp=F
 DIIS: error= 2.78D-03 at cycle   3 NSaved=   3.
 NSaved= 3 IEnMin= 3 EnMin= -289.039077367681     IErMin= 3 ErrMin= 2.78D-03
 ErrMax= 2.78D-03  0.00D+00 EMaxC= 1.00D+00 BMatC= 1.24D-03 BMatP= 1.43D-02
 IDIUse=1 WtCom= 1.00D+00 WtEn= 0.00D+00
 Coeff-Com: -0.669D-01 0.606D-01 0.101D+01
 Coeff:     -0.669D-01 0.606D-01 0.101D+01
 Gap=     0.458 Goal=   None    Shift=    0.000
 RMSDP=1.87D-04 MaxDP=6.56D-03 DE=-1.14D-01 OVMax= 1.07D-02

 Cycle   4  Pass 0  IDiag  1:
 E= -289.040085006194     Delta-E=       -0.001007638513 Rises=F Damp=F
 DIIS: error= 8.45D-04 at cycle   4 NSaved=   4.
 NSaved= 4 IEnMin= 4 EnMin= -289.040085006194     IErMin= 4 ErrMin= 8.45D-04
 ErrMax= 8.45D-04  0.00D+00 EMaxC= 1.00D+00 BMatC= 1.04D-04 BMatP= 1.24D-03
 IDIUse=1 WtCom= 1.00D+00 WtEn= 0.00D+00
 Coeff-Com: -0.344D-01 0.534D-02 0.242D+00 0.787D+00
 Coeff:     -0.344D-01 0.534D-02 0.242D+00 0.787D+00
 Gap=     0.458 Goal=   None    Shift=    0.000
 RMSDP=5.06D-05 MaxDP=1.48D-03 DE=-1.01D-03 OVMax= 3.03D-03

 Cycle   5  Pass 0  IDiag  1:
 E= -289.040142171665     Delta-E=       -0.000057165471 Rises=F Damp=F
 DIIS: error= 6.02D-04 at cycle   5 NSaved=   5.
 NSaved= 5 IEnMin= 5 EnMin= -289.040142171665     IErMin= 5 ErrMin= 6.02D-04
 ErrMax= 6.02D-04  0.00D+00 EMaxC= 1.00D+00 BMatC= 3.47D-05 BMatP= 1.04D-04
 IDIUse=1 WtCom= 1.00D+00 WtEn= 0.00D+00
 Coeff-Com: -0.107D-01-0.334D-02 0.395D-01 0.414D+00 0.560D+00
 Coeff:     -0.107D-01-0.334D-02 0.395D-01 0.414D+00 0.560D+00
 Gap=     0.457 Goal=   None    Shift=    0.000
 RMSDP=2.11D-05 MaxDP=5.64D-04 DE=-5.72D-05 OVMax= 1.64D-03

 Cycle   6  Pass 0  IDiag  1:
 E= -289.040164866655     Delta-E=       -0.000022694990 Rises=F Damp=F
 DIIS: error= 8.86D-05 at cycle   6 NSaved=   6.
 NSaved= 6 IEnMin= 6 EnMin= -289.040164866655     IErMin= 6 ErrMin= 8.86D-05
 ErrMax= 8.86D-05  0.00D+00 EMaxC= 1.00D+00 BMatC= 1.13D-06 BMatP= 3.47D-05
 IDIUse=1 WtCom= 1.00D+00 WtEn= 0.00D+00
 Coeff-Com:  0.728D-03-0.529D-03-0.233D-01-0.673D-02 0.107D+00 0.923D+00
 Coeff:      0.728D-03-0.529D-03-0.233D-01-0.673D-02 0.107D+00 0.923D+00
 Gap=     0.457 Goal=   None    Shift=    0.000
 RMSDP=8.18D-06 MaxDP=2.29D-04 DE=-2.27D-05 OVMax= 5.71D-04

 Initial convergence to 1.0D-05 achieved.  Increase integral accuracy.
 Cycle   7  Pass 1  IDiag  1:
 E= -289.040184635371     Delta-E=       -0.000019768717 Rises=F Damp=F
 DIIS: error= 4.27D-05 at cycle   1 NSaved=   1.
 NSaved= 1 IEnMin= 1 EnMin= -289.040184635371     IErMin= 1 ErrMin= 4.27D-05
 ErrMax= 4.27D-05  0.00D+00 EMaxC= 1.00D+00 BMatC= 4.24D-07 BMatP= 4.24D-07
 IDIUse=1 WtCom= 1.00D+00 WtEn= 0.00D+00
 Coeff-Com:  0.100D+01
 Coeff:      0.100D+01
 Gap=     0.457 Goal=   None    Shift=    0.000
 RMSDP=8.18D-06 MaxDP=2.29D-04 DE=-1.98D-05 OVMax= 2.68D-04

 Cycle   8  Pass 1  IDiag  1:
 E= -289.040184677172     Delta-E=       -0.000000041801 Rises=F Damp=F
 DIIS: error= 5.18D-05 at cycle   2 NSaved=   2.
 NSaved= 2 IEnMin= 2 EnMin= -289.040184677172     IErMin= 1 ErrMin= 4.27D-05
 ErrMax= 5.18D-05  0.00D+00 EMaxC= 1.00D+00 BMatC= 4.41D-07 BMatP= 4.24D-07
 IDIUse=1 WtCom= 1.00D+00 WtEn= 0.00D+00
 Coeff-Com:  0.506D+00 0.494D+00
 Coeff:      0.506D+00 0.494D+00
 Gap=     0.457 Goal=   None    Shift=    0.000
 RMSDP=2.36D-06 MaxDP=6.20D-05 DE=-4.18D-08 OVMax= 1.70D-04

 Cycle   9  Pass 1  IDiag  1:
 E= -289.040184931310     Delta-E=       -0.000000254139 Rises=F Damp=F
 DIIS: error= 1.24D-05 at cycle   3 NSaved=   3.
 NSaved= 3 IEnMin= 3 EnMin= -289.040184931310     IErMin= 3 ErrMin= 1.24D-05
 ErrMax= 1.24D-05  0.00D+00 EMaxC= 1.00D+00 BMatC= 1.94D-08 BMatP= 4.24D-07
 IDIUse=1 WtCom= 1.00D+00 WtEn= 0.00D+00
 Coeff-Com:  0.515D-02 0.159D+00 0.836D+00
 Coeff:      0.515D-02 0.159D+00 0.836D+00
 Gap=     0.457 Goal=   None    Shift=    0.000
 RMSDP=7.30D-07 MaxDP=1.93D-05 DE=-2.54D-07 OVMax= 5.75D-05

 Cycle  10  Pass 1  IDiag  1:
 E= -289.040184944806     Delta-E=       -0.000000013495 Rises=F Damp=F
 DIIS: error= 5.20D-06 at cycle   4 NSaved=   4.
 NSaved= 4 IEnMin= 4 EnMin= -289.040184944806     IErMin= 4 ErrMin= 5.20D-06
 ErrMax= 5.20D-06  0.00D+00 EMaxC= 1.00D+00 BMatC= 4.35D-09 BMatP= 1.94D-08
 IDIUse=1 WtCom= 1.00D+00 WtEn= 0.00D+00
 Coeff-Com: -0.297D-01 0.521D-01 0.446D+00 0.531D+00
 Coeff:     -0.297D-01 0.521D-01 0.446D+00 0.531D+00
 Gap=     0.457 Goal=   None    Shift=    0.000
 RMSDP=2.34D-07 MaxDP=6.84D-06 DE=-1.35D-08 OVMax= 1.67D-05

 Cycle  11  Pass 1  IDiag  1:
 E= -289.040184947775     Delta-E=       -0.000000002969 Rises=F Damp=F
 DIIS: error= 8.48D-07 at cycle   5 NSaved=   5.
 NSaved= 5 IEnMin= 5 EnMin= -289.040184947775     IErMin= 5 ErrMin= 8.48D-07
 ErrMax= 8.48D-07  0.00D+00 EMaxC= 1.00D+00 BMatC= 1.07D-10 BMatP= 4.35D-09
 IDIUse=1 WtCom= 1.00D+00 WtEn= 0.00D+00
 Coeff-Com: -0.162D-02-0.170D-01-0.769D-01 0.173D-01 0.108D+01
 Coeff:     -0.162D-02-0.170D-01-0.769D-01 0.173D-01 0.108D+01
 Gap=     0.457 Goal=   None    Shift=    0.000
 RMSDP=1.28D-07 MaxDP=2.52D-06 DE=-2.97D-09 OVMax= 1.45D-05

 Cycle  12  Pass 1  IDiag  1:
 E= -289.040184948078     Delta-E=       -0.000000000303 Rises=F Damp=F
 DIIS: error= 3.23D-07 at cycle   6 NSaved=   6.
 NSaved= 6 IEnMin= 6 EnMin= -289.040184948078     IErMin= 6 ErrMin= 3.23D-07
 ErrMax= 3.23D-07  0.00D+00 EMaxC= 1.00D+00 BMatC= 2.47D-11 BMatP= 1.07D-10
 IDIUse=1 WtCom= 1.00D+00 WtEn= 0.00D+00
 Coeff-Com:  0.329D-02-0.133D-01-0.874D-01-0.720D-01 0.382D+00 0.787D+00
 Coeff:      0.329D-02-0.133D-01-0.874D-01-0.720D-01 0.382D+00 0.787D+00
 Gap=     0.457 Goal=   None    Shift=    0.000
 RMSDP=4.35D-08 MaxDP=8.44D-07 DE=-3.03D-10 OVMax= 5.15D-06

 Cycle  13  Pass 1  IDiag  1:
 E= -289.040184948124     Delta-E=       -0.000000000046 Rises=F Damp=F
 DIIS: error= 1.00D-07 at cycle   7 NSaved=   7.
 NSaved= 7 IEnMin= 7 EnMin= -289.040184948124     IErMin= 7 ErrMin= 1.00D-07
 ErrMax= 1.00D-07  0.00D+00 EMaxC= 1.00D+00 BMatC= 1.72D-12 BMatP= 2.47D-11
 IDIUse=1 WtCom= 1.00D+00 WtEn= 0.00D+00
 Coeff-Com:  0.860D-03-0.176D-02-0.136D-01-0.175D-01-0.901D-04 0.188D+00
 Coeff-Com:  0.844D+00
 Coeff:      0.860D-03-0.176D-02-0.136D-01-0.175D-01-0.901D-04 0.188D+00
 Coeff:      0.844D+00
 Gap=     0.457 Goal=   None    Shift=    0.000
 RMSDP=1.13D-08 MaxDP=2.11D-07 DE=-4.56D-11 OVMax= 1.32D-06

 Cycle  14  Pass 1  IDiag  1:
 E= -289.040184948121     Delta-E=        0.000000000002 Rises=F Damp=F
 DIIS: error= 4.58D-08 at cycle   8 NSaved=   8.
 NSaved= 8 IEnMin= 7 EnMin= -289.040184948124     IErMin= 8 ErrMin= 4.58D-08
 ErrMax= 4.58D-08  0.00D+00 EMaxC= 1.00D+00 BMatC= 5.47D-13 BMatP= 1.72D-12
 IDIUse=1 WtCom= 1.00D+00 WtEn= 0.00D+00
 Coeff-Com: -0.227D-03 0.173D-02 0.104D-01 0.610D-02-0.728D-01-0.621D-01
 Coeff-Com:  0.393D+00 0.724D+00
 Coeff:     -0.227D-03 0.173D-02 0.104D-01 0.610D-02-0.728D-01-0.621D-01
 Coeff:      0.393D+00 0.724D+00
 Gap=     0.457 Goal=   None    Shift=    0.000
 RMSDP=4.84D-09 MaxDP=7.44D-08 DE= 2.05D-12 OVMax= 5.04D-07

 SCF Done:  E(RM062X) =  -289.040184948     A.U. after   14 cycles
            NFock= 14  Conv=0.48D-08     -V/T= 2.0037
 KE= 2.879776837702D+02 PE=-9.279501130685D+02 EE= 2.287708485543D+02
 Leave Link  502 at Sun May 25 04:22:26 2025, MaxMem=  3758096384 cpu:              13.9 elap:               2.3
 (Enter /apps/easybuild-2022/easybuild/software/Compiler/NVHPC/22.11-CUDA-11.7.0/Gaussian/g16c01-CUDA-11.7.0/g16/l508.exe)
 QCSCF skips out because SCF is already converged.
 Leave Link  508 at Sun May 25 04:22:26 2025, MaxMem=  3758096384 cpu:               0.0 elap:               0.0
 (Enter /apps/easybuild-2022/easybuild/software/Compiler/NVHPC/22.11-CUDA-11.7.0/Gaussian/g16c01-CUDA-11.7.0/g16/l701.exe)
 ... and contract with generalized density number  0.
 Compute integral first derivatives.
   1 Symmetry operations used in ECPInt.
 ECPInt:  NShTT=    1275 NPrTT=    4007 LenC2=    1265 LenP2D=    3420.
 LDataN:  DoStor=T MaxTD1= 7 Len=  274
 Leave Link  701 at Sun May 25 04:22:26 2025, MaxMem=  3758096384 cpu:               0.4 elap:               0.1
 (Enter /apps/easybuild-2022/easybuild/software/Compiler/NVHPC/22.11-CUDA-11.7.0/Gaussian/g16c01-CUDA-11.7.0/g16/l702.exe)
 L702 exits ... SP integral derivatives will be done elsewhere.
 Leave Link  702 at Sun May 25 04:22:26 2025, MaxMem=  3758096384 cpu:               0.0 elap:               0.0
 (Enter /apps/easybuild-2022/easybuild/software/Compiler/NVHPC/22.11-CUDA-11.7.0/Gaussian/g16c01-CUDA-11.7.0/g16/l703.exe)
 Integral derivatives from FoFJK, PRISM(SPDF).
 Compute integral first derivatives, UseDBF=F ICtDFT=           0.
 Calling FoFJK, ICntrl=      2127 FMM=F ISym2X=0 I1Cent= 0 IOpClX= 0 NMat=1 NMatS=1 NMatT=0.
 FoFJK:  IHMeth= 1 ICntrl=    2127 DoSepK=F KAlg= 0 I1Cent=           0 FoldK=F
 IRaf=         0 NMat=       1 IRICut=       1 DoRegI=T DoRafI=F ISym2E= 0 IDoP0=0 IntGTp=1.
 FoFCou: FMM=F IPFlag=           0 FMFlag=      100000 FMFlg1=         800
         NFxFlg=           0 DoJE=F BraDBF=F KetDBF=F FulRan=T
         wScrn=  0.000000 ICntrl=      2127 IOpCl=  0 I1Cent=           0 NGrid=           0
         NMat0=    1 NMatS0=      1 NMatT0=    0 NMatD0=    1 NMtDS0=    0 NMtDT0=    0
 Symmetry not used in FoFCou.
 Leave Link  703 at Sun May 25 04:22:27 2025, MaxMem=  3758096384 cpu:               6.1 elap:               0.8
 (Enter /apps/easybuild-2022/easybuild/software/Compiler/NVHPC/22.11-CUDA-11.7.0/Gaussian/g16c01-CUDA-11.7.0/g16/l716.exe)
 Dipole        = 4.60825738D-01 7.24191820D-01 1.81811571D-01
 -------------------------------------------------------------------
 Center     Atomic                   Forces (Hartrees/Bohr)
 Number     Number              X              Y              Z
 -------------------------------------------------------------------
      1        6           0.003655658   -0.001004977   -0.002600783
      2        8          -0.001888194    0.004661096    0.001282924
      3        9          -0.006596306   -0.002922397   -0.000388712
      4        8           0.004437725   -0.002276397    0.000421571
      5        1           0.000391117    0.001542676    0.001285001
 -------------------------------------------------------------------
 Cartesian Forces:  Max     0.006596306 RMS     0.002938421
 Leave Link  716 at Sun May 25 04:22:27 2025, MaxMem=  3758096384 cpu:               0.0 elap:               0.0
 (Enter /apps/easybuild-2022/easybuild/software/Compiler/NVHPC/22.11-CUDA-11.7.0/Gaussian/g16c01-CUDA-11.7.0/g16/l103.exe)

 GradGradGradGradGradGradGradGradGradGradGradGradGradGradGradGradGradGrad
 Berny optimization.
 Using GEDIIS/GDIIS optimizer.
 FormGI is forming the generalized inverse of G from B-inverse, IUseBI=4.
 Internal  Forces:  Max     0.006615038 RMS     0.003468214
 Search for a local minimum.
 Step number   3 out of a maximum of   21
 All quantities printed in internal units (Hartrees-Bohrs-Radians)
 RMS Force = .34682D-02 SwitMx=.10000D-02 MixMth= 1
 Mixed Optimization -- RFO/linear search
 Update second derivatives using D2CorX and points    2    3
 DE= -1.72D-03 DEPred=-3.58D-03 R= 4.81D-01
 Trust test= 4.81D-01 RLast= 5.47D-01 DXMaxT set to 5.05D-01
 The second derivative matrix:
                          R1        R2        R3        R4        A1
           R1           1.06202
           R2           0.02761   0.46686
           R3           0.12515  -0.01722   0.56691
           R4          -0.01200   0.00224  -0.00498   0.53550
           A1           0.00797   0.05141  -0.07855   0.00627   0.19903
           A2           0.06936  -0.12256   0.07667  -0.01120  -0.10510
           A3          -0.07740   0.07130   0.00178   0.00495  -0.09391
           A4           0.00016   0.00457   0.06174   0.02486  -0.00572
           D1           0.01405  -0.01916   0.01793  -0.00294  -0.00702
           D2          -0.00964   0.01105  -0.00687   0.00122   0.00282
           D3           0.00528  -0.00937   0.01213  -0.00191  -0.00460
                          A2        A3        A4        D1        D2
           A2           0.23386
           A3          -0.12886   0.22284
           A4          -0.00916   0.01488   0.15291
           D1           0.01100  -0.00402  -0.00698   0.05730
           D2          -0.00611   0.00331   0.00456  -0.02798   0.02157
           D3           0.00564  -0.00106  -0.00280   0.03230  -0.00781
                          D3
           D3           0.02621
 ITU=  0  1  0
 Use linear search instead of GDIIS.
     Eigenvalues ---    0.01581   0.08452   0.14075   0.22791   0.28402
     Eigenvalues ---    0.52025   0.53927   0.62211   1.11032
 RFO step:  Lambda=-2.23964965D-04 EMin= 1.58108978D-02
 Quartic linear search produced a step of -0.15271.
 Iteration  1 RMS(Cart)=  0.01856095 RMS(Int)=  0.00041647
 Iteration  2 RMS(Cart)=  0.00035207 RMS(Int)=  0.00001410
 Iteration  3 RMS(Cart)=  0.00000013 RMS(Int)=  0.00001409
 ITry= 1 IFail=0 DXMaxC= 3.47D-02 DCOld= 1.00D+10 DXMaxT= 5.05D-01 DXLimC= 3.00D+00 Rises=F
 Variable       Old X    -DE/DX   Delta X   Delta X   Delta X     New X
                                 (Linear)    (Quad)   (Total)
    R1        2.23595  -0.00485  -0.00085  -0.00276  -0.00361   2.23234
    R2        2.47775   0.00662   0.00117   0.00932   0.01049   2.48824
    R3        2.50422   0.00071   0.00070   0.00112   0.00182   2.50604
    R4        1.82269   0.00067  -0.00038   0.00037  -0.00000   1.82268
    A1        2.15922  -0.00088  -0.00069  -0.00423  -0.00495   2.15427
    A2        2.25042  -0.00440  -0.00093  -0.00600  -0.00695   2.24348
[...]
                       Q            Log10(Q)             Ln(Q)
 Total Bot       0.184417D+00         -0.734199         -1.690556
 Total V=0       0.753108D+12         11.876857         27.347475
 Vib (Bot)       0.302876D-12        -12.518736        -28.825454
 Vib (Bot)    1  0.270278D+00         -0.568189         -1.308303
 Vib (Bot)    2  0.268662D+00         -0.570794         -1.314302
 Vib (V=0)       0.123686D+01          0.092321          0.212577
 Vib (V=0)    1  0.106838D+01          0.028724          0.066139
 Vib (V=0)    2  0.106761D+01          0.028412          0.065421
 Electronic      0.100000D+01          0.000000          0.000000
 Translational   0.201226D+08          7.303684         16.817353
 Rotational      0.302589D+05          4.480853         10.317545
 
                                                    Gaussian input prepared by AS
 E
                                                             IR Spectrum
 
     3                                                              1                 1     1       1                                
     8                                                              9                 4     2       0     8     655                  
     5                                                              5                 2     2       0     1     377                  
     4                                                              3                 0     5       1     0     020                  
 
     X                                                              X                 X     X       X     X     XXX                  
     X                                                              X                 X     X       X     X      X                   
     X                                                              X                 X     X                    X                   
     X                                                              X                 X     X                                        
     X                                                              X                 X     X                                        
                                                                    X                 X     X                                        
                                                                    X                 X     X                                        
                                                                    X                       X                                        
                                                                    X                       X                                        
                                                                    X                       X                                        
                                                                    X                       X                                        
                                                                    X                                                                
                                                                    X                                                                
                                                                    X                                                                
                                                                    X                                                                
                                                                    X                                                                
                                                                    X                                                                
                                                                    X                                                                
                                                                    X                                                                
                                                                    X                                                                
 
 -------------------------------------------------------------------
 Center     Atomic                   Forces (Hartrees/Bohr)
 Number     Number              X              Y              Z
 -------------------------------------------------------------------
      1        6          -0.000018886    0.000025097    0.000003952
      2        8           0.000027139   -0.000039207   -0.000002984
      3        9           0.000016916   -0.000006279    0.000005112
      4        8          -0.000020098    0.000040404   -0.000001947
      5        1          -0.000005071   -0.000020015   -0.000004133
 -------------------------------------------------------------------
 Cartesian Forces:  Max     0.000040404 RMS     0.000020199
 Force constants in Cartesian coordinates: 
                1             2             3             4             5 
      1  0.797081D+00
      2 -0.252341D+00  0.999311D+00
      3  0.838761D-01  0.480581D-01  0.262887D+00
      4 -0.358368D+00  0.341751D+00 -0.995442D-02  0.413148D+00
      5  0.340894D+00 -0.586872D+00  0.621674D-02 -0.416724D+00  0.672610D+00
      6 -0.100610D-01  0.640285D-02 -0.959137D-01  0.233494D-01 -0.334956D-02
      7 -0.294773D+00 -0.230651D-01 -0.503551D-01 -0.816636D-01  0.411736D-01
      8 -0.737967D-02 -0.888234D-01 -0.408642D-02  0.538695D-01  0.879590D-02
      9 -0.482803D-01 -0.739458D-02 -0.814000D-01 -0.155270D-01  0.638416D-02
     10 -0.127013D+00 -0.573920D-01 -0.189003D-01  0.279267D-01  0.250283D-01
     11 -0.262664D-01 -0.318899D+00 -0.380276D-01  0.157851D-01 -0.961233D-01
     12 -0.147494D-01 -0.446163D-01 -0.826234D-01  0.978137D-03 -0.119132D-01
     13 -0.169269D-01 -0.895334D-02 -0.466627D-02 -0.104287D-02  0.962742D-02
     14 -0.549077D-01 -0.471555D-02 -0.121607D-01  0.531809D-02  0.158955D-02
     15 -0.107854D-01 -0.245000D-02 -0.294949D-02  0.115392D-02  0.266184D-02
                6             7             8             9            10 
      6  0.429028D-01
      7 -0.172162D-01  0.428937D+00
      8  0.905476D-02  0.208213D-01  0.101435D+00
      9  0.237195D-01  0.881166D-01  0.147347D-01  0.442324D-01
     10  0.220658D-02 -0.563332D-01 -0.666837D-01 -0.237705D-01  0.649585D+00
     11 -0.138635D-01 -0.347291D-01 -0.146991D-01 -0.111587D-01  0.761620D-01
     12  0.318743D-01 -0.195372D-01 -0.178906D-01  0.793455D-02  0.138728D+00
     13  0.172126D-02  0.383270D-02 -0.627424D-03 -0.538809D-03 -0.494165D+00
     14  0.175548D-02 -0.420070D-02 -0.670884D-02 -0.256555D-02  0.228854D-01
     15 -0.258298D-02 -0.100799D-02 -0.181240D-02  0.551349D-02 -0.982641D-01
               11            12            13            14            15 
     11  0.474603D+00
     12  0.738811D-01  0.786819D-01
     13 -0.309516D-01 -0.105420D+00  0.508302D+00
     14 -0.448811D-01  0.538971D-03  0.309050D-01  0.547160D-01
     15 -0.108313D-01 -0.358673D-01  0.108904D+00  0.124318D-01  0.358863D-01
 FormGI is forming the generalized inverse of G from B-inverse, IUseBI=4.
 Force constants in internal coordinates: 
                1             2             3             4             5 
      1  0.979567D+00
      2  0.820771D-01  0.449539D+00
      3  0.830746D-01  0.572339D-01  0.486131D+00
      4 -0.833445D-02 -0.337778D-02  0.557917D-02  0.533961D+00
      5  0.198526D-01  0.234859D-01 -0.531508D-01  0.305697D-02  0.194396D+00
      6  0.332094D-01 -0.673967D-01  0.125208D-01 -0.961791D-02 -0.843040D-01
      7 -0.530620D-01  0.439108D-01  0.406300D-01  0.656095D-02 -0.110092D+00
      8  0.409497D-02  0.936653D-02  0.444798D-01  0.278634D-01 -0.283960D-02
      9  0.138578D-03  0.161469D-04  0.235094D-04  0.287074D-04 -0.150467D-04
     10 -0.631860D-04 -0.454646D-05 -0.195784D-04  0.354104D-04 -0.729566D-05
     11  0.832721D-04  0.168177D-04  0.264672D-05  0.665043D-04 -0.113421D-04
                6             7             8             9            10 
      6  0.188044D+00
      7 -0.103740D+00  0.213832D+00
      8 -0.244871D-01  0.273267D-01  0.178330D+00
      9 -0.305816D-04  0.487510D-04 -0.553508D-04  0.538299D-01
     10 -0.214708D-04  0.272536D-04 -0.118167D-03 -0.260786D-01  0.210504D-01
     11 -0.664632D-04  0.796107D-04 -0.175917D-03  0.311231D-01 -0.666171D-02
               11 
     11  0.264109D-01
 Leave Link  716 at Sun May 25 04:22:53 2025, MaxMem=  3758096384 cpu:               0.0 elap:               0.0
 (Enter /apps/easybuild-2022/easybuild/software/Compiler/NVHPC/22.11-CUDA-11.7.0/Gaussian/g16c01-CUDA-11.7.0/g16/l103.exe)

 GradGradGradGradGradGradGradGradGradGradGradGradGradGradGradGradGradGrad
 Berny optimization.
 Red2BG is reusing G-inverse.
 Internal  Forces:  Max     0.000046337 RMS     0.000020428
 Search for a local minimum.
 Step number   1 out of a maximum of    2
 All quantities printed in internal units (Hartrees-Bohrs-Radians)
 Second derivative matrix not updated -- analytic derivatives used.
 The second derivative matrix:
                          R1        R2        R3        R4        A1
           R1           0.97957
           R2           0.08208   0.44954
           R3           0.08307   0.05723   0.48613
           R4          -0.00833  -0.00338   0.00558   0.53396
           A1           0.01985   0.02349  -0.05315   0.00306   0.19440
           A2           0.03321  -0.06740   0.01252  -0.00962  -0.08430
           A3          -0.05306   0.04391   0.04063   0.00656  -0.11009
           A4           0.00409   0.00937   0.04448   0.02786  -0.00284
           D1           0.00014   0.00002   0.00002   0.00003  -0.00002
           D2          -0.00006  -0.00000  -0.00002   0.00004  -0.00001
           D3           0.00008   0.00002   0.00000   0.00007  -0.00001
                          A2        A3        A4        D1        D2
           A2           0.18804
           A3          -0.10374   0.21383
           A4          -0.02449   0.02733   0.17833
           D1          -0.00003   0.00005  -0.00006   0.05383
           D2          -0.00002   0.00003  -0.00012  -0.02608   0.02105
           D3          -0.00007   0.00008  -0.00018   0.03112  -0.00666
                          D3
           D3           0.02641
 ITU=  0
     Eigenvalues ---    0.01677   0.08452   0.15988   0.24231   0.28788
     Eigenvalues ---    0.44574   0.52762   0.54907   1.01131
 Angle between quadratic step and forces=  41.36 degrees.
 Linear search not attempted -- first point.
 Iteration  1 RMS(Cart)=  0.00011122 RMS(Int)=  0.00000002
 Iteration  2 RMS(Cart)=  0.00000001 RMS(Int)=  0.00000000
 ITry= 1 IFail=0 DXMaxC= 2.86D-04 DCOld= 1.00D+10 DXMaxT= 3.00D-01 DXLimC= 3.00D+00 Rises=F
 Variable       Old X    -DE/DX   Delta X   Delta X   Delta X     New X
                                 (Linear)    (Quad)   (Total)
    R1        2.23103   0.00005   0.00000   0.00005   0.00005   2.23108
    R2        2.49028  -0.00002   0.00000  -0.00005  -0.00005   2.49023
    R3        2.50242   0.00001   0.00000   0.00004   0.00004   2.50246
    R4        1.82294  -0.00000   0.00000   0.00001   0.00001   1.82295
    A1        2.15666  -0.00001   0.00000  -0.00002  -0.00002   2.15664
    A2        2.24031   0.00001   0.00000  -0.00001  -0.00001   2.24031
    A3        1.88621  -0.00000   0.00000   0.00002   0.00002   1.88624
    A4        1.87897  -0.00004   0.00000  -0.00026  -0.00026   1.87872
    D1        3.14154   0.00000   0.00000   0.00002   0.00002   3.14156
    D2       -0.00043  -0.00000   0.00000  -0.00009  -0.00009  -0.00052
    D3        3.14110  -0.00000   0.00000  -0.00007  -0.00007   3.14104
         Item               Value     Threshold  Converged?
 Maximum Force            0.000046     0.000450     YES
 RMS     Force            0.000020     0.000300     YES
 Maximum Displacement     0.000286     0.001800     YES
 RMS     Displacement     0.000111     0.001200     YES
 Predicted change in Energy=-7.537523D-09
 Optimization completed.
    -- Stationary point found.
                           ----------------------------
                           !   Optimized Parameters   !
                           ! (Angstroms and Degrees)  !
 --------------------------                            --------------------------
 ! Name  Definition              Value          Derivative Info.                !
 --------------------------------------------------------------------------------
 ! R1    R(1,2)                  1.1806         -DE/DX =    0.0                 !
 ! R2    R(1,3)                  1.3178         -DE/DX =    0.0                 !
 ! R3    R(1,4)                  1.3242         -DE/DX =    0.0                 !
 ! R4    R(4,5)                  0.9647         -DE/DX =    0.0                 !
 ! A1    A(2,1,3)              123.5673         -DE/DX =    0.0                 !
 ! A2    A(2,1,4)              128.3606         -DE/DX =    0.0                 !
 ! A3    A(3,1,4)              108.0721         -DE/DX =    0.0                 !
 ! A4    A(1,4,5)              107.6573         -DE/DX =    0.0                 !
 ! D1    D(2,1,3,4)            179.9967         -DE/DX =    0.0                 !
 ! D2    D(2,1,4,5)             -0.0245         -DE/DX =    0.0                 !
 ! D3    D(3,1,4,5)            179.972          -DE/DX =    0.0                 !
 --------------------------------------------------------------------------------
 GradGradGradGradGradGradGradGradGradGradGradGradGradGradGradGradGradGrad

 Leave Link  103 at Sun May 25 04:22:53 2025, MaxMem=  3758096384 cpu:               0.0 elap:               0.0
 (Enter /apps/easybuild-2022/easybuild/software/Compiler/NVHPC/22.11-CUDA-11.7.0/Gaussian/g16c01-CUDA-11.7.0/g16/l9999.exe)

 ----------------------------------------------------------------------

 Electric dipole moment (input orientation):
 (Debye = 10**-18 statcoulomb cm , SI units = C m)
                  (au)            (Debye)         (10**-30 SI)
   Tot        0.887277D+00      0.225523D+01      0.752265D+01
   x          0.471573D+00      0.119862D+01      0.399817D+01
   y          0.725588D+00      0.184426D+01      0.615179D+01
   z          0.195962D+00      0.498086D+00      0.166144D+01

 Dipole polarizability, Alpha (input orientation).
 (esu units = cm**3 , SI units = C**2 m**2 J**-1)
 Alpha(0;0):
               (au)            (10**-24 esu)      (10**-40 SI)
   iso        0.193411D+02      0.286605D+01      0.318891D+01
   aniso      0.927174D+01      0.137393D+01      0.152870D+01
   xx         0.213880D+02      0.316938D+01      0.352641D+01
   yx        -0.107006D+01     -0.158567D+00     -0.176430D+00
   yy         0.228801D+02      0.339048D+01      0.377241D+01
   zx         0.156552D+01      0.231986D+00      0.258119D+00
   zy         0.104906D+01      0.155455D+00      0.172967D+00
   zz         0.137551D+02      0.203830D+01      0.226792D+01

 ----------------------------------------------------------------------

 Dipole orientation:
     6          1.79199213         -0.96688067          1.35943029
     8          3.43088492         -2.28604114          0.61689792
     9          0.24206729          0.27968615         -0.13900327
     8          1.16025966         -0.45763948          3.72664013
     1          2.30046216         -1.37577329          4.81295865

 Electric dipole moment (dipole orientation):
 (Debye = 10**-18 statcoulomb cm , SI units = C m)
                  (au)            (Debye)         (10**-30 SI)
   Tot        0.887277D+00      0.225523D+01      0.752265D+01
   x          0.000000D+00      0.000000D+00      0.000000D+00
   y          0.000000D+00      0.000000D+00      0.000000D+00
   z          0.887277D+00      0.225523D+01      0.752265D+01

 Dipole polarizability, Alpha (dipole orientation).
 (esu units = cm**3 , SI units = C**2 m**2 J**-1)
 Alpha(0;0):
               (au)            (10**-24 esu)      (10**-40 SI)
   iso        0.193411D+02      0.286605D+01      0.318891D+01
   aniso      0.927174D+01      0.137393D+01      0.152870D+01
   xx         0.191246D+02      0.283397D+01      0.315321D+01
   yx        -0.469982D+01     -0.696442D+00     -0.774896D+00
   yy         0.170689D+02      0.252934D+01      0.281427D+01
   zx        -0.723439D+00     -0.107203D+00     -0.119279D+00
   zy         0.584411D+00      0.866007D-01      0.963563D-01
   zz         0.218298D+02      0.323485D+01      0.359925D+01

 ----------------------------------------------------------------------
 Unable to Open any file for archive entry.
 1\1\GINC-SPARTAN-BM143\Freq\RM062X\def2TZVPP\C1H1F1O2\AKHALILOV\25-May
 -2025\0\\#P Geom=AllCheck Guess=TCheck SCRF=Check GenChk RM062X/def2TZ
 VPP Freq\\Gaussian input prepared by ASE\\0,1\C,1.2933623593,0.0193086
 944,0.0732970975\O,1.9996438495,-0.9264583137,0.0964378612\F,0.0066737
 545,-0.0388239456,-0.2053597019\O,1.6062520004,1.2845854827,0.30726269
 06\H,2.5485100949,1.3201624907,0.5108607189\\Version=ES64L-G16RevC.01\
 HF=-289.0403769\RMSD=2.572e-09\RMSF=2.020e-05\ZeroPoint=0.0274173\Ther
 mal=0.0308823\ETot=-289.0094946\HTot=-289.0085504\GTot=-289.0387807\Di
 pole=0.4715734,0.7255878,0.1959622\DipoleDeriv=2.0146599,-0.1536566,0.
 2914278,-0.0764284,2.2764685,0.2153945,0.3015044,0.1990878,0.6244367,-
 0.7743248,0.3209673,-0.0390465,0.2489845,-1.0647954,-0.0376757,-0.0485
 791,-0.0224623,-0.3999287,-1.0933212,0.03016,-0.1957027,-0.0267707,-0.
 3207097,-0.0288977,-0.2030739,-0.0169398,-0.1905359,-0.4646479,-0.3021
 377,-0.0624998,-0.2219482,-1.2269754,-0.1621575,-0.051712,-0.1789284,-
 0.3936611,0.317634,0.104667,0.0058213,0.0761628,0.336012,0.0133363,0.0
 018606,0.0192427,0.359689\Polar=21.3880368,-1.0700636,22.8800705,1.565
 52,1.0490643,13.7551342\PG=Unknown\NImag=0\\0.79708079,-0.25234059,0.9
 9931068,0.08387613,0.04805805,0.26288656,-0.35836827,0.34175107,-0.009
 95442,0.41314809,0.34089439,-0.58687243,0.00621674,-0.41672375,0.67261
 023,-0.01006099,0.00640285,-0.09591369,0.02334937,-0.00334956,0.042902
 84,-0.29477260,-0.02306512,-0.05035515,-0.08166362,0.04117363,-0.01721
 622,0.42893672,-0.00737967,-0.08882345,-0.00408642,0.05386948,0.008795
 90,0.00905476,0.02082130,0.10143548,-0.04828030,-0.00739458,-0.0813999
 9,-0.01552701,0.00638416,0.02371951,0.08811660,0.01473466,0.04423243,-
 0.12701302,-0.05739201,-0.01890030,0.02792667,0.02502832,0.00220658,-0
 .05633320,-0.06668368,-0.02377047,0.64958479,-0.02626638,-0.31889926,-
 0.03802764,0.01578511,-0.09612326,-0.01386353,-0.03472911,-0.01469910,
 -0.01115870,0.07616202,0.47460272,-0.01474944,-0.04461633,-0.08262340,
 0.00097814,-0.01191318,0.03187432,-0.01953725,-0.01789060,0.00793455,0
 .13872828,0.07388114,0.07868187,-0.01692689,-0.00895334,-0.00466627,-0
 .00104287,0.00962742,0.00172126,0.00383270,-0.00062742,-0.00053881,-0.
 49416525,-0.03095165,-0.10541973,0.50830231,-0.05490775,-0.00471555,-0
 .01216073,0.00531809,0.00158955,0.00175548,-0.00420070,-0.00670884,-0.
 00256555,0.02288536,-0.04488111,0.00053897,0.03090500,0.05471595,-0.01
 078540,-0.00245000,-0.00294949,0.00115392,0.00266184,-0.00258298,-0.00
 100799,-0.00181240,0.00551349,-0.09826408,-0.01083127,-0.03586735,0.10
 890355,0.01243183,0.03588633\\0.00001889,-0.00002510,-0.00000395,-0.00
 002714,0.00003921,0.00000298,-0.00001692,0.00000628,-0.00000511,0.0000
 2010,-0.00004040,0.00000195,0.00000507,0.00002002,0.00000413\\\@
 The archive entry for this job was punched.


 ALL PAPERS THAT YOU SAVE WILL NEVER BE NEEDED UNTIL
 SUCH TIME AS THEY ARE DISPOSED OF, WHEN THEY BECOME
 ESSENTIAL.

           -- JOHN CORCORAN IN
              PAUL DICKSON'S "THE OFFICIAL RULES"
 Job cpu time:       0 days  0 hours  2 minutes  2.5 seconds.
 Elapsed time:       0 days  0 hours  0 minutes 16.3 seconds.
 File lengths (MBytes):  RWF=     14 Int=      0 D2E=      0 Chk=      2 Scr=      1
 Normal termination of Gaussian 16 at Sun May 25 04:22:53 2025.
done
