5
energy = -289.01295988699997
C 1.29336200 0.01930900 0.07329700
O 1.99964400 -0.92645800 0.09643800
F 0.00667400 -0.03882400 -0.20536000
O 1.60625200 1.28458500 0.30726300
H 2.54851000 1.32016200 0.51086100
5
energy = -289.012959879
C 1.29352600 0.01925000 -0.07323700
O 1.99961400 -0.92666500 -0.09621800
F 0.00673400 -0.03863200 0.20499100
O 1.60676100 1.28448000 -0.30700200
H 2.54909400 1.31987000 -0.51028300
5
energy = -289.01032415200007
C 1.34174100 0.00000000 0.00000000
O 1.97865700 -0.98432600 -0.00002000
F 0.00000000 0.00000000 0.00000000
O 1.79743000 1.24134000 0.00000000
H 1.06555700 1.86835700 -0.00079100
