4
energy = -337.587346469
C -0.04715800 0.00483100 -0.00007900
F -0.44462500 0.63244600 1.08089700
F -0.44382000 0.62710700 -1.08443200
F -0.44398400 -1.24518900 0.00285600
