5
energy = -338.25053641100004
C -0.99360500 0.16759800 0.52305800
F -2.30085800 0.13432300 0.76860700
F -0.80294100 0.75308300 -0.65642300
F -0.54898600 -1.08412700 0.44692400
H -0.47130000 0.71124000 1.30797200
