7
energy = -426.88694328800005
C 1.46517100 -0.04225500 -0.06820200
O 2.08179400 -1.05938400 0.05191400
C 0.01590900 0.00702600 0.09636600
F -0.66654700 1.07014100 -0.27919400
F -0.69555300 -1.07635100 0.10372200
O 2.04966700 1.14552600 -0.30295500
H 1.40038600 1.84991700 -0.40546300
7
energy = -426.886943283
C 1.46503700 -0.04213300 0.06800300
O 2.08186700 -1.05924100 -0.05123400
C 0.01595600 0.00700800 -0.09816000
F -0.66699700 1.07013900 0.27643900
F -0.69541500 -1.07642500 -0.10611200
O 2.04919000 1.14573800 0.30316800
H 1.39974700 1.85010700 0.40480900
7
energy = -426.893435305
C 1.43456300 0.00003100 -0.00005400
O 2.09432000 -1.00956000 0.00029700
C 0.00008400 0.00003700 -0.00095300
F -0.73224000 1.07416500 -0.00122200
F -0.68226100 -1.10217500 -0.00131200
O 1.93105900 1.25116000 0.00029700
H 2.89312400 1.16997800 0.00084200
