 Entering Gaussian System, Link 0=g16
 Initial command:
 /apps/easybuild-2022/easybuild/software/Compiler/NVHPC/22.11-CUDA-11.7.0/Gaussian/g16c01-CUDA-11.7.0/g16/l1.exe "/tmp/Gau-150466.inp" -scrdir="/tmp/"
 Entering Link 1 = /apps/easybuild-2022/easybuild/software/Compiler/NVHPC/22.11-CUDA-11.7.0/Gaussian/g16c01-CUDA-11.7.0/g16/l1.exe PID=    150467.
  
 Copyright (c) 1988-2019, Gaussian, Inc.  All Rights Reserved.
  
 This is part of the Gaussian(R) 16 program.  It is based on
 the Gaussian(R) 09 system (copyright 2009, Gaussian, Inc.),
 the Gaussian(R) 03 system (copyright 2003, Gaussian, Inc.),
 the Gaussian(R) 98 system (copyright 1998, Gaussian, Inc.),
 the Gaussian(R) 94 system (copyright 1995, Gaussian, Inc.),
 the Gaussian 92(TM) system (copyright 1992, Gaussian, Inc.),
 the Gaussian 90(TM) system (copyright 1990, Gaussian, Inc.),
 the Gaussian 88(TM) system (copyright 1988, Gaussian, Inc.),
 the Gaussian 86(TM) system (copyright 1986, Carnegie Mellon
 University), and the Gaussian 82(TM) system (copyright 1983,
 Carnegie Mellon University). Gaussian is a federally registered
 trademark of Gaussian, Inc.
  
 This software contains proprietary and confidential information,
 including trade secrets, belonging to Gaussian, Inc.
  
 This software is provided under written license and may be
 used, copied, transmitted, or stored only in accord with that
 written license.
  
 The following legend is applicable only to US Government
 contracts under FAR:
  
                    RESTRICTED RIGHTS LEGEND
  
 Use, reproduction and disclosure by the US Government is
 subject to restrictions as set forth in subparagraphs (a)
 and (c) of the Commercial Computer Software - Restricted
 Rights clause in FAR 52.227-19.
  
 Gaussian, Inc.
 340 Quinnipiac St., Bldg. 40, Wallingford CT 06492
  
  
 ---------------------------------------------------------------
 Warning -- This program may not be used in any manner that
 competes with the business of Gaussian, Inc. or will provide
 assistance to any competitor of Gaussian, Inc.  The licensee
 of this program is prohibited from giving any competitor of
 Gaussian, Inc. access to this program.  By using this program,
 the user acknowledges that Gaussian, Inc. is engaged in the
 business of creating and licensing software in the field of
 computational chemistry and represents and warrants to the
 licensee that it is not a competitor of Gaussian, Inc. and that
 it will not use this program in any manner prohibited above.
 ---------------------------------------------------------------
  

 Cite this work as:
 Gaussian 16, Revision C.01,
 M. J. Frisch, G. W. Trucks, H. B. Schlegel, G. E. Scuseria, 
 M. A. Robb, J. R. Cheeseman, G. Scalmani, V. Barone, 
 G. A. Petersson, H. Nakatsuji, X. Li, M. Caricato, A. V. Marenich, 
 J. Bloino, B. G. Janesko, R. Gomperts, B. Mennucci, H. P. Hratchian, 
 J. V. Ortiz, A. F. Izmaylov, J. L. Sonnenberg, D. Williams-Young, 
 F. Ding, F. Lipparini, F. Egidi, J. Goings, B. Peng, A. Petrone, 
 T. Henderson, D. Ranasinghe, V. G. Zakrzewski, J. Gao, N. Rega, 
 G. Zheng, W. Liang, M. Hada, M. Ehara, K. Toyota, R. Fukuda, 
 J. Hasegawa, M. Ishida, T. Nakajima, Y. Honda, O. Kitao, H. Nakai, 
 T. Vreven, K. Throssell, J. A. Montgomery, Jr., J. E. Peralta, 
 F. Ogliaro, M. J. Bearpark, J. J. Heyd, E. N. Brothers, K. N. Kudin, 
 V. N. Staroverov, T. A. Keith, R. Kobayashi, J. Normand, 
 K. Raghavachari, A. P. Rendell, J. C. Burant, S. S. Iyengar, 
 J. Tomasi, M. Cossi, J. M. Millam, M. Klene, C. Adamo, R. Cammi, 
 J. W. Ochterski, R. L. Martin, K. Morokuma, O. Farkas, 
 J. B. Foresman, and D. J. Fox, Gaussian, Inc., Wallingford CT, 2019.
 
 ******************************************
 Gaussian 16:  ES64L-G16RevC.01  3-Jul-2019
                25-May-2025 
 ******************************************
 %mem=28GB
 %nprocshared=8
 Will use up to    8 processors via shared memory.
 -----------------------------------------------------------------
 #P M062X/Def2TZVPP Symm(None) scf(xqc) pop(None) freq opt(CalcFC)
 -----------------------------------------------------------------
 1/10=4,18=20,19=15,26=3,38=1/1,3;
 2/9=110,12=2,15=3,17=6,18=5,40=1/2;
 3/5=44,7=202,11=2,25=1,30=1,71=2,74=-55,140=1/1,2,3;
 4//1;
 5/5=2,8=3,13=1,38=5/2,8;
 8/6=4,10=90,11=11/1;
 11/6=1,8=1,9=11,15=111,16=1,31=1/1,2,10;
 10/6=1,13=1,31=1/2;
 7/10=1,25=1,30=1/1,2,3,16;
 1/10=4,18=20,19=15,26=3/3(2);
 2/9=110,15=3/2;
 99//99;
 2/9=110,15=3/2;
 3/5=44,7=202,11=2,25=1,30=1,71=1,74=-55/1,2,3;
 4/5=5,16=3,69=1/1;
 5/5=2,8=3,13=1,38=5/2,8;
 7/30=1/1,2,3,16;
 1/18=20,19=15,26=3/3(-5);
 2/9=110,15=3/2;
 99/9=1/99;
 Leave Link    1 at Sun May 25 03:33:38 2025, MaxMem=  3758096384 cpu:               0.1 elap:               0.0
 (Enter /apps/easybuild-2022/easybuild/software/Compiler/NVHPC/22.11-CUDA-11.7.0/Gaussian/g16c01-CUDA-11.7.0/g16/l101.exe)
 ------------------------------
 Gaussian input prepared by ASE
 ------------------------------
 Symbolic Z-matrix:
 Charge =  0 Multiplicity = 2
 C                     1.4346    0.        0. 
 O                     2.09442  -1.00952   0.00023 
 C                     0.        0.        0. 
 F                    -0.73218   1.07429  -0.00146 
 F                    -0.68229  -1.10224  -0.00176 
 O                     1.93102   1.25114   0. 
 H                     1.60382   1.68152   0.79991 
 
 ITRead=  0  0  0  0  0  0  0
 MicOpt= -1 -1 -1 -1 -1 -1 -1
 NAtoms=      7 NQM=        7 NQMF=       0 NMMI=      0 NMMIF=      0
                NMic=       0 NMicF=      0.
                    Isotopes and Nuclear Properties:
 (Nuclear quadrupole moments (NQMom) in fm**2, nuclear magnetic moments (NMagM)
  in nuclear magnetons)

  Atom         1           2           3           4           5           6           7
 IAtWgt=          12          16          12          19          19          16           1
 AtmWgt=  12.0000000  15.9949146  12.0000000  18.9984032  18.9984032  15.9949146   1.0078250
 NucSpn=           0           0           0           1           1           0           1
 AtZEff=  -0.0000000  -0.0000000  -0.0000000  -0.0000000  -0.0000000  -0.0000000  -0.0000000
 NQMom=    0.0000000   0.0000000   0.0000000   0.0000000   0.0000000   0.0000000   0.0000000
 NMagM=    0.0000000   0.0000000   0.0000000   2.6288670   2.6288670   0.0000000   2.7928460
 AtZNuc=   6.0000000   8.0000000   6.0000000   9.0000000   9.0000000   8.0000000   1.0000000
 Leave Link  101 at Sun May 25 03:33:38 2025, MaxMem=  3758096384 cpu:               0.3 elap:               0.2
 (Enter /apps/easybuild-2022/easybuild/software/Compiler/NVHPC/22.11-CUDA-11.7.0/Gaussian/g16c01-CUDA-11.7.0/g16/l103.exe)

 GradGradGradGradGradGradGradGradGradGradGradGradGradGradGradGradGradGrad
 Berny optimization.
 Initialization pass.
                           ----------------------------
                           !    Initial Parameters    !
                           ! (Angstroms and Degrees)  !
 --------------------------                            --------------------------
 ! Name  Definition              Value          Derivative Info.                !
 --------------------------------------------------------------------------------
 ! R1    R(1,2)                  1.206          calculate D2E/DX2 analytically  !
 ! R2    R(1,3)                  1.4346         calculate D2E/DX2 analytically  !
 ! R3    R(1,6)                  1.346          calculate D2E/DX2 analytically  !
 ! R4    R(3,4)                  1.3001         calculate D2E/DX2 analytically  !
 ! R5    R(3,5)                  1.2963         calculate D2E/DX2 analytically  !
 ! R6    R(6,7)                  0.9655         calculate D2E/DX2 analytically  !
 ! A1    A(2,1,3)              123.1686         calculate D2E/DX2 analytically  !
 ! A2    A(2,1,6)              125.1892         calculate D2E/DX2 analytically  !
 ! A3    A(3,1,6)              111.6422         calculate D2E/DX2 analytically  !
 ! A4    A(1,3,4)              124.2762         calculate D2E/DX2 analytically  !
 ! A5    A(1,3,5)              121.7576         calculate D2E/DX2 analytically  !
 ! A6    A(4,3,5)              113.9659         calculate D2E/DX2 analytically  !
 ! A7    A(1,6,7)              106.8198         calculate D2E/DX2 analytically  !
 ! D1    D(2,1,3,4)           -179.9347         calculate D2E/DX2 analytically  !
 ! D2    D(2,1,3,5)             -0.1045         calculate D2E/DX2 analytically  !
 ! D3    D(6,1,3,4)              0.0781         calculate D2E/DX2 analytically  !
 ! D4    D(6,1,3,5)            179.9084         calculate D2E/DX2 analytically  !
 ! D5    D(2,1,6,7)           -120.0424         calculate D2E/DX2 analytically  !
 ! D6    D(3,1,6,7)             59.9444         calculate D2E/DX2 analytically  !
 --------------------------------------------------------------------------------
 Trust Radius=3.00D-01 FncErr=1.00D-07 GrdErr=1.00D-06 EigMax=2.50D+02 EigMin=1.00D-04
 Number of steps in this run=     29 maximum allowed number of steps=    100.
 GradGradGradGradGradGradGradGradGradGradGradGradGradGradGradGradGradGrad

 Leave Link  103 at Sun May 25 03:33:38 2025, MaxMem=  3758096384 cpu:               0.1 elap:               0.0
 (Enter /apps/easybuild-2022/easybuild/software/Compiler/NVHPC/22.11-CUDA-11.7.0/Gaussian/g16c01-CUDA-11.7.0/g16/l202.exe)
                          Input orientation:                          
 ---------------------------------------------------------------------
 Center     Atomic      Atomic             Coordinates (Angstroms)
 Number     Number       Type             X           Y           Z
 ---------------------------------------------------------------------
      1          6           0        1.434595    0.000000    0.000000
      2          8           0        2.094419   -1.009523    0.000226
      3          6           0        0.000000    0.000000    0.000000
      4          9           0       -0.732182    1.074295   -0.001465
      5          9           0       -0.682290   -1.102239   -0.001763
      6          8           0        1.931021    1.251135    0.000000
      7          1           0        1.603821    1.681524    0.799914
 ---------------------------------------------------------------------
                    Distance matrix (angstroms):
                    1          2          3          4          5
     1  C    0.000000
     2  O    1.206028   0.000000
     3  C    1.434595   2.325022   0.000000
     4  F    2.418478   3.511691   1.300078   0.000000
     5  F    2.386658   2.778257   1.296323   2.177105   0.000000
     6  O    1.346023   2.266556   2.300909   2.669069   3.516784
     7  H    1.869766   2.849899   2.457566   2.543196   3.690302
                    6          7
     6  O    0.000000
     7  H    0.965483   0.000000
 Symmetry turned off by external request.
 Stoichiometry    C2HF2O2
 Rotational constants (GHZ):           5.6605946           3.5192037           2.1815783
 Leave Link  202 at Sun May 25 03:33:38 2025, MaxMem=  3758096384 cpu:               0.1 elap:               0.0
 (Enter /apps/easybuild-2022/easybuild/software/Compiler/NVHPC/22.11-CUDA-11.7.0/Gaussian/g16c01-CUDA-11.7.0/g16/l301.exe)
 Standard basis: def2TZVPP (5D, 7F)
 Ernie: Thresh=  0.10000D-02 Tol=  0.10000D-05 Strict=F.
   200 basis functions,   323 primitive gaussians,   231 cartesian basis functions
    24 alpha electrons       23 beta electrons
       nuclear repulsion energy       239.3140146102 Hartrees.
 IExCor= 4336 DFT=T Ex+Corr=M062X ExCW=0 ScaHFX=  0.540000
 ScaDFX=  1.000000  1.000000  1.000000  1.000000 ScalE2=  1.000000  1.000000
 IRadAn=      5 IRanWt=     -1 IRanGd=            0 ICorTp=0 IEmpDi=  4
 NAtoms=    7 NActive=    7 NUniq=    7 SFac= 1.00D+00 NAtFMM=   60 NAOKFM=F Big=F
 Integral buffers will be    131072 words long.
 Raffenetti 2 integral format.
 Two-electron integral symmetry is turned off.
 Leave Link  301 at Sun May 25 03:33:38 2025, MaxMem=  3758096384 cpu:               0.1 elap:               0.0
 (Enter /apps/easybuild-2022/easybuild/software/Compiler/NVHPC/22.11-CUDA-11.7.0/Gaussian/g16c01-CUDA-11.7.0/g16/l302.exe)
 NPDir=0 NMtPBC=     1 NCelOv=     1 NCel=       1 NClECP=     1 NCelD=      1
         NCelK=      1 NCelE2=     1 NClLst=     1 CellRange=     0.0.
 One-electron integrals computed using PRISM.
   1 Symmetry operations used in ECPInt.
 ECPInt:  NShTT=    2628 NPrTT=    8391 LenC2=    2571 LenP2D=    6690.
 LDataN:  DoStor=T MaxTD1= 6 Len=  172
 NBasis=   200 RedAO= T EigKep=  2.72D-04  NBF=   200
 NBsUse=   200 1.00D-06 EigRej= -1.00D+00 NBFU=   200
 Precomputing XC quadrature grid using
 IXCGrd= 4 IRadAn=           5 IRanWt=          -1 IRanGd=           0 AccXCQ= 0.00D+00.
 Generated NRdTot=       0 NPtTot=           0 NUsed=           0 NTot=          32
 NSgBfM=   230   230   230   230   230 MxSgAt=     7 MxSgA2=     7.
 Leave Link  302 at Sun May 25 03:33:38 2025, MaxMem=  3758096384 cpu:               0.7 elap:               0.1
 (Enter /apps/easybuild-2022/easybuild/software/Compiler/NVHPC/22.11-CUDA-11.7.0/Gaussian/g16c01-CUDA-11.7.0/g16/l303.exe)
 DipDrv:  MaxL=1.
 Leave Link  303 at Sun May 25 03:33:38 2025, MaxMem=  3758096384 cpu:               0.1 elap:               0.0
 (Enter /apps/easybuild-2022/easybuild/software/Compiler/NVHPC/22.11-CUDA-11.7.0/Gaussian/g16c01-CUDA-11.7.0/g16/l401.exe)
 ExpMin= 9.52D-02 ExpMax= 3.55D+04 ExpMxC= 1.21D+03 IAcc=3 IRadAn=         5 AccDes= 0.00D+00
 Harris functional with IExCor= 1009 and IRadAn=       5 diagonalized for initial guess.
 HarFok:  IExCor= 1009 AccDes= 0.00D+00 IRadAn=         5 IDoV= 1 UseB2=F ITyADJ=14
 ICtDFT=  3500011 ScaDFX=  1.000000  1.000000  1.000000  1.000000
 FoFCou: FMM=F IPFlag=           0 FMFlag=      100000 FMFlg1=           0
         NFxFlg=           0 DoJE=T BraDBF=F KetDBF=T FulRan=T
         wScrn=  0.000000 ICntrl=       500 IOpCl=  0 I1Cent=   200000004 NGrid=           0
         NMat0=    1 NMatS0=      1 NMatT0=    0 NMatD0=    1 NMtDS0=    0 NMtDT0=    0
 Symmetry not used in FoFCou.
 Harris En= -426.675447497855    
 JPrj=0 DoOrth=F DoCkMO=F.
 Initial guess <Sx>= 0.0000 <Sy>= 0.0000 <Sz>= 0.5000 <S**2>= 0.7500 S= 0.5000
 Leave Link  401 at Sun May 25 03:33:39 2025, MaxMem=  3758096384 cpu:               1.6 elap:               0.3
 (Enter /apps/easybuild-2022/easybuild/software/Compiler/NVHPC/22.11-CUDA-11.7.0/Gaussian/g16c01-CUDA-11.7.0/g16/l502.exe)
 Keep R1 and R2 ints in memory in canonical form, NReq=412511861.
 FoFCou: FMM=F IPFlag=           0 FMFlag=           0 FMFlg1=           0
         NFxFlg=           0 DoJE=F BraDBF=F KetDBF=F FulRan=T
         wScrn=  0.000000 ICntrl=       600 IOpCl=  0 I1Cent=           0 NGrid=           0
         NMat0=    1 NMatS0=  20100 NMatT0=    0 NMatD0=    1 NMtDS0=    0 NMtDT0=    0
 Symmetry not used in FoFCou.
 Two-electron integral symmetry not used.
 UHF open shell SCF:
 Using DIIS extrapolation, IDIIS=  1040.
 NGot=  3758096384 LenX=  3353956029 LenY=  3353902227
 Requested convergence on RMS density matrix=1.00D-08 within  32 cycles.
 Requested convergence on MAX density matrix=1.00D-06.
 Requested convergence on             energy=1.00D-06.
 No special actions if energy rises.
 Integral accuracy reduced to 1.0D-05 until final iterations.

 Cycle   1  Pass 0  IDiag  1:
 E= -426.742159585208    
 DIIS: error= 2.66D-02 at cycle   1 NSaved=   1.
 NSaved= 1 IEnMin= 1 EnMin= -426.742159585208     IErMin= 1 ErrMin= 2.66D-02
 ErrMax= 2.66D-02  0.00D+00 EMaxC= 1.00D-01 BMatC= 1.05D+00 BMatP= 1.05D+00
 IDIUse=3 WtCom= 7.34D-01 WtEn= 2.66D-01
 Coeff-Com:  0.100D+01
 Coeff-En:   0.100D+01
 Coeff:      0.100D+01
 Gap=     0.322 Goal=   None    Shift=    0.000
 Gap=     0.135 Goal=   None    Shift=    0.000
 GapD=    0.135 DampG=1.000 DampE=0.500 DampFc=0.5000 IDamp=-1.
 Damping current iteration by 5.00D-01
 RMSDP=3.75D-03 MaxDP=1.22D-01              OVMax= 3.80D-01

 Cycle   2  Pass 0  IDiag  1:
 E= -426.791496608340     Delta-E=       -0.049337023132 Rises=F Damp=T
 DIIS: error= 1.21D-02 at cycle   2 NSaved=   2.
 NSaved= 2 IEnMin= 2 EnMin= -426.791496608340     IErMin= 2 ErrMin= 1.21D-02
 ErrMax= 1.21D-02  0.00D+00 EMaxC= 1.00D-01 BMatC= 1.46D-01 BMatP= 1.05D+00
 IDIUse=3 WtCom= 8.79D-01 WtEn= 1.21D-01
 Coeff-Com:  0.142D+00 0.858D+00
 Coeff-En:   0.315D+00 0.685D+00
 Coeff:      0.163D+00 0.837D+00
 Gap=     0.441 Goal=   None    Shift=    0.000
 Gap=     0.304 Goal=   None    Shift=    0.000
 RMSDP=1.11D-03 MaxDP=4.04D-02 DE=-4.93D-02 OVMax= 1.96D-01

 Cycle   3  Pass 0  IDiag  1:
 E= -426.903291342364     Delta-E=       -0.111794734024 Rises=F Damp=F
 DIIS: error= 6.20D-03 at cycle   3 NSaved=   3.
 NSaved= 3 IEnMin= 3 EnMin= -426.903291342364     IErMin= 3 ErrMin= 6.20D-03
 ErrMax= 6.20D-03  0.00D+00 EMaxC= 1.00D-01 BMatC= 4.47D-02 BMatP= 1.46D-01
 IDIUse=3 WtCom= 9.38D-01 WtEn= 6.20D-02
 Coeff-Com: -0.307D-01 0.314D+00 0.717D+00
 Coeff-En:   0.000D+00 0.000D+00 0.100D+01
 Coeff:     -0.288D-01 0.295D+00 0.734D+00
 Gap=     0.331 Goal=   None    Shift=    0.000
 Gap=     0.291 Goal=   None    Shift=    0.000
 RMSDP=4.35D-04 MaxDP=1.90D-02 DE=-1.12D-01 OVMax= 6.03D-02

 Cycle   4  Pass 0  IDiag  1:
 E= -426.909948328564     Delta-E=       -0.006656986200 Rises=F Damp=F
 DIIS: error= 2.90D-03 at cycle   4 NSaved=   4.
 NSaved= 4 IEnMin= 4 EnMin= -426.909948328564     IErMin= 4 ErrMin= 2.90D-03
 ErrMax= 2.90D-03  0.00D+00 EMaxC= 1.00D-01 BMatC= 1.63D-02 BMatP= 4.47D-02
 IDIUse=3 WtCom= 9.71D-01 WtEn= 2.90D-02
 Coeff-Com: -0.318D-01 0.575D-01 0.410D+00 0.564D+00
 Coeff-En:   0.000D+00 0.000D+00 0.180D+00 0.820D+00
 Coeff:     -0.309D-01 0.559D-01 0.403D+00 0.572D+00
 Gap=     0.339 Goal=   None    Shift=    0.000
 Gap=     0.297 Goal=   None    Shift=    0.000
 RMSDP=1.93D-04 MaxDP=6.37D-03 DE=-6.66D-03 OVMax= 1.56D-02

 Cycle   5  Pass 0  IDiag  1:
 E= -426.912934109020     Delta-E=       -0.002985780456 Rises=F Damp=F
 DIIS: error= 9.47D-04 at cycle   5 NSaved=   5.
 NSaved= 5 IEnMin= 5 EnMin= -426.912934109020     IErMin= 5 ErrMin= 9.47D-04
 ErrMax= 9.47D-04  0.00D+00 EMaxC= 1.00D-01 BMatC= 4.84D-04 BMatP= 1.63D-02
 IDIUse=3 WtCom= 9.91D-01 WtEn= 9.47D-03
 Coeff-Com: -0.697D-03-0.136D-01 0.311D-01 0.120D+00 0.863D+00
 Coeff-En:   0.000D+00 0.000D+00 0.000D+00 0.000D+00 0.100D+01
 Coeff:     -0.691D-03-0.135D-01 0.308D-01 0.119D+00 0.864D+00
 Gap=     0.337 Goal=   None    Shift=    0.000
 Gap=     0.302 Goal=   None    Shift=    0.000
 RMSDP=7.31D-05 MaxDP=3.07D-03 DE=-2.99D-03 OVMax= 1.04D-02

 Cycle   6  Pass 0  IDiag  1:
 E= -426.913191613529     Delta-E=       -0.000257504509 Rises=F Damp=F
 DIIS: error= 4.99D-04 at cycle   6 NSaved=   6.
 NSaved= 6 IEnMin= 6 EnMin= -426.913191613529     IErMin= 6 ErrMin= 4.99D-04
 ErrMax= 4.99D-04  0.00D+00 EMaxC= 1.00D-01 BMatC= 1.14D-04 BMatP= 4.84D-04
 IDIUse=3 WtCom= 9.95D-01 WtEn= 4.99D-03
 Coeff-Com:  0.916D-02-0.185D-01-0.891D-01-0.131D+00 0.669D-01 0.116D+01
 Coeff-En:   0.000D+00 0.000D+00 0.000D+00 0.000D+00 0.000D+00 0.100D+01
 Coeff:      0.911D-02-0.184D-01-0.886D-01-0.130D+00 0.665D-01 0.116D+01
 Gap=     0.339 Goal=   None    Shift=    0.000
 Gap=     0.305 Goal=   None    Shift=    0.000
 RMSDP=6.37D-05 MaxDP=3.05D-03 DE=-2.58D-04 OVMax= 8.30D-03

 Cycle   7  Pass 0  IDiag  1:
 E= -426.913280268134     Delta-E=       -0.000088654606 Rises=F Damp=F
 DIIS: error= 1.88D-04 at cycle   7 NSaved=   7.
 NSaved= 7 IEnMin= 7 EnMin= -426.913280268134     IErMin= 7 ErrMin= 1.88D-04
 ErrMax= 1.88D-04  0.00D+00 EMaxC= 1.00D-01 BMatC= 2.01D-05 BMatP= 1.14D-04
 IDIUse=3 WtCom= 9.98D-01 WtEn= 1.88D-03
 Coeff-Com:  0.378D-02-0.515D-02-0.280D-01-0.544D-01-0.949D-01 0.381D+00
 Coeff-Com:  0.798D+00
 Coeff-En:   0.000D+00 0.000D+00 0.000D+00 0.000D+00 0.000D+00 0.000D+00
 Coeff-En:   0.100D+01
 Coeff:      0.378D-02-0.514D-02-0.280D-01-0.543D-01-0.947D-01 0.380D+00
 Coeff:      0.798D+00
 Gap=     0.340 Goal=   None    Shift=    0.000
 Gap=     0.305 Goal=   None    Shift=    0.000
 RMSDP=1.53D-05 MaxDP=9.26D-04 DE=-8.87D-05 OVMax= 2.30D-03

 Cycle   8  Pass 0  IDiag  1:
 E= -426.913287592030     Delta-E=       -0.000007323896 Rises=F Damp=F
 DIIS: error= 3.70D-05 at cycle   8 NSaved=   8.
 NSaved= 8 IEnMin= 8 EnMin= -426.913287592030     IErMin= 8 ErrMin= 3.70D-05
 ErrMax= 3.70D-05  0.00D+00 EMaxC= 1.00D-01 BMatC= 2.43D-06 BMatP= 2.01D-05
 IDIUse=1 WtCom= 1.00D+00 WtEn= 0.00D+00
 Coeff-Com:  0.919D-04 0.554D-03 0.420D-02 0.314D-03-0.442D-01-0.342D-01
 Coeff-Com:  0.216D+00 0.858D+00
 Coeff:      0.919D-04 0.554D-03 0.420D-02 0.314D-03-0.442D-01-0.342D-01
 Coeff:      0.216D+00 0.858D+00
 Gap=     0.340 Goal=   None    Shift=    0.000
 Gap=     0.306 Goal=   None    Shift=    0.000
 RMSDP=5.41D-06 MaxDP=2.28D-04 DE=-7.32D-06 OVMax= 4.49D-04

 Initial convergence to 1.0D-05 achieved.  Increase integral accuracy.
 Cycle   9  Pass 1  IDiag  1:
 E= -426.913257370306     Delta-E=        0.000030221724 Rises=F Damp=F
 DIIS: error= 2.58D-05 at cycle   1 NSaved=   1.
 NSaved= 1 IEnMin= 1 EnMin= -426.913257370306     IErMin= 1 ErrMin= 2.58D-05
 ErrMax= 2.58D-05  0.00D+00 EMaxC= 1.00D-01 BMatC= 1.22D-06 BMatP= 1.22D-06
 IDIUse=1 WtCom= 1.00D+00 WtEn= 0.00D+00
 Coeff-Com:  0.100D+01
 Coeff:      0.100D+01
 Gap=     0.340 Goal=   None    Shift=    0.000
 Gap=     0.305 Goal=   None    Shift=    0.000
 RMSDP=5.41D-06 MaxDP=2.28D-04 DE= 3.02D-05 OVMax= 2.09D-04

 Cycle  10  Pass 1  IDiag  1:
 E= -426.913257626693     Delta-E=       -0.000000256387 Rises=F Damp=F
 DIIS: error= 1.57D-05 at cycle   2 NSaved=   2.
 NSaved= 2 IEnMin= 2 EnMin= -426.913257626693     IErMin= 2 ErrMin= 1.57D-05
 ErrMax= 1.57D-05  0.00D+00 EMaxC= 1.00D-01 BMatC= 2.64D-07 BMatP= 1.22D-06
 IDIUse=1 WtCom= 1.00D+00 WtEn= 0.00D+00
 Coeff-Com:  0.208D+00 0.792D+00
 Coeff:      0.208D+00 0.792D+00
 Gap=     0.340 Goal=   None    Shift=    0.000
 Gap=     0.305 Goal=   None    Shift=    0.000
 RMSDP=1.41D-06 MaxDP=5.02D-05 DE=-2.56D-07 OVMax= 1.49D-04

 Cycle  11  Pass 1  IDiag  1:
 E= -426.913257670245     Delta-E=       -0.000000043551 Rises=F Damp=F
 DIIS: error= 1.37D-05 at cycle   3 NSaved=   3.
 NSaved= 3 IEnMin= 3 EnMin= -426.913257670245     IErMin= 3 ErrMin= 1.37D-05
 ErrMax= 1.37D-05  0.00D+00 EMaxC= 1.00D-01 BMatC= 1.62D-07 BMatP= 2.64D-07
 IDIUse=1 WtCom= 1.00D+00 WtEn= 0.00D+00
 Coeff-Com: -0.519D-01 0.435D+00 0.617D+00
 Coeff:     -0.519D-01 0.435D+00 0.617D+00
 Gap=     0.340 Goal=   None    Shift=    0.000
 Gap=     0.305 Goal=   None    Shift=    0.000
 RMSDP=6.30D-07 MaxDP=3.22D-05 DE=-4.36D-08 OVMax= 6.76D-05

 Cycle  12  Pass 1  IDiag  1:
 E= -426.913257704384     Delta-E=       -0.000000034139 Rises=F Damp=F
 DIIS: error= 6.23D-06 at cycle   4 NSaved=   4.
 NSaved= 4 IEnMin= 4 EnMin= -426.913257704384     IErMin= 4 ErrMin= 6.23D-06
 ErrMax= 6.23D-06  0.00D+00 EMaxC= 1.00D-01 BMatC= 8.98D-09 BMatP= 1.62D-07
 IDIUse=1 WtCom= 1.00D+00 WtEn= 0.00D+00
 Coeff-Com: -0.219D-01 0.919D-02 0.615D-01 0.951D+00
 Coeff:     -0.219D-01 0.919D-02 0.615D-01 0.951D+00
 Gap=     0.340 Goal=   None    Shift=    0.000
 Gap=     0.305 Goal=   None    Shift=    0.000
 RMSDP=3.72D-07 MaxDP=2.67D-05 DE=-3.41D-08 OVMax= 8.19D-05

 Cycle  13  Pass 1  IDiag  1:
 E= -426.913257712188     Delta-E=       -0.000000007804 Rises=F Damp=F
 DIIS: error= 4.57D-06 at cycle   5 NSaved=   5.
 NSaved= 5 IEnMin= 5 EnMin= -426.913257712188     IErMin= 5 ErrMin= 4.57D-06
 ErrMax= 4.57D-06  0.00D+00 EMaxC= 1.00D-01 BMatC= 8.04D-09 BMatP= 8.98D-09
 IDIUse=1 WtCom= 1.00D+00 WtEn= 0.00D+00
 Coeff-Com:  0.131D-01-0.236D+00-0.321D+00 0.688D+00 0.856D+00
 Coeff:      0.131D-01-0.236D+00-0.321D+00 0.688D+00 0.856D+00
 Gap=     0.340 Goal=   None    Shift=    0.000
 Gap=     0.305 Goal=   None    Shift=    0.000
 RMSDP=4.25D-07 MaxDP=2.51D-05 DE=-7.80D-09 OVMax= 6.06D-05

 Cycle  14  Pass 1  IDiag  1:
 E= -426.913257717578     Delta-E=       -0.000000005390 Rises=F Damp=F
 DIIS: error= 1.06D-06 at cycle   6 NSaved=   6.
 NSaved= 6 IEnMin= 6 EnMin= -426.913257717578     IErMin= 6 ErrMin= 1.06D-06
 ErrMax= 1.06D-06  0.00D+00 EMaxC= 1.00D-01 BMatC= 6.05D-10 BMatP= 8.04D-09
 IDIUse=1 WtCom= 1.00D+00 WtEn= 0.00D+00
 Coeff-Com:  0.753D-02-0.664D-01-0.105D+00 0.428D-01 0.221D+00 0.901D+00
 Coeff:      0.753D-02-0.664D-01-0.105D+00 0.428D-01 0.221D+00 0.901D+00
 Gap=     0.340 Goal=   None    Shift=    0.000
 Gap=     0.305 Goal=   None    Shift=    0.000
 RMSDP=1.43D-07 MaxDP=8.51D-06 DE=-5.39D-09 OVMax= 2.59D-05

 Cycle  15  Pass 1  IDiag  1:
 E= -426.913257718195     Delta-E=       -0.000000000617 Rises=F Damp=F
 DIIS: error= 5.38D-07 at cycle   7 NSaved=   7.
 NSaved= 7 IEnMin= 7 EnMin= -426.913257718195     IErMin= 7 ErrMin= 5.38D-07
 ErrMax= 5.38D-07  0.00D+00 EMaxC= 1.00D-01 BMatC= 1.50D-10 BMatP= 6.05D-10
 IDIUse=1 WtCom= 1.00D+00 WtEn= 0.00D+00
 Coeff-Com: -0.344D-03 0.310D-01 0.362D-01-0.138D+00-0.134D+00 0.267D+00
 Coeff-Com:  0.938D+00
 Coeff:     -0.344D-03 0.310D-01 0.362D-01-0.138D+00-0.134D+00 0.267D+00
 Coeff:      0.938D+00
 Gap=     0.340 Goal=   None    Shift=    0.000
 Gap=     0.305 Goal=   None    Shift=    0.000
 RMSDP=6.67D-08 MaxDP=3.69D-06 DE=-6.17D-10 OVMax= 1.09D-05

 Cycle  16  Pass 1  IDiag  1:
 E= -426.913257718301     Delta-E=       -0.000000000106 Rises=F Damp=F
 DIIS: error= 1.82D-07 at cycle   8 NSaved=   8.
 NSaved= 8 IEnMin= 8 EnMin= -426.913257718301     IErMin= 8 ErrMin= 1.82D-07
 ErrMax= 1.82D-07  0.00D+00 EMaxC= 1.00D-01 BMatC= 2.10D-11 BMatP= 1.50D-10
 IDIUse=1 WtCom= 1.00D+00 WtEn= 0.00D+00
 Coeff-Com: -0.143D-02 0.213D-01 0.282D-01-0.497D-01-0.792D-01-0.531D-01
 Coeff-Com:  0.305D+00 0.829D+00
 Coeff:     -0.143D-02 0.213D-01 0.282D-01-0.497D-01-0.792D-01-0.531D-01
 Coeff:      0.305D+00 0.829D+00
 Gap=     0.340 Goal=   None    Shift=    0.000
 Gap=     0.305 Goal=   None    Shift=    0.000
 RMSDP=1.66D-08 MaxDP=9.14D-07 DE=-1.06D-10 OVMax= 2.38D-06

 Cycle  17  Pass 1  IDiag  1:
 E= -426.913257718309     Delta-E=       -0.000000000008 Rises=F Damp=F
 DIIS: error= 5.95D-08 at cycle   9 NSaved=   9.
 NSaved= 9 IEnMin= 9 EnMin= -426.913257718309     IErMin= 9 ErrMin= 5.95D-08
 ErrMax= 5.95D-08  0.00D+00 EMaxC= 1.00D-01 BMatC= 3.14D-12 BMatP= 2.10D-11
 IDIUse=1 WtCom= 1.00D+00 WtEn= 0.00D+00
 Coeff-Com: -0.310D-03 0.187D-02 0.248D-02 0.717D-02-0.311D-02-0.555D-01
 Coeff-Com: -0.550D-01 0.249D+00 0.853D+00
 Coeff:     -0.310D-03 0.187D-02 0.248D-02 0.717D-02-0.311D-02-0.555D-01
 Coeff:     -0.550D-01 0.249D+00 0.853D+00
 Gap=     0.340 Goal=   None    Shift=    0.000
 Gap=     0.305 Goal=   None    Shift=    0.000
 RMSDP=4.76D-09 MaxDP=1.54D-07 DE=-8.30D-12 OVMax= 4.54D-07

 SCF Done:  E(UM062X) =  -426.913257718     A.U. after   17 cycles
            NFock= 17  Conv=0.48D-08     -V/T= 2.0036
 <Sx>= 0.0000 <Sy>= 0.0000 <Sz>= 0.5000 <S**2>= 0.7619 S= 0.5060
 <L.S>=  0.00000000000    
 KE= 4.253904345447D+02 PE=-1.488496472864D+03 EE= 3.968787659904D+02
 Annihilation of the first spin contaminant:
 S**2 before annihilation     0.7619,   after     0.7501
 Leave Link  502 at Sun May 25 03:33:53 2025, MaxMem=  3758096384 cpu:              64.9 elap:              14.0
 (Enter /apps/easybuild-2022/easybuild/software/Compiler/NVHPC/22.11-CUDA-11.7.0/Gaussian/g16c01-CUDA-11.7.0/g16/l508.exe)
 QCSCF skips out because SCF is already converged.
 Leave Link  508 at Sun May 25 03:33:53 2025, MaxMem=  3758096384 cpu:               0.1 elap:               0.0
 (Enter /apps/easybuild-2022/easybuild/software/Compiler/NVHPC/22.11-CUDA-11.7.0/Gaussian/g16c01-CUDA-11.7.0/g16/l801.exe)
 DoSCS=F DFT=T ScalE2(SS,OS)=  1.000000  1.000000
 Range of M.O.s used for correlation:     1   200
 NBasis=   200 NAE=    24 NBE=    23 NFC=     0 NFV=     0
 NROrb=    200 NOA=    24 NOB=    23 NVA=   176 NVB=   177

 **** Warning!!: The largest alpha MO coefficient is  0.15712332D+02


 **** Warning!!: The largest beta MO coefficient is  0.19415410D+02

 Leave Link  801 at Sun May 25 03:33:53 2025, MaxMem=  3758096384 cpu:               0.1 elap:               0.0
 (Enter /apps/easybuild-2022/easybuild/software/Compiler/NVHPC/22.11-CUDA-11.7.0/Gaussian/g16c01-CUDA-11.7.0/g16/l1101.exe)
 Using compressed storage, NAtomX=     7.
 Will process      8 centers per pass.
   1 Symmetry operations used in ECPInt.
 ECPInt:  NShTT=    2628 NPrTT=    8391 LenC2=    2571 LenP2D=    6690.
 LDataN:  DoStor=T MaxTD1= 7 Len=  274
 Leave Link 1101 at Sun May 25 03:33:53 2025, MaxMem=  3758096384 cpu:               1.0 elap:               0.2
 (Enter /apps/easybuild-2022/easybuild/software/Compiler/NVHPC/22.11-CUDA-11.7.0/Gaussian/g16c01-CUDA-11.7.0/g16/l1102.exe)
 Symmetrizing basis deriv contribution to polar:
 IMax=3 JMax=2 DiffMx= 0.00D+00
 Leave Link 1102 at Sun May 25 03:33:53 2025, MaxMem=  3758096384 cpu:               0.1 elap:               0.0
 (Enter /apps/easybuild-2022/easybuild/software/Compiler/NVHPC/22.11-CUDA-11.7.0/Gaussian/g16c01-CUDA-11.7.0/g16/l1110.exe)
 Forming Gx(P) for the SCF density, NAtomX=     7.
 Integral derivatives from FoFJK, PRISM(SPDF).
 Do as many integral derivatives as possible in FoFJK.
 G2DrvN: MDV=    3758095541.
 G2DrvN: will do     8 centers at a time, making    1 passes.
 Calling FoFCou, ICntrl=  3107 FMM=F I1Cent=   0 AccDes= 0.00D+00.
 FoFJK:  IHMeth= 1 ICntrl=    3107 DoSepK=F KAlg= 0 I1Cent=           0 FoldK=F
 IRaf=         0 NMat=       1 IRICut=       1 DoRegI=T DoRafI=F ISym2E= 0 IDoP0=0 IntGTp=1.
 FoFCou: FMM=F IPFlag=           0 FMFlag=      100000 FMFlg1=           0
         NFxFlg=           0 DoJE=F BraDBF=F KetDBF=F FulRan=T
         wScrn=  0.000000 ICntrl=      3107 IOpCl=  1 I1Cent=           0 NGrid=           0
         NMat0=    1 NMatS0=      1 NMatT0=    0 NMatD0=    1 NMtDS0=    0 NMtDT0=    0
 Symmetry not used in FoFCou.
 End of G2Drv F.D. properties file   721 does not exist.
 End of G2Drv F.D. properties file   722 does not exist.
 End of G2Drv F.D. properties file   788 does not exist.
 Leave Link 1110 at Sun May 25 03:34:08 2025, MaxMem=  3758096384 cpu:             120.8 elap:              15.3
 (Enter /apps/easybuild-2022/easybuild/software/Compiler/NVHPC/22.11-CUDA-11.7.0/Gaussian/g16c01-CUDA-11.7.0/g16/l1002.exe)
 Minotr:  UHF open shell wavefunction.
          IDoAtm=1111111
          Direct CPHF calculation.
          Differentiating once with respect to nuclear coordinates.
          Requested convergence is 1.0D-08 RMS, and 1.0D-07 maximum.
          Secondary convergence is 1.0D-12 RMS, and 1.0D-12 maximum.
          NewPWx=T KeepS1=F KeepF1=F KeepIn=T MapXYZ=F SortEE=F KeepMc=T.
         2087 words used for storage of precomputed grid.
 Keep R1 and R2 ints in memory in canonical form, NReq=412490996.
 FoFCou: FMM=F IPFlag=           0 FMFlag=           0 FMFlg1=           0
         NFxFlg=           0 DoJE=F BraDBF=F KetDBF=F FulRan=T
         wScrn=  0.000000 ICntrl=       600 IOpCl=  0 I1Cent=           0 NGrid=           0
         NMat0=    1 NMatS0=  20100 NMatT0=    0 NMatD0=    1 NMtDS0=    0 NMtDT0=    0
 Symmetry not used in FoFCou.
 Two-electron integral symmetry not used.
          MDV=    3758096384 using IRadAn=       1.
          Solving linear equations simultaneously, MaxMat=       0.
          There are    24 degrees of freedom in the 1st order CPHF.  IDoFFX=6 NUNeed=     0.
     18 vectors produced by pass  0 Test12= 3.46D-14 4.17D-09 XBig12= 3.09D-01 1.74D-01.
 AX will form    18 AO Fock derivatives at one time.
     18 vectors produced by pass  1 Test12= 3.46D-14 4.17D-09 XBig12= 9.23D-02 1.24D-01.
     18 vectors produced by pass  2 Test12= 3.46D-14 4.17D-09 XBig12= 1.50D-02 5.02D-02.
     18 vectors produced by pass  3 Test12= 3.46D-14 4.17D-09 XBig12= 4.54D-04 4.14D-03.
     18 vectors produced by pass  4 Test12= 3.46D-14 4.17D-09 XBig12= 1.01D-05 4.53D-04.
     18 vectors produced by pass  5 Test12= 3.46D-14 4.17D-09 XBig12= 1.70D-07 4.79D-05.
     18 vectors produced by pass  6 Test12= 3.46D-14 4.17D-09 XBig12= 3.11D-09 7.14D-06.
     18 vectors produced by pass  7 Test12= 3.46D-14 4.17D-09 XBig12= 3.24D-11 6.69D-07.
      9 vectors produced by pass  8 Test12= 3.46D-14 4.17D-09 XBig12= 3.38D-13 8.07D-08.
      1 vectors produced by pass  9 Test12= 3.46D-14 4.17D-09 XBig12= 3.60D-15 6.36D-09.
 InvSVY:  IOpt=1 It=  1 EMax= 1.78D-15
 Solved reduced A of dimension   154 with    18 vectors.
 End of Minotr F.D. properties file   721 does not exist.
 End of Minotr F.D. properties file   722 does not exist.
 End of Minotr F.D. properties file   788 does not exist.
 Leave Link 1002 at Sun May 25 03:34:34 2025, MaxMem=  3758096384 cpu:             196.0 elap:              25.8
 (Enter /apps/easybuild-2022/easybuild/software/Compiler/NVHPC/22.11-CUDA-11.7.0/Gaussian/g16c01-CUDA-11.7.0/g16/l701.exe)
 ... and contract with generalized density number  0.
 Compute integral second derivatives.
   1 Symmetry operations used in ECPInt.
 ECPInt:  NShTT=    2628 NPrTT=    8391 LenC2=    2571 LenP2D=    6690.
 LDataN:  DoStor=T MaxTD1= 8 Len=  415
 Leave Link  701 at Sun May 25 03:34:34 2025, MaxMem=  3758096384 cpu:               1.0 elap:               0.2
 (Enter /apps/easybuild-2022/easybuild/software/Compiler/NVHPC/22.11-CUDA-11.7.0/Gaussian/g16c01-CUDA-11.7.0/g16/l702.exe)
 L702 exits ... SP integral derivatives will be done elsewhere.
 Leave Link  702 at Sun May 25 03:34:35 2025, MaxMem=  3758096384 cpu:               0.1 elap:               0.0
 (Enter /apps/easybuild-2022/easybuild/software/Compiler/NVHPC/22.11-CUDA-11.7.0/Gaussian/g16c01-CUDA-11.7.0/g16/l703.exe)
 Integral derivatives from FoFJK, PRISM(SPDF).
 Compute integral second derivatives, UseDBF=F ICtDFT=           0.
 Calling FoFJK, ICntrl=    100127 FMM=F ISym2X=0 I1Cent= 0 IOpClX= 1 NMat=1 NMatS=1 NMatT=0.
 FoFJK:  IHMeth= 1 ICntrl=  100127 DoSepK=F KAlg= 0 I1Cent=           0 FoldK=F
 IRaf=         0 NMat=       1 IRICut=       1 DoRegI=T DoRafI=F ISym2E= 0 IDoP0=0 IntGTp=1.
 FoFCou: FMM=F IPFlag=           0 FMFlag=      100000 FMFlg1=         800
         NFxFlg=           0 DoJE=F BraDBF=F KetDBF=F FulRan=T
         wScrn=  0.000000 ICntrl=    100127 IOpCl=  1 I1Cent=           0 NGrid=           0
         NMat0=    1 NMatS0=      1 NMatT0=    0 NMatD0=    1 NMtDS0=    0 NMtDT0=    0
 Symmetry not used in FoFCou.
 Leave Link  703 at Sun May 25 03:35:04 2025, MaxMem=  3758096384 cpu:             230.8 elap:              29.2
 (Enter /apps/easybuild-2022/easybuild/software/Compiler/NVHPC/22.11-CUDA-11.7.0/Gaussian/g16c01-CUDA-11.7.0/g16/l716.exe)
 Dipole        =-7.52225739D-01 8.35948559D-01 5.12023918D-01
 Polarizability= 0.00000000D+00 0.00000000D+00 0.00000000D+00
                 0.00000000D+00 0.00000000D+00 0.00000000D+00
 -------------------------------------------------------------------
 Center     Atomic                   Forces (Hartrees/Bohr)
 Number     Number              X              Y              Z
 -------------------------------------------------------------------
      1        6          -0.004813563   -0.014136626    0.002901172
      2        8          -0.004504217    0.006985512   -0.004625041
      3        6           0.001554096   -0.013340516   -0.001695393
      4        9          -0.002168537    0.002377981    0.000196813
      5        9          -0.002845271    0.001140047    0.000296865
      6        8           0.010961308    0.009441668    0.008022437
      7        1           0.001816184    0.007531934   -0.005096852
 -------------------------------------------------------------------
 Cartesian Forces:  Max     0.014136626 RMS     0.006490680
 Force constants in Cartesian coordinates: 
                1             2             3             4             5 
      1  0.662080D+00
      2 -0.135021D+00  0.879611D+00
      3 -0.117034D-01  0.255203D-01  0.182018D+00
      4 -0.283272D+00  0.281515D+00  0.380986D-02  0.319659D+00
      5  0.240519D+00 -0.497192D+00 -0.263692D-02 -0.331621D+00  0.594206D+00
      6  0.488711D-02 -0.170728D-02 -0.676360D-01 -0.183950D-02  0.569255D-02
      7 -0.269694D+00 -0.455691D-01  0.423961D-03 -0.463490D-01  0.543895D-01
      8 -0.119388D-01 -0.443571D-01 -0.862132D-03  0.475705D-01 -0.252237D-01
      9 -0.508257D-02  0.144378D-02 -0.347474D-01  0.166601D-02 -0.257585D-02
     10  0.137916D-01  0.370333D-01  0.498123D-04 -0.186154D-01  0.922715D-02
     11 -0.274195D-01 -0.143452D-01 -0.292416D-03  0.134690D-01 -0.994888D-02
     12  0.121260D-02 -0.146890D-02 -0.616779D-02 -0.251233D-03  0.772678D-03
     13  0.252531D-02 -0.405687D-01 -0.335122D-03 -0.184842D-02  0.466168D-02
     14  0.228930D-01 -0.232088D-01 -0.973958D-04 -0.810309D-02  0.189036D-01
     15  0.483811D-03 -0.196929D-02 -0.403872D-02 -0.231901D-03  0.759565D-03
     16 -0.137661D+00 -0.884551D-01  0.195796D-01  0.322700D-01  0.206298D-01
     17 -0.100853D+00 -0.268070D+00  0.138537D-01  0.199713D-03 -0.758117D-01
     18  0.809661D-02 -0.230217D-01 -0.694049D-01 -0.222742D-02 -0.660091D-02
     19  0.122299D-01 -0.893394D-02 -0.118247D-01 -0.184444D-02  0.219437D-02
     20  0.118208D-01 -0.324381D-01 -0.354852D-01 -0.302955D-02 -0.493362D-02
     21  0.210580D-02  0.120306D-02 -0.234777D-04 -0.925805D-03  0.458890D-02
                6             7             8             9            10 
      6  0.312126D-01
      7 -0.131732D-02  0.787079D+00
      8  0.303943D-03  0.133188D-01  0.704589D+00
      9  0.129341D-01  0.628128D-02  0.774906D-03  0.168126D-01
     10 -0.656679D-03 -0.230743D+00  0.163746D+00 -0.288384D-03  0.213795D+00
     11  0.924815D-03  0.202058D+00 -0.288132D+00  0.415785D-04 -0.200273D+00
     12  0.526836D-02 -0.217934D-02  0.329359D-02  0.879877D-03  0.702191D-03
     13  0.941791D-04 -0.214169D+00 -0.162276D+00 -0.134276D-02  0.274430D-01
     14 -0.442104D-03 -0.201024D+00 -0.311659D+00 -0.247922D-03 -0.423763D-02
     15 -0.626611D-03 -0.136548D-02 -0.956550D-03 -0.565428D-02  0.329708D-03
     16  0.205864D-05 -0.225612D-01 -0.418839D-01 -0.731340D-03 -0.301991D-02
     17 -0.721159D-02 -0.206059D-01 -0.357247D-01  0.126556D-03 -0.643959D-02
     18  0.194559D-01 -0.141223D-02 -0.103196D-02  0.829594D-02 -0.551545D-03
     19 -0.116985D-02 -0.356426D-02 -0.853675D-02 -0.502238D-03 -0.265173D-02
     20  0.243967D-02 -0.256724D-02  0.507482D-03  0.436959D-03  0.944027D-03
     21 -0.608365D-03 -0.430873D-03 -0.152180D-02  0.147914D-02  0.414897D-03
               11            12            13            14            15 
     11  0.373573D+00
     12 -0.197134D-02  0.228592D-02
     13  0.940194D-02  0.313166D-03  0.198978D+00
     14 -0.766997D-01 -0.427732D-03  0.196118D+00  0.397443D+00
     15  0.282462D-03 -0.194023D-02  0.737731D-03  0.691404D-03  0.591777D-02
     16 -0.227306D-02 -0.498099D-04 -0.125617D-01 -0.524380D-02 -0.676521D-03
     17  0.171168D-01  0.166076D-03 -0.881497D-02 -0.590221D-02  0.486725D-03
     18 -0.308421D-03  0.136981D-03 -0.113168D-02 -0.850253D-03  0.587880D-02
     19  0.503641D-02  0.252430D-03 -0.368099D-03 -0.402350D-03  0.722654D-03
     20 -0.156392D-02 -0.364375D-03  0.147774D-02  0.112306D-02  0.705683D-03
     21  0.132332D-02 -0.463117D-03  0.166449D-02  0.137400D-02  0.463275D-03
               16            17            18            19            20 
     16  0.215535D+00
     17  0.667653D-01  0.484751D+00
     18 -0.163208D+00  0.193907D+00  0.391541D+00
     19 -0.720013D-01  0.697487D-01  0.160434D+00  0.682000D-01
     20  0.504607D-01 -0.116359D+00 -0.162094D+00 -0.591065D-01  0.153664D+00
     21  0.145084D+00 -0.201329D+00 -0.355904D+00 -0.147913D+00  0.194361D+00
               21 
     21  0.355056D+00
 FormGI is forming the generalized inverse of G from B-inverse, IUseBI=4.
 Force constants in internal coordinates: 
                1             2             3             4             5 
      1  0.815776D+00
      2  0.937188D-01  0.364928D+00
      3  0.604682D-01  0.499624D-01  0.457190D+00
      4  0.230754D-01 -0.331333D-02  0.168287D-01  0.509336D+00
      5  0.198065D-01 -0.132536D-02  0.116411D-01  0.558993D-01  0.517997D+00
      6 -0.154654D-02 -0.354236D-02  0.492400D-02 -0.203800D-02 -0.265171D-02
      7  0.339484D-01  0.237723D-02 -0.530213D-01  0.157427D-01 -0.118868D-01
      8  0.172550D-01 -0.399366D-01  0.136996D-01 -0.869057D-02 -0.375733D-02
      9 -0.512030D-01  0.375596D-01  0.393219D-01 -0.705200D-02  0.156441D-01
     10  0.149983D-01  0.120674D-01 -0.977917D-02  0.186421D-01 -0.388209D-01
     11 -0.154132D-01  0.126401D-01  0.127577D-01 -0.405873D-01  0.162457D-01
     12  0.411421D-03 -0.247039D-01 -0.297594D-02  0.219418D-01  0.225746D-01
     13  0.323656D-02  0.686410D-02  0.590493D-01  0.187653D-02 -0.123675D-02
     14  0.166203D-02 -0.769591D-03  0.655762D-03  0.195810D-02 -0.247811D-03
     15  0.122496D-03  0.756847D-03  0.179462D-02  0.498753D-03 -0.422495D-03
     16 -0.103716D-03 -0.161236D-02 -0.514661D-03  0.122571D-02 -0.276562D-03
     17 -0.164325D-02 -0.859198D-04  0.624195D-03 -0.233639D-03 -0.451246D-03
     18 -0.548803D-02  0.345925D-02 -0.670288D-02  0.451151D-02 -0.474982D-04
     19 -0.367718D-02  0.432927D-02 -0.551427D-02  0.526542D-02 -0.192267D-04
                6             7             8             9            10 
      6  0.526579D+00
      7  0.128486D-02  0.150108D+00
      8  0.306910D-02 -0.781743D-01  0.184005D+00
      9 -0.435442D-02 -0.719344D-01 -0.105831D+00  0.177766D+00
     10 -0.303500D-03  0.103774D-01 -0.790235D-02 -0.247509D-02  0.136001D+00
     11 -0.960909D-03 -0.947407D-02 -0.321104D-02  0.126852D-01 -0.496438D-01
     12  0.126391D-02 -0.902412D-03  0.111119D-01 -0.102095D-01 -0.863551D-01
     13  0.222753D-01 -0.109405D-01  0.983531D-02  0.110433D-02  0.568874D-03
     14 -0.416272D-03 -0.970889D-03  0.660162D-03  0.315973D-03 -0.150872D-02
     15 -0.635137D-03 -0.558481D-03  0.235993D-04  0.538609D-03 -0.572784D-03
     16  0.172974D-02  0.744643D-03  0.163211D-03 -0.911782D-03 -0.143078D-02
     17  0.151087D-02  0.115705D-02 -0.473352D-03 -0.689146D-03 -0.494845D-03
     18  0.799676D-03  0.112340D-02 -0.446220D-02  0.333409D-02 -0.151153D-02
     19 -0.139866D-02 -0.598511D-03 -0.399476D-02  0.459795D-02 -0.158852D-02
               11            12            13            14            15 
     11  0.133629D+00
     12 -0.839871D-01  0.170342D+00
     13 -0.989727D-03  0.424619D-03  0.172102D+00
     14  0.140772D-02  0.870978D-04 -0.199838D-02  0.178449D-01
     15  0.212835D-03  0.363238D-03 -0.344947D-03  0.117428D-01  0.131874D-01
     16  0.117300D-02  0.260085D-03  0.210795D-02 -0.671983D-02 -0.570755D-02
     17 -0.218840D-04  0.536226D-03  0.376138D-02 -0.128220D-01 -0.426291D-02
     18  0.625505D-03  0.895998D-03  0.319128D-02 -0.127990D-01 -0.842038D-02
     19  0.865011D-03  0.716881D-03 -0.101782D-02  0.123610D-01  0.945289D-02
               16            17            18            19 
     16  0.116706D-01
     17  0.126829D-01  0.212420D-01
     18  0.930115D-02  0.136797D-01  0.813664D-02
     19 -0.953501D-02 -0.124431D-01 -0.144983D-01  0.792904D-02
 Leave Link  716 at Sun May 25 03:35:04 2025, MaxMem=  3758096384 cpu:               0.1 elap:               0.0
 (Enter /apps/easybuild-2022/easybuild/software/Compiler/NVHPC/22.11-CUDA-11.7.0/Gaussian/g16c01-CUDA-11.7.0/g16/l103.exe)

 GradGradGradGradGradGradGradGradGradGradGradGradGradGradGradGradGradGrad
 Berny optimization.
 Red2BG is reusing G-inverse.
 Internal  Forces:  Max     0.020488014 RMS     0.007607823
 Search for a local minimum.
 Step number   1 out of a maximum of   29
 All quantities printed in internal units (Hartrees-Bohrs-Radians)
 RMS Force = .76078D-02 SwitMx=.10000D-02 MixMth= 1
 Mixed Optimization -- RFO/linear search
 Second derivative matrix not updated -- analytic derivatives used.
 The second derivative matrix:
                          R1        R2        R3        R4        R5
           R1           0.81578
           R2           0.09372   0.36493
           R3           0.06047   0.04996   0.45719
           R4           0.02308  -0.00331   0.01683   0.50934
           R5           0.01981  -0.00133   0.01164   0.05590   0.51800
           R6          -0.00155  -0.00354   0.00492  -0.00204  -0.00265
           A1           0.03395   0.00238  -0.05302   0.01574  -0.01189
           A2           0.01725  -0.03994   0.01370  -0.00869  -0.00376
           A3          -0.05120   0.03756   0.03932  -0.00705   0.01564
           A4           0.01500   0.01207  -0.00978   0.01864  -0.03882
           A5          -0.01541   0.01264   0.01276  -0.04059   0.01625
           A6           0.00041  -0.02470  -0.00298   0.02194   0.02257
           A7           0.00324   0.00686   0.05905   0.00188  -0.00124
           D1           0.00166  -0.00077   0.00066   0.00196  -0.00025
           D2           0.00012   0.00076   0.00179   0.00050  -0.00042
           D3          -0.00010  -0.00161  -0.00051   0.00123  -0.00028
           D4          -0.00164  -0.00009   0.00062  -0.00023  -0.00045
           D5          -0.00549   0.00346  -0.00670   0.00451  -0.00005
           D6          -0.00368   0.00433  -0.00551   0.00527  -0.00002
                          R6        A1        A2        A3        A4
           R6           0.52658
           A1           0.00128   0.15011
           A2           0.00307  -0.07817   0.18401
           A3          -0.00435  -0.07193  -0.10583   0.17777
           A4          -0.00030   0.01038  -0.00790  -0.00248   0.13600
           A5          -0.00096  -0.00947  -0.00321   0.01269  -0.04964
           A6           0.00126  -0.00090   0.01111  -0.01021  -0.08636
           A7           0.02228  -0.01094   0.00984   0.00110   0.00057
           D1          -0.00042  -0.00097   0.00066   0.00032  -0.00151
           D2          -0.00064  -0.00056   0.00002   0.00054  -0.00057
           D3           0.00173   0.00074   0.00016  -0.00091  -0.00143
           D4           0.00151   0.00116  -0.00047  -0.00069  -0.00049
           D5           0.00080   0.00112  -0.00446   0.00333  -0.00151
           D6          -0.00140  -0.00060  -0.00399   0.00460  -0.00159
                          A5        A6        A7        D1        D2
           A5           0.13363
           A6          -0.08399   0.17034
           A7          -0.00099   0.00042   0.17210
           D1           0.00141   0.00009  -0.00200   0.01784
           D2           0.00021   0.00036  -0.00034   0.01174   0.01319
           D3           0.00117   0.00026   0.00211  -0.00672  -0.00571
           D4          -0.00002   0.00054   0.00376  -0.01282  -0.00426
           D5           0.00063   0.00090   0.00319  -0.01280  -0.00842
           D6           0.00087   0.00072  -0.00102   0.01236   0.00945
                          D3        D4        D5        D6
           D3           0.01167
           D4           0.01268   0.02124
           D5           0.00930   0.01368   0.00814
           D6          -0.00954  -0.01244  -0.01450   0.00793
 ITU=  0
     Eigenvalues ---   -0.00728   0.00559   0.01402   0.06645   0.15742
     Eigenvalues ---    0.17092   0.19951   0.24167   0.24684   0.37732
     Eigenvalues ---    0.46863   0.49685   0.52936   0.57393   0.85454
 Eigenvalue     1 is  -7.28D-03 should be greater than     0.000000 Eigenvector:
                          D5        D6        D2        D4        D3
   1                    0.70738   0.70127  -0.04710  -0.04113   0.03026
                          R3        D1        A3        A2        A7
   1                    0.02429   0.02429  -0.01987   0.01662  -0.01600
 RFO step:  Lambda=-1.03765408D-02 EMin=-7.28077690D-03
 Linear search not attempted -- first point.
 Iteration  1 RMS(Cart)=  0.06821825 RMS(Int)=  0.10528863
 Iteration  2 RMS(Cart)=  0.06006877 RMS(Int)=  0.04021999
 Iteration  3 RMS(Cart)=  0.03602806 RMS(Int)=  0.00243088
 Iteration  4 RMS(Cart)=  0.00223682 RMS(Int)=  0.00045896
 Iteration  5 RMS(Cart)=  0.00000714 RMS(Int)=  0.00045894
 Iteration  6 RMS(Cart)=  0.00000000 RMS(Int)=  0.00045894
 ITry= 1 IFail=0 DXMaxC= 3.39D-01 DCOld= 1.00D+10 DXMaxT= 3.00D-01 DXLimC= 3.00D+00 Rises=F
 Variable       Old X    -DE/DX   Delta X   Delta X   Delta X     New X
                                 (Linear)    (Quad)   (Total)
    R1        2.27906  -0.00831   0.00000  -0.01280  -0.01280   2.26627
    R2        2.71099   0.00346   0.00000   0.00974   0.00974   2.72073
    R3        2.54361   0.02049   0.00000   0.01168   0.01168   2.55530
    R4        2.45679   0.00319   0.00000   0.02005   0.02005   2.47684
    R5        2.44969   0.00053   0.00000  -0.00511  -0.00511   2.44459
    R6        1.82450  -0.00148   0.00000  -0.00593  -0.00593   1.81857
    A1        2.14970  -0.00673   0.00000  -0.01933  -0.01986   2.12984
    A2        2.18496  -0.00685   0.00000  -0.03657  -0.03709   2.14788
    A3        1.94852   0.01358   0.00000   0.05591   0.05538   2.00391
    A4        2.16903  -0.00173   0.00000  -0.02002  -0.02102   2.14801
    A5        2.12507   0.00457   0.00000   0.02461   0.02361   2.14868
    A6        1.98908  -0.00284   0.00000  -0.00439  -0.00539   1.98369
    A7        1.86436   0.01544   0.00000   0.08903   0.08903   1.95338
    D1       -3.14045   0.00163   0.00000  -0.01267  -0.01253   3.13020
    D2       -0.00182   0.00214   0.00000   0.07580   0.07588   0.07405
    D3        0.00136  -0.00204   0.00000  -0.07099  -0.07107  -0.06971
    D4        3.13999  -0.00152   0.00000   0.01748   0.01733  -3.12586
    D5       -2.09514  -0.00493   0.00000  -0.55454  -0.55429  -2.64943
    D6        1.04623  -0.00117   0.00000  -0.49481  -0.49506   0.55117
         Item               Value     Threshold  Converged?
 Maximum Force            0.020488     0.000450     NO 
 RMS     Force            0.007608     0.000300     NO 
 Maximum Displacement     0.338870     0.001800     NO 
 RMS     Displacement     0.152687     0.001200     NO 
 Predicted change in Energy=-7.251488D-03
 Lowest energy point so far.  Saving SCF results.
 GradGradGradGradGradGradGradGradGradGradGradGradGradGradGradGradGradGrad

 Leave Link  103 at Sun May 25 03:35:04 2025, MaxMem=  3758096384 cpu:               0.1 elap:               0.0
 (Enter /apps/easybuild-2022/easybuild/software/Compiler/NVHPC/22.11-CUDA-11.7.0/Gaussian/g16c01-CUDA-11.7.0/g16/l202.exe)
                          Input orientation:                          
 ---------------------------------------------------------------------
 Center     Atomic      Atomic             Coordinates (Angstroms)
 Number     Number       Type             X           Y           Z
 ---------------------------------------------------------------------
      1          6           0        1.451286   -0.029798    0.046200
      2          8           0        2.082170   -1.045136   -0.050173
      3          6           0        0.012357   -0.017504   -0.000735
      4          9           0       -0.697694    1.078107    0.114871
      5          9           0       -0.701670   -1.094074   -0.068650
      6          8           0        2.026662    1.190674    0.134808
      7          1           0        1.476272    1.812923    0.620592
 ---------------------------------------------------------------------
                    Distance matrix (angstroms):
                    1          2          3          4          5
     1  C    0.000000
     2  O    1.199256   0.000000
     3  C    1.439747   2.311406   0.000000
     4  F    2.418736   3.501863   1.310688   0.000000
     5  F    2.404391   2.784332   1.293619   2.179924   0.000000
     6  O    1.352206   2.244136   2.352763   2.726754   3.564445
     7  H    1.930329   2.997589   2.424780   2.349859   3.697178
                    6          7
     6  O    0.000000
     7  H    0.962346   0.000000
 Symmetry turned off by external request.
 Stoichiometry    C2HF2O2
 Rotational constants (GHZ):           5.6914787           3.4611112           2.1557432
 Leave Link  202 at Sun May 25 03:35:04 2025, MaxMem=  3758096384 cpu:               0.1 elap:               0.0
 (Enter /apps/easybuild-2022/easybuild/software/Compiler/NVHPC/22.11-CUDA-11.7.0/Gaussian/g16c01-CUDA-11.7.0/g16/l301.exe)
 Standard basis: def2TZVPP (5D, 7F)
 Ernie: Thresh=  0.10000D-02 Tol=  0.10000D-05 Strict=F.
   200 basis functions,   323 primitive gaussians,   231 cartesian basis functions
    24 alpha electrons       23 beta electrons
       nuclear repulsion energy       238.6332631324 Hartrees.
 IExCor= 4336 DFT=T Ex+Corr=M062X ExCW=0 ScaHFX=  0.540000
 ScaDFX=  1.000000  1.000000  1.000000  1.000000 ScalE2=  1.000000  1.000000
 IRadAn=      5 IRanWt=     -1 IRanGd=            0 ICorTp=0 IEmpDi=  4
 NAtoms=    7 NActive=    7 NUniq=    7 SFac= 1.00D+00 NAtFMM=   60 NAOKFM=F Big=F
 Integral buffers will be    131072 words long.
 Raffenetti 2 integral format.
 Two-electron integral symmetry is turned off.
 Leave Link  301 at Sun May 25 03:35:04 2025, MaxMem=  3758096384 cpu:               0.1 elap:               0.0
 (Enter /apps/easybuild-2022/easybuild/software/Compiler/NVHPC/22.11-CUDA-11.7.0/Gaussian/g16c01-CUDA-11.7.0/g16/l302.exe)
 NPDir=0 NMtPBC=     1 NCelOv=     1 NCel=       1 NClECP=     1 NCelD=      1
         NCelK=      1 NCelE2=     1 NClLst=     1 CellRange=     0.0.
 One-electron integrals computed using PRISM.
   1 Symmetry operations used in ECPInt.
 ECPInt:  NShTT=    2628 NPrTT=    8391 LenC2=    2572 LenP2D=    6685.
 LDataN:  DoStor=T MaxTD1= 6 Len=  172
 NBasis=   200 RedAO= T EigKep=  2.80D-04  NBF=   200
 NBsUse=   200 1.00D-06 EigRej= -1.00D+00 NBFU=   200
 Precomputing XC quadrature grid using
 IXCGrd= 4 IRadAn=           5 IRanWt=          -1 IRanGd=           0 AccXCQ= 0.00D+00.
 Generated NRdTot=       0 NPtTot=           0 NUsed=           0 NTot=          32
 NSgBfM=   230   230   230   230   230 MxSgAt=     7 MxSgA2=     7.
 Leave Link  302 at Sun May 25 03:35:04 2025, MaxMem=  3758096384 cpu:               0.7 elap:               0.2
 (Enter /apps/easybuild-2022/easybuild/software/Compiler/NVHPC/22.11-CUDA-11.7.0/Gaussian/g16c01-CUDA-11.7.0/g16/l303.exe)
 DipDrv:  MaxL=1.
 Leave Link  303 at Sun May 25 03:35:04 2025, MaxMem=  3758096384 cpu:               0.1 elap:               0.0
 (Enter /apps/easybuild-2022/easybuild/software/Compiler/NVHPC/22.11-CUDA-11.7.0/Gaussian/g16c01-CUDA-11.7.0/g16/l401.exe)
 Initial guess from the checkpoint file:  "/tmp/Gau-150467.chk"
 B after Tr=     0.031757   -0.005393    0.037012
         Rot=    0.999386   -0.033419    0.001531    0.010386 Ang=  -4.01 deg.
 Guess basis will be translated and rotated to current coordinates.
 JPrj=2 DoOrth=T DoCkMO=T.
 Initial guess <Sx>= 0.0000 <Sy>= 0.0000 <Sz>= 0.5000 <S**2>= 0.7619 S= 0.5060
 Generating alternative initial guess.
 ExpMin= 9.52D-02 ExpMax= 3.55D+04 ExpMxC= 1.21D+03 IAcc=3 IRadAn=         5 AccDes= 0.00D+00
 Harris functional with IExCor= 1009 and IRadAn=       5 diagonalized for initial guess.
 HarFok:  IExCor= 1009 AccDes= 0.00D+00 IRadAn=         5 IDoV= 1 UseB2=F ITyADJ=14
 ICtDFT=  3500011 ScaDFX=  1.000000  1.000000  1.000000  1.000000
 FoFCou: FMM=F IPFlag=           0 FMFlag=      100000 FMFlg1=           0
         NFxFlg=           0 DoJE=T BraDBF=F KetDBF=T FulRan=T
         wScrn=  0.000000 ICntrl=       500 IOpCl=  0 I1Cent=   200000004 NGrid=           0
         NMat0=    1 NMatS0=      1 NMatT0=    0 NMatD0=    1 NMtDS0=    0 NMtDT0=    0
 Symmetry not used in FoFCou.
 Harris En= -426.680867343335    
 Leave Link  401 at Sun May 25 03:35:04 2025, MaxMem=  3758096384 cpu:               1.8 elap:               0.3
 (Enter /apps/easybuild-2022/easybuild/software/Compiler/NVHPC/22.11-CUDA-11.7.0/Gaussian/g16c01-CUDA-11.7.0/g16/l502.exe)
 Keep R1 and R2 ints in memory in canonical form, NReq=412511861.
 FoFCou: FMM=F IPFlag=           0 FMFlag=           0 FMFlg1=           0
         NFxFlg=           0 DoJE=F BraDBF=F KetDBF=F FulRan=T
         wScrn=  0.000000 ICntrl=       600 IOpCl=  0 I1Cent=           0 NGrid=           0
         NMat0=    1 NMatS0=  20100 NMatT0=    0 NMatD0=    1 NMtDS0=    0 NMtDT0=    0
 Symmetry not used in FoFCou.
 Two-electron integral symmetry not used.
 UHF open shell SCF:
 Using DIIS extrapolation, IDIIS=  1040.
 NGot=  3758096384 LenX=  3353956029 LenY=  3353902227
 Requested convergence on RMS density matrix=1.00D-08 within  32 cycles.
 Requested convergence on MAX density matrix=1.00D-06.
 Requested convergence on             energy=1.00D-06.
 No special actions if energy rises.
 Integral accuracy reduced to 1.0D-05 until final iterations.

 Cycle   1  Pass 0  IDiag  1:
 E= -426.881568675443    
 DIIS: error= 7.86D-03 at cycle   1 NSaved=   1.
 NSaved= 1 IEnMin= 1 EnMin= -426.881568675443     IErMin= 1 ErrMin= 7.86D-03
 ErrMax= 7.86D-03  0.00D+00 EMaxC= 1.00D-01 BMatC= 1.36D-01 BMatP= 1.36D-01
 IDIUse=3 WtCom= 9.21D-01 WtEn= 7.86D-02
 Coeff-Com:  0.100D+01
 Coeff-En:   0.100D+01
 Coeff:      0.100D+01
 Gap=     0.926 Goal=   None    Shift=    0.000
 Gap=     0.990 Goal=   None    Shift=    0.000
 GapD=    0.926 DampG=2.000 DampE=1.000 DampFc=2.0000 IDamp=-1.
 RMSDP=1.01D-03 MaxDP=3.63D-02              OVMax= 7.86D-02

 Cycle   2  Pass 0  IDiag  1:
 E= -426.916550910680     Delta-E=       -0.034982235238 Rises=F Damp=F
 DIIS: error= 3.14D-03 at cycle   2 NSaved=   2.
 NSaved= 2 IEnMin= 2 EnMin= -426.916550910680     IErMin= 2 ErrMin= 3.14D-03
 ErrMax= 3.14D-03  0.00D+00 EMaxC= 1.00D-01 BMatC= 9.74D-03 BMatP= 1.36D-01
 IDIUse=3 WtCom= 9.69D-01 WtEn= 3.14D-02
 Coeff-Com:  0.148D-01 0.985D+00
 Coeff-En:   0.000D+00 0.100D+01
 Coeff:      0.143D-01 0.986D+00
 Gap=     0.347 Goal=   None    Shift=    0.000
 Gap=     0.311 Goal=   None    Shift=    0.000
 RMSDP=2.88D-04 MaxDP=1.04D-02 DE=-3.50D-02 OVMax= 2.06D-02

 Cycle   3  Pass 0  IDiag  1:
 E= -426.917747912621     Delta-E=       -0.001197001941 Rises=F Damp=F
 DIIS: error= 2.67D-03 at cycle   3 NSaved=   3.
 NSaved= 3 IEnMin= 3 EnMin= -426.917747912621     IErMin= 3 ErrMin= 2.67D-03
 ErrMax= 2.67D-03  0.00D+00 EMaxC= 1.00D-01 BMatC= 7.94D-03 BMatP= 9.74D-03
 IDIUse=3 WtCom= 9.73D-01 WtEn= 2.67D-02
 Coeff-Com: -0.624D-01 0.496D+00 0.567D+00
 Coeff-En:   0.000D+00 0.207D+00 0.793D+00
 Coeff:     -0.608D-01 0.488D+00 0.573D+00
 Gap=     0.351 Goal=   None    Shift=    0.000
 Gap=     0.309 Goal=   None    Shift=    0.000
 RMSDP=1.29D-04 MaxDP=5.72D-03 DE=-1.20D-03 OVMax= 1.43D-02

 Cycle   4  Pass 0  IDiag  1:
 E= -426.919067559129     Delta-E=       -0.001319646507 Rises=F Damp=F
 DIIS: error= 4.72D-04 at cycle   4 NSaved=   4.
 NSaved= 4 IEnMin= 4 EnMin= -426.919067559129     IErMin= 4 ErrMin= 4.72D-04
 ErrMax= 4.72D-04  0.00D+00 EMaxC= 1.00D-01 BMatC= 3.84D-04 BMatP= 7.94D-03
 IDIUse=3 WtCom= 9.95D-01 WtEn= 4.72D-03
 Coeff-Com: -0.175D-01 0.476D-01 0.195D+00 0.775D+00
 Coeff-En:   0.000D+00 0.000D+00 0.000D+00 0.100D+01
 Coeff:     -0.174D-01 0.473D-01 0.194D+00 0.776D+00
 Gap=     0.349 Goal=   None    Shift=    0.000
 Gap=     0.307 Goal=   None    Shift=    0.000
 RMSDP=4.89D-05 MaxDP=1.31D-03 DE=-1.32D-03 OVMax= 3.55D-03

 Cycle   5  Pass 0  IDiag  1:
 E= -426.919145871062     Delta-E=       -0.000078311934 Rises=F Damp=F
 DIIS: error= 3.27D-04 at cycle   5 NSaved=   5.
 NSaved= 5 IEnMin= 5 EnMin= -426.919145871062     IErMin= 5 ErrMin= 3.27D-04
 ErrMax= 3.27D-04  0.00D+00 EMaxC= 1.00D-01 BMatC= 7.02D-05 BMatP= 3.84D-04
 IDIUse=3 WtCom= 9.97D-01 WtEn= 3.27D-03
 Coeff-Com: -0.179D-02-0.320D-01 0.356D-01 0.369D+00 0.629D+00
 Coeff-En:   0.000D+00 0.000D+00 0.000D+00 0.000D+00 0.100D+01
 Coeff:     -0.179D-02-0.319D-01 0.354D-01 0.368D+00 0.630D+00
 Gap=     0.349 Goal=   None    Shift=    0.000
 Gap=     0.309 Goal=   None    Shift=    0.000
 RMSDP=1.93D-05 MaxDP=9.48D-04 DE=-7.83D-05 OVMax= 3.11D-03

 Cycle   6  Pass 0  IDiag  1:
 E= -426.919162230608     Delta-E=       -0.000016359546 Rises=F Damp=F
 DIIS: error= 1.32D-04 at cycle   6 NSaved=   6.
 NSaved= 6 IEnMin= 6 EnMin= -426.919162230608     IErMin= 6 ErrMin= 1.32D-04
 ErrMax= 1.32D-04  0.00D+00 EMaxC= 1.00D-01 BMatC= 1.30D-05 BMatP= 7.02D-05
 IDIUse=3 WtCom= 9.99D-01 WtEn= 1.32D-03
 Coeff-Com:  0.268D-02-0.273D-01-0.223D-01 0.209D-01 0.310D+00 0.716D+00
 Coeff-En:   0.000D+00 0.000D+00 0.000D+00 0.000D+00 0.000D+00 0.100D+01
 Coeff:      0.268D-02-0.273D-01-0.223D-01 0.209D-01 0.309D+00 0.717D+00
 Gap=     0.349 Goal=   None    Shift=    0.000
 Gap=     0.308 Goal=   None    Shift=    0.000
 RMSDP=1.00D-05 MaxDP=3.74D-04 DE=-1.64D-05 OVMax= 1.31D-03

 Cycle   7  Pass 0  IDiag  1:
 E= -426.919166500005     Delta-E=       -0.000004269397 Rises=F Damp=F
 DIIS: error= 4.96D-05 at cycle   7 NSaved=   7.
 NSaved= 7 IEnMin= 7 EnMin= -426.919166500005     IErMin= 7 ErrMin= 4.96D-05
 ErrMax= 4.96D-05  0.00D+00 EMaxC= 1.00D-01 BMatC= 1.05D-06 BMatP= 1.30D-05
 IDIUse=1 WtCom= 1.00D+00 WtEn= 0.00D+00
 Coeff-Com:  0.681D-03-0.816D-03-0.822D-02-0.486D-01-0.226D-01 0.110D+00
 Coeff-Com:  0.969D+00
 Coeff:      0.681D-03-0.816D-03-0.822D-02-0.486D-01-0.226D-01 0.110D+00
 Coeff:      0.969D+00
 Gap=     0.349 Goal=   None    Shift=    0.000
 Gap=     0.308 Goal=   None    Shift=    0.000
 RMSDP=5.49D-06 MaxDP=2.32D-04 DE=-4.27D-06 OVMax= 9.06D-04

 Initial convergence to 1.0D-05 achieved.  Increase integral accuracy.
 Cycle   8  Pass 1  IDiag  1:
 E= -426.919157834829     Delta-E=        0.000008665176 Rises=F Damp=F
 DIIS: error= 3.16D-05 at cycle   1 NSaved=   1.
 NSaved= 1 IEnMin= 1 EnMin= -426.919157834829     IErMin= 1 ErrMin= 3.16D-05
 ErrMax= 3.16D-05  0.00D+00 EMaxC= 1.00D-01 BMatC= 1.16D-06 BMatP= 1.16D-06
 IDIUse=1 WtCom= 1.00D+00 WtEn= 0.00D+00
 Coeff-Com:  0.100D+01
 Coeff:      0.100D+01
 Gap=     0.349 Goal=   None    Shift=    0.000
 Gap=     0.308 Goal=   None    Shift=    0.000
 RMSDP=5.49D-06 MaxDP=2.32D-04 DE= 8.67D-06 OVMax= 3.39D-04

 Cycle   9  Pass 1  IDiag  1:
 E= -426.919158204335     Delta-E=       -0.000000369506 Rises=F Damp=F
 DIIS: error= 2.45D-05 at cycle   2 NSaved=   2.
 NSaved= 2 IEnMin= 2 EnMin= -426.919158204335     IErMin= 2 ErrMin= 2.45D-05
 ErrMax= 2.45D-05  0.00D+00 EMaxC= 1.00D-01 BMatC= 3.44D-07 BMatP= 1.16D-06
 IDIUse=1 WtCom= 1.00D+00 WtEn= 0.00D+00
 Coeff-Com:  0.255D+00 0.745D+00
 Coeff:      0.255D+00 0.745D+00
 Gap=     0.349 Goal=   None    Shift=    0.000
 Gap=     0.309 Goal=   None    Shift=    0.000
 RMSDP=1.47D-06 MaxDP=8.33D-05 DE=-3.70D-07 OVMax= 2.77D-04

 Cycle  10  Pass 1  IDiag  1:
 E= -426.919158305537     Delta-E=       -0.000000101202 Rises=F Damp=F
 DIIS: error= 2.16D-05 at cycle   3 NSaved=   3.
 NSaved= 3 IEnMin= 3 EnMin= -426.919158305537     IErMin= 3 ErrMin= 2.16D-05
 ErrMax= 2.16D-05  0.00D+00 EMaxC= 1.00D-01 BMatC= 2.19D-07 BMatP= 3.44D-07
 IDIUse=1 WtCom= 1.00D+00 WtEn= 0.00D+00
 Coeff-Com: -0.836D-01 0.428D+00 0.655D+00
 Coeff:     -0.836D-01 0.428D+00 0.655D+00
 Gap=     0.349 Goal=   None    Shift=    0.000
 Gap=     0.308 Goal=   None    Shift=    0.000
 RMSDP=1.06D-06 MaxDP=6.21D-05 DE=-1.01D-07 OVMax= 1.27D-04

 Cycle  11  Pass 1  IDiag  1:
 E= -426.919158377978     Delta-E=       -0.000000072441 Rises=F Damp=F
 DIIS: error= 1.15D-05 at cycle   4 NSaved=   4.
 NSaved= 4 IEnMin= 4 EnMin= -426.919158377978     IErMin= 4 ErrMin= 1.15D-05
 ErrMax= 1.15D-05  0.00D+00 EMaxC= 1.00D-01 BMatC= 2.65D-08 BMatP= 2.19D-07
 IDIUse=1 WtCom= 1.00D+00 WtEn= 0.00D+00
 Coeff-Com: -0.635D-01 0.210D-01 0.126D+00 0.917D+00
 Coeff:     -0.635D-01 0.210D-01 0.126D+00 0.917D+00
 Gap=     0.349 Goal=   None    Shift=    0.000
 Gap=     0.309 Goal=   None    Shift=    0.000
 RMSDP=7.09D-07 MaxDP=4.63D-05 DE=-7.24D-08 OVMax= 1.64D-04

 Cycle  12  Pass 1  IDiag  1:
 E= -426.919158403635     Delta-E=       -0.000000025657 Rises=F Damp=F
 DIIS: error= 6.97D-06 at cycle   5 NSaved=   5.
 NSaved= 5 IEnMin= 5 EnMin= -426.919158403635     IErMin= 5 ErrMin= 6.97D-06
 ErrMax= 6.97D-06  0.00D+00 EMaxC= 1.00D-01 BMatC= 1.58D-08 BMatP= 2.65D-08
 IDIUse=1 WtCom= 1.00D+00 WtEn= 0.00D+00
 Coeff-Com:  0.174D-01-0.265D+00-0.411D+00 0.547D+00 0.111D+01
 Coeff:      0.174D-01-0.265D+00-0.411D+00 0.547D+00 0.111D+01
 Gap=     0.349 Goal=   None    Shift=    0.000
 Gap=     0.309 Goal=   None    Shift=    0.000
 RMSDP=9.08D-07 MaxDP=5.10D-05 DE=-2.57D-08 OVMax= 1.63D-04

 Cycle  13  Pass 1  IDiag  1:
 E= -426.919158419083     Delta-E=       -0.000000015449 Rises=F Damp=F
 DIIS: error= 1.27D-06 at cycle   6 NSaved=   6.
 NSaved= 6 IEnMin= 6 EnMin= -426.919158419083     IErMin= 6 ErrMin= 1.27D-06
 ErrMax= 1.27D-06  0.00D+00 EMaxC= 1.00D-01 BMatC= 1.09D-09 BMatP= 1.58D-08
 IDIUse=1 WtCom= 1.00D+00 WtEn= 0.00D+00
 Coeff-Com:  0.130D-01-0.109D+00-0.177D+00 0.155D+00 0.443D+00 0.675D+00
 Coeff:      0.130D-01-0.109D+00-0.177D+00 0.155D+00 0.443D+00 0.675D+00
 Gap=     0.349 Goal=   None    Shift=    0.000
 Gap=     0.309 Goal=   None    Shift=    0.000
 RMSDP=1.11D-07 MaxDP=6.37D-06 DE=-1.54D-08 OVMax= 2.28D-05

 Cycle  14  Pass 1  IDiag  1:
 E= -426.919158419520     Delta-E=       -0.000000000437 Rises=F Damp=F
 DIIS: error= 3.53D-07 at cycle   7 NSaved=   7.
 NSaved= 7 IEnMin= 7 EnMin= -426.919158419520     IErMin= 7 ErrMin= 3.53D-07
 ErrMax= 3.53D-07  0.00D+00 EMaxC= 1.00D-01 BMatC= 1.33D-10 BMatP= 1.09D-09
 IDIUse=1 WtCom= 1.00D+00 WtEn= 0.00D+00
 Coeff-Com: -0.840D-03 0.253D-01 0.378D-01-0.633D-01-0.123D+00 0.144D+00
 Coeff-Com:  0.980D+00
 Coeff:     -0.840D-03 0.253D-01 0.378D-01-0.633D-01-0.123D+00 0.144D+00
 Coeff:      0.980D+00
 Gap=     0.349 Goal=   None    Shift=    0.000
 Gap=     0.309 Goal=   None    Shift=    0.000
 RMSDP=5.46D-08 MaxDP=2.49D-06 DE=-4.37D-10 OVMax= 8.09D-06

 Cycle  15  Pass 1  IDiag  1:
 E= -426.919158419611     Delta-E=       -0.000000000091 Rises=F Damp=F
 DIIS: error= 1.38D-07 at cycle   8 NSaved=   8.
 NSaved= 8 IEnMin= 8 EnMin= -426.919158419611     IErMin= 8 ErrMin= 1.38D-07
 ErrMax= 1.38D-07  0.00D+00 EMaxC= 1.00D-01 BMatC= 1.96D-11 BMatP= 1.33D-10
 IDIUse=1 WtCom= 1.00D+00 WtEn= 0.00D+00
 Coeff-Com: -0.183D-02 0.204D-01 0.314D-01-0.324D-01-0.892D-01-0.574D-01
 Coeff-Com:  0.239D+00 0.890D+00
 Coeff:     -0.183D-02 0.204D-01 0.314D-01-0.324D-01-0.892D-01-0.574D-01
 Coeff:      0.239D+00 0.890D+00
 Gap=     0.349 Goal=   None    Shift=    0.000
 Gap=     0.309 Goal=   None    Shift=    0.000
 RMSDP=2.07D-08 MaxDP=9.09D-07 DE=-9.06D-11 OVMax= 2.15D-06

 Cycle  16  Pass 1  IDiag  1:
 E= -426.919158419622     Delta-E=       -0.000000000011 Rises=F Damp=F
 DIIS: error= 8.34D-08 at cycle   9 NSaved=   9.
 NSaved= 9 IEnMin= 9 EnMin= -426.919158419622     IErMin= 9 ErrMin= 8.34D-08
 ErrMax= 8.34D-08  0.00D+00 EMaxC= 1.00D-01 BMatC= 4.42D-12 BMatP= 1.96D-11
 IDIUse=1 WtCom= 1.00D+00 WtEn= 0.00D+00
 Coeff-Com: -0.446D-03 0.203D-02 0.350D-02 0.158D-02-0.831D-02-0.432D-01
 Coeff-Com: -0.985D-01 0.299D+00 0.844D+00
 Coeff:     -0.446D-03 0.203D-02 0.350D-02 0.158D-02-0.831D-02-0.432D-01
 Coeff:     -0.985D-01 0.299D+00 0.844D+00
 Gap=     0.349 Goal=   None    Shift=    0.000
 Gap=     0.309 Goal=   None    Shift=    0.000
 RMSDP=9.15D-09 MaxDP=4.67D-07 DE=-1.14D-11 OVMax= 1.01D-06

 SCF Done:  E(UM062X) =  -426.919158420     A.U. after   16 cycles
            NFock= 16  Conv=0.92D-08     -V/T= 2.0037
 <Sx>= 0.0000 <Sy>= 0.0000 <Sz>= 0.5000 <S**2>= 0.7607 S= 0.5053
 <L.S>=  0.00000000000    
 KE= 4.253544432404D+02 PE=-1.487054823766D+03 EE= 3.961479589731D+02
 Annihilation of the first spin contaminant:
 S**2 before annihilation     0.7607,   after     0.7501
 Leave Link  502 at Sun May 25 03:35:17 2025, MaxMem=  3758096384 cpu:              62.1 elap:              12.9
 (Enter /apps/easybuild-2022/easybuild/software/Compiler/NVHPC/22.11-CUDA-11.7.0/Gaussian/g16c01-CUDA-11.7.0/g16/l508.exe)
 QCSCF skips out because SCF is already converged.
 Leave Link  508 at Sun May 25 03:35:17 2025, MaxMem=  3758096384 cpu:               0.1 elap:               0.0
 (Enter /apps/easybuild-2022/easybuild/software/Compiler/NVHPC/22.11-CUDA-11.7.0/Gaussian/g16c01-CUDA-11.7.0/g16/l701.exe)
 ... and contract with generalized density number  0.
 Compute integral first derivatives.
   1 Symmetry operations used in ECPInt.
 ECPInt:  NShTT=    2628 NPrTT=    8391 LenC2=    2572 LenP2D=    6685.
 LDataN:  DoStor=T MaxTD1= 7 Len=  274
 Leave Link  701 at Sun May 25 03:35:17 2025, MaxMem=  3758096384 cpu:               0.5 elap:               0.1
 (Enter /apps/easybuild-2022/easybuild/software/Compiler/NVHPC/22.11-CUDA-11.7.0/Gaussian/g16c01-CUDA-11.7.0/g16/l702.exe)
 L702 exits ... SP integral derivatives will be done elsewhere.
 Leave Link  702 at Sun May 25 03:35:17 2025, MaxMem=  3758096384 cpu:               0.0 elap:               0.0
 (Enter /apps/easybuild-2022/easybuild/software/Compiler/NVHPC/22.11-CUDA-11.7.0/Gaussian/g16c01-CUDA-11.7.0/g16/l703.exe)
 Integral derivatives from FoFJK, PRISM(SPDF).
 Compute integral first derivatives, UseDBF=F ICtDFT=           0.
 Calling FoFJK, ICntrl=      2127 FMM=F ISym2X=0 I1Cent= 0 IOpClX= 1 NMat=1 NMatS=1 NMatT=0.
 FoFJK:  IHMeth= 1 ICntrl=    2127 DoSepK=F KAlg= 0 I1Cent=           0 FoldK=F
 IRaf=         0 NMat=       1 IRICut=       1 DoRegI=T DoRafI=F ISym2E= 0 IDoP0=0 IntGTp=1.
 FoFCou: FMM=F IPFlag=           0 FMFlag=      100000 FMFlg1=         800
         NFxFlg=           0 DoJE=F BraDBF=F KetDBF=F FulRan=T
         wScrn=  0.000000 ICntrl=      2127 IOpCl=  1 I1Cent=           0 NGrid=           0
         NMat0=    1 NMatS0=      1 NMatT0=    0 NMatD0=    1 NMtDS0=    0 NMtDT0=    0
 Symmetry not used in FoFCou.
 Leave Link  703 at Sun May 25 03:35:20 2025, MaxMem=  3758096384 cpu:              19.5 elap:               2.6
 (Enter /apps/easybuild-2022/easybuild/software/Compiler/NVHPC/22.11-CUDA-11.7.0/Gaussian/g16c01-CUDA-11.7.0/g16/l716.exe)
 Dipole        =-8.64113978D-01 9.61613704D-01 3.67240086D-01
 -------------------------------------------------------------------
 Center     Atomic                   Forces (Hartrees/Bohr)
 Number     Number              X              Y              Z
 -------------------------------------------------------------------
      1        6          -0.001500522    0.000624746   -0.000402528
      2        8           0.000692661   -0.000490271   -0.001679856
      3        6           0.000011982   -0.000122656    0.000014726
      4        9          -0.000106050   -0.000025173    0.000559614
      5        9          -0.000172960   -0.000107187    0.000525012
      6        8           0.003233171   -0.001486724    0.004341542
      7        1          -0.002158282    0.001607265   -0.003358510
 -------------------------------------------------------------------
 Cartesian Forces:  Max     0.004341542 RMS     0.001648047
 Leave Link  716 at Sun May 25 03:35:20 2025, MaxMem=  3758096384 cpu:               0.0 elap:               0.0
 (Enter /apps/easybuild-2022/easybuild/software/Compiler/NVHPC/22.11-CUDA-11.7.0/Gaussian/g16c01-CUDA-11.7.0/g16/l103.exe)

 GradGradGradGradGradGradGradGradGradGradGradGradGradGradGradGradGradGrad
 Berny optimization.
 Using GEDIIS/GDIIS optimizer.
 FormGI is forming the generalized inverse of G from B-inverse, IUseBI=4.
 Internal  Forces:  Max     0.003776214 RMS     0.001250705
 Search for a local minimum.
 Step number   2 out of a maximum of   29
 All quantities printed in internal units (Hartrees-Bohrs-Radians)
 RMS Force = .12507D-02 SwitMx=.10000D-02 MixMth= 1
 Mixed Optimization -- RFO/linear search
 Update second derivatives using D2CorX and points    1    2
 DE= -5.90D-03 DEPred=-7.25D-03 R= 8.14D-01
 TightC=F SS=  1.41D+00  RLast= 7.60D-01 DXNew= 5.0454D-01 2.2813D+00
 Trust test= 8.14D-01 RLast= 7.60D-01 DXMaxT set to 5.05D-01
 The second derivative matrix:
                          R1        R2        R3        R4        R5
           R1           0.90641
           R2           0.05858   0.37861
           R3          -0.15559   0.13412   0.97471
           R4          -0.00883   0.00908   0.09306   0.52058
           R5           0.01426   0.00086   0.02510   0.05787   0.51836
           R6           0.01570  -0.01017  -0.03583  -0.00808  -0.00368
           A1           0.10454  -0.02506  -0.22174  -0.00914  -0.01625
           A2           0.08521  -0.06641  -0.14907  -0.03267  -0.00799
           A3          -0.18970   0.09145   0.37070   0.04179   0.02424
           A4           0.03163   0.00563  -0.04939   0.01279  -0.03984
           A5          -0.06188   0.03070   0.12379  -0.02421   0.01912
           A6           0.03001  -0.03624  -0.07389   0.01150   0.02073
           A7          -0.15376   0.06786   0.43415   0.05720   0.00845
           D1          -0.01956   0.00742   0.05101   0.00941   0.00103
           D2          -0.01482   0.00650   0.03713   0.00574   0.00047
           D3           0.01428  -0.00716  -0.03463  -0.00383  -0.00114
           D4           0.01903  -0.00808  -0.04850  -0.00750  -0.00170
           D5          -0.01911   0.00928   0.02912   0.00954   0.00109
           D6          -0.05384   0.02425   0.11698   0.02313   0.00332
                          R6        A1        A2        A3        A4
           R6           0.52991
           A1           0.01465   0.20517
           A2           0.01589  -0.02511   0.23520
           A3          -0.03053  -0.18002  -0.21006   0.39000
           A4           0.00286   0.02332   0.00456  -0.02787   0.13905
           A5          -0.00976  -0.04571  -0.03813   0.08382  -0.05816
           A6           0.00684   0.02221   0.03342  -0.05561  -0.08093
           A7          -0.00747  -0.13337  -0.10814   0.24142  -0.02822
           D1          -0.00449  -0.01746  -0.01518   0.03263  -0.00541
           D2          -0.00352  -0.01215  -0.01109   0.02323  -0.00332
           D3           0.00449   0.01192   0.01089  -0.02281   0.00121
           D4           0.00546   0.01723   0.01498  -0.03220   0.00330
           D5          -0.00132  -0.01007  -0.01573   0.02581  -0.00397
           D6          -0.01053  -0.04018  -0.04252   0.08270  -0.01076
                          A5        A6        A7        D1        D2
           A5           0.15748
           A6          -0.09920   0.18006
           A7           0.07958  -0.05097   0.44433
           D1           0.01226  -0.00681   0.03468   0.02284
           D2           0.00784  -0.00448   0.02544   0.01527   0.01568
           D3          -0.00618   0.00493  -0.02275  -0.01011  -0.00810
           D4          -0.01060   0.00727  -0.03199  -0.01768  -0.00769
           D5           0.00797  -0.00404   0.02794  -0.00993  -0.00654
           D6           0.02690  -0.01608   0.08688   0.02383   0.01740
                          D3        D4        D5        D6
           D3           0.01397
           D4           0.01598   0.02597
           D5           0.00738   0.01078   0.01472
           D6          -0.01729  -0.02371  -0.00303   0.03910
 ITU=  1  0
 Use linear search instead of GDIIS.
     Eigenvalues ---    0.00360   0.00573   0.01402   0.07144   0.17063
     Eigenvalues ---    0.18566   0.20491   0.24175   0.26890   0.37753
     Eigenvalues ---    0.47218   0.52876   0.56963   0.84244   1.75465
 RFO step:  Lambda=-2.26591023D-04 EMin= 3.60128493D-03
 Quartic linear search produced a step of  0.39041.
 Iteration  1 RMS(Cart)=  0.06559705 RMS(Int)=  0.02499754
 Iteration  2 RMS(Cart)=  0.02176660 RMS(Int)=  0.00148353
 Iteration  3 RMS(Cart)=  0.00089596 RMS(Int)=  0.00114439
 Iteration  4 RMS(Cart)=  0.00000116 RMS(Int)=  0.00114439
 Iteration  5 RMS(Cart)=  0.00000000 RMS(Int)=  0.00114439
 ITry= 1 IFail=0 DXMaxC= 2.29D-01 DCOld= 1.00D+10 DXMaxT= 5.05D-01 DXLimC= 3.00D+00 Rises=F
 Variable       Old X    -DE/DX   Delta X   Delta X   Delta X     New X
                                 (Linear)    (Quad)   (Total)
    R1        2.26627   0.00091  -0.00500   0.00091  -0.00409   2.26218
    R2        2.72073   0.00023   0.00380   0.00058   0.00438   2.72511
    R3        2.55530   0.00063   0.00456   0.00123   0.00579   2.56109
    R4        2.47684   0.00009   0.00783   0.00197   0.00979   2.48663
    R5        2.44459   0.00016  -0.00199  -0.00005  -0.00204   2.44255
    R6        1.81857   0.00058  -0.00231   0.00153  -0.00078   1.81779
    A1        2.12984   0.00007  -0.00775  -0.00019  -0.00821   2.12162
    A2        2.14788  -0.00060  -0.01448  -0.00449  -0.01922   2.12866
    A3        2.00391   0.00055   0.02162   0.00479   0.02615   2.03006
    A4        2.14801  -0.00001  -0.00820  -0.00389  -0.01493   2.13309
    A5        2.14868   0.00007   0.00922  -0.00032   0.00607   2.15475
    A6        1.98369  -0.00013  -0.00210  -0.00265  -0.00764   1.97605
    A7        1.95338   0.00019   0.03476   0.00060   0.03535   1.98874
    D1        3.13020  -0.00074  -0.00489  -0.06482  -0.06940   3.06080
    D2        0.07405   0.00039   0.02962   0.03990   0.06934   0.14339
    D3       -0.06971  -0.00041  -0.02775  -0.06297  -0.09053  -0.16024
    D4       -3.12586   0.00071   0.00677   0.04176   0.04821  -3.07765
    D5       -2.64943  -0.00342  -0.21640  -0.06591  -0.28217  -2.93159
    D6        0.55117  -0.00378  -0.19328  -0.06795  -0.26137   0.28980
         Item               Value     Threshold  Converged?
 Maximum Force            0.003776     0.000450     NO 
 RMS     Force            0.001251     0.000300     NO 
 Maximum Displacement     0.228584     0.001800     NO 
 RMS     Displacement     0.084684     0.001200     NO 
 Predicted change in Energy=-1.821503D-03
 Lowest energy point so far.  Saving SCF results.
 GradGradGradGradGradGradGradGradGradGradGradGradGradGradGradGradGradGrad

 Leave Link  103 at Sun May 25 03:35:20 2025, MaxMem=  3758096384 cpu:               0.1 elap:               0.0
 (Enter /apps/easybuild-2022/easybuild/software/Compiler/NVHPC/22.11-CUDA-11.7.0/Gaussian/g16c01-CUDA-11.7.0/g16/l202.exe)
                          Input orientation:                          
 ---------------------------------------------------------------------
 Center     Atomic      Atomic             Coordinates (Angstroms)
 Number     Number       Type             X           Y           Z
 ---------------------------------------------------------------------
      1          6           0        1.450364   -0.037891    0.071290
      2          8           0        2.076666   -1.049790   -0.058484
      3          6           0        0.011903   -0.022389   -0.029416
      4          9           0       -0.695645    1.063365    0.198680
      5          9           0       -0.708435   -1.092620   -0.109276
      6          8           0        2.054887    1.165372    0.224488
      7          1           0        1.459645    1.869146    0.499631
 ---------------------------------------------------------------------
                    Distance matrix (angstroms):
                    1          2          3          4          5
     1  C    0.000000
     2  O    1.197094   0.000000
     3  C    1.442066   2.306435   0.000000
     4  F    2.415440   3.495321   1.315870   0.000000
     5  F    2.409455   2.785893   1.292539   2.177905   0.000000
     6  O    1.355271   2.233269   2.376769   2.752544   3.584114
     7  H    1.954572   3.035192   2.440031   2.320588   3.720671
                    6          7
     6  O    0.000000
     7  H    0.961932   0.000000
 Symmetry turned off by external request.
 Stoichiometry    C2HF2O2
 Rotational constants (GHZ):           5.7180003           3.4315940           2.1464092
 Leave Link  202 at Sun May 25 03:35:20 2025, MaxMem=  3758096384 cpu:               0.0 elap:               0.0
 (Enter /apps/easybuild-2022/easybuild/software/Compiler/NVHPC/22.11-CUDA-11.7.0/Gaussian/g16c01-CUDA-11.7.0/g16/l301.exe)
 Standard basis: def2TZVPP (5D, 7F)
 Ernie: Thresh=  0.10000D-02 Tol=  0.10000D-05 Strict=F.
   200 basis functions,   323 primitive gaussians,   231 cartesian basis functions
    24 alpha electrons       23 beta electrons
       nuclear repulsion energy       238.3341385588 Hartrees.
 IExCor= 4336 DFT=T Ex+Corr=M062X ExCW=0 ScaHFX=  0.540000
 ScaDFX=  1.000000  1.000000  1.000000  1.000000 ScalE2=  1.000000  1.000000
 IRadAn=      5 IRanWt=     -1 IRanGd=            0 ICorTp=0 IEmpDi=  4
 NAtoms=    7 NActive=    7 NUniq=    7 SFac= 1.00D+00 NAtFMM=   60 NAOKFM=F Big=F
 Integral buffers will be    131072 words long.
 Raffenetti 2 integral format.
[...]
               21 
     21  0.145352D-01
 FormGI is forming the generalized inverse of G from B-inverse, IUseBI=4.
 Force constants in internal coordinates: 
                1             2             3             4             5 
      1  0.892507D+00
      2  0.788714D-01  0.326724D+00
      3  0.738411D-01  0.418073D-01  0.433565D+00
      4  0.170575D-01  0.320178D-02  0.189300D-01  0.464198D+00
      5  0.158245D-01 -0.358622D-03  0.709508D-02  0.582692D-01  0.518804D+00
      6 -0.247357D-02 -0.468901D-02  0.457156D-02 -0.495231D-02 -0.162387D-02
      7  0.293299D-01  0.150889D-02 -0.500597D-01  0.134438D-01 -0.922214D-02
      8  0.222828D-01 -0.381559D-01  0.273981D-01 -0.144736D-01 -0.331913D-02
      9 -0.515496D-01  0.368976D-01  0.227563D-01  0.104667D-02  0.125378D-01
     10  0.130113D-01  0.227067D-01 -0.108382D-01  0.302900D-01 -0.346513D-01
     11 -0.182198D-01  0.212153D-01  0.891614D-02 -0.406792D-01  0.164729D-01
     12 -0.281240D-03 -0.268773D-01 -0.958097D-03  0.158891D-01  0.224708D-01
     13  0.868200D-02  0.655502D-02  0.474226D-01  0.879772D-02 -0.445232D-02
     14 -0.780421D-02  0.151420D-01 -0.541167D-02  0.842358D-02  0.778217D-02
     15  0.582069D-02 -0.200887D-01  0.200404D-02 -0.945069D-02 -0.862338D-02
     16 -0.592031D-02  0.195687D-01 -0.237815D-02  0.833747D-02  0.765151D-02
     17  0.770459D-02 -0.156620D-01  0.503756D-02 -0.953679D-02 -0.875404D-02
     18  0.512376D-03  0.350493D-02  0.661871D-04  0.177765D-03 -0.348913D-03
     19 -0.158634D-02 -0.226945D-02 -0.532995D-03 -0.631221D-03 -0.354698D-04
                6             7             8             9            10 
      6  0.534227D+00
      7  0.243752D-02  0.153423D+00
      8  0.759582D-02 -0.829699D-01  0.185754D+00
      9 -0.100364D-01 -0.703952D-01 -0.102912D+00  0.173465D+00
     10 -0.321931D-02  0.113249D-01 -0.790154D-02 -0.338489D-02  0.146817D+00
     11 -0.269383D-03 -0.107603D-01 -0.387953D-02  0.146426D-01 -0.494808D-01
     12  0.349942D-02 -0.464928D-03  0.104536D-01 -0.100729D-01 -0.907598D-01
     13  0.192141D-01 -0.176741D-01  0.165775D-01  0.110606D-02 -0.993384D-03
     14  0.521924D-03  0.165095D-02 -0.161026D-02 -0.105774D-02 -0.315908D-02
     15 -0.411269D-03  0.149055D-02 -0.103720D-02 -0.134191D-02  0.387440D-02
     16  0.656132D-03  0.000000D+00  0.108495D-02 -0.169890D-03 -0.257989D-02
     17 -0.277061D-03 -0.160860D-03  0.165802D-02 -0.454064D-03  0.445358D-02
     18 -0.143844D-03  0.309334D-02 -0.351173D-02  0.153265D-02  0.106434D-02
     19 -0.107708D-03 -0.277269D-02  0.244693D-02 -0.520192D-03 -0.136096D-03
               11            12            13            14            15 
     11  0.136267D+00
     12 -0.805385D-01  0.161414D+00
     13 -0.497371D-03  0.752690D-03  0.180214D+00
     14 -0.411548D-02  0.100110D-01 -0.120276D-02  0.183552D-01
     15  0.166861D-02 -0.751587D-02  0.430525D-03  0.896754D-02  0.158088D-01
     16 -0.412136D-02  0.845770D-02 -0.467197D-03 -0.397640D-02 -0.105327D-01
     17  0.166273D-02 -0.906914D-02  0.116609D-02 -0.133640D-01 -0.369136D-02
     18 -0.433786D-03 -0.786434D-03  0.225301D-03 -0.122414D-01 -0.116528D-01
     19 -0.216572D-03  0.114164D-02  0.579024D-03  0.102467D-01  0.799471D-02
               16            17            18            19 
     16  0.160896D-01
     17  0.953334D-02  0.192060D-01
     18  0.120588D-01  0.126474D-01  0.190695D-01
     19 -0.820642D-02 -0.104584D-01 -0.572708D-02  0.131091D-01
 Leave Link  716 at Sun May 25 03:39:05 2025, MaxMem=  3758096384 cpu:               0.1 elap:               0.0
 (Enter /apps/easybuild-2022/easybuild/software/Compiler/NVHPC/22.11-CUDA-11.7.0/Gaussian/g16c01-CUDA-11.7.0/g16/l103.exe)

 GradGradGradGradGradGradGradGradGradGradGradGradGradGradGradGradGradGrad
 Berny optimization.
 Red2BG is reusing G-inverse.
 Internal  Forces:  Max     0.000012699 RMS     0.000004494
 Search for a local minimum.
 Step number   1 out of a maximum of    2
 All quantities printed in internal units (Hartrees-Bohrs-Radians)
 Second derivative matrix not updated -- analytic derivatives used.
 The second derivative matrix:
                          R1        R2        R3        R4        R5
           R1           0.89251
           R2           0.07887   0.32672
           R3           0.07384   0.04181   0.43356
           R4           0.01706   0.00320   0.01893   0.46420
           R5           0.01582  -0.00036   0.00710   0.05827   0.51880
           R6          -0.00247  -0.00469   0.00457  -0.00495  -0.00162
           A1           0.02933   0.00151  -0.05006   0.01344  -0.00922
           A2           0.02228  -0.03816   0.02740  -0.01447  -0.00332
           A3          -0.05155   0.03690   0.02276   0.00105   0.01254
           A4           0.01301   0.02271  -0.01084   0.03029  -0.03465
           A5          -0.01822   0.02122   0.00892  -0.04068   0.01647
           A6          -0.00028  -0.02688  -0.00096   0.01589   0.02247
           A7           0.00868   0.00656   0.04742   0.00880  -0.00445
           D1          -0.00780   0.01514  -0.00541   0.00842   0.00778
           D2           0.00582  -0.02009   0.00200  -0.00945  -0.00862
           D3          -0.00592   0.01957  -0.00238   0.00834   0.00765
           D4           0.00770  -0.01566   0.00504  -0.00954  -0.00875
           D5           0.00051   0.00350   0.00007   0.00018  -0.00035
           D6          -0.00159  -0.00227  -0.00053  -0.00063  -0.00004
                          R6        A1        A2        A3        A4
           R6           0.53423
           A1           0.00244   0.15342
           A2           0.00760  -0.08297   0.18575
           A3          -0.01004  -0.07040  -0.10291   0.17347
           A4          -0.00322   0.01132  -0.00790  -0.00338   0.14682
           A5          -0.00027  -0.01076  -0.00388   0.01464  -0.04948
           A6           0.00350  -0.00046   0.01045  -0.01007  -0.09076
           A7           0.01921  -0.01767   0.01658   0.00111  -0.00099
           D1           0.00052   0.00165  -0.00161  -0.00106  -0.00316
           D2          -0.00041   0.00149  -0.00104  -0.00134   0.00387
           D3           0.00066  -0.00000   0.00108  -0.00017  -0.00258
           D4          -0.00028  -0.00016   0.00166  -0.00045   0.00445
           D5          -0.00014   0.00309  -0.00351   0.00153   0.00106
           D6          -0.00011  -0.00277   0.00245  -0.00052  -0.00014
                          A5        A6        A7        D1        D2
           A5           0.13627
           A6          -0.08054   0.16141
           A7          -0.00050   0.00075   0.18021
           D1          -0.00412   0.01001  -0.00120   0.01836
           D2           0.00167  -0.00752   0.00043   0.00897   0.01581
           D3          -0.00412   0.00846  -0.00047  -0.00398  -0.01053
           D4           0.00166  -0.00907   0.00117  -0.01336  -0.00369
           D5          -0.00043  -0.00079   0.00023  -0.01224  -0.01165
           D6          -0.00022   0.00114   0.00058   0.01025   0.00799
                          D3        D4        D5        D6
           D3           0.01609
           D4           0.00953   0.01921
           D5           0.01206   0.01265   0.01907
           D6          -0.00821  -0.01046  -0.00573   0.01311
 ITU=  0
     Eigenvalues ---    0.00724   0.01063   0.01080   0.06467   0.16615
     Eigenvalues ---    0.17126   0.20645   0.23226   0.24392   0.37090
     Eigenvalues ---    0.44462   0.45918   0.53644   0.56152   0.92296
 Angle between quadratic step and forces=  70.19 degrees.
 Linear search not attempted -- first point.
 Iteration  1 RMS(Cart)=  0.00008411 RMS(Int)=  0.00000001
 Iteration  2 RMS(Cart)=  0.00000001 RMS(Int)=  0.00000001
 ITry= 1 IFail=0 DXMaxC= 2.04D-04 DCOld= 1.00D+10 DXMaxT= 3.00D-01 DXLimC= 3.00D+00 Rises=F
 Variable       Old X    -DE/DX   Delta X   Delta X   Delta X     New X
                                 (Linear)    (Quad)   (Total)
    R1        2.25916  -0.00000   0.00000  -0.00001  -0.00001   2.25915
    R2        2.75787  -0.00001   0.00000   0.00001   0.00001   2.75788
    R3        2.54066  -0.00000   0.00000  -0.00001  -0.00001   2.54065
    R4        2.49057  -0.00001   0.00000  -0.00001  -0.00001   2.49056
    R5        2.44932  -0.00000   0.00000   0.00000   0.00000   2.44932
    R6        1.82066   0.00000   0.00000   0.00000   0.00000   1.82066
    A1        2.12893   0.00000   0.00000   0.00001   0.00001   2.12894
    A2        2.14714   0.00000   0.00000   0.00000   0.00000   2.14714
    A3        2.00598  -0.00000   0.00000  -0.00001  -0.00001   2.00598
    A4        2.10520  -0.00000   0.00000  -0.00006  -0.00006   2.10514
    A5        2.11474   0.00000   0.00000  -0.00005  -0.00005   2.11469
    A6        1.97319  -0.00000   0.00000  -0.00004  -0.00004   1.97315
    A7        1.95143   0.00000   0.00000   0.00001   0.00001   1.95144
    D1        2.92085  -0.00000   0.00000  -0.00016  -0.00016   2.92069
    D2        0.25320   0.00000   0.00000   0.00021   0.00021   0.25341
    D3       -0.27046  -0.00000   0.00000  -0.00017  -0.00017  -0.27063
    D4       -2.93811   0.00000   0.00000   0.00020   0.00020  -2.93791
    D5       -3.10261  -0.00000   0.00000  -0.00018  -0.00018  -3.10279
    D6        0.08928  -0.00000   0.00000  -0.00017  -0.00017   0.08911
         Item               Value     Threshold  Converged?
 Maximum Force            0.000013     0.000450     YES
 RMS     Force            0.000004     0.000300     YES
 Maximum Displacement     0.000204     0.001800     YES
 RMS     Displacement     0.000084     0.001200     YES
 Predicted change in Energy=-1.514270D-09
 Optimization completed.
    -- Stationary point found.
                           ----------------------------
                           !   Optimized Parameters   !
                           ! (Angstroms and Degrees)  !
 --------------------------                            --------------------------
 ! Name  Definition              Value          Derivative Info.                !
 --------------------------------------------------------------------------------
 ! R1    R(1,2)                  1.1955         -DE/DX =    0.0                 !
 ! R2    R(1,3)                  1.4594         -DE/DX =    0.0                 !
 ! R3    R(1,6)                  1.3445         -DE/DX =    0.0                 !
 ! R4    R(3,4)                  1.318          -DE/DX =    0.0                 !
 ! R5    R(3,5)                  1.2961         -DE/DX =    0.0                 !
 ! R6    R(6,7)                  0.9635         -DE/DX =    0.0                 !
 ! A1    A(2,1,3)              121.9788         -DE/DX =    0.0                 !
 ! A2    A(2,1,6)              123.0219         -DE/DX =    0.0                 !
 ! A3    A(3,1,6)              114.9344         -DE/DX =    0.0                 !
 ! A4    A(1,3,4)              120.619          -DE/DX =    0.0                 !
 ! A5    A(1,3,5)              121.1657         -DE/DX =    0.0                 !
 ! A6    A(4,3,5)              113.0553         -DE/DX =    0.0                 !
 ! A7    A(1,6,7)              111.8088         -DE/DX =    0.0                 !
 ! D1    D(2,1,3,4)            167.3523         -DE/DX =    0.0                 !
 ! D2    D(2,1,3,5)             14.5072         -DE/DX =    0.0                 !
 ! D3    D(6,1,3,4)            -15.4963         -DE/DX =    0.0                 !
 ! D4    D(6,1,3,5)           -168.3413         -DE/DX =    0.0                 !
 ! D5    D(2,1,6,7)           -177.7664         -DE/DX =    0.0                 !
 ! D6    D(3,1,6,7)              5.1155         -DE/DX =    0.0                 !
 --------------------------------------------------------------------------------
 GradGradGradGradGradGradGradGradGradGradGradGradGradGradGradGradGradGrad

 Leave Link  103 at Sun May 25 03:39:05 2025, MaxMem=  3758096384 cpu:               0.1 elap:               0.0
 (Enter /apps/easybuild-2022/easybuild/software/Compiler/NVHPC/22.11-CUDA-11.7.0/Gaussian/g16c01-CUDA-11.7.0/g16/l9999.exe)

 ----------------------------------------------------------------------

 Electric dipole moment (input orientation):
 (Debye = 10**-18 statcoulomb cm , SI units = C m)
                  (au)            (Debye)         (10**-30 SI)
   Tot        0.132980D+01      0.338001D+01      0.112745D+02
   x         -0.829070D+00     -0.210729D+01     -0.702915D+01
   y          0.103469D+01      0.262992D+01      0.877246D+01
   z          0.102112D+00      0.259542D+00      0.865739D+00

 Dipole polarizability, Alpha (input orientation).
 (esu units = cm**3 , SI units = C**2 m**2 J**-1)
 Alpha(0;0):
               (au)            (10**-24 esu)      (10**-40 SI)
   iso        0.314379D+02      0.465862D+01      0.518342D+01
   aniso      0.165697D+02      0.245537D+01      0.273197D+01
   xx         0.364828D+02      0.540619D+01      0.601520D+01
   yx        -0.254712D+01     -0.377445D+00     -0.419964D+00
   yy         0.366231D+02      0.542699D+01      0.603834D+01
   zx         0.914283D+00      0.135483D+00      0.150745D+00
   zy         0.238719D+01      0.353745D+00      0.393595D+00
   zz         0.212079D+02      0.314268D+01      0.349671D+01

 ----------------------------------------------------------------------

 Dipole orientation:
     6          1.81339328          1.11238720         -1.77813061
     8          1.55188930          0.97142439         -4.01766866
     6         -0.09041493          0.16371176         -0.02273814
     9          0.43128038         -0.08901995          2.39942833
     9         -1.88117676         -1.32648535         -0.77881645
     8          3.80713655          2.24659064         -0.68563680
     1          3.74228273          2.12694595          1.12993238

 Electric dipole moment (dipole orientation):
 (Debye = 10**-18 statcoulomb cm , SI units = C m)
                  (au)            (Debye)         (10**-30 SI)
   Tot        0.132980D+01      0.338001D+01      0.112745D+02
   x          0.000000D+00      0.000000D+00      0.000000D+00
   y          0.000000D+00      0.000000D+00      0.000000D+00
   z          0.132980D+01      0.338001D+01      0.112745D+02

 Dipole polarizability, Alpha (dipole orientation).
 (esu units = cm**3 , SI units = C**2 m**2 J**-1)
 Alpha(0;0):
               (au)            (10**-24 esu)      (10**-40 SI)
   iso        0.314379D+02      0.465862D+01      0.518342D+01
   aniso      0.165697D+02      0.245537D+01      0.273197D+01
   xx         0.311769D+02      0.461994D+01      0.514038D+01
   yx         0.582497D+01      0.863172D+00      0.960408D+00
   yy         0.239903D+02      0.355499D+01      0.395546D+01
   zx        -0.303032D+00     -0.449047D-01     -0.499632D-01
   zy        -0.127069D+00     -0.188296D-01     -0.209508D-01
   zz         0.391466D+02      0.580093D+01      0.645440D+01

 ----------------------------------------------------------------------
 Unable to Open any file for archive entry.
 1\1\GINC-SPARTAN-BM154\Freq\UM062X\def2TZVPP\C2H1F2O2\AKHALILOV\25-May
 -2025\0\\#P Geom=AllCheck Guess=TCheck SCRF=Check GenChk UM062X/def2TZ
 VPP Freq\\Gaussian input prepared by ASE\\0,2\C,1.4650369947,-0.042133
 2211,0.0680025938\O,2.0818673567,-1.0592411476,-0.0512336334\C,0.01595
 57328,0.0070078364,-0.0981604558\F,-0.6669973323,1.0701388431,0.276439
 0773\F,-0.6954150805,-1.0764251195,-0.1061116335\O,2.049189832,1.14573
 83384,0.3031684649\H,1.399746747,1.8501068021,0.4048087085\\Version=ES
 64L-G16RevC.01\HF=-426.9213723\S2=0.759038\S2-1=0.\S2A=0.750046\RMSD=1
 .270e-09\RMSF=4.771e-06\ZeroPoint=0.0344293\Thermal=0.0402067\ETot=-42
 6.8811656\HTot=-426.8802214\GTot=-426.9172767\Dipole=-0.8290703,1.0346
 892,0.1021117\DipoleDeriv=1.423854,0.1408466,0.2381674,-0.0581541,1.73
 99804,0.1998795,0.126253,0.2155148,0.4172568,-0.7929122,0.3081723,-0.0
 093094,0.333696,-0.9509059,-0.0323601,0.039298,-0.0725958,-0.361235,0.
 8465997,-0.0364901,-0.2008007,0.1256227,1.4371188,0.2418139,-0.5677344
 ,0.2563794,0.1593983,-0.6217099,0.3385995,0.0939584,0.3657033,-0.71190
 1,-0.1370108,0.2994797,-0.2486204,-0.1052721,-0.6125862,-0.3560198,-0.
 0250346,-0.4945457,-0.6674891,-0.0938413,0.1549246,0.0034942,-0.040696
 4,-0.4891242,-0.430418,-0.0943327,-0.3129896,-1.2322411,-0.1899514,-0.
 0503245,-0.1605952,-0.4108302,0.2458789,0.0353095,-0.0026484,0.0406676
 ,0.3854379,0.0114702,-0.0018964,0.0064231,0.3413786\Polar=36.4827989,-
 2.5471229,36.6231349,0.9142833,2.3871916,21.2078765\PG=Unknown\NImag=0
 \\0.67769290,-0.18527980,0.91270028,-0.01096234,0.11284265,0.18927460,
 -0.29210842,0.30381577,0.03416695,0.31223455,0.27610320,-0.55581221,-0
 .06440344,-0.35083317,0.66938966,0.03075031,-0.05740562,-0.07816603,-0
 .03378859,0.07628002,0.04251420,-0.23639915,-0.03675576,-0.01984398,-0
 .03648111,0.04796877,0.00070547,0.70689338,-0.01669681,-0.04608750,-0.
 00131137,0.04908658,-0.03019168,-0.00198965,0.05460227,0.64586970,0.04
 372665,-0.01254803,-0.04121193,-0.01157793,0.01851882,0.01855451,-0.08
 205382,0.09938511,0.05619471,0.00707020,0.03623864,0.01637351,-0.01634
 984,0.00687347,-0.00171149,-0.19468238,0.12907879,0.05821579,0.1845334
 4,-0.01865973,-0.02033496,-0.00734274,0.01113046,-0.00360008,-0.000720
 91,0.15896319,-0.24090098,-0.07425281,-0.16302694,0.32723448,-0.026612
 66,-0.00006326,-0.00491837,0.00628103,-0.00717818,0.00254450,0.0845068
 8,-0.08710998,-0.03361667,-0.06184147,0.09641057,0.03731945,-0.0023579
 4,-0.04029527,0.00053600,-0.00091282,0.00338243,-0.00018738,-0.2161022
 7,-0.16870176,0.01048154,0.02672892,0.00488480,-0.00752084,0.20449183,
 0.02032168,-0.01941470,-0.00043318,-0.00650061,0.01552017,0.00244126,-
 0.20718380,-0.30547125,-0.01028511,-0.00529801,-0.07613110,-0.01078006
 ,0.20321850,0.38719639,-0.02026125,-0.00134770,-0.00321350,0.00474502,
 -0.00547538,-0.00202957,0.02604743,0.00237427,-0.00694782,-0.00951360,
 -0.01684563,-0.00179958,-0.00175969,0.01914181,0.00994159,-0.17318950,
 -0.06570090,-0.01964967,0.03487327,0.02324880,0.00550326,-0.02271124,-
 0.03698114,-0.01355017,-0.00236596,0.00214782,0.00271821,-0.01150474,-
 0.00561157,-0.00006899,0.44900352,-0.10563008,-0.24080627,-0.03682092,
 -0.00137122,-0.09063281,-0.01637719,-0.01421873,-0.02071565,-0.0208311
 4,-0.00594087,0.01291298,0.00865386,-0.00500323,-0.00335469,0.00236535
 ,-0.12722639,0.62718387,-0.02401942,-0.03617899,-0.05441921,0.00170381
 ,-0.01641408,0.01102205,-0.00753511,-0.01068447,0.00619957,-0.00180120
 ,0.00252148,0.00095851,-0.00235933,-0.00044391,0.00446882,-0.00219792,
 0.10341092,0.04444011,0.01929190,-0.01202267,-0.00062047,-0.00125563,-
 0.00674350,-0.00127159,-0.00051723,-0.01038792,-0.00524207,-0.00493439
 ,0.00456040,0.00246885,-0.00034298,0.00105380,0.00081107,-0.27410535,0
 .25939052,0.03620918,0.26186368,0.02984153,-0.03024463,-0.00253099,-0.
 00532780,-0.00467304,-0.00222792,-0.00337594,-0.00250263,0.00001317,0.
 00207492,0.00081967,0.00006705,0.00251453,0.00165519,-0.00021272,0.210
 12338,-0.28458743,-0.04221095,-0.23585062,0.31953288,0.00737871,-0.005
 29905,-0.00734555,-0.00153029,-0.00132776,0.00556034,-0.00182688,-0.00
 066391,0.00082764,0.00027846,0.00023003,-0.00048783,0.00080969,0.00035
 919,-0.00041995,0.02724527,-0.04040088,-0.01266985,-0.03235497,0.04710
 237,0.01453520\\0.00001116,-0.00000151,-0.00000091,-0.00000002,-0.0000
 0046,0.00000456,-0.00000803,-0.00000618,0.00000332,-0.00000486,0.00001
 085,-0.00000119,0.00000032,-0.00000593,-0.00000068,0.00000159,0.000004
 01,-0.00000413,-0.00000017,-0.00000078,-0.00000096\\\@
 The archive entry for this job was punched.


 IF IT'S NOT TRUE, IT'S WELL INVENTED -- DANTE
 Job cpu time:       0 days  0 hours  9 minutes 37.8 seconds.
 Elapsed time:       0 days  0 hours  1 minutes 14.4 seconds.
 File lengths (MBytes):  RWF=     59 Int=      0 D2E=      0 Chk=      5 Scr=      1
 Normal termination of Gaussian 16 at Sun May 25 03:39:05 2025.
done
