6
energy = -450.91226209000007
C 1.55231900 -0.00505000 0.00002300
O 2.21482900 -0.95930200 0.00326300
C -0.01382900 -0.01229400 -0.00016000
F -0.44140500 0.62527000 1.07829300
F -0.44122700 0.62021600 -1.08164400
F -0.50750500 -1.24078800 0.00266100
