 Entering Gaussian System, Link 0=g16
 Initial command:
 /apps/easybuild-2022/easybuild/software/Compiler/NVHPC/22.11-CUDA-11.7.0/Gaussian/g16c01-CUDA-11.7.0/g16/l1.exe "/tmp/Gau-77923.inp" -scrdir="/tmp/"
 Entering Link 1 = /apps/easybuild-2022/easybuild/software/Compiler/NVHPC/22.11-CUDA-11.7.0/Gaussian/g16c01-CUDA-11.7.0/g16/l1.exe PID=     77924.
  
 Copyright (c) 1988-2019, Gaussian, Inc.  All Rights Reserved.
  
 This is part of the Gaussian(R) 16 program.  It is based on
 the Gaussian(R) 09 system (copyright 2009, Gaussian, Inc.),
 the Gaussian(R) 03 system (copyright 2003, Gaussian, Inc.),
 the Gaussian(R) 98 system (copyright 1998, Gaussian, Inc.),
 the Gaussian(R) 94 system (copyright 1995, Gaussian, Inc.),
 the Gaussian 92(TM) system (copyright 1992, Gaussian, Inc.),
 the Gaussian 90(TM) system (copyright 1990, Gaussian, Inc.),
 the Gaussian 88(TM) system (copyright 1988, Gaussian, Inc.),
 the Gaussian 86(TM) system (copyright 1986, Carnegie Mellon
 University), and the Gaussian 82(TM) system (copyright 1983,
 Carnegie Mellon University). Gaussian is a federally registered
 trademark of Gaussian, Inc.
  
 This software contains proprietary and confidential information,
 including trade secrets, belonging to Gaussian, Inc.
  
 This software is provided under written license and may be
 used, copied, transmitted, or stored only in accord with that
 written license.
  
 The following legend is applicable only to US Government
 contracts under FAR:
  
                    RESTRICTED RIGHTS LEGEND
  
 Use, reproduction and disclosure by the US Government is
 subject to restrictions as set forth in subparagraphs (a)
 and (c) of the Commercial Computer Software - Restricted
 Rights clause in FAR 52.227-19.
  
 Gaussian, Inc.
 340 Quinnipiac St., Bldg. 40, Wallingford CT 06492
  
  
 ---------------------------------------------------------------
 Warning -- This program may not be used in any manner that
 competes with the business of Gaussian, Inc. or will provide
 assistance to any competitor of Gaussian, Inc.  The licensee
 of this program is prohibited from giving any competitor of
 Gaussian, Inc. access to this program.  By using this program,
 the user acknowledges that Gaussian, Inc. is engaged in the
 business of creating and licensing software in the field of
 computational chemistry and represents and warrants to the
 licensee that it is not a competitor of Gaussian, Inc. and that
 it will not use this program in any manner prohibited above.
 ---------------------------------------------------------------
  

 Cite this work as:
 Gaussian 16, Revision C.01,
 M. J. Frisch, G. W. Trucks, H. B. Schlegel, G. E. Scuseria, 
 M. A. Robb, J. R. Cheeseman, G. Scalmani, V. Barone, 
 G. A. Petersson, H. Nakatsuji, X. Li, M. Caricato, A. V. Marenich, 
 J. Bloino, B. G. Janesko, R. Gomperts, B. Mennucci, H. P. Hratchian, 
 J. V. Ortiz, A. F. Izmaylov, J. L. Sonnenberg, D. Williams-Young, 
 F. Ding, F. Lipparini, F. Egidi, J. Goings, B. Peng, A. Petrone, 
 T. Henderson, D. Ranasinghe, V. G. Zakrzewski, J. Gao, N. Rega, 
 G. Zheng, W. Liang, M. Hada, M. Ehara, K. Toyota, R. Fukuda, 
 J. Hasegawa, M. Ishida, T. Nakajima, Y. Honda, O. Kitao, H. Nakai, 
 T. Vreven, K. Throssell, J. A. Montgomery, Jr., J. E. Peralta, 
 F. Ogliaro, M. J. Bearpark, J. J. Heyd, E. N. Brothers, K. N. Kudin, 
 V. N. Staroverov, T. A. Keith, R. Kobayashi, J. Normand, 
 K. Raghavachari, A. P. Rendell, J. C. Burant, S. S. Iyengar, 
 J. Tomasi, M. Cossi, J. M. Millam, M. Klene, C. Adamo, R. Cammi, 
 J. W. Ochterski, R. L. Martin, K. Morokuma, O. Farkas, 
 J. B. Foresman, and D. J. Fox, Gaussian, Inc., Wallingford CT, 2019.
 
 ******************************************
 Gaussian 16:  ES64L-G16RevC.01  3-Jul-2019
                25-May-2025 
 ******************************************
 %mem=28GB
 %chk=1141903082400600000001_r12_insertion_R_8_7_1_IRC_F_prod
 %nprocshared=8
 Will use up to    8 processors via shared memory.
 -----------------------------------------------------------------
 #P M062X/Def2TZVPP Symm(None) scf(xqc) pop(None) freq opt(CalcFC)
 -----------------------------------------------------------------
 1/10=4,18=20,19=15,26=3,38=1/1,3;
 2/9=110,12=2,15=3,17=6,18=5,40=1/2;
 3/5=44,7=202,11=2,25=1,30=1,71=2,74=-55,140=1/1,2,3;
 4//1;
 5/5=2,8=3,13=1,38=5/2,8;
 8/6=4,10=90,11=11/1;
 11/6=1,8=1,9=11,15=111,16=1,31=1/1,2,10;
 10/6=1,13=1,31=1/2;
 7/10=1,25=1,30=1/1,2,3,16;
 1/10=4,18=20,19=15,26=3/3(2);
 2/9=110,15=3/2;
 99//99;
 2/9=110,15=3/2;
 3/5=44,7=202,11=2,25=1,30=1,71=1,74=-55/1,2,3;
 4/5=5,16=3,69=1/1;
 5/5=2,8=3,13=1,38=5/2,8;
 7/30=1/1,2,3,16;
 1/18=20,19=15,26=3/3(-5);
 2/9=110,15=3/2;
 99/9=1/99;
 Leave Link    1 at Sun May 25 04:13:27 2025, MaxMem=  3758096384 cpu:               0.0 elap:               0.0
 (Enter /apps/easybuild-2022/easybuild/software/Compiler/NVHPC/22.11-CUDA-11.7.0/Gaussian/g16c01-CUDA-11.7.0/g16/l101.exe)
 ------------------------------
 Gaussian input prepared by ASE
 ------------------------------
 Symbolic Z-matrix:
 Charge =  0 Multiplicity = 1
 C                     0.96881   0.22664   0.0456 
 O                     1.68022  -0.14822  -1.0072 
 C                    -0.55951  -0.09875  -0.00178 
 F                    -1.22764   0.87206   0.60379 
 F                    -1.03557  -0.23325  -1.23206 
 F                    -0.78176  -1.23394   0.65898 
 O                     1.46605   0.75304   0.98803 
 H                     2.59331   0.09701  -0.79641 
 
 ITRead=  0  0  0  0  0  0  0  0
 MicOpt= -1 -1 -1 -1 -1 -1 -1 -1
 NAtoms=      8 NQM=        8 NQMF=       0 NMMI=      0 NMMIF=      0
                NMic=       0 NMicF=      0.
                    Isotopes and Nuclear Properties:
 (Nuclear quadrupole moments (NQMom) in fm**2, nuclear magnetic moments (NMagM)
  in nuclear magnetons)

  Atom         1           2           3           4           5           6           7           8
 IAtWgt=          12          16          12          19          19          19          16           1
 AtmWgt=  12.0000000  15.9949146  12.0000000  18.9984032  18.9984032  18.9984032  15.9949146   1.0078250
 NucSpn=           0           0           0           1           1           1           0           1
 AtZEff=  -0.0000000  -0.0000000  -0.0000000  -0.0000000  -0.0000000  -0.0000000  -0.0000000  -0.0000000
 NQMom=    0.0000000   0.0000000   0.0000000   0.0000000   0.0000000   0.0000000   0.0000000   0.0000000
 NMagM=    0.0000000   0.0000000   0.0000000   2.6288670   2.6288670   2.6288670   0.0000000   2.7928460
 AtZNuc=   6.0000000   8.0000000   6.0000000   9.0000000   9.0000000   9.0000000   8.0000000   1.0000000
 Leave Link  101 at Sun May 25 04:13:27 2025, MaxMem=  3758096384 cpu:               0.2 elap:               0.2
 (Enter /apps/easybuild-2022/easybuild/software/Compiler/NVHPC/22.11-CUDA-11.7.0/Gaussian/g16c01-CUDA-11.7.0/g16/l103.exe)

 GradGradGradGradGradGradGradGradGradGradGradGradGradGradGradGradGradGrad
 Berny optimization.
 Initialization pass.
                           ----------------------------
                           !    Initial Parameters    !
                           ! (Angstroms and Degrees)  !
 --------------------------                            --------------------------
 ! Name  Definition              Value          Derivative Info.                !
 --------------------------------------------------------------------------------
 ! R1    R(1,2)                  1.3248         calculate D2E/DX2 analytically  !
 ! R2    R(1,3)                  1.5633         calculate D2E/DX2 analytically  !
 ! R3    R(1,7)                  1.1885         calculate D2E/DX2 analytically  !
 ! R4    R(2,8)                  0.9687         calculate D2E/DX2 analytically  !
 ! R5    R(3,4)                  1.325          calculate D2E/DX2 analytically  !
 ! R6    R(3,5)                  1.326          calculate D2E/DX2 analytically  !
 ! R7    R(3,6)                  1.3322         calculate D2E/DX2 analytically  !
 ! A1    A(2,1,3)              116.2323         calculate D2E/DX2 analytically  !
 ! A2    A(2,1,7)              122.0612         calculate D2E/DX2 analytically  !
 ! A3    A(3,1,7)              121.6845         calculate D2E/DX2 analytically  !
 ! A4    A(1,2,8)              105.1666         calculate D2E/DX2 analytically  !
 ! A5    A(1,3,4)              109.0639         calculate D2E/DX2 analytically  !
 ! A6    A(1,3,5)              113.5921         calculate D2E/DX2 analytically  !
 ! A7    A(1,3,6)              108.9919         calculate D2E/DX2 analytically  !
 ! A8    A(4,3,5)              108.5009         calculate D2E/DX2 analytically  !
 ! A9    A(4,3,6)              108.2729         calculate D2E/DX2 analytically  !
 ! A10   A(5,3,6)              108.2918         calculate D2E/DX2 analytically  !
 ! D1    D(3,1,2,8)           -177.9112         calculate D2E/DX2 analytically  !
 ! D2    D(7,1,2,8)              0.4093         calculate D2E/DX2 analytically  !
 ! D3    D(2,1,3,4)           -145.2914         calculate D2E/DX2 analytically  !
 ! D4    D(2,1,3,5)            -24.1418         calculate D2E/DX2 analytically  !
 ! D5    D(2,1,3,6)             96.6891         calculate D2E/DX2 analytically  !
 ! D6    D(7,1,3,4)             36.3812         calculate D2E/DX2 analytically  !
 ! D7    D(7,1,3,5)            157.5308         calculate D2E/DX2 analytically  !
 ! D8    D(7,1,3,6)            -81.6383         calculate D2E/DX2 analytically  !
 --------------------------------------------------------------------------------
 Trust Radius=3.00D-01 FncErr=1.00D-07 GrdErr=1.00D-06 EigMax=2.50D+02 EigMin=1.00D-04
 Number of steps in this run=     35 maximum allowed number of steps=    100.
 GradGradGradGradGradGradGradGradGradGradGradGradGradGradGradGradGradGrad

 Leave Link  103 at Sun May 25 04:13:27 2025, MaxMem=  3758096384 cpu:               0.0 elap:               0.0
 (Enter /apps/easybuild-2022/easybuild/software/Compiler/NVHPC/22.11-CUDA-11.7.0/Gaussian/g16c01-CUDA-11.7.0/g16/l202.exe)
                          Input orientation:                          
 ---------------------------------------------------------------------
 Center     Atomic      Atomic             Coordinates (Angstroms)
 Number     Number       Type             X           Y           Z
 ---------------------------------------------------------------------
      1          6           0        0.968810    0.226639    0.045602
      2          8           0        1.680218   -0.148215   -1.007199
      3          6           0       -0.559506   -0.098746   -0.001778
      4          9           0       -1.227638    0.872056    0.603787
      5          9           0       -1.035574   -0.233248   -1.232056
      6          9           0       -0.781755   -1.233944    0.658976
      7          8           0        1.466049    0.753041    0.988027
      8          1           0        2.593306    0.097007   -0.796405
 ---------------------------------------------------------------------
                    Distance matrix (angstroms):
                    1          2          3          4          5
     1  C    0.000000
     2  O    1.324767   0.000000
     3  C    1.563288   2.455541   0.000000
     4  F    2.356378   3.477335   1.324978   0.000000
     5  F    2.421045   2.726411   1.326015   2.151489   0.000000
     6  F    2.360934   3.164847   1.332166   2.153391   2.154488
     7  O    1.188491   2.199786   2.410006   2.723556   3.487069
     8  H    1.834330   0.968658   3.257296   4.142566   3.669827
                    6          7          8
     6  F    0.000000
     7  O    3.018113   0.000000
     8  H    3.909041   2.210268   0.000000
 Symmetry turned off by external request.
 Stoichiometry    C2HF3O2
 Rotational constants (GHZ):           3.9641606           2.4108296           2.0299070
 Leave Link  202 at Sun May 25 04:13:27 2025, MaxMem=  3758096384 cpu:               0.0 elap:               0.0
 (Enter /apps/easybuild-2022/easybuild/software/Compiler/NVHPC/22.11-CUDA-11.7.0/Gaussian/g16c01-CUDA-11.7.0/g16/l301.exe)
 Standard basis: def2TZVPP (5D, 7F)
 Ernie: Thresh=  0.10000D-02 Tol=  0.10000D-05 Strict=F.
   231 basis functions,   374 primitive gaussians,   267 cartesian basis functions
    28 alpha electrons       28 beta electrons
       nuclear repulsion energy       336.5016903353 Hartrees.
 IExCor= 4336 DFT=T Ex+Corr=M062X ExCW=0 ScaHFX=  0.540000
 ScaDFX=  1.000000  1.000000  1.000000  1.000000 ScalE2=  1.000000  1.000000
 IRadAn=      5 IRanWt=     -1 IRanGd=            0 ICorTp=0 IEmpDi=  4
 NAtoms=    8 NActive=    8 NUniq=    8 SFac= 1.00D+00 NAtFMM=   60 NAOKFM=F Big=F
 Integral buffers will be    131072 words long.
 Raffenetti 2 integral format.
 Two-electron integral symmetry is turned off.
 Leave Link  301 at Sun May 25 04:13:27 2025, MaxMem=  3758096384 cpu:               0.1 elap:               0.0
 (Enter /apps/easybuild-2022/easybuild/software/Compiler/NVHPC/22.11-CUDA-11.7.0/Gaussian/g16c01-CUDA-11.7.0/g16/l302.exe)
 NPDir=0 NMtPBC=     1 NCelOv=     1 NCel=       1 NClECP=     1 NCelD=      1
         NCelK=      1 NCelE2=     1 NClLst=     1 CellRange=     0.0.
 One-electron integrals computed using PRISM.
   1 Symmetry operations used in ECPInt.
 ECPInt:  NShTT=    3486 NPrTT=   11183 LenC2=    3398 LenP2D=    8673.
 LDataN:  DoStor=T MaxTD1= 6 Len=  172
 NBasis=   231 RedAO= T EigKep=  5.95D-04  NBF=   231
 NBsUse=   231 1.00D-06 EigRej= -1.00D+00 NBFU=   231
 Precomputing XC quadrature grid using
 IXCGrd= 4 IRadAn=           5 IRanWt=          -1 IRanGd=           0 AccXCQ= 0.00D+00.
 Generated NRdTot=       0 NPtTot=           0 NUsed=           0 NTot=          32
 NSgBfM=   266   266   266   266   266 MxSgAt=     8 MxSgA2=     8.
 Leave Link  302 at Sun May 25 04:13:27 2025, MaxMem=  3758096384 cpu:               0.5 elap:               0.1
 (Enter /apps/easybuild-2022/easybuild/software/Compiler/NVHPC/22.11-CUDA-11.7.0/Gaussian/g16c01-CUDA-11.7.0/g16/l303.exe)
 DipDrv:  MaxL=1.
 Leave Link  303 at Sun May 25 04:13:27 2025, MaxMem=  3758096384 cpu:               0.0 elap:               0.0
 (Enter /apps/easybuild-2022/easybuild/software/Compiler/NVHPC/22.11-CUDA-11.7.0/Gaussian/g16c01-CUDA-11.7.0/g16/l401.exe)
 ExpMin= 9.52D-02 ExpMax= 3.55D+04 ExpMxC= 1.21D+03 IAcc=3 IRadAn=         5 AccDes= 0.00D+00
 Harris functional with IExCor= 1009 and IRadAn=       5 diagonalized for initial guess.
 HarFok:  IExCor= 1009 AccDes= 0.00D+00 IRadAn=         5 IDoV= 1 UseB2=F ITyADJ=14
 ICtDFT=  3500011 ScaDFX=  1.000000  1.000000  1.000000  1.000000
 FoFCou: FMM=F IPFlag=           0 FMFlag=      100000 FMFlg1=           0
         NFxFlg=           0 DoJE=T BraDBF=F KetDBF=T FulRan=T
         wScrn=  0.000000 ICntrl=       500 IOpCl=  0 I1Cent=   200000004 NGrid=           0
         NMat0=    1 NMatS0=      1 NMatT0=    0 NMatD0=    1 NMtDS0=    0 NMtDT0=    0
 Symmetry not used in FoFCou.
 Harris En= -526.547334218185    
 JPrj=0 DoOrth=F DoCkMO=F.
 Leave Link  401 at Sun May 25 04:13:28 2025, MaxMem=  3758096384 cpu:               2.1 elap:               0.3
 (Enter /apps/easybuild-2022/easybuild/software/Compiler/NVHPC/22.11-CUDA-11.7.0/Gaussian/g16c01-CUDA-11.7.0/g16/l502.exe)
 Keep R1 ints in memory in canonical form, NReq=368651279.
 FoFCou: FMM=F IPFlag=           0 FMFlag=           0 FMFlg1=           0
         NFxFlg=           0 DoJE=F BraDBF=F KetDBF=F FulRan=T
         wScrn=  0.000000 ICntrl=       600 IOpCl=  0 I1Cent=           0 NGrid=           0
         NMat0=    1 NMatS0=  26796 NMatT0=    0 NMatD0=    1 NMtDS0=    0 NMtDT0=    0
 Symmetry not used in FoFCou.
 Two-electron integral symmetry not used.
 Closed shell SCF:
 Using DIIS extrapolation, IDIIS=  1040.
 NGot=  3758096384 LenX=  3398923531 LenY=  3398851801
 Requested convergence on RMS density matrix=1.00D-08 within  32 cycles.
 Requested convergence on MAX density matrix=1.00D-06.
 Requested convergence on             energy=1.00D-06.
 No special actions if energy rises.
 Integral accuracy reduced to 1.0D-05 until final iterations.

 Cycle   1  Pass 0  IDiag  1:
 E= -526.701151776616    
 DIIS: error= 2.56D-02 at cycle   1 NSaved=   1.
 NSaved= 1 IEnMin= 1 EnMin= -526.701151776616     IErMin= 1 ErrMin= 2.56D-02
 ErrMax= 2.56D-02  0.00D+00 EMaxC= 1.00D-01 BMatC= 2.85D-01 BMatP= 2.85D-01
 IDIUse=3 WtCom= 7.44D-01 WtEn= 2.56D-01
 Coeff-Com:  0.100D+01
 Coeff-En:   0.100D+01
 Coeff:      0.100D+01
 Gap=     0.362 Goal=   None    Shift=    0.000
 GapD=    0.362 DampG=1.000 DampE=0.500 DampFc=0.5000 IDamp=-1.
 Damping current iteration by 5.00D-01
 RMSDP=2.31D-03 MaxDP=9.04D-02              OVMax= 2.04D-01

 Cycle   2  Pass 0  IDiag  1:
 E= -526.758080284766     Delta-E=       -0.056928508150 Rises=F Damp=T
 DIIS: error= 7.62D-03 at cycle   2 NSaved=   2.
 NSaved= 2 IEnMin= 2 EnMin= -526.758080284766     IErMin= 2 ErrMin= 7.62D-03
 ErrMax= 7.62D-03  0.00D+00 EMaxC= 1.00D-01 BMatC= 2.99D-02 BMatP= 2.85D-01
 IDIUse=3 WtCom= 9.24D-01 WtEn= 7.62D-02
 Coeff-Com:  0.679D-01 0.932D+00
 Coeff-En:   0.216D+00 0.784D+00
 Coeff:      0.791D-01 0.921D+00
 Gap=     0.416 Goal=   None    Shift=    0.000
 RMSDP=6.54D-04 MaxDP=1.79D-02 DE=-5.69D-02 OVMax= 1.18D-01

 Cycle   3  Pass 0  IDiag  1:
 E= -526.842585535290     Delta-E=       -0.084505250524 Rises=F Damp=F
 DIIS: error= 8.37D-03 at cycle   3 NSaved=   3.
 NSaved= 3 IEnMin= 3 EnMin= -526.842585535290     IErMin= 2 ErrMin= 7.62D-03
 ErrMax= 8.37D-03  0.00D+00 EMaxC= 1.00D-01 BMatC= 9.78D-03 BMatP= 2.99D-02
 IDIUse=3 WtCom= 9.16D-01 WtEn= 8.37D-02
 Coeff-Com: -0.609D-01 0.327D+00 0.734D+00
 Coeff-En:   0.000D+00 0.000D+00 0.100D+01
 Coeff:     -0.558D-01 0.299D+00 0.756D+00
 Gap=     0.394 Goal=   None    Shift=    0.000
 RMSDP=3.31D-04 MaxDP=1.46D-02 DE=-8.45D-02 OVMax= 4.95D-02

 Cycle   4  Pass 0  IDiag  1:
 E= -526.846881212894     Delta-E=       -0.004295677603 Rises=F Damp=F
 DIIS: error= 4.44D-03 at cycle   4 NSaved=   4.
 NSaved= 4 IEnMin= 4 EnMin= -526.846881212894     IErMin= 4 ErrMin= 4.44D-03
 ErrMax= 4.44D-03  0.00D+00 EMaxC= 1.00D-01 BMatC= 4.23D-03 BMatP= 9.78D-03
 IDIUse=3 WtCom= 9.56D-01 WtEn= 4.44D-02
 Coeff-Com: -0.377D-01 0.749D-01 0.447D+00 0.516D+00
 Coeff-En:   0.000D+00 0.000D+00 0.292D+00 0.708D+00
 Coeff:     -0.361D-01 0.715D-01 0.440D+00 0.524D+00
 Gap=     0.401 Goal=   None    Shift=    0.000
 RMSDP=1.36D-04 MaxDP=5.93D-03 DE=-4.30D-03 OVMax= 1.78D-02

 Cycle   5  Pass 0  IDiag  1:
 E= -526.849622650556     Delta-E=       -0.002741437663 Rises=F Damp=F
 DIIS: error= 4.44D-04 at cycle   5 NSaved=   5.
 NSaved= 5 IEnMin= 5 EnMin= -526.849622650556     IErMin= 5 ErrMin= 4.44D-04
 ErrMax= 4.44D-04  0.00D+00 EMaxC= 1.00D-01 BMatC= 5.90D-05 BMatP= 4.23D-03
 IDIUse=3 WtCom= 9.96D-01 WtEn= 4.44D-03
 Coeff-Com: -0.108D-01 0.151D-01 0.144D+00 0.206D+00 0.646D+00
 Coeff-En:   0.000D+00 0.000D+00 0.000D+00 0.000D+00 0.100D+01
 Coeff:     -0.108D-01 0.150D-01 0.144D+00 0.205D+00 0.647D+00
 Gap=     0.402 Goal=   None    Shift=    0.000
 RMSDP=2.23D-05 MaxDP=8.22D-04 DE=-2.74D-03 OVMax= 2.52D-03

 Cycle   6  Pass 0  IDiag  1:
 E= -526.849669703682     Delta-E=       -0.000047053126 Rises=F Damp=F
 DIIS: error= 9.18D-05 at cycle   6 NSaved=   6.
 NSaved= 6 IEnMin= 6 EnMin= -526.849669703682     IErMin= 6 ErrMin= 9.18D-05
 ErrMax= 9.18D-05  0.00D+00 EMaxC= 1.00D-01 BMatC= 2.71D-06 BMatP= 5.90D-05
 IDIUse=1 WtCom= 1.00D+00 WtEn= 0.00D+00
 Coeff-Com:  0.994D-03-0.315D-02-0.105D-01-0.131D-01 0.125D+00 0.901D+00
 Coeff:      0.994D-03-0.315D-02-0.105D-01-0.131D-01 0.125D+00 0.901D+00
 Gap=     0.402 Goal=   None    Shift=    0.000
 RMSDP=8.23D-06 MaxDP=2.20D-04 DE=-4.71D-05 OVMax= 6.73D-04

 Initial convergence to 1.0D-05 achieved.  Increase integral accuracy.
 Cycle   7  Pass 1  IDiag  1:
 E= -526.849676234410     Delta-E=       -0.000006530729 Rises=F Damp=F
 DIIS: error= 2.27D-05 at cycle   1 NSaved=   1.
 NSaved= 1 IEnMin= 1 EnMin= -526.849676234410     IErMin= 1 ErrMin= 2.27D-05
 ErrMax= 2.27D-05  0.00D+00 EMaxC= 1.00D-01 BMatC= 5.01D-07 BMatP= 5.01D-07
 IDIUse=1 WtCom= 1.00D+00 WtEn= 0.00D+00
 Coeff-Com:  0.100D+01
 Coeff:      0.100D+01
 Gap=     0.402 Goal=   None    Shift=    0.000
 RMSDP=8.23D-06 MaxDP=2.20D-04 DE=-6.53D-06 OVMax= 2.55D-04

 Cycle   8  Pass 1  IDiag  1:
 E= -526.849676623737     Delta-E=       -0.000000389326 Rises=F Damp=F
 DIIS: error= 3.32D-05 at cycle   2 NSaved=   2.
 NSaved= 2 IEnMin= 2 EnMin= -526.849676623737     IErMin= 1 ErrMin= 2.27D-05
 ErrMax= 3.32D-05  0.00D+00 EMaxC= 1.00D-01 BMatC= 1.45D-07 BMatP= 5.01D-07
 IDIUse=1 WtCom= 1.00D+00 WtEn= 0.00D+00
 Coeff-Com:  0.288D+00 0.712D+00
 Coeff:      0.288D+00 0.712D+00
 Gap=     0.402 Goal=   None    Shift=    0.000
 RMSDP=1.48D-06 MaxDP=6.77D-05 DE=-3.89D-07 OVMax= 2.31D-04

 Cycle   9  Pass 1  IDiag  1:
 E= -526.849676702332     Delta-E=       -0.000000078595 Rises=F Damp=F
 DIIS: error= 1.65D-05 at cycle   3 NSaved=   3.
 NSaved= 3 IEnMin= 3 EnMin= -526.849676702332     IErMin= 3 ErrMin= 1.65D-05
 ErrMax= 1.65D-05  0.00D+00 EMaxC= 1.00D-01 BMatC= 7.75D-08 BMatP= 1.45D-07
 IDIUse=1 WtCom= 1.00D+00 WtEn= 0.00D+00
 Coeff-Com: -0.132D-01 0.413D+00 0.600D+00
 Coeff:     -0.132D-01 0.413D+00 0.600D+00
 Gap=     0.402 Goal=   None    Shift=    0.000
 RMSDP=8.82D-07 MaxDP=3.25D-05 DE=-7.86D-08 OVMax= 7.73D-05

 Cycle  10  Pass 1  IDiag  1:
 E= -526.849676754038     Delta-E=       -0.000000051706 Rises=F Damp=F
 DIIS: error= 5.98D-06 at cycle   4 NSaved=   4.
 NSaved= 4 IEnMin= 4 EnMin= -526.849676754038     IErMin= 4 ErrMin= 5.98D-06
 ErrMax= 5.98D-06  0.00D+00 EMaxC= 1.00D-01 BMatC= 4.63D-09 BMatP= 7.75D-08
 IDIUse=1 WtCom= 1.00D+00 WtEn= 0.00D+00
 Coeff-Com: -0.347D-01 0.123D+00 0.248D+00 0.664D+00
 Coeff:     -0.347D-01 0.123D+00 0.248D+00 0.664D+00
 Gap=     0.402 Goal=   None    Shift=    0.000
 RMSDP=2.44D-07 MaxDP=1.06D-05 DE=-5.17D-08 OVMax= 4.09D-05

 Cycle  11  Pass 1  IDiag  1:
 E= -526.849676758670     Delta-E=       -0.000000004632 Rises=F Damp=F
 DIIS: error= 1.15D-06 at cycle   5 NSaved=   5.
 NSaved= 5 IEnMin= 5 EnMin= -526.849676758670     IErMin= 5 ErrMin= 1.15D-06
 ErrMax= 1.15D-06  0.00D+00 EMaxC= 1.00D-01 BMatC= 6.14D-10 BMatP= 4.63D-09
 IDIUse=1 WtCom= 1.00D+00 WtEn= 0.00D+00
 Coeff-Com: -0.315D-02-0.344D-01-0.787D-01 0.140D+00 0.976D+00
 Coeff:     -0.315D-02-0.344D-01-0.787D-01 0.140D+00 0.976D+00
 Gap=     0.402 Goal=   None    Shift=    0.000
 RMSDP=1.40D-07 MaxDP=4.78D-06 DE=-4.63D-09 OVMax= 1.33D-05

 Cycle  12  Pass 1  IDiag  1:
 E= -526.849676759384     Delta-E=       -0.000000000714 Rises=F Damp=F
 DIIS: error= 6.44D-07 at cycle   6 NSaved=   6.
 NSaved= 6 IEnMin= 6 EnMin= -526.849676759384     IErMin= 6 ErrMin= 6.44D-07
 ErrMax= 6.44D-07  0.00D+00 EMaxC= 1.00D-01 BMatC= 1.17D-10 BMatP= 6.14D-10
 IDIUse=1 WtCom= 1.00D+00 WtEn= 0.00D+00
 Coeff-Com:  0.216D-02-0.319D-01-0.734D-01-0.128D-03 0.477D+00 0.626D+00
 Coeff:      0.216D-02-0.319D-01-0.734D-01-0.128D-03 0.477D+00 0.626D+00
 Gap=     0.402 Goal=   None    Shift=    0.000
 RMSDP=3.45D-08 MaxDP=1.01D-06 DE=-7.14D-10 OVMax= 3.95D-06

 Cycle  13  Pass 1  IDiag  1:
 E= -526.849676759486     Delta-E=       -0.000000000102 Rises=F Damp=F
 DIIS: error= 7.59D-08 at cycle   7 NSaved=   7.
 NSaved= 7 IEnMin= 7 EnMin= -526.849676759486     IErMin= 7 ErrMin= 7.59D-08
 ErrMax= 7.59D-08  0.00D+00 EMaxC= 1.00D-01 BMatC= 2.60D-12 BMatP= 1.17D-10
 IDIUse=1 WtCom= 1.00D+00 WtEn= 0.00D+00
 Coeff-Com:  0.800D-03-0.499D-02-0.129D-01-0.828D-02 0.384D-01 0.135D+00
 Coeff-Com:  0.852D+00
 Coeff:      0.800D-03-0.499D-02-0.129D-01-0.828D-02 0.384D-01 0.135D+00
 Coeff:      0.852D+00
 Gap=     0.402 Goal=   None    Shift=    0.000
 RMSDP=9.33D-09 MaxDP=2.58D-07 DE=-1.02D-10 OVMax= 8.00D-07

 SCF Done:  E(RM062X) =  -526.849676759     A.U. after   13 cycles
            NFock= 13  Conv=0.93D-08     -V/T= 2.0037
 KE= 5.249052281331D+02 PE=-1.921087951081D+03 EE= 5.328313558529D+02
 Leave Link  502 at Sun May 25 04:13:36 2025, MaxMem=  3758096384 cpu:              44.0 elap:               8.5
 (Enter /apps/easybuild-2022/easybuild/software/Compiler/NVHPC/22.11-CUDA-11.7.0/Gaussian/g16c01-CUDA-11.7.0/g16/l508.exe)
 QCSCF skips out because SCF is already converged.
 Leave Link  508 at Sun May 25 04:13:36 2025, MaxMem=  3758096384 cpu:               0.0 elap:               0.0
 (Enter /apps/easybuild-2022/easybuild/software/Compiler/NVHPC/22.11-CUDA-11.7.0/Gaussian/g16c01-CUDA-11.7.0/g16/l801.exe)
 DoSCS=F DFT=T ScalE2(SS,OS)=  1.000000  1.000000
 Range of M.O.s used for correlation:     1   231
 NBasis=   231 NAE=    28 NBE=    28 NFC=     0 NFV=     0
 NROrb=    231 NOA=    28 NOB=    28 NVA=   203 NVB=   203

 **** Warning!!: The largest alpha MO coefficient is  0.12090988D+02

 Leave Link  801 at Sun May 25 04:13:36 2025, MaxMem=  3758096384 cpu:               0.0 elap:               0.0
 (Enter /apps/easybuild-2022/easybuild/software/Compiler/NVHPC/22.11-CUDA-11.7.0/Gaussian/g16c01-CUDA-11.7.0/g16/l1101.exe)
 Using compressed storage, NAtomX=     8.
 Will process      9 centers per pass.
   1 Symmetry operations used in ECPInt.
 ECPInt:  NShTT=    3486 NPrTT=   11183 LenC2=    3398 LenP2D=    8673.
 LDataN:  DoStor=T MaxTD1= 7 Len=  274
 Leave Link 1101 at Sun May 25 04:13:36 2025, MaxMem=  3758096384 cpu:               0.6 elap:               0.1
 (Enter /apps/easybuild-2022/easybuild/software/Compiler/NVHPC/22.11-CUDA-11.7.0/Gaussian/g16c01-CUDA-11.7.0/g16/l1102.exe)
 Symmetrizing basis deriv contribution to polar:
 IMax=3 JMax=2 DiffMx= 0.00D+00
 Leave Link 1102 at Sun May 25 04:13:36 2025, MaxMem=  3758096384 cpu:               0.0 elap:               0.0
 (Enter /apps/easybuild-2022/easybuild/software/Compiler/NVHPC/22.11-CUDA-11.7.0/Gaussian/g16c01-CUDA-11.7.0/g16/l1110.exe)
 Forming Gx(P) for the SCF density, NAtomX=     8.
 Integral derivatives from FoFJK, PRISM(SPDF).
 Do as many integral derivatives as possible in FoFJK.
 G2DrvN: MDV=    3758095424.
 G2DrvN: will do     9 centers at a time, making    1 passes.
 Calling FoFCou, ICntrl=  3107 FMM=F I1Cent=   0 AccDes= 0.00D+00.
 FoFJK:  IHMeth= 1 ICntrl=    3107 DoSepK=F KAlg= 0 I1Cent=           0 FoldK=F
 IRaf=         0 NMat=       1 IRICut=       1 DoRegI=T DoRafI=F ISym2E= 0 IDoP0=0 IntGTp=1.
 FoFCou: FMM=F IPFlag=           0 FMFlag=      100000 FMFlg1=           0
         NFxFlg=           0 DoJE=F BraDBF=F KetDBF=F FulRan=T
         wScrn=  0.000000 ICntrl=      3107 IOpCl=  0 I1Cent=           0 NGrid=           0
         NMat0=    1 NMatS0=      1 NMatT0=    0 NMatD0=    1 NMtDS0=    0 NMtDT0=    0
 Symmetry not used in FoFCou.
 End of G2Drv F.D. properties file   721 does not exist.
 End of G2Drv F.D. properties file   722 does not exist.
 End of G2Drv F.D. properties file   788 does not exist.
 Leave Link 1110 at Sun May 25 04:13:51 2025, MaxMem=  3758096384 cpu:             113.1 elap:              14.3
 (Enter /apps/easybuild-2022/easybuild/software/Compiler/NVHPC/22.11-CUDA-11.7.0/Gaussian/g16c01-CUDA-11.7.0/g16/l1002.exe)
 Minotr:  Closed shell wavefunction.
          IDoAtm=11111111
          Direct CPHF calculation.
          Differentiating once with respect to nuclear coordinates.
          Requested convergence is 1.0D-08 RMS, and 1.0D-07 maximum.
          Secondary convergence is 1.0D-12 RMS, and 1.0D-12 maximum.
          NewPWx=T KeepS1=F KeepF1=F KeepIn=T MapXYZ=F SortEE=F KeepMc=T.
         2392 words used for storage of precomputed grid.
 Keep R1 ints in memory in canonical form, NReq=368655240.
 FoFCou: FMM=F IPFlag=           0 FMFlag=           0 FMFlg1=           0
         NFxFlg=           0 DoJE=F BraDBF=F KetDBF=F FulRan=T
         wScrn=  0.000000 ICntrl=       600 IOpCl=  0 I1Cent=           0 NGrid=           0
         NMat0=    1 NMatS0=  26796 NMatT0=    0 NMatD0=    1 NMtDS0=    0 NMtDT0=    0
 Symmetry not used in FoFCou.
 Two-electron integral symmetry not used.
          MDV=    3758096384 using IRadAn=       1.
          Solving linear equations simultaneously, MaxMat=       0.
          There are    27 degrees of freedom in the 1st order CPHF.  IDoFFX=6 NUNeed=     0.
     21 vectors produced by pass  0 Test12= 2.11D-14 3.70D-09 XBig12= 1.25D-01 7.23D-02.
 AX will form    21 AO Fock derivatives at one time.
     21 vectors produced by pass  1 Test12= 2.11D-14 3.70D-09 XBig12= 1.66D-02 5.05D-02.
     21 vectors produced by pass  2 Test12= 2.11D-14 3.70D-09 XBig12= 9.13D-04 7.36D-03.
     21 vectors produced by pass  3 Test12= 2.11D-14 3.70D-09 XBig12= 1.53D-05 8.68D-04.
     21 vectors produced by pass  4 Test12= 2.11D-14 3.70D-09 XBig12= 1.78D-07 7.18D-05.
     21 vectors produced by pass  5 Test12= 2.11D-14 3.70D-09 XBig12= 1.66D-09 8.83D-06.
     21 vectors produced by pass  6 Test12= 2.11D-14 3.70D-09 XBig12= 1.06D-11 5.57D-07.
     10 vectors produced by pass  7 Test12= 2.11D-14 3.70D-09 XBig12= 6.52D-14 4.15D-08.
 InvSVY:  IOpt=1 It=  1 EMax= 1.78D-15
 Solved reduced A of dimension   157 with    21 vectors.
 End of Minotr F.D. properties file   721 does not exist.
 End of Minotr F.D. properties file   722 does not exist.
 End of Minotr F.D. properties file   788 does not exist.
 Leave Link 1002 at Sun May 25 04:14:07 2025, MaxMem=  3758096384 cpu:             133.2 elap:              17.0
 (Enter /apps/easybuild-2022/easybuild/software/Compiler/NVHPC/22.11-CUDA-11.7.0/Gaussian/g16c01-CUDA-11.7.0/g16/l701.exe)
 ... and contract with generalized density number  0.
 Compute integral second derivatives.
   1 Symmetry operations used in ECPInt.
 ECPInt:  NShTT=    3486 NPrTT=   11183 LenC2=    3398 LenP2D=    8673.
 LDataN:  DoStor=T MaxTD1= 8 Len=  415
 Leave Link  701 at Sun May 25 04:14:08 2025, MaxMem=  3758096384 cpu:               0.6 elap:               0.1
 (Enter /apps/easybuild-2022/easybuild/software/Compiler/NVHPC/22.11-CUDA-11.7.0/Gaussian/g16c01-CUDA-11.7.0/g16/l702.exe)
 L702 exits ... SP integral derivatives will be done elsewhere.
 Leave Link  702 at Sun May 25 04:14:08 2025, MaxMem=  3758096384 cpu:               0.0 elap:               0.0
 (Enter /apps/easybuild-2022/easybuild/software/Compiler/NVHPC/22.11-CUDA-11.7.0/Gaussian/g16c01-CUDA-11.7.0/g16/l703.exe)
 Integral derivatives from FoFJK, PRISM(SPDF).
 Compute integral second derivatives, UseDBF=F ICtDFT=           0.
 Calling FoFJK, ICntrl=    100127 FMM=F ISym2X=0 I1Cent= 0 IOpClX= 0 NMat=1 NMatS=1 NMatT=0.
 FoFJK:  IHMeth= 1 ICntrl=  100127 DoSepK=F KAlg= 0 I1Cent=           0 FoldK=F
 IRaf=         0 NMat=       1 IRICut=       1 DoRegI=T DoRafI=F ISym2E= 0 IDoP0=0 IntGTp=1.
 FoFCou: FMM=F IPFlag=           0 FMFlag=      100000 FMFlg1=         800
         NFxFlg=           0 DoJE=F BraDBF=F KetDBF=F FulRan=T
         wScrn=  0.000000 ICntrl=    100127 IOpCl=  0 I1Cent=           0 NGrid=           0
         NMat0=    1 NMatS0=      1 NMatT0=    0 NMatD0=    1 NMtDS0=    0 NMtDT0=    0
 Symmetry not used in FoFCou.
 Leave Link  703 at Sun May 25 04:14:44 2025, MaxMem=  3758096384 cpu:             291.9 elap:              36.8
 (Enter /apps/easybuild-2022/easybuild/software/Compiler/NVHPC/22.11-CUDA-11.7.0/Gaussian/g16c01-CUDA-11.7.0/g16/l716.exe)
 Dipole        = 6.55585908D-01-9.29158503D-02-5.08728314D-01
 Polarizability= 0.00000000D+00 0.00000000D+00 0.00000000D+00
                 0.00000000D+00 0.00000000D+00 0.00000000D+00
 -------------------------------------------------------------------
 Center     Atomic                   Forces (Hartrees/Bohr)
 Number     Number              X              Y              Z
 -------------------------------------------------------------------
      1        6           0.005028392    0.002093132    0.002602946
      2        8          -0.010039017   -0.005697571   -0.008229914
      3        6           0.004134863    0.000712021   -0.000238117
      4        9           0.002148303   -0.001030041   -0.001080633
      5        9           0.004345173    0.000453822    0.000077668
      6        9           0.002154375    0.000867952   -0.001195900
      7        8          -0.007831066    0.003905293    0.010619806
      8        1           0.000058978   -0.001304608   -0.002555856
 -------------------------------------------------------------------
 Cartesian Forces:  Max     0.010619806 RMS     0.004497379
 Force constants in Cartesian coordinates: 
                1             2             3             4             5 
      1  0.706797D+00
      2  0.135157D+00  0.402071D+00
      3  0.107455D+00  0.313697D+00  0.857256D+00
      4 -0.207943D+00  0.283745D-01  0.112070D+00  0.626450D+00
      5  0.172154D-01 -0.915753D-01 -0.623868D-01  0.806634D-01  0.129083D+00
      6  0.879145D-01 -0.660309D-01 -0.237531D+00 -0.298820D-01  0.162008D+00
      7 -0.185701D+00 -0.163690D-01  0.569432D-02 -0.213621D-02 -0.348759D-02
      8 -0.210731D-01 -0.731585D-01  0.114800D-01  0.146764D-01  0.730603D-02
      9  0.415752D-02  0.113157D-01 -0.518142D-01  0.285782D-01 -0.106716D-03
     10 -0.185863D-01  0.374971D-01  0.245257D-01 -0.121643D-01 -0.248489D-02
     11  0.389925D-02 -0.762269D-02 -0.137163D-01  0.367704D-02  0.152450D-02
     12  0.248195D-02 -0.159281D-01 -0.464837D-02  0.252453D-02  0.147257D-02
     13  0.433875D-02 -0.180242D-02 -0.386708D-01 -0.385289D-02  0.181248D-03
     14 -0.194781D-03  0.731335D-02 -0.106018D-01 -0.129605D-02 -0.249139D-03
     15  0.305141D-02 -0.324958D-02 -0.245866D-01 -0.309293D-02  0.121457D-02
     16  0.442881D-02 -0.349406D-01  0.204917D-01 -0.543891D-02  0.148425D-02
     17 -0.520321D-03 -0.225797D-01  0.189543D-01 -0.763207D-02  0.626599D-03
     18 -0.315902D-02  0.128686D-01 -0.395756D-02  0.171735D-02 -0.632022D-03
     19 -0.260942D+00 -0.144064D+00 -0.240331D+00  0.417153D-01  0.109553D-01
     20 -0.149292D+00 -0.224344D+00 -0.261012D+00  0.630831D-02  0.808804D-02
     21 -0.251338D+00 -0.262628D+00 -0.543888D+00  0.113182D-01 -0.594795D-01
     22 -0.423916D-01 -0.385275D-02  0.876462D-02 -0.436629D+00 -0.104527D+00
     23  0.148081D-01  0.989624D-02  0.358638D-02 -0.124771D+00 -0.548035D-01
     24  0.494356D-01  0.995555D-02  0.916991D-02 -0.123233D+00 -0.420905D-01
                6             7             8             9            10 
      6  0.397423D+00
      7 -0.247395D-02  0.600479D+00
      8 -0.707941D-02  0.343556D-02  0.555273D+00
      9 -0.569329D-02  0.143261D-02  0.223769D-01  0.587929D+00
     10 -0.959593D-05 -0.170825D+00  0.915200D-01  0.568978D-01  0.167141D+00
     11  0.196063D-02  0.960798D-01 -0.184773D+00 -0.712696D-01 -0.135995D+00
     12  0.167678D-02  0.671144D-01 -0.738712D-01 -0.123026D+00 -0.823679D-01
     13  0.367122D-02 -0.138362D+00 -0.133209D-01 -0.921366D-01  0.199960D-01
     14  0.158903D-02 -0.168969D-01 -0.777194D-01 -0.265540D-01 -0.328995D-02
     15  0.615192D-02 -0.100512D+00 -0.262156D-01 -0.262617D+00  0.427599D-02
     16  0.615303D-03 -0.105225D+00 -0.615428D-01  0.324032D-01  0.161088D-01
     17  0.979832D-03 -0.580469D-01 -0.235102D+00  0.895354D-01  0.160095D-01
     18  0.716463D-03  0.328911D-01  0.921368D-01 -0.126576D+00 -0.491080D-02
     19  0.202870D-01  0.169979D-02 -0.144071D-01 -0.338153D-01 -0.141335D-02
     20 -0.580502D-01 -0.435696D-02  0.396712D-02 -0.219713D-01 -0.335435D-02
     21 -0.970198D-01 -0.525437D-02 -0.147197D-01 -0.147476D-01 -0.281710D-03
     22 -0.801225D-01  0.710037D-04  0.711973D-03  0.248262D-02 -0.256796D-03
     23 -0.353774D-01 -0.358030D-03  0.420635D-02 -0.332647D-02  0.974059D-04
     24 -0.657233D-01  0.110765D-02 -0.410776D-02 -0.345494D-02  0.187042D-02
               11            12            13            14            15 
     11  0.280663D+00
     12  0.125431D+00  0.161781D+00
     13  0.444833D-02  0.176944D-01  0.114076D+00
     14 -0.111419D-01 -0.501868D-01  0.964943D-02  0.854777D-01
     15 -0.411519D-01 -0.584800D-01  0.117928D+00  0.351001D-01  0.400581D+00
     16  0.283052D-01 -0.822932D-02  0.169373D-01  0.148902D-01 -0.126033D-01
     17 -0.823704D-01  0.779360D-02  0.749381D-02 -0.193490D-02  0.363319D-01
     18 -0.464118D-02  0.187297D-01 -0.391221D-02  0.500474D-01 -0.622657D-01
     19 -0.695260D-03  0.519998D-03 -0.143663D-01 -0.289347D-02 -0.898337D-02
     20  0.424317D-02  0.502682D-02 -0.635127D-02 -0.136288D-02 -0.183520D-02
     21  0.385457D-02  0.434532D-02 -0.384238D-02  0.355398D-03  0.911603D-03
     22  0.280397D-03  0.261968D-03  0.123326D-02  0.314877D-04 -0.644170D-04
     23 -0.522653D-03  0.262058D-03 -0.298258D-03 -0.382822D-03 -0.194218D-03
     24 -0.467154D-03 -0.378504D-03 -0.732046D-03  0.250634D-03  0.304318D-03
               16            17            18            19            20 
     16  0.787822D-01
     17  0.485091D-01  0.338491D+00
     18 -0.281937D-01 -0.150062D+00  0.168286D+00
     19 -0.539646D-02 -0.527661D-02  0.548379D-02  0.234432D+00
     20  0.199099D-02  0.240919D-02  0.558720D-03  0.157973D+00  0.213495D+00
     21 -0.411051D-02 -0.392119D-02  0.487651D-02  0.263679D+00  0.336624D+00
     22 -0.196314D-03 -0.536525D-03  0.834585D-04  0.427135D-02 -0.291828D-02
     23  0.130356D-02  0.460117D-03 -0.276133D-03 -0.159208D-02 -0.649513D-02
     24 -0.373335D-03  0.388291D-03  0.189750D-03 -0.684017D-02  0.659602D-03
               21            22            23            24 
     21  0.648073D+00
     22 -0.101709D-01  0.473899D+00
     23 -0.855074D-04  0.110811D+00  0.476414D-01
     24 -0.255081D-02  0.787652D-01  0.354113D-01  0.624436D-01
 FormGI is forming the generalized inverse of G from B-inverse, IUseBI=4.
 Force constants in internal coordinates: 
                1             2             3             4             5 
      1  0.475599D+00
      2  0.118482D-01  0.243264D+00
      3  0.102159D+00  0.280232D-01  0.960370D+00
      4  0.125853D-01 -0.152121D-02 -0.905107D-02  0.516199D+00
      5  0.425611D-02  0.185562D-01  0.725082D-02  0.227348D-04  0.449441D+00
      6  0.812683D-02  0.153369D-01  0.798445D-02 -0.291875D-03  0.573006D-01
      7  0.586112D-02  0.199606D-01  0.757509D-02  0.264834D-03  0.575807D-01
      8  0.612722D-02  0.131578D-01 -0.539566D-01  0.578673D-02  0.162248D-01
      9  0.362851D-01 -0.229535D-01  0.517806D-01 -0.103316D-01 -0.576996D-02
     10 -0.424123D-01  0.975791D-02  0.217720D-02  0.454754D-02 -0.103898D-01
     11  0.456375D-01  0.185764D-02  0.563883D-02  0.295321D-01  0.284945D-02
     12  0.106187D-01  0.258215D-01 -0.778746D-02  0.114867D-04  0.130455D-01
     13 -0.193010D-02  0.100662D-01  0.189574D-01 -0.148391D-02 -0.318472D-01
     14  0.412388D-02  0.905118D-02  0.214601D-02  0.109720D-03 -0.270709D-01
     15 -0.472128D-02 -0.187201D-01 -0.439733D-02  0.823196D-03  0.262432D-01
     16 -0.418524D-02 -0.142034D-01 -0.415419D-02  0.171828D-03  0.245389D-01
     17 -0.423234D-02 -0.136246D-01 -0.569732D-02  0.435953D-03 -0.216169D-02
     18  0.621005D-04  0.124803D-02  0.207997D-03 -0.788985D-04 -0.140257D-02
     19 -0.697369D-03  0.125932D-04  0.189479D-03  0.115947D-03  0.922203D-03
     20  0.128615D-02 -0.391616D-03 -0.268796D-02 -0.194671D-04 -0.106596D-03
     21  0.159402D-02  0.951503D-03 -0.125502D-02  0.510169D-04  0.215822D-01
     22 -0.213880D-02 -0.331281D-02  0.554702D-02 -0.295914D-03 -0.215712D-01
     23  0.614386D-03  0.143448D-02 -0.357737D-02  0.574204D-04 -0.250361D-02
     24  0.922265D-03  0.277760D-02 -0.214444D-02  0.127904D-03  0.191852D-01
     25 -0.281055D-02 -0.148671D-02  0.465761D-02 -0.219027D-03 -0.239682D-01
                6             7             8             9            10 
      6  0.446280D+00
      7  0.569921D-01  0.434715D+00
      8 -0.883136D-02  0.635410D-02  0.137450D+00
      9 -0.894469D-02 -0.818253D-02 -0.997904D-01  0.204442D+00
     10  0.178221D-01  0.171164D-02 -0.376357D-01 -0.104672D+00  0.142320D+00
     11 -0.360096D-03  0.108760D-02  0.242726D-01 -0.273213D-01  0.305707D-02
     12 -0.318004D-01 -0.268208D-01  0.141217D-01 -0.810757D-02 -0.593108D-02
     13  0.928153D-02 -0.306483D-01 -0.793593D-02 -0.971624D-02  0.177325D-01
     14 -0.304552D-01  0.160325D-01  0.346787D-02 -0.280549D-02 -0.870861D-03
     15  0.286458D-01 -0.320423D-02 -0.321614D-02  0.841361D-02 -0.521383D-02
     16 -0.269042D-02  0.238048D-01 -0.487075D-02  0.607354D-02 -0.116907D-02
     17  0.271271D-01  0.236705D-01 -0.172542D-02  0.700547D-02 -0.525273D-02
     18 -0.136366D-02  0.279461D-02  0.174187D-03  0.118171D-02 -0.164072D-02
     19  0.700615D-03 -0.162029D-02  0.675938D-03 -0.170256D-02  0.133991D-02
     20 -0.185844D-01  0.206937D-01 -0.390838D-03  0.215694D-02 -0.151748D-02
     21  0.139032D-02 -0.231600D-01  0.351354D-03  0.601684D-03 -0.611977D-03
     22  0.203995D-01 -0.178104D-02 -0.462362D-02  0.111077D-02  0.379305D-02
     23 -0.201554D-01  0.252711D-01  0.256325D-03 -0.596569D-03 -0.620664D-05
     24 -0.180684D-03 -0.185826D-01  0.998516D-03 -0.215182D-02  0.899292D-03
     25  0.188285D-01  0.279635D-02 -0.397645D-02 -0.164274D-02  0.530432D-02
               11            12            13            14            15 
     11  0.180887D+00
     12  0.464584D-02  0.193874D+00
     13 -0.477698D-02 -0.847241D-02  0.177160D+00
     14  0.580929D-03  0.880670D-02  0.392235D-02  0.170301D+00
     15 -0.530992D-04 -0.973725D-01 -0.818805D-01 -0.170505D-01  0.142594D+00
     16 -0.826092D-03 -0.867051D-01 -0.150084D-01 -0.806673D-01  0.298674D-01
     17  0.514509D-03 -0.171045D-01 -0.836746D-01 -0.918082D-01  0.300430D-01
     18 -0.303259D-03 -0.305220D-02 -0.204116D-02  0.640604D-02  0.465372D-03
     19  0.116683D-03  0.366463D-04  0.133362D-02 -0.156174D-02 -0.260268D-03
     20  0.649639D-03  0.264291D-02 -0.855945D-02  0.254308D-02 -0.292263D-01
     21  0.732996D-03  0.118444D-01 -0.110277D-02 -0.103171D-01  0.284915D-01
     22 -0.135551D-02 -0.929763D-02  0.121119D-01 -0.327583D-02  0.491643D-03
     23  0.786235D-03 -0.391927D-03 -0.114231D-01  0.105139D-01 -0.287515D-01
     24  0.869592D-03  0.880961D-02 -0.396643D-02 -0.234620D-02  0.289663D-01
     25 -0.121891D-02 -0.123325D-01  0.924818D-02  0.469503D-02  0.966454D-03
               16            17            18            19            20 
     16  0.133968D+00
     17  0.286449D-01  0.140069D+00
     18 -0.889536D-03 -0.877896D-03  0.149406D-01
     19  0.366679D-03  0.658682D-04  0.403806D-02  0.160235D-01
     20  0.338552D-01  0.103848D-02 -0.388116D-02  0.558162D-02  0.330637D-01
     21 -0.313179D-03 -0.287029D-01 -0.684387D-02  0.616555D-02 -0.814075D-02
     22 -0.312865D-01  0.291294D-01 -0.474025D-02  0.601665D-02 -0.106616D-01
     23  0.324719D-01 -0.124246D-03  0.692570D-02 -0.629957D-02  0.235728D-01
     24 -0.169642D-02 -0.298656D-01  0.396299D-02 -0.571564D-02 -0.176317D-01
     25 -0.326697D-01  0.279667D-01  0.606661D-02 -0.586454D-02 -0.201526D-01
               21            22            23            24            25 
     21  0.360905D-01
     22 -0.863146D-02  0.342114D-01
     23 -0.211191D-01 -0.213266D-01  0.367549D-01
     24  0.231121D-01 -0.192964D-01 -0.793702D-02  0.328068D-01
     25 -0.216098D-01  0.235465D-01 -0.814449D-02 -0.960171D-02  0.355545D-01
 Leave Link  716 at Sun May 25 04:14:45 2025, MaxMem=  3758096384 cpu:               0.0 elap:               0.0
 (Enter /apps/easybuild-2022/easybuild/software/Compiler/NVHPC/22.11-CUDA-11.7.0/Gaussian/g16c01-CUDA-11.7.0/g16/l103.exe)

 GradGradGradGradGradGradGradGradGradGradGradGradGradGradGradGradGradGrad
 Berny optimization.
 Red2BG is reusing G-inverse.
 Internal  Forces:  Max     0.023468093 RMS     0.007262285
 Search for a local minimum.
 Step number   1 out of a maximum of   35
 All quantities printed in internal units (Hartrees-Bohrs-Radians)
 RMS Force = .72623D-02 SwitMx=.10000D-02 MixMth= 1
 Mixed Optimization -- RFO/linear search
 Second derivative matrix not updated -- analytic derivatives used.
 ITU=  0
     Eigenvalues ---   -0.00014   0.01929   0.04383   0.11776   0.13622
     Eigenvalues ---    0.15322   0.16954   0.21629   0.22217   0.24065
     Eigenvalues ---    0.29481   0.38771   0.40279   0.41563   0.46942
     Eigenvalues ---    0.52463   0.58262   0.99194
 Eigenvalue     1 is  -1.44D-04 should be greater than     0.000000 Eigenvector:
                          D5        D3        D4        D8        D6
   1                   -0.42132  -0.41346  -0.41095  -0.40649  -0.39862
                          D7        D1        A1        A3        A6
   1                   -0.39611   0.02330  -0.01865   0.01857  -0.00994
 RFO step:  Lambda=-4.72288022D-03 EMin=-1.44409032D-04
 Linear search not attempted -- first point.
 Iteration  1 RMS(Cart)=  0.13114644 RMS(Int)=  0.10381473
 Iteration  2 RMS(Cart)=  0.10801914 RMS(Int)=  0.00892365
 Iteration  3 RMS(Cart)=  0.01023802 RMS(Int)=  0.00016295
 Iteration  4 RMS(Cart)=  0.00007513 RMS(Int)=  0.00015265
 Iteration  5 RMS(Cart)=  0.00000001 RMS(Int)=  0.00015265
 ITry= 1 IFail=0 DXMaxC= 5.82D-01 DCOld= 1.00D+10 DXMaxT= 3.00D-01 DXLimC= 3.00D+00 Rises=F
 Variable       Old X    -DE/DX   Delta X   Delta X   Delta X     New X
                                 (Linear)    (Quad)   (Total)
    R1        2.50345   0.00520   0.00000   0.00484   0.00484   2.50829
    R2        2.95419  -0.01263   0.00000  -0.04037  -0.04037   2.91382
    R3        2.24592   0.00687   0.00000  -0.00136  -0.00136   2.24457
    R4        1.83050  -0.00083   0.00000  -0.00271  -0.00271   1.82779
    R5        2.50384  -0.00233   0.00000  -0.01249  -0.01249   2.49136
    R6        2.50580  -0.00168   0.00000   0.00228   0.00228   2.50808
    R7        2.51743  -0.00169   0.00000   0.00542   0.00542   2.52284
    A1        2.02864  -0.02019   0.00000  -0.11097  -0.11103   1.91761
    A2        2.13037   0.02347   0.00000   0.07599   0.07593   2.20630
    A3        2.12379  -0.00328   0.00000   0.03453   0.03448   2.15828
    A4        1.83550   0.00503   0.00000   0.05123   0.05123   1.88674
    A5        1.90352   0.00008   0.00000   0.02480   0.02482   1.92834
    A6        1.98256  -0.00671   0.00000  -0.03826  -0.03833   1.94423
    A7        1.90227  -0.00169   0.00000  -0.00036  -0.00063   1.90163
    A8        1.89370   0.00331   0.00000   0.00886   0.00906   1.90276
    A9        1.88972   0.00234   0.00000   0.00780   0.00762   1.89733
   A10        1.89005   0.00309   0.00000  -0.00114  -0.00150   1.88855
    D1       -3.10514   0.00023   0.00000   0.03323   0.03345  -3.07169
    D2        0.00714  -0.00004   0.00000   0.01607   0.01584   0.02299
    D3       -2.53581   0.00074   0.00000  -0.40811  -0.40788  -2.94369
    D4       -0.42135   0.00055   0.00000  -0.40450  -0.40464  -0.82600
    D5        1.68754  -0.00115   0.00000  -0.43152  -0.43137   1.25618
    D6        0.63497   0.00052   0.00000  -0.39179  -0.39171   0.24326
    D7        2.74943   0.00033   0.00000  -0.38817  -0.38847   2.36096
    D8       -1.42486  -0.00137   0.00000  -0.41519  -0.41520  -1.84005
         Item               Value     Threshold  Converged?
 Maximum Force            0.023468     0.000450     NO 
 RMS     Force            0.007262     0.000300     NO 
 Maximum Displacement     0.581554     0.001800     NO 
 RMS     Displacement     0.228402     0.001200     NO 
 Predicted change in Energy=-3.023680D-03
 Lowest energy point so far.  Saving SCF results.
 GradGradGradGradGradGradGradGradGradGradGradGradGradGradGradGradGradGrad

 Leave Link  103 at Sun May 25 04:14:45 2025, MaxMem=  3758096384 cpu:               0.0 elap:               0.0
 (Enter /apps/easybuild-2022/easybuild/software/Compiler/NVHPC/22.11-CUDA-11.7.0/Gaussian/g16c01-CUDA-11.7.0/g16/l202.exe)
                          Input orientation:                          
 ---------------------------------------------------------------------
 Center     Atomic      Atomic             Coordinates (Angstroms)
 Number     Number       Type             X           Y           Z
 ---------------------------------------------------------------------
      1          6           0        0.954587    0.320716    0.060644
      2          8           0        1.629412   -0.325467   -0.882148
      3          6           0       -0.533965   -0.077754    0.006162
      4          9           0       -1.254451    0.724600    0.764598
      5          9           0       -1.001547   -0.034911   -1.235225
      6          9           0       -0.665343   -1.326934    0.458487
      7          8           0        1.408762    1.060786    0.871093
      8          1           0        2.566455   -0.106446   -0.784656
 ---------------------------------------------------------------------
                    Distance matrix (angstroms):
                    1          2          3          4          5
     1  C    0.000000
     2  O    1.327328   0.000000
     3  C    1.541925   2.351734   0.000000
     4  F    2.353407   3.482970   1.318369   0.000000
     5  F    2.373228   2.670399   1.327219   2.154091   0.000000
     6  F    2.344611   2.840095   1.335032   2.156281   2.156622
     7  O    1.187774   2.245939   2.412171   2.686460   3.383300
     8  H    1.869523   0.967225   3.199815   4.205966   3.597050
                    6          7          8
     6  F    0.000000
     7  O    3.189571   0.000000
     8  H    3.671445   2.333279   0.000000
 Symmetry turned off by external request.
 Stoichiometry    C2HF3O2
 Rotational constants (GHZ):           3.8989354           2.5161183           2.0871548
 Leave Link  202 at Sun May 25 04:14:45 2025, MaxMem=  3758096384 cpu:               0.0 elap:               0.0
 (Enter /apps/easybuild-2022/easybuild/software/Compiler/NVHPC/22.11-CUDA-11.7.0/Gaussian/g16c01-CUDA-11.7.0/g16/l301.exe)
 Standard basis: def2TZVPP (5D, 7F)
 Ernie: Thresh=  0.10000D-02 Tol=  0.10000D-05 Strict=F.
   231 basis functions,   374 primitive gaussians,   267 cartesian basis functions
    28 alpha electrons       28 beta electrons
       nuclear repulsion energy       338.5665036189 Hartrees.
 IExCor= 4336 DFT=T Ex+Corr=M062X ExCW=0 ScaHFX=  0.540000
 ScaDFX=  1.000000  1.000000  1.000000  1.000000 ScalE2=  1.000000  1.000000
 IRadAn=      5 IRanWt=     -1 IRanGd=            0 ICorTp=0 IEmpDi=  4
 NAtoms=    8 NActive=    8 NUniq=    8 SFac= 1.00D+00 NAtFMM=   60 NAOKFM=F Big=F
 Integral buffers will be    131072 words long.
 Raffenetti 2 integral format.
 Two-electron integral symmetry is turned off.
 Leave Link  301 at Sun May 25 04:14:45 2025, MaxMem=  3758096384 cpu:               0.0 elap:               0.0
 (Enter /apps/easybuild-2022/easybuild/software/Compiler/NVHPC/22.11-CUDA-11.7.0/Gaussian/g16c01-CUDA-11.7.0/g16/l302.exe)
 NPDir=0 NMtPBC=     1 NCelOv=     1 NCel=       1 NClECP=     1 NCelD=      1
         NCelK=      1 NCelE2=     1 NClLst=     1 CellRange=     0.0.
 One-electron integrals computed using PRISM.
   1 Symmetry operations used in ECPInt.
 ECPInt:  NShTT=    3486 NPrTT=   11183 LenC2=    3402 LenP2D=    8714.
 LDataN:  DoStor=T MaxTD1= 6 Len=  172
 NBasis=   231 RedAO= T EigKep=  5.47D-04  NBF=   231
 NBsUse=   231 1.00D-06 EigRej= -1.00D+00 NBFU=   231
 Precomputing XC quadrature grid using
 IXCGrd= 4 IRadAn=           5 IRanWt=          -1 IRanGd=           0 AccXCQ= 0.00D+00.
 Generated NRdTot=       0 NPtTot=           0 NUsed=           0 NTot=          32
 NSgBfM=   266   266   266   266   266 MxSgAt=     8 MxSgA2=     8.
 Leave Link  302 at Sun May 25 04:14:45 2025, MaxMem=  3758096384 cpu:               0.5 elap:               0.1
 (Enter /apps/easybuild-2022/easybuild/software/Compiler/NVHPC/22.11-CUDA-11.7.0/Gaussian/g16c01-CUDA-11.7.0/g16/l303.exe)
 DipDrv:  MaxL=1.
 Leave Link  303 at Sun May 25 04:14:45 2025, MaxMem=  3758096384 cpu:               0.1 elap:               0.0
 (Enter /apps/easybuild-2022/easybuild/software/Compiler/NVHPC/22.11-CUDA-11.7.0/Gaussian/g16c01-CUDA-11.7.0/g16/l401.exe)
 Initial guess from the checkpoint file:  "1141903082400600000001_r12_insertion_R_8_7_1_IRC_F_prod.chk"
 B after Tr=     0.010253    0.035435   -0.005670
         Rot=    0.999733   -0.016704   -0.002906   -0.015686 Ang=  -2.65 deg.
 Guess basis will be translated and rotated to current coordinates.
 JPrj=2 DoOrth=T DoCkMO=T.
 Generating alternative initial guess.
 ExpMin= 9.52D-02 ExpMax= 3.55D+04 ExpMxC= 1.21D+03 IAcc=3 IRadAn=         5 AccDes= 0.00D+00
 Harris functional with IExCor= 1009 and IRadAn=       5 diagonalized for initial guess.
 HarFok:  IExCor= 1009 AccDes= 0.00D+00 IRadAn=         5 IDoV= 1 UseB2=F ITyADJ=14
 ICtDFT=  3500011 ScaDFX=  1.000000  1.000000  1.000000  1.000000
 FoFCou: FMM=F IPFlag=           0 FMFlag=      100000 FMFlg1=           0
         NFxFlg=           0 DoJE=T BraDBF=F KetDBF=T FulRan=T
         wScrn=  0.000000 ICntrl=       500 IOpCl=  0 I1Cent=   200000004 NGrid=           0
         NMat0=    1 NMatS0=      1 NMatT0=    0 NMatD0=    1 NMtDS0=    0 NMtDT0=    0
 Symmetry not used in FoFCou.
 Harris En= -526.547055456124    
 Leave Link  401 at Sun May 25 04:14:45 2025, MaxMem=  3758096384 cpu:               2.2 elap:               0.3
 (Enter /apps/easybuild-2022/easybuild/software/Compiler/NVHPC/22.11-CUDA-11.7.0/Gaussian/g16c01-CUDA-11.7.0/g16/l502.exe)
 Keep R1 ints in memory in canonical form, NReq=368651279.
 FoFCou: FMM=F IPFlag=           0 FMFlag=           0 FMFlg1=           0
         NFxFlg=           0 DoJE=F BraDBF=F KetDBF=F FulRan=T
         wScrn=  0.000000 ICntrl=       600 IOpCl=  0 I1Cent=           0 NGrid=           0
         NMat0=    1 NMatS0=  26796 NMatT0=    0 NMatD0=    1 NMtDS0=    0 NMtDT0=    0
 Symmetry not used in FoFCou.
 Two-electron integral symmetry not used.
 Closed shell SCF:
 Using DIIS extrapolation, IDIIS=  1040.
 NGot=  3758096384 LenX=  3398923531 LenY=  3398851801
 Requested convergence on RMS density matrix=1.00D-08 within  32 cycles.
 Requested convergence on MAX density matrix=1.00D-06.
 Requested convergence on             energy=1.00D-06.
 No special actions if energy rises.
 Integral accuracy reduced to 1.0D-05 until final iterations.

 Cycle   1  Pass 0  IDiag  1:
 E= -526.752789723088    
 DIIS: error= 1.43D-02 at cycle   1 NSaved=   1.
 NSaved= 1 IEnMin= 1 EnMin= -526.752789723088     IErMin= 1 ErrMin= 1.43D-02
 ErrMax= 1.43D-02  0.00D+00 EMaxC= 1.00D-01 BMatC= 7.31D-02 BMatP= 7.31D-02
 IDIUse=3 WtCom= 8.57D-01 WtEn= 1.43D-01
 Coeff-Com:  0.100D+01
 Coeff-En:   0.100D+01
 Coeff:      0.100D+01
 Recover alternate guess density for next cycle.
 RMSDP=1.94D-03 MaxDP=4.56D-02              OVMax= 0.00D+00

 Cycle   2  Pass 0  IDiag  1:
 E= -526.709473540946     Delta-E=        0.043316182143 Rises=F Damp=F
 Switch densities from cycles 1 and 2 for lowest energy.
 DIIS: error= 2.52D-02 at cycle   2 NSaved=   2.
 NSaved= 2 IEnMin= 1 EnMin= -526.752789723088     IErMin= 1 ErrMin= 1.43D-02
 ErrMax= 2.52D-02  0.00D+00 EMaxC= 1.00D+00 BMatC= 2.77D-01 BMatP= 7.31D-02
 IDIUse=1 WtCom= 1.00D+00 WtEn= 0.00D+00
 Coeff-Com:  0.815D+00 0.185D+00
 Coeff:      0.815D+00 0.185D+00
 Gap=     0.398 Goal=   None    Shift=    0.000
 RMSDP=1.19D-03 MaxDP=3.35D-02 DE= 4.33D-02 OVMax= 1.08D-01

 Cycle   3  Pass 0  IDiag  1:
 E= -526.838737711246     Delta-E=       -0.129264170300 Rises=F Damp=F
 DIIS: error= 5.91D-03 at cycle   3 NSaved=   3.
 NSaved= 3 IEnMin= 3 EnMin= -526.838737711246     IErMin= 3 ErrMin= 5.91D-03
 ErrMax= 5.91D-03  0.00D+00 EMaxC= 1.00D+00 BMatC= 1.85D-02 BMatP= 7.31D-02
 IDIUse=1 WtCom= 1.00D+00 WtEn= 0.00D+00
 Coeff-Com: -0.189D-01 0.187D+00 0.832D+00
 Coeff:     -0.189D-01 0.187D+00 0.832D+00
 Gap=     0.410 Goal=   None    Shift=    0.000
 RMSDP=3.60D-04 MaxDP=1.43D-02 DE=-1.29D-01 OVMax= 2.50D-02

 Cycle   4  Pass 0  IDiag  1:
 E= -526.851256444702     Delta-E=       -0.012518733456 Rises=F Damp=F
 DIIS: error= 2.53D-03 at cycle   4 NSaved=   4.
 NSaved= 4 IEnMin= 4 EnMin= -526.851256444702     IErMin= 4 ErrMin= 2.53D-03
 ErrMax= 2.53D-03  0.00D+00 EMaxC= 1.00D+00 BMatC= 1.70D-03 BMatP= 1.85D-02
 IDIUse=1 WtCom= 1.00D+00 WtEn= 0.00D+00
 Coeff-Com: -0.423D-01 0.131D-01 0.253D+00 0.776D+00
 Coeff:     -0.423D-01 0.131D-01 0.253D+00 0.776D+00
 Gap=     0.403 Goal=   None    Shift=    0.000
 RMSDP=1.18D-04 MaxDP=5.14D-03 DE=-1.25D-02 OVMax= 9.91D-03

 Cycle   5  Pass 0  IDiag  1:
 E= -526.852463008960     Delta-E=       -0.001206564258 Rises=F Damp=F
 DIIS: error= 6.53D-04 at cycle   5 NSaved=   5.
 NSaved= 5 IEnMin= 5 EnMin= -526.852463008960     IErMin= 5 ErrMin= 6.53D-04
 ErrMax= 6.53D-04  0.00D+00 EMaxC= 1.00D+00 BMatC= 1.43D-04 BMatP= 1.70D-03
 IDIUse=1 WtCom= 1.00D+00 WtEn= 0.00D+00
 Coeff-Com: -0.147D-01-0.431D-02 0.552D-01 0.326D+00 0.637D+00
 Coeff:     -0.147D-01-0.431D-02 0.552D-01 0.326D+00 0.637D+00
 Gap=     0.405 Goal=   None    Shift=    0.000
 RMSDP=3.28D-05 MaxDP=1.28D-03 DE=-1.21D-03 OVMax= 2.67D-03

 Cycle   6  Pass 0  IDiag  1:
 E= -526.852571590087     Delta-E=       -0.000108581128 Rises=F Damp=F
 DIIS: error= 2.64D-04 at cycle   6 NSaved=   6.
 NSaved= 6 IEnMin= 6 EnMin= -526.852571590087     IErMin= 6 ErrMin= 2.64D-04
 ErrMax= 2.64D-04  0.00D+00 EMaxC= 1.00D+00 BMatC= 1.68D-05 BMatP= 1.43D-04
 IDIUse=1 WtCom= 1.00D+00 WtEn= 0.00D+00
 Coeff-Com: -0.243D-02-0.294D-02-0.114D-02 0.718D-01 0.275D+00 0.659D+00
 Coeff:     -0.243D-02-0.294D-02-0.114D-02 0.718D-01 0.275D+00 0.659D+00
 Gap=     0.405 Goal=   None    Shift=    0.000
 RMSDP=1.32D-05 MaxDP=6.37D-04 DE=-1.09D-04 OVMax= 1.83D-03

 Cycle   7  Pass 0  IDiag  1:
 E= -526.852586102059     Delta-E=       -0.000014511972 Rises=F Damp=F
 DIIS: error= 9.22D-05 at cycle   7 NSaved=   7.
 NSaved= 7 IEnMin= 7 EnMin= -526.852586102059     IErMin= 7 ErrMin= 9.22D-05
 ErrMax= 9.22D-05  0.00D+00 EMaxC= 1.00D+00 BMatC= 3.54D-06 BMatP= 1.68D-05
 IDIUse=1 WtCom= 1.00D+00 WtEn= 0.00D+00
 Coeff-Com:  0.167D-02 0.210D-03-0.139D-01-0.439D-01-0.342D-01 0.305D+00
 Coeff-Com:  0.785D+00
 Coeff:      0.167D-02 0.210D-03-0.139D-01-0.439D-01-0.342D-01 0.305D+00
 Coeff:      0.785D+00
 Gap=     0.405 Goal=   None    Shift=    0.000
 RMSDP=7.88D-06 MaxDP=2.66D-04 DE=-1.45D-05 OVMax= 1.12D-03

 Initial convergence to 1.0D-05 achieved.  Increase integral accuracy.
 Cycle   8  Pass 1  IDiag  1:
 E= -526.852572277812     Delta-E=        0.000013824247 Rises=F Damp=F
 DIIS: error= 2.65D-05 at cycle   1 NSaved=   1.
 NSaved= 1 IEnMin= 1 EnMin= -526.852572277812     IErMin= 1 ErrMin= 2.65D-05
 ErrMax= 2.65D-05  0.00D+00 EMaxC= 1.00D+00 BMatC= 4.74D-07 BMatP= 4.74D-07
 IDIUse=1 WtCom= 1.00D+00 WtEn= 0.00D+00
 Coeff-Com:  0.100D+01
 Coeff:      0.100D+01
 Gap=     0.405 Goal=   None    Shift=    0.000
 RMSDP=7.88D-06 MaxDP=2.66D-04 DE= 1.38D-05 OVMax= 3.84D-04

 Cycle   9  Pass 1  IDiag  1:
 E= -526.852572755737     Delta-E=       -0.000000477925 Rises=F Damp=F
 DIIS: error= 1.61D-05 at cycle   2 NSaved=   2.
 NSaved= 2 IEnMin= 2 EnMin= -526.852572755737     IErMin= 2 ErrMin= 1.61D-05
 ErrMax= 1.61D-05  0.00D+00 EMaxC= 1.00D+00 BMatC= 1.49D-07 BMatP= 4.74D-07
 IDIUse=1 WtCom= 1.00D+00 WtEn= 0.00D+00
 Coeff-Com:  0.284D+00 0.716D+00
 Coeff:      0.284D+00 0.716D+00
 Gap=     0.405 Goal=   None    Shift=    0.000
 RMSDP=1.46D-06 MaxDP=4.61D-05 DE=-4.78D-07 OVMax= 1.53D-04

 Cycle  10  Pass 1  IDiag  1:
 E= -526.852572854422     Delta-E=       -0.000000098685 Rises=F Damp=F
 DIIS: error= 1.04D-05 at cycle   3 NSaved=   3.
 NSaved= 3 IEnMin= 3 EnMin= -526.852572854422     IErMin= 3 ErrMin= 1.04D-05
 ErrMax= 1.04D-05  0.00D+00 EMaxC= 1.00D+00 BMatC= 5.62D-08 BMatP= 1.49D-07
 IDIUse=1 WtCom= 1.00D+00 WtEn= 0.00D+00
 Coeff-Com: -0.568D-01 0.364D+00 0.693D+00
 Coeff:     -0.568D-01 0.364D+00 0.693D+00
 Gap=     0.405 Goal=   None    Shift=    0.000
 RMSDP=8.80D-07 MaxDP=2.98D-05 DE=-9.87D-08 OVMax= 1.11D-04

 Cycle  11  Pass 1  IDiag  1:
 E= -526.852572905739     Delta-E=       -0.000000051317 Rises=F Damp=F
 DIIS: error= 4.23D-06 at cycle   4 NSaved=   4.
 NSaved= 4 IEnMin= 4 EnMin= -526.852572905739     IErMin= 4 ErrMin= 4.23D-06
 ErrMax= 4.23D-06  0.00D+00 EMaxC= 1.00D+00 BMatC= 5.35D-09 BMatP= 5.62D-08
 IDIUse=1 WtCom= 1.00D+00 WtEn= 0.00D+00
 Coeff-Com: -0.435D-01 0.106D+00 0.296D+00 0.642D+00
 Coeff:     -0.435D-01 0.106D+00 0.296D+00 0.642D+00
 Gap=     0.405 Goal=   None    Shift=    0.000
 RMSDP=3.02D-07 MaxDP=1.18D-05 DE=-5.13D-08 OVMax= 5.10D-05

 Cycle  12  Pass 1  IDiag  1:
 E= -526.852572912986     Delta-E=       -0.000000007247 Rises=F Damp=F
 DIIS: error= 2.33D-06 at cycle   5 NSaved=   5.
 NSaved= 5 IEnMin= 5 EnMin= -526.852572912986     IErMin= 5 ErrMin= 2.33D-06
 ErrMax= 2.33D-06  0.00D+00 EMaxC= 1.00D+00 BMatC= 1.36D-09 BMatP= 5.35D-09
 IDIUse=1 WtCom= 1.00D+00 WtEn= 0.00D+00
 Coeff-Com:  0.605D-02-0.120D+00-0.181D+00 0.296D+00 0.999D+00
 Coeff:      0.605D-02-0.120D+00-0.181D+00 0.296D+00 0.999D+00
 Gap=     0.405 Goal=   None    Shift=    0.000
 RMSDP=2.87D-07 MaxDP=1.01D-05 DE=-7.25D-09 OVMax= 6.09D-05

 Cycle  13  Pass 1  IDiag  1:
 E= -526.852572916446     Delta-E=       -0.000000003459 Rises=F Damp=F
 DIIS: error= 4.56D-07 at cycle   6 NSaved=   6.
 NSaved= 6 IEnMin= 6 EnMin= -526.852572916446     IErMin= 6 ErrMin= 4.56D-07
 ErrMax= 4.56D-07  0.00D+00 EMaxC= 1.00D+00 BMatC= 9.19D-11 BMatP= 1.36D-09
 IDIUse=1 WtCom= 1.00D+00 WtEn= 0.00D+00
 Coeff-Com:  0.536D-02-0.516D-01-0.886D-01 0.486D-01 0.352D+00 0.734D+00
 Coeff:      0.536D-02-0.516D-01-0.886D-01 0.486D-01 0.352D+00 0.734D+00
 Gap=     0.405 Goal=   None    Shift=    0.000
 RMSDP=5.71D-08 MaxDP=1.49D-06 DE=-3.46D-09 OVMax= 1.11D-05

 Cycle  14  Pass 1  IDiag  1:
 E= -526.852572916584     Delta-E=       -0.000000000138 Rises=F Damp=F
 DIIS: error= 1.47D-07 at cycle   7 NSaved=   7.
 NSaved= 7 IEnMin= 7 EnMin= -526.852572916584     IErMin= 7 ErrMin= 1.47D-07
 ErrMax= 1.47D-07  0.00D+00 EMaxC= 1.00D+00 BMatC= 6.31D-12 BMatP= 9.19D-11
 IDIUse=1 WtCom= 1.00D+00 WtEn= 0.00D+00
 Coeff-Com:  0.519D-03 0.273D-02 0.720D-03-0.199D-01-0.368D-01 0.140D+00
 Coeff-Com:  0.913D+00
 Coeff:      0.519D-03 0.273D-02 0.720D-03-0.199D-01-0.368D-01 0.140D+00
 Coeff:      0.913D+00
 Gap=     0.405 Goal=   None    Shift=    0.000
 RMSDP=1.96D-08 MaxDP=7.61D-07 DE=-1.38D-10 OVMax= 2.96D-06

 Cycle  15  Pass 1  IDiag  1:
 E= -526.852572916595     Delta-E=       -0.000000000011 Rises=F Damp=F
 DIIS: error= 7.61D-08 at cycle   8 NSaved=   8.
 NSaved= 8 IEnMin= 8 EnMin= -526.852572916595     IErMin= 8 ErrMin= 7.61D-08
 ErrMax= 7.61D-08  0.00D+00 EMaxC= 1.00D+00 BMatC= 1.80D-12 BMatP= 6.31D-12
 IDIUse=1 WtCom= 1.00D+00 WtEn= 0.00D+00
 Coeff-Com: -0.346D-03 0.684D-02 0.966D-02-0.141D-01-0.559D-01-0.844D-02
 Coeff-Com:  0.412D+00 0.650D+00
 Coeff:     -0.346D-03 0.684D-02 0.966D-02-0.141D-01-0.559D-01-0.844D-02
 Coeff:      0.412D+00 0.650D+00
 Gap=     0.405 Goal=   None    Shift=    0.000
 RMSDP=4.91D-09 MaxDP=1.46D-07 DE=-1.14D-11 OVMax= 6.23D-07

 SCF Done:  E(RM062X) =  -526.852572917     A.U. after   15 cycles
            NFock= 15  Conv=0.49D-08     -V/T= 2.0036
 KE= 5.249424768352D+02 PE=-1.925291985097D+03 EE= 5.349304317266D+02
 Leave Link  502 at Sun May 25 04:14:54 2025, MaxMem=  3758096384 cpu:              47.9 elap:               9.3
 (Enter /apps/easybuild-2022/easybuild/software/Compiler/NVHPC/22.11-CUDA-11.7.0/Gaussian/g16c01-CUDA-11.7.0/g16/l508.exe)
 QCSCF skips out because SCF is already converged.
 Leave Link  508 at Sun May 25 04:14:54 2025, MaxMem=  3758096384 cpu:               0.0 elap:               0.0
 (Enter /apps/easybuild-2022/easybuild/software/Compiler/NVHPC/22.11-CUDA-11.7.0/Gaussian/g16c01-CUDA-11.7.0/g16/l701.exe)
 ... and contract with generalized density number  0.
 Compute integral first derivatives.
   1 Symmetry operations used in ECPInt.
 ECPInt:  NShTT=    3486 NPrTT=   11183 LenC2=    3402 LenP2D=    8714.
 LDataN:  DoStor=T MaxTD1= 7 Len=  274
 Leave Link  701 at Sun May 25 04:14:55 2025, MaxMem=  3758096384 cpu:               0.4 elap:               0.1
 (Enter /apps/easybuild-2022/easybuild/software/Compiler/NVHPC/22.11-CUDA-11.7.0/Gaussian/g16c01-CUDA-11.7.0/g16/l702.exe)
 L702 exits ... SP integral derivatives will be done elsewhere.
 Leave Link  702 at Sun May 25 04:14:55 2025, MaxMem=  3758096384 cpu:               0.0 elap:               0.0
 (Enter /apps/easybuild-2022/easybuild/software/Compiler/NVHPC/22.11-CUDA-11.7.0/Gaussian/g16c01-CUDA-11.7.0/g16/l703.exe)
 Integral derivatives from FoFJK, PRISM(SPDF).
 Compute integral first derivatives, UseDBF=F ICtDFT=           0.
 Calling FoFJK, ICntrl=      2127 FMM=F ISym2X=0 I1Cent= 0 IOpClX= 0 NMat=1 NMatS=1 NMatT=0.
 FoFJK:  IHMeth= 1 ICntrl=    2127 DoSepK=F KAlg= 0 I1Cent=           0 FoldK=F
 IRaf=         0 NMat=       1 IRICut=       1 DoRegI=T DoRafI=F ISym2E= 0 IDoP0=0 IntGTp=1.
 FoFCou: FMM=F IPFlag=           0 FMFlag=      100000 FMFlg1=         800
         NFxFlg=           0 DoJE=F BraDBF=F KetDBF=F FulRan=T
         wScrn=  0.000000 ICntrl=      2127 IOpCl=  0 I1Cent=           0 NGrid=           0
         NMat0=    1 NMatS0=      1 NMatT0=    0 NMatD0=    1 NMtDS0=    0 NMtDT0=    0
 Symmetry not used in FoFCou.
 Leave Link  703 at Sun May 25 04:14:58 2025, MaxMem=  3758096384 cpu:              26.2 elap:               3.4
 (Enter /apps/easybuild-2022/easybuild/software/Compiler/NVHPC/22.11-CUDA-11.7.0/Gaussian/g16c01-CUDA-11.7.0/g16/l716.exe)
 Dipole        = 7.25385881D-01-1.91215035D-01-4.53053619D-01
 -------------------------------------------------------------------
 Center     Atomic                   Forces (Hartrees/Bohr)
 Number     Number              X              Y              Z
 -------------------------------------------------------------------
      1        6           0.001136035   -0.001743267    0.000980607
      2        8           0.000980158   -0.000572901   -0.001100036
      3        6          -0.000245442   -0.002134163    0.000930605
      4        9          -0.000558277    0.000669902    0.000423858
      5        9          -0.000268869    0.000677478   -0.000649434
      6        9          -0.000049824    0.001395136   -0.000425618
      7        8          -0.001048896    0.001620351    0.000456127
      8        1           0.000055115    0.000087464   -0.000616109
 -------------------------------------------------------------------
 Cartesian Forces:  Max     0.002134163 RMS     0.000949085
 Leave Link  716 at Sun May 25 04:14:58 2025, MaxMem=  3758096384 cpu:               0.1 elap:               0.0
 (Enter /apps/easybuild-2022/easybuild/software/Compiler/NVHPC/22.11-CUDA-11.7.0/Gaussian/g16c01-CUDA-11.7.0/g16/l103.exe)

 GradGradGradGradGradGradGradGradGradGradGradGradGradGradGradGradGradGrad
 Berny optimization.
 Using GEDIIS/GDIIS optimizer.
 FormGI is forming the generalized inverse of G from B-inverse, IUseBI=4.
 Internal  Forces:  Max     0.001979050 RMS     0.000862315
 Search for a local minimum.
 Step number   2 out of a maximum of   35
 All quantities printed in internal units (Hartrees-Bohrs-Radians)
 RMS Force = .86231D-03 SwitMx=.10000D-02 MixMth= 2
 Mixed Optimization -- En-DIIS/RFO-DIIS
 Update second derivatives using D2CorX and points    1    2
 DE= -2.90D-03 DEPred=-3.02D-03 R= 9.58D-01
 TightC=F SS=  1.41D+00  RLast= 1.01D+00 DXNew= 5.0454D-01 3.0303D+00
 Trust test= 9.58D-01 RLast= 1.01D+00 DXMaxT set to 5.05D-01
 ITU=  1  0
 Use linear search instead of GDIIS.
     Eigenvalues ---   -0.00018   0.01936   0.04375   0.11758   0.13659
     Eigenvalues ---    0.15013   0.17250   0.21748   0.22203   0.24004
     Eigenvalues ---    0.28196   0.37700   0.40378   0.41527   0.46635
     Eigenvalues ---    0.52491   0.58277   0.98452
 Eigenvalue     1 is  -1.77D-04 should be greater than     0.000000 Eigenvector:
                          D5        D3        D4        D8        D6
   1                    0.42062   0.41447   0.41192   0.40506   0.39891
                          D7        D1        A3        A2        A1
   1                    0.39636  -0.02360  -0.01705   0.00887   0.00884
 RFO step:  Lambda=-3.74346535D-04 EMin=-1.77019398D-04
 Quartic linear search produced a step of  0.03962.
 Iteration  1 RMS(Cart)=  0.10425456 RMS(Int)=  0.11060645
 Iteration  2 RMS(Cart)=  0.10596228 RMS(Int)=  0.01352214
 Iteration  3 RMS(Cart)=  0.01430973 RMS(Int)=  0.00010417
 Iteration  4 RMS(Cart)=  0.00011056 RMS(Int)=  0.00001943
 Iteration  5 RMS(Cart)=  0.00000001 RMS(Int)=  0.00001943
 ITry= 1 IFail=0 DXMaxC= 4.60D-01 DCOld= 1.00D+10 DXMaxT= 5.05D-01 DXLimC= 3.00D+00 Rises=F
 Variable       Old X    -DE/DX   Delta X   Delta X   Delta X     New X
                                 (Linear)    (Quad)   (Total)
    R1        2.50829   0.00198   0.00019   0.00298   0.00317   2.51145
    R2        2.91382   0.00092  -0.00160   0.00901   0.00741   2.92123
    R3        2.24457   0.00092  -0.00005   0.00009   0.00003   2.24460
    R4        1.82779   0.00001  -0.00011  -0.00028  -0.00038   1.82741
    R5        2.49136   0.00096  -0.00049  -0.00538  -0.00588   2.48548
    R6        2.50808   0.00072   0.00009   0.00504   0.00513   2.51321
    R7        2.52284  -0.00144   0.00021   0.00023   0.00045   2.52329
    A1        1.91761   0.00073  -0.00440  -0.00226  -0.00667   1.91094
    A2        2.20630   0.00113   0.00301  -0.00616  -0.00316   2.20313
    A3        2.15828  -0.00181   0.00137   0.00884   0.01019   2.16847
    A4        1.88674   0.00080   0.00203   0.00021   0.00224   1.88898
    A5        1.92834  -0.00012   0.00098   0.00096   0.00192   1.93026
    A6        1.94423  -0.00040  -0.00152  -0.00955  -0.01107   1.93316
    A7        1.90163   0.00057  -0.00003   0.00906   0.00902   1.91065
    A8        1.90276  -0.00023   0.00036  -0.00079  -0.00044   1.90232
    A9        1.89733  -0.00009   0.00030   0.00184   0.00210   1.89943
   A10        1.88855   0.00030  -0.00006  -0.00132  -0.00137   1.88718
    D1       -3.07169  -0.00088   0.00133  -0.01201  -0.01065  -3.08233
    D2        0.02299   0.00012   0.00063  -0.00169  -0.00110   0.02188
    D3       -2.94369   0.00066  -0.01616  -0.39880  -0.41493   2.92456
    D4       -0.82600   0.00001  -0.01603  -0.40560  -0.42161  -1.24761
    D5        1.25618   0.00049  -0.01709  -0.40727  -0.42437   0.83181
    D6        0.24326  -0.00040  -0.01552  -0.40831  -0.42383  -0.18056
    D7        2.36096  -0.00105  -0.01539  -0.41510  -0.43050   1.93045
    D8       -1.84005  -0.00057  -0.01645  -0.41677  -0.43326  -2.27331
         Item               Value     Threshold  Converged?
 Maximum Force            0.001979     0.000450     NO 
 RMS     Force            0.000862     0.000300     NO 
 Maximum Displacement     0.459847     0.001800     NO 
 RMS     Displacement     0.221426     0.001200     NO 
 Predicted change in Energy=-4.202968D-04
 Lowest energy point so far.  Saving SCF results.
 GradGradGradGradGradGradGradGradGradGradGradGradGradGradGradGradGradGrad

 Leave Link  103 at Sun May 25 04:14:58 2025, MaxMem=  3758096384 cpu:               0.0 elap:               0.0
 (Enter /apps/easybuild-2022/easybuild/software/Compiler/NVHPC/22.11-CUDA-11.7.0/Gaussian/g16c01-CUDA-11.7.0/g16/l202.exe)
                          Input orientation:                          
 ---------------------------------------------------------------------
 Center     Atomic      Atomic             Coordinates (Angstroms)
 Number     Number       Type             X           Y           Z
 ---------------------------------------------------------------------
      1          6           0        0.944813    0.365643    0.014716
      2          8           0        1.662458   -0.475292   -0.722892
      3          6           0       -0.536841   -0.075095    0.004873
      4          9           0       -1.217796    0.570739    0.926342
      5          9           0       -1.089343    0.155253   -1.182731
      6          9           0       -0.613178   -1.385163    0.251526
      7          8           0        1.362092    1.293498    0.627753
      8          1           0        2.591705   -0.214993   -0.660633
 ---------------------------------------------------------------------
                    Distance matrix (angstroms):
                    1          2          3          4          5
     1  C    0.000000
     2  O    1.329003   0.000000
     3  C    1.545848   2.350896   0.000000
     4  F    2.355845   3.479944   1.315259   0.000000
     5  F    2.369796   2.860323   1.329933   2.153443   0.000000
     6  F    2.355575   2.637399   1.335269   2.155572   2.157940
     7  O    1.187792   2.245680   2.422182   2.695803   3.253150
     8  H    1.872294   0.967023   3.201604   4.200971   3.736279
                    6          7          8
     6  F    0.000000
     7  O    3.349396   0.000000
     8  H    3.531658   2.333973   0.000000
 Symmetry turned off by external request.
 Stoichiometry    C2HF3O2
 Rotational constants (GHZ):           3.8994978           2.5082077           2.0823417
 Leave Link  202 at Sun May 25 04:14:58 2025, MaxMem=  3758096384 cpu:               0.0 elap:               0.0
 (Enter /apps/easybuild-2022/easybuild/software/Compiler/NVHPC/22.11-CUDA-11.7.0/Gaussian/g16c01-CUDA-11.7.0/g16/l301.exe)
 Standard basis: def2TZVPP (5D, 7F)
 Ernie: Thresh=  0.10000D-02 Tol=  0.10000D-05 Strict=F.
   231 basis functions,   374 primitive gaussians,   267 cartesian basis functions
    28 alpha electrons       28 beta electrons
       nuclear repulsion energy       338.3500069387 Hartrees.
 IExCor= 4336 DFT=T Ex+Corr=M062X ExCW=0 ScaHFX=  0.540000
 ScaDFX=  1.000000  1.000000  1.000000  1.000000 ScalE2=  1.000000  1.000000
 IRadAn=      5 IRanWt=     -1 IRanGd=            0 ICorTp=0 IEmpDi=  4
 NAtoms=    8 NActive=    8 NUniq=    8 SFac= 1.00D+00 NAtFMM=   60 NAOKFM=F Big=F
 Integral buffers will be    131072 words long.
 Raffenetti 2 integral format.
 Two-electron integral symmetry is turned off.
 Leave Link  301 at Sun May 25 04:14:58 2025, MaxMem=  3758096384 cpu:               0.0 elap:               0.0
 (Enter /apps/easybuild-2022/easybuild/software/Compiler/NVHPC/22.11-CUDA-11.7.0/Gaussian/g16c01-CUDA-11.7.0/g16/l302.exe)
 NPDir=0 NMtPBC=     1 NCelOv=     1 NCel=       1 NClECP=     1 NCelD=      1
         NCelK=      1 NCelE2=     1 NClLst=     1 CellRange=     0.0.
 One-electron integrals computed using PRISM.
   1 Symmetry operations used in ECPInt.
 ECPInt:  NShTT=    3486 NPrTT=   11183 LenC2=    3404 LenP2D=    8714.
 LDataN:  DoStor=T MaxTD1= 6 Len=  172
 NBasis=   231 RedAO= T EigKep=  5.60D-04  NBF=   231
 NBsUse=   231 1.00D-06 EigRej= -1.00D+00 NBFU=   231
 Precomputing XC quadrature grid using
 IXCGrd= 4 IRadAn=           5 IRanWt=          -1 IRanGd=           0 AccXCQ= 0.00D+00.
 Generated NRdTot=       0 NPtTot=           0 NUsed=           0 NTot=          32
 NSgBfM=   266   266   266   266   266 MxSgAt=     8 MxSgA2=     8.
 Leave Link  302 at Sun May 25 04:14:58 2025, MaxMem=  3758096384 cpu:               0.6 elap:               0.1
 (Enter /apps/easybuild-2022/easybuild/software/Compiler/NVHPC/22.11-CUDA-11.7.0/Gaussian/g16c01-CUDA-11.7.0/g16/l303.exe)
 DipDrv:  MaxL=1.
 Leave Link  303 at Sun May 25 04:14:58 2025, MaxMem=  3758096384 cpu:               0.1 elap:               0.0
 (Enter /apps/easybuild-2022/easybuild/software/Compiler/NVHPC/22.11-CUDA-11.7.0/Gaussian/g16c01-CUDA-11.7.0/g16/l401.exe)
 Initial guess from the checkpoint file:  "1141903082400600000001_r12_insertion_R_8_7_1_IRC_F_prod.chk"
 B after Tr=    -0.003600    0.019263   -0.024489
         Rot=    0.999773   -0.013833   -0.013496   -0.008957 Ang=  -2.44 deg.
 Guess basis will be translated and rotated to current coordinates.
 JPrj=2 DoOrth=T DoCkMO=T.
 Generating alternative initial guess.
 ExpMin= 9.52D-02 ExpMax= 3.55D+04 ExpMxC= 1.21D+03 IAcc=3 IRadAn=         5 AccDes= 0.00D+00
 Harris functional with IExCor= 1009 and IRadAn=       5 diagonalized for initial guess.
 HarFok:  IExCor= 1009 AccDes= 0.00D+00 IRadAn=         5 IDoV= 1 UseB2=F ITyADJ=14
 ICtDFT=  3500011 ScaDFX=  1.000000  1.000000  1.000000  1.000000
 FoFCou: FMM=F IPFlag=           0 FMFlag=      100000 FMFlg1=           0
         NFxFlg=           0 DoJE=T BraDBF=F KetDBF=T FulRan=T
         wScrn=  0.000000 ICntrl=       500 IOpCl=  0 I1Cent=   200000004 NGrid=           0
         NMat0=    1 NMatS0=      1 NMatT0=    0 NMatD0=    1 NMtDS0=    0 NMtDT0=    0
 Symmetry not used in FoFCou.
 Harris En= -526.546953526633    
 Leave Link  401 at Sun May 25 04:14:59 2025, MaxMem=  3758096384 cpu:               2.1 elap:               0.3
 (Enter /apps/easybuild-2022/easybuild/software/Compiler/NVHPC/22.11-CUDA-11.7.0/Gaussian/g16c01-CUDA-11.7.0/g16/l502.exe)
 Keep R1 ints in memory in canonical form, NReq=368651279.
 FoFCou: FMM=F IPFlag=           0 FMFlag=           0 FMFlg1=           0
         NFxFlg=           0 DoJE=F BraDBF=F KetDBF=F FulRan=T
         wScrn=  0.000000 ICntrl=       600 IOpCl=  0 I1Cent=           0 NGrid=           0
         NMat0=    1 NMatS0=  26796 NMatT0=    0 NMatD0=    1 NMtDS0=    0 NMtDT0=    0
 Symmetry not used in FoFCou.
 Two-electron integral symmetry not used.
 Closed shell SCF:
 Using DIIS extrapolation, IDIIS=  1040.
 NGot=  3758096384 LenX=  3398923531 LenY=  3398851801
 Requested convergence on RMS density matrix=1.00D-08 within  32 cycles.
 Requested convergence on MAX density matrix=1.00D-06.
 Requested convergence on             energy=1.00D-06.
 No special actions if energy rises.
 Integral accuracy reduced to 1.0D-05 until final iterations.

 Cycle   1  Pass 0  IDiag  1:
 E= -526.751756107081    
 DIIS: error= 1.52D-02 at cycle   1 NSaved=   1.
 NSaved= 1 IEnMin= 1 EnMin= -526.751756107081     IErMin= 1 ErrMin= 1.52D-02
 ErrMax= 1.52D-02  0.00D+00 EMaxC= 1.00D-01 BMatC= 7.33D-02 BMatP= 7.33D-02
 IDIUse=3 WtCom= 8.48D-01 WtEn= 1.52D-01
 Coeff-Com:  0.100D+01
 Coeff-En:   0.100D+01
 Coeff:      0.100D+01
 Recover alternate guess density for next cycle.
 RMSDP=1.96D-03 MaxDP=5.23D-02              OVMax= 0.00D+00

 Cycle   2  Pass 0  IDiag  1:
 E= -526.708859133486     Delta-E=        0.042896973595 Rises=F Damp=F
 Switch densities from cycles 1 and 2 for lowest energy.
 DIIS: error= 2.53D-02 at cycle   2 NSaved=   2.
 NSaved= 2 IEnMin= 1 EnMin= -526.751756107081     IErMin= 1 ErrMin= 1.52D-02
 ErrMax= 2.53D-02  0.00D+00 EMaxC= 1.00D+00 BMatC= 2.78D-01 BMatP= 7.33D-02
 IDIUse=1 WtCom= 1.00D+00 WtEn= 0.00D+00
 Coeff-Com:  0.816D+00 0.184D+00
 Coeff:      0.816D+00 0.184D+00
 Gap=     0.398 Goal=   None    Shift=    0.000
 RMSDP=1.16D-03 MaxDP=3.86D-02 DE= 4.29D-02 OVMax= 1.12D-01

 Cycle   3  Pass 0  IDiag  1:
 E= -526.838344756086     Delta-E=       -0.129485622600 Rises=F Damp=F
 DIIS: error= 6.00D-03 at cycle   3 NSaved=   3.
 NSaved= 3 IEnMin= 3 EnMin= -526.838344756086     IErMin= 3 ErrMin= 6.00D-03
 ErrMax= 6.00D-03  0.00D+00 EMaxC= 1.00D+00 BMatC= 1.85D-02 BMatP= 7.33D-02
 IDIUse=1 WtCom= 1.00D+00 WtEn= 0.00D+00
 Coeff-Com: -0.216D-01 0.187D+00 0.834D+00
 Coeff:     -0.216D-01 0.187D+00 0.834D+00
 Gap=     0.410 Goal=   None    Shift=    0.000
 RMSDP=3.70D-04 MaxDP=1.49D-02 DE=-1.29D-01 OVMax= 2.82D-02

 Cycle   4  Pass 0  IDiag  1:
 E= -526.850878198915     Delta-E=       -0.012533442829 Rises=F Damp=F
 DIIS: error= 2.75D-03 at cycle   4 NSaved=   4.
 NSaved= 4 IEnMin= 4 EnMin= -526.850878198915     IErMin= 4 ErrMin= 2.75D-03
 ErrMax= 2.75D-03  0.00D+00 EMaxC= 1.00D+00 BMatC= 1.83D-03 BMatP= 1.85D-02
 IDIUse=1 WtCom= 1.00D+00 WtEn= 0.00D+00
 Coeff-Com: -0.415D-01 0.160D-01 0.264D+00 0.761D+00
 Coeff:     -0.415D-01 0.160D-01 0.264D+00 0.761D+00
 Gap=     0.402 Goal=   None    Shift=    0.000
 RMSDP=1.23D-04 MaxDP=5.57D-03 DE=-1.25D-02 OVMax= 1.35D-02

 Cycle   5  Pass 0  IDiag  1:
 E= -526.852088994023     Delta-E=       -0.001210795108 Rises=F Damp=F
 DIIS: error= 1.03D-03 at cycle   5 NSaved=   5.
 NSaved= 5 IEnMin= 5 EnMin= -526.852088994023     IErMin= 5 ErrMin= 1.03D-03
 ErrMax= 1.03D-03  0.00D+00 EMaxC= 1.00D+00 BMatC= 2.72D-04 BMatP= 1.83D-03
 IDIUse=1 WtCom= 1.00D+00 WtEn= 0.00D+00
 Coeff-Com: -0.178D-01-0.390D-02 0.719D-01 0.384D+00 0.566D+00
 Coeff:     -0.178D-01-0.390D-02 0.719D-01 0.384D+00 0.566D+00
 Gap=     0.405 Goal=   None    Shift=    0.000
 RMSDP=4.07D-05 MaxDP=1.48D-03 DE=-1.21D-03 OVMax= 4.67D-03

 Cycle   6  Pass 0  IDiag  1:
 E= -526.852278462786     Delta-E=       -0.000189468763 Rises=F Damp=F
[...]
     12  0.138963D-01  0.272392D-01 -0.108889D-01  0.299884D-03  0.131924D-01
     13 -0.539440D-04  0.101309D-01  0.124535D-01 -0.111850D-02 -0.303691D-01
     14 -0.975088D-04  0.101271D-01  0.123953D-01 -0.108407D-02 -0.302371D-01
     15 -0.490333D-02 -0.183634D-01 -0.405289D-02  0.752996D-03  0.254236D-01
     16 -0.490326D-02 -0.183529D-01 -0.403082D-02  0.756813D-03  0.254424D-01
     17 -0.440163D-02 -0.122339D-01 -0.619075D-02  0.441793D-03 -0.232605D-02
     18 -0.180814D-04 -0.241132D-04  0.426054D-05 -0.958243D-04 -0.277545D-04
     19 -0.259657D-04 -0.109762D-04  0.210151D-04 -0.720573D-04  0.000000D+00
     20 -0.143383D-04  0.112217D-04 -0.110858D-04  0.122281D-04  0.635802D-04
     21  0.277680D-02  0.117383D-02 -0.403981D-02  0.422605D-03  0.206508D-01
     22 -0.277698D-02 -0.116099D-02  0.402725D-02 -0.425056D-03 -0.206314D-01
     23 -0.100010D-04  0.000000D+00 -0.287437D-04 -0.985515D-05  0.359309D-04
     24  0.278114D-02  0.116339D-02 -0.405747D-02  0.400521D-03  0.206231D-01
     25 -0.277265D-02 -0.117144D-02  0.400959D-02 -0.447139D-03 -0.206591D-01
                6             7             8             9            10 
      6  0.439110D+00
      7  0.570477D-01  0.438456D+00
      8 -0.343968D-02 -0.359000D-02  0.155484D+00
      9 -0.894755D-02 -0.889828D-02 -0.980150D-01  0.185982D+00
     10  0.123876D-01  0.124879D-01 -0.574690D-01 -0.879671D-01  0.145436D+00
     11  0.189793D-03  0.233711D-03  0.258901D-01 -0.288102D-01  0.292018D-02
     12 -0.306692D-01 -0.305307D-01  0.167798D-01 -0.938519D-02 -0.739464D-02
     13  0.175994D-01 -0.282443D-01 -0.303249D-02 -0.660110D-02  0.963412D-02
     14 -0.284724D-01  0.171271D-01 -0.320309D-02 -0.641287D-02  0.961543D-02
     15  0.241361D-01 -0.361617D-02 -0.531576D-02  0.814126D-02 -0.282558D-02
     16 -0.355142D-02  0.242325D-01 -0.529394D-02  0.812082D-02 -0.282681D-02
     17  0.223216D-01  0.223981D-01 -0.317218D-03  0.680408D-02 -0.648686D-02
     18 -0.287656D-02  0.299672D-02  0.105174D-03 -0.666868D-04 -0.395471D-04
     19  0.163681D-02 -0.162807D-02  0.357334D-04 -0.182172D-04 -0.165128D-04
     20 -0.189103D-01  0.187539D-01 -0.101323D-03  0.748912D-04  0.273222D-04
     21  0.276039D-02 -0.235522D-01  0.211229D-02 -0.689514D-04 -0.204220D-02
     22  0.235488D-01 -0.282234D-02 -0.223169D-02  0.122621D-03  0.211021D-02
     23 -0.232461D-01  0.231993D-01 -0.316502D-04  0.118055D-04  0.187523D-04
     24 -0.157545D-02 -0.191068D-01  0.218196D-02 -0.132037D-03 -0.205077D-02
     25  0.192130D-01  0.162306D-02 -0.216202D-02  0.595349D-04  0.210164D-02
               11            12            13            14            15 
     11  0.167212D+00
     12  0.605034D-02  0.203223D+00
     13 -0.275183D-02 -0.509422D-02  0.179312D+00
     14 -0.259196D-02 -0.495013D-02  0.117529D-01  0.179319D+00
     15 -0.512545D-03 -0.915187D-01 -0.868289D-01 -0.169910D-01  0.140341D+00
     16 -0.530234D-03 -0.914953D-01 -0.169743D-01 -0.867902D-01  0.309227D-01
     17  0.279667D-03 -0.165392D-01 -0.872906D-01 -0.874714D-01  0.298303D-01
     18 -0.181754D-03 -0.708927D-04 -0.463226D-02  0.467594D-02  0.497429D-03
     19 -0.126879D-03 -0.222228D-04  0.204636D-02 -0.201756D-02 -0.475695D-03
     20  0.533537D-04  0.100201D-03 -0.534686D-02  0.531969D-02 -0.306469D-01
     21  0.153245D-02  0.134787D-01 -0.131560D-02 -0.114532D-01  0.293900D-01
     22 -0.150641D-02 -0.133929D-01  0.114975D-01  0.114455D-02  0.602538D-03
     23  0.258647D-05  0.536095D-04 -0.117637D-01  0.117527D-01 -0.297124D-01
     24  0.148168D-02  0.134321D-01 -0.773241D-02 -0.502022D-02  0.303244D-01
     25 -0.155718D-02 -0.134395D-01  0.508069D-02  0.757754D-02  0.153699D-02
               16            17            18            19            20 
     16  0.140219D+00
     17  0.298743D-01  0.137208D+00
     18 -0.495179D-03  0.262212D-04  0.157293D-01
     19  0.472779D-03 -0.367982D-05  0.229493D-02  0.150106D-01
     20  0.306065D-01 -0.347332D-04 -0.559394D-02  0.569243D-02  0.342151D-01
     21 -0.621088D-03 -0.297095D-01 -0.800189D-02  0.640306D-02 -0.732277D-02
     22 -0.293207D-01  0.296996D-01 -0.794158D-02  0.641669D-02 -0.738292D-02
     23  0.296757D-01 -0.678521D-05  0.731567D-02 -0.652656D-02  0.233696D-01
     24 -0.155190D-02 -0.296815D-01  0.490772D-02 -0.581593D-02 -0.181683D-01
     25 -0.302515D-01  0.297276D-01  0.496803D-02 -0.580230D-02 -0.182285D-01
               21            22            23            24            25 
     21  0.370889D-01
     22 -0.783959D-02  0.369961D-01
     23 -0.211652D-01 -0.211803D-01  0.366712D-01
     24  0.232465D-01 -0.216369D-01 -0.786362D-02  0.335512D-01
     25 -0.216820D-01  0.231988D-01 -0.787869D-02 -0.113322D-01  0.335486D-01
 Leave Link  716 at Sun May 25 04:17:15 2025, MaxMem=  3758096384 cpu:               0.0 elap:               0.0
 (Enter /apps/easybuild-2022/easybuild/software/Compiler/NVHPC/22.11-CUDA-11.7.0/Gaussian/g16c01-CUDA-11.7.0/g16/l103.exe)

 GradGradGradGradGradGradGradGradGradGradGradGradGradGradGradGradGradGrad
 Berny optimization.
 Red2BG is reusing G-inverse.
 Internal  Forces:  Max     0.000014591 RMS     0.000004859
 Search for a local minimum.
 Step number   1 out of a maximum of    2
 All quantities printed in internal units (Hartrees-Bohrs-Radians)
 Second derivative matrix not updated -- analytic derivatives used.
 ITU=  0
     Eigenvalues ---    0.00086   0.01768   0.04788   0.12015   0.13828
     Eigenvalues ---    0.14817   0.18696   0.22169   0.23242   0.24894
     Eigenvalues ---    0.28991   0.39701   0.40343   0.42207   0.46459
     Eigenvalues ---    0.52947   0.58448   0.97939
 Angle between quadratic step and forces=  82.87 degrees.
 Linear search not attempted -- first point.
 Iteration  1 RMS(Cart)=  0.00029551 RMS(Int)=  0.00000005
 Iteration  2 RMS(Cart)=  0.00000005 RMS(Int)=  0.00000000
 ITry= 1 IFail=0 DXMaxC= 6.35D-04 DCOld= 1.00D+10 DXMaxT= 3.00D-01 DXLimC= 3.00D+00 Rises=F
 Variable       Old X    -DE/DX   Delta X   Delta X   Delta X     New X
                                 (Linear)    (Quad)   (Total)
    R1        2.51109  -0.00000   0.00000  -0.00001  -0.00001   2.51108
    R2        2.91760  -0.00000   0.00000  -0.00002  -0.00002   2.91758
    R3        2.24495  -0.00000   0.00000   0.00000   0.00000   2.24496
    R4        1.82752   0.00000   0.00000   0.00000   0.00000   1.82752
    R5        2.49320   0.00000   0.00000   0.00000   0.00000   2.49321
    R6        2.51449  -0.00001   0.00000  -0.00004  -0.00004   2.51445
    R7        2.51441  -0.00000   0.00000   0.00002   0.00002   2.51443
    A1        1.91702   0.00001   0.00000   0.00005   0.00005   1.91707
    A2        2.21144   0.00001   0.00000   0.00002   0.00002   2.21146
    A3        2.15473  -0.00001   0.00000  -0.00007  -0.00007   2.15466
    A4        1.89249  -0.00000   0.00000  -0.00002  -0.00002   1.89247
    A5        1.92573   0.00000   0.00000   0.00001   0.00001   1.92574
    A6        1.92423  -0.00000   0.00000   0.00005   0.00005   1.92428
    A7        1.92419   0.00000   0.00000  -0.00005  -0.00005   1.92414
    A8        1.89902   0.00000   0.00000   0.00003   0.00003   1.89905
    A9        1.89905  -0.00000   0.00000  -0.00002  -0.00002   1.89902
   A10        1.89093  -0.00000   0.00000  -0.00002  -0.00002   1.89092
    D1       -3.14117   0.00000   0.00000   0.00014   0.00014  -3.14103
    D2        0.00034   0.00000   0.00000   0.00009   0.00009   0.00043
    D3        3.14118  -0.00000   0.00000   0.00052   0.00052  -3.14149
    D4       -1.04394   0.00000   0.00000   0.00059   0.00059  -1.04334
    D5        1.04310   0.00000   0.00000   0.00058   0.00058   1.04368
    D6       -0.00033  -0.00000   0.00000   0.00057   0.00057   0.00024
    D7        2.09774   0.00000   0.00000   0.00064   0.00064   2.09838
    D8       -2.09841  -0.00000   0.00000   0.00062   0.00062  -2.09778
         Item               Value     Threshold  Converged?
 Maximum Force            0.000015     0.000450     YES
 RMS     Force            0.000005     0.000300     YES
 Maximum Displacement     0.000635     0.001800     YES
 RMS     Displacement     0.000296     0.001200     YES
 Predicted change in Energy=-2.198781D-09
 Optimization completed.
    -- Stationary point found.
                           ----------------------------
                           !   Optimized Parameters   !
                           ! (Angstroms and Degrees)  !
 --------------------------                            --------------------------
 ! Name  Definition              Value          Derivative Info.                !
 --------------------------------------------------------------------------------
 ! R1    R(1,2)                  1.3288         -DE/DX =    0.0                 !
 ! R2    R(1,3)                  1.5439         -DE/DX =    0.0                 !
 ! R3    R(1,7)                  1.188          -DE/DX =    0.0                 !
 ! R4    R(2,8)                  0.9671         -DE/DX =    0.0                 !
 ! R5    R(3,4)                  1.3193         -DE/DX =    0.0                 !
 ! R6    R(3,5)                  1.3306         -DE/DX =    0.0                 !
 ! R7    R(3,6)                  1.3306         -DE/DX =    0.0                 !
 ! A1    A(2,1,3)              109.8371         -DE/DX =    0.0                 !
 ! A2    A(2,1,7)              126.706          -DE/DX =    0.0                 !
 ! A3    A(3,1,7)              123.4569         -DE/DX =    0.0                 !
 ! A4    A(1,2,8)              108.4314         -DE/DX =    0.0                 !
 ! A5    A(1,3,4)              110.3364         -DE/DX =    0.0                 !
 ! A6    A(1,3,5)              110.2503         -DE/DX =    0.0                 !
 ! A7    A(1,3,6)              110.2481         -DE/DX =    0.0                 !
 ! A8    A(4,3,5)              108.8061         -DE/DX =    0.0                 !
 ! A9    A(4,3,6)              108.8074         -DE/DX =    0.0                 !
 ! A10   A(5,3,6)              108.3425         -DE/DX =    0.0                 !
 ! D1    D(3,1,2,8)           -179.9757         -DE/DX =    0.0                 !
 ! D2    D(7,1,2,8)              0.0193         -DE/DX =    0.0                 !
 ! D3    D(2,1,3,4)           -180.0238         -DE/DX =    0.0                 !
 ! D4    D(2,1,3,5)            -59.8131         -DE/DX =    0.0                 !
 ! D5    D(2,1,3,6)             59.7652         -DE/DX =    0.0                 !
 ! D6    D(7,1,3,4)             -0.019          -DE/DX =    0.0                 !
 ! D7    D(7,1,3,5)            120.1917         -DE/DX =    0.0                 !
 ! D8    D(7,1,3,6)           -120.2299         -DE/DX =    0.0                 !
 --------------------------------------------------------------------------------
 GradGradGradGradGradGradGradGradGradGradGradGradGradGradGradGradGradGrad

 Leave Link  103 at Sun May 25 04:17:15 2025, MaxMem=  3758096384 cpu:               0.0 elap:               0.0
 (Enter /apps/easybuild-2022/easybuild/software/Compiler/NVHPC/22.11-CUDA-11.7.0/Gaussian/g16c01-CUDA-11.7.0/g16/l9999.exe)

 ----------------------------------------------------------------------

 Electric dipole moment (input orientation):
 (Debye = 10**-18 statcoulomb cm , SI units = C m)
                  (au)            (Debye)         (10**-30 SI)
   Tot        0.882664D+00      0.224351D+01      0.748354D+01
   x          0.747662D+00      0.190037D+01      0.633894D+01
   y         -0.248606D+00     -0.631894D+00     -0.210777D+01
   z         -0.397860D+00     -0.101126D+01     -0.337320D+01

 Dipole polarizability, Alpha (input orientation).
 (esu units = cm**3 , SI units = C**2 m**2 J**-1)
 Alpha(0;0):
               (au)            (10**-24 esu)      (10**-40 SI)
   iso        0.317338D+02      0.470246D+01      0.523220D+01
   aniso      0.956863D+01      0.141792D+01      0.157765D+01
   xx         0.338217D+02      0.501187D+01      0.557645D+01
   yx         0.110643D+01      0.163956D+00      0.182426D+00
   yy         0.311741D+02      0.461952D+01      0.513991D+01
   zx        -0.894252D+00     -0.132514D+00     -0.147442D+00
   zy         0.499915D+01      0.740798D+00      0.824249D+00
   zz         0.302056D+02      0.447600D+01      0.498023D+01

 ----------------------------------------------------------------------

 Dipole orientation:
     6          1.09682058         -0.85683939          1.30669762
     8          0.17946344         -0.18539304          3.54571709
     6         -0.51507136          0.32524415         -0.81859287
     9          0.38066737         -0.32915645         -3.05141090
     9         -2.89836448         -0.45633731         -0.64051410
     9         -0.48915337          2.83303226         -0.63803676
     8          2.88138067         -2.16432454          0.92507080
     1          1.21559565         -0.94430585          4.84583906

 Electric dipole moment (dipole orientation):
 (Debye = 10**-18 statcoulomb cm , SI units = C m)
                  (au)            (Debye)         (10**-30 SI)
   Tot        0.882664D+00      0.224351D+01      0.748354D+01
   x          0.000000D+00      0.000000D+00      0.000000D+00
   y          0.000000D+00      0.000000D+00      0.000000D+00
   z          0.882664D+00      0.224351D+01      0.748354D+01

 Dipole polarizability, Alpha (dipole orientation).
 (esu units = cm**3 , SI units = C**2 m**2 J**-1)
 Alpha(0;0):
               (au)            (10**-24 esu)      (10**-40 SI)
   iso        0.317338D+02      0.470246D+01      0.523220D+01
   aniso      0.956863D+01      0.141792D+01      0.157765D+01
   xx         0.319665D+02      0.473695D+01      0.527057D+01
   yx        -0.478387D+01     -0.708897D+00     -0.788754D+00
   yy         0.289336D+02      0.428752D+01      0.477051D+01
   zx        -0.501201D+00     -0.742704D-01     -0.826369D-01
   zy         0.373369D+00      0.553275D-01      0.615602D-01
   zz         0.343013D+02      0.508292D+01      0.565551D+01

 ----------------------------------------------------------------------
 Unable to Open any file for archive entry.
 1\1\GINC-SPARTAN-BM143\Freq\RM062X\def2TZVPP\C2H1F3O2\AKHALILOV\25-May
 -2025\0\\#P Geom=AllCheck Guess=TCheck SCRF=Check GenChk RM062X/def2TZ
 VPP Freq\\Gaussian input prepared by ASE\\0,1\C,0.9536377205,0.3293180
 704,0.0522497032\O,1.6534662826,-0.4201133152,-0.7929356708\C,-0.53299
 23158,-0.0855163107,0.0128562222\F,-1.2373066281,0.652582494,0.8494127
 393\F,-1.0225959544,0.071519072,-1.2143990298\F,-0.6633635625,-1.36467
 01823,0.3551800414\O,1.3736616706,1.1955535315,0.7483149866\H,2.579402
 7871,-0.1440833597,-0.7517249921\\Version=ES64L-G16RevC.01\HF=-526.852
 7718\RMSD=1.867e-09\RMSF=5.939e-06\ZeroPoint=0.0399894\Thermal=0.04614
 11\ETot=-526.8066307\HTot=-526.8056865\GTot=-526.8439266\Dipole=0.7476
 617,-0.2486063,-0.3978601\DipoleDeriv=1.0673813,-0.0589718,-0.2406626,
 -0.057868,1.0794192,0.7743291,-0.24117,0.7745011,1.0101764,-0.7630902,
 0.3778718,0.4437849,0.2056438,-0.6288006,-0.3171784,0.286798,-0.356777
 9,-0.7243652,1.442668,-0.0638091,0.0080908,-0.1047084,1.6577742,-0.046
 3683,-0.0316256,-0.0563698,1.6897055,-0.5665296,0.2032331,0.2507857,0.
 1602455,-0.4562105,-0.1949377,0.2121004,-0.2045883,-0.5190752,-0.48933
 55,-0.0005024,-0.2701666,-0.0041581,-0.2997369,0.0562345,-0.2146297,0.
 0739273,-0.8093895,-0.3943989,-0.1452617,0.0203771,-0.08819,-0.8770459
 ,0.1622133,0.0147929,0.1566964,-0.3257481,-0.6474308,-0.2524492,-0.157
 151,-0.0580461,-0.769285,-0.3944695,0.0218892,-0.3494484,-0.6479756,0.
 3507357,-0.0601108,-0.0550583,-0.0529186,0.2938855,-0.0398231,-0.04815
 52,-0.0379405,0.3266716\Polar=33.8217455,1.1064308,31.1740753,-0.89425
 17,4.999154,30.2055716\PG=Unknown\NImag=0\\0.68540281,0.16287853,0.708
 91561,0.04566661,0.39772686,0.58637894,-0.20609509,0.06103561,0.087859
 01,0.66167648,0.04668871,-0.15283139,-0.09052435,0.05906038,0.25877012
 ,0.07470042,-0.09375434,-0.16837595,-0.08800327,0.18700697,0.23084559,
 -0.20361896,-0.02663833,0.00506444,-0.01445878,-0.00275254,0.00220028,
 0.63596906,-0.03518571,-0.06425951,0.01771173,0.02775756,0.00129429,-0
 .01100188,0.00358163,0.57562187,-0.00258315,0.01574805,-0.05989805,0.0
 3010919,-0.00399298,-0.00414584,-0.01828946,0.03190791,0.57353206,-0.0
 1899314,0.02988829,0.03367596,-0.01429930,-0.00257216,0.00102677,-0.18
 178935,0.06926881,0.08776288,0.18356602,-0.00039123,-0.00363045,-0.011
 20561,0.00122525,0.00229140,0.00139413,0.08130691,-0.14239746,-0.08018
 093,-0.11510843,0.20400739,0.00592675,-0.01815317,-0.00924804,0.004514
 97,0.00225720,0.00148792,0.09875743,-0.07741272,-0.16846970,-0.1282557
 4,0.13721612,0.23771581,-0.00164260,0.00831349,-0.04359748,-0.00459735
 ,0.00008621,0.00347197,-0.14184936,0.00877817,-0.09682992,0.02096408,-
 0.00041280,0.01981132,0.12038346,-0.00152045,0.00816895,-0.00695938,-0
 .00115801,0.00044819,0.00087101,0.00442785,-0.07508260,0.01272891,-0.0
 0332183,0.00818865,-0.03043430,-0.01945361,0.08360596,-0.00163002,0.00
 324871,-0.02681265,-0.00415121,0.00102627,0.00570548,-0.10169304,0.015
 16182,-0.25419611,0.00445195,-0.02247829,-0.07758657,0.12195325,-0.037
 44624,0.38670624,0.00923436,-0.03444437,0.01106994,-0.00388300,0.00119
 819,0.00066083,-0.09840177,-0.05135221,0.01608439,0.01112961,0.0345713
 2,0.00047230,0.01598407,0.02073072,-0.01102714,0.07418232,0.00816286,-
 0.03511539,0.00837577,-0.00617188,0.00516133,0.00191533,-0.05590412,-0
 .28509188,0.05474235,0.02150141,-0.07231281,-0.01806609,0.01235509,-0.
 02484849,0.04467255,0.03127045,0.41228562,-0.00100594,0.00566776,0.005
 44075,0.00038182,-0.00022860,0.00029961,0.01298147,0.05028481,-0.08700
 225,0.00118184,-0.02966289,0.01289712,-0.00536548,0.05866513,-0.036368
 35,-0.01094812,-0.08778317,0.10353714,-0.22731661,-0.19932493,-0.14757
 678,0.03933751,0.01841612,0.01467622,0.00438532,-0.02512375,-0.0195238
 6,-0.00021257,-0.00137232,-0.00142558,-0.01023900,0.00047636,-0.007718
 83,-0.00898760,-0.01094606,0.00332665,0.19876336,-0.21238822,-0.474470
 19,-0.31608368,0.01266054,-0.04071457,-0.06741744,-0.00487286,-0.00981
 847,-0.02598910,-0.00116635,0.00409391,0.00495176,-0.00903500,-0.00019
 792,-0.00397601,-0.00218488,-0.00085172,0.00257595,0.22188887,0.526433
 16,-0.15953669,-0.31905430,-0.33081380,0.00941717,-0.06872516,-0.03515
 774,-0.00098388,-0.02135717,0.00051589,-0.00126112,0.00497578,0.003807
 95,0.00044580,0.00188080,0.00179379,-0.00549860,-0.00344358,0.00123976
 ,0.16421088,0.40356119,0.36092085,-0.03697076,-0.00170830,0.00783830,-
 0.45768046,-0.12012490,-0.00873323,-0.00023615,0.00227550,0.00326994,-
 0.00036535,0.00018130,0.00019856,0.00099668,-0.00018103,-0.00018496,0.
 00074202,-0.00026774,-0.00055223,0.00426959,-0.00490212,-0.00679356,0.
 48924443,0.03175550,0.01322236,0.00095866,-0.15440945,-0.07441937,-0.0
 1901378,0.00085146,-0.00026624,-0.00496422,0.00151026,-0.00024063,-0.0
 0035880,-0.00063155,-0.00028274,-0.00020881,0.00021078,0.00077334,0.00
 048102,-0.00401430,-0.00447420,0.00216244,0.12472729,0.06568747,0.0384
 6203,0.00857043,0.00332879,-0.04012768,-0.02681935,-0.03065907,0.00196
 277,-0.00529450,-0.00033600,0.00141745,-0.00005832,-0.00060450,0.00011
 054,0.00069408,0.00075817,-0.00081360,-0.00041317,-0.00004379,-0.00596
 869,0.00237734,-0.00230670,0.00495718,0.02094350,0.02986309\\-0.000008
 47,0.00001118,0.00000784,0.00000188,-0.00000043,0.00000246,0.00000071,
 -0.00001573,0.00000708,0.00000117,0.00000147,-0.00000455,-0.00000586,0
 .00000581,-0.00000992,0.00000161,-0.00000189,0.00000058,0.00000877,-0.
 00000042,-0.00000196,0.00000019,0.,-0.00000153\\\@
 The archive entry for this job was punched.


 Happiness is a conscious choice, not an automatic response.
 -- Mildred Barthel
 Job cpu time:       0 days  0 hours  9 minutes 59.7 seconds.
 Elapsed time:       0 days  0 hours  1 minutes 16.7 seconds.
 File lengths (MBytes):  RWF=     48 Int=      0 D2E=      0 Chk=      5 Scr=      1
 Normal termination of Gaussian 16 at Sun May 25 04:17:15 2025.
done
