 Entering Gaussian System, Link 0=g16
 Initial command:
 /apps/easybuild-2022/easybuild/software/Compiler/NVHPC/22.11-CUDA-11.7.0/Gaussian/g16c01-CUDA-11.7.0/g16/l1.exe "/tmp/Gau-150364.inp" -scrdir="/tmp/"
 Entering Link 1 = /apps/easybuild-2022/easybuild/software/Compiler/NVHPC/22.11-CUDA-11.7.0/Gaussian/g16c01-CUDA-11.7.0/g16/l1.exe PID=    150365.
  
 Copyright (c) 1988-2019, Gaussian, Inc.  All Rights Reserved.
  
 This is part of the Gaussian(R) 16 program.  It is based on
 the Gaussian(R) 09 system (copyright 2009, Gaussian, Inc.),
 the Gaussian(R) 03 system (copyright 2003, Gaussian, Inc.),
 the Gaussian(R) 98 system (copyright 1998, Gaussian, Inc.),
 the Gaussian(R) 94 system (copyright 1995, Gaussian, Inc.),
 the Gaussian 92(TM) system (copyright 1992, Gaussian, Inc.),
 the Gaussian 90(TM) system (copyright 1990, Gaussian, Inc.),
 the Gaussian 88(TM) system (copyright 1988, Gaussian, Inc.),
 the Gaussian 86(TM) system (copyright 1986, Carnegie Mellon
 University), and the Gaussian 82(TM) system (copyright 1983,
 Carnegie Mellon University). Gaussian is a federally registered
 trademark of Gaussian, Inc.
  
 This software contains proprietary and confidential information,
 including trade secrets, belonging to Gaussian, Inc.
  
 This software is provided under written license and may be
 used, copied, transmitted, or stored only in accord with that
 written license.
  
 The following legend is applicable only to US Government
 contracts under FAR:
  
                    RESTRICTED RIGHTS LEGEND
  
 Use, reproduction and disclosure by the US Government is
 subject to restrictions as set forth in subparagraphs (a)
 and (c) of the Commercial Computer Software - Restricted
 Rights clause in FAR 52.227-19.
  
 Gaussian, Inc.
 340 Quinnipiac St., Bldg. 40, Wallingford CT 06492
  
  
 ---------------------------------------------------------------
 Warning -- This program may not be used in any manner that
 competes with the business of Gaussian, Inc. or will provide
 assistance to any competitor of Gaussian, Inc.  The licensee
 of this program is prohibited from giving any competitor of
 Gaussian, Inc. access to this program.  By using this program,
 the user acknowledges that Gaussian, Inc. is engaged in the
 business of creating and licensing software in the field of
 computational chemistry and represents and warrants to the
 licensee that it is not a competitor of Gaussian, Inc. and that
 it will not use this program in any manner prohibited above.
 ---------------------------------------------------------------
  

 Cite this work as:
 Gaussian 16, Revision C.01,
 M. J. Frisch, G. W. Trucks, H. B. Schlegel, G. E. Scuseria, 
 M. A. Robb, J. R. Cheeseman, G. Scalmani, V. Barone, 
 G. A. Petersson, H. Nakatsuji, X. Li, M. Caricato, A. V. Marenich, 
 J. Bloino, B. G. Janesko, R. Gomperts, B. Mennucci, H. P. Hratchian, 
 J. V. Ortiz, A. F. Izmaylov, J. L. Sonnenberg, D. Williams-Young, 
 F. Ding, F. Lipparini, F. Egidi, J. Goings, B. Peng, A. Petrone, 
 T. Henderson, D. Ranasinghe, V. G. Zakrzewski, J. Gao, N. Rega, 
 G. Zheng, W. Liang, M. Hada, M. Ehara, K. Toyota, R. Fukuda, 
 J. Hasegawa, M. Ishida, T. Nakajima, Y. Honda, O. Kitao, H. Nakai, 
 T. Vreven, K. Throssell, J. A. Montgomery, Jr., J. E. Peralta, 
 F. Ogliaro, M. J. Bearpark, J. J. Heyd, E. N. Brothers, K. N. Kudin, 
 V. N. Staroverov, T. A. Keith, R. Kobayashi, J. Normand, 
 K. Raghavachari, A. P. Rendell, J. C. Burant, S. S. Iyengar, 
 J. Tomasi, M. Cossi, J. M. Millam, M. Klene, C. Adamo, R. Cammi, 
 J. W. Ochterski, R. L. Martin, K. Morokuma, O. Farkas, 
 J. B. Foresman, and D. J. Fox, Gaussian, Inc., Wallingford CT, 2019.
 
 ******************************************
 Gaussian 16:  ES64L-G16RevC.01  3-Jul-2019
                25-May-2025 
 ******************************************
 %mem=28GB
 %chk=1141903082400600000001_intra_H_migration_2_8_IRC_R_prod
 %nprocshared=8
 Will use up to    8 processors via shared memory.
 -----------------------------------------------------------------
 #P M062X/Def2TZVPP Symm(None) scf(xqc) pop(None) freq opt(CalcFC)
 -----------------------------------------------------------------
 1/10=4,18=20,19=15,26=3,38=1/1,3;
 2/9=110,12=2,15=3,17=6,18=5,40=1/2;
 3/5=44,7=202,11=2,25=1,30=1,71=2,74=-55,140=1/1,2,3;
 4//1;
 5/5=2,8=3,13=1,38=5/2,8;
 8/6=4,10=90,11=11/1;
 11/6=1,8=1,9=11,15=111,16=1,31=1/1,2,10;
 10/6=1,13=1,31=1/2;
 7/10=1,25=1,30=1/1,2,3,16;
 1/10=4,18=20,19=15,26=3/3(2);
 2/9=110,15=3/2;
 99//99;
 2/9=110,15=3/2;
 3/5=44,7=202,11=2,25=1,30=1,71=1,74=-55/1,2,3;
 4/5=5,16=3,69=1/1;
 5/5=2,8=3,13=1,38=5/2,8;
 7/30=1/1,2,3,16;
 1/18=20,19=15,26=3/3(-5);
 2/9=110,15=3/2;
 99/9=1/99;
 Leave Link    1 at Sun May 25 04:14:34 2025, MaxMem=  3758096384 cpu:               0.1 elap:               0.0
 (Enter /apps/easybuild-2022/easybuild/software/Compiler/NVHPC/22.11-CUDA-11.7.0/Gaussian/g16c01-CUDA-11.7.0/g16/l101.exe)
 ------------------------------
 Gaussian input prepared by ASE
 ------------------------------
 Symbolic Z-matrix:
 Charge =  0 Multiplicity = 1
 C                    -0.42014   0.39223  -0.81338 
 O                     0.13275   0.03096  -1.96167 
 C                     0.20677  -0.21978   0.48132 
 F                     0.89715  -1.33083   0.2653 
 F                     1.02143   0.67824   1.03268 
 F                    -0.7616   -0.48795   1.34566 
 O                    -1.32468   1.16156  -0.7628 
 H                    -0.35273   0.5209   -2.64183 
 
 ITRead=  0  0  0  0  0  0  0  0
 MicOpt= -1 -1 -1 -1 -1 -1 -1 -1
 NAtoms=      8 NQM=        8 NQMF=       0 NMMI=      0 NMMIF=      0
                NMic=       0 NMicF=      0.
                    Isotopes and Nuclear Properties:
 (Nuclear quadrupole moments (NQMom) in fm**2, nuclear magnetic moments (NMagM)
  in nuclear magnetons)

  Atom         1           2           3           4           5           6           7           8
 IAtWgt=          12          16          12          19          19          19          16           1
 AtmWgt=  12.0000000  15.9949146  12.0000000  18.9984032  18.9984032  18.9984032  15.9949146   1.0078250
 NucSpn=           0           0           0           1           1           1           0           1
 AtZEff=  -0.0000000  -0.0000000  -0.0000000  -0.0000000  -0.0000000  -0.0000000  -0.0000000  -0.0000000
 NQMom=    0.0000000   0.0000000   0.0000000   0.0000000   0.0000000   0.0000000   0.0000000   0.0000000
 NMagM=    0.0000000   0.0000000   0.0000000   2.6288670   2.6288670   2.6288670   0.0000000   2.7928460
 AtZNuc=   6.0000000   8.0000000   6.0000000   9.0000000   9.0000000   9.0000000   8.0000000   1.0000000
 Leave Link  101 at Sun May 25 04:14:34 2025, MaxMem=  3758096384 cpu:               0.2 elap:               0.2
 (Enter /apps/easybuild-2022/easybuild/software/Compiler/NVHPC/22.11-CUDA-11.7.0/Gaussian/g16c01-CUDA-11.7.0/g16/l103.exe)

 GradGradGradGradGradGradGradGradGradGradGradGradGradGradGradGradGradGrad
 Berny optimization.
 Initialization pass.
                           ----------------------------
                           !    Initial Parameters    !
                           ! (Angstroms and Degrees)  !
 --------------------------                            --------------------------
 ! Name  Definition              Value          Derivative Info.                !
 --------------------------------------------------------------------------------
 ! R1    R(1,2)                  1.3247         calculate D2E/DX2 analytically  !
 ! R2    R(1,3)                  1.5633         calculate D2E/DX2 analytically  !
 ! R3    R(1,7)                  1.1885         calculate D2E/DX2 analytically  !
 ! R4    R(2,8)                  0.9687         calculate D2E/DX2 analytically  !
 ! R5    R(3,4)                  1.3258         calculate D2E/DX2 analytically  !
 ! R6    R(3,5)                  1.332          calculate D2E/DX2 analytically  !
 ! R7    R(3,6)                  1.3254         calculate D2E/DX2 analytically  !
 ! A1    A(2,1,3)              116.3444         calculate D2E/DX2 analytically  !
 ! A2    A(2,1,7)              122.0784         calculate D2E/DX2 analytically  !
 ! A3    A(3,1,7)              121.5579         calculate D2E/DX2 analytically  !
 ! A4    A(1,2,8)              105.1607         calculate D2E/DX2 analytically  !
 ! A5    A(1,3,4)              113.7008         calculate D2E/DX2 analytically  !
 ! A6    A(1,3,5)              108.9149         calculate D2E/DX2 analytically  !
 ! A7    A(1,3,6)              109.0446         calculate D2E/DX2 analytically  !
 ! A8    A(4,3,5)              108.2983         calculate D2E/DX2 analytically  !
 ! A9    A(4,3,6)              108.4905         calculate D2E/DX2 analytically  !
 ! A10   A(5,3,6)              108.2601         calculate D2E/DX2 analytically  !
 ! D1    D(3,1,2,8)           -178.05           calculate D2E/DX2 analytically  !
 ! D2    D(7,1,2,8)              0.3737         calculate D2E/DX2 analytically  !
 ! D3    D(2,1,3,4)            -21.1057         calculate D2E/DX2 analytically  !
 ! D4    D(2,1,3,5)             99.7503         calculate D2E/DX2 analytically  !
 ! D5    D(2,1,3,6)           -142.3008         calculate D2E/DX2 analytically  !
 ! D6    D(7,1,3,4)            160.4618         calculate D2E/DX2 analytically  !
 ! D7    D(7,1,3,5)            -78.6822         calculate D2E/DX2 analytically  !
 ! D8    D(7,1,3,6)             39.2667         calculate D2E/DX2 analytically  !
 --------------------------------------------------------------------------------
 Trust Radius=3.00D-01 FncErr=1.00D-07 GrdErr=1.00D-06 EigMax=2.50D+02 EigMin=1.00D-04
 Number of steps in this run=     35 maximum allowed number of steps=    100.
 GradGradGradGradGradGradGradGradGradGradGradGradGradGradGradGradGradGrad

 Leave Link  103 at Sun May 25 04:14:34 2025, MaxMem=  3758096384 cpu:               0.1 elap:               0.0
 (Enter /apps/easybuild-2022/easybuild/software/Compiler/NVHPC/22.11-CUDA-11.7.0/Gaussian/g16c01-CUDA-11.7.0/g16/l202.exe)
                          Input orientation:                          
 ---------------------------------------------------------------------
 Center     Atomic      Atomic             Coordinates (Angstroms)
 Number     Number       Type             X           Y           Z
 ---------------------------------------------------------------------
      1          6           0       -0.420139    0.392233   -0.813384
      2          8           0        0.132752    0.030955   -1.961665
      3          6           0        0.206772   -0.219778    0.481318
      4          9           0        0.897145   -1.330833    0.265295
      5          9           0        1.021434    0.678235    1.032679
      6          9           0       -0.761604   -0.487951    1.345659
      7          8           0       -1.324679    1.161560   -0.762796
      8          1           0       -0.352734    0.520895   -2.641827
 ---------------------------------------------------------------------
                    Distance matrix (angstroms):
                    1          2          3          4          5
     1  C    0.000000
     2  O    1.324673   0.000000
     3  C    1.563275   2.456931   0.000000
     4  F    2.422342   2.719947   1.325792   0.000000
     5  F    2.359635   3.189800   1.331954   2.154224   0.000000
     6  F    2.356436   3.465188   1.325426   2.151531   2.153409
     7  O    1.188535   2.199923   2.408580   3.493636   2.993590
     8  H    1.834203   0.968689   3.258171   3.666395   3.926205
                    6          7          8
     6  F    0.000000
     7  O    2.735603   0.000000
     8  H    4.133399   2.210404   0.000000
 Symmetry turned off by external request.
 Stoichiometry    C2HF3O2
 Rotational constants (GHZ):           3.9644269           2.4106473           2.0297389
 Leave Link  202 at Sun May 25 04:14:34 2025, MaxMem=  3758096384 cpu:               0.1 elap:               0.0
 (Enter /apps/easybuild-2022/easybuild/software/Compiler/NVHPC/22.11-CUDA-11.7.0/Gaussian/g16c01-CUDA-11.7.0/g16/l301.exe)
 Standard basis: def2TZVPP (5D, 7F)
 Ernie: Thresh=  0.10000D-02 Tol=  0.10000D-05 Strict=F.
   231 basis functions,   374 primitive gaussians,   267 cartesian basis functions
    28 alpha electrons       28 beta electrons
       nuclear repulsion energy       336.5002027397 Hartrees.
 IExCor= 4336 DFT=T Ex+Corr=M062X ExCW=0 ScaHFX=  0.540000
 ScaDFX=  1.000000  1.000000  1.000000  1.000000 ScalE2=  1.000000  1.000000
 IRadAn=      5 IRanWt=     -1 IRanGd=            0 ICorTp=0 IEmpDi=  4
 NAtoms=    8 NActive=    8 NUniq=    8 SFac= 1.00D+00 NAtFMM=   60 NAOKFM=F Big=F
 Integral buffers will be    131072 words long.
 Raffenetti 2 integral format.
 Two-electron integral symmetry is turned off.
 Leave Link  301 at Sun May 25 04:14:35 2025, MaxMem=  3758096384 cpu:               0.1 elap:               0.0
 (Enter /apps/easybuild-2022/easybuild/software/Compiler/NVHPC/22.11-CUDA-11.7.0/Gaussian/g16c01-CUDA-11.7.0/g16/l302.exe)
 NPDir=0 NMtPBC=     1 NCelOv=     1 NCel=       1 NClECP=     1 NCelD=      1
         NCelK=      1 NCelE2=     1 NClLst=     1 CellRange=     0.0.
 One-electron integrals computed using PRISM.
   1 Symmetry operations used in ECPInt.
 ECPInt:  NShTT=    3486 NPrTT=   11183 LenC2=    3398 LenP2D=    8674.
 LDataN:  DoStor=T MaxTD1= 6 Len=  172
 NBasis=   231 RedAO= T EigKep=  5.95D-04  NBF=   231
 NBsUse=   231 1.00D-06 EigRej= -1.00D+00 NBFU=   231
 Precomputing XC quadrature grid using
 IXCGrd= 4 IRadAn=           5 IRanWt=          -1 IRanGd=           0 AccXCQ= 0.00D+00.
 Generated NRdTot=       0 NPtTot=           0 NUsed=           0 NTot=          32
 NSgBfM=   266   266   266   266   266 MxSgAt=     8 MxSgA2=     8.
 Leave Link  302 at Sun May 25 04:14:35 2025, MaxMem=  3758096384 cpu:               0.6 elap:               0.2
 (Enter /apps/easybuild-2022/easybuild/software/Compiler/NVHPC/22.11-CUDA-11.7.0/Gaussian/g16c01-CUDA-11.7.0/g16/l303.exe)
 DipDrv:  MaxL=1.
 Leave Link  303 at Sun May 25 04:14:35 2025, MaxMem=  3758096384 cpu:               0.2 elap:               0.1
 (Enter /apps/easybuild-2022/easybuild/software/Compiler/NVHPC/22.11-CUDA-11.7.0/Gaussian/g16c01-CUDA-11.7.0/g16/l401.exe)
 ExpMin= 9.52D-02 ExpMax= 3.55D+04 ExpMxC= 1.21D+03 IAcc=3 IRadAn=         5 AccDes= 0.00D+00
 Harris functional with IExCor= 1009 and IRadAn=       5 diagonalized for initial guess.
 HarFok:  IExCor= 1009 AccDes= 0.00D+00 IRadAn=         5 IDoV= 1 UseB2=F ITyADJ=14
 ICtDFT=  3500011 ScaDFX=  1.000000  1.000000  1.000000  1.000000
 FoFCou: FMM=F IPFlag=           0 FMFlag=      100000 FMFlg1=           0
         NFxFlg=           0 DoJE=T BraDBF=F KetDBF=T FulRan=T
         wScrn=  0.000000 ICntrl=       500 IOpCl=  0 I1Cent=   200000004 NGrid=           0
         NMat0=    1 NMatS0=      1 NMatT0=    0 NMatD0=    1 NMtDS0=    0 NMtDT0=    0
 Symmetry not used in FoFCou.
 Harris En= -526.547303834435    
 JPrj=0 DoOrth=F DoCkMO=F.
 Leave Link  401 at Sun May 25 04:14:35 2025, MaxMem=  3758096384 cpu:               2.9 elap:               0.6
 (Enter /apps/easybuild-2022/easybuild/software/Compiler/NVHPC/22.11-CUDA-11.7.0/Gaussian/g16c01-CUDA-11.7.0/g16/l502.exe)
 Keep R1 ints in memory in canonical form, NReq=368651279.
 FoFCou: FMM=F IPFlag=           0 FMFlag=           0 FMFlg1=           0
         NFxFlg=           0 DoJE=F BraDBF=F KetDBF=F FulRan=T
         wScrn=  0.000000 ICntrl=       600 IOpCl=  0 I1Cent=           0 NGrid=           0
         NMat0=    1 NMatS0=  26796 NMatT0=    0 NMatD0=    1 NMtDS0=    0 NMtDT0=    0
 Symmetry not used in FoFCou.
 Two-electron integral symmetry not used.
 Closed shell SCF:
 Using DIIS extrapolation, IDIIS=  1040.
 NGot=  3758096384 LenX=  3398923531 LenY=  3398851801
 Requested convergence on RMS density matrix=1.00D-08 within  32 cycles.
 Requested convergence on MAX density matrix=1.00D-06.
 Requested convergence on             energy=1.00D-06.
 No special actions if energy rises.
 Integral accuracy reduced to 1.0D-05 until final iterations.

 Cycle   1  Pass 0  IDiag  1:
 E= -526.701100379932    
 DIIS: error= 2.56D-02 at cycle   1 NSaved=   1.
 NSaved= 1 IEnMin= 1 EnMin= -526.701100379932     IErMin= 1 ErrMin= 2.56D-02
 ErrMax= 2.56D-02  0.00D+00 EMaxC= 1.00D-01 BMatC= 2.85D-01 BMatP= 2.85D-01
 IDIUse=3 WtCom= 7.44D-01 WtEn= 2.56D-01
 Coeff-Com:  0.100D+01
 Coeff-En:   0.100D+01
 Coeff:      0.100D+01
 Gap=     0.362 Goal=   None    Shift=    0.000
 GapD=    0.362 DampG=1.000 DampE=0.500 DampFc=0.5000 IDamp=-1.
 Damping current iteration by 5.00D-01
 RMSDP=2.31D-03 MaxDP=8.37D-02              OVMax= 2.04D-01

 Cycle   2  Pass 0  IDiag  1:
 E= -526.758033489011     Delta-E=       -0.056933109079 Rises=F Damp=T
 DIIS: error= 7.64D-03 at cycle   2 NSaved=   2.
 NSaved= 2 IEnMin= 2 EnMin= -526.758033489011     IErMin= 2 ErrMin= 7.64D-03
 ErrMax= 7.64D-03  0.00D+00 EMaxC= 1.00D-01 BMatC= 2.99D-02 BMatP= 2.85D-01
 IDIUse=3 WtCom= 9.24D-01 WtEn= 7.64D-02
 Coeff-Com:  0.679D-01 0.932D+00
 Coeff-En:   0.216D+00 0.784D+00
 Coeff:      0.792D-01 0.921D+00
 Gap=     0.416 Goal=   None    Shift=    0.000
 RMSDP=6.54D-04 MaxDP=1.80D-02 DE=-5.69D-02 OVMax= 1.18D-01

 Cycle   3  Pass 0  IDiag  1:
 E= -526.842549427458     Delta-E=       -0.084515938447 Rises=F Damp=F
 DIIS: error= 8.37D-03 at cycle   3 NSaved=   3.
 NSaved= 3 IEnMin= 3 EnMin= -526.842549427458     IErMin= 2 ErrMin= 7.64D-03
 ErrMax= 8.37D-03  0.00D+00 EMaxC= 1.00D-01 BMatC= 9.78D-03 BMatP= 2.99D-02
 IDIUse=3 WtCom= 9.16D-01 WtEn= 8.37D-02
 Coeff-Com: -0.609D-01 0.327D+00 0.734D+00
 Coeff-En:   0.000D+00 0.000D+00 0.100D+01
 Coeff:     -0.558D-01 0.300D+00 0.756D+00
 Gap=     0.393 Goal=   None    Shift=    0.000
 RMSDP=3.31D-04 MaxDP=1.31D-02 DE=-8.45D-02 OVMax= 4.95D-02

 Cycle   4  Pass 0  IDiag  1:
 E= -526.846846236904     Delta-E=       -0.004296809446 Rises=F Damp=F
 DIIS: error= 4.45D-03 at cycle   4 NSaved=   4.
 NSaved= 4 IEnMin= 4 EnMin= -526.846846236904     IErMin= 4 ErrMin= 4.45D-03
 ErrMax= 4.45D-03  0.00D+00 EMaxC= 1.00D-01 BMatC= 4.23D-03 BMatP= 9.78D-03
 IDIUse=3 WtCom= 9.55D-01 WtEn= 4.45D-02
 Coeff-Com: -0.378D-01 0.749D-01 0.447D+00 0.516D+00
 Coeff-En:   0.000D+00 0.000D+00 0.292D+00 0.708D+00
 Coeff:     -0.361D-01 0.715D-01 0.440D+00 0.524D+00
 Gap=     0.401 Goal=   None    Shift=    0.000
 RMSDP=1.36D-04 MaxDP=5.71D-03 DE=-4.30D-03 OVMax= 1.78D-02

 Cycle   5  Pass 0  IDiag  1:
 E= -526.849590436982     Delta-E=       -0.002744200078 Rises=F Damp=F
 DIIS: error= 4.47D-04 at cycle   5 NSaved=   5.
 NSaved= 5 IEnMin= 5 EnMin= -526.849590436982     IErMin= 5 ErrMin= 4.47D-04
 ErrMax= 4.47D-04  0.00D+00 EMaxC= 1.00D-01 BMatC= 5.91D-05 BMatP= 4.23D-03
 IDIUse=3 WtCom= 9.96D-01 WtEn= 4.47D-03
 Coeff-Com: -0.108D-01 0.151D-01 0.144D+00 0.206D+00 0.646D+00
 Coeff-En:   0.000D+00 0.000D+00 0.000D+00 0.000D+00 0.100D+01
 Coeff:     -0.108D-01 0.150D-01 0.144D+00 0.205D+00 0.647D+00
 Gap=     0.401 Goal=   None    Shift=    0.000
 RMSDP=2.23D-05 MaxDP=8.23D-04 DE=-2.74D-03 OVMax= 2.52D-03

 Cycle   6  Pass 0  IDiag  1:
 E= -526.849637555309     Delta-E=       -0.000047118327 Rises=F Damp=F
 DIIS: error= 9.15D-05 at cycle   6 NSaved=   6.
 NSaved= 6 IEnMin= 6 EnMin= -526.849637555309     IErMin= 6 ErrMin= 9.15D-05
 ErrMax= 9.15D-05  0.00D+00 EMaxC= 1.00D-01 BMatC= 2.71D-06 BMatP= 5.91D-05
 IDIUse=1 WtCom= 1.00D+00 WtEn= 0.00D+00
 Coeff-Com:  0.985D-03-0.313D-02-0.104D-01-0.130D-01 0.125D+00 0.901D+00
 Coeff:      0.985D-03-0.313D-02-0.104D-01-0.130D-01 0.125D+00 0.901D+00
 Gap=     0.402 Goal=   None    Shift=    0.000
 RMSDP=8.22D-06 MaxDP=2.48D-04 DE=-4.71D-05 OVMax= 6.71D-04

 Initial convergence to 1.0D-05 achieved.  Increase integral accuracy.
 Cycle   7  Pass 1  IDiag  1:
 E= -526.849624216863     Delta-E=        0.000013338446 Rises=F Damp=F
 DIIS: error= 2.29D-05 at cycle   1 NSaved=   1.
 NSaved= 1 IEnMin= 1 EnMin= -526.849624216863     IErMin= 1 ErrMin= 2.29D-05
 ErrMax= 2.29D-05  0.00D+00 EMaxC= 1.00D-01 BMatC= 5.03D-07 BMatP= 5.03D-07
 IDIUse=1 WtCom= 1.00D+00 WtEn= 0.00D+00
 Coeff-Com:  0.100D+01
 Coeff:      0.100D+01
 Gap=     0.402 Goal=   None    Shift=    0.000
 RMSDP=8.22D-06 MaxDP=2.48D-04 DE= 1.33D-05 OVMax= 2.75D-04

 Cycle   8  Pass 1  IDiag  1:
 E= -526.849624620862     Delta-E=       -0.000000403999 Rises=F Damp=F
 DIIS: error= 3.38D-05 at cycle   2 NSaved=   2.
 NSaved= 2 IEnMin= 2 EnMin= -526.849624620862     IErMin= 1 ErrMin= 2.29D-05
 ErrMax= 3.38D-05  0.00D+00 EMaxC= 1.00D-01 BMatC= 1.57D-07 BMatP= 5.03D-07
 IDIUse=1 WtCom= 1.00D+00 WtEn= 0.00D+00
 Coeff-Com:  0.298D+00 0.702D+00
 Coeff:      0.298D+00 0.702D+00
 Gap=     0.402 Goal=   None    Shift=    0.000
 RMSDP=1.47D-06 MaxDP=5.70D-05 DE=-4.04D-07 OVMax= 2.32D-04

 Cycle   9  Pass 1  IDiag  1:
 E= -526.849624707210     Delta-E=       -0.000000086348 Rises=F Damp=F
 DIIS: error= 1.61D-05 at cycle   3 NSaved=   3.
 NSaved= 3 IEnMin= 3 EnMin= -526.849624707210     IErMin= 3 ErrMin= 1.61D-05
 ErrMax= 1.61D-05  0.00D+00 EMaxC= 1.00D-01 BMatC= 7.73D-08 BMatP= 1.57D-07
 IDIUse=1 WtCom= 1.00D+00 WtEn= 0.00D+00
 Coeff-Com: -0.185D-01 0.401D+00 0.618D+00
 Coeff:     -0.185D-01 0.401D+00 0.618D+00
 Gap=     0.402 Goal=   None    Shift=    0.000
 RMSDP=8.19D-07 MaxDP=3.50D-05 DE=-8.63D-08 OVMax= 7.99D-05

 Cycle  10  Pass 1  IDiag  1:
 E= -526.849624758811     Delta-E=       -0.000000051601 Rises=F Damp=F
 DIIS: error= 6.35D-06 at cycle   4 NSaved=   4.
 NSaved= 4 IEnMin= 4 EnMin= -526.849624758811     IErMin= 4 ErrMin= 6.35D-06
 ErrMax= 6.35D-06  0.00D+00 EMaxC= 1.00D-01 BMatC= 5.06D-09 BMatP= 7.73D-08
 IDIUse=1 WtCom= 1.00D+00 WtEn= 0.00D+00
 Coeff-Com: -0.377D-01 0.118D+00 0.258D+00 0.662D+00
 Coeff:     -0.377D-01 0.118D+00 0.258D+00 0.662D+00
 Gap=     0.402 Goal=   None    Shift=    0.000
 RMSDP=2.49D-07 MaxDP=9.07D-06 DE=-5.16D-08 OVMax= 4.26D-05

 Cycle  11  Pass 1  IDiag  1:
 E= -526.849624763735     Delta-E=       -0.000000004924 Rises=F Damp=F
 DIIS: error= 1.29D-06 at cycle   5 NSaved=   5.
 NSaved= 5 IEnMin= 5 EnMin= -526.849624763735     IErMin= 5 ErrMin= 1.29D-06
 ErrMax= 1.29D-06  0.00D+00 EMaxC= 1.00D-01 BMatC= 7.24D-10 BMatP= 5.06D-09
 IDIUse=1 WtCom= 1.00D+00 WtEn= 0.00D+00
 Coeff-Com: -0.666D-02-0.243D-01-0.551D-01 0.186D+00 0.900D+00
 Coeff:     -0.666D-02-0.243D-01-0.551D-01 0.186D+00 0.900D+00
 Gap=     0.402 Goal=   None    Shift=    0.000
 RMSDP=1.32D-07 MaxDP=4.46D-06 DE=-4.92D-09 OVMax= 1.34D-05

 Cycle  12  Pass 1  IDiag  1:
 E= -526.849624764517     Delta-E=       -0.000000000782 Rises=F Damp=F
 DIIS: error= 5.23D-07 at cycle   6 NSaved=   6.
 NSaved= 6 IEnMin= 6 EnMin= -526.849624764517     IErMin= 6 ErrMin= 5.23D-07
 ErrMax= 5.23D-07  0.00D+00 EMaxC= 1.00D-01 BMatC= 1.27D-10 BMatP= 7.24D-10
 IDIUse=1 WtCom= 1.00D+00 WtEn= 0.00D+00
 Coeff-Com:  0.304D-02-0.287D-01-0.717D-01-0.128D-02 0.421D+00 0.677D+00
 Coeff:      0.304D-02-0.287D-01-0.717D-01-0.128D-02 0.421D+00 0.677D+00
 Gap=     0.402 Goal=   None    Shift=    0.000
 RMSDP=4.02D-08 MaxDP=1.13D-06 DE=-7.82D-10 OVMax= 4.75D-06

 Cycle  13  Pass 1  IDiag  1:
 E= -526.849624764596     Delta-E=       -0.000000000079 Rises=F Damp=F
 DIIS: error= 8.85D-08 at cycle   7 NSaved=   7.
 NSaved= 7 IEnMin= 7 EnMin= -526.849624764596     IErMin= 7 ErrMin= 8.85D-08
 ErrMax= 8.85D-08  0.00D+00 EMaxC= 1.00D-01 BMatC= 3.83D-12 BMatP= 1.27D-10
 IDIUse=1 WtCom= 1.00D+00 WtEn= 0.00D+00
 Coeff-Com:  0.123D-02-0.590D-02-0.167D-01-0.117D-01 0.451D-01 0.179D+00
 Coeff-Com:  0.809D+00
 Coeff:      0.123D-02-0.590D-02-0.167D-01-0.117D-01 0.451D-01 0.179D+00
 Coeff:      0.809D+00
 Gap=     0.402 Goal=   None    Shift=    0.000
 RMSDP=9.32D-09 MaxDP=2.10D-07 DE=-7.91D-11 OVMax= 9.00D-07

 SCF Done:  E(RM062X) =  -526.849624765     A.U. after   13 cycles
            NFock= 13  Conv=0.93D-08     -V/T= 2.0037
 KE= 5.249051876574D+02 PE=-1.921085060855D+03 EE= 5.328300456933D+02
 Leave Link  502 at Sun May 25 04:14:45 2025, MaxMem=  3758096384 cpu:              44.9 elap:               9.5
 (Enter /apps/easybuild-2022/easybuild/software/Compiler/NVHPC/22.11-CUDA-11.7.0/Gaussian/g16c01-CUDA-11.7.0/g16/l508.exe)
 QCSCF skips out because SCF is already converged.
 Leave Link  508 at Sun May 25 04:14:45 2025, MaxMem=  3758096384 cpu:               0.1 elap:               0.0
 (Enter /apps/easybuild-2022/easybuild/software/Compiler/NVHPC/22.11-CUDA-11.7.0/Gaussian/g16c01-CUDA-11.7.0/g16/l801.exe)
 DoSCS=F DFT=T ScalE2(SS,OS)=  1.000000  1.000000
 Range of M.O.s used for correlation:     1   231
 NBasis=   231 NAE=    28 NBE=    28 NFC=     0 NFV=     0
 NROrb=    231 NOA=    28 NOB=    28 NVA=   203 NVB=   203

 **** Warning!!: The largest alpha MO coefficient is  0.12160344D+02

 Leave Link  801 at Sun May 25 04:14:45 2025, MaxMem=  3758096384 cpu:               0.1 elap:               0.0
 (Enter /apps/easybuild-2022/easybuild/software/Compiler/NVHPC/22.11-CUDA-11.7.0/Gaussian/g16c01-CUDA-11.7.0/g16/l1101.exe)
 Using compressed storage, NAtomX=     8.
 Will process      9 centers per pass.
   1 Symmetry operations used in ECPInt.
 ECPInt:  NShTT=    3486 NPrTT=   11183 LenC2=    3398 LenP2D=    8674.
 LDataN:  DoStor=T MaxTD1= 7 Len=  274
 Leave Link 1101 at Sun May 25 04:14:45 2025, MaxMem=  3758096384 cpu:               0.8 elap:               0.3
 (Enter /apps/easybuild-2022/easybuild/software/Compiler/NVHPC/22.11-CUDA-11.7.0/Gaussian/g16c01-CUDA-11.7.0/g16/l1102.exe)
 Symmetrizing basis deriv contribution to polar:
 IMax=3 JMax=2 DiffMx= 0.00D+00
 Leave Link 1102 at Sun May 25 04:14:45 2025, MaxMem=  3758096384 cpu:               0.1 elap:               0.0
 (Enter /apps/easybuild-2022/easybuild/software/Compiler/NVHPC/22.11-CUDA-11.7.0/Gaussian/g16c01-CUDA-11.7.0/g16/l1110.exe)
 Forming Gx(P) for the SCF density, NAtomX=     8.
 Integral derivatives from FoFJK, PRISM(SPDF).
 Do as many integral derivatives as possible in FoFJK.
 G2DrvN: MDV=    3758095424.
 G2DrvN: will do     9 centers at a time, making    1 passes.
 Calling FoFCou, ICntrl=  3107 FMM=F I1Cent=   0 AccDes= 0.00D+00.
 FoFJK:  IHMeth= 1 ICntrl=    3107 DoSepK=F KAlg= 0 I1Cent=           0 FoldK=F
 IRaf=         0 NMat=       1 IRICut=       1 DoRegI=T DoRafI=F ISym2E= 0 IDoP0=0 IntGTp=1.
 FoFCou: FMM=F IPFlag=           0 FMFlag=      100000 FMFlg1=           0
         NFxFlg=           0 DoJE=F BraDBF=F KetDBF=F FulRan=T
         wScrn=  0.000000 ICntrl=      3107 IOpCl=  0 I1Cent=           0 NGrid=           0
         NMat0=    1 NMatS0=      1 NMatT0=    0 NMatD0=    1 NMtDS0=    0 NMtDT0=    0
 Symmetry not used in FoFCou.
 End of G2Drv F.D. properties file   721 does not exist.
 End of G2Drv F.D. properties file   722 does not exist.
 End of G2Drv F.D. properties file   788 does not exist.
 Leave Link 1110 at Sun May 25 04:14:58 2025, MaxMem=  3758096384 cpu:              96.3 elap:              12.8
 (Enter /apps/easybuild-2022/easybuild/software/Compiler/NVHPC/22.11-CUDA-11.7.0/Gaussian/g16c01-CUDA-11.7.0/g16/l1002.exe)
 Minotr:  Closed shell wavefunction.
          IDoAtm=11111111
          Direct CPHF calculation.
          Differentiating once with respect to nuclear coordinates.
          Requested convergence is 1.0D-08 RMS, and 1.0D-07 maximum.
          Secondary convergence is 1.0D-12 RMS, and 1.0D-12 maximum.
          NewPWx=T KeepS1=F KeepF1=F KeepIn=T MapXYZ=F SortEE=F KeepMc=T.
         2392 words used for storage of precomputed grid.
 Keep R1 ints in memory in canonical form, NReq=368655240.
 FoFCou: FMM=F IPFlag=           0 FMFlag=           0 FMFlg1=           0
         NFxFlg=           0 DoJE=F BraDBF=F KetDBF=F FulRan=T
         wScrn=  0.000000 ICntrl=       600 IOpCl=  0 I1Cent=           0 NGrid=           0
         NMat0=    1 NMatS0=  26796 NMatT0=    0 NMatD0=    1 NMtDS0=    0 NMtDT0=    0
 Symmetry not used in FoFCou.
 Two-electron integral symmetry not used.
          MDV=    3758096384 using IRadAn=       1.
          Solving linear equations simultaneously, MaxMat=       0.
          There are    27 degrees of freedom in the 1st order CPHF.  IDoFFX=6 NUNeed=     0.
     21 vectors produced by pass  0 Test12= 2.11D-14 3.70D-09 XBig12= 1.19D-01 8.39D-02.
 AX will form    21 AO Fock derivatives at one time.
     21 vectors produced by pass  1 Test12= 2.11D-14 3.70D-09 XBig12= 3.83D-02 1.07D-01.
     21 vectors produced by pass  2 Test12= 2.11D-14 3.70D-09 XBig12= 1.58D-03 7.04D-03.
     21 vectors produced by pass  3 Test12= 2.11D-14 3.70D-09 XBig12= 1.90D-05 9.26D-04.
     21 vectors produced by pass  4 Test12= 2.11D-14 3.70D-09 XBig12= 2.87D-07 8.13D-05.
     21 vectors produced by pass  5 Test12= 2.11D-14 3.70D-09 XBig12= 2.98D-09 8.38D-06.
     21 vectors produced by pass  6 Test12= 2.11D-14 3.70D-09 XBig12= 2.06D-11 7.22D-07.
     10 vectors produced by pass  7 Test12= 2.11D-14 3.70D-09 XBig12= 1.09D-13 4.60D-08.
 InvSVY:  IOpt=1 It=  1 EMax= 2.78D-15
 Solved reduced A of dimension   157 with    21 vectors.
 End of Minotr F.D. properties file   721 does not exist.
 End of Minotr F.D. properties file   722 does not exist.
 End of Minotr F.D. properties file   788 does not exist.
 Leave Link 1002 at Sun May 25 04:15:17 2025, MaxMem=  3758096384 cpu:             144.2 elap:              19.3
 (Enter /apps/easybuild-2022/easybuild/software/Compiler/NVHPC/22.11-CUDA-11.7.0/Gaussian/g16c01-CUDA-11.7.0/g16/l701.exe)
 ... and contract with generalized density number  0.
 Compute integral second derivatives.
   1 Symmetry operations used in ECPInt.
 ECPInt:  NShTT=    3486 NPrTT=   11183 LenC2=    3398 LenP2D=    8674.
 LDataN:  DoStor=T MaxTD1= 8 Len=  415
 Leave Link  701 at Sun May 25 04:15:18 2025, MaxMem=  3758096384 cpu:               1.2 elap:               0.4
 (Enter /apps/easybuild-2022/easybuild/software/Compiler/NVHPC/22.11-CUDA-11.7.0/Gaussian/g16c01-CUDA-11.7.0/g16/l702.exe)
 L702 exits ... SP integral derivatives will be done elsewhere.
 Leave Link  702 at Sun May 25 04:15:18 2025, MaxMem=  3758096384 cpu:               0.1 elap:               0.0
 (Enter /apps/easybuild-2022/easybuild/software/Compiler/NVHPC/22.11-CUDA-11.7.0/Gaussian/g16c01-CUDA-11.7.0/g16/l703.exe)
 Integral derivatives from FoFJK, PRISM(SPDF).
 Compute integral second derivatives, UseDBF=F ICtDFT=           0.
 Calling FoFJK, ICntrl=    100127 FMM=F ISym2X=0 I1Cent= 0 IOpClX= 0 NMat=1 NMatS=1 NMatT=0.
 FoFJK:  IHMeth= 1 ICntrl=  100127 DoSepK=F KAlg= 0 I1Cent=           0 FoldK=F
 IRaf=         0 NMat=       1 IRICut=       1 DoRegI=T DoRafI=F ISym2E= 0 IDoP0=0 IntGTp=1.
 FoFCou: FMM=F IPFlag=           0 FMFlag=      100000 FMFlg1=         800
         NFxFlg=           0 DoJE=F BraDBF=F KetDBF=F FulRan=T
         wScrn=  0.000000 ICntrl=    100127 IOpCl=  0 I1Cent=           0 NGrid=           0
         NMat0=    1 NMatS0=      1 NMatT0=    0 NMatD0=    1 NMtDS0=    0 NMtDT0=    0
 Symmetry not used in FoFCou.
 Leave Link  703 at Sun May 25 04:15:52 2025, MaxMem=  3758096384 cpu:             252.4 elap:              34.3
 (Enter /apps/easybuild-2022/easybuild/software/Compiler/NVHPC/22.11-CUDA-11.7.0/Gaussian/g16c01-CUDA-11.7.0/g16/l716.exe)
 Dipole        = 1.26222661D-01-6.71572052D-02-8.26733979D-01
 Polarizability= 0.00000000D+00 0.00000000D+00 0.00000000D+00
                 0.00000000D+00 0.00000000D+00 0.00000000D+00
 -------------------------------------------------------------------
 Center     Atomic                   Forces (Hartrees/Bohr)
 Number     Number              X              Y              Z
 -------------------------------------------------------------------
      1        6          -0.003815610    0.003541585   -0.003012003
      2        8           0.010068091   -0.008881979    0.004437146
      3        6          -0.001412973    0.001429042   -0.003685882
      4        9          -0.001380404    0.001869569   -0.003727988
      5        9          -0.000809080   -0.000333738   -0.002410029
      6        9           0.000852009    0.000591091   -0.002385506
      7        8          -0.005524757    0.003282258    0.012127218
      8        1           0.002022724   -0.001497828   -0.001342957
 -------------------------------------------------------------------
 Cartesian Forces:  Max     0.012127218 RMS     0.004485557
 Force constants in Cartesian coordinates: 
                1             2             3             4             5 
      1  0.727359D+00
      2 -0.418155D+00  0.585539D+00
      3 -0.420483D-01 -0.103439D-02  0.652807D+00
      4 -0.130406D+00  0.500973D-01  0.607301D-01  0.308136D+00
      5  0.478626D-01 -0.103135D+00 -0.288946D-01 -0.233546D+00  0.250336D+00
      6  0.808183D-01 -0.464627D-01 -0.303479D+00  0.256202D-01 -0.790102D-01
      7 -0.746547D-01  0.376821D-02 -0.449415D-01  0.710937D-02 -0.819542D-03
      8  0.174826D-02 -0.801316D-01  0.423603D-01  0.201429D-02  0.701907D-02
      9 -0.407719D-01  0.424492D-01 -0.155830D+00 -0.573229D-02  0.565082D-02
     10 -0.524283D-02  0.220341D-01  0.154058D-01  0.120107D-02 -0.202549D-02
     11  0.172341D-01 -0.201913D-01 -0.204031D-01 -0.239848D-02  0.240068D-02
     12 -0.742723D-02  0.149789D-01  0.123705D-01 -0.804750D-03  0.669085D-03
     13 -0.128212D-01 -0.245488D-01 -0.115940D-01 -0.750394D-03  0.267560D-02
     14 -0.216035D-02 -0.320597D-02 -0.103462D-02 -0.674479D-03  0.138103D-02
     15 -0.247376D-01 -0.340256D-01 -0.660503D-02  0.120364D-03  0.326460D-02
     16 -0.754656D-02  0.449082D-02  0.515255D-02  0.242001D-02 -0.213301D-02
     17 -0.112453D-01  0.284414D-02  0.140920D-01  0.151432D-02 -0.181671D-02
     18  0.415441D-01  0.746654D-02 -0.256160D-01 -0.522403D-02  0.466139D-02
     19 -0.514575D+00  0.374108D+00  0.291045D-02 -0.334000D-01  0.525395D-01
     20  0.372999D+00 -0.395121D+00  0.190580D-02  0.515170D-01 -0.576846D-02
     21  0.121174D-01 -0.603495D-02 -0.118950D+00  0.649878D-01 -0.515185D-01
     22  0.178873D-01 -0.117953D-01  0.143849D-01 -0.154310D+00  0.135447D+00
     23 -0.828362D-02  0.134017D-01 -0.699144D-02  0.131476D+00 -0.150416D+00
     24 -0.194947D-01  0.226629D-01 -0.546976D-01 -0.139697D+00  0.145177D+00
                6             7             8             9            10 
      6  0.594081D+00
      7  0.238566D-01  0.576965D+00
      8 -0.152921D-01 -0.284527D-01  0.571298D+00
      9 -0.142011D-01 -0.477338D-02 -0.849495D-02  0.595707D+00
     10 -0.493366D-02 -0.146435D+00  0.112858D+00  0.993336D-03  0.179318D+00
     11  0.606772D-02  0.110972D+00 -0.246313D+00 -0.387548D-02 -0.157343D+00
     12 -0.154024D-02  0.735550D-02 -0.105948D-01 -0.862655D-01 -0.386482D-01
     13 -0.704392D-02 -0.168041D+00 -0.829783D-01 -0.759190D-01  0.226375D-01
     14 -0.146663D-02 -0.838559D-01 -0.156141D+00 -0.660978D-01 -0.152398D-01
     15 -0.524101D-02 -0.806675D-01 -0.673001D-01 -0.143219D+00  0.177230D-03
     16  0.433717D-03 -0.179821D+00 -0.353430D-01  0.112918D+00 -0.463390D-01
     17  0.487190D-02 -0.307509D-01 -0.898972D-01  0.396748D-01  0.370084D-01
     18 -0.951713D-02  0.107004D+00  0.479973D-01 -0.208391D+00  0.345331D-01
     19  0.571544D-01 -0.162770D-01  0.261125D-01  0.114040D-01 -0.484502D-02
     20 -0.451825D-01  0.249762D-01 -0.798775D-02 -0.821908D-02  0.314598D-02
     21 -0.794892D-02 -0.114405D-01  0.131491D-01  0.145708D-01 -0.770763D-02
     22 -0.175906D+00  0.115379D-02  0.404114D-02  0.188132D-02 -0.294832D-03
     23  0.176475D+00  0.416278D-02  0.215367D-02 -0.108754D-02 -0.437872D-03
     24 -0.252154D+00  0.360699D-02 -0.182480D-02 -0.237130D-02  0.180051D-03
               11            12            13            14            15 
     11  0.336535D+00
     12  0.578724D-01  0.850559D-01
     13  0.164066D-03  0.461308D-02  0.212555D+00
     14 -0.730518D-01 -0.378522D-01  0.147404D+00  0.242222D+00
     15 -0.299875D-01  0.298159D-02  0.865354D-01  0.102706D+00  0.131897D+00
     16  0.250428D-01  0.420951D-01 -0.551343D-01 -0.429972D-01  0.196258D-01
     17  0.575489D-02 -0.300784D-01 -0.475547D-01 -0.158095D-01  0.156721D-01
     18 -0.191978D-01 -0.915021D-02  0.577221D-02  0.541016D-02  0.233708D-01
     19  0.628289D-02 -0.699840D-02  0.996160D-03 -0.232633D-02 -0.207906D-02
     20 -0.523732D-02  0.494568D-02  0.471677D-02  0.474215D-02  0.873418D-02
     21  0.100694D-01 -0.481328D-02 -0.173415D-02 -0.138391D-02 -0.311533D-02
     22  0.459868D-04 -0.185059D-03  0.558186D-03 -0.149562D-03  0.102531D-02
     23  0.103669D-03  0.593164D-04  0.121795D-03 -0.137283D-03  0.936700D-03
     24 -0.545493D-03  0.136116D-02 -0.629650D-03 -0.280683D-03 -0.692452D-04
               16            17            18            19            20 
     16  0.280619D+00
     17  0.526527D-01  0.973432D-01
     18 -0.177678D+00 -0.454544D-01  0.230731D+00
     19  0.613707D-02 -0.948103D-03 -0.633544D-02  0.569418D+00
     20 -0.156318D-02  0.117037D-02  0.406683D-03 -0.457028D+00  0.415519D+00
     21 -0.290102D-02  0.784956D-03 -0.245323D-03 -0.524190D-01  0.358205D-01
     22 -0.334428D-03 -0.676350D-03  0.384005D-03 -0.745397D-02  0.123621D-02
     23 -0.149889D-03  0.410807D-03 -0.128990D-02  0.125923D-02 -0.731705D-02
     24  0.353731D-03  0.437067D-03 -0.118158D-02 -0.363693D-02  0.158878D-02
               21            22            23            24 
     21  0.110523D+00
     22 -0.902903D-03  0.142794D+00
     23 -0.886546D-03 -0.128149D+00  0.141801D+00
     24  0.997866D-02  0.159318D+00 -0.167215D+00  0.299134D+00
 FormGI is forming the generalized inverse of G from B-inverse, IUseBI=4.
 Force constants in internal coordinates: 
                1             2             3             4             5 
      1  0.475623D+00
      2  0.117153D-01  0.243402D+00
      3  0.102127D+00  0.280452D-01  0.959767D+00
      4  0.126509D-01 -0.145616D-02 -0.907933D-02  0.515478D+00
      5  0.818211D-02  0.152589D-01  0.794681D-02 -0.321578D-03  0.446907D+00
      6  0.574085D-02  0.199893D-01  0.752105D-02  0.276251D-03  0.569872D-01
      7  0.434539D-02  0.187688D-01  0.723786D-02  0.443983D-04  0.572479D-01
      8  0.592891D-02  0.136215D-01 -0.540133D-01  0.580680D-02 -0.912217D-02
      9  0.363673D-01 -0.229571D-01  0.514824D-01 -0.103485D-01 -0.888653D-02
     10 -0.422944D-01  0.930172D-02  0.253412D-02  0.454415D-02  0.180462D-01
     11  0.455684D-01  0.171326D-02  0.560147D-02  0.296518D-01 -0.326722D-03
     12 -0.213454D-02  0.102519D-01  0.191047D-01 -0.151676D-02  0.894517D-02
     13  0.464044D-02  0.984781D-02  0.145616D-02  0.137589D-03 -0.307477D-01
     14  0.103891D-01  0.248916D-01 -0.733415D-02  0.176541D-04 -0.318128D-01
     15 -0.429981D-02 -0.139685D-01 -0.557662D-02  0.474996D-03  0.275416D-01
     16 -0.470885D-02 -0.185907D-01 -0.444151D-02  0.811500D-03  0.287688D-01
     17 -0.420374D-02 -0.140386D-01 -0.416440D-02  0.143419D-03 -0.262306D-02
     18  0.450753D-04  0.120404D-02  0.141814D-03 -0.668085D-04 -0.120154D-02
     19 -0.595110D-03  0.402995D-05  0.218106D-03  0.121447D-03  0.619319D-03
     20  0.151318D-02  0.787266D-03 -0.107479D-02  0.290181D-04  0.120777D-02
     21 -0.206568D-02 -0.321480D-02  0.548426D-02 -0.269222D-03  0.202713D-01
     22  0.147048D-02 -0.238629D-03 -0.287663D-02 -0.794224D-05 -0.186547D-01
     23  0.815168D-03  0.253061D-02 -0.199105D-02  0.956856D-04 -0.147131D-03
     24 -0.276369D-02 -0.147146D-02  0.456800D-02 -0.202555D-03  0.189164D-01
     25  0.772468D-03  0.150471D-02 -0.379290D-02  0.587253D-04 -0.200096D-01
                6             7             8             9            10 
      6  0.434934D+00
      7  0.575968D-01  0.448790D+00
      8  0.723831D-02  0.157764D-01  0.137761D+00
      9 -0.805846D-02 -0.595214D-02 -0.999972D-01  0.204488D+00
     10  0.711199D-03 -0.975940D-02 -0.377411D-01 -0.104511D+00  0.142263D+00
     11  0.119053D-02  0.276466D-02  0.239351D-01 -0.271036D-01  0.317502D-02
     12 -0.306373D-01 -0.319642D-01 -0.783009D-02 -0.981053D-02  0.177072D-01
     13  0.156385D-01 -0.268623D-01  0.432877D-02 -0.299836D-02 -0.151990D-02
     14 -0.267758D-01  0.134386D-01  0.134740D-01 -0.773655D-02 -0.565409D-02
     15  0.239131D-01 -0.226131D-02 -0.187882D-02  0.703811D-02 -0.513512D-02
     16 -0.314364D-02  0.261887D-01 -0.323404D-02  0.837370D-02 -0.515423D-02
     17  0.239078D-01  0.242195D-01 -0.502598D-02  0.599976D-02 -0.944154D-03
     18  0.278106D-02 -0.151479D-02  0.503676D-04  0.119247D-02 -0.151122D-02
     19 -0.163607D-02  0.989900D-03  0.598751D-03 -0.159184D-02  0.128613D-02
     20 -0.230424D-01  0.217082D-01  0.209457D-03  0.582468D-03 -0.473032D-03
     21 -0.157630D-02 -0.215572D-01 -0.426873D-02  0.932562D-03  0.359426D-02
     22  0.208293D-01 -0.147309D-03 -0.137898D-03  0.201059D-02 -0.163989D-02
     23 -0.184999D-01  0.191557D-01  0.744929D-03 -0.191265D-02  0.928874D-03
     24  0.296615D-02 -0.241097D-01 -0.373326D-02 -0.156255D-02  0.499617D-02
     25  0.253718D-01 -0.269985D-02  0.397574D-03 -0.484528D-03 -0.237987D-03
               11            12            13            14            15 
     11  0.181352D+00
     12 -0.491754D-02  0.177955D+00
     13  0.858244D-03  0.284381D-02  0.171700D+00
     14  0.457102D-02 -0.864503D-02  0.946666D-02  0.193024D+00
     15  0.448030D-03 -0.832984D-01 -0.925749D-01 -0.170616D-01  0.140398D+00
     16 -0.177645D-04 -0.819809D-01 -0.170506D-01 -0.973206D-01  0.300361D-01
     17 -0.850626D-03 -0.149229D-01 -0.808962D-01 -0.864111D-01  0.286835D-01
     18 -0.166873D-03 -0.180180D-02  0.623284D-02 -0.318960D-02 -0.835484D-03
     19  0.194216D-03  0.120219D-02 -0.151234D-02  0.136404D-03  0.586279D-04
     20  0.687892D-03 -0.113253D-02 -0.102561D-01  0.117380D-01 -0.286702D-01
     21 -0.137812D-02  0.122549D-01 -0.362162D-02 -0.898530D-02  0.292012D-01
     22  0.701005D-03 -0.899386D-02  0.284391D-02  0.278060D-02  0.934291D-03
     23  0.847061D-03 -0.365376D-02 -0.252863D-02  0.846837D-02 -0.297663D-01
     24 -0.121895D-02  0.973371D-02  0.410587D-02 -0.122549D-01  0.281051D-01
     25  0.860174D-03 -0.115151D-01  0.105714D-01 -0.489038D-03 -0.161811D-03
               16            17            18            19            20 
     16  0.142617D+00
     17  0.298645D-01  0.133908D+00
     18  0.458566D-03 -0.856692D-03  0.152109D-01
     19 -0.229619D-03  0.325988D-03  0.424146D-02  0.162138D-01
     20  0.284660D-01 -0.260376D-03 -0.681643D-02  0.617936D-02  0.360281D-01
     21  0.381137D-03 -0.314370D-01 -0.461166D-02  0.596641D-02 -0.867132D-02
     22 -0.290547D-01  0.338812D-01 -0.389421D-02  0.557027D-02 -0.815371D-02
     23  0.289201D-01 -0.155518D-02  0.404548D-02 -0.567671D-02  0.230875D-01
     24  0.835203D-03 -0.327318D-01  0.625024D-02 -0.588965D-02 -0.216119D-01
     25 -0.286007D-01  0.325864D-01  0.696769D-02 -0.628579D-02 -0.210943D-01
               21            22            23            24            25 
     21  0.341251D-01
     22 -0.108732D-01  0.330749D-01
     23 -0.191455D-01 -0.176270D-01  0.328034D-01
     24  0.236509D-01 -0.203465D-01 -0.942956D-02  0.358333D-01
     25 -0.213473D-01  0.236016D-01 -0.791109D-02 -0.816409D-02  0.367849D-01
 Leave Link  716 at Sun May 25 04:15:52 2025, MaxMem=  3758096384 cpu:               0.1 elap:               0.0
 (Enter /apps/easybuild-2022/easybuild/software/Compiler/NVHPC/22.11-CUDA-11.7.0/Gaussian/g16c01-CUDA-11.7.0/g16/l103.exe)

 GradGradGradGradGradGradGradGradGradGradGradGradGradGradGradGradGradGrad
 Berny optimization.
 Red2BG is reusing G-inverse.
 Internal  Forces:  Max     0.023395776 RMS     0.007239052
 Search for a local minimum.
 Step number   1 out of a maximum of   35
 All quantities printed in internal units (Hartrees-Bohrs-Radians)
 RMS Force = .72391D-02 SwitMx=.10000D-02 MixMth= 1
 Mixed Optimization -- RFO/linear search
 Second derivative matrix not updated -- analytic derivatives used.
 ITU=  0
     Eigenvalues ---   -0.00012   0.01975   0.04392   0.11768   0.13723
     Eigenvalues ---    0.15391   0.16956   0.21736   0.22290   0.23980
     Eigenvalues ---    0.29478   0.38744   0.40279   0.41596   0.46933
     Eigenvalues ---    0.52405   0.58281   0.99131
 Eigenvalue     1 is  -1.23D-04 should be greater than     0.000000 Eigenvector:
                          D4        D5        D3        D7        D8
   1                   -0.42330  -0.41671  -0.41240  -0.40380  -0.39720
                          D6        D1        A1        A3        D2
   1                   -0.39290   0.03015  -0.01710   0.01688   0.01082
 RFO step:  Lambda=-4.64914845D-03 EMin=-1.23415452D-04
 Linear search not attempted -- first point.
 Iteration  1 RMS(Cart)=  0.13039341 RMS(Int)=  0.10383600
 Iteration  2 RMS(Cart)=  0.10780592 RMS(Int)=  0.00918000
 Iteration  3 RMS(Cart)=  0.01056108 RMS(Int)=  0.00016856
 Iteration  4 RMS(Cart)=  0.00008027 RMS(Int)=  0.00015716
 Iteration  5 RMS(Cart)=  0.00000001 RMS(Int)=  0.00015716
 ITry= 1 IFail=0 DXMaxC= 4.57D-01 DCOld= 1.00D+10 DXMaxT= 3.00D-01 DXLimC= 3.00D+00 Rises=F
 Variable       Old X    -DE/DX   Delta X   Delta X   Delta X     New X
                                 (Linear)    (Quad)   (Total)
    R1        2.50327   0.00519   0.00000   0.00493   0.00493   2.50820
    R2        2.95416  -0.01261   0.00000  -0.04002  -0.04002   2.91415
    R3        2.24601   0.00685   0.00000  -0.00136  -0.00136   2.24465
    R4        1.83056  -0.00083   0.00000  -0.00266  -0.00266   1.82789
    R5        2.50538  -0.00168   0.00000   0.00179   0.00179   2.50717
    R6        2.51703  -0.00172   0.00000   0.00645   0.00645   2.52348
    R7        2.50469  -0.00230   0.00000  -0.01279  -0.01279   2.49190
    A1        2.03059  -0.02010   0.00000  -0.10836  -0.10844   1.92215
    A2        2.13067   0.02340   0.00000   0.07559   0.07550   2.20617
    A3        2.12159  -0.00330   0.00000   0.03225   0.03218   2.15377
    A4        1.83540   0.00499   0.00000   0.05029   0.05029   1.88569
    A5        1.98445  -0.00679   0.00000  -0.03690  -0.03697   1.94748
    A6        1.90092  -0.00150   0.00000  -0.00106  -0.00132   1.89961
    A7        1.90319   0.00000   0.00000   0.02394   0.02397   1.92716
    A8        1.89016   0.00310   0.00000  -0.00074  -0.00108   1.88908
    A9        1.89352   0.00331   0.00000   0.00894   0.00913   1.90265
   A10        1.88950   0.00230   0.00000   0.00749   0.00734   1.89684
    D1       -3.10756   0.00020   0.00000   0.03750   0.03778  -3.06978
    D2        0.00652  -0.00005   0.00000   0.01639   0.01612   0.02264
    D3       -0.36836   0.00049   0.00000  -0.40662  -0.40674  -0.77511
    D4        1.74097  -0.00112   0.00000  -0.43273  -0.43256   1.30841
    D5       -2.48362   0.00079   0.00000  -0.41066  -0.41043  -2.89404
    D6        2.80059   0.00027   0.00000  -0.38638  -0.38669   2.41389
    D7       -1.37326  -0.00133   0.00000  -0.41250  -0.41252  -1.78578
    D8        0.68533   0.00058   0.00000  -0.39042  -0.39038   0.29495
         Item               Value     Threshold  Converged?
 Maximum Force            0.023396     0.000450     NO 
 RMS     Force            0.007239     0.000300     NO 
 Maximum Displacement     0.457175     0.001800     NO 
 RMS     Displacement     0.228281     0.001200     NO 
 Predicted change in Energy=-2.926099D-03
 Lowest energy point so far.  Saving SCF results.
 GradGradGradGradGradGradGradGradGradGradGradGradGradGradGradGradGradGrad

 Leave Link  103 at Sun May 25 04:15:52 2025, MaxMem=  3758096384 cpu:               0.1 elap:               0.0
 (Enter /apps/easybuild-2022/easybuild/software/Compiler/NVHPC/22.11-CUDA-11.7.0/Gaussian/g16c01-CUDA-11.7.0/g16/l202.exe)
                          Input orientation:                          
 ---------------------------------------------------------------------
 Center     Atomic      Atomic             Coordinates (Angstroms)
 Number     Number       Type             X           Y           Z
 ---------------------------------------------------------------------
      1          6           0       -0.508454    0.358200   -0.793743
      2          8           0        0.263208    0.176994   -1.858347
      3          6           0        0.179244   -0.211614    0.463417
      4          9           0        0.711796   -1.404186    0.230203
      5          9           0        1.158101    0.618125    0.832989
      6          9           0       -0.684850   -0.313311    1.454305
      7          8           0       -1.554917    0.919634   -0.768936
      8          1           0       -0.165181    0.601475   -2.614607
 ---------------------------------------------------------------------
                    Distance matrix (angstroms):
                    1          2          3          4          5
     1  C    0.000000
     2  O    1.327283   0.000000
     3  C    1.542100   2.355559   0.000000
     4  F    2.375602   2.657706   1.326737   0.000000
     5  F    2.343336   2.870317   1.335369   2.156915   0.000000
     6  F    2.352820   3.480355   1.318658   2.153847   2.156403
     7  O    1.187816   2.245864   2.409508   3.396528   3.165049
     8  H    1.868841   0.967280   3.202183   3.589528   3.692867
                    6          7          8
     6  F    0.000000
     7  O    2.687000   0.000000
     8  H    4.202729   2.332186   0.000000
 Symmetry turned off by external request.
 Stoichiometry    C2HF3O2
 Rotational constants (GHZ):           3.8988302           2.5148447           2.0864607
 Leave Link  202 at Sun May 25 04:15:52 2025, MaxMem=  3758096384 cpu:               0.0 elap:               0.0
 (Enter /apps/easybuild-2022/easybuild/software/Compiler/NVHPC/22.11-CUDA-11.7.0/Gaussian/g16c01-CUDA-11.7.0/g16/l301.exe)
 Standard basis: def2TZVPP (5D, 7F)
 Ernie: Thresh=  0.10000D-02 Tol=  0.10000D-05 Strict=F.
   231 basis functions,   374 primitive gaussians,   267 cartesian basis functions
    28 alpha electrons       28 beta electrons
       nuclear repulsion energy       338.5309013202 Hartrees.
 IExCor= 4336 DFT=T Ex+Corr=M062X ExCW=0 ScaHFX=  0.540000
 ScaDFX=  1.000000  1.000000  1.000000  1.000000 ScalE2=  1.000000  1.000000
 IRadAn=      5 IRanWt=     -1 IRanGd=            0 ICorTp=0 IEmpDi=  4
 NAtoms=    8 NActive=    8 NUniq=    8 SFac= 1.00D+00 NAtFMM=   60 NAOKFM=F Big=F
 Integral buffers will be    131072 words long.
 Raffenetti 2 integral format.
 Two-electron integral symmetry is turned off.
 Leave Link  301 at Sun May 25 04:15:52 2025, MaxMem=  3758096384 cpu:               0.1 elap:               0.1
 (Enter /apps/easybuild-2022/easybuild/software/Compiler/NVHPC/22.11-CUDA-11.7.0/Gaussian/g16c01-CUDA-11.7.0/g16/l302.exe)
 NPDir=0 NMtPBC=     1 NCelOv=     1 NCel=       1 NClECP=     1 NCelD=      1
         NCelK=      1 NCelE2=     1 NClLst=     1 CellRange=     0.0.
 One-electron integrals computed using PRISM.
   1 Symmetry operations used in ECPInt.
 ECPInt:  NShTT=    3486 NPrTT=   11183 LenC2=    3402 LenP2D=    8716.
 LDataN:  DoStor=T MaxTD1= 6 Len=  172
 NBasis=   231 RedAO= T EigKep=  5.48D-04  NBF=   231
 NBsUse=   231 1.00D-06 EigRej= -1.00D+00 NBFU=   231
 Precomputing XC quadrature grid using
 IXCGrd= 4 IRadAn=           5 IRanWt=          -1 IRanGd=           0 AccXCQ= 0.00D+00.
 Generated NRdTot=       0 NPtTot=           0 NUsed=           0 NTot=          32
 NSgBfM=   266   266   266   266   266 MxSgAt=     8 MxSgA2=     8.
 Leave Link  302 at Sun May 25 04:15:53 2025, MaxMem=  3758096384 cpu:               0.6 elap:               0.2
 (Enter /apps/easybuild-2022/easybuild/software/Compiler/NVHPC/22.11-CUDA-11.7.0/Gaussian/g16c01-CUDA-11.7.0/g16/l303.exe)
 DipDrv:  MaxL=1.
 Leave Link  303 at Sun May 25 04:15:53 2025, MaxMem=  3758096384 cpu:               0.1 elap:               0.1
 (Enter /apps/easybuild-2022/easybuild/software/Compiler/NVHPC/22.11-CUDA-11.7.0/Gaussian/g16c01-CUDA-11.7.0/g16/l401.exe)
 Initial guess from the checkpoint file:  "1141903082400600000001_intra_H_migration_2_8_IRC_R_prod.chk"
 B after Tr=    -0.032518   -0.014171   -0.011193
         Rot=    0.999730    0.011695   -0.018982    0.006480 Ang=   2.66 deg.
 Guess basis will be translated and rotated to current coordinates.
 JPrj=2 DoOrth=T DoCkMO=T.
 Generating alternative initial guess.
 ExpMin= 9.52D-02 ExpMax= 3.55D+04 ExpMxC= 1.21D+03 IAcc=3 IRadAn=         5 AccDes= 0.00D+00
 Harris functional with IExCor= 1009 and IRadAn=       5 diagonalized for initial guess.
 HarFok:  IExCor= 1009 AccDes= 0.00D+00 IRadAn=         5 IDoV= 1 UseB2=F ITyADJ=14
 ICtDFT=  3500011 ScaDFX=  1.000000  1.000000  1.000000  1.000000
 FoFCou: FMM=F IPFlag=           0 FMFlag=      100000 FMFlg1=           0
         NFxFlg=           0 DoJE=T BraDBF=F KetDBF=T FulRan=T
         wScrn=  0.000000 ICntrl=       500 IOpCl=  0 I1Cent=   200000004 NGrid=           0
         NMat0=    1 NMatS0=      1 NMatT0=    0 NMatD0=    1 NMtDS0=    0 NMtDT0=    0
 Symmetry not used in FoFCou.
 Harris En= -526.547073062536    
 Leave Link  401 at Sun May 25 04:15:53 2025, MaxMem=  3758096384 cpu:               2.5 elap:               0.5
 (Enter /apps/easybuild-2022/easybuild/software/Compiler/NVHPC/22.11-CUDA-11.7.0/Gaussian/g16c01-CUDA-11.7.0/g16/l502.exe)
 Keep R1 ints in memory in canonical form, NReq=368651279.
 FoFCou: FMM=F IPFlag=           0 FMFlag=           0 FMFlg1=           0
         NFxFlg=           0 DoJE=F BraDBF=F KetDBF=F FulRan=T
         wScrn=  0.000000 ICntrl=       600 IOpCl=  0 I1Cent=           0 NGrid=           0
         NMat0=    1 NMatS0=  26796 NMatT0=    0 NMatD0=    1 NMtDS0=    0 NMtDT0=    0
 Symmetry not used in FoFCou.
 Two-electron integral symmetry not used.
 Closed shell SCF:
 Using DIIS extrapolation, IDIIS=  1040.
 NGot=  3758096384 LenX=  3398923531 LenY=  3398851801
 Requested convergence on RMS density matrix=1.00D-08 within  32 cycles.
 Requested convergence on MAX density matrix=1.00D-06.
 Requested convergence on             energy=1.00D-06.
 No special actions if energy rises.
 Integral accuracy reduced to 1.0D-05 until final iterations.

 Cycle   1  Pass 0  IDiag  1:
 E= -526.753153982825    
 DIIS: error= 1.42D-02 at cycle   1 NSaved=   1.
 NSaved= 1 IEnMin= 1 EnMin= -526.753153982825     IErMin= 1 ErrMin= 1.42D-02
 ErrMax= 1.42D-02  0.00D+00 EMaxC= 1.00D-01 BMatC= 7.27D-02 BMatP= 7.27D-02
 IDIUse=3 WtCom= 8.58D-01 WtEn= 1.42D-01
 Coeff-Com:  0.100D+01
 Coeff-En:   0.100D+01
 Coeff:      0.100D+01
 Recover alternate guess density for next cycle.
 RMSDP=1.94D-03 MaxDP=4.72D-02              OVMax= 0.00D+00

 Cycle   2  Pass 0  IDiag  1:
 E= -526.709321714662     Delta-E=        0.043832268164 Rises=F Damp=F
 Switch densities from cycles 1 and 2 for lowest energy.
 DIIS: error= 2.52D-02 at cycle   2 NSaved=   2.
 NSaved= 2 IEnMin= 1 EnMin= -526.753153982825     IErMin= 1 ErrMin= 1.42D-02
 ErrMax= 2.52D-02  0.00D+00 EMaxC= 1.00D+00 BMatC= 2.78D-01 BMatP= 7.27D-02
 IDIUse=1 WtCom= 1.00D+00 WtEn= 0.00D+00
 Coeff-Com:  0.816D+00 0.184D+00
 Coeff:      0.816D+00 0.184D+00
 Gap=     0.398 Goal=   None    Shift=    0.000
 RMSDP=1.18D-03 MaxDP=3.35D-02 DE= 4.38D-02 OVMax= 1.08D-01

 Cycle   3  Pass 0  IDiag  1:
 E= -526.838744358734     Delta-E=       -0.129422644073 Rises=F Damp=F
 DIIS: error= 5.89D-03 at cycle   3 NSaved=   3.
 NSaved= 3 IEnMin= 3 EnMin= -526.838744358734     IErMin= 3 ErrMin= 5.89D-03
 ErrMax= 5.89D-03  0.00D+00 EMaxC= 1.00D+00 BMatC= 1.83D-02 BMatP= 7.27D-02
 IDIUse=1 WtCom= 1.00D+00 WtEn= 0.00D+00
 Coeff-Com: -0.192D-01 0.186D+00 0.833D+00
 Coeff:     -0.192D-01 0.186D+00 0.833D+00
 Gap=     0.409 Goal=   None    Shift=    0.000
 RMSDP=3.59D-04 MaxDP=1.28D-02 DE=-1.29D-01 OVMax= 2.53D-02

 Cycle   4  Pass 0  IDiag  1:
 E= -526.851180356693     Delta-E=       -0.012435997958 Rises=F Damp=F
 DIIS: error= 2.52D-03 at cycle   4 NSaved=   4.
 NSaved= 4 IEnMin= 4 EnMin= -526.851180356693     IErMin= 4 ErrMin= 2.52D-03
 ErrMax= 2.52D-03  0.00D+00 EMaxC= 1.00D+00 BMatC= 1.69D-03 BMatP= 1.83D-02
 IDIUse=1 WtCom= 1.00D+00 WtEn= 0.00D+00
 Coeff-Com: -0.424D-01 0.130D-01 0.254D+00 0.776D+00
 Coeff:     -0.424D-01 0.130D-01 0.254D+00 0.776D+00
 Gap=     0.403 Goal=   None    Shift=    0.000
 RMSDP=1.18D-04 MaxDP=5.12D-03 DE=-1.24D-02 OVMax= 9.91D-03

 Cycle   5  Pass 0  IDiag  1:
 E= -526.852381797688     Delta-E=       -0.001201440995 Rises=F Damp=F
 DIIS: error= 6.39D-04 at cycle   5 NSaved=   5.
 NSaved= 5 IEnMin= 5 EnMin= -526.852381797688     IErMin= 5 ErrMin= 6.39D-04
 ErrMax= 6.39D-04  0.00D+00 EMaxC= 1.00D+00 BMatC= 1.42D-04 BMatP= 1.69D-03
 IDIUse=1 WtCom= 1.00D+00 WtEn= 0.00D+00
 Coeff-Com: -0.147D-01-0.431D-02 0.550D-01 0.326D+00 0.638D+00
 Coeff:     -0.147D-01-0.431D-02 0.550D-01 0.326D+00 0.638D+00
 Gap=     0.405 Goal=   None    Shift=    0.000
 RMSDP=3.27D-05 MaxDP=1.28D-03 DE=-1.20D-03 OVMax= 2.65D-03

 Cycle   6  Pass 0  IDiag  1:
 E= -526.852489879588     Delta-E=       -0.000108081900 Rises=F Damp=F
 DIIS: error= 2.60D-04 at cycle   6 NSaved=   6.
 NSaved= 6 IEnMin= 6 EnMin= -526.852489879588     IErMin= 6 ErrMin= 2.60D-04
 ErrMax= 2.60D-04  0.00D+00 EMaxC= 1.00D+00 BMatC= 1.67D-05 BMatP= 1.42D-04
 IDIUse=1 WtCom= 1.00D+00 WtEn= 0.00D+00
 Coeff-Com: -0.241D-02-0.294D-02-0.131D-02 0.714D-01 0.275D+00 0.660D+00
 Coeff:     -0.241D-02-0.294D-02-0.131D-02 0.714D-01 0.275D+00 0.660D+00
 Gap=     0.405 Goal=   None    Shift=    0.000
 RMSDP=1.33D-05 MaxDP=5.51D-04 DE=-1.08D-04 OVMax= 1.83D-03

 Cycle   7  Pass 0  IDiag  1:
 E= -526.852504423823     Delta-E=       -0.000014544234 Rises=F Damp=F
 DIIS: error= 9.10D-05 at cycle   7 NSaved=   7.
 NSaved= 7 IEnMin= 7 EnMin= -526.852504423823     IErMin= 7 ErrMin= 9.10D-05
 ErrMax= 9.10D-05  0.00D+00 EMaxC= 1.00D+00 BMatC= 3.55D-06 BMatP= 1.67D-05
 IDIUse=1 WtCom= 1.00D+00 WtEn= 0.00D+00
 Coeff-Com:  0.168D-02 0.214D-03-0.140D-01-0.442D-01-0.345D-01 0.305D+00
 Coeff-Com:  0.785D+00
 Coeff:      0.168D-02 0.214D-03-0.140D-01-0.442D-01-0.345D-01 0.305D+00
 Coeff:      0.785D+00
 Gap=     0.405 Goal=   None    Shift=    0.000
 RMSDP=7.94D-06 MaxDP=2.35D-04 DE=-1.45D-05 OVMax= 1.14D-03

 Initial convergence to 1.0D-05 achieved.  Increase integral accuracy.
 Cycle   8  Pass 1  IDiag  1:
 E= -526.852522159671     Delta-E=       -0.000017735849 Rises=F Damp=F
 DIIS: error= 2.74D-05 at cycle   1 NSaved=   1.
 NSaved= 1 IEnMin= 1 EnMin= -526.852522159671     IErMin= 1 ErrMin= 2.74D-05
 ErrMax= 2.74D-05  0.00D+00 EMaxC= 1.00D+00 BMatC= 4.77D-07 BMatP= 4.77D-07
 IDIUse=1 WtCom= 1.00D+00 WtEn= 0.00D+00
 Coeff-Com:  0.100D+01
 Coeff:      0.100D+01
 Gap=     0.405 Goal=   None    Shift=    0.000
 RMSDP=7.94D-06 MaxDP=2.35D-04 DE=-1.77D-05 OVMax= 4.10D-04

 Cycle   9  Pass 1  IDiag  1:
 E= -526.852522679834     Delta-E=       -0.000000520162 Rises=F Damp=F
 DIIS: error= 1.53D-05 at cycle   2 NSaved=   2.
 NSaved= 2 IEnMin= 2 EnMin= -526.852522679834     IErMin= 2 ErrMin= 1.53D-05
 ErrMax= 1.53D-05  0.00D+00 EMaxC= 1.00D+00 BMatC= 1.29D-07 BMatP= 4.77D-07
 IDIUse=1 WtCom= 1.00D+00 WtEn= 0.00D+00
 Coeff-Com:  0.251D+00 0.749D+00
 Coeff:      0.251D+00 0.749D+00
 Gap=     0.405 Goal=   None    Shift=    0.000
 RMSDP=1.40D-06 MaxDP=3.87D-05 DE=-5.20D-07 OVMax= 1.71D-04

 Cycle  10  Pass 1  IDiag  1:
 E= -526.852522773746     Delta-E=       -0.000000093912 Rises=F Damp=F
 DIIS: error= 9.94D-06 at cycle   3 NSaved=   3.
 NSaved= 3 IEnMin= 3 EnMin= -526.852522773746     IErMin= 3 ErrMin= 9.94D-06
 ErrMax= 9.94D-06  0.00D+00 EMaxC= 1.00D+00 BMatC= 5.65D-08 BMatP= 1.29D-07
 IDIUse=1 WtCom= 1.00D+00 WtEn= 0.00D+00
 Coeff-Com: -0.591D-01 0.384D+00 0.675D+00
 Coeff:     -0.591D-01 0.384D+00 0.675D+00
 Gap=     0.405 Goal=   None    Shift=    0.000
 RMSDP=7.67D-07 MaxDP=2.15D-05 DE=-9.39D-08 OVMax= 1.12D-04

 Cycle  11  Pass 1  IDiag  1:
 E= -526.852522826047     Delta-E=       -0.000000052302 Rises=F Damp=F
 DIIS: error= 3.81D-06 at cycle   4 NSaved=   4.
 NSaved= 4 IEnMin= 4 EnMin= -526.852522826047     IErMin= 4 ErrMin= 3.81D-06
 ErrMax= 3.81D-06  0.00D+00 EMaxC= 1.00D+00 BMatC= 4.72D-09 BMatP= 5.65D-08
 IDIUse=1 WtCom= 1.00D+00 WtEn= 0.00D+00
 Coeff-Com: -0.410D-01 0.853D-01 0.247D+00 0.709D+00
 Coeff:     -0.410D-01 0.853D-01 0.247D+00 0.709D+00
 Gap=     0.405 Goal=   None    Shift=    0.000
 RMSDP=3.32D-07 MaxDP=1.04D-05 DE=-5.23D-08 OVMax= 5.91D-05

 Cycle  12  Pass 1  IDiag  1:
 E= -526.852522833580     Delta-E=       -0.000000007533 Rises=F Damp=F
 DIIS: error= 2.76D-06 at cycle   5 NSaved=   5.
 NSaved= 5 IEnMin= 5 EnMin= -526.852522833580     IErMin= 5 ErrMin= 2.76D-06
 ErrMax= 2.76D-06  0.00D+00 EMaxC= 1.00D+00 BMatC= 1.74D-09 BMatP= 4.72D-09
 IDIUse=1 WtCom= 1.00D+00 WtEn= 0.00D+00
 Coeff-Com:  0.473D-02-0.127D+00-0.170D+00 0.397D+00 0.896D+00
 Coeff:      0.473D-02-0.127D+00-0.170D+00 0.397D+00 0.896D+00
 Gap=     0.405 Goal=   None    Shift=    0.000
 RMSDP=2.84D-07 MaxDP=1.06D-05 DE=-7.53D-09 OVMax= 6.04D-05

 Cycle  13  Pass 1  IDiag  1:
 E= -526.852522837209     Delta-E=       -0.000000003629 Rises=F Damp=F
 DIIS: error= 4.86D-07 at cycle   6 NSaved=   6.
 NSaved= 6 IEnMin= 6 EnMin= -526.852522837209     IErMin= 6 ErrMin= 4.86D-07
 ErrMax= 4.86D-07  0.00D+00 EMaxC= 1.00D+00 BMatC= 9.62D-11 BMatP= 1.74D-09
 IDIUse=1 WtCom= 1.00D+00 WtEn= 0.00D+00
 Coeff-Com:  0.509D-02-0.520D-01-0.810D-01 0.693D-01 0.307D+00 0.752D+00
 Coeff:      0.509D-02-0.520D-01-0.810D-01 0.693D-01 0.307D+00 0.752D+00
 Gap=     0.405 Goal=   None    Shift=    0.000
 RMSDP=6.09D-08 MaxDP=2.10D-06 DE=-3.63D-09 OVMax= 1.17D-05

 Cycle  14  Pass 1  IDiag  1:
 E= -526.852522837357     Delta-E=       -0.000000000148 Rises=F Damp=F
 DIIS: error= 1.42D-07 at cycle   7 NSaved=   7.
 NSaved= 7 IEnMin= 7 EnMin= -526.852522837357     IErMin= 7 ErrMin= 1.42D-07
 ErrMax= 1.42D-07  0.00D+00 EMaxC= 1.00D+00 BMatC= 7.12D-12 BMatP= 9.62D-11
 IDIUse=1 WtCom= 1.00D+00 WtEn= 0.00D+00
 Coeff-Com:  0.795D-03-0.176D-03-0.348D-02-0.204D-01-0.138D-01 0.179D+00
 Coeff-Com:  0.858D+00
 Coeff:      0.795D-03-0.176D-03-0.348D-02-0.204D-01-0.138D-01 0.179D+00
 Coeff:      0.858D+00
 Gap=     0.405 Goal=   None    Shift=    0.000
 RMSDP=1.67D-08 MaxDP=4.16D-07 DE=-1.48D-10 OVMax= 2.84D-06

 Cycle  15  Pass 1  IDiag  1:
 E= -526.852522837379     Delta-E=       -0.000000000021 Rises=F Damp=F
 DIIS: error= 7.41D-08 at cycle   8 NSaved=   8.
 NSaved= 8 IEnMin= 8 EnMin= -526.852522837379     IErMin= 8 ErrMin= 7.41D-08
 ErrMax= 7.41D-08  0.00D+00 EMaxC= 1.00D+00 BMatC= 1.59D-12 BMatP= 7.12D-12
 IDIUse=1 WtCom= 1.00D+00 WtEn= 0.00D+00
 Coeff-Com: -0.357D-03 0.672D-02 0.894D-02-0.168D-01-0.470D-01-0.172D-01
 Coeff-Com:  0.346D+00 0.720D+00
 Coeff:     -0.357D-03 0.672D-02 0.894D-02-0.168D-01-0.470D-01-0.172D-01
 Coeff:      0.346D+00 0.720D+00
 Gap=     0.405 Goal=   None    Shift=    0.000
 RMSDP=4.99D-09 MaxDP=1.56D-07 DE=-2.13D-11 OVMax= 6.70D-07

 SCF Done:  E(RM062X) =  -526.852522837     A.U. after   15 cycles
            NFock= 15  Conv=0.50D-08     -V/T= 2.0036
 KE= 5.249416074362D+02 PE=-1.925220418042D+03 EE= 5.348953864484D+02
 Leave Link  502 at Sun May 25 04:16:04 2025, MaxMem=  3758096384 cpu:              50.2 elap:              10.3
 (Enter /apps/easybuild-2022/easybuild/software/Compiler/NVHPC/22.11-CUDA-11.7.0/Gaussian/g16c01-CUDA-11.7.0/g16/l508.exe)
 QCSCF skips out because SCF is already converged.
 Leave Link  508 at Sun May 25 04:16:04 2025, MaxMem=  3758096384 cpu:               0.0 elap:               0.0
 (Enter /apps/easybuild-2022/easybuild/software/Compiler/NVHPC/22.11-CUDA-11.7.0/Gaussian/g16c01-CUDA-11.7.0/g16/l701.exe)
 ... and contract with generalized density number  0.
 Compute integral first derivatives.
   1 Symmetry operations used in ECPInt.
 ECPInt:  NShTT=    3486 NPrTT=   11183 LenC2=    3402 LenP2D=    8716.
 LDataN:  DoStor=T MaxTD1= 7 Len=  274
 Leave Link  701 at Sun May 25 04:16:04 2025, MaxMem=  3758096384 cpu:               0.9 elap:               0.2
 (Enter /apps/easybuild-2022/easybuild/software/Compiler/NVHPC/22.11-CUDA-11.7.0/Gaussian/g16c01-CUDA-11.7.0/g16/l702.exe)
 L702 exits ... SP integral derivatives will be done elsewhere.
 Leave Link  702 at Sun May 25 04:16:04 2025, MaxMem=  3758096384 cpu:               0.1 elap:               0.0
 (Enter /apps/easybuild-2022/easybuild/software/Compiler/NVHPC/22.11-CUDA-11.7.0/Gaussian/g16c01-CUDA-11.7.0/g16/l703.exe)
 Integral derivatives from FoFJK, PRISM(SPDF).
 Compute integral first derivatives, UseDBF=F ICtDFT=           0.
 Calling FoFJK, ICntrl=      2127 FMM=F ISym2X=0 I1Cent= 0 IOpClX= 0 NMat=1 NMatS=1 NMatT=0.
 FoFJK:  IHMeth= 1 ICntrl=    2127 DoSepK=F KAlg= 0 I1Cent=           0 FoldK=F
 IRaf=         0 NMat=       1 IRICut=       1 DoRegI=T DoRafI=F ISym2E= 0 IDoP0=0 IntGTp=1.
 FoFCou: FMM=F IPFlag=           0 FMFlag=      100000 FMFlg1=         800
         NFxFlg=           0 DoJE=F BraDBF=F KetDBF=F FulRan=T
         wScrn=  0.000000 ICntrl=      2127 IOpCl=  0 I1Cent=           0 NGrid=           0
         NMat0=    1 NMatS0=      1 NMatT0=    0 NMatD0=    1 NMtDS0=    0 NMtDT0=    0
 Symmetry not used in FoFCou.
 Leave Link  703 at Sun May 25 04:16:08 2025, MaxMem=  3758096384 cpu:              24.4 elap:               3.7
 (Enter /apps/easybuild-2022/easybuild/software/Compiler/NVHPC/22.11-CUDA-11.7.0/Gaussian/g16c01-CUDA-11.7.0/g16/l716.exe)
 Dipole        = 1.81440456D-01 4.51443859D-02-8.60371027D-01
 -------------------------------------------------------------------
 Center     Atomic                   Forces (Hartrees/Bohr)
 Number     Number              X              Y              Z
 -------------------------------------------------------------------
      1        6           0.000844715    0.001864852   -0.000325570
      2        8           0.000740198   -0.000208290   -0.001156211
      3        6           0.001651365    0.001638361    0.000667377
      4        9          -0.000241683   -0.000890073   -0.000137898
      5        9          -0.001095562   -0.001076209   -0.000320285
      6        9          -0.000567929   -0.000213444    0.000685845
      7        8          -0.001498285   -0.000665848    0.000931930
      8        1           0.000167181   -0.000449350   -0.000345187
 -------------------------------------------------------------------
 Cartesian Forces:  Max     0.001864852 RMS     0.000916444
 Leave Link  716 at Sun May 25 04:16:08 2025, MaxMem=  3758096384 cpu:               0.1 elap:               0.0
 (Enter /apps/easybuild-2022/easybuild/software/Compiler/NVHPC/22.11-CUDA-11.7.0/Gaussian/g16c01-CUDA-11.7.0/g16/l103.exe)

 GradGradGradGradGradGradGradGradGradGradGradGradGradGradGradGradGradGrad
 Berny optimization.
 Using GEDIIS/GDIIS optimizer.
 FormGI is forming the generalized inverse of G from B-inverse, IUseBI=4.
 Internal  Forces:  Max     0.001822248 RMS     0.000789029
 Search for a local minimum.
 Step number   2 out of a maximum of   35
 All quantities printed in internal units (Hartrees-Bohrs-Radians)
 RMS Force = .78903D-03 SwitMx=.10000D-02 MixMth= 2
 Mixed Optimization -- En-DIIS/RFO-DIIS
 Update second derivatives using D2CorX and points    1    2
 DE= -2.90D-03 DEPred=-2.93D-03 R= 9.90D-01
 TightC=F SS=  1.41D+00  RLast= 1.01D+00 DXNew= 5.0454D-01 3.0295D+00
 Trust test= 9.90D-01 RLast= 1.01D+00 DXMaxT set to 5.05D-01
 ITU=  1  0
 Use linear search instead of GDIIS.
     Eigenvalues ---   -0.00014   0.01979   0.04383   0.11748   0.13718
     Eigenvalues ---    0.15112   0.17145   0.21860   0.22296   0.23934
     Eigenvalues ---    0.28592   0.38028   0.40460   0.41560   0.46625
     Eigenvalues ---    0.52430   0.58289   0.98427
 Eigenvalue     1 is  -1.41D-04 should be greater than     0.000000 Eigenvector:
                          D4        D5        D3        D7        D8
   1                   -0.42289  -0.41743  -0.41304  -0.40282  -0.39737
                          D6        D1        A3        A1        D2
   1                   -0.39297   0.03070   0.01584  -0.01097   0.01061
 RFO step:  Lambda=-4.21932861D-04 EMin=-1.40932723D-04
 Quartic linear search produced a step of  0.07485.
 Iteration  1 RMS(Cart)=  0.10553948 RMS(Int)=  0.11764715
 Iteration  2 RMS(Cart)=  0.10634918 RMS(Int)=  0.02019663
 Iteration  3 RMS(Cart)=  0.02192878 RMS(Int)=  0.00022128
 Iteration  4 RMS(Cart)=  0.00025564 RMS(Int)=  0.00001808
 Iteration  5 RMS(Cart)=  0.00000003 RMS(Int)=  0.00001808
 ITry= 1 IFail=0 DXMaxC= 5.99D-01 DCOld= 1.00D+10 DXMaxT= 5.05D-01 DXLimC= 3.00D+00 Rises=F
 Variable       Old X    -DE/DX   Delta X   Delta X   Delta X     New X
                                 (Linear)    (Quad)   (Total)
    R1        2.50820   0.00182   0.00037   0.00304   0.00341   2.51161
    R2        2.91415   0.00082  -0.00300   0.00844   0.00545   2.91959
    R3        2.24465   0.00102  -0.00010   0.00002  -0.00008   2.24457
    R4        1.82789  -0.00000  -0.00020  -0.00032  -0.00052   1.82737
    R5        2.50717   0.00073   0.00013   0.00469   0.00483   2.51200
    R6        2.52348  -0.00156   0.00048   0.00135   0.00183   2.52532
    R7        2.49190   0.00090  -0.00096  -0.00603  -0.00698   2.48492
    A1        1.92215   0.00018  -0.00812  -0.00385  -0.01198   1.91018
    A2        2.20617   0.00115   0.00565  -0.00595  -0.00031   2.20586
    A3        2.15377  -0.00129   0.00241   0.00994   0.01234   2.16611
    A4        1.88569   0.00084   0.00376   0.00074   0.00451   1.89019
    A5        1.94748  -0.00043  -0.00277  -0.00823  -0.01100   1.93648
    A6        1.89961   0.00049  -0.00010   0.00568   0.00554   1.90515
    A7        1.92716   0.00003   0.00179   0.00273   0.00451   1.93167
    A8        1.88908   0.00023  -0.00008  -0.00173  -0.00184   1.88724
    A9        1.90265  -0.00022   0.00068  -0.00025   0.00045   1.90310
   A10        1.89684  -0.00007   0.00055   0.00197   0.00247   1.89931
    D1       -3.06978  -0.00078   0.00283  -0.00061   0.00224  -3.06754
    D2        0.02264   0.00013   0.00121   0.00271   0.00389   0.02653
    D3       -0.77511   0.00000  -0.03044  -0.40741  -0.43786  -1.21297
    D4        1.30841   0.00033  -0.03238  -0.41095  -0.44333   0.86508
    D5       -2.89404   0.00056  -0.03072  -0.40340  -0.43409   2.95506
    D6        2.41389  -0.00095  -0.02894  -0.41009  -0.43906   1.97483
    D7       -1.78578  -0.00063  -0.03088  -0.41363  -0.44453  -2.23030
    D8        0.29495  -0.00040  -0.02922  -0.40608  -0.43528  -0.14033
         Item               Value     Threshold  Converged?
 Maximum Force            0.001822     0.000450     NO 
 RMS     Force            0.000789     0.000300     NO 
 Maximum Displacement     0.599144     0.001800     NO 
 RMS     Displacement     0.230735     0.001200     NO 
 Predicted change in Energy=-5.051897D-04
 Lowest energy point so far.  Saving SCF results.
 GradGradGradGradGradGradGradGradGradGradGradGradGradGradGradGradGradGrad

 Leave Link  103 at Sun May 25 04:16:08 2025, MaxMem=  3758096384 cpu:               0.1 elap:               0.0
 (Enter /apps/easybuild-2022/easybuild/software/Compiler/NVHPC/22.11-CUDA-11.7.0/Gaussian/g16c01-CUDA-11.7.0/g16/l202.exe)
                          Input orientation:                          
 ---------------------------------------------------------------------
 Center     Atomic      Atomic             Coordinates (Angstroms)
 Number     Number       Type             X           Y           Z
 ---------------------------------------------------------------------
      1          6           0       -0.536494    0.293892   -0.808493
      2          8           0        0.342124    0.381345   -1.801900
      3          6           0        0.175352   -0.216196    0.464322
      4          9           0        0.532449   -1.489689    0.331234
      5          9           0        1.280763    0.506554    0.668046
      6          9           0       -0.608296   -0.097833    1.513612
      7          8           0       -1.682617    0.602580   -0.852282
      8          1           0       -0.104334    0.764663   -2.569259
 ---------------------------------------------------------------------
                    Distance matrix (angstroms):
                    1          2          3          4          5
     1  C    0.000000
     2  O    1.329088   0.000000
     3  C    1.544983   2.349602   0.000000
     4  F    2.371239   2.843809   1.329291   0.000000
     5  F    2.351131   2.645251   1.336340   2.158333   0.000000
     6  F    2.356008   3.482173   1.314962   2.153272   2.156110
     7  O    1.187773   2.247286   2.419895   3.268764   3.332003
     8  H    1.873148   0.967004   3.200456   3.728331   3.530617
                    6          7          8
     6  F    0.000000
     7  O    2.691134   0.000000
     8  H    4.203298   2.337789   0.000000
 Symmetry turned off by external request.
 Stoichiometry    C2HF3O2
 Rotational constants (GHZ):           3.8974796           2.5119672           2.0844791
 Leave Link  202 at Sun May 25 04:16:08 2025, MaxMem=  3758096384 cpu:               0.1 elap:               0.0
 (Enter /apps/easybuild-2022/easybuild/software/Compiler/NVHPC/22.11-CUDA-11.7.0/Gaussian/g16c01-CUDA-11.7.0/g16/l301.exe)
 Standard basis: def2TZVPP (5D, 7F)
 Ernie: Thresh=  0.10000D-02 Tol=  0.10000D-05 Strict=F.
   231 basis functions,   374 primitive gaussians,   267 cartesian basis functions
    28 alpha electrons       28 beta electrons
       nuclear repulsion energy       338.4216268589 Hartrees.
 IExCor= 4336 DFT=T Ex+Corr=M062X ExCW=0 ScaHFX=  0.540000
 ScaDFX=  1.000000  1.000000  1.000000  1.000000 ScalE2=  1.000000  1.000000
 IRadAn=      5 IRanWt=     -1 IRanGd=            0 ICorTp=0 IEmpDi=  4
 NAtoms=    8 NActive=    8 NUniq=    8 SFac= 1.00D+00 NAtFMM=   60 NAOKFM=F Big=F
 Integral buffers will be    131072 words long.
 Raffenetti 2 integral format.
 Two-electron integral symmetry is turned off.
 Leave Link  301 at Sun May 25 04:16:08 2025, MaxMem=  3758096384 cpu:               0.1 elap:               0.0
 (Enter /apps/easybuild-2022/easybuild/software/Compiler/NVHPC/22.11-CUDA-11.7.0/Gaussian/g16c01-CUDA-11.7.0/g16/l302.exe)
 NPDir=0 NMtPBC=     1 NCelOv=     1 NCel=       1 NClECP=     1 NCelD=      1
         NCelK=      1 NCelE2=     1 NClLst=     1 CellRange=     0.0.
 One-electron integrals computed using PRISM.
   1 Symmetry operations used in ECPInt.
 ECPInt:  NShTT=    3486 NPrTT=   11183 LenC2=    3404 LenP2D=    8710.
 LDataN:  DoStor=T MaxTD1= 6 Len=  172
 NBasis=   231 RedAO= T EigKep=  5.58D-04  NBF=   231
 NBsUse=   231 1.00D-06 EigRej= -1.00D+00 NBFU=   231
 Precomputing XC quadrature grid using
 IXCGrd= 4 IRadAn=           5 IRanWt=          -1 IRanGd=           0 AccXCQ= 0.00D+00.
 Generated NRdTot=       0 NPtTot=           0 NUsed=           0 NTot=          32
 NSgBfM=   266   266   266   266   266 MxSgAt=     8 MxSgA2=     8.
 Leave Link  302 at Sun May 25 04:16:08 2025, MaxMem=  3758096384 cpu:               0.7 elap:               0.2
 (Enter /apps/easybuild-2022/easybuild/software/Compiler/NVHPC/22.11-CUDA-11.7.0/Gaussian/g16c01-CUDA-11.7.0/g16/l303.exe)
 DipDrv:  MaxL=1.
 Leave Link  303 at Sun May 25 04:16:08 2025, MaxMem=  3758096384 cpu:               0.1 elap:               0.1
 (Enter /apps/easybuild-2022/easybuild/software/Compiler/NVHPC/22.11-CUDA-11.7.0/Gaussian/g16c01-CUDA-11.7.0/g16/l401.exe)
 Initial guess from the checkpoint file:  "1141903082400600000001_intra_H_migration_2_8_IRC_R_prod.chk"
 B after Tr=    -0.009913   -0.030356   -0.010636
         Rot=    0.999739    0.019484   -0.009044    0.007717 Ang=   2.62 deg.
 Guess basis will be translated and rotated to current coordinates.
 JPrj=2 DoOrth=T DoCkMO=T.
 Generating alternative initial guess.
 ExpMin= 9.52D-02 ExpMax= 3.55D+04 ExpMxC= 1.21D+03 IAcc=3 IRadAn=         5 AccDes= 0.00D+00
 Harris functional with IExCor= 1009 and IRadAn=       5 diagonalized for initial guess.
 HarFok:  IExCor= 1009 AccDes= 0.00D+00 IRadAn=         5 IDoV= 1 UseB2=F ITyADJ=14
 ICtDFT=  3500011 ScaDFX=  1.000000  1.000000  1.000000  1.000000
 FoFCou: FMM=F IPFlag=           0 FMFlag=      100000 FMFlg1=           0
         NFxFlg=           0 DoJE=T BraDBF=F KetDBF=T FulRan=T
         wScrn=  0.000000 ICntrl=       500 IOpCl=  0 I1Cent=   200000004 NGrid=           0
         NMat0=    1 NMatS0=      1 NMatT0=    0 NMatD0=    1 NMtDS0=    0 NMtDT0=    0
 Symmetry not used in FoFCou.
 Harris En= -526.546856974503    
 Leave Link  401 at Sun May 25 04:16:09 2025, MaxMem=  3758096384 cpu:               2.5 elap:               0.6
 (Enter /apps/easybuild-2022/easybuild/software/Compiler/NVHPC/22.11-CUDA-11.7.0/Gaussian/g16c01-CUDA-11.7.0/g16/l502.exe)
 Keep R1 ints in memory in canonical form, NReq=368651279.
 FoFCou: FMM=F IPFlag=           0 FMFlag=           0 FMFlg1=           0
         NFxFlg=           0 DoJE=F BraDBF=F KetDBF=F FulRan=T
         wScrn=  0.000000 ICntrl=       600 IOpCl=  0 I1Cent=           0 NGrid=           0
         NMat0=    1 NMatS0=  26796 NMatT0=    0 NMatD0=    1 NMtDS0=    0 NMtDT0=    0
 Symmetry not used in FoFCou.
 Two-electron integral symmetry not used.
 Closed shell SCF:
 Using DIIS extrapolation, IDIIS=  1040.
 NGot=  3758096384 LenX=  3398923531 LenY=  3398851801
 Requested convergence on RMS density matrix=1.00D-08 within  32 cycles.
 Requested convergence on MAX density matrix=1.00D-06.
 Requested convergence on             energy=1.00D-06.
 No special actions if energy rises.
 Integral accuracy reduced to 1.0D-05 until final iterations.

 Cycle   1  Pass 0  IDiag  1:
 E= -526.744728636568    
 DIIS: error= 1.55D-02 at cycle   1 NSaved=   1.
 NSaved= 1 IEnMin= 1 EnMin= -526.744728636568     IErMin= 1 ErrMin= 1.55D-02
 ErrMax= 1.55D-02  0.00D+00 EMaxC= 1.00D-01 BMatC= 7.83D-02 BMatP= 7.83D-02
 IDIUse=3 WtCom= 8.45D-01 WtEn= 1.55D-01
 Coeff-Com:  0.100D+01
 Coeff-En:   0.100D+01
 Coeff:      0.100D+01
 Recover alternate guess density for next cycle.
 RMSDP=1.99D-03 MaxDP=3.84D-02              OVMax= 0.00D+00

 Cycle   2  Pass 0  IDiag  1:
 E= -526.708969430985     Delta-E=        0.035759205583 Rises=F Damp=F
 Switch densities from cycles 1 and 2 for lowest energy.
 DIIS: error= 2.42D-02 at cycle   2 NSaved=   2.
 NSaved= 2 IEnMin= 1 EnMin= -526.744728636568     IErMin= 1 ErrMin= 1.55D-02
 ErrMax= 2.42D-02  0.00D+00 EMaxC= 1.00D+00 BMatC= 2.78D-01 BMatP= 7.83D-02
 IDIUse=1 WtCom= 1.00D+00 WtEn= 0.00D+00
 Coeff-Com:  0.805D+00 0.195D+00
 Coeff:      0.805D+00 0.195D+00
 Gap=     0.397 Goal=   None    Shift=    0.000
 RMSDP=1.20D-03 MaxDP=3.01D-02 DE= 3.58D-02 OVMax= 1.12D-01

 Cycle   3  Pass 0  IDiag  1:
 E= -526.836931647017     Delta-E=       -0.127962216033 Rises=F Damp=F
 DIIS: error= 6.26D-03 at cycle   3 NSaved=   3.
 NSaved= 3 IEnMin= 3 EnMin= -526.836931647017     IErMin= 3 ErrMin= 6.26D-03
 ErrMax= 6.26D-03  0.00D+00 EMaxC= 1.00D+00 BMatC= 2.06D-02 BMatP= 7.83D-02
 IDIUse=1 WtCom= 1.00D+00 WtEn= 0.00D+00
 Coeff-Com: -0.174D-01 0.196D+00 0.822D+00
 Coeff:     -0.174D-01 0.196D+00 0.822D+00
 Gap=     0.410 Goal=   None    Shift=    0.000
 RMSDP=3.85D-04 MaxDP=1.39D-02 DE=-1.28D-01 OVMax= 2.92D-02

 Cycle   4  Pass 0  IDiag  1:
 E= -526.850748237319     Delta-E=       -0.013816590301 Rises=F Damp=F
 DIIS: error= 2.80D-03 at cycle   4 NSaved=   4.
 NSaved= 4 IEnMin= 4 EnMin= -526.850748237319     IErMin= 4 ErrMin= 2.80D-03
 ErrMax= 2.80D-03  0.00D+00 EMaxC= 1.00D+00 BMatC= 1.94D-03 BMatP= 2.06D-02
 IDIUse=1 WtCom= 1.00D+00 WtEn= 0.00D+00
 Coeff-Com: -0.407D-01 0.166D-01 0.259D+00 0.765D+00
 Coeff:     -0.407D-01 0.166D-01 0.259D+00 0.765D+00
 Gap=     0.402 Goal=   None    Shift=    0.000
 RMSDP=1.27D-04 MaxDP=5.55D-03 DE=-1.38D-02 OVMax= 1.37D-02

 Cycle   5  Pass 0  IDiag  1:
 E= -526.852037238463     Delta-E=       -0.001289001145 Rises=F Damp=F
 DIIS: error= 1.03D-03 at cycle   5 NSaved=   5.
 NSaved= 5 IEnMin= 5 EnMin= -526.852037238463     IErMin= 5 ErrMin= 1.03D-03
 ErrMax= 1.03D-03  0.00D+00 EMaxC= 1.00D+00 BMatC= 2.82D-04 BMatP= 1.94D-03
 IDIUse=1 WtCom= 1.00D+00 WtEn= 0.00D+00
 Coeff-Com: -0.175D-01-0.386D-02 0.707D-01 0.383D+00 0.567D+00
 Coeff:     -0.175D-01-0.386D-02 0.707D-01 0.383D+00 0.567D+00
 Gap=     0.405 Goal=   None    Shift=    0.000
 RMSDP=4.16D-05 MaxDP=1.50D-03 DE=-1.29D-03 OVMax= 4.72D-03

 Cycle   6  Pass 0  IDiag  1:
 E= -526.852233583615     Delta-E=       -0.000196345152 Rises=F Damp=F
[...]
     15 -0.441808D-02 -0.122012D-01 -0.620440D-02  0.448600D-03  0.226241D-01
     16 -0.485901D-02 -0.183546D-01 -0.406169D-02  0.746897D-03  0.242705D-01
     17 -0.490771D-02 -0.183488D-01 -0.408247D-02  0.747334D-03 -0.357954D-02
     18 -0.287846D-04  0.203473D-04 -0.461080D-05  0.603392D-04 -0.298471D-02
     19  0.473147D-04  0.281414D-05 -0.139793D-04  0.419934D-04  0.163900D-02
     20  0.283874D-02  0.119027D-02 -0.402192D-02  0.425511D-03  0.279150D-02
     21 -0.270048D-02 -0.118203D-02  0.403491D-02 -0.432310D-03  0.235548D-01
     22  0.900888D-04 -0.577487D-05  0.351030D-04 -0.156950D-04 -0.187479D-01
     23  0.276773D-02  0.120569D-02 -0.401190D-02  0.442646D-03 -0.165268D-02
     24 -0.277149D-02 -0.116661D-02  0.404493D-02 -0.415175D-03  0.191106D-01
     25  0.190807D-04  0.964729D-05  0.451234D-04  0.144001D-05 -0.231921D-01
                6             7             8             9            10 
      6  0.438972D+00
      7  0.572542D-01  0.463469D+00
      8 -0.354788D-02  0.199441D-01  0.155144D+00
      9 -0.895858D-02 -0.490039D-02 -0.978187D-01  0.185917D+00
     10  0.125067D-01 -0.150437D-01 -0.573251D-01 -0.880984D-01  0.145423D+00
     11  0.195671D-03  0.309816D-02  0.262847D-01 -0.290135D-01  0.272881D-02
     12 -0.283073D-01 -0.301142D-01 -0.326934D-02 -0.636822D-02  0.963722D-02
     13  0.172164D-01 -0.303084D-01 -0.328127D-02 -0.653782D-02  0.981944D-02
     14 -0.304559D-01  0.131203D-01  0.170447D-01 -0.954301D-02 -0.750169D-02
     15  0.224319D-01 -0.234677D-02 -0.232953D-03  0.679234D-02 -0.655939D-02
     16 -0.364342D-02  0.253614D-01 -0.530116D-02  0.813993D-02 -0.283872D-02
     17  0.241154D-01  0.254092D-01 -0.534218D-02  0.818475D-02 -0.284262D-02
     18  0.294882D-02  0.447047D-04  0.611856D-04 -0.120663D-04 -0.484300D-04
     19 -0.164158D-02  0.265659D-05  0.562431D-04 -0.275394D-04 -0.293613D-04
     20 -0.235620D-01  0.205624D-01  0.223118D-02 -0.134243D-03 -0.209768D-02
     21 -0.277454D-02 -0.206282D-01 -0.220780D-02  0.111291D-03  0.209577D-02
     22  0.187598D-01 -0.658021D-04 -0.167386D-04 -0.390864D-04  0.552456D-04
     23 -0.191514D-01  0.206031D-01  0.223400D-02 -0.108574D-03 -0.212488D-02
     24  0.163599D-02 -0.205874D-01 -0.220497D-02  0.136959D-03  0.206857D-02
     25  0.231704D-01 -0.250490D-04 -0.139112D-04 -0.134184D-04  0.280445D-04
               11            12            13            14            15 
     11  0.166589D+00
     12 -0.262753D-02  0.179403D+00
     13 -0.253865D-02  0.116884D-01  0.178832D+00
     14  0.582543D-02 -0.471518D-02 -0.475899D-02  0.202757D+00
     15  0.264795D-03 -0.873934D-01 -0.872101D-01 -0.167189D-01  0.137168D+00
     16 -0.486354D-03 -0.869647D-01 -0.169815D-01 -0.914886D-01  0.298926D-01
     17 -0.491582D-03 -0.171375D-01 -0.866853D-01 -0.914408D-01  0.298608D-01
     18 -0.120725D-03 -0.468680D-02  0.478017D-02 -0.358760D-04 -0.176722D-04
     19 -0.898930D-04  0.199835D-02 -0.198547D-02 -0.269430D-04  0.442337D-05
     20  0.147929D-02 -0.119464D-02 -0.114540D-01  0.133833D-01 -0.297343D-01
     21 -0.146541D-02  0.115093D-01  0.111262D-02 -0.133495D-01  0.297274D-01
     22  0.325590D-04 -0.533662D-02  0.522527D-02  0.451727D-04  0.290315D-04
     23  0.144838D-02 -0.761965D-02 -0.495285D-02  0.133746D-01 -0.297550D-01
     24 -0.149632D-02  0.508426D-02  0.761374D-02 -0.133582D-01  0.297067D-01
     25  0.164443D-05 -0.117616D-01  0.117264D-01  0.364698D-04  0.831343D-05
               16            17            18            19            20 
     16  0.140385D+00
     17  0.309064D-01  0.140240D+00
     18  0.475251D-03 -0.516871D-03  0.155215D-01
     19 -0.470563D-03  0.480938D-03  0.216556D-02  0.149081D-01
     20  0.294055D-01 -0.633796D-03 -0.795544D-02  0.640155D-02  0.370290D-01
     21  0.615245D-03 -0.293843D-01 -0.791827D-02  0.641523D-02 -0.785340D-02
     22 -0.306332D-01  0.306692D-01 -0.550809D-02  0.571878D-02 -0.741341D-02
     23  0.303149D-01 -0.159225D-02  0.487952D-02 -0.584395D-02  0.232320D-01
     24  0.152460D-02 -0.303428D-01  0.491669D-02 -0.583027D-02 -0.216503D-01
     25 -0.297239D-01  0.297108D-01  0.732687D-02 -0.652672D-02 -0.212103D-01
               21            22            23            24            25 
     21  0.370036D-01
     22 -0.744805D-02  0.341320D-01
     23 -0.216279D-01 -0.182024D-01  0.335373D-01
     24  0.232291D-01 -0.182370D-01 -0.113226D-01  0.335568D-01
     25 -0.212225D-01  0.233430D-01 -0.789711D-02 -0.790932D-02  0.366563D-01
 Leave Link  716 at Sun May 25 04:18:29 2025, MaxMem=  3758096384 cpu:               0.1 elap:               0.0
 (Enter /apps/easybuild-2022/easybuild/software/Compiler/NVHPC/22.11-CUDA-11.7.0/Gaussian/g16c01-CUDA-11.7.0/g16/l103.exe)

 GradGradGradGradGradGradGradGradGradGradGradGradGradGradGradGradGradGrad
 Berny optimization.
 Red2BG is reusing G-inverse.
 Internal  Forces:  Max     0.000039387 RMS     0.000012642
 Search for a local minimum.
 Step number   1 out of a maximum of    2
 All quantities printed in internal units (Hartrees-Bohrs-Radians)
 Second derivative matrix not updated -- analytic derivatives used.
 ITU=  0
     Eigenvalues ---    0.00074   0.01740   0.04775   0.12036   0.13822
     Eigenvalues ---    0.14730   0.18653   0.22163   0.23228   0.24869
     Eigenvalues ---    0.28991   0.39706   0.40350   0.42135   0.46416
     Eigenvalues ---    0.52970   0.58423   0.97898
 Angle between quadratic step and forces=  31.63 degrees.
 Linear search not attempted -- first point.
 Iteration  1 RMS(Cart)=  0.00012178 RMS(Int)=  0.00000001
 Iteration  2 RMS(Cart)=  0.00000001 RMS(Int)=  0.00000000
 ITry= 1 IFail=0 DXMaxC= 2.80D-04 DCOld= 1.00D+10 DXMaxT= 3.00D-01 DXLimC= 3.00D+00 Rises=F
 Variable       Old X    -DE/DX   Delta X   Delta X   Delta X     New X
                                 (Linear)    (Quad)   (Total)
    R1        2.51114  -0.00001   0.00000  -0.00003  -0.00003   2.51110
    R2        2.91759  -0.00000   0.00000  -0.00002  -0.00002   2.91757
    R3        2.24497  -0.00001   0.00000   0.00000   0.00000   2.24498
    R4        1.82753   0.00000   0.00000   0.00001   0.00001   1.82754
    R5        2.51453  -0.00002   0.00000  -0.00005  -0.00005   2.51448
    R6        2.51443  -0.00000   0.00000   0.00002   0.00002   2.51446
    R7        2.49323   0.00001   0.00000   0.00001   0.00001   2.49324
    A1        1.91697   0.00004   0.00000   0.00020   0.00020   1.91717
    A2        2.21142  -0.00000   0.00000  -0.00002  -0.00002   2.21140
    A3        2.15480  -0.00003   0.00000  -0.00018  -0.00018   2.15462
    A4        1.89235  -0.00001   0.00000  -0.00009  -0.00009   1.89226
    A5        1.92419  -0.00000   0.00000   0.00001   0.00001   1.92420
    A6        1.92421   0.00000   0.00000   0.00001   0.00001   1.92422
    A7        1.92566   0.00001   0.00000   0.00001   0.00001   1.92568
    A8        1.89094  -0.00001   0.00000  -0.00003  -0.00003   1.89091
    A9        1.89901   0.00000   0.00000   0.00004   0.00004   1.89905
   A10        1.89914  -0.00001   0.00000  -0.00004  -0.00004   1.89910
    D1       -3.14138   0.00000   0.00000  -0.00003  -0.00003  -3.14141
    D2        0.00027  -0.00000   0.00000  -0.00004  -0.00004   0.00023
    D3       -1.04456   0.00000   0.00000  -0.00002  -0.00002  -1.04458
    D4        1.04248  -0.00000   0.00000  -0.00006  -0.00006   1.04243
    D5        3.14065  -0.00000   0.00000  -0.00009  -0.00009   3.14056
    D6        2.09698   0.00001   0.00000  -0.00001  -0.00001   2.09697
    D7       -2.09916  -0.00000   0.00000  -0.00004  -0.00004  -2.09921
    D8       -0.00100  -0.00000   0.00000  -0.00008  -0.00008  -0.00108
         Item               Value     Threshold  Converged?
 Maximum Force            0.000039     0.000450     YES
 RMS     Force            0.000013     0.000300     YES
 Maximum Displacement     0.000280     0.001800     YES
 RMS     Displacement     0.000122     0.001200     YES
 Predicted change in Energy=-8.876913D-09
 Optimization completed.
    -- Stationary point found.
                           ----------------------------
                           !   Optimized Parameters   !
                           ! (Angstroms and Degrees)  !
 --------------------------                            --------------------------
 ! Name  Definition              Value          Derivative Info.                !
 --------------------------------------------------------------------------------
 ! R1    R(1,2)                  1.3288         -DE/DX =    0.0                 !
 ! R2    R(1,3)                  1.5439         -DE/DX =    0.0                 !
 ! R3    R(1,7)                  1.188          -DE/DX =    0.0                 !
 ! R4    R(2,8)                  0.9671         -DE/DX =    0.0                 !
 ! R5    R(3,4)                  1.3306         -DE/DX =    0.0                 !
 ! R6    R(3,5)                  1.3306         -DE/DX =    0.0                 !
 ! R7    R(3,6)                  1.3194         -DE/DX =    0.0                 !
 ! A1    A(2,1,3)              109.8343         -DE/DX =    0.0                 !
 ! A2    A(2,1,7)              126.705          -DE/DX =    0.0                 !
 ! A3    A(3,1,7)              123.4607         -DE/DX =    0.0                 !
 ! A4    A(1,2,8)              108.4234         -DE/DX =    0.0                 !
 ! A5    A(1,3,4)              110.248          -DE/DX =    0.0                 !
 ! A6    A(1,3,5)              110.2494         -DE/DX =    0.0                 !
 ! A7    A(1,3,6)              110.3325         -DE/DX =    0.0                 !
 ! A8    A(4,3,5)              108.3431         -DE/DX =    0.0                 !
 ! A9    A(4,3,6)              108.8051         -DE/DX =    0.0                 !
 ! A10   A(5,3,6)              108.8128         -DE/DX =    0.0                 !
 ! D1    D(3,1,2,8)           -179.9876         -DE/DX =    0.0                 !
 ! D2    D(7,1,2,8)              0.0157         -DE/DX =    0.0                 !
 ! D3    D(2,1,3,4)            -59.8486         -DE/DX =    0.0                 !
 ! D4    D(2,1,3,5)             59.7299         -DE/DX =    0.0                 !
 ! D5    D(2,1,3,6)            179.9458         -DE/DX =    0.0                 !
 ! D6    D(7,1,3,4)            120.1483         -DE/DX =    0.0                 !
 ! D7    D(7,1,3,5)           -120.2733         -DE/DX =    0.0                 !
 ! D8    D(7,1,3,6)             -0.0573         -DE/DX =    0.0                 !
 --------------------------------------------------------------------------------
 GradGradGradGradGradGradGradGradGradGradGradGradGradGradGradGradGradGrad

 Leave Link  103 at Sun May 25 04:18:29 2025, MaxMem=  3758096384 cpu:               0.1 elap:               0.0
 (Enter /apps/easybuild-2022/easybuild/software/Compiler/NVHPC/22.11-CUDA-11.7.0/Gaussian/g16c01-CUDA-11.7.0/g16/l9999.exe)

 ----------------------------------------------------------------------

 Electric dipole moment (input orientation):
 (Debye = 10**-18 statcoulomb cm , SI units = C m)
                  (au)            (Debye)         (10**-30 SI)
   Tot        0.882479D+00      0.224304D+01      0.748197D+01
   x          0.214619D+00      0.545508D+00      0.181962D+01
   y          0.139727D+00      0.355151D+00      0.118465D+01
   z         -0.844502D+00     -0.214651D+01     -0.715999D+01

 Dipole polarizability, Alpha (input orientation).
 (esu units = cm**3 , SI units = C**2 m**2 J**-1)
 Alpha(0;0):
               (au)            (10**-24 esu)      (10**-40 SI)
   iso        0.317285D+02      0.470168D+01      0.523132D+01
   aniso      0.955719D+01      0.141623D+01      0.157577D+01
   xx         0.347518D+02      0.514969D+01      0.572980D+01
   yx        -0.281635D+01     -0.417340D+00     -0.464353D+00
   yy         0.267829D+02      0.396881D+01      0.441590D+01
   zx        -0.944842D+00     -0.140011D+00     -0.155783D+00
   zy        -0.172473D+01     -0.255579D+00     -0.284370D+00
   zz         0.336508D+02      0.498654D+01      0.554827D+01

 ----------------------------------------------------------------------

 Dipole orientation:
     6         -1.32908413         -0.41818360          1.30614579
     8         -0.25695850         -0.04010877          3.54521044
     6          0.55695856          0.24425436         -0.81902941
     9          1.25677968          2.65293428         -0.64187362
     9          2.61252266         -1.19241936         -0.63734967
     9         -0.48851063         -0.12678466         -3.05185373
     8         -3.41603881         -1.15227681          0.92453900
     1         -1.46877477         -0.46616454          4.84515127

 Electric dipole moment (dipole orientation):
 (Debye = 10**-18 statcoulomb cm , SI units = C m)
                  (au)            (Debye)         (10**-30 SI)
   Tot        0.882479D+00      0.224304D+01      0.748197D+01
   x          0.000000D+00      0.000000D+00      0.000000D+00
   y          0.000000D+00      0.000000D+00      0.000000D+00
   z          0.882479D+00      0.224304D+01      0.748197D+01

 Dipole polarizability, Alpha (dipole orientation).
 (esu units = cm**3 , SI units = C**2 m**2 J**-1)
 Alpha(0;0):
               (au)            (10**-24 esu)      (10**-40 SI)
   iso        0.317285D+02      0.470168D+01      0.523132D+01
   aniso      0.955719D+01      0.141623D+01      0.157577D+01
   xx         0.343619D+02      0.509191D+01      0.566551D+01
   yx         0.313420D+01      0.464440D+00      0.516759D+00
   yy         0.265343D+02      0.393197D+01      0.437491D+01
   zx         0.584174D+00      0.865656D-01      0.963173D-01
   zy         0.214205D+00      0.317419D-01      0.353176D-01
   zz         0.342893D+02      0.508115D+01      0.565354D+01

 ----------------------------------------------------------------------
 Unable to Open any file for archive entry.
 1\1\GINC-SPARTAN-BM188\Freq\RM062X\def2TZVPP\C2H1F3O2\AKHALILOV\25-May
 -2025\0\\#P Geom=AllCheck Guess=TCheck SCRF=Check GenChk RM062X/def2TZ
 VPP Freq\\Gaussian input prepared by ASE\\0,1\C,-0.5183226725,0.341735
 7018,-0.7974477129\O,0.323970267,0.3206712677,-1.8250196057\C,0.182959
 4211,-0.2020214988,0.4659732402\F,0.5899759669,-1.4527549868,0.2645086
 833\F,1.2462632089,0.5423128809,0.7588876302\F,-0.6447775,-0.184387262
 7,1.49322607\O,-1.6460687046,0.7149814782,-0.811275708\H,-0.1350529869
 ,0.6647784197,-2.6035735972\\Version=ES64L-G16RevC.01\HF=-526.8527626\
 RMSD=1.969e-09\RMSF=1.237e-05\ZeroPoint=0.0399638\Thermal=0.0461252\ET
 ot=-526.8066374\HTot=-526.8056932\GTot=-526.8440007\Dipole=0.2146192,0
 .139727,-0.8445021\DipoleDeriv=1.5231542,-0.3084779,-0.4397082,-0.3095
 245,0.374811,-0.1072174,-0.4391583,-0.1063457,1.2585341,-0.7039074,0.0
 360286,0.3439016,-0.0176197,-0.3444053,0.0695538,0.5619886,-0.0022715,
 -1.0671584,1.5851059,0.0786441,-0.1171968,0.0641206,1.691285,0.0919275
 ,-0.06373,0.0755194,1.5160139,-0.3700844,0.2163245,-0.0070409,0.200356
 1,-0.8680393,-0.0590305,-0.0356314,-0.011714,-0.3594875,-0.7196742,-0.
 2759865,-0.1566624,-0.2422366,-0.4848401,-0.045201,-0.1964322,-0.07015
 48,-0.3951383,-0.4976075,0.0092783,0.247225,-0.0041304,-0.2909098,0.03
 56023,0.3011212,0.0172019,-0.7538531,-1.0627112,0.2026636,0.1581064,0.
 2652057,-0.4140266,0.0144704,-0.0902264,0.0950084,-0.5883429,0.2457247
 ,0.0415252,-0.0286247,0.0438288,0.3361251,-0.0001051,-0.0379314,0.0027
 563,0.3894323\Polar=34.7518005,-2.816348,26.7828771,-0.944842,-1.72473
 33,33.6508099\PG=Unknown\NImag=0\\1.02299108,-0.25259520,0.33755719,-0
 .02641190,-0.08711846,0.61927205,-0.18523000,0.01819203,0.08530713,0.4
 0520619,0.01365206,-0.07535398,0.02177844,-0.12530269,0.11838926,0.103
 50492,0.01578514,-0.26619255,0.02038161,-0.15261217,0.62702572,-0.0702
 3080,0.01405985,-0.06296304,0.00207352,-0.00709174,0.03415263,0.597442
 04,0.01141489,-0.08951319,0.04385172,0.00256781,0.00635883,-0.00325047
 ,-0.01749298,0.55209069,-0.05219377,0.04028555,-0.16837565,-0.00472667
 ,0.00949761,-0.02571618,-0.00356265,-0.02187899,0.63586788,-0.00033256
 ,0.02511399,0.01076643,0.00131135,-0.00083832,-0.00483343,-0.10504398,
 0.08224295,-0.00292332,0.11174567,0.01151952,-0.03171846,-0.01819416,-
 0.00166209,0.00191919,0.00707466,0.07797381,-0.28210902,-0.00001514,-0
 .10272498,0.39654327,-0.00388275,0.02139821,0.01160024,-0.00076336,0.0
 0058677,-0.00158970,0.00142362,-0.00348353,-0.08426782,-0.02212196,0.0
 5345649,0.08240600,-0.02725567,-0.02901333,0.00161886,0.00384461,0.003
 40925,-0.00641968,-0.23434008,-0.09153654,-0.06965994,0.01452550,-0.02
 403316,-0.00181864,0.30895167,-0.00511579,0.00326993,0.00285491,0.0014
 9951,0.00106510,-0.00105782,-0.09003389,-0.12770167,-0.03307533,-0.040
 34021,-0.06934826,-0.02516843,0.16275060,0.18931249,-0.02535386,-0.023
 05886,0.00384866,0.00049310,0.00181784,-0.00335409,-0.06281970,-0.0333
 6967,-0.10907072,-0.00412923,-0.01989058,0.00954554,0.05878166,0.04773
 155,0.09211144,-0.00620954,0.00455908,0.00136541,0.00283617,-0.0004858
 1,-0.00118664,-0.15648496,-0.00284386,0.11935531,-0.01891649,0.0303088
 5,0.03385459,-0.06236762,-0.02690939,0.04004207,0.23466041,-0.00501953
 ,0.00790007,0.00998954,0.00070973,-0.00068008,0.00365300,0.00102025,-0
 .07701367,0.00607384,0.03872811,-0.01442294,-0.04665922,-0.03035116,0.
 00290018,0.01938605,-0.00316000,0.08216476,0.03998486,-0.00267204,-0.0
 3353538,-0.00602339,0.00524469,-0.01266687,0.10398648,0.01112866,-0.25
 825872,0.02885846,-0.03216267,-0.01471279,0.02469420,0.01152016,0.0112
 9792,-0.18913737,0.00664043,0.30704147,-0.75581389,0.23261780,-0.03817
 350,-0.07386588,0.02020572,0.05562118,-0.03074995,0.01395394,0.0104630
 8,-0.00320295,0.00852083,-0.00639361,-0.00392082,-0.00179720,-0.006900
 90,0.00647195,-0.00140259,-0.00417534,0.86604625,0.22848142,-0.1563582
 3,0.02352798,0.01839326,0.02712922,-0.01334621,0.02033127,0.01353937,-
 0.00165312,-0.00128310,-0.00144730,0.00025959,0.00781264,0.00073475,0.
 00729884,-0.00135926,-0.00075124,0.00066853,-0.27310921,0.12279420,-0.
 02153854,0.01807946,-0.11990685,0.06291191,-0.01574074,0.01014873,-0.0
 1525580,0.00680504,0.01232364,-0.00512680,0.00989222,-0.00394618,-0.00
 724115,-0.00266538,-0.00551537,-0.00442125,0.00073666,0.00195385,-0.00
 522712,-0.01499931,0.09683474,0.02208139,-0.01293423,0.02849060,-0.156
 17596,0.09645153,-0.20122060,-0.00266579,0.00169378,0.00324797,-0.0000
 8653,0.00009722,-0.00029789,0.00056241,-0.00005363,-0.00011313,0.00001
 008,-0.00052481,0.00181211,-0.00496471,0.00073299,-0.00410125,0.141239
 11,-0.00233738,0.00421666,0.00331005,0.08560245,-0.07882754,0.14375387
 ,0.00123343,0.00434865,0.00076558,-0.00089844,0.00058353,-0.00038988,0
 .00096170,-0.00023252,0.00008484,-0.00010962,-0.00009708,-0.00036776,0
 .00101073,-0.00564076,-0.00210795,-0.08546286,0.07564908,-0.01410897,0
 .01730100,-0.04671053,-0.15758031,0.12942757,-0.32765505,0.00503845,0.
 00019724,-0.00250242,-0.00049015,-0.00016081,0.00096470,0.00004470,-0.
 00013966,0.00113662,0.00012788,0.00017970,-0.00111947,-0.00521377,-0.0
 0175630,0.00810744,0.17218219,-0.14504874,0.36777872\\-0.00002813,0.00
 000622,0.00002387,0.00000717,-0.00000315,0.00000480,0.00002607,0.00001
 859,0.00000160,0.00000293,-0.00002275,-0.00000167,-0.00000181,0.000006
 34,-0.00000213,0.00000116,-0.00000868,-0.00001235,-0.00001235,0.000002
 31,-0.00001308,0.00000496,0.00000113,-0.00000104\\\@
 The archive entry for this job was punched.


 CHARLIE BROWN -- WHICH DO YOU THINK LASTS LONGER IN LIFE, THE GOOD THINGS 
                  OR THE BAD THINGS?
 LINUS --         GOOD THINGS LAST EIGHT SECONDS ..
                  BAD THINGS LAST THREE WEEKS
 CHARLIE BROWN -- WHAT ABOUT IN BETWEEN?
 SNOOPY --        IN BETWEEN YOU SHOULD TAKE A NAP ...
 Job cpu time:       0 days  0 hours  9 minutes  7.6 seconds.
 Elapsed time:       0 days  0 hours  1 minutes 14.4 seconds.
 File lengths (MBytes):  RWF=     48 Int=      0 D2E=      0 Chk=      5 Scr=      1
 Normal termination of Gaussian 16 at Sun May 25 04:18:29 2025.
done
