 Entering Gaussian System, Link 0=g16
 Initial command:
 /apps/easybuild-2022/easybuild/software/Compiler/NVHPC/22.11-CUDA-11.7.0/Gaussian/g16c01-CUDA-11.7.0/g16/l1.exe "/tmp/Gau-126202.inp" -scrdir="/tmp/"
 Entering Link 1 = /apps/easybuild-2022/easybuild/software/Compiler/NVHPC/22.11-CUDA-11.7.0/Gaussian/g16c01-CUDA-11.7.0/g16/l1.exe PID=    126203.
  
 Copyright (c) 1988-2019, Gaussian, Inc.  All Rights Reserved.
  
 This is part of the Gaussian(R) 16 program.  It is based on
 the Gaussian(R) 09 system (copyright 2009, Gaussian, Inc.),
 the Gaussian(R) 03 system (copyright 2003, Gaussian, Inc.),
 the Gaussian(R) 98 system (copyright 1998, Gaussian, Inc.),
 the Gaussian(R) 94 system (copyright 1995, Gaussian, Inc.),
 the Gaussian 92(TM) system (copyright 1992, Gaussian, Inc.),
 the Gaussian 90(TM) system (copyright 1990, Gaussian, Inc.),
 the Gaussian 88(TM) system (copyright 1988, Gaussian, Inc.),
 the Gaussian 86(TM) system (copyright 1986, Carnegie Mellon
 University), and the Gaussian 82(TM) system (copyright 1983,
 Carnegie Mellon University). Gaussian is a federally registered
 trademark of Gaussian, Inc.
  
 This software contains proprietary and confidential information,
 including trade secrets, belonging to Gaussian, Inc.
  
 This software is provided under written license and may be
 used, copied, transmitted, or stored only in accord with that
 written license.
  
 The following legend is applicable only to US Government
 contracts under FAR:
  
                    RESTRICTED RIGHTS LEGEND
  
 Use, reproduction and disclosure by the US Government is
 subject to restrictions as set forth in subparagraphs (a)
 and (c) of the Commercial Computer Software - Restricted
 Rights clause in FAR 52.227-19.
  
 Gaussian, Inc.
 340 Quinnipiac St., Bldg. 40, Wallingford CT 06492
  
  
 ---------------------------------------------------------------
 Warning -- This program may not be used in any manner that
 competes with the business of Gaussian, Inc. or will provide
 assistance to any competitor of Gaussian, Inc.  The licensee
 of this program is prohibited from giving any competitor of
 Gaussian, Inc. access to this program.  By using this program,
 the user acknowledges that Gaussian, Inc. is engaged in the
 business of creating and licensing software in the field of
 computational chemistry and represents and warrants to the
 licensee that it is not a competitor of Gaussian, Inc. and that
 it will not use this program in any manner prohibited above.
 ---------------------------------------------------------------
  

 Cite this work as:
 Gaussian 16, Revision C.01,
 M. J. Frisch, G. W. Trucks, H. B. Schlegel, G. E. Scuseria, 
 M. A. Robb, J. R. Cheeseman, G. Scalmani, V. Barone, 
 G. A. Petersson, H. Nakatsuji, X. Li, M. Caricato, A. V. Marenich, 
 J. Bloino, B. G. Janesko, R. Gomperts, B. Mennucci, H. P. Hratchian, 
 J. V. Ortiz, A. F. Izmaylov, J. L. Sonnenberg, D. Williams-Young, 
 F. Ding, F. Lipparini, F. Egidi, J. Goings, B. Peng, A. Petrone, 
 T. Henderson, D. Ranasinghe, V. G. Zakrzewski, J. Gao, N. Rega, 
 G. Zheng, W. Liang, M. Hada, M. Ehara, K. Toyota, R. Fukuda, 
 J. Hasegawa, M. Ishida, T. Nakajima, Y. Honda, O. Kitao, H. Nakai, 
 T. Vreven, K. Throssell, J. A. Montgomery, Jr., J. E. Peralta, 
 F. Ogliaro, M. J. Bearpark, J. J. Heyd, E. N. Brothers, K. N. Kudin, 
 V. N. Staroverov, T. A. Keith, R. Kobayashi, J. Normand, 
 K. Raghavachari, A. P. Rendell, J. C. Burant, S. S. Iyengar, 
 J. Tomasi, M. Cossi, J. M. Millam, M. Klene, C. Adamo, R. Cammi, 
 J. W. Ochterski, R. L. Martin, K. Morokuma, O. Farkas, 
 J. B. Foresman, and D. J. Fox, Gaussian, Inc., Wallingford CT, 2019.
 
 ******************************************
 Gaussian 16:  ES64L-G16RevC.01  3-Jul-2019
                25-May-2025 
 ******************************************
 %mem=28GB
 %chk=1141903082400600000001_r13_insertion_CO2_3_8_IRC_R
 %nprocshared=8
 Will use up to    8 processors via shared memory.
 ----------------------------------------------------------------------
 #P M062X/Def2TZVPP Symm(None) scf(xqc) pop(None) geom(AllCheck,NoKeepC
 onstants) guess(Read) irc(RCFC,reverse,MaxPoints=100,StepSize=2)
 ----------------------------------------------------------------------
 1/10=5,18=10,22=2,26=3,29=20007,38=1,39=2,42=100,44=3,172=1/1,23;
 2/12=2,15=3,29=1,40=1/2;
 3/5=44,7=202,11=2,14=-4,25=1,30=1,71=2,74=-55,116=-2,140=1/1,2,3;
 4/5=1/1;
 5/5=2,8=3,13=1,38=6/2,8;
 8/6=4,10=90,11=11/1;
 11/6=1,8=1,9=11,15=111,16=1,31=1/1,2,10;
 10/6=1,13=1,31=1/2;
 7/10=1,25=1,30=1/1,2,3,16;
 1/18=10,22=2,26=3,39=2,42=100,44=3/23(2);
 2/15=3,29=1/2;
 99/5=20/99;
 2/15=3,29=1/2;
 3/5=44,7=202,11=2,14=-2,25=1,30=1,71=2,74=-55,140=1/1,2,3;
 4/5=5,16=3,69=1/1;
 5/5=2,8=3,13=1,38=5/2,8;
 8/6=4,10=90,11=11/1;
 11/6=1,8=1,9=11,15=111,16=1,31=1/1,2,10;
 10/6=1,13=1,31=1/2;
 7/10=1,25=1,30=1/1,2,3,16;
 1/18=10,22=2,26=3,39=2,42=100,44=3/23(-8);
 2/15=3,29=1/2;
 99/5=20,9=1/99;
 Leave Link    1 at Sun May 25 03:58:39 2025, MaxMem=  3758096384 cpu:               0.0 elap:               0.0
 (Enter /apps/easybuild-2022/easybuild/software/Compiler/NVHPC/22.11-CUDA-11.7.0/Gaussian/g16c01-CUDA-11.7.0/g16/l101.exe)
 Structure from the checkpoint file:  "1141903082400600000001_r13_insertion_CO2_3_8_IRC_R.chk"
 ------------------------------
 Gaussian input prepared by ASE
 ------------------------------
 Charge =  0 Multiplicity = 1
 Redundant internal coordinates found in file.  (old form).
 C,0,2.0126216777,0.222600301,-0.3074040596
 O,0,2.1700769303,-0.2944398344,-1.3154539662
 C,0,-0.0758351979,0.2160155375,0.1429074523
 F,0,-0.8067990544,0.6878603897,1.1831163025
 F,0,-0.564910726,0.797508053,-0.9594844616
 F,0,-0.3415945966,-1.0933833843,0.0549657978
 O,0,2.3822905431,0.8130177517,0.7224225784
 H,0,1.2194404239,0.7437001858,0.8485283563
 Recover connectivity data from disk.
 ITRead=  0  0  0  0  0  0  0  0
 MicOpt= -1 -1 -1 -1 -1 -1 -1 -1
 NAtoms=      8 NQM=        8 NQMF=       0 NMMI=      0 NMMIF=      0
                NMic=       0 NMicF=      0.
                    Isotopes and Nuclear Properties:
 (Nuclear quadrupole moments (NQMom) in fm**2, nuclear magnetic moments (NMagM)
  in nuclear magnetons)

  Atom         1           2           3           4           5           6           7           8
 IAtWgt=          12          16          12          19          19          19          16           1
 AtmWgt=  12.0000000  15.9949146  12.0000000  18.9984032  18.9984032  18.9984032  15.9949146   1.0078250
 NucSpn=           0           0           0           1           1           1           0           1
 AtZEff=   3.6000000   5.6000000   3.6000000   6.7500000   6.7500000   6.7500000   5.6000000   1.0000000
 NQMom=    0.0000000   0.0000000   0.0000000   0.0000000   0.0000000   0.0000000   0.0000000   0.0000000
 NMagM=    0.0000000   0.0000000   0.0000000   2.6288670   2.6288670   2.6288670   0.0000000   2.7928460
 AtZNuc=   6.0000000   8.0000000   6.0000000   9.0000000   9.0000000   9.0000000   8.0000000   1.0000000
 Leave Link  101 at Sun May 25 03:58:39 2025, MaxMem=  3758096384 cpu:               0.2 elap:               0.2
 (Enter /apps/easybuild-2022/easybuild/software/Compiler/NVHPC/22.11-CUDA-11.7.0/Gaussian/g16c01-CUDA-11.7.0/g16/l123.exe)
 IRC-IRC-IRC-IRC-IRC-IRC-IRC-IRC-IRC-IRC-IRC-IRC-IRC-IRC-IRC-IRC-IRC-IRC
 ------------------------------------------------------------------------
 INPUT DATA FOR L123
 ------------------------------------------------------------------------
 GENERAL PARAMETERS:
 Rxn path following direction = Reverse
 Maximum points per path      = 100
 Step size                    =   0.020 bohr
 Integration scheme           = HPC                                 
    Redo corrector integration= Yes                                 
    DWI Weight Power          =  2
    DWI will use Hessian update vectors when possible.
    Max correction cycles     =  20
 Initial Hessian              = ReadFC from chk
 Hessian evaluation           = All updating
 Hessian updating method      = Bofill                              
 ------------------------------------------------------------------------
          ******** Start new reaction path calculation ********
 RCFC Option Requested - Data Read From Chk File:
 "1141903082400600000001_r13_insertion_CO2_3_8_IRC_R.chk"
   Energy From Chk =   -526.7273951

 Current Structure is TS -> form Hessian eigenvectors.
                            Recovering Hessian eigenvectors from chk file.
 Supplied step size of   0.0200 bohr.
    Integration on MW PES will use step size of   0.0217 sqrt(amu)*bohr.
 Point Number:   0          Path Number:   1
 Calculating another point on the path.
 Point Number  1 in REVERSE path direction.
 Using LQA Reaction Path Following.
 IRC-IRC-IRC-IRC-IRC-IRC-IRC-IRC-IRC-IRC-IRC-IRC-IRC-IRC-IRC-IRC-IRC-IRC
 Leave Link  123 at Sun May 25 03:58:39 2025, MaxMem=  3758096384 cpu:               0.0 elap:               0.0
 (Enter /apps/easybuild-2022/easybuild/software/Compiler/NVHPC/22.11-CUDA-11.7.0/Gaussian/g16c01-CUDA-11.7.0/g16/l202.exe)
                          Input orientation:                          
 ---------------------------------------------------------------------
 Center     Atomic      Atomic             Coordinates (Angstroms)
 Number     Number       Type             X           Y           Z
 ---------------------------------------------------------------------
      1          6           0        1.443669    0.031504   -0.261055
      2          8           0        1.602420   -0.485292   -1.268931
      3          6           0       -0.643507    0.025005    0.189136
      4          9           0       -1.374547    0.497018    1.229678
      5          9           0       -1.132864    0.606679   -0.912915
      6          9           0       -0.909542   -1.284264    0.101564
      7          8           0        1.814261    0.622306    0.769293
      8          1           0        0.660038    0.556512    0.900122
 ---------------------------------------------------------------------
                    Distance matrix (angstroms):
                    1          2          3          4          5
     1  C    0.000000
     2  O    1.143720   0.000000
     3  C    2.135186   2.725904   0.000000
     4  F    3.222007   4.008779   1.356445   0.000000
     5  F    2.719241   2.966636   1.338780   2.158968   0.000000
     6  F    2.720356   2.970953   1.338891   2.159129   2.157477
     7  O    1.244187   2.329379   2.594990   3.224306   3.393466
     8  H    1.496008   2.584227   1.577096   2.061961   2.550317
                    6          7          8
     6  F    0.000000
     7  O    3.391161   0.000000
     8  H    2.547495   1.163475   0.000000
 Symmetry turned off by external request.
 Stoichiometry    C2HF3O2
 Rotational constants (GHZ):           3.9406812           2.0098151           1.7350872
 Leave Link  202 at Sun May 25 03:58:39 2025, MaxMem=  3758096384 cpu:               0.0 elap:               0.0
 (Enter /apps/easybuild-2022/easybuild/software/Compiler/NVHPC/22.11-CUDA-11.7.0/Gaussian/g16c01-CUDA-11.7.0/g16/l301.exe)
 Standard basis: def2TZVPP (5D, 7F)
 Ernie: Thresh=  0.10000D-02 Tol=  0.10000D-05 Strict=F.
   231 basis functions,   374 primitive gaussians,   267 cartesian basis functions
    28 alpha electrons       28 beta electrons
       nuclear repulsion energy       323.3112110707 Hartrees.
 IExCor= 4336 DFT=T Ex+Corr=M062X ExCW=0 ScaHFX=  0.540000
 ScaDFX=  1.000000  1.000000  1.000000  1.000000 ScalE2=  1.000000  1.000000
 IRadAn=      5 IRanWt=     -1 IRanGd=            0 ICorTp=0 IEmpDi=  4
 NAtoms=    8 NActive=    8 NUniq=    8 SFac= 1.00D+00 NAtFMM=   60 NAOKFM=F Big=F
 Integral buffers will be    131072 words long.
 Raffenetti 2 integral format.
 Two-electron integral symmetry is turned off.
 Leave Link  301 at Sun May 25 03:58:39 2025, MaxMem=  3758096384 cpu:               0.0 elap:               0.0
 (Enter /apps/easybuild-2022/easybuild/software/Compiler/NVHPC/22.11-CUDA-11.7.0/Gaussian/g16c01-CUDA-11.7.0/g16/l302.exe)
 NPDir=0 NMtPBC=     1 NCelOv=     1 NCel=       1 NClECP=     1 NCelD=      1
         NCelK=      1 NCelE2=     1 NClLst=     1 CellRange=     0.0.
 One-electron integrals computed using PRISM.
   1 Symmetry operations used in ECPInt.
 ECPInt:  NShTT=    3486 NPrTT=   11183 LenC2=    3385 LenP2D=    8586.
 LDataN:  DoStor=T MaxTD1= 6 Len=  172
 NBasis=   231 RedAO= T EigKep=  5.29D-04  NBF=   231
 NBsUse=   231 1.00D-06 EigRej= -1.00D+00 NBFU=   231
 Precomputing XC quadrature grid using
 IXCGrd= 4 IRadAn=           5 IRanWt=          -1 IRanGd=           0 AccXCQ= 0.00D+00.
 Generated NRdTot=       0 NPtTot=           0 NUsed=           0 NTot=          32
 NSgBfM=   266   266   266   266   266 MxSgAt=     8 MxSgA2=     8.
 Leave Link  302 at Sun May 25 03:58:39 2025, MaxMem=  3758096384 cpu:               0.4 elap:               0.1
 (Enter /apps/easybuild-2022/easybuild/software/Compiler/NVHPC/22.11-CUDA-11.7.0/Gaussian/g16c01-CUDA-11.7.0/g16/l303.exe)
 DipDrv:  MaxL=1.
 Leave Link  303 at Sun May 25 03:58:39 2025, MaxMem=  3758096384 cpu:               0.1 elap:               0.0
 (Enter /apps/easybuild-2022/easybuild/software/Compiler/NVHPC/22.11-CUDA-11.7.0/Gaussian/g16c01-CUDA-11.7.0/g16/l401.exe)
 Initial guess from the checkpoint file:  "1141903082400600000001_r13_insertion_CO2_3_8_IRC_R.chk"
 B after Tr=    -1.073011   -0.360568    0.088152
         Rot=    1.000000    0.000001   -0.000007    0.000004 Ang=   0.00 deg.
 Guess basis will be translated and rotated to current coordinates.
 JPrj=2 DoOrth=T DoCkMO=T.
 Leave Link  401 at Sun May 25 03:58:39 2025, MaxMem=  3758096384 cpu:               0.2 elap:               0.1
 (Enter /apps/easybuild-2022/easybuild/software/Compiler/NVHPC/22.11-CUDA-11.7.0/Gaussian/g16c01-CUDA-11.7.0/g16/l502.exe)
 Keep R1 ints in memory in canonical form, NReq=368651279.
 FoFCou: FMM=F IPFlag=           0 FMFlag=           0 FMFlg1=           0
         NFxFlg=           0 DoJE=F BraDBF=F KetDBF=F FulRan=T
         wScrn=  0.000000 ICntrl=       600 IOpCl=  0 I1Cent=           0 NGrid=           0
         NMat0=    1 NMatS0=  26796 NMatT0=    0 NMatD0=    1 NMtDS0=    0 NMtDT0=    0
 Symmetry not used in FoFCou.
 Two-electron integral symmetry not used.
 Closed shell SCF:
 Using DIIS extrapolation, IDIIS=  1040.
 NGot=  3758096384 LenX=  3398923531 LenY=  3398851801
 Requested convergence on RMS density matrix=1.00D-08 within  32 cycles.
 Requested convergence on MAX density matrix=1.00D-06.
 Requested convergence on             energy=1.00D-06.
 No special actions if energy rises.

 Cycle   1  Pass 1  IDiag  1:
 E= -526.727368373139    
 DIIS: error= 4.25D-04 at cycle   1 NSaved=   1.
 NSaved= 1 IEnMin= 1 EnMin= -526.727368373139     IErMin= 1 ErrMin= 4.25D-04
 ErrMax= 4.25D-04  0.00D+00 EMaxC= 1.00D-01 BMatC= 3.39D-05 BMatP= 3.39D-05
 IDIUse=3 WtCom= 9.96D-01 WtEn= 4.25D-03
 Coeff-Com:  0.100D+01
 Coeff-En:   0.100D+01
 Coeff:      0.100D+01
 Gap=     0.329 Goal=   None    Shift=    0.000
 RMSDP=3.43D-05 MaxDP=9.09D-04              OVMax= 5.21D-03

 Cycle   2  Pass 1  IDiag  1:
 E= -526.727421883252     Delta-E=       -0.000053510113 Rises=F Damp=F
 DIIS: error= 2.22D-04 at cycle   2 NSaved=   2.
 NSaved= 2 IEnMin= 2 EnMin= -526.727421883252     IErMin= 2 ErrMin= 2.22D-04
 ErrMax= 2.22D-04  0.00D+00 EMaxC= 1.00D-01 BMatC= 5.95D-06 BMatP= 3.39D-05
 IDIUse=3 WtCom= 9.98D-01 WtEn= 2.22D-03
 Coeff-Com:  0.127D+00 0.873D+00
 Coeff-En:   0.000D+00 0.100D+01
 Coeff:      0.127D+00 0.873D+00
 Gap=     0.329 Goal=   None    Shift=    0.000
 RMSDP=1.45D-05 MaxDP=5.99D-04 DE=-5.35D-05 OVMax= 1.72D-03

 Cycle   3  Pass 1  IDiag  1:
 E= -526.727425736087     Delta-E=       -0.000003852835 Rises=F Damp=F
 DIIS: error= 1.25D-04 at cycle   3 NSaved=   3.
 NSaved= 3 IEnMin= 3 EnMin= -526.727425736087     IErMin= 3 ErrMin= 1.25D-04
 ErrMax= 1.25D-04  0.00D+00 EMaxC= 1.00D-01 BMatC= 5.62D-06 BMatP= 5.95D-06
 IDIUse=3 WtCom= 9.99D-01 WtEn= 1.25D-03
 Coeff-Com: -0.797D-01 0.517D+00 0.563D+00
 Coeff-En:   0.000D+00 0.216D+00 0.784D+00
 Coeff:     -0.796D-01 0.516D+00 0.563D+00
 Gap=     0.329 Goal=   None    Shift=    0.000
 RMSDP=7.47D-06 MaxDP=2.83D-04 DE=-3.85D-06 OVMax= 9.50D-04

 Cycle   4  Pass 1  IDiag  1:
 E= -526.727430444440     Delta-E=       -0.000004708353 Rises=F Damp=F
 DIIS: error= 4.08D-05 at cycle   4 NSaved=   4.
 NSaved= 4 IEnMin= 4 EnMin= -526.727430444440     IErMin= 4 ErrMin= 4.08D-05
 ErrMax= 4.08D-05  0.00D+00 EMaxC= 1.00D-01 BMatC= 1.79D-07 BMatP= 5.62D-06
 IDIUse=1 WtCom= 1.00D+00 WtEn= 0.00D+00
 Coeff-Com: -0.148D-01-0.287D-01 0.106D+00 0.938D+00
 Coeff:     -0.148D-01-0.287D-01 0.106D+00 0.938D+00
 Gap=     0.329 Goal=   None    Shift=    0.000
 RMSDP=4.06D-06 MaxDP=1.02D-04 DE=-4.71D-06 OVMax= 5.75D-04

 Cycle   5  Pass 1  IDiag  1:
 E= -526.727430763518     Delta-E=       -0.000000319078 Rises=F Damp=F
 DIIS: error= 2.15D-05 at cycle   5 NSaved=   5.
 NSaved= 5 IEnMin= 5 EnMin= -526.727430763518     IErMin= 5 ErrMin= 2.15D-05
 ErrMax= 2.15D-05  0.00D+00 EMaxC= 1.00D-01 BMatC= 1.02D-07 BMatP= 1.79D-07
 IDIUse=1 WtCom= 1.00D+00 WtEn= 0.00D+00
 Coeff-Com:  0.328D-02-0.109D+00-0.257D-01 0.574D+00 0.557D+00
 Coeff:      0.328D-02-0.109D+00-0.257D-01 0.574D+00 0.557D+00
 Gap=     0.329 Goal=   None    Shift=    0.000
 RMSDP=1.34D-06 MaxDP=4.05D-05 DE=-3.19D-07 OVMax= 1.27D-04

 Cycle   6  Pass 1  IDiag  1:
 E= -526.727430863426     Delta-E=       -0.000000099908 Rises=F Damp=F
 DIIS: error= 5.10D-06 at cycle   6 NSaved=   6.
 NSaved= 6 IEnMin= 6 EnMin= -526.727430863426     IErMin= 6 ErrMin= 5.10D-06
 ErrMax= 5.10D-06  0.00D+00 EMaxC= 1.00D-01 BMatC= 6.50D-09 BMatP= 1.02D-07
 IDIUse=1 WtCom= 1.00D+00 WtEn= 0.00D+00
 Coeff-Com:  0.519D-02-0.515D-01-0.365D-01 0.966D-01 0.212D+00 0.774D+00
 Coeff:      0.519D-02-0.515D-01-0.365D-01 0.966D-01 0.212D+00 0.774D+00
 Gap=     0.329 Goal=   None    Shift=    0.000
 RMSDP=7.03D-07 MaxDP=2.33D-05 DE=-9.99D-08 OVMax= 7.93D-05

 Cycle   7  Pass 1  IDiag  1:
 E= -526.727430872653     Delta-E=       -0.000000009227 Rises=F Damp=F
 DIIS: error= 2.85D-06 at cycle   7 NSaved=   7.
 NSaved= 7 IEnMin= 7 EnMin= -526.727430872653     IErMin= 7 ErrMin= 2.85D-06
 ErrMax= 2.85D-06  0.00D+00 EMaxC= 1.00D-01 BMatC= 1.23D-09 BMatP= 6.50D-09
 IDIUse=1 WtCom= 1.00D+00 WtEn= 0.00D+00
 Coeff-Com:  0.185D-02-0.802D-02-0.115D-01-0.225D-01 0.155D-01 0.346D+00
 Coeff-Com:  0.679D+00
 Coeff:      0.185D-02-0.802D-02-0.115D-01-0.225D-01 0.155D-01 0.346D+00
 Coeff:      0.679D+00
 Gap=     0.329 Goal=   None    Shift=    0.000
 RMSDP=1.67D-07 MaxDP=5.33D-06 DE=-9.23D-09 OVMax= 1.99D-05

 Cycle   8  Pass 1  IDiag  1:
 E= -526.727430873834     Delta-E=       -0.000000001181 Rises=F Damp=F
 DIIS: error= 4.76D-07 at cycle   8 NSaved=   8.
 NSaved= 8 IEnMin= 8 EnMin= -526.727430873834     IErMin= 8 ErrMin= 4.76D-07
 ErrMax= 4.76D-07  0.00D+00 EMaxC= 1.00D-01 BMatC= 1.06D-10 BMatP= 1.23D-09
 IDIUse=1 WtCom= 1.00D+00 WtEn= 0.00D+00
 Coeff-Com: -0.533D-04 0.399D-02 0.102D-02-0.208D-01-0.228D-01 0.115D-01
 Coeff-Com:  0.232D+00 0.796D+00
 Coeff:     -0.533D-04 0.399D-02 0.102D-02-0.208D-01-0.228D-01 0.115D-01
 Coeff:      0.232D+00 0.796D+00
 Gap=     0.329 Goal=   None    Shift=    0.000
 RMSDP=5.19D-08 MaxDP=1.99D-06 DE=-1.18D-09 OVMax= 4.12D-06

 Cycle   9  Pass 1  IDiag  1:
 E= -526.727430873945     Delta-E=       -0.000000000110 Rises=F Damp=F
 DIIS: error= 1.74D-07 at cycle   9 NSaved=   9.
 NSaved= 9 IEnMin= 9 EnMin= -526.727430873945     IErMin= 9 ErrMin= 1.74D-07
 ErrMax= 1.74D-07  0.00D+00 EMaxC= 1.00D-01 BMatC= 1.74D-11 BMatP= 1.06D-10
 IDIUse=1 WtCom= 1.00D+00 WtEn= 0.00D+00
 Coeff-Com: -0.188D-03 0.241D-02 0.165D-02-0.666D-02-0.110D-01-0.313D-01
 Coeff-Com:  0.359D-01 0.354D+00 0.655D+00
 Coeff:     -0.188D-03 0.241D-02 0.165D-02-0.666D-02-0.110D-01-0.313D-01
 Coeff:      0.359D-01 0.354D+00 0.655D+00
 Gap=     0.329 Goal=   None    Shift=    0.000
 RMSDP=1.36D-08 MaxDP=3.86D-07 DE=-1.10D-10 OVMax= 1.16D-06

 Cycle  10  Pass 1  IDiag  1:
 E= -526.727430873940     Delta-E=        0.000000000004 Rises=F Damp=F
 DIIS: error= 3.59D-08 at cycle  10 NSaved=  10.
 NSaved=10 IEnMin= 9 EnMin= -526.727430873945     IErMin=10 ErrMin= 3.59D-08
 ErrMax= 3.59D-08  0.00D+00 EMaxC= 1.00D-01 BMatC= 8.96D-13 BMatP= 1.74D-11
 IDIUse=1 WtCom= 1.00D+00 WtEn= 0.00D+00
 Coeff-Com: -0.322D-04-0.298D-04 0.273D-03 0.119D-02 0.101D-02-0.841D-02
 Coeff-Com: -0.245D-01-0.344D-01 0.124D+00 0.941D+00
 Coeff:     -0.322D-04-0.298D-04 0.273D-03 0.119D-02 0.101D-02-0.841D-02
 Coeff:     -0.245D-01-0.344D-01 0.124D+00 0.941D+00
 Gap=     0.329 Goal=   None    Shift=    0.000
 RMSDP=5.35D-09 MaxDP=2.11D-07 DE= 4.32D-12 OVMax= 6.04D-07

 SCF Done:  E(RM062X) =  -526.727430874     A.U. after   10 cycles
            NFock= 10  Conv=0.54D-08     -V/T= 2.0037
 KE= 5.248072296295D+02 PE=-1.894340712318D+03 EE= 5.194948407435D+02
 Leave Link  502 at Sun May 25 03:58:47 2025, MaxMem=  3758096384 cpu:              42.8 elap:               7.5
 (Enter /apps/easybuild-2022/easybuild/software/Compiler/NVHPC/22.11-CUDA-11.7.0/Gaussian/g16c01-CUDA-11.7.0/g16/l508.exe)
 QCSCF skips out because SCF is already converged.
 Leave Link  508 at Sun May 25 03:58:47 2025, MaxMem=  3758096384 cpu:               0.0 elap:               0.0
 (Enter /apps/easybuild-2022/easybuild/software/Compiler/NVHPC/22.11-CUDA-11.7.0/Gaussian/g16c01-CUDA-11.7.0/g16/l801.exe)
 DoSCS=F DFT=T ScalE2(SS,OS)=  1.000000  1.000000
 Range of M.O.s used for correlation:     1   231
 NBasis=   231 NAE=    28 NBE=    28 NFC=     0 NFV=     0
 NROrb=    231 NOA=    28 NOB=    28 NVA=   203 NVB=   203

 **** Warning!!: The largest alpha MO coefficient is  0.12371412D+02

 Leave Link  801 at Sun May 25 03:58:47 2025, MaxMem=  3758096384 cpu:               0.0 elap:               0.0
 (Enter /apps/easybuild-2022/easybuild/software/Compiler/NVHPC/22.11-CUDA-11.7.0/Gaussian/g16c01-CUDA-11.7.0/g16/l1101.exe)
 Leave Link 1101 at Sun May 25 03:58:47 2025, MaxMem=  3758096384 cpu:               0.0 elap:               0.0
 (Enter /apps/easybuild-2022/easybuild/software/Compiler/NVHPC/22.11-CUDA-11.7.0/Gaussian/g16c01-CUDA-11.7.0/g16/l1102.exe)
 Symmetrizing basis deriv contribution to polar:
 IMax=3 JMax=2 DiffMx= 0.00D+00
 Leave Link 1102 at Sun May 25 03:58:47 2025, MaxMem=  3758096384 cpu:               0.0 elap:               0.0
 (Enter /apps/easybuild-2022/easybuild/software/Compiler/NVHPC/22.11-CUDA-11.7.0/Gaussian/g16c01-CUDA-11.7.0/g16/l1110.exe)
 Leave Link 1110 at Sun May 25 03:58:47 2025, MaxMem=  3758096384 cpu:               0.0 elap:               0.0
 (Enter /apps/easybuild-2022/easybuild/software/Compiler/NVHPC/22.11-CUDA-11.7.0/Gaussian/g16c01-CUDA-11.7.0/g16/l1002.exe)
 Minotr:  Closed shell wavefunction.
 Leave Link 1002 at Sun May 25 03:58:47 2025, MaxMem=  3758096384 cpu:               0.0 elap:               0.0
 (Enter /apps/easybuild-2022/easybuild/software/Compiler/NVHPC/22.11-CUDA-11.7.0/Gaussian/g16c01-CUDA-11.7.0/g16/l701.exe)
 ... and contract with generalized density number  0.
 Compute integral first derivatives.
   1 Symmetry operations used in ECPInt.
 ECPInt:  NShTT=    3486 NPrTT=   11183 LenC2=    3385 LenP2D=    8586.
 LDataN:  DoStor=T MaxTD1= 7 Len=  274
 Leave Link  701 at Sun May 25 03:58:47 2025, MaxMem=  3758096384 cpu:               0.5 elap:               0.1
 (Enter /apps/easybuild-2022/easybuild/software/Compiler/NVHPC/22.11-CUDA-11.7.0/Gaussian/g16c01-CUDA-11.7.0/g16/l702.exe)
 L702 exits ... SP integral derivatives will be done elsewhere.
 Leave Link  702 at Sun May 25 03:58:47 2025, MaxMem=  3758096384 cpu:               0.0 elap:               0.0
 (Enter /apps/easybuild-2022/easybuild/software/Compiler/NVHPC/22.11-CUDA-11.7.0/Gaussian/g16c01-CUDA-11.7.0/g16/l703.exe)
 Integral derivatives from FoFJK, PRISM(SPDF).
 Compute integral first derivatives, UseDBF=F ICtDFT=           0.
 Calling FoFJK, ICntrl=      2127 FMM=F ISym2X=0 I1Cent= 0 IOpClX= 0 NMat=1 NMatS=1 NMatT=0.
 FoFJK:  IHMeth= 1 ICntrl=    2127 DoSepK=F KAlg= 0 I1Cent=           0 FoldK=F
 IRaf=         0 NMat=       1 IRICut=       1 DoRegI=T DoRafI=F ISym2E= 0 IDoP0=0 IntGTp=1.
 FoFCou: FMM=F IPFlag=           0 FMFlag=      100000 FMFlg1=         800
         NFxFlg=           0 DoJE=F BraDBF=F KetDBF=F FulRan=T
         wScrn=  0.000000 ICntrl=      2127 IOpCl=  0 I1Cent=           0 NGrid=           0
         NMat0=    1 NMatS0=      1 NMatT0=    0 NMatD0=    1 NMtDS0=    0 NMtDT0=    0
 Symmetry not used in FoFCou.
 Leave Link  703 at Sun May 25 03:58:50 2025, MaxMem=  3758096384 cpu:              24.7 elap:               3.2
 (Enter /apps/easybuild-2022/easybuild/software/Compiler/NVHPC/22.11-CUDA-11.7.0/Gaussian/g16c01-CUDA-11.7.0/g16/l716.exe)
 Dipole        = 7.68425730D-01 2.16368637D-01 2.35559892D-01
 Polarizability= 0.00000000D+00 0.00000000D+00 0.00000000D+00
                 0.00000000D+00 0.00000000D+00 0.00000000D+00
 -------------------------------------------------------------------
 Center     Atomic                   Forces (Hartrees/Bohr)
 Number     Number              X              Y              Z
 -------------------------------------------------------------------
      1        6          -0.003686292   -0.000868486   -0.000825555
      2        8           0.001066274   -0.000057248   -0.000341956
      3        6           0.000738555   -0.000583402   -0.001250425
      4        9           0.000765948   -0.000004691   -0.000175676
      5        9          -0.000354446    0.000065417   -0.000130101
      6        9          -0.000322649   -0.000207224    0.000025625
      7        8          -0.000616500    0.000596857    0.001252571
      8        1           0.002409110    0.001058777    0.001445518
 -------------------------------------------------------------------
 Cartesian Forces:  Max     0.003686292 RMS     0.001135833
 Leave Link  716 at Sun May 25 03:58:50 2025, MaxMem=  3758096384 cpu:               0.0 elap:               0.0
 (Enter /apps/easybuild-2022/easybuild/software/Compiler/NVHPC/22.11-CUDA-11.7.0/Gaussian/g16c01-CUDA-11.7.0/g16/l123.exe)
 IRC-IRC-IRC-IRC-IRC-IRC-IRC-IRC-IRC-IRC-IRC-IRC-IRC-IRC-IRC-IRC-IRC-IRC
 Pt  1 Step number   1 out of a maximum of  20
 Using modified Bulirsch-Stoer corrector integration.
   Using distance weighted interpolants to fit PES.
 PreDWI: IReCr0= 2 IReCr1= 1 IReCr2= 1 IReCr3= 1
 Modified Bulirsch-Stoer Extrapolation Cycles:
    EPS =    0.000010000000000
    Cycle     1 NS=    48
      PEZero:  N= 2 I= 1 D=  5.66D-05 Err=  1.25D-04
    Cycle     2 NS=    64 Truncation Error =  0.000124918
      PEZero:  N= 3 I= 2 D=  5.66D-05 Err=  8.33D-05
      PEZero:  N= 3 I= 1 D=  1.13D-04 Err=  2.52D-09
    Cycle     3 NS=    96 Truncation Error =  0.000000003
 BS completed in    3 cycles and     208 integration steps.
 Maximum DWI energy   std dev =  0.000000121 at pt     1
 Maximum DWI gradient std dev =  0.005024048 at pt     1
 SUMMARY OF CORRECTOR INTEGRATION:
   Predictor End Point Energy =  -526.727431
   Old End Point Energy       =  -526.727431
   Corrected End Point Energy =  -526.727431
   Predictor End-Start Dist.  =     0.021724
   Old End-Start Dist.        =     0.021724
   New End-Start Dist.        =     0.021724
   New End-Old End Dist.      =     0.000077
 CORRECTOR INTEGRATION CONVERGENCE:
   Recorrection delta-x convergence threshold:    0.010000
   Delta-x Convergence Met
 Point Number:   1          Path Number:   1
                    CURRENT STRUCTURE
                Cartesian Coordinates (Ang):                
 ---------------------------------------------------------------------
 Center     Atomic                     Coordinates (Angstroms)
 Number     Number                        X           Y           Z
 ---------------------------------------------------------------------
      1          6                    1.443663    0.031504   -0.261054
      2          8                    1.602421   -0.485293   -1.268933
      3          6                   -0.643507    0.025004    0.189135
      4          9                   -1.374546    0.497018    1.229678
      5          9                   -1.132864    0.606679   -0.912915
      6          9                   -0.909542   -1.284264    0.101564
      7          8                    1.814263    0.622306    0.769292
      8          1                    0.660014    0.556527    0.900135
 ---------------------------------------------------------------------
   CHANGE IN THE REACTION COORDINATE =    0.02172
   NET REACTION COORDINATE UP TO THIS POINT =    0.02172
  # OF POINTS ALONG THE PATH =   1
  # OF STEPS =   1

 Calculating another point on the path.
 Point Number  2 in REVERSE path direction.
 Using LQA Reaction Path Following.
   LQA: T_Est iteration completed in    3 iterations.
 IRC-IRC-IRC-IRC-IRC-IRC-IRC-IRC-IRC-IRC-IRC-IRC-IRC-IRC-IRC-IRC-IRC-IRC
 Leave Link  123 at Sun May 25 03:58:51 2025, MaxMem=  3758096384 cpu:               0.1 elap:               0.0
 (Enter /apps/easybuild-2022/easybuild/software/Compiler/NVHPC/22.11-CUDA-11.7.0/Gaussian/g16c01-CUDA-11.7.0/g16/l202.exe)
                          Input orientation:                          
 ---------------------------------------------------------------------
 Center     Atomic      Atomic             Coordinates (Angstroms)
 Number     Number       Type             X           Y           Z
 ---------------------------------------------------------------------
      1          6           0        1.442584    0.031249   -0.261295
      2          8           0        1.602655   -0.485305   -1.269006
      3          6           0       -0.643290    0.024834    0.188768
      4          9           0       -1.374404    0.497017    1.229645
      5          9           0       -1.132930    0.606691   -0.912939
      6          9           0       -0.909601   -1.284302    0.101569
      7          8           0        1.814126    0.622437    0.769567
      8          1           0        0.668449    0.560205    0.905156
 ---------------------------------------------------------------------
                    Distance matrix (angstroms):
                    1          2          3          4          5
     1  C    0.000000
     2  O    1.143648   0.000000
     3  C    2.133886   2.725733   0.000000
     4  F    3.221066   4.008877   1.356801   0.000000
     5  F    2.718279   2.966928   1.338680   2.158936   0.000000
     6  F    2.719397   2.971246   1.338792   2.159096   2.157535
     7  O    1.245080   2.329720   2.594871   3.223993   3.393555
     8  H    1.496559   2.587047   1.587607   2.069429   2.559804
                    6          7          8
     6  F    0.000000
     7  O    3.391249   0.000000
     8  H    2.556991   1.155350   0.000000
 Symmetry turned off by external request.
 Stoichiometry    C2HF3O2
 Rotational constants (GHZ):           3.9396674           2.0100686           1.7351079
 Leave Link  202 at Sun May 25 03:58:51 2025, MaxMem=  3758096384 cpu:               0.0 elap:               0.0
 (Enter /apps/easybuild-2022/easybuild/software/Compiler/NVHPC/22.11-CUDA-11.7.0/Gaussian/g16c01-CUDA-11.7.0/g16/l301.exe)
 Standard basis: def2TZVPP (5D, 7F)
 Ernie: Thresh=  0.10000D-02 Tol=  0.10000D-05 Strict=F.
   231 basis functions,   374 primitive gaussians,   267 cartesian basis functions
    28 alpha electrons       28 beta electrons
       nuclear repulsion energy       323.2953183801 Hartrees.
 IExCor= 4336 DFT=T Ex+Corr=M062X ExCW=0 ScaHFX=  0.540000
 ScaDFX=  1.000000  1.000000  1.000000  1.000000 ScalE2=  1.000000  1.000000
 IRadAn=      5 IRanWt=     -1 IRanGd=            0 ICorTp=0 IEmpDi=  4
 NAtoms=    8 NActive=    8 NUniq=    8 SFac= 1.00D+00 NAtFMM=   60 NAOKFM=F Big=F
 Integral buffers will be    131072 words long.
 Raffenetti 2 integral format.
 Two-electron integral symmetry is turned off.
 Leave Link  301 at Sun May 25 03:58:51 2025, MaxMem=  3758096384 cpu:               0.0 elap:               0.0
 (Enter /apps/easybuild-2022/easybuild/software/Compiler/NVHPC/22.11-CUDA-11.7.0/Gaussian/g16c01-CUDA-11.7.0/g16/l302.exe)
 NPDir=0 NMtPBC=     1 NCelOv=     1 NCel=       1 NClECP=     1 NCelD=      1
         NCelK=      1 NCelE2=     1 NClLst=     1 CellRange=     0.0.
 One-electron integrals computed using PRISM.
   1 Symmetry operations used in ECPInt.
 ECPInt:  NShTT=    3486 NPrTT=   11183 LenC2=    3385 LenP2D=    8586.
 LDataN:  DoStor=T MaxTD1= 6 Len=  172
 NBasis=   231 RedAO= T EigKep=  5.30D-04  NBF=   231
 NBsUse=   231 1.00D-06 EigRej= -1.00D+00 NBFU=   231
 Precomputing XC quadrature grid using
 IXCGrd= 4 IRadAn=           5 IRanWt=          -1 IRanGd=           0 AccXCQ= 0.00D+00.
 Generated NRdTot=       0 NPtTot=           0 NUsed=           0 NTot=          32
 NSgBfM=   266   266   266   266   266 MxSgAt=     8 MxSgA2=     8.
 Leave Link  302 at Sun May 25 03:58:51 2025, MaxMem=  3758096384 cpu:               0.4 elap:               0.1
 (Enter /apps/easybuild-2022/easybuild/software/Compiler/NVHPC/22.11-CUDA-11.7.0/Gaussian/g16c01-CUDA-11.7.0/g16/l303.exe)
 DipDrv:  MaxL=1.
 Leave Link  303 at Sun May 25 03:58:51 2025, MaxMem=  3758096384 cpu:               0.1 elap:               0.0
 (Enter /apps/easybuild-2022/easybuild/software/Compiler/NVHPC/22.11-CUDA-11.7.0/Gaussian/g16c01-CUDA-11.7.0/g16/l401.exe)
 Initial guess from the checkpoint file:  "1141903082400600000001_r13_insertion_CO2_3_8_IRC_R.chk"
 B after Tr=     0.000140    0.000063    0.000086
         Rot=    1.000000    0.000001   -0.000007    0.000004 Ang=   0.00 deg.
 Guess basis will be translated and rotated to current coordinates.
 JPrj=2 DoOrth=T DoCkMO=T.
 Generating alternative initial guess.
 ExpMin= 9.52D-02 ExpMax= 3.55D+04 ExpMxC= 1.21D+03 IAcc=3 IRadAn=         5 AccDes= 0.00D+00
 Harris functional with IExCor= 1009 and IRadAn=       5 diagonalized for initial guess.
 HarFok:  IExCor= 1009 AccDes= 0.00D+00 IRadAn=         5 IDoV= 1 UseB2=F ITyADJ=14
 ICtDFT=  3500011 ScaDFX=  1.000000  1.000000  1.000000  1.000000
 FoFCou: FMM=F IPFlag=           0 FMFlag=      100000 FMFlg1=           0
         NFxFlg=           0 DoJE=T BraDBF=F KetDBF=T FulRan=T
         wScrn=  0.000000 ICntrl=       500 IOpCl=  0 I1Cent=   200000004 NGrid=           0
         NMat0=    1 NMatS0=      1 NMatT0=    0 NMatD0=    1 NMtDS0=    0 NMtDT0=    0
 Symmetry not used in FoFCou.
 Harris En= -526.424766327666    
 Leave Link  401 at Sun May 25 03:58:51 2025, MaxMem=  3758096384 cpu:               2.2 elap:               0.3
 (Enter /apps/easybuild-2022/easybuild/software/Compiler/NVHPC/22.11-CUDA-11.7.0/Gaussian/g16c01-CUDA-11.7.0/g16/l502.exe)
 Keep R1 ints in memory in canonical form, NReq=368651279.
 FoFCou: FMM=F IPFlag=           0 FMFlag=           0 FMFlg1=           0
         NFxFlg=           0 DoJE=F BraDBF=F KetDBF=F FulRan=T
         wScrn=  0.000000 ICntrl=       600 IOpCl=  0 I1Cent=           0 NGrid=           0
         NMat0=    1 NMatS0=  26796 NMatT0=    0 NMatD0=    1 NMtDS0=    0 NMtDT0=    0
 Symmetry not used in FoFCou.
 Two-electron integral symmetry not used.
 Closed shell SCF:
 Using DIIS extrapolation, IDIIS=  1040.
 NGot=  3758096384 LenX=  3398923531 LenY=  3398851801
 Requested convergence on RMS density matrix=1.00D-08 within  32 cycles.
 Requested convergence on MAX density matrix=1.00D-06.
 Requested convergence on             energy=1.00D-06.
 No special actions if energy rises.
 Integral accuracy reduced to 1.0D-05 until final iterations.

 Cycle   1  Pass 0  IDiag  1:
 E= -526.727454213428    
 DIIS: error= 4.27D-04 at cycle   1 NSaved=   1.
 NSaved= 1 IEnMin= 1 EnMin= -526.727454213428     IErMin= 1 ErrMin= 4.27D-04
 ErrMax= 4.27D-04  0.00D+00 EMaxC= 1.00D-01 BMatC= 3.38D-05 BMatP= 3.38D-05
 IDIUse=3 WtCom= 9.96D-01 WtEn= 4.27D-03
 Coeff-Com:  0.100D+01
 Coeff-En:   0.100D+01
 Coeff:      0.100D+01
 Gap=     0.986 Goal=   None    Shift=    0.000
 RMSDP=3.40D-05 MaxDP=8.94D-04              OVMax= 5.12D-03

 Cycle   2  Pass 0  IDiag  1:
 E= -526.727506692402     Delta-E=       -0.000052478974 Rises=F Damp=F
 DIIS: error= 2.18D-04 at cycle   2 NSaved=   2.
 NSaved= 2 IEnMin= 2 EnMin= -526.727506692402     IErMin= 2 ErrMin= 2.18D-04
 ErrMax= 2.18D-04  0.00D+00 EMaxC= 1.00D-01 BMatC= 5.86D-06 BMatP= 3.38D-05
 IDIUse=3 WtCom= 9.98D-01 WtEn= 2.18D-03
 Coeff-Com:  0.129D+00 0.871D+00
 Coeff-En:   0.000D+00 0.100D+01
 Coeff:      0.128D+00 0.872D+00
 Gap=     0.328 Goal=   None    Shift=    0.000
 RMSDP=1.44D-05 MaxDP=5.91D-04 DE=-5.25D-05 OVMax= 1.69D-03

 Cycle   3  Pass 0  IDiag  1:
 E= -526.727510409967     Delta-E=       -0.000003717565 Rises=F Damp=F
 DIIS: error= 1.24D-04 at cycle   3 NSaved=   3.
 NSaved= 3 IEnMin= 3 EnMin= -526.727510409967     IErMin= 3 ErrMin= 1.24D-04
 ErrMax= 1.24D-04  0.00D+00 EMaxC= 1.00D-01 BMatC= 5.49D-06 BMatP= 5.86D-06
 IDIUse=3 WtCom= 9.99D-01 WtEn= 1.24D-03
 Coeff-Com: -0.760D-01 0.514D+00 0.562D+00
 Coeff-En:   0.000D+00 0.222D+00 0.778D+00
 Coeff:     -0.759D-01 0.514D+00 0.562D+00
 Gap=     0.329 Goal=   None    Shift=    0.000
 RMSDP=7.35D-06 MaxDP=2.81D-04 DE=-3.72D-06 OVMax= 9.29D-04

 Initial convergence to 1.0D-05 achieved.  Increase integral accuracy.
 Cycle   4  Pass 1  IDiag  1:
 E= -526.727535384473     Delta-E=       -0.000024974506 Rises=F Damp=F
 DIIS: error= 4.02D-05 at cycle   1 NSaved=   1.
 NSaved= 1 IEnMin= 1 EnMin= -526.727535384473     IErMin= 1 ErrMin= 4.02D-05
 ErrMax= 4.02D-05  0.00D+00 EMaxC= 1.00D-01 BMatC= 3.27D-07 BMatP= 3.27D-07
 IDIUse=1 WtCom= 1.00D+00 WtEn= 0.00D+00
 Coeff-Com:  0.100D+01
 Coeff:      0.100D+01
 Gap=     0.328 Goal=   None    Shift=    0.000
 RMSDP=7.35D-06 MaxDP=2.81D-04 DE=-2.50D-05 OVMax= 5.52D-04

 Cycle   5  Pass 1  IDiag  1:
 E= -526.727535659202     Delta-E=       -0.000000274729 Rises=F Damp=F
 DIIS: error= 3.79D-05 at cycle   2 NSaved=   2.
 NSaved= 2 IEnMin= 2 EnMin= -526.727535659202     IErMin= 2 ErrMin= 3.79D-05
 ErrMax= 3.79D-05  0.00D+00 EMaxC= 1.00D-01 BMatC= 3.37D-07 BMatP= 3.27D-07
 IDIUse=1 WtCom= 1.00D+00 WtEn= 0.00D+00
 Coeff-Com:  0.505D+00 0.495D+00
 Coeff:      0.505D+00 0.495D+00
 Gap=     0.328 Goal=   None    Shift=    0.000
 RMSDP=1.48D-06 MaxDP=7.21D-05 DE=-2.75D-07 OVMax= 2.26D-04

 Cycle   6  Pass 1  IDiag  1:
 E= -526.727535888450     Delta-E=       -0.000000229247 Rises=F Damp=F
 DIIS: error= 1.53D-05 at cycle   3 NSaved=   3.
 NSaved= 3 IEnMin= 3 EnMin= -526.727535888450     IErMin= 3 ErrMin= 1.53D-05
 ErrMax= 1.53D-05  0.00D+00 EMaxC= 1.00D-01 BMatC= 3.79D-08 BMatP= 3.27D-07
 IDIUse=1 WtCom= 1.00D+00 WtEn= 0.00D+00
 Coeff-Com: -0.771D-01 0.212D+00 0.865D+00
 Coeff:     -0.771D-01 0.212D+00 0.865D+00
 Gap=     0.328 Goal=   None    Shift=    0.000
 RMSDP=1.24D-06 MaxDP=3.47D-05 DE=-2.29D-07 OVMax= 1.49D-04

 Cycle   7  Pass 1  IDiag  1:
 E= -526.727535935190     Delta-E=       -0.000000046741 Rises=F Damp=F
 DIIS: error= 5.27D-06 at cycle   4 NSaved=   4.
 NSaved= 4 IEnMin= 4 EnMin= -526.727535935190     IErMin= 4 ErrMin= 5.27D-06
 ErrMax= 5.27D-06  0.00D+00 EMaxC= 1.00D-01 BMatC= 4.07D-09 BMatP= 3.79D-08
 IDIUse=1 WtCom= 1.00D+00 WtEn= 0.00D+00
 Coeff-Com: -0.594D-01 0.460D-01 0.330D+00 0.683D+00
 Coeff:     -0.594D-01 0.460D-01 0.330D+00 0.683D+00
 Gap=     0.328 Goal=   None    Shift=    0.000
 RMSDP=3.67D-07 MaxDP=9.94D-06 DE=-4.67D-08 OVMax= 4.45D-05

 Cycle   8  Pass 1  IDiag  1:
 E= -526.727535940336     Delta-E=       -0.000000005146 Rises=F Damp=F
 DIIS: error= 2.21D-06 at cycle   5 NSaved=   5.
 NSaved= 5 IEnMin= 5 EnMin= -526.727535940336     IErMin= 5 ErrMin= 2.21D-06
 ErrMax= 2.21D-06  0.00D+00 EMaxC= 1.00D-01 BMatC= 1.27D-09 BMatP= 4.07D-09
 IDIUse=1 WtCom= 1.00D+00 WtEn= 0.00D+00
 Coeff-Com: -0.316D-02-0.463D-01-0.118D+00 0.350D+00 0.818D+00
 Coeff:     -0.316D-02-0.463D-01-0.118D+00 0.350D+00 0.818D+00
 Gap=     0.328 Goal=   None    Shift=    0.000
 RMSDP=2.78D-07 MaxDP=7.80D-06 DE=-5.15D-09 OVMax= 3.62D-05

 Cycle   9  Pass 1  IDiag  1:
 E= -526.727535942090     Delta-E=       -0.000000001754 Rises=F Damp=F
 DIIS: error= 6.69D-07 at cycle   6 NSaved=   6.
 NSaved= 6 IEnMin= 6 EnMin= -526.727535942090     IErMin= 6 ErrMin= 6.69D-07
 ErrMax= 6.69D-07  0.00D+00 EMaxC= 1.00D-01 BMatC= 1.27D-10 BMatP= 1.27D-09
 IDIUse=1 WtCom= 1.00D+00 WtEn= 0.00D+00
 Coeff-Com:  0.473D-02-0.291D-01-0.978D-01 0.944D-01 0.382D+00 0.645D+00
 Coeff:      0.473D-02-0.291D-01-0.978D-01 0.944D-01 0.382D+00 0.645D+00
 Gap=     0.328 Goal=   None    Shift=    0.000
 RMSDP=6.56D-08 MaxDP=2.14D-06 DE=-1.75D-09 OVMax= 6.76D-06

 Cycle  10  Pass 1  IDiag  1:
 E= -526.727535942220     Delta-E=       -0.000000000130 Rises=F Damp=F
 DIIS: error= 1.53D-07 at cycle   7 NSaved=   7.
 NSaved= 7 IEnMin= 7 EnMin= -526.727535942220     IErMin= 7 ErrMin= 1.53D-07
 ErrMax= 1.53D-07  0.00D+00 EMaxC= 1.00D-01 BMatC= 5.78D-12 BMatP= 1.27D-10
 IDIUse=1 WtCom= 1.00D+00 WtEn= 0.00D+00
 Coeff-Com:  0.212D-02-0.498D-02-0.210D-01-0.150D-02 0.463D-01 0.200D+00
 Coeff-Com:  0.780D+00
 Coeff:      0.212D-02-0.498D-02-0.210D-01-0.150D-02 0.463D-01 0.200D+00
 Coeff:      0.780D+00
 Gap=     0.328 Goal=   None    Shift=    0.000
 RMSDP=1.44D-08 MaxDP=4.00D-07 DE=-1.30D-10 OVMax= 1.79D-06

 Cycle  11  Pass 1  IDiag  1:
 E= -526.727535942250     Delta-E=       -0.000000000031 Rises=F Damp=F
 DIIS: error= 4.93D-08 at cycle   8 NSaved=   8.
 NSaved= 8 IEnMin= 8 EnMin= -526.727535942250     IErMin= 8 ErrMin= 4.93D-08
 ErrMax= 4.93D-08  0.00D+00 EMaxC= 1.00D-01 BMatC= 6.38D-13 BMatP= 5.78D-12
 IDIUse=1 WtCom= 1.00D+00 WtEn= 0.00D+00
 Coeff-Com: -0.929D-04 0.209D-02 0.558D-02-0.106D-01-0.294D-01-0.238D-01
 Coeff-Com:  0.190D+00 0.866D+00
 Coeff:     -0.929D-04 0.209D-02 0.558D-02-0.106D-01-0.294D-01-0.238D-01
 Coeff:      0.190D+00 0.866D+00
 Gap=     0.328 Goal=   None    Shift=    0.000
 RMSDP=4.11D-09 MaxDP=1.11D-07 DE=-3.08D-11 OVMax= 3.40D-07

 SCF Done:  E(RM062X) =  -526.727535942     A.U. after   11 cycles
            NFock= 11  Conv=0.41D-08     -V/T= 2.0037
 KE= 5.248072930587D+02 PE=-1.894314599500D+03 EE= 5.194844521191D+02
 Leave Link  502 at Sun May 25 03:58:59 2025, MaxMem=  3758096384 cpu:              39.9 elap:               7.4
 (Enter /apps/easybuild-2022/easybuild/software/Compiler/NVHPC/22.11-CUDA-11.7.0/Gaussian/g16c01-CUDA-11.7.0/g16/l508.exe)
 QCSCF skips out because SCF is already converged.
 Leave Link  508 at Sun May 25 03:58:59 2025, MaxMem=  3758096384 cpu:               0.0 elap:               0.0
 (Enter /apps/easybuild-2022/easybuild/software/Compiler/NVHPC/22.11-CUDA-11.7.0/Gaussian/g16c01-CUDA-11.7.0/g16/l801.exe)
 DoSCS=F DFT=T ScalE2(SS,OS)=  1.000000  1.000000
 Range of M.O.s used for correlation:     1   231
 NBasis=   231 NAE=    28 NBE=    28 NFC=     0 NFV=     0
 NROrb=    231 NOA=    28 NOB=    28 NVA=   203 NVB=   203

 **** Warning!!: The largest alpha MO coefficient is  0.12294294D+02

 Leave Link  801 at Sun May 25 03:58:59 2025, MaxMem=  3758096384 cpu:               0.0 elap:               0.0
 (Enter /apps/easybuild-2022/easybuild/software/Compiler/NVHPC/22.11-CUDA-11.7.0/Gaussian/g16c01-CUDA-11.7.0/g16/l1101.exe)
 Leave Link 1101 at Sun May 25 03:58:59 2025, MaxMem=  3758096384 cpu:               0.0 elap:               0.0
 (Enter /apps/easybuild-2022/easybuild/software/Compiler/NVHPC/22.11-CUDA-11.7.0/Gaussian/g16c01-CUDA-11.7.0/g16/l1102.exe)
 Symmetrizing basis deriv contribution to polar:
 IMax=3 JMax=2 DiffMx= 0.00D+00
 Leave Link 1102 at Sun May 25 03:58:59 2025, MaxMem=  3758096384 cpu:               0.1 elap:               0.0
 (Enter /apps/easybuild-2022/easybuild/software/Compiler/NVHPC/22.11-CUDA-11.7.0/Gaussian/g16c01-CUDA-11.7.0/g16/l1110.exe)
 Leave Link 1110 at Sun May 25 03:58:59 2025, MaxMem=  3758096384 cpu:               0.0 elap:               0.0
 (Enter /apps/easybuild-2022/easybuild/software/Compiler/NVHPC/22.11-CUDA-11.7.0/Gaussian/g16c01-CUDA-11.7.0/g16/l1002.exe)
 Minotr:  Closed shell wavefunction.
 Leave Link 1002 at Sun May 25 03:58:59 2025, MaxMem=  3758096384 cpu:               0.0 elap:               0.0
 (Enter /apps/easybuild-2022/easybuild/software/Compiler/NVHPC/22.11-CUDA-11.7.0/Gaussian/g16c01-CUDA-11.7.0/g16/l701.exe)
 ... and contract with generalized density number  0.
 Compute integral first derivatives.
   1 Symmetry operations used in ECPInt.
 ECPInt:  NShTT=    3486 NPrTT=   11183 LenC2=    3385 LenP2D=    8586.
 LDataN:  DoStor=T MaxTD1= 7 Len=  274
 Leave Link  701 at Sun May 25 03:58:59 2025, MaxMem=  3758096384 cpu:               0.5 elap:               0.1
 (Enter /apps/easybuild-2022/easybuild/software/Compiler/NVHPC/22.11-CUDA-11.7.0/Gaussian/g16c01-CUDA-11.7.0/g16/l702.exe)
 L702 exits ... SP integral derivatives will be done elsewhere.
 Leave Link  702 at Sun May 25 03:58:59 2025, MaxMem=  3758096384 cpu:               0.0 elap:               0.0
 (Enter /apps/easybuild-2022/easybuild/software/Compiler/NVHPC/22.11-CUDA-11.7.0/Gaussian/g16c01-CUDA-11.7.0/g16/l703.exe)
 Integral derivatives from FoFJK, PRISM(SPDF).
 Compute integral first derivatives, UseDBF=F ICtDFT=           0.
 Calling FoFJK, ICntrl=      2127 FMM=F ISym2X=0 I1Cent= 0 IOpClX= 0 NMat=1 NMatS=1 NMatT=0.
 FoFJK:  IHMeth= 1 ICntrl=    2127 DoSepK=F KAlg= 0 I1Cent=           0 FoldK=F
 IRaf=         0 NMat=       1 IRICut=       1 DoRegI=T DoRafI=F ISym2E= 0 IDoP0=0 IntGTp=1.
 FoFCou: FMM=F IPFlag=           0 FMFlag=      100000 FMFlg1=         800
         NFxFlg=           0 DoJE=F BraDBF=F KetDBF=F FulRan=T
         wScrn=  0.000000 ICntrl=      2127 IOpCl=  0 I1Cent=           0 NGrid=           0
         NMat0=    1 NMatS0=      1 NMatT0=    0 NMatD0=    1 NMtDS0=    0 NMtDT0=    0
 Symmetry not used in FoFCou.
 Leave Link  703 at Sun May 25 03:59:02 2025, MaxMem=  3758096384 cpu:              24.7 elap:               3.2
 (Enter /apps/easybuild-2022/easybuild/software/Compiler/NVHPC/22.11-CUDA-11.7.0/Gaussian/g16c01-CUDA-11.7.0/g16/l716.exe)
 Dipole        = 7.74616232D-01 2.22253371D-01 2.45260609D-01
 Polarizability= 0.00000000D+00 0.00000000D+00 0.00000000D+00
                 0.00000000D+00 0.00000000D+00 0.00000000D+00
 -------------------------------------------------------------------
 Center     Atomic                   Forces (Hartrees/Bohr)
 Number     Number              X              Y              Z
 -------------------------------------------------------------------
      1        6          -0.007304257   -0.001703052   -0.001595949
      2        8           0.002111686   -0.000112277   -0.000676111
      3        6           0.001464979   -0.001144005   -0.002472605
      4        9           0.001523628   -0.000012705   -0.000354637
      5        9          -0.000696161    0.000133058   -0.000251686
      6        9          -0.000629243   -0.000403884    0.000048917
      7        8          -0.001146319    0.001170549    0.002446560
      8        1           0.004675687    0.002072315    0.002855511
 -------------------------------------------------------------------
 Cartesian Forces:  Max     0.007304257 RMS     0.002234690
 Leave Link  716 at Sun May 25 03:59:02 2025, MaxMem=  3758096384 cpu:               0.0 elap:               0.0
 (Enter /apps/easybuild-2022/easybuild/software/Compiler/NVHPC/22.11-CUDA-11.7.0/Gaussian/g16c01-CUDA-11.7.0/g16/l123.exe)
 IRC-IRC-IRC-IRC-IRC-IRC-IRC-IRC-IRC-IRC-IRC-IRC-IRC-IRC-IRC-IRC-IRC-IRC
 Pt  2 Step number   1 out of a maximum of  20
 Using modified Bulirsch-Stoer corrector integration.
   Using distance weighted interpolants to fit PES.
 PreDWI: IReCr0= 2 IReCr1= 1 IReCr2= 1 IReCr3= 1
 Modified Bulirsch-Stoer Extrapolation Cycles:
    EPS =    0.000010000000000
    Cycle     1 NS=    48
      PEZero:  N= 2 I= 1 D=  1.13D-04 Err=  8.01D-07
    Cycle     2 NS=    64 Truncation Error =  0.000000801
 BS completed in    2 cycles and     112 integration steps.
 Maximum DWI energy   std dev =  0.000000176 at pt    47
 Maximum DWI gradient std dev =  0.004288837 at pt    37
 SUMMARY OF CORRECTOR INTEGRATION:
   Predictor End Point Energy =  -526.727536
   Old End Point Energy       =  -526.727536
   Corrected End Point Energy =  -526.727536
   Predictor End-Start Dist.  =     0.021717
   Old End-Start Dist.        =     0.021717
   New End-Start Dist.        =     0.021717
   New End-Old End Dist.      =     0.000097
 CORRECTOR INTEGRATION CONVERGENCE:
   Recorrection delta-x convergence threshold:    0.010000
   Delta-x Convergence Met
 Point Number:   2          Path Number:   1
                    CURRENT STRUCTURE
                Cartesian Coordinates (Ang):                
 ---------------------------------------------------------------------
 Center     Atomic                     Coordinates (Angstroms)
 Number     Number                        X           Y           Z
 ---------------------------------------------------------------------
      1          6                    1.442577    0.031249   -0.261294
      2          8                    1.602657   -0.485305   -1.269007
      3          6                   -0.643289    0.024833    0.188767
      4          9                   -1.374403    0.497017    1.229645
      5          9                   -1.132930    0.606691   -0.912939
      6          9                   -0.909601   -1.284302    0.101569
      7          8                    1.814129    0.622438    0.769567
      8          1                    0.668418    0.560214    0.905183
 ---------------------------------------------------------------------
   CHANGE IN THE REACTION COORDINATE =    0.02172
   NET REACTION COORDINATE UP TO THIS POINT =    0.04344
  # OF POINTS ALONG THE PATH =   2
  # OF STEPS =   1

 Calculating another point on the path.
 Point Number  3 in REVERSE path direction.
 Using LQA Reaction Path Following.
   LQA: T_Est iteration completed in    3 iterations.
 IRC-IRC-IRC-IRC-IRC-IRC-IRC-IRC-IRC-IRC-IRC-IRC-IRC-IRC-IRC-IRC-IRC-IRC
 Leave Link  123 at Sun May 25 03:59:02 2025, MaxMem=  3758096384 cpu:               0.1 elap:               0.0
 (Enter /apps/easybuild-2022/easybuild/software/Compiler/NVHPC/22.11-CUDA-11.7.0/Gaussian/g16c01-CUDA-11.7.0/g16/l202.exe)
                          Input orientation:                          
 ---------------------------------------------------------------------
 Center     Atomic      Atomic             Coordinates (Angstroms)
 Number     Number       Type             X           Y           Z
 ---------------------------------------------------------------------
      1          6           0        1.441480    0.030994   -0.261532
      2          8           0        1.602894   -0.485317   -1.269082
      3          6           0       -0.643069    0.024662    0.188396
      4          9           0       -1.374259    0.497015    1.229611
      5          9           0       -1.132996    0.606704   -0.912963
      6          9           0       -0.909661   -1.284340    0.101573
      7          8           0        1.814000    0.622569    0.769842
      8          1           0        0.676777    0.563906    0.910269
 ---------------------------------------------------------------------
                    Distance matrix (angstroms):
                    1          2          3          4          5
     1  C    0.000000
     2  O    1.143586   0.000000
     3  C    2.132562   2.725559   0.000000
     4  F    3.220104   4.008976   1.357161   0.000000
     5  F    2.717302   2.967225   1.338578   2.158903   0.000000
     6  F    2.718421   2.971543   1.338692   2.159062   2.157594
     7  O    1.245980   2.330062   2.594757   3.223685   3.393651
     8  H    1.497292   2.590006   1.598086   2.076825   2.569296
                    6          7          8
     6  F    0.000000
     7  O    3.391344   0.000000
     8  H    2.566474   1.147361   0.000000
 Symmetry turned off by external request.
 Stoichiometry    C2HF3O2
 Rotational constants (GHZ):           3.9386432           2.0103238           1.7351279
 Leave Link  202 at Sun May 25 03:59:02 2025, MaxMem=  3758096384 cpu:               0.0 elap:               0.0
 (Enter /apps/easybuild-2022/easybuild/software/Compiler/NVHPC/22.11-CUDA-11.7.0/Gaussian/g16c01-CUDA-11.7.0/g16/l301.exe)
 Standard basis: def2TZVPP (5D, 7F)
 Ernie: Thresh=  0.10000D-02 Tol=  0.10000D-05 Strict=F.
   231 basis functions,   374 primitive gaussians,   267 cartesian basis functions
    28 alpha electrons       28 beta electrons
       nuclear repulsion energy       323.2793712271 Hartrees.
 IExCor= 4336 DFT=T Ex+Corr=M062X ExCW=0 ScaHFX=  0.540000
 ScaDFX=  1.000000  1.000000  1.000000  1.000000 ScalE2=  1.000000  1.000000
 IRadAn=      5 IRanWt=     -1 IRanGd=            0 ICorTp=0 IEmpDi=  4
 NAtoms=    8 NActive=    8 NUniq=    8 SFac= 1.00D+00 NAtFMM=   60 NAOKFM=F Big=F
 Integral buffers will be    131072 words long.
 Raffenetti 2 integral format.
 Two-electron integral symmetry is turned off.
 Leave Link  301 at Sun May 25 03:59:02 2025, MaxMem=  3758096384 cpu:               0.0 elap:               0.0
 (Enter /apps/easybuild-2022/easybuild/software/Compiler/NVHPC/22.11-CUDA-11.7.0/Gaussian/g16c01-CUDA-11.7.0/g16/l302.exe)
 NPDir=0 NMtPBC=     1 NCelOv=     1 NCel=       1 NClECP=     1 NCelD=      1
         NCelK=      1 NCelE2=     1 NClLst=     1 CellRange=     0.0.
 One-electron integrals computed using PRISM.
   1 Symmetry operations used in ECPInt.
 ECPInt:  NShTT=    3486 NPrTT=   11183 LenC2=    3385 LenP2D=    8587.
 LDataN:  DoStor=T MaxTD1= 6 Len=  172
 NBasis=   231 RedAO= T EigKep=  5.32D-04  NBF=   231
 NBsUse=   231 1.00D-06 EigRej= -1.00D+00 NBFU=   231
 Precomputing XC quadrature grid using
 IXCGrd= 4 IRadAn=           5 IRanWt=          -1 IRanGd=           0 AccXCQ= 0.00D+00.
 Generated NRdTot=       0 NPtTot=           0 NUsed=           0 NTot=          32
 NSgBfM=   266   266   266   266   266 MxSgAt=     8 MxSgA2=     8.
 Leave Link  302 at Sun May 25 03:59:02 2025, MaxMem=  3758096384 cpu:               0.4 elap:               0.1
 (Enter /apps/easybuild-2022/easybuild/software/Compiler/NVHPC/22.11-CUDA-11.7.0/Gaussian/g16c01-CUDA-11.7.0/g16/l303.exe)
 DipDrv:  MaxL=1.
 Leave Link  303 at Sun May 25 03:59:02 2025, MaxMem=  3758096384 cpu:               0.1 elap:               0.0
 (Enter /apps/easybuild-2022/easybuild/software/Compiler/NVHPC/22.11-CUDA-11.7.0/Gaussian/g16c01-CUDA-11.7.0/g16/l401.exe)
 Initial guess from the checkpoint file:  "1141903082400600000001_r13_insertion_CO2_3_8_IRC_R.chk"
 B after Tr=     0.000139    0.000063    0.000088
         Rot=    1.000000    0.000001   -0.000007    0.000004 Ang=   0.00 deg.
 Guess basis will be translated and rotated to current coordinates.
 JPrj=2 DoOrth=T DoCkMO=T.
 Generating alternative initial guess.
 ExpMin= 9.52D-02 ExpMax= 3.55D+04 ExpMxC= 1.21D+03 IAcc=3 IRadAn=         5 AccDes= 0.00D+00
 Harris functional with IExCor= 1009 and IRadAn=       5 diagonalized for initial guess.
 HarFok:  IExCor= 1009 AccDes= 0.00D+00 IRadAn=         5 IDoV= 1 UseB2=F ITyADJ=14
 ICtDFT=  3500011 ScaDFX=  1.000000  1.000000  1.000000  1.000000
 FoFCou: FMM=F IPFlag=           0 FMFlag=      100000 FMFlg1=           0
         NFxFlg=           0 DoJE=T BraDBF=F KetDBF=T FulRan=T
         wScrn=  0.000000 ICntrl=       500 IOpCl=  0 I1Cent=   200000004 NGrid=           0
         NMat0=    1 NMatS0=      1 NMatT0=    0 NMatD0=    1 NMtDS0=    0 NMtDT0=    0
 Symmetry not used in FoFCou.
 Harris En= -526.424838143415    
 Leave Link  401 at Sun May 25 03:59:03 2025, MaxMem=  3758096384 cpu:               2.0 elap:               0.3
 (Enter /apps/easybuild-2022/easybuild/software/Compiler/NVHPC/22.11-CUDA-11.7.0/Gaussian/g16c01-CUDA-11.7.0/g16/l502.exe)
 Keep R1 ints in memory in canonical form, NReq=368651279.
 FoFCou: FMM=F IPFlag=           0 FMFlag=           0 FMFlg1=           0
         NFxFlg=           0 DoJE=F BraDBF=F KetDBF=F FulRan=T
         wScrn=  0.000000 ICntrl=       600 IOpCl=  0 I1Cent=           0 NGrid=           0
         NMat0=    1 NMatS0=  26796 NMatT0=    0 NMatD0=    1 NMtDS0=    0 NMtDT0=    0
 Symmetry not used in FoFCou.
 Two-electron integral symmetry not used.
 Closed shell SCF:
 Using DIIS extrapolation, IDIIS=  1040.
 NGot=  3758096384 LenX=  3398923531 LenY=  3398851801
 Requested convergence on RMS density matrix=1.00D-08 within  32 cycles.
 Requested convergence on MAX density matrix=1.00D-06.
 Requested convergence on             energy=1.00D-06.
 No special actions if energy rises.
 Integral accuracy reduced to 1.0D-05 until final iterations.

 Cycle   1  Pass 0  IDiag  1:
 E= -526.727626283278    
 DIIS: error= 4.26D-04 at cycle   1 NSaved=   1.
 NSaved= 1 IEnMin= 1 EnMin= -526.727626283278     IErMin= 1 ErrMin= 4.26D-04
 ErrMax= 4.26D-04  0.00D+00 EMaxC= 1.00D-01 BMatC= 3.35D-05 BMatP= 3.35D-05
 IDIUse=3 WtCom= 9.96D-01 WtEn= 4.26D-03
 Coeff-Com:  0.100D+01
 Coeff-En:   0.100D+01
 Coeff:      0.100D+01
 Gap=     0.986 Goal=   None    Shift=    0.000
 RMSDP=3.36D-05 MaxDP=8.77D-04              OVMax= 5.06D-03

 Cycle   2  Pass 0  IDiag  1:
 E= -526.727677695420     Delta-E=       -0.000051412142 Rises=F Damp=F
 DIIS: error= 2.14D-04 at cycle   2 NSaved=   2.
 NSaved= 2 IEnMin= 2 EnMin= -526.727677695420     IErMin= 2 ErrMin= 2.14D-04
 ErrMax= 2.14D-04  0.00D+00 EMaxC= 1.00D-01 BMatC= 5.81D-06 BMatP= 3.35D-05
 IDIUse=3 WtCom= 9.98D-01 WtEn= 2.14D-03
 Coeff-Com:  0.132D+00 0.868D+00
 Coeff-En:   0.000D+00 0.100D+01
 Coeff:      0.132D+00 0.868D+00
 Gap=     0.328 Goal=   None    Shift=    0.000
 RMSDP=1.42D-05 MaxDP=5.81D-04 DE=-5.14D-05 OVMax= 1.66D-03

 Cycle   3  Pass 0  IDiag  1:
 E= -526.727681316122     Delta-E=       -0.000003620703 Rises=F Damp=F
 DIIS: error= 1.23D-04 at cycle   3 NSaved=   3.
 NSaved= 3 IEnMin= 3 EnMin= -526.727681316122     IErMin= 3 ErrMin= 1.23D-04
 ErrMax= 1.23D-04  0.00D+00 EMaxC= 1.00D-01 BMatC= 5.37D-06 BMatP= 5.81D-06
 IDIUse=3 WtCom= 9.99D-01 WtEn= 1.23D-03
 Coeff-Com: -0.727D-01 0.511D+00 0.562D+00
 Coeff-En:   0.000D+00 0.226D+00 0.774D+00
 Coeff:     -0.726D-01 0.510D+00 0.562D+00
 Gap=     0.328 Goal=   None    Shift=    0.000
 RMSDP=7.25D-06 MaxDP=2.79D-04 DE=-3.62D-06 OVMax= 9.14D-04

 Initial convergence to 1.0D-05 achieved.  Increase integral accuracy.
 Cycle   4  Pass 1  IDiag  1:
 E= -526.727706680649     Delta-E=       -0.000025364527 Rises=F Damp=F
 DIIS: error= 3.93D-05 at cycle   1 NSaved=   1.
 NSaved= 1 IEnMin= 1 EnMin= -526.727706680649     IErMin= 1 ErrMin= 3.93D-05
 ErrMax= 3.93D-05  0.00D+00 EMaxC= 1.00D-01 BMatC= 3.20D-07 BMatP= 3.20D-07
 IDIUse=1 WtCom= 1.00D+00 WtEn= 0.00D+00
 Coeff-Com:  0.100D+01
 Coeff:      0.100D+01
 Gap=     0.328 Goal=   None    Shift=    0.000
 RMSDP=7.25D-06 MaxDP=2.79D-04 DE=-2.54D-05 OVMax= 5.41D-04

 Cycle   5  Pass 1  IDiag  1:
 E= -526.727706954095     Delta-E=       -0.000000273446 Rises=F Damp=F
 DIIS: error= 3.76D-05 at cycle   2 NSaved=   2.
 NSaved= 2 IEnMin= 2 EnMin= -526.727706954095     IErMin= 2 ErrMin= 3.76D-05
 ErrMax= 3.76D-05  0.00D+00 EMaxC= 1.00D-01 BMatC= 3.19D-07 BMatP= 3.20D-07
 IDIUse=1 WtCom= 1.00D+00 WtEn= 0.00D+00
 Coeff-Com:  0.499D+00 0.501D+00
 Coeff:      0.499D+00 0.501D+00
 Gap=     0.328 Goal=   None    Shift=    0.000
 RMSDP=1.45D-06 MaxDP=7.09D-05 DE=-2.73D-07 OVMax= 2.22D-04

 Cycle   6  Pass 1  IDiag  1:
 E= -526.727707169942     Delta-E=       -0.000000215847 Rises=F Damp=F
 DIIS: error= 1.50D-05 at cycle   3 NSaved=   3.
 NSaved= 3 IEnMin= 3 EnMin= -526.727707169942     IErMin= 3 ErrMin= 1.50D-05
 ErrMax= 1.50D-05  0.00D+00 EMaxC= 1.00D-01 BMatC= 3.81D-08 BMatP= 3.19D-07
 IDIUse=1 WtCom= 1.00D+00 WtEn= 0.00D+00
 Coeff-Com: -0.768D-01 0.219D+00 0.858D+00
 Coeff:     -0.768D-01 0.219D+00 0.858D+00
 Gap=     0.328 Goal=   None    Shift=    0.000
 RMSDP=1.21D-06 MaxDP=3.34D-05 DE=-2.16D-07 OVMax= 1.45D-04

 Cycle   7  Pass 1  IDiag  1:
 E= -526.727707215820     Delta-E=       -0.000000045878 Rises=F Damp=F
 DIIS: error= 5.30D-06 at cycle   4 NSaved=   4.
 NSaved= 4 IEnMin= 4 EnMin= -526.727707215820     IErMin= 4 ErrMin= 5.30D-06
 ErrMax= 5.30D-06  0.00D+00 EMaxC= 1.00D-01 BMatC= 3.95D-09 BMatP= 3.81D-08
 IDIUse=1 WtCom= 1.00D+00 WtEn= 0.00D+00
 Coeff-Com: -0.583D-01 0.492D-01 0.328D+00 0.681D+00
 Coeff:     -0.583D-01 0.492D-01 0.328D+00 0.681D+00
 Gap=     0.328 Goal=   None    Shift=    0.000
 RMSDP=3.57D-07 MaxDP=9.59D-06 DE=-4.59D-08 OVMax= 4.29D-05

 Cycle   8  Pass 1  IDiag  1:
 E= -526.727707220755     Delta-E=       -0.000000004935 Rises=F Damp=F
 DIIS: error= 2.17D-06 at cycle   5 NSaved=   5.
 NSaved= 5 IEnMin= 5 EnMin= -526.727707220755     IErMin= 5 ErrMin= 2.17D-06
 ErrMax= 2.17D-06  0.00D+00 EMaxC= 1.00D-01 BMatC= 1.24D-09 BMatP= 3.95D-09
 IDIUse=1 WtCom= 1.00D+00 WtEn= 0.00D+00
 Coeff-Com: -0.265D-02-0.480D-01-0.120D+00 0.350D+00 0.820D+00
 Coeff:     -0.265D-02-0.480D-01-0.120D+00 0.350D+00 0.820D+00
 Gap=     0.328 Goal=   None    Shift=    0.000
 RMSDP=2.75D-07 MaxDP=7.61D-06 DE=-4.94D-09 OVMax= 3.56D-05

 Cycle   9  Pass 1  IDiag  1:
 E= -526.727707222457     Delta-E=       -0.000000001702 Rises=F Damp=F
 DIIS: error= 6.41D-07 at cycle   6 NSaved=   6.
 NSaved= 6 IEnMin= 6 EnMin= -526.727707222457     IErMin= 6 ErrMin= 6.41D-07
 ErrMax= 6.41D-07  0.00D+00 EMaxC= 1.00D-01 BMatC= 1.19D-10 BMatP= 1.24D-09
 IDIUse=1 WtCom= 1.00D+00 WtEn= 0.00D+00
 Coeff-Com:  0.472D-02-0.299D-01-0.968D-01 0.938D-01 0.379D+00 0.649D+00
 Coeff:      0.472D-02-0.299D-01-0.968D-01 0.938D-01 0.379D+00 0.649D+00
 Gap=     0.328 Goal=   None    Shift=    0.000
 RMSDP=6.38D-08 MaxDP=2.06D-06 DE=-1.70D-09 OVMax= 6.56D-06

 Cycle  10  Pass 1  IDiag  1:
 E= -526.727707222596     Delta-E=       -0.000000000139 Rises=F Damp=F
 DIIS: error= 1.50D-07 at cycle   7 NSaved=   7.
 NSaved= 7 IEnMin= 7 EnMin= -526.727707222596     IErMin= 7 ErrMin= 1.50D-07
 ErrMax= 1.50D-07  0.00D+00 EMaxC= 1.00D-01 BMatC= 5.71D-12 BMatP= 1.19D-10
 IDIUse=1 WtCom= 1.00D+00 WtEn= 0.00D+00
 Coeff-Com:  0.206D-02-0.495D-02-0.201D-01-0.245D-02 0.436D-01 0.203D+00
 Coeff-Com:  0.779D+00
 Coeff:      0.206D-02-0.495D-02-0.201D-01-0.245D-02 0.436D-01 0.203D+00
 Coeff:      0.779D+00
 Gap=     0.328 Goal=   None    Shift=    0.000
 RMSDP=1.42D-08 MaxDP=4.00D-07 DE=-1.39D-10 OVMax= 1.76D-06

 Cycle  11  Pass 1  IDiag  1:
 E= -526.727707222612     Delta-E=       -0.000000000016 Rises=F Damp=F
 DIIS: error= 4.70D-08 at cycle   8 NSaved=   8.
 NSaved= 8 IEnMin= 8 EnMin= -526.727707222612     IErMin= 8 ErrMin= 4.70D-08
 ErrMax= 4.70D-08  0.00D+00 EMaxC= 1.00D-01 BMatC= 5.95D-13 BMatP= 5.71D-12
 IDIUse=1 WtCom= 1.00D+00 WtEn= 0.00D+00
 Coeff-Com: -0.127D-03 0.225D-02 0.588D-02-0.108D-01-0.302D-01-0.252D-01
 Coeff-Com:  0.182D+00 0.877D+00
 Coeff:     -0.127D-03 0.225D-02 0.588D-02-0.108D-01-0.302D-01-0.252D-01
 Coeff:      0.182D+00 0.877D+00
 Gap=     0.328 Goal=   None    Shift=    0.000
 RMSDP=4.07D-09 MaxDP=1.11D-07 DE=-1.64D-11 OVMax= 3.41D-07

 SCF Done:  E(RM062X) =  -526.727707223     A.U. after   11 cycles
            NFock= 11  Conv=0.41D-08     -V/T= 2.0037
 KE= 5.248074562051D+02 PE=-1.894288377752D+03 EE= 5.194738430976D+02
 Leave Link  502 at Sun May 25 03:59:10 2025, MaxMem=  3758096384 cpu:              40.9 elap:               7.5
 (Enter /apps/easybuild-2022/easybuild/software/Compiler/NVHPC/22.11-CUDA-11.7.0/Gaussian/g16c01-CUDA-11.7.0/g16/l508.exe)
 QCSCF skips out because SCF is already converged.
 Leave Link  508 at Sun May 25 03:59:10 2025, MaxMem=  3758096384 cpu:               0.0 elap:               0.0
 (Enter /apps/easybuild-2022/easybuild/software/Compiler/NVHPC/22.11-CUDA-11.7.0/Gaussian/g16c01-CUDA-11.7.0/g16/l801.exe)
 DoSCS=F DFT=T ScalE2(SS,OS)=  1.000000  1.000000
 Range of M.O.s used for correlation:     1   231
 NBasis=   231 NAE=    28 NBE=    28 NFC=     0 NFV=     0
 NROrb=    231 NOA=    28 NOB=    28 NVA=   203 NVB=   203

 **** Warning!!: The largest alpha MO coefficient is  0.12190012D+02

 Leave Link  801 at Sun May 25 03:59:10 2025, MaxMem=  3758096384 cpu:               0.0 elap:               0.0
 (Enter /apps/easybuild-2022/easybuild/software/Compiler/NVHPC/22.11-CUDA-11.7.0/Gaussian/g16c01-CUDA-11.7.0/g16/l1101.exe)
 Leave Link 1101 at Sun May 25 03:59:10 2025, MaxMem=  3758096384 cpu:               0.0 elap:               0.0
 (Enter /apps/easybuild-2022/easybuild/software/Compiler/NVHPC/22.11-CUDA-11.7.0/Gaussian/g16c01-CUDA-11.7.0/g16/l1102.exe)
 Symmetrizing basis deriv contribution to polar:
 IMax=3 JMax=2 DiffMx= 0.00D+00
 Leave Link 1102 at Sun May 25 03:59:10 2025, MaxMem=  3758096384 cpu:               0.0 elap:               0.0
 (Enter /apps/easybuild-2022/easybuild/software/Compiler/NVHPC/22.11-CUDA-11.7.0/Gaussian/g16c01-CUDA-11.7.0/g16/l1110.exe)
 Leave Link 1110 at Sun May 25 03:59:10 2025, MaxMem=  3758096384 cpu:               0.0 elap:               0.0
 (Enter /apps/easybuild-2022/easybuild/software/Compiler/NVHPC/22.11-CUDA-11.7.0/Gaussian/g16c01-CUDA-11.7.0/g16/l1002.exe)
 Minotr:  Closed shell wavefunction.
 Leave Link 1002 at Sun May 25 03:59:10 2025, MaxMem=  3758096384 cpu:               0.0 elap:               0.0
 (Enter /apps/easybuild-2022/easybuild/software/Compiler/NVHPC/22.11-CUDA-11.7.0/Gaussian/g16c01-CUDA-11.7.0/g16/l701.exe)
 ... and contract with generalized density number  0.
 Compute integral first derivatives.
   1 Symmetry operations used in ECPInt.
 ECPInt:  NShTT=    3486 NPrTT=   11183 LenC2=    3385 LenP2D=    8587.
 LDataN:  DoStor=T MaxTD1= 7 Len=  274
 Leave Link  701 at Sun May 25 03:59:10 2025, MaxMem=  3758096384 cpu:               0.5 elap:               0.1
 (Enter /apps/easybuild-2022/easybuild/software/Compiler/NVHPC/22.11-CUDA-11.7.0/Gaussian/g16c01-CUDA-11.7.0/g16/l702.exe)
 L702 exits ... SP integral derivatives will be done elsewhere.
 Leave Link  702 at Sun May 25 03:59:10 2025, MaxMem=  3758096384 cpu:               0.0 elap:               0.0
 (Enter /apps/easybuild-2022/easybuild/software/Compiler/NVHPC/22.11-CUDA-11.7.0/Gaussian/g16c01-CUDA-11.7.0/g16/l703.exe)
 Integral derivatives from FoFJK, PRISM(SPDF).
 Compute integral first derivatives, UseDBF=F ICtDFT=           0.
 Calling FoFJK, ICntrl=      2127 FMM=F ISym2X=0 I1Cent= 0 IOpClX= 0 NMat=1 NMatS=1 NMatT=0.
 FoFJK:  IHMeth= 1 ICntrl=    2127 DoSepK=F KAlg= 0 I1Cent=           0 FoldK=F
 IRaf=         0 NMat=       1 IRICut=       1 DoRegI=T DoRafI=F ISym2E= 0 IDoP0=0 IntGTp=1.
 FoFCou: FMM=F IPFlag=           0 FMFlag=      100000 FMFlg1=         800
         NFxFlg=           0 DoJE=F BraDBF=F KetDBF=F FulRan=T
         wScrn=  0.000000 ICntrl=      2127 IOpCl=  0 I1Cent=           0 NGrid=           0
         NMat0=    1 NMatS0=      1 NMatT0=    0 NMatD0=    1 NMtDS0=    0 NMtDT0=    0
 Symmetry not used in FoFCou.
 Leave Link  703 at Sun May 25 03:59:14 2025, MaxMem=  3758096384 cpu:              25.4 elap:               3.2
 (Enter /apps/easybuild-2022/easybuild/software/Compiler/NVHPC/22.11-CUDA-11.7.0/Gaussian/g16c01-CUDA-11.7.0/g16/l716.exe)
 Dipole        = 7.80279250D-01 2.28079276D-01 2.54975682D-01
 Polarizability= 0.00000000D+00 0.00000000D+00 0.00000000D+00
                 0.00000000D+00 0.00000000D+00 0.00000000D+00
 -------------------------------------------------------------------
 Center     Atomic                   Forces (Hartrees/Bohr)
 Number     Number              X              Y              Z
 -------------------------------------------------------------------
      1        6          -0.010856958   -0.002496424   -0.002304334
      2        8           0.003139018   -0.000168187   -0.001007944
      3        6           0.002171110   -0.001689409   -0.003658091
      4        9           0.002274366   -0.000022415   -0.000535735
      5        9          -0.001020859    0.000197519   -0.000365490
      6        9          -0.000921160   -0.000588966    0.000071919
      7        8          -0.001593194    0.001720003    0.003577968
      8        1           0.006807677    0.003047879    0.004221707
 -------------------------------------------------------------------
 Cartesian Forces:  Max     0.010856958 RMS     0.003297055
 Leave Link  716 at Sun May 25 03:59:14 2025, MaxMem=  3758096384 cpu:               0.0 elap:               0.0
 (Enter /apps/easybuild-2022/easybuild/software/Compiler/NVHPC/22.11-CUDA-11.7.0/Gaussian/g16c01-CUDA-11.7.0/g16/l123.exe)
 IRC-IRC-IRC-IRC-IRC-IRC-IRC-IRC-IRC-IRC-IRC-IRC-IRC-IRC-IRC-IRC-IRC-IRC
 Pt  3 Step number   1 out of a maximum of  20
 Using modified Bulirsch-Stoer corrector integration.
   Using distance weighted interpolants to fit PES.
 PreDWI: IReCr0= 2 IReCr1= 1 IReCr2= 1 IReCr3= 1
 Modified Bulirsch-Stoer Extrapolation Cycles:
    EPS =    0.000010000000000
    Cycle     1 NS=    48
      PEZero:  N= 2 I= 1 D=  1.13D-04 Err=  8.41D-07
    Cycle     2 NS=    64 Truncation Error =  0.000000841
 BS completed in    2 cycles and     112 integration steps.
 Maximum DWI energy   std dev =  0.000000184 at pt    47
 Maximum DWI gradient std dev =  0.002826353 at pt    28
 SUMMARY OF CORRECTOR INTEGRATION:
   Predictor End Point Energy =  -526.727707
   Old End Point Energy       =  -526.727707
   Corrected End Point Energy =  -526.727707
   Predictor End-Start Dist.  =     0.021718
   Old End-Start Dist.        =     0.021718
   New End-Start Dist.        =     0.021718
   New End-Old End Dist.      =     0.000069
 CORRECTOR INTEGRATION CONVERGENCE:
   Recorrection delta-x convergence threshold:    0.010000
   Delta-x Convergence Met
 Point Number:   3          Path Number:   1
                    CURRENT STRUCTURE
                Cartesian Coordinates (Ang):                
 ---------------------------------------------------------------------
 Center     Atomic                     Coordinates (Angstroms)
 Number     Number                        X           Y           Z
 ---------------------------------------------------------------------
      1          6                    1.441476    0.030994   -0.261532
      2          8                    1.602895   -0.485318   -1.269083
      3          6                   -0.643069    0.024661    0.188395
      4          9                   -1.374258    0.497015    1.229611
      5          9                   -1.132996    0.606704   -0.912963
      6          9                   -0.909661   -1.284340    0.101573
      7          8                    1.814002    0.622569    0.769842
      8          1                    0.676754    0.563913    0.910288
 ---------------------------------------------------------------------
   CHANGE IN THE REACTION COORDINATE =    0.02172
   NET REACTION COORDINATE UP TO THIS POINT =    0.06516
  # OF POINTS ALONG THE PATH =   3
  # OF STEPS =   1

 Calculating another point on the path.
 Point Number  4 in REVERSE path direction.
 Using LQA Reaction Path Following.
   LQA: T_Est iteration completed in    3 iterations.
 IRC-IRC-IRC-IRC-IRC-IRC-IRC-IRC-IRC-IRC-IRC-IRC-IRC-IRC-IRC-IRC-IRC-IRC
 Leave Link  123 at Sun May 25 03:59:14 2025, MaxMem=  3758096384 cpu:               0.1 elap:               0.0
 (Enter /apps/easybuild-2022/easybuild/software/Compiler/NVHPC/22.11-CUDA-11.7.0/Gaussian/g16c01-CUDA-11.7.0/g16/l202.exe)
                          Input orientation:                          
 ---------------------------------------------------------------------
 Center     Atomic      Atomic             Coordinates (Angstroms)
 Number     Number       Type             X           Y           Z
 ---------------------------------------------------------------------
      1          6           0        1.440361    0.030739   -0.261766
      2          8           0        1.603137   -0.485330   -1.269160
      3          6           0       -0.642846    0.024488    0.188020
      4          9           0       -1.374110    0.497014    1.229576
      5          9           0       -1.133062    0.606717   -0.912986
      6          9           0       -0.909720   -1.284378    0.101578
      7          8           0        1.813881    0.622701    0.770116
      8          1           0        0.685042    0.567624    0.915430
 ---------------------------------------------------------------------
                    Distance matrix (angstroms):
                    1          2          3          4          5
     1  C    0.000000
     2  O    1.143532   0.000000
     3  C    2.131220   2.725386   0.000000
     4  F    3.219125   4.009075   1.357522   0.000000
     5  F    2.716311   2.967526   1.338475   2.158868   0.000000
     6  F    2.717432   2.971843   1.338591   2.159027   2.157652
     7  O    1.246883   2.330407   2.594649   3.223382   3.393753
     8  H    1.498180   2.593076   1.608542   2.084174   2.578785
                    6          7          8
     6  F    0.000000
     7  O    3.391445   0.000000
     8  H    2.575953   1.139486   0.000000
 Symmetry turned off by external request.
 Stoichiometry    C2HF3O2
 Rotational constants (GHZ):           3.9376115           2.0105801           1.7351471
 Leave Link  202 at Sun May 25 03:59:14 2025, MaxMem=  3758096384 cpu:               0.0 elap:               0.0
 (Enter /apps/easybuild-2022/easybuild/software/Compiler/NVHPC/22.11-CUDA-11.7.0/Gaussian/g16c01-CUDA-11.7.0/g16/l301.exe)
 Standard basis: def2TZVPP (5D, 7F)
 Ernie: Thresh=  0.10000D-02 Tol=  0.10000D-05 Strict=F.
   231 basis functions,   374 primitive gaussians,   267 cartesian basis functions
    28 alpha electrons       28 beta electrons
       nuclear repulsion energy       323.2634958422 Hartrees.
 IExCor= 4336 DFT=T Ex+Corr=M062X ExCW=0 ScaHFX=  0.540000
 ScaDFX=  1.000000  1.000000  1.000000  1.000000 ScalE2=  1.000000  1.000000
 IRadAn=      5 IRanWt=     -1 IRanGd=            0 ICorTp=0 IEmpDi=  4
 NAtoms=    8 NActive=    8 NUniq=    8 SFac= 1.00D+00 NAtFMM=   60 NAOKFM=F Big=F
 Integral buffers will be    131072 words long.
 Raffenetti 2 integral format.
 Two-electron integral symmetry is turned off.
 Leave Link  301 at Sun May 25 03:59:14 2025, MaxMem=  3758096384 cpu:               0.0 elap:               0.0
 (Enter /apps/easybuild-2022/easybuild/software/Compiler/NVHPC/22.11-CUDA-11.7.0/Gaussian/g16c01-CUDA-11.7.0/g16/l302.exe)
 NPDir=0 NMtPBC=     1 NCelOv=     1 NCel=       1 NClECP=     1 NCelD=      1
         NCelK=      1 NCelE2=     1 NClLst=     1 CellRange=     0.0.
 One-electron integrals computed using PRISM.
   1 Symmetry operations used in ECPInt.
 ECPInt:  NShTT=    3486 NPrTT=   11183 LenC2=    3385 LenP2D=    8587.
 LDataN:  DoStor=T MaxTD1= 6 Len=  172
 NBasis=   231 RedAO= T EigKep=  5.34D-04  NBF=   231
 NBsUse=   231 1.00D-06 EigRej= -1.00D+00 NBFU=   231
 Precomputing XC quadrature grid using
 IXCGrd= 4 IRadAn=           5 IRanWt=          -1 IRanGd=           0 AccXCQ= 0.00D+00.
 Generated NRdTot=       0 NPtTot=           0 NUsed=           0 NTot=          32
 NSgBfM=   266   266   266   266   266 MxSgAt=     8 MxSgA2=     8.
 Leave Link  302 at Sun May 25 03:59:14 2025, MaxMem=  3758096384 cpu:               0.4 elap:               0.1
 (Enter /apps/easybuild-2022/easybuild/software/Compiler/NVHPC/22.11-CUDA-11.7.0/Gaussian/g16c01-CUDA-11.7.0/g16/l303.exe)
 DipDrv:  MaxL=1.
 Leave Link  303 at Sun May 25 03:59:14 2025, MaxMem=  3758096384 cpu:               0.1 elap:               0.0
 (Enter /apps/easybuild-2022/easybuild/software/Compiler/NVHPC/22.11-CUDA-11.7.0/Gaussian/g16c01-CUDA-11.7.0/g16/l401.exe)
 Initial guess from the checkpoint file:  "1141903082400600000001_r13_insertion_CO2_3_8_IRC_R.chk"
 B after Tr=     0.000138    0.000063    0.000088
         Rot=    1.000000    0.000001   -0.000007    0.000004 Ang=   0.00 deg.
 Guess basis will be translated and rotated to current coordinates.
 JPrj=2 DoOrth=T DoCkMO=T.
 Generating alternative initial guess.
 ExpMin= 9.52D-02 ExpMax= 3.55D+04 ExpMxC= 1.21D+03 IAcc=3 IRadAn=         5 AccDes= 0.00D+00
 Harris functional with IExCor= 1009 and IRadAn=       5 diagonalized for initial guess.
 HarFok:  IExCor= 1009 AccDes= 0.00D+00 IRadAn=         5 IDoV= 1 UseB2=F ITyADJ=14
 ICtDFT=  3500011 ScaDFX=  1.000000  1.000000  1.000000  1.000000
 FoFCou: FMM=F IPFlag=           0 FMFlag=      100000 FMFlg1=           0
         NFxFlg=           0 DoJE=T BraDBF=F KetDBF=T FulRan=T
         wScrn=  0.000000 ICntrl=       500 IOpCl=  0 I1Cent=   200000004 NGrid=           0
         NMat0=    1 NMatS0=      1 NMatT0=    0 NMatD0=    1 NMtDS0=    0 NMtDT0=    0
 Symmetry not used in FoFCou.
 Harris En= -526.424978604349    
 Leave Link  401 at Sun May 25 03:59:14 2025, MaxMem=  3758096384 cpu:               2.1 elap:               0.3
 (Enter /apps/easybuild-2022/easybuild/software/Compiler/NVHPC/22.11-CUDA-11.7.0/Gaussian/g16c01-CUDA-11.7.0/g16/l502.exe)
 Keep R1 ints in memory in canonical form, NReq=368651279.
 FoFCou: FMM=F IPFlag=           0 FMFlag=           0 FMFlg1=           0
         NFxFlg=           0 DoJE=F BraDBF=F KetDBF=F FulRan=T
         wScrn=  0.000000 ICntrl=       600 IOpCl=  0 I1Cent=           0 NGrid=           0
         NMat0=    1 NMatS0=  26796 NMatT0=    0 NMatD0=    1 NMtDS0=    0 NMtDT0=    0
 Symmetry not used in FoFCou.
 Two-electron integral symmetry not used.
 Closed shell SCF:
 Using DIIS extrapolation, IDIIS=  1040.
 NGot=  3758096384 LenX=  3398923531 LenY=  3398851801
 Requested convergence on RMS density matrix=1.00D-08 within  32 cycles.
 Requested convergence on MAX density matrix=1.00D-06.
 Requested convergence on             energy=1.00D-06.
 No special actions if energy rises.
 Integral accuracy reduced to 1.0D-05 until final iterations.

 Cycle   1  Pass 0  IDiag  1:
 E= -526.727861855905    
 DIIS: error= 4.27D-04 at cycle   1 NSaved=   1.
 NSaved= 1 IEnMin= 1 EnMin= -526.727861855905     IErMin= 1 ErrMin= 4.27D-04
 ErrMax= 4.27D-04  0.00D+00 EMaxC= 1.00D-01 BMatC= 3.32D-05 BMatP= 3.32D-05
 IDIUse=3 WtCom= 9.96D-01 WtEn= 4.27D-03
 Coeff-Com:  0.100D+01
 Coeff-En:   0.100D+01
 Coeff:      0.100D+01
 Gap=     0.985 Goal=   None    Shift=    0.000
 RMSDP=3.33D-05 MaxDP=8.62D-04              OVMax= 4.99D-03

 Cycle   2  Pass 0  IDiag  1:
 E= -526.727912294932     Delta-E=       -0.000050439026 Rises=F Damp=F
 DIIS: error= 2.10D-04 at cycle   2 NSaved=   2.
 NSaved= 2 IEnMin= 2 EnMin= -526.727912294932     IErMin= 2 ErrMin= 2.10D-04
 ErrMax= 2.10D-04  0.00D+00 EMaxC= 1.00D-01 BMatC= 5.77D-06 BMatP= 3.32D-05
 IDIUse=3 WtCom= 9.98D-01 WtEn= 2.10D-03
 Coeff-Com:  0.135D+00 0.865D+00
 Coeff-En:   0.000D+00 0.100D+01
 Coeff:      0.135D+00 0.865D+00
 Gap=     0.328 Goal=   None    Shift=    0.000
 RMSDP=1.41D-05 MaxDP=5.70D-04 DE=-5.04D-05 OVMax= 1.63D-03

 Cycle   3  Pass 0  IDiag  1:
 E= -526.727915826928     Delta-E=       -0.000003531997 Rises=F Damp=F
 DIIS: error= 1.22D-04 at cycle   3 NSaved=   3.
 NSaved= 3 IEnMin= 3 EnMin= -526.727915826928     IErMin= 3 ErrMin= 1.22D-04
 ErrMax= 1.22D-04  0.00D+00 EMaxC= 1.00D-01 BMatC= 5.27D-06 BMatP= 5.77D-06
 IDIUse=3 WtCom= 9.99D-01 WtEn= 1.22D-03
 Coeff-Com: -0.698D-01 0.507D+00 0.563D+00
 Coeff-En:   0.000D+00 0.231D+00 0.769D+00
 Coeff:     -0.698D-01 0.507D+00 0.563D+00
 Gap=     0.328 Goal=   None    Shift=    0.000
 RMSDP=7.16D-06 MaxDP=2.76D-04 DE=-3.53D-06 OVMax= 9.00D-04

 Initial convergence to 1.0D-05 achieved.  Increase integral accuracy.
 Cycle   4  Pass 1  IDiag  1:
 E= -526.727941065655     Delta-E=       -0.000025238727 Rises=F Damp=F
 DIIS: error= 3.84D-05 at cycle   1 NSaved=   1.
 NSaved= 1 IEnMin= 1 EnMin= -526.727941065655     IErMin= 1 ErrMin= 3.84D-05
 ErrMax= 3.84D-05  0.00D+00 EMaxC= 1.00D-01 BMatC= 3.14D-07 BMatP= 3.14D-07
 IDIUse=1 WtCom= 1.00D+00 WtEn= 0.00D+00
 Coeff-Com:  0.100D+01
 Coeff:      0.100D+01
 Gap=     0.328 Goal=   None    Shift=    0.000
 RMSDP=7.16D-06 MaxDP=2.76D-04 DE=-2.52D-05 OVMax= 5.29D-04

 Cycle   5  Pass 1  IDiag  1:
 E= -526.727941336150     Delta-E=       -0.000000270495 Rises=F Damp=F
 DIIS: error= 3.74D-05 at cycle   2 NSaved=   2.
 NSaved= 2 IEnMin= 2 EnMin= -526.727941336150     IErMin= 2 ErrMin= 3.74D-05
 ErrMax= 3.74D-05  0.00D+00 EMaxC= 1.00D-01 BMatC= 3.03D-07 BMatP= 3.14D-07
 IDIUse=1 WtCom= 1.00D+00 WtEn= 0.00D+00
 Coeff-Com:  0.494D+00 0.506D+00
 Coeff:      0.494D+00 0.506D+00
 Gap=     0.328 Goal=   None    Shift=    0.000
[...]
 RMSDP=1.21D-05 MaxDP=3.58D-04              OVMax= 1.01D-03

 Cycle   2  Pass 0  IDiag  1:
 E= -526.798032706370     Delta-E=       -0.000007159181 Rises=F Damp=F
 DIIS: error= 2.73D-05 at cycle   2 NSaved=   2.
 NSaved= 2 IEnMin= 2 EnMin= -526.798032706370     IErMin= 2 ErrMin= 2.73D-05
 ErrMax= 2.73D-05  0.00D+00 EMaxC= 1.00D-01 BMatC= 3.51D-07 BMatP= 6.45D-06
 IDIUse=1 WtCom= 1.00D+00 WtEn= 0.00D+00
 Coeff-Com: -0.566D-01 0.106D+01
 Coeff:     -0.566D-01 0.106D+01
 Gap=     0.388 Goal=   None    Shift=    0.000
 RMSDP=3.17D-06 MaxDP=7.78D-05 DE=-7.16D-06 OVMax= 2.14D-04

 Initial convergence to 1.0D-05 achieved.  Increase integral accuracy.
 Cycle   3  Pass 1  IDiag  1:
 E= -526.798059334572     Delta-E=       -0.000026628203 Rises=F Damp=F
 DIIS: error= 4.31D-05 at cycle   1 NSaved=   1.
 NSaved= 1 IEnMin= 1 EnMin= -526.798059334572     IErMin= 1 ErrMin= 4.31D-05
 ErrMax= 4.31D-05  0.00D+00 EMaxC= 1.00D-01 BMatC= 5.84D-07 BMatP= 5.84D-07
 IDIUse=1 WtCom= 1.00D+00 WtEn= 0.00D+00
 Coeff-Com:  0.100D+01
 Coeff:      0.100D+01
 Gap=     0.388 Goal=   None    Shift=    0.000
 RMSDP=3.17D-06 MaxDP=7.78D-05 DE=-2.66D-05 OVMax= 2.13D-04

 Cycle   4  Pass 1  IDiag  1:
 E= -526.798059301561     Delta-E=        0.000000033012 Rises=F Damp=F
 DIIS: error= 5.85D-05 at cycle   2 NSaved=   2.
 NSaved= 2 IEnMin= 1 EnMin= -526.798059334572     IErMin= 1 ErrMin= 4.31D-05
 ErrMax= 5.85D-05  0.00D+00 EMaxC= 1.00D-01 BMatC= 6.98D-07 BMatP= 5.84D-07
 IDIUse=1 WtCom= 1.00D+00 WtEn= 0.00D+00
 Coeff-Com:  0.525D+00 0.475D+00
 Coeff:      0.525D+00 0.475D+00
 Gap=     0.388 Goal=   None    Shift=    0.000
 RMSDP=1.72D-06 MaxDP=7.47D-05 DE= 3.30D-08 OVMax= 1.42D-04

 Cycle   5  Pass 1  IDiag  1:
 E= -526.798059736128     Delta-E=       -0.000000434567 Rises=F Damp=F
 DIIS: error= 1.05D-05 at cycle   3 NSaved=   3.
 NSaved= 3 IEnMin= 3 EnMin= -526.798059736128     IErMin= 3 ErrMin= 1.05D-05
 ErrMax= 1.05D-05  0.00D+00 EMaxC= 1.00D-01 BMatC= 2.57D-08 BMatP= 5.84D-07
 IDIUse=1 WtCom= 1.00D+00 WtEn= 0.00D+00
 Coeff-Com:  0.106D-01 0.149D+00 0.840D+00
 Coeff:      0.106D-01 0.149D+00 0.840D+00
 Gap=     0.388 Goal=   None    Shift=    0.000
 RMSDP=6.16D-07 MaxDP=2.41D-05 DE=-4.35D-07 OVMax= 6.81D-05

 Cycle   6  Pass 1  IDiag  1:
 E= -526.798059749090     Delta-E=       -0.000000012962 Rises=F Damp=F
 DIIS: error= 6.53D-06 at cycle   4 NSaved=   4.
 NSaved= 4 IEnMin= 4 EnMin= -526.798059749090     IErMin= 4 ErrMin= 6.53D-06
 ErrMax= 6.53D-06  0.00D+00 EMaxC= 1.00D-01 BMatC= 8.84D-09 BMatP= 2.57D-08
 IDIUse=1 WtCom= 1.00D+00 WtEn= 0.00D+00
 Coeff-Com: -0.302D-01 0.544D-01 0.500D+00 0.476D+00
 Coeff:     -0.302D-01 0.544D-01 0.500D+00 0.476D+00
 Gap=     0.388 Goal=   None    Shift=    0.000
 RMSDP=2.11D-07 MaxDP=8.22D-06 DE=-1.30D-08 OVMax= 2.36D-05

 Cycle   7  Pass 1  IDiag  1:
 E= -526.798059755214     Delta-E=       -0.000000006124 Rises=F Damp=F
 DIIS: error= 6.63D-07 at cycle   5 NSaved=   5.
 NSaved= 5 IEnMin= 5 EnMin= -526.798059755214     IErMin= 5 ErrMin= 6.63D-07
 ErrMax= 6.63D-07  0.00D+00 EMaxC= 1.00D-01 BMatC= 8.20D-11 BMatP= 8.84D-09
 IDIUse=1 WtCom= 1.00D+00 WtEn= 0.00D+00
 Coeff-Com: -0.433D-02-0.454D-02 0.258D-02 0.564D-01 0.950D+00
 Coeff:     -0.433D-02-0.454D-02 0.258D-02 0.564D-01 0.950D+00
 Gap=     0.388 Goal=   None    Shift=    0.000
 RMSDP=5.62D-08 MaxDP=1.86D-06 DE=-6.12D-09 OVMax= 6.14D-06

 Cycle   8  Pass 1  IDiag  1:
 E= -526.798059755282     Delta-E=       -0.000000000069 Rises=F Damp=F
 DIIS: error= 3.06D-07 at cycle   6 NSaved=   6.
 NSaved= 6 IEnMin= 6 EnMin= -526.798059755282     IErMin= 6 ErrMin= 3.06D-07
 ErrMax= 3.06D-07  0.00D+00 EMaxC= 1.00D-01 BMatC= 3.69D-11 BMatP= 8.20D-11
 IDIUse=1 WtCom= 1.00D+00 WtEn= 0.00D+00
 Coeff-Com:  0.214D-02-0.952D-02-0.670D-01-0.362D-01 0.469D+00 0.641D+00
 Coeff:      0.214D-02-0.952D-02-0.670D-01-0.362D-01 0.469D+00 0.641D+00
 Gap=     0.388 Goal=   None    Shift=    0.000
 RMSDP=2.15D-08 MaxDP=6.78D-07 DE=-6.87D-11 OVMax= 1.92D-06

 Cycle   9  Pass 1  IDiag  1:
 E= -526.798059755306     Delta-E=       -0.000000000024 Rises=F Damp=F
 DIIS: error= 5.55D-08 at cycle   7 NSaved=   7.
 NSaved= 7 IEnMin= 7 EnMin= -526.798059755306     IErMin= 7 ErrMin= 5.55D-08
 ErrMax= 5.55D-08  0.00D+00 EMaxC= 1.00D-01 BMatC= 5.65D-13 BMatP= 3.69D-11
 IDIUse=1 WtCom= 1.00D+00 WtEn= 0.00D+00
 Coeff-Com:  0.578D-03-0.109D-02-0.100D-01-0.826D-02 0.740D-02 0.703D-01
 Coeff-Com:  0.941D+00
 Coeff:      0.578D-03-0.109D-02-0.100D-01-0.826D-02 0.740D-02 0.703D-01
 Coeff:      0.941D+00
 Gap=     0.388 Goal=   None    Shift=    0.000
 RMSDP=5.41D-09 MaxDP=1.45D-07 DE=-2.41D-11 OVMax= 6.32D-07

 SCF Done:  E(RM062X) =  -526.798059755     A.U. after    9 cycles
            NFock=  9  Conv=0.54D-08     -V/T= 2.0043
 KE= 5.245434394931D+02 PE=-1.894729380861D+03 EE= 5.198820900546D+02
 Leave Link  502 at Sun May 25 04:15:55 2025, MaxMem=  3758096384 cpu:              34.8 elap:               6.4
 (Enter /apps/easybuild-2022/easybuild/software/Compiler/NVHPC/22.11-CUDA-11.7.0/Gaussian/g16c01-CUDA-11.7.0/g16/l508.exe)
 QCSCF skips out because SCF is already converged.
 Leave Link  508 at Sun May 25 04:15:55 2025, MaxMem=  3758096384 cpu:               0.0 elap:               0.0
 (Enter /apps/easybuild-2022/easybuild/software/Compiler/NVHPC/22.11-CUDA-11.7.0/Gaussian/g16c01-CUDA-11.7.0/g16/l801.exe)
 DoSCS=F DFT=T ScalE2(SS,OS)=  1.000000  1.000000
 Range of M.O.s used for correlation:     1   231
 NBasis=   231 NAE=    28 NBE=    28 NFC=     0 NFV=     0
 NROrb=    231 NOA=    28 NOB=    28 NVA=   203 NVB=   203
 Leave Link  801 at Sun May 25 04:15:55 2025, MaxMem=  3758096384 cpu:               0.0 elap:               0.0
 (Enter /apps/easybuild-2022/easybuild/software/Compiler/NVHPC/22.11-CUDA-11.7.0/Gaussian/g16c01-CUDA-11.7.0/g16/l1101.exe)
 Leave Link 1101 at Sun May 25 04:15:55 2025, MaxMem=  3758096384 cpu:               0.0 elap:               0.0
 (Enter /apps/easybuild-2022/easybuild/software/Compiler/NVHPC/22.11-CUDA-11.7.0/Gaussian/g16c01-CUDA-11.7.0/g16/l1102.exe)
 Symmetrizing basis deriv contribution to polar:
 IMax=3 JMax=2 DiffMx= 0.00D+00
 Leave Link 1102 at Sun May 25 04:15:55 2025, MaxMem=  3758096384 cpu:               0.0 elap:               0.0
 (Enter /apps/easybuild-2022/easybuild/software/Compiler/NVHPC/22.11-CUDA-11.7.0/Gaussian/g16c01-CUDA-11.7.0/g16/l1110.exe)
 Leave Link 1110 at Sun May 25 04:15:55 2025, MaxMem=  3758096384 cpu:               0.0 elap:               0.0
 (Enter /apps/easybuild-2022/easybuild/software/Compiler/NVHPC/22.11-CUDA-11.7.0/Gaussian/g16c01-CUDA-11.7.0/g16/l1002.exe)
 Minotr:  Closed shell wavefunction.
 Leave Link 1002 at Sun May 25 04:15:55 2025, MaxMem=  3758096384 cpu:               0.0 elap:               0.0
 (Enter /apps/easybuild-2022/easybuild/software/Compiler/NVHPC/22.11-CUDA-11.7.0/Gaussian/g16c01-CUDA-11.7.0/g16/l701.exe)
 ... and contract with generalized density number  0.
 Compute integral first derivatives.
   1 Symmetry operations used in ECPInt.
 ECPInt:  NShTT=    3486 NPrTT=   11183 LenC2=    3390 LenP2D=    8586.
 LDataN:  DoStor=T MaxTD1= 7 Len=  274
 Leave Link  701 at Sun May 25 04:15:55 2025, MaxMem=  3758096384 cpu:               0.4 elap:               0.1
 (Enter /apps/easybuild-2022/easybuild/software/Compiler/NVHPC/22.11-CUDA-11.7.0/Gaussian/g16c01-CUDA-11.7.0/g16/l702.exe)
 L702 exits ... SP integral derivatives will be done elsewhere.
 Leave Link  702 at Sun May 25 04:15:55 2025, MaxMem=  3758096384 cpu:               0.0 elap:               0.0
 (Enter /apps/easybuild-2022/easybuild/software/Compiler/NVHPC/22.11-CUDA-11.7.0/Gaussian/g16c01-CUDA-11.7.0/g16/l703.exe)
 Integral derivatives from FoFJK, PRISM(SPDF).
 Compute integral first derivatives, UseDBF=F ICtDFT=           0.
 Calling FoFJK, ICntrl=      2127 FMM=F ISym2X=0 I1Cent= 0 IOpClX= 0 NMat=1 NMatS=1 NMatT=0.
 FoFJK:  IHMeth= 1 ICntrl=    2127 DoSepK=F KAlg= 0 I1Cent=           0 FoldK=F
 IRaf=         0 NMat=       1 IRICut=       1 DoRegI=T DoRafI=F ISym2E= 0 IDoP0=0 IntGTp=1.
 FoFCou: FMM=F IPFlag=           0 FMFlag=      100000 FMFlg1=         800
         NFxFlg=           0 DoJE=F BraDBF=F KetDBF=F FulRan=T
         wScrn=  0.000000 ICntrl=      2127 IOpCl=  0 I1Cent=           0 NGrid=           0
         NMat0=    1 NMatS0=      1 NMatT0=    0 NMatD0=    1 NMtDS0=    0 NMtDT0=    0
 Symmetry not used in FoFCou.
 Leave Link  703 at Sun May 25 04:15:58 2025, MaxMem=  3758096384 cpu:              22.8 elap:               2.9
 (Enter /apps/easybuild-2022/easybuild/software/Compiler/NVHPC/22.11-CUDA-11.7.0/Gaussian/g16c01-CUDA-11.7.0/g16/l716.exe)
 Dipole        = 1.98240600D-01 4.73852105D-01 8.46491513D-01
 Polarizability= 0.00000000D+00 0.00000000D+00 0.00000000D+00
                 0.00000000D+00 0.00000000D+00 0.00000000D+00
 -------------------------------------------------------------------
 Center     Atomic                   Forces (Hartrees/Bohr)
 Number     Number              X              Y              Z
 -------------------------------------------------------------------
      1        6          -0.059943919    0.000628727    0.014435456
      2        8          -0.004905673    0.014565071    0.028498086
      3        6           0.010736246   -0.007516401   -0.016474800
      4        9           0.040707860   -0.002722550   -0.014038948
      5        9          -0.000556983   -0.000177633   -0.004280993
      6        9          -0.000039505   -0.003414845   -0.002459587
      7        8           0.007891990   -0.004486248   -0.010218679
      8        1           0.006109984    0.003123879    0.004539464
 -------------------------------------------------------------------
 Cartesian Forces:  Max     0.059943919 RMS     0.017614063
 Leave Link  716 at Sun May 25 04:15:58 2025, MaxMem=  3758096384 cpu:               0.0 elap:               0.0
 (Enter /apps/easybuild-2022/easybuild/software/Compiler/NVHPC/22.11-CUDA-11.7.0/Gaussian/g16c01-CUDA-11.7.0/g16/l123.exe)
 IRC-IRC-IRC-IRC-IRC-IRC-IRC-IRC-IRC-IRC-IRC-IRC-IRC-IRC-IRC-IRC-IRC-IRC
 Pt100 Step number   1 out of a maximum of  20
 Using modified Bulirsch-Stoer corrector integration.
   Using distance weighted interpolants to fit PES.
 PreDWI: IReCr0= 2 IReCr1= 1 IReCr2= 1 IReCr3= 1
 Modified Bulirsch-Stoer Extrapolation Cycles:
    EPS =    0.000010000000000
    Cycle     1 NS=    48
      PEZero:  N= 2 I= 1 D=  1.13D-04 Err=  8.37D-07
    Cycle     2 NS=    64 Truncation Error =  0.000000837
 BS completed in    2 cycles and     112 integration steps.
 Maximum DWI energy   std dev =  0.000000004 at pt    47
 Maximum DWI gradient std dev =  0.000087579 at pt    29
 SUMMARY OF CORRECTOR INTEGRATION:
   Predictor End Point Energy =  -526.798060
   Old End Point Energy       =  -526.798060
   Corrected End Point Energy =  -526.798060
   Predictor End-Start Dist.  =     0.021720
   Old End-Start Dist.        =     0.021720
   New End-Start Dist.        =     0.021720
   New End-Old End Dist.      =     0.000002
 CORRECTOR INTEGRATION CONVERGENCE:
   Recorrection delta-x convergence threshold:    0.010000
   Delta-x Convergence Met
 Point Number: 100          Path Number:   1
                    CURRENT STRUCTURE
                Cartesian Coordinates (Ang):                
 ---------------------------------------------------------------------
 Center     Atomic                     Coordinates (Angstroms)
 Number     Number                        X           Y           Z
 ---------------------------------------------------------------------
      1          6                    1.247214    0.018505   -0.242125
      2          8                    1.625032   -0.470399   -1.245892
      3          6                   -0.608663   -0.000459    0.133566
      4          9                   -1.326035    0.494037    1.213477
      5          9                   -1.138375    0.607594   -0.917051
      6          9                   -0.914211   -1.289017    0.100608
      7          8                    1.837819    0.624894    0.768921
      8          1                    1.128936    0.865580    1.378037
 ---------------------------------------------------------------------
   CHANGE IN THE REACTION COORDINATE =    0.02172
   NET REACTION COORDINATE UP TO THIS POINT =    2.17195
  # OF POINTS ALONG THE PATH = 100
  # OF STEPS =   1

 Maximum number of steps reached.
 Calculation of REVERSE path complete.
 Reaction path calculation complete.
 
 Energies reported relative to the TS energy of        -526.727395
 --------------------------------------------------------------------------
    Summary of reaction path following
 --------------------------------------------------------------------------
                        Energy    RxCoord
   1                   -0.07066  -2.17195
   2                   -0.07013  -2.15023
   3                   -0.06959  -2.12851
   4                   -0.06905  -2.10679
   5                   -0.06850  -2.08507
   6                   -0.06795  -2.06336
   7                   -0.06739  -2.04164
   8                   -0.06683  -2.01992
   9                   -0.06626  -1.99820
  10                   -0.06569  -1.97648
  11                   -0.06511  -1.95476
  12                   -0.06453  -1.93304
  13                   -0.06394  -1.91132
  14                   -0.06335  -1.88960
  15                   -0.06275  -1.86788
  16                   -0.06215  -1.84616
  17                   -0.06154  -1.82444
  18                   -0.06093  -1.80272
  19                   -0.06031  -1.78100
  20                   -0.05968  -1.75928
  21                   -0.05905  -1.73756
  22                   -0.05841  -1.71584
  23                   -0.05777  -1.69412
  24                   -0.05712  -1.67240
  25                   -0.05646  -1.65068
  26                   -0.05580  -1.62896
  27                   -0.05513  -1.60724
  28                   -0.05446  -1.58552
  29                   -0.05378  -1.56380
  30                   -0.05309  -1.54208
  31                   -0.05240  -1.52036
  32                   -0.05170  -1.49864
  33                   -0.05100  -1.47692
  34                   -0.05028  -1.45520
  35                   -0.04956  -1.43348
  36                   -0.04884  -1.41176
  37                   -0.04811  -1.39005
  38                   -0.04737  -1.36833
  39                   -0.04662  -1.34661
  40                   -0.04587  -1.32489
  41                   -0.04511  -1.30317
  42                   -0.04434  -1.28145
  43                   -0.04356  -1.25973
  44                   -0.04278  -1.23801
  45                   -0.04199  -1.21629
  46                   -0.04119  -1.19457
  47                   -0.04039  -1.17285
  48                   -0.03958  -1.15113
  49                   -0.03876  -1.12941
  50                   -0.03793  -1.10769
  51                   -0.03710  -1.08597
  52                   -0.03626  -1.06425
  53                   -0.03541  -1.04253
  54                   -0.03456  -1.02081
  55                   -0.03370  -0.99909
  56                   -0.03283  -0.97737
  57                   -0.03195  -0.95565
  58                   -0.03107  -0.93393
  59                   -0.03019  -0.91221
  60                   -0.02929  -0.89049
  61                   -0.02840  -0.86877
  62                   -0.02749  -0.84705
  63                   -0.02659  -0.82534
  64                   -0.02567  -0.80362
  65                   -0.02476  -0.78190
  66                   -0.02384  -0.76018
  67                   -0.02292  -0.73846
  68                   -0.02200  -0.71674
  69                   -0.02108  -0.69502
  70                   -0.02016  -0.67330
  71                   -0.01924  -0.65158
  72                   -0.01832  -0.62986
  73                   -0.01740  -0.60814
  74                   -0.01649  -0.58642
  75                   -0.01559  -0.56470
  76                   -0.01469  -0.54298
  77                   -0.01380  -0.52126
  78                   -0.01291  -0.49954
  79                   -0.01204  -0.47782
  80                   -0.01118  -0.45610
  81                   -0.01034  -0.43438
  82                   -0.00951  -0.41267
  83                   -0.00869  -0.39095
  84                   -0.00790  -0.36923
  85                   -0.00713  -0.34751
  86                   -0.00638  -0.32579
  87                   -0.00566  -0.30407
  88                   -0.00497  -0.28235
  89                   -0.00431  -0.26063
  90                   -0.00369  -0.23891
  91                   -0.00310  -0.21719
  92                   -0.00255  -0.19547
  93                   -0.00205  -0.17375
  94                   -0.00160  -0.15203
  95                   -0.00119  -0.13031
  96                   -0.00084  -0.10860
  97                   -0.00055  -0.08688
  98                   -0.00031  -0.06516
  99                   -0.00014  -0.04344
 100                   -0.00004  -0.02172
 101                    0.00000   0.00000
 --------------------------------------------------------------------------
 
 Total number of points:                  100
 Total number of gradient calculations:   100
 Total number of Hessian calculations:      0
 IRC-IRC-IRC-IRC-IRC-IRC-IRC-IRC-IRC-IRC-IRC-IRC-IRC-IRC-IRC-IRC-IRC-IRC
 Leave Link  123 at Sun May 25 04:15:58 2025, MaxMem=  3758096384 cpu:               0.1 elap:               0.0
 (Enter /apps/easybuild-2022/easybuild/software/Compiler/NVHPC/22.11-CUDA-11.7.0/Gaussian/g16c01-CUDA-11.7.0/g16/l202.exe)
                          Input orientation:                          
 ---------------------------------------------------------------------
 Center     Atomic      Atomic             Coordinates (Angstroms)
 Number     Number       Type             X           Y           Z
 ---------------------------------------------------------------------
      1          6           0        1.247214    0.018505   -0.242125
      2          8           0        1.625032   -0.470399   -1.245892
      3          6           0       -0.608663   -0.000459    0.133565
      4          9           0       -1.326035    0.494037    1.213477
      5          9           0       -1.138375    0.607594   -0.917051
      6          9           0       -0.914211   -1.289017    0.100608
      7          8           0        1.837819    0.624894    0.768921
      8          1           0        1.128936    0.865580    1.378038
 ---------------------------------------------------------------------
                    Distance matrix (angstroms):
                    1          2          3          4          5
     1  C    0.000000
     2  O    1.178695   0.000000
     3  C    1.893616   2.667047   0.000000
     4  F    2.994414   3.960736   1.387572   0.000000
     5  F    2.548252   2.984397   1.324431   2.141790   0.000000
     6  F    2.549282   2.988470   1.324699   2.141812   2.164027
     7  O    1.318612   2.303132   2.603847   3.197612   3.420605
     8  H    1.832063   2.985960   2.306076   2.488374   3.236463
                    6          7          8
     6  F    0.000000
     7  O    3.418094   0.000000
     8  H    3.232424   0.965126   0.000000
 Symmetry turned off by external request.
 Stoichiometry    C2HF3O2
 Rotational constants (GHZ):           3.8986505           2.0674724           1.7726221
 Leave Link  202 at Sun May 25 04:15:58 2025, MaxMem=  3758096384 cpu:               0.0 elap:               0.0
 (Enter /apps/easybuild-2022/easybuild/software/Compiler/NVHPC/22.11-CUDA-11.7.0/Gaussian/g16c01-CUDA-11.7.0/g16/l9999.exe)

 This type of calculation cannot be archived.


 Luck is a matter of preparation meeting opportunity.
                                    -- Oprah Winfrey
 Job cpu time:       0 days  1 hours 43 minutes  2.3 seconds.
 Elapsed time:       0 days  0 hours 17 minutes  7.8 seconds.
 File lengths (MBytes):  RWF=     30 Int=      0 D2E=      0 Chk=      6 Scr=      1
 Normal termination of Gaussian 16 at Sun May 25 04:15:58 2025.
done
