 Entering Gaussian System, Link 0=g16
 Initial command:
 /apps/easybuild-2022/easybuild/software/Compiler/NVHPC/22.11-CUDA-11.7.0/Gaussian/g16c01-CUDA-11.7.0/g16/l1.exe "/tmp/Gau-108385.inp" -scrdir="/tmp/"
 Entering Link 1 = /apps/easybuild-2022/easybuild/software/Compiler/NVHPC/22.11-CUDA-11.7.0/Gaussian/g16c01-CUDA-11.7.0/g16/l1.exe PID=    108388.
  
 Copyright (c) 1988-2019, Gaussian, Inc.  All Rights Reserved.
  
 This is part of the Gaussian(R) 16 program.  It is based on
 the Gaussian(R) 09 system (copyright 2009, Gaussian, Inc.),
 the Gaussian(R) 03 system (copyright 2003, Gaussian, Inc.),
 the Gaussian(R) 98 system (copyright 1998, Gaussian, Inc.),
 the Gaussian(R) 94 system (copyright 1995, Gaussian, Inc.),
 the Gaussian 92(TM) system (copyright 1992, Gaussian, Inc.),
 the Gaussian 90(TM) system (copyright 1990, Gaussian, Inc.),
 the Gaussian 88(TM) system (copyright 1988, Gaussian, Inc.),
 the Gaussian 86(TM) system (copyright 1986, Carnegie Mellon
 University), and the Gaussian 82(TM) system (copyright 1983,
 Carnegie Mellon University). Gaussian is a federally registered
 trademark of Gaussian, Inc.
  
 This software contains proprietary and confidential information,
 including trade secrets, belonging to Gaussian, Inc.
  
 This software is provided under written license and may be
 used, copied, transmitted, or stored only in accord with that
 written license.
  
 The following legend is applicable only to US Government
 contracts under FAR:
  
                    RESTRICTED RIGHTS LEGEND
  
 Use, reproduction and disclosure by the US Government is
 subject to restrictions as set forth in subparagraphs (a)
 and (c) of the Commercial Computer Software - Restricted
 Rights clause in FAR 52.227-19.
  
 Gaussian, Inc.
 340 Quinnipiac St., Bldg. 40, Wallingford CT 06492
  
  
 ---------------------------------------------------------------
 Warning -- This program may not be used in any manner that
 competes with the business of Gaussian, Inc. or will provide
 assistance to any competitor of Gaussian, Inc.  The licensee
 of this program is prohibited from giving any competitor of
 Gaussian, Inc. access to this program.  By using this program,
 the user acknowledges that Gaussian, Inc. is engaged in the
 business of creating and licensing software in the field of
 computational chemistry and represents and warrants to the
 licensee that it is not a competitor of Gaussian, Inc. and that
 it will not use this program in any manner prohibited above.
 ---------------------------------------------------------------
  

 Cite this work as:
 Gaussian 16, Revision C.01,
 M. J. Frisch, G. W. Trucks, H. B. Schlegel, G. E. Scuseria, 
 M. A. Robb, J. R. Cheeseman, G. Scalmani, V. Barone, 
 G. A. Petersson, H. Nakatsuji, X. Li, M. Caricato, A. V. Marenich, 
 J. Bloino, B. G. Janesko, R. Gomperts, B. Mennucci, H. P. Hratchian, 
 J. V. Ortiz, A. F. Izmaylov, J. L. Sonnenberg, D. Williams-Young, 
 F. Ding, F. Lipparini, F. Egidi, J. Goings, B. Peng, A. Petrone, 
 T. Henderson, D. Ranasinghe, V. G. Zakrzewski, J. Gao, N. Rega, 
 G. Zheng, W. Liang, M. Hada, M. Ehara, K. Toyota, R. Fukuda, 
 J. Hasegawa, M. Ishida, T. Nakajima, Y. Honda, O. Kitao, H. Nakai, 
 T. Vreven, K. Throssell, J. A. Montgomery, Jr., J. E. Peralta, 
 F. Ogliaro, M. J. Bearpark, J. J. Heyd, E. N. Brothers, K. N. Kudin, 
 V. N. Staroverov, T. A. Keith, R. Kobayashi, J. Normand, 
 K. Raghavachari, A. P. Rendell, J. C. Burant, S. S. Iyengar, 
 J. Tomasi, M. Cossi, J. M. Millam, M. Klene, C. Adamo, R. Cammi, 
 J. W. Ochterski, R. L. Martin, K. Morokuma, O. Farkas, 
 J. B. Foresman, and D. J. Fox, Gaussian, Inc., Wallingford CT, 2019.
 
 ******************************************
 Gaussian 16:  ES64L-G16RevC.01  3-Jul-2019
                25-May-2025 
 ******************************************
 %mem=28GB
 %chk=1141903082400600000001_r12_insertion_R_1_3_4_IRC_F
 %nprocshared=8
 Will use up to    8 processors via shared memory.
 ----------------------------------------------------------------------
 #P M062X/Def2TZVPP Symm(None) scf(xqc) pop(None) geom(AllCheck,NoKeepC
 onstants) guess(Read) irc(RCFC,forward,MaxPoints=100,StepSize=2)
 ----------------------------------------------------------------------
 1/10=5,18=10,22=1,26=3,29=20007,38=1,39=2,42=100,44=3,172=1/1,23;
 2/12=2,15=3,29=1,40=1/2;
 3/5=44,7=202,11=2,14=-4,25=1,30=1,71=2,74=-55,116=-2,140=1/1,2,3;
 4/5=1/1;
 5/5=2,8=3,13=1,38=6/2,8;
 8/6=4,10=90,11=11/1;
 11/6=1,8=1,9=11,15=111,16=1,31=1/1,2,10;
 10/6=1,13=1,31=1/2;
 7/10=1,25=1,30=1/1,2,3,16;
 1/18=10,22=1,26=3,39=2,42=100,44=3/23(2);
 2/15=3,29=1/2;
 99/5=20/99;
 2/15=3,29=1/2;
 3/5=44,7=202,11=2,14=-2,25=1,30=1,71=2,74=-55,140=1/1,2,3;
 4/5=5,16=3,69=1/1;
 5/5=2,8=3,13=1,38=5/2,8;
 8/6=4,10=90,11=11/1;
 11/6=1,8=1,9=11,15=111,16=1,31=1/1,2,10;
 10/6=1,13=1,31=1/2;
 7/10=1,25=1,30=1/1,2,3,16;
 1/18=10,22=1,26=3,39=2,42=100,44=3/23(-8);
 2/15=3,29=1/2;
 99/5=20,9=1/99;
 Leave Link    1 at Sun May 25 03:49:28 2025, MaxMem=  3758096384 cpu:               0.0 elap:               0.0
 (Enter /apps/easybuild-2022/easybuild/software/Compiler/NVHPC/22.11-CUDA-11.7.0/Gaussian/g16c01-CUDA-11.7.0/g16/l101.exe)
 Structure from the checkpoint file:  "1141903082400600000001_r12_insertion_R_1_3_4_IRC_F.chk"
 ------------------------------
 Gaussian input prepared by ASE
 ------------------------------
 Charge =  0 Multiplicity = 1
 Redundant internal coordinates found in file.  (old form).
 C,0,1.6384732224,-0.1270256803,0.238919048
 O,0,2.0678743706,-1.2024484271,0.4688904192
 C,0,0.0426808128,-0.1339085561,-0.5201408515
 F,0,0.6786283927,0.5110948574,1.2864085888
 F,0,-0.5899942167,0.8774153394,-0.9669906229
 F,0,-0.7605688595,-1.0790242715,-0.2820257078
 O,0,2.3220159105,0.9169782667,-0.2603093126
 H,0,1.9205183674,1.7411944715,0.0341624389
 Recover connectivity data from disk.
 ITRead=  0  0  0  0  0  0  0  0
 MicOpt= -1 -1 -1 -1 -1 -1 -1 -1
 NAtoms=      8 NQM=        8 NQMF=       0 NMMI=      0 NMMIF=      0
                NMic=       0 NMicF=      0.
                    Isotopes and Nuclear Properties:
 (Nuclear quadrupole moments (NQMom) in fm**2, nuclear magnetic moments (NMagM)
  in nuclear magnetons)

  Atom         1           2           3           4           5           6           7           8
 IAtWgt=          12          16          12          19          19          19          16           1
 AtmWgt=  12.0000000  15.9949146  12.0000000  18.9984032  18.9984032  18.9984032  15.9949146   1.0078250
 NucSpn=           0           0           0           1           1           1           0           1
 AtZEff=   3.6000000   5.6000000   3.6000000   6.7500000   6.7500000   6.7500000   5.6000000   1.0000000
 NQMom=    0.0000000   0.0000000   0.0000000   0.0000000   0.0000000   0.0000000   0.0000000   0.0000000
 NMagM=    0.0000000   0.0000000   0.0000000   2.6288670   2.6288670   2.6288670   0.0000000   2.7928460
 AtZNuc=   6.0000000   8.0000000   6.0000000   9.0000000   9.0000000   9.0000000   8.0000000   1.0000000
 Leave Link  101 at Sun May 25 03:49:28 2025, MaxMem=  3758096384 cpu:               0.2 elap:               0.2
 (Enter /apps/easybuild-2022/easybuild/software/Compiler/NVHPC/22.11-CUDA-11.7.0/Gaussian/g16c01-CUDA-11.7.0/g16/l123.exe)
 IRC-IRC-IRC-IRC-IRC-IRC-IRC-IRC-IRC-IRC-IRC-IRC-IRC-IRC-IRC-IRC-IRC-IRC
 ------------------------------------------------------------------------
 INPUT DATA FOR L123
 ------------------------------------------------------------------------
 GENERAL PARAMETERS:
 Rxn path following direction = Forward
 Maximum points per path      = 100
 Step size                    =   0.020 bohr
 Integration scheme           = HPC                                 
    Redo corrector integration= Yes                                 
    DWI Weight Power          =  2
    DWI will use Hessian update vectors when possible.
    Max correction cycles     =  20
 Initial Hessian              = ReadFC from chk
 Hessian evaluation           = All updating
 Hessian updating method      = Bofill                              
 ------------------------------------------------------------------------
          ******** Start new reaction path calculation ********
 RCFC Option Requested - Data Read From Chk File:
 "1141903082400600000001_r12_insertion_R_1_3_4_IRC_F.chk"
   Energy From Chk =   -526.7246872

 Current Structure is TS -> form Hessian eigenvectors.
                            Recovering Hessian eigenvectors from chk file.
 Supplied step size of   0.0200 bohr.
    Integration on MW PES will use step size of   0.0739 sqrt(amu)*bohr.
 Point Number:   0          Path Number:   1
 Calculating another point on the path.
 Point Number  1 in FORWARD path direction.
 Using LQA Reaction Path Following.
 IRC-IRC-IRC-IRC-IRC-IRC-IRC-IRC-IRC-IRC-IRC-IRC-IRC-IRC-IRC-IRC-IRC-IRC
 Leave Link  123 at Sun May 25 03:49:28 2025, MaxMem=  3758096384 cpu:               0.0 elap:               0.0
 (Enter /apps/easybuild-2022/easybuild/software/Compiler/NVHPC/22.11-CUDA-11.7.0/Gaussian/g16c01-CUDA-11.7.0/g16/l202.exe)
                          Input orientation:                          
 ---------------------------------------------------------------------
 Center     Atomic      Atomic             Coordinates (Angstroms)
 Number     Number       Type             X           Y           Z
 ---------------------------------------------------------------------
      1          6           0        0.938671   -0.128380    0.227014
      2          8           0        1.369649   -1.202318    0.461598
      3          6           0       -0.653328   -0.131981   -0.520821
      4          9           0       -0.023509    0.512584    1.280072
      5          9           0       -1.285284    0.877777   -0.972538
      6          9           0       -1.456415   -1.078447   -0.287389
      7          8           0        1.623739    0.917477   -0.266956
      8          1           0        1.221885    1.740849    0.029422
 ---------------------------------------------------------------------
                    Distance matrix (angstroms):
                    1          2          3          4          5
     1  C    0.000000
     2  O    1.180727   0.000000
     3  C    1.758900   2.490624   0.000000
     4  F    1.563827   2.356200   2.013790   0.000000
     5  F    2.719789   3.664999   1.273981   2.607622   0.000000
     6  F    2.627484   2.926254   1.263027   2.653588   2.079790
     7  O    1.344299   2.255855   2.520087   2.295792   2.993633
     8  H    1.900860   2.978396   2.706784   2.150295   2.834557
                    6          7          8
     6  F    0.000000
     7  O    3.670351   0.000000
     8  H    3.901549   0.962947   0.000000
 Symmetry turned off by external request.
 Stoichiometry    C2HF3O2
 Rotational constants (GHZ):           4.0016106           2.3316850           1.9375854
 Leave Link  202 at Sun May 25 03:49:28 2025, MaxMem=  3758096384 cpu:               0.0 elap:               0.0
 (Enter /apps/easybuild-2022/easybuild/software/Compiler/NVHPC/22.11-CUDA-11.7.0/Gaussian/g16c01-CUDA-11.7.0/g16/l301.exe)
 Standard basis: def2TZVPP (5D, 7F)
 Ernie: Thresh=  0.10000D-02 Tol=  0.10000D-05 Strict=F.
   231 basis functions,   374 primitive gaussians,   267 cartesian basis functions
    28 alpha electrons       28 beta electrons
       nuclear repulsion energy       331.6963295509 Hartrees.
 IExCor= 4336 DFT=T Ex+Corr=M062X ExCW=0 ScaHFX=  0.540000
 ScaDFX=  1.000000  1.000000  1.000000  1.000000 ScalE2=  1.000000  1.000000
 IRadAn=      5 IRanWt=     -1 IRanGd=            0 ICorTp=0 IEmpDi=  4
 NAtoms=    8 NActive=    8 NUniq=    8 SFac= 1.00D+00 NAtFMM=   60 NAOKFM=F Big=F
 Integral buffers will be    131072 words long.
 Raffenetti 2 integral format.
 Two-electron integral symmetry is turned off.
 Leave Link  301 at Sun May 25 03:49:28 2025, MaxMem=  3758096384 cpu:               0.0 elap:               0.0
 (Enter /apps/easybuild-2022/easybuild/software/Compiler/NVHPC/22.11-CUDA-11.7.0/Gaussian/g16c01-CUDA-11.7.0/g16/l302.exe)
 NPDir=0 NMtPBC=     1 NCelOv=     1 NCel=       1 NClECP=     1 NCelD=      1
         NCelK=      1 NCelE2=     1 NClLst=     1 CellRange=     0.0.
 One-electron integrals computed using PRISM.
   1 Symmetry operations used in ECPInt.
 ECPInt:  NShTT=    3486 NPrTT=   11183 LenC2=    3396 LenP2D=    8658.
 LDataN:  DoStor=T MaxTD1= 6 Len=  172
 NBasis=   231 RedAO= T EigKep=  8.54D-04  NBF=   231
 NBsUse=   231 1.00D-06 EigRej= -1.00D+00 NBFU=   231
 Precomputing XC quadrature grid using
 IXCGrd= 4 IRadAn=           5 IRanWt=          -1 IRanGd=           0 AccXCQ= 0.00D+00.
 Generated NRdTot=       0 NPtTot=           0 NUsed=           0 NTot=          32
 NSgBfM=   264   264   264   264   264 MxSgAt=     8 MxSgA2=     8.
 Leave Link  302 at Sun May 25 03:49:28 2025, MaxMem=  3758096384 cpu:               0.5 elap:               0.1
 (Enter /apps/easybuild-2022/easybuild/software/Compiler/NVHPC/22.11-CUDA-11.7.0/Gaussian/g16c01-CUDA-11.7.0/g16/l303.exe)
 DipDrv:  MaxL=1.
 Leave Link  303 at Sun May 25 03:49:28 2025, MaxMem=  3758096384 cpu:               0.1 elap:               0.0
 (Enter /apps/easybuild-2022/easybuild/software/Compiler/NVHPC/22.11-CUDA-11.7.0/Gaussian/g16c01-CUDA-11.7.0/g16/l401.exe)
 Initial guess from the checkpoint file:  "1141903082400600000001_r12_insertion_R_1_3_4_IRC_F.chk"
 B after Tr=    -1.318927    0.001018   -0.011677
         Rot=    1.000000   -0.000016   -0.000012    0.000002 Ang=  -0.00 deg.
 Guess basis will be translated and rotated to current coordinates.
 JPrj=2 DoOrth=T DoCkMO=T.
 Leave Link  401 at Sun May 25 03:49:28 2025, MaxMem=  3758096384 cpu:               0.2 elap:               0.1
 (Enter /apps/easybuild-2022/easybuild/software/Compiler/NVHPC/22.11-CUDA-11.7.0/Gaussian/g16c01-CUDA-11.7.0/g16/l502.exe)
 Keep R1 ints in memory in canonical form, NReq=368651279.
 FoFCou: FMM=F IPFlag=           0 FMFlag=           0 FMFlg1=           0
         NFxFlg=           0 DoJE=F BraDBF=F KetDBF=F FulRan=T
         wScrn=  0.000000 ICntrl=       600 IOpCl=  0 I1Cent=           0 NGrid=           0
         NMat0=    1 NMatS0=  26796 NMatT0=    0 NMatD0=    1 NMtDS0=    0 NMtDT0=    0
 Symmetry not used in FoFCou.
 Two-electron integral symmetry not used.
 Closed shell SCF:
 Using DIIS extrapolation, IDIIS=  1040.
 NGot=  3758096384 LenX=  3398923531 LenY=  3398851801
 Requested convergence on RMS density matrix=1.00D-08 within  32 cycles.
 Requested convergence on MAX density matrix=1.00D-06.
 Requested convergence on             energy=1.00D-06.
 No special actions if energy rises.

 Cycle   1  Pass 1  IDiag  1:
 E= -526.724605436130    
 DIIS: error= 2.43D-04 at cycle   1 NSaved=   1.
 NSaved= 1 IEnMin= 1 EnMin= -526.724605436130     IErMin= 1 ErrMin= 2.43D-04
 ErrMax= 2.43D-04  0.00D+00 EMaxC= 1.00D-01 BMatC= 5.71D-05 BMatP= 5.71D-05
 IDIUse=3 WtCom= 9.98D-01 WtEn= 2.43D-03
 Coeff-Com:  0.100D+01
 Coeff-En:   0.100D+01
 Coeff:      0.100D+01
 Gap=     0.304 Goal=   None    Shift=    0.000
 RMSDP=4.38D-05 MaxDP=1.81D-03              OVMax= 3.87D-03

 Cycle   2  Pass 1  IDiag  1:
 E= -526.724697213053     Delta-E=       -0.000091776923 Rises=F Damp=F
 DIIS: error= 1.09D-04 at cycle   2 NSaved=   2.
 NSaved= 2 IEnMin= 2 EnMin= -526.724697213053     IErMin= 2 ErrMin= 1.09D-04
 ErrMax= 1.09D-04  0.00D+00 EMaxC= 1.00D-01 BMatC= 3.92D-06 BMatP= 5.71D-05
 IDIUse=3 WtCom= 9.99D-01 WtEn= 1.09D-03
 Coeff-Com: -0.823D-01 0.108D+01
 Coeff-En:   0.000D+00 0.100D+01
 Coeff:     -0.822D-01 0.108D+01
 Gap=     0.301 Goal=   None    Shift=    0.000
 RMSDP=1.47D-05 MaxDP=4.48D-04 DE=-9.18D-05 OVMax= 1.41D-03

 Cycle   3  Pass 1  IDiag  1:
 E= -526.724704165556     Delta-E=       -0.000006952503 Rises=F Damp=F
 DIIS: error= 5.88D-05 at cycle   3 NSaved=   3.
 NSaved= 3 IEnMin= 3 EnMin= -526.724704165556     IErMin= 3 ErrMin= 5.88D-05
 ErrMax= 5.88D-05  0.00D+00 EMaxC= 1.00D-01 BMatC= 2.85D-06 BMatP= 3.92D-06
 IDIUse=1 WtCom= 1.00D+00 WtEn= 0.00D+00
 Coeff-Com: -0.942D-01 0.529D+00 0.565D+00
 Coeff:     -0.942D-01 0.529D+00 0.565D+00
 Gap=     0.301 Goal=   None    Shift=    0.000
 RMSDP=4.55D-06 MaxDP=1.61D-04 DE=-6.95D-06 OVMax= 4.20D-04

 Cycle   4  Pass 1  IDiag  1:
 E= -526.724706262408     Delta-E=       -0.000002096851 Rises=F Damp=F
 DIIS: error= 3.31D-05 at cycle   4 NSaved=   4.
 NSaved= 4 IEnMin= 4 EnMin= -526.724706262408     IErMin= 4 ErrMin= 3.31D-05
 ErrMax= 3.31D-05  0.00D+00 EMaxC= 1.00D-01 BMatC= 1.91D-07 BMatP= 2.85D-06
 IDIUse=1 WtCom= 1.00D+00 WtEn= 0.00D+00
 Coeff-Com: -0.213D-02-0.753D-01 0.137D+00 0.941D+00
 Coeff:     -0.213D-02-0.753D-01 0.137D+00 0.941D+00
 Gap=     0.301 Goal=   None    Shift=    0.000
 RMSDP=2.97D-06 MaxDP=9.37D-05 DE=-2.10D-06 OVMax= 3.46D-04

 Cycle   5  Pass 1  IDiag  1:
 E= -526.724706561989     Delta-E=       -0.000000299581 Rises=F Damp=F
 DIIS: error= 7.62D-06 at cycle   5 NSaved=   5.
 NSaved= 5 IEnMin= 5 EnMin= -526.724706561989     IErMin= 5 ErrMin= 7.62D-06
 ErrMax= 7.62D-06  0.00D+00 EMaxC= 1.00D-01 BMatC= 3.80D-08 BMatP= 1.91D-07
 IDIUse=1 WtCom= 1.00D+00 WtEn= 0.00D+00
 Coeff-Com:  0.745D-02-0.880D-01-0.863D-02 0.390D+00 0.699D+00
 Coeff:      0.745D-02-0.880D-01-0.863D-02 0.390D+00 0.699D+00
 Gap=     0.301 Goal=   None    Shift=    0.000
 RMSDP=9.50D-07 MaxDP=2.55D-05 DE=-3.00D-07 OVMax= 1.13D-04

 Cycle   6  Pass 1  IDiag  1:
 E= -526.724706609526     Delta-E=       -0.000000047537 Rises=F Damp=F
 DIIS: error= 2.66D-06 at cycle   6 NSaved=   6.
 NSaved= 6 IEnMin= 6 EnMin= -526.724706609526     IErMin= 6 ErrMin= 2.66D-06
 ErrMax= 2.66D-06  0.00D+00 EMaxC= 1.00D-01 BMatC= 5.19D-09 BMatP= 3.80D-08
 IDIUse=1 WtCom= 1.00D+00 WtEn= 0.00D+00
 Coeff-Com:  0.372D-02-0.188D-01-0.309D-01-0.356D-01 0.255D+00 0.826D+00
 Coeff:      0.372D-02-0.188D-01-0.309D-01-0.356D-01 0.255D+00 0.826D+00
 Gap=     0.301 Goal=   None    Shift=    0.000
 RMSDP=4.47D-07 MaxDP=1.52D-05 DE=-4.75D-08 OVMax= 4.00D-05

 Cycle   7  Pass 1  IDiag  1:
 E= -526.724706615982     Delta-E=       -0.000000006457 Rises=F Damp=F
 DIIS: error= 1.42D-06 at cycle   7 NSaved=   7.
 NSaved= 7 IEnMin= 7 EnMin= -526.724706615982     IErMin= 7 ErrMin= 1.42D-06
 ErrMax= 1.42D-06  0.00D+00 EMaxC= 1.00D-01 BMatC= 7.95D-10 BMatP= 5.19D-09
 IDIUse=1 WtCom= 1.00D+00 WtEn= 0.00D+00
 Coeff-Com:  0.670D-03 0.375D-02-0.115D-01-0.644D-01 0.360D-01 0.354D+00
 Coeff-Com:  0.682D+00
 Coeff:      0.670D-03 0.375D-02-0.115D-01-0.644D-01 0.360D-01 0.354D+00
 Coeff:      0.682D+00
 Gap=     0.301 Goal=   None    Shift=    0.000
 RMSDP=1.08D-07 MaxDP=3.69D-06 DE=-6.46D-09 OVMax= 8.67D-06

 Cycle   8  Pass 1  IDiag  1:
 E= -526.724706616686     Delta-E=       -0.000000000704 Rises=F Damp=F
 DIIS: error= 4.68D-07 at cycle   8 NSaved=   8.
 NSaved= 8 IEnMin= 8 EnMin= -526.724706616686     IErMin= 8 ErrMin= 4.68D-07
 ErrMax= 4.68D-07  0.00D+00 EMaxC= 1.00D-01 BMatC= 6.22D-11 BMatP= 7.95D-10
 IDIUse=1 WtCom= 1.00D+00 WtEn= 0.00D+00
 Coeff-Com: -0.284D-03 0.420D-02-0.558D-03-0.222D-01-0.154D-01 0.171D-01
 Coeff-Com:  0.230D+00 0.787D+00
 Coeff:     -0.284D-03 0.420D-02-0.558D-03-0.222D-01-0.154D-01 0.171D-01
 Coeff:      0.230D+00 0.787D+00
 Gap=     0.301 Goal=   None    Shift=    0.000
 RMSDP=3.65D-08 MaxDP=9.15D-07 DE=-7.04D-10 OVMax= 3.38D-06

 Cycle   9  Pass 1  IDiag  1:
 E= -526.724706616751     Delta-E=       -0.000000000065 Rises=F Damp=F
 DIIS: error= 6.84D-08 at cycle   9 NSaved=   9.
 NSaved= 9 IEnMin= 9 EnMin= -526.724706616751     IErMin= 9 ErrMin= 6.84D-08
 ErrMax= 6.84D-08  0.00D+00 EMaxC= 1.00D-01 BMatC= 3.60D-12 BMatP= 6.22D-11
 IDIUse=1 WtCom= 1.00D+00 WtEn= 0.00D+00
 Coeff-Com: -0.987D-04 0.766D-03 0.388D-03-0.187D-02-0.393D-02-0.192D-01
 Coeff-Com:  0.802D-02 0.185D+00 0.831D+00
 Coeff:     -0.987D-04 0.766D-03 0.388D-03-0.187D-02-0.393D-02-0.192D-01
 Coeff:      0.802D-02 0.185D+00 0.831D+00
 Gap=     0.301 Goal=   None    Shift=    0.000
 RMSDP=1.04D-08 MaxDP=3.89D-07 DE=-6.50D-11 OVMax= 9.89D-07

 Cycle  10  Pass 1  IDiag  1:
 E= -526.724706616758     Delta-E=       -0.000000000006 Rises=F Damp=F
 DIIS: error= 5.12D-08 at cycle  10 NSaved=  10.
 NSaved=10 IEnMin=10 EnMin= -526.724706616758     IErMin=10 ErrMin= 5.12D-08
 ErrMax= 5.12D-08  0.00D+00 EMaxC= 1.00D-01 BMatC= 1.42D-12 BMatP= 3.60D-12
 IDIUse=1 WtCom= 1.00D+00 WtEn= 0.00D+00
 Coeff-Com: -0.242D-04-0.303D-04 0.207D-03 0.111D-02 0.642D-03-0.933D-02
 Coeff-Com: -0.221D-01-0.502D-02 0.424D+00 0.611D+00
 Coeff:     -0.242D-04-0.303D-04 0.207D-03 0.111D-02 0.642D-03-0.933D-02
 Coeff:     -0.221D-01-0.502D-02 0.424D+00 0.611D+00
 Gap=     0.301 Goal=   None    Shift=    0.000
 RMSDP=4.30D-09 MaxDP=1.14D-07 DE=-6.48D-12 OVMax= 5.16D-07

 SCF Done:  E(RM062X) =  -526.724706617     A.U. after   10 cycles
            NFock= 10  Conv=0.43D-08     -V/T= 2.0037
 KE= 5.248007144355D+02 PE=-1.911108226911D+03 EE= 5.278864763075D+02
 Leave Link  502 at Sun May 25 03:49:36 2025, MaxMem=  3758096384 cpu:              44.8 elap:               7.9
 (Enter /apps/easybuild-2022/easybuild/software/Compiler/NVHPC/22.11-CUDA-11.7.0/Gaussian/g16c01-CUDA-11.7.0/g16/l508.exe)
 QCSCF skips out because SCF is already converged.
 Leave Link  508 at Sun May 25 03:49:36 2025, MaxMem=  3758096384 cpu:               0.0 elap:               0.0
 (Enter /apps/easybuild-2022/easybuild/software/Compiler/NVHPC/22.11-CUDA-11.7.0/Gaussian/g16c01-CUDA-11.7.0/g16/l801.exe)
 DoSCS=F DFT=T ScalE2(SS,OS)=  1.000000  1.000000
 Range of M.O.s used for correlation:     1   231
 NBasis=   231 NAE=    28 NBE=    28 NFC=     0 NFV=     0
 NROrb=    231 NOA=    28 NOB=    28 NVA=   203 NVB=   203

 **** Warning!!: The largest alpha MO coefficient is  0.11187792D+02

 Leave Link  801 at Sun May 25 03:49:36 2025, MaxMem=  3758096384 cpu:               0.0 elap:               0.0
 (Enter /apps/easybuild-2022/easybuild/software/Compiler/NVHPC/22.11-CUDA-11.7.0/Gaussian/g16c01-CUDA-11.7.0/g16/l1101.exe)
 Leave Link 1101 at Sun May 25 03:49:36 2025, MaxMem=  3758096384 cpu:               0.0 elap:               0.0
 (Enter /apps/easybuild-2022/easybuild/software/Compiler/NVHPC/22.11-CUDA-11.7.0/Gaussian/g16c01-CUDA-11.7.0/g16/l1102.exe)
 Symmetrizing basis deriv contribution to polar:
 IMax=3 JMax=2 DiffMx= 0.00D+00
 Leave Link 1102 at Sun May 25 03:49:36 2025, MaxMem=  3758096384 cpu:               0.1 elap:               0.0
 (Enter /apps/easybuild-2022/easybuild/software/Compiler/NVHPC/22.11-CUDA-11.7.0/Gaussian/g16c01-CUDA-11.7.0/g16/l1110.exe)
 Leave Link 1110 at Sun May 25 03:49:36 2025, MaxMem=  3758096384 cpu:               0.0 elap:               0.0
 (Enter /apps/easybuild-2022/easybuild/software/Compiler/NVHPC/22.11-CUDA-11.7.0/Gaussian/g16c01-CUDA-11.7.0/g16/l1002.exe)
 Minotr:  Closed shell wavefunction.
 Leave Link 1002 at Sun May 25 03:49:36 2025, MaxMem=  3758096384 cpu:               0.0 elap:               0.0
 (Enter /apps/easybuild-2022/easybuild/software/Compiler/NVHPC/22.11-CUDA-11.7.0/Gaussian/g16c01-CUDA-11.7.0/g16/l701.exe)
 ... and contract with generalized density number  0.
 Compute integral first derivatives.
   1 Symmetry operations used in ECPInt.
 ECPInt:  NShTT=    3486 NPrTT=   11183 LenC2=    3396 LenP2D=    8658.
 LDataN:  DoStor=T MaxTD1= 7 Len=  274
 Leave Link  701 at Sun May 25 03:49:36 2025, MaxMem=  3758096384 cpu:               0.5 elap:               0.1
 (Enter /apps/easybuild-2022/easybuild/software/Compiler/NVHPC/22.11-CUDA-11.7.0/Gaussian/g16c01-CUDA-11.7.0/g16/l702.exe)
 L702 exits ... SP integral derivatives will be done elsewhere.
 Leave Link  702 at Sun May 25 03:49:36 2025, MaxMem=  3758096384 cpu:               0.0 elap:               0.0
 (Enter /apps/easybuild-2022/easybuild/software/Compiler/NVHPC/22.11-CUDA-11.7.0/Gaussian/g16c01-CUDA-11.7.0/g16/l703.exe)
 Integral derivatives from FoFJK, PRISM(SPDF).
 Compute integral first derivatives, UseDBF=F ICtDFT=           0.
 Calling FoFJK, ICntrl=      2127 FMM=F ISym2X=0 I1Cent= 0 IOpClX= 0 NMat=1 NMatS=1 NMatT=0.
 FoFJK:  IHMeth= 1 ICntrl=    2127 DoSepK=F KAlg= 0 I1Cent=           0 FoldK=F
 IRaf=         0 NMat=       1 IRICut=       1 DoRegI=T DoRafI=F ISym2E= 0 IDoP0=0 IntGTp=1.
 FoFCou: FMM=F IPFlag=           0 FMFlag=      100000 FMFlg1=         800
         NFxFlg=           0 DoJE=F BraDBF=F KetDBF=F FulRan=T
         wScrn=  0.000000 ICntrl=      2127 IOpCl=  0 I1Cent=           0 NGrid=           0
         NMat0=    1 NMatS0=      1 NMatT0=    0 NMatD0=    1 NMtDS0=    0 NMtDT0=    0
 Symmetry not used in FoFCou.
 Leave Link  703 at Sun May 25 03:49:40 2025, MaxMem=  3758096384 cpu:              26.7 elap:               3.4
 (Enter /apps/easybuild-2022/easybuild/software/Compiler/NVHPC/22.11-CUDA-11.7.0/Gaussian/g16c01-CUDA-11.7.0/g16/l716.exe)
 Dipole        =-1.15623590D+00 9.08246371D-01-8.97601985D-01
 Polarizability= 0.00000000D+00 0.00000000D+00 0.00000000D+00
                 0.00000000D+00 0.00000000D+00 0.00000000D+00
 -------------------------------------------------------------------
 Center     Atomic                   Forces (Hartrees/Bohr)
 Number     Number              X              Y              Z
 -------------------------------------------------------------------
      1        6          -0.000262256   -0.000317557   -0.000930321
      2        8          -0.000067090   -0.000074596   -0.000239882
      3        6           0.000314036    0.000225726    0.000900607
      4        9          -0.001088785    0.000234984   -0.000042740
      5        9           0.000666914   -0.000045945    0.000170568
      6        9           0.000526981    0.000003952    0.000218110
      7        8          -0.000079898   -0.000013968   -0.000092834
      8        1          -0.000009902   -0.000012597    0.000016493
 -------------------------------------------------------------------
 Cartesian Forces:  Max     0.001088785 RMS     0.000414472
 Leave Link  716 at Sun May 25 03:49:40 2025, MaxMem=  3758096384 cpu:               0.0 elap:               0.0
 (Enter /apps/easybuild-2022/easybuild/software/Compiler/NVHPC/22.11-CUDA-11.7.0/Gaussian/g16c01-CUDA-11.7.0/g16/l123.exe)
 IRC-IRC-IRC-IRC-IRC-IRC-IRC-IRC-IRC-IRC-IRC-IRC-IRC-IRC-IRC-IRC-IRC-IRC
 Pt  1 Step number   1 out of a maximum of  20
 Using modified Bulirsch-Stoer corrector integration.
   Using distance weighted interpolants to fit PES.
 PreDWI: IReCr0= 2 IReCr1= 1 IReCr2= 1 IReCr3= 1
 Modified Bulirsch-Stoer Extrapolation Cycles:
    EPS =    0.000010000000000
    Cycle     1 NS=    48
      PEZero:  N= 2 I= 1 D=  1.93D-04 Err=  2.93D-04
    Cycle     2 NS=    64 Truncation Error =  0.000293196
      PEZero:  N= 3 I= 2 D=  1.93D-04 Err=  1.95D-04
      PEZero:  N= 3 I= 1 D=  3.85D-04 Err=  1.48D-08
    Cycle     3 NS=    96 Truncation Error =  0.000000015
 BS completed in    3 cycles and     208 integration steps.
 Maximum DWI energy   std dev =  0.000000026 at pt    55
 Maximum DWI gradient std dev =  0.013698733 at pt     2
 SUMMARY OF CORRECTOR INTEGRATION:
   Predictor End Point Energy =  -526.724707
   Old End Point Energy       =  -526.724707
   Corrected End Point Energy =  -526.724707
   Predictor End-Start Dist.  =     0.073947
   Old End-Start Dist.        =     0.073947
   New End-Start Dist.        =     0.073946
   New End-Old End Dist.      =     0.000482
 CORRECTOR INTEGRATION CONVERGENCE:
   Recorrection delta-x convergence threshold:    0.010000
   Delta-x Convergence Met
 Point Number:   1          Path Number:   1
                    CURRENT STRUCTURE
                Cartesian Coordinates (Ang):                
 ---------------------------------------------------------------------
 Center     Atomic                     Coordinates (Angstroms)
 Number     Number                        X           Y           Z
 ---------------------------------------------------------------------
      1          6                    0.938722   -0.128380    0.227004
      2          8                    1.369663   -1.202314    0.461597
      3          6                   -0.653330   -0.131978   -0.520813
      4          9                   -0.023525    0.512575    1.280059
      5          9                   -1.285303    0.877780   -0.972528
      6          9                   -1.456426   -1.078447   -0.287380
      7          8                    1.623745    0.917479   -0.266955
      8          1                    1.221837    1.740846    0.029360
 ---------------------------------------------------------------------
   CHANGE IN THE REACTION COORDINATE =    0.07395
   NET REACTION COORDINATE UP TO THIS POINT =    0.07395
  # OF POINTS ALONG THE PATH =   1
  # OF STEPS =   1

 Calculating another point on the path.
 Point Number  2 in FORWARD path direction.
 Using LQA Reaction Path Following.
   LQA: T_Est iteration completed in    3 iterations.
 IRC-IRC-IRC-IRC-IRC-IRC-IRC-IRC-IRC-IRC-IRC-IRC-IRC-IRC-IRC-IRC-IRC-IRC
 Leave Link  123 at Sun May 25 03:49:40 2025, MaxMem=  3758096384 cpu:               0.1 elap:               0.0
 (Enter /apps/easybuild-2022/easybuild/software/Compiler/NVHPC/22.11-CUDA-11.7.0/Gaussian/g16c01-CUDA-11.7.0/g16/l202.exe)
                          Input orientation:                          
 ---------------------------------------------------------------------
 Center     Atomic      Atomic             Coordinates (Angstroms)
 Number     Number       Type             X           Y           Z
 ---------------------------------------------------------------------
      1          6           0        0.936937   -0.130287    0.221280
      2          8           0        1.369411   -1.202730    0.460504
      3          6           0       -0.651410   -0.130599   -0.515291
      4          9           0       -0.027763    0.513494    1.279884
      5          9           0       -1.282693    0.877598   -0.971857
      6          9           0       -1.454360   -1.078415   -0.286527
      7          8           0        1.623426    0.917433   -0.267396
      8          1           0        1.221031    1.739946    0.030670
 ---------------------------------------------------------------------
                    Distance matrix (angstroms):
                    1          2          3          4          5
     1  C    0.000000
     2  O    1.180845   0.000000
     3  C    1.750824   2.487038   0.000000
     4  F    1.570269   2.359853   2.006601   0.000000
     5  F    2.714068   3.662387   1.274139   2.603413   0.000000
     6  F    2.622044   2.923558   1.263098   2.650094   2.079696
     7  O    1.344541   2.255982   2.516884   2.298624   2.990549
     8  H    1.901266   2.977602   2.702415   2.150397   2.831490
                    6          7          8
     6  F    0.000000
     7  O    3.668316   0.000000
     8  H    3.898909   0.962960   0.000000
 Symmetry turned off by external request.
 Stoichiometry    C2HF3O2
 Rotational constants (GHZ):           3.9991561           2.3367220           1.9416203
 Leave Link  202 at Sun May 25 03:49:40 2025, MaxMem=  3758096384 cpu:               0.0 elap:               0.0
 (Enter /apps/easybuild-2022/easybuild/software/Compiler/NVHPC/22.11-CUDA-11.7.0/Gaussian/g16c01-CUDA-11.7.0/g16/l301.exe)
 Standard basis: def2TZVPP (5D, 7F)
 Ernie: Thresh=  0.10000D-02 Tol=  0.10000D-05 Strict=F.
   231 basis functions,   374 primitive gaussians,   267 cartesian basis functions
    28 alpha electrons       28 beta electrons
       nuclear repulsion energy       331.8299914599 Hartrees.
 IExCor= 4336 DFT=T Ex+Corr=M062X ExCW=0 ScaHFX=  0.540000
 ScaDFX=  1.000000  1.000000  1.000000  1.000000 ScalE2=  1.000000  1.000000
 IRadAn=      5 IRanWt=     -1 IRanGd=            0 ICorTp=0 IEmpDi=  4
 NAtoms=    8 NActive=    8 NUniq=    8 SFac= 1.00D+00 NAtFMM=   60 NAOKFM=F Big=F
 Integral buffers will be    131072 words long.
 Raffenetti 2 integral format.
 Two-electron integral symmetry is turned off.
 Leave Link  301 at Sun May 25 03:49:40 2025, MaxMem=  3758096384 cpu:               0.0 elap:               0.0
 (Enter /apps/easybuild-2022/easybuild/software/Compiler/NVHPC/22.11-CUDA-11.7.0/Gaussian/g16c01-CUDA-11.7.0/g16/l302.exe)
 NPDir=0 NMtPBC=     1 NCelOv=     1 NCel=       1 NClECP=     1 NCelD=      1
         NCelK=      1 NCelE2=     1 NClLst=     1 CellRange=     0.0.
 One-electron integrals computed using PRISM.
   1 Symmetry operations used in ECPInt.
 ECPInt:  NShTT=    3486 NPrTT=   11183 LenC2=    3398 LenP2D=    8664.
 LDataN:  DoStor=T MaxTD1= 6 Len=  172
 NBasis=   231 RedAO= T EigKep=  8.37D-04  NBF=   231
 NBsUse=   231 1.00D-06 EigRej= -1.00D+00 NBFU=   231
 Precomputing XC quadrature grid using
 IXCGrd= 4 IRadAn=           5 IRanWt=          -1 IRanGd=           0 AccXCQ= 0.00D+00.
 Generated NRdTot=       0 NPtTot=           0 NUsed=           0 NTot=          32
 NSgBfM=   264   264   264   264   264 MxSgAt=     8 MxSgA2=     8.
 Leave Link  302 at Sun May 25 03:49:40 2025, MaxMem=  3758096384 cpu:               0.5 elap:               0.1
 (Enter /apps/easybuild-2022/easybuild/software/Compiler/NVHPC/22.11-CUDA-11.7.0/Gaussian/g16c01-CUDA-11.7.0/g16/l303.exe)
 DipDrv:  MaxL=1.
 Leave Link  303 at Sun May 25 03:49:40 2025, MaxMem=  3758096384 cpu:               0.1 elap:               0.0
 (Enter /apps/easybuild-2022/easybuild/software/Compiler/NVHPC/22.11-CUDA-11.7.0/Gaussian/g16c01-CUDA-11.7.0/g16/l401.exe)
 Initial guess from the checkpoint file:  "1141903082400600000001_r12_insertion_R_1_3_4_IRC_F.chk"
 B after Tr=    -0.000021   -0.000028   -0.000000
         Rot=    1.000000   -0.000016   -0.000018   -0.000002 Ang=  -0.00 deg.
 Guess basis will be translated and rotated to current coordinates.
 JPrj=2 DoOrth=T DoCkMO=T.
 Generating alternative initial guess.
 ExpMin= 9.52D-02 ExpMax= 3.55D+04 ExpMxC= 1.21D+03 IAcc=3 IRadAn=         5 AccDes= 0.00D+00
 Harris functional with IExCor= 1009 and IRadAn=       5 diagonalized for initial guess.
 HarFok:  IExCor= 1009 AccDes= 0.00D+00 IRadAn=         5 IDoV= 1 UseB2=F ITyADJ=14
 ICtDFT=  3500011 ScaDFX=  1.000000  1.000000  1.000000  1.000000
 FoFCou: FMM=F IPFlag=           0 FMFlag=      100000 FMFlg1=           0
         NFxFlg=           0 DoJE=T BraDBF=F KetDBF=T FulRan=T
         wScrn=  0.000000 ICntrl=       500 IOpCl=  0 I1Cent=   200000004 NGrid=           0
         NMat0=    1 NMatS0=      1 NMatT0=    0 NMatD0=    1 NMtDS0=    0 NMtDT0=    0
 Symmetry not used in FoFCou.
 Harris En= -526.474224563971    
 Leave Link  401 at Sun May 25 03:49:40 2025, MaxMem=  3758096384 cpu:               2.1 elap:               0.3
 (Enter /apps/easybuild-2022/easybuild/software/Compiler/NVHPC/22.11-CUDA-11.7.0/Gaussian/g16c01-CUDA-11.7.0/g16/l502.exe)
 Keep R1 ints in memory in canonical form, NReq=368651279.
 FoFCou: FMM=F IPFlag=           0 FMFlag=           0 FMFlg1=           0
         NFxFlg=           0 DoJE=F BraDBF=F KetDBF=F FulRan=T
         wScrn=  0.000000 ICntrl=       600 IOpCl=  0 I1Cent=           0 NGrid=           0
         NMat0=    1 NMatS0=  26796 NMatT0=    0 NMatD0=    1 NMtDS0=    0 NMtDT0=    0
 Symmetry not used in FoFCou.
 Two-electron integral symmetry not used.
 Closed shell SCF:
 Using DIIS extrapolation, IDIIS=  1040.
 NGot=  3758096384 LenX=  3398923531 LenY=  3398851801
 Requested convergence on RMS density matrix=1.00D-08 within  32 cycles.
 Requested convergence on MAX density matrix=1.00D-06.
 Requested convergence on             energy=1.00D-06.
 No special actions if energy rises.
 Integral accuracy reduced to 1.0D-05 until final iterations.

 Cycle   1  Pass 0  IDiag  1:
 E= -526.724682675770    
 DIIS: error= 2.52D-04 at cycle   1 NSaved=   1.
 NSaved= 1 IEnMin= 1 EnMin= -526.724682675770     IErMin= 1 ErrMin= 2.52D-04
 ErrMax= 2.52D-04  0.00D+00 EMaxC= 1.00D-01 BMatC= 5.78D-05 BMatP= 5.78D-05
 IDIUse=3 WtCom= 9.97D-01 WtEn= 2.52D-03
 Coeff-Com:  0.100D+01
 Coeff-En:   0.100D+01
 Coeff:      0.100D+01
 Gap=     1.042 Goal=   None    Shift=    0.000
 RMSDP=4.38D-05 MaxDP=1.82D-03              OVMax= 3.79D-03

 Cycle   2  Pass 0  IDiag  1:
 E= -526.724775255914     Delta-E=       -0.000092580144 Rises=F Damp=F
 DIIS: error= 1.10D-04 at cycle   2 NSaved=   2.
 NSaved= 2 IEnMin= 2 EnMin= -526.724775255914     IErMin= 2 ErrMin= 1.10D-04
 ErrMax= 1.10D-04  0.00D+00 EMaxC= 1.00D-01 BMatC= 4.00D-06 BMatP= 5.78D-05
 IDIUse=3 WtCom= 9.99D-01 WtEn= 1.10D-03
 Coeff-Com: -0.810D-01 0.108D+01
 Coeff-En:   0.000D+00 0.100D+01
 Coeff:     -0.809D-01 0.108D+01
 Gap=     0.301 Goal=   None    Shift=    0.000
 RMSDP=1.48D-05 MaxDP=4.35D-04 DE=-9.26D-05 OVMax= 1.41D-03

 Cycle   3  Pass 0  IDiag  1:
 E= -526.724782317846     Delta-E=       -0.000007061932 Rises=F Damp=F
 DIIS: error= 6.03D-05 at cycle   3 NSaved=   3.
 NSaved= 3 IEnMin= 3 EnMin= -526.724782317846     IErMin= 3 ErrMin= 6.03D-05
 ErrMax= 6.03D-05  0.00D+00 EMaxC= 1.00D-01 BMatC= 2.96D-06 BMatP= 4.00D-06
 IDIUse=1 WtCom= 1.00D+00 WtEn= 0.00D+00
 Coeff-Com: -0.942D-01 0.531D+00 0.563D+00
 Coeff:     -0.942D-01 0.531D+00 0.563D+00
 Gap=     0.301 Goal=   None    Shift=    0.000
 RMSDP=4.63D-06 MaxDP=1.58D-04 DE=-7.06D-06 OVMax= 4.36D-04

 Initial convergence to 1.0D-05 achieved.  Increase integral accuracy.
 Cycle   4  Pass 1  IDiag  1:
 E= -526.724765138499     Delta-E=        0.000017179348 Rises=F Damp=F
 DIIS: error= 3.18D-05 at cycle   1 NSaved=   1.
 NSaved= 1 IEnMin= 1 EnMin= -526.724765138499     IErMin= 1 ErrMin= 3.18D-05
 ErrMax= 3.18D-05  0.00D+00 EMaxC= 1.00D-01 BMatC= 5.23D-07 BMatP= 5.23D-07
 IDIUse=1 WtCom= 1.00D+00 WtEn= 0.00D+00
 Coeff-Com:  0.100D+01
 Coeff:      0.100D+01
 Gap=     0.301 Goal=   None    Shift=    0.000
 RMSDP=4.63D-06 MaxDP=1.58D-04 DE= 1.72D-05 OVMax= 3.91D-04

 Cycle   5  Pass 1  IDiag  1:
 E= -526.724765512816     Delta-E=       -0.000000374317 Rises=F Damp=F
 DIIS: error= 2.15D-05 at cycle   2 NSaved=   2.
 NSaved= 2 IEnMin= 2 EnMin= -526.724765512816     IErMin= 2 ErrMin= 2.15D-05
 ErrMax= 2.15D-05  0.00D+00 EMaxC= 1.00D-01 BMatC= 2.97D-07 BMatP= 5.23D-07
 IDIUse=1 WtCom= 1.00D+00 WtEn= 0.00D+00
 Coeff-Com:  0.399D+00 0.601D+00
 Coeff:      0.399D+00 0.601D+00
 Gap=     0.301 Goal=   None    Shift=    0.000
 RMSDP=1.58D-06 MaxDP=6.65D-05 DE=-3.74D-07 OVMax= 1.55D-04

 Cycle   6  Pass 1  IDiag  1:
 E= -526.724765682846     Delta-E=       -0.000000170030 Rises=F Damp=F
 DIIS: error= 1.47D-05 at cycle   3 NSaved=   3.
 NSaved= 3 IEnMin= 3 EnMin= -526.724765682846     IErMin= 3 ErrMin= 1.47D-05
 ErrMax= 1.47D-05  0.00D+00 EMaxC= 1.00D-01 BMatC= 6.12D-08 BMatP= 2.97D-07
 IDIUse=1 WtCom= 1.00D+00 WtEn= 0.00D+00
 Coeff-Com: -0.605D-01 0.293D+00 0.767D+00
 Coeff:     -0.605D-01 0.293D+00 0.767D+00
 Gap=     0.301 Goal=   None    Shift=    0.000
 RMSDP=8.86D-07 MaxDP=2.30D-05 DE=-1.70D-07 OVMax= 9.24D-05

 Cycle   7  Pass 1  IDiag  1:
 E= -526.724765734893     Delta-E=       -0.000000052047 Rises=F Damp=F
 DIIS: error= 1.75D-06 at cycle   4 NSaved=   4.
 NSaved= 4 IEnMin= 4 EnMin= -526.724765734893     IErMin= 4 ErrMin= 1.75D-06
 ErrMax= 1.75D-06  0.00D+00 EMaxC= 1.00D-01 BMatC= 1.60D-09 BMatP= 6.12D-08
 IDIUse=1 WtCom= 1.00D+00 WtEn= 0.00D+00
 Coeff-Com: -0.214D-01 0.630D-02 0.669D-01 0.948D+00
 Coeff:     -0.214D-01 0.630D-02 0.669D-01 0.948D+00
 Gap=     0.301 Goal=   None    Shift=    0.000
 RMSDP=2.94D-07 MaxDP=7.35D-06 DE=-5.20D-08 OVMax= 3.00D-05

 Cycle   8  Pass 1  IDiag  1:
 E= -526.724765738205     Delta-E=       -0.000000003313 Rises=F Damp=F
 DIIS: error= 1.17D-06 at cycle   5 NSaved=   5.
 NSaved= 5 IEnMin= 5 EnMin= -526.724765738205     IErMin= 5 ErrMin= 1.17D-06
 ErrMax= 1.17D-06  0.00D+00 EMaxC= 1.00D-01 BMatC= 1.13D-09 BMatP= 1.60D-09
 IDIUse=1 WtCom= 1.00D+00 WtEn= 0.00D+00
 Coeff-Com:  0.675D-02-0.860D-01-0.198D+00 0.555D+00 0.722D+00
 Coeff:      0.675D-02-0.860D-01-0.198D+00 0.555D+00 0.722D+00
 Gap=     0.301 Goal=   None    Shift=    0.000
 RMSDP=1.77D-07 MaxDP=6.08D-06 DE=-3.31D-09 OVMax= 1.55D-05

 Cycle   9  Pass 1  IDiag  1:
 E= -526.724765739418     Delta-E=       -0.000000001213 Rises=F Damp=F
 DIIS: error= 1.72D-07 at cycle   6 NSaved=   6.
 NSaved= 6 IEnMin= 6 EnMin= -526.724765739418     IErMin= 6 ErrMin= 1.72D-07
 ErrMax= 1.72D-07  0.00D+00 EMaxC= 1.00D-01 BMatC= 1.77D-11 BMatP= 1.13D-09
 IDIUse=1 WtCom= 1.00D+00 WtEn= 0.00D+00
 Coeff-Com:  0.237D-02-0.172D-01-0.422D-01 0.464D-01 0.139D+00 0.871D+00
 Coeff:      0.237D-02-0.172D-01-0.422D-01 0.464D-01 0.139D+00 0.871D+00
 Gap=     0.301 Goal=   None    Shift=    0.000
 RMSDP=3.06D-08 MaxDP=6.73D-07 DE=-1.21D-09 OVMax= 3.38D-06

 Cycle  10  Pass 1  IDiag  1:
 E= -526.724765739450     Delta-E=       -0.000000000032 Rises=F Damp=F
 DIIS: error= 7.81D-08 at cycle   7 NSaved=   7.
 NSaved= 7 IEnMin= 7 EnMin= -526.724765739450     IErMin= 7 ErrMin= 7.81D-08
 ErrMax= 7.81D-08  0.00D+00 EMaxC= 1.00D-01 BMatC= 3.75D-12 BMatP= 1.77D-11
 IDIUse=1 WtCom= 1.00D+00 WtEn= 0.00D+00
 Coeff-Com:  0.153D-03 0.285D-02 0.445D-02-0.357D-01-0.212D-01 0.318D+00
 Coeff-Com:  0.732D+00
 Coeff:      0.153D-03 0.285D-02 0.445D-02-0.357D-01-0.212D-01 0.318D+00
 Coeff:      0.732D+00
 Gap=     0.301 Goal=   None    Shift=    0.000
 RMSDP=8.48D-09 MaxDP=2.91D-07 DE=-3.16D-11 OVMax= 5.75D-07

 SCF Done:  E(RM062X) =  -526.724765739     A.U. after   10 cycles
            NFock= 10  Conv=0.85D-08     -V/T= 2.0037
 KE= 5.247945704957D+02 PE=-1.911362464421D+03 EE= 5.280131367259D+02
 Leave Link  502 at Sun May 25 03:49:47 2025, MaxMem=  3758096384 cpu:              38.6 elap:               7.0
 (Enter /apps/easybuild-2022/easybuild/software/Compiler/NVHPC/22.11-CUDA-11.7.0/Gaussian/g16c01-CUDA-11.7.0/g16/l508.exe)
 QCSCF skips out because SCF is already converged.
 Leave Link  508 at Sun May 25 03:49:47 2025, MaxMem=  3758096384 cpu:               0.0 elap:               0.0
 (Enter /apps/easybuild-2022/easybuild/software/Compiler/NVHPC/22.11-CUDA-11.7.0/Gaussian/g16c01-CUDA-11.7.0/g16/l801.exe)
 DoSCS=F DFT=T ScalE2(SS,OS)=  1.000000  1.000000
 Range of M.O.s used for correlation:     1   231
 NBasis=   231 NAE=    28 NBE=    28 NFC=     0 NFV=     0
 NROrb=    231 NOA=    28 NOB=    28 NVA=   203 NVB=   203

 **** Warning!!: The largest alpha MO coefficient is  0.11345457D+02

 Leave Link  801 at Sun May 25 03:49:47 2025, MaxMem=  3758096384 cpu:               0.0 elap:               0.0
 (Enter /apps/easybuild-2022/easybuild/software/Compiler/NVHPC/22.11-CUDA-11.7.0/Gaussian/g16c01-CUDA-11.7.0/g16/l1101.exe)
 Leave Link 1101 at Sun May 25 03:49:48 2025, MaxMem=  3758096384 cpu:               0.0 elap:               0.0
 (Enter /apps/easybuild-2022/easybuild/software/Compiler/NVHPC/22.11-CUDA-11.7.0/Gaussian/g16c01-CUDA-11.7.0/g16/l1102.exe)
 Symmetrizing basis deriv contribution to polar:
 IMax=3 JMax=2 DiffMx= 0.00D+00
 Leave Link 1102 at Sun May 25 03:49:48 2025, MaxMem=  3758096384 cpu:               0.0 elap:               0.0
 (Enter /apps/easybuild-2022/easybuild/software/Compiler/NVHPC/22.11-CUDA-11.7.0/Gaussian/g16c01-CUDA-11.7.0/g16/l1110.exe)
 Leave Link 1110 at Sun May 25 03:49:48 2025, MaxMem=  3758096384 cpu:               0.0 elap:               0.0
 (Enter /apps/easybuild-2022/easybuild/software/Compiler/NVHPC/22.11-CUDA-11.7.0/Gaussian/g16c01-CUDA-11.7.0/g16/l1002.exe)
 Minotr:  Closed shell wavefunction.
 Leave Link 1002 at Sun May 25 03:49:48 2025, MaxMem=  3758096384 cpu:               0.0 elap:               0.0
 (Enter /apps/easybuild-2022/easybuild/software/Compiler/NVHPC/22.11-CUDA-11.7.0/Gaussian/g16c01-CUDA-11.7.0/g16/l701.exe)
 ... and contract with generalized density number  0.
 Compute integral first derivatives.
   1 Symmetry operations used in ECPInt.
 ECPInt:  NShTT=    3486 NPrTT=   11183 LenC2=    3398 LenP2D=    8664.
 LDataN:  DoStor=T MaxTD1= 7 Len=  274
 Leave Link  701 at Sun May 25 03:49:48 2025, MaxMem=  3758096384 cpu:               0.4 elap:               0.1
 (Enter /apps/easybuild-2022/easybuild/software/Compiler/NVHPC/22.11-CUDA-11.7.0/Gaussian/g16c01-CUDA-11.7.0/g16/l702.exe)
 L702 exits ... SP integral derivatives will be done elsewhere.
 Leave Link  702 at Sun May 25 03:49:48 2025, MaxMem=  3758096384 cpu:               0.0 elap:               0.0
 (Enter /apps/easybuild-2022/easybuild/software/Compiler/NVHPC/22.11-CUDA-11.7.0/Gaussian/g16c01-CUDA-11.7.0/g16/l703.exe)
 Integral derivatives from FoFJK, PRISM(SPDF).
 Compute integral first derivatives, UseDBF=F ICtDFT=           0.
 Calling FoFJK, ICntrl=      2127 FMM=F ISym2X=0 I1Cent= 0 IOpClX= 0 NMat=1 NMatS=1 NMatT=0.
 FoFJK:  IHMeth= 1 ICntrl=    2127 DoSepK=F KAlg= 0 I1Cent=           0 FoldK=F
 IRaf=         0 NMat=       1 IRICut=       1 DoRegI=T DoRafI=F ISym2E= 0 IDoP0=0 IntGTp=1.
 FoFCou: FMM=F IPFlag=           0 FMFlag=      100000 FMFlg1=         800
         NFxFlg=           0 DoJE=F BraDBF=F KetDBF=F FulRan=T
         wScrn=  0.000000 ICntrl=      2127 IOpCl=  0 I1Cent=           0 NGrid=           0
         NMat0=    1 NMatS0=      1 NMatT0=    0 NMatD0=    1 NMtDS0=    0 NMtDT0=    0
 Symmetry not used in FoFCou.
 Leave Link  703 at Sun May 25 03:49:51 2025, MaxMem=  3758096384 cpu:              26.7 elap:               3.4
 (Enter /apps/easybuild-2022/easybuild/software/Compiler/NVHPC/22.11-CUDA-11.7.0/Gaussian/g16c01-CUDA-11.7.0/g16/l716.exe)
 Dipole        =-1.15912012D+00 9.03513642D-01-9.06446662D-01
 Polarizability= 0.00000000D+00 0.00000000D+00 0.00000000D+00
                 0.00000000D+00 0.00000000D+00 0.00000000D+00
 -------------------------------------------------------------------
 Center     Atomic                   Forces (Hartrees/Bohr)
 Number     Number              X              Y              Z
 -------------------------------------------------------------------
      1        6          -0.000505259   -0.000648862   -0.001889293
      2        8          -0.000128472   -0.000148611   -0.000477929
      3        6           0.000635245    0.000460849    0.001828508
      4        9          -0.002236794    0.000471058   -0.000106907
      5        9           0.001344471   -0.000088583    0.000346250
      6        9           0.001058361    0.000014493    0.000445011
      7        8          -0.000148598   -0.000032491   -0.000178708
      8        1          -0.000018955   -0.000027853    0.000033068
 -------------------------------------------------------------------
 Cartesian Forces:  Max     0.002236794 RMS     0.000842112
 Leave Link  716 at Sun May 25 03:49:51 2025, MaxMem=  3758096384 cpu:               0.0 elap:               0.0
 (Enter /apps/easybuild-2022/easybuild/software/Compiler/NVHPC/22.11-CUDA-11.7.0/Gaussian/g16c01-CUDA-11.7.0/g16/l123.exe)
 IRC-IRC-IRC-IRC-IRC-IRC-IRC-IRC-IRC-IRC-IRC-IRC-IRC-IRC-IRC-IRC-IRC-IRC
 Pt  2 Step number   1 out of a maximum of  20
 Using modified Bulirsch-Stoer corrector integration.
   Using distance weighted interpolants to fit PES.
 PreDWI: IReCr0= 2 IReCr1= 1 IReCr2= 1 IReCr3= 1
 Modified Bulirsch-Stoer Extrapolation Cycles:
    EPS =    0.000010000000000
    Cycle     1 NS=    48
      PEZero:  N= 2 I= 1 D=  3.85D-04 Err=  3.24D-06
    Cycle     2 NS=    64 Truncation Error =  0.000003240
 BS completed in    2 cycles and     112 integration steps.
 Maximum DWI energy   std dev =  0.000000075 at pt    47
 Maximum DWI gradient std dev =  0.009724478 at pt    36
 SUMMARY OF CORRECTOR INTEGRATION:
   Predictor End Point Energy =  -526.724766
   Old End Point Energy       =  -526.724766
   Corrected End Point Energy =  -526.724766
   Predictor End-Start Dist.  =     0.073922
   Old End-Start Dist.        =     0.073922
   New End-Start Dist.        =     0.073921
   New End-Old End Dist.      =     0.000515
 CORRECTOR INTEGRATION CONVERGENCE:
   Recorrection delta-x convergence threshold:    0.010000
   Delta-x Convergence Met
 Point Number:   2          Path Number:   1
                    CURRENT STRUCTURE
                Cartesian Coordinates (Ang):                
 ---------------------------------------------------------------------
 Center     Atomic                     Coordinates (Angstroms)
 Number     Number                        X           Y           Z
 ---------------------------------------------------------------------
      1          6                    0.937002   -0.130290    0.221273
      2          8                    1.369414   -1.202723    0.460508
      3          6                   -0.651410   -0.130594   -0.515283
      4          9                   -0.027783    0.513488    1.279872
      5          9                   -1.282708    0.877601   -0.971855
      6          9                   -1.454372   -1.078415   -0.286524
      7          8                    1.623431    0.917429   -0.267390
      8          1                    1.221025    1.739939    0.030656
 ---------------------------------------------------------------------
   CHANGE IN THE REACTION COORDINATE =    0.07392
   NET REACTION COORDINATE UP TO THIS POINT =    0.14787
  # OF POINTS ALONG THE PATH =   2
  # OF STEPS =   1

 Calculating another point on the path.
 Point Number  3 in FORWARD path direction.
 Using LQA Reaction Path Following.
   LQA: T_Est iteration completed in    3 iterations.
 IRC-IRC-IRC-IRC-IRC-IRC-IRC-IRC-IRC-IRC-IRC-IRC-IRC-IRC-IRC-IRC-IRC-IRC
 Leave Link  123 at Sun May 25 03:49:51 2025, MaxMem=  3758096384 cpu:               0.1 elap:               0.0
 (Enter /apps/easybuild-2022/easybuild/software/Compiler/NVHPC/22.11-CUDA-11.7.0/Gaussian/g16c01-CUDA-11.7.0/g16/l202.exe)
                          Input orientation:                          
 ---------------------------------------------------------------------
 Center     Atomic      Atomic             Coordinates (Angstroms)
 Number     Number       Type             X           Y           Z
 ---------------------------------------------------------------------
      1          6           0        0.935343   -0.132204    0.215538
      2          8           0        1.369182   -1.203139    0.459437
      3          6           0       -0.649493   -0.129204   -0.509754
      4          9           0       -0.032079    0.514393    1.279657
      5          9           0       -1.280130    0.877431   -0.971182
      6          9           0       -1.452338   -1.078374   -0.285664
      7          8           0        1.623146    0.917374   -0.267811
      8          1           0        1.220197    1.739016    0.031935
 ---------------------------------------------------------------------
                    Distance matrix (angstroms):
                    1          2          3          4          5
     1  C    0.000000
     2  O    1.180933   0.000000
     3  C    1.742918   2.483489   0.000000
     4  F    1.576814   2.363516   1.999352   0.000000
     5  F    2.708503   3.659822   1.274336   2.599174   0.000000
     6  F    2.616765   2.920910   1.263210   2.646559   2.079607
     7  O    1.344735   2.256094   2.513712   2.301482   2.987530
     8  H    1.901661   2.976781   2.698039   2.150513   2.828464
                    6          7          8
     6  F    0.000000
     7  O    3.666323   0.000000
     8  H    3.896280   0.962970   0.000000
 Symmetry turned off by external request.
 Stoichiometry    C2HF3O2
 Rotational constants (GHZ):           3.9967462           2.3416792           1.9455976
 Leave Link  202 at Sun May 25 03:49:51 2025, MaxMem=  3758096384 cpu:               0.0 elap:               0.0
 (Enter /apps/easybuild-2022/easybuild/software/Compiler/NVHPC/22.11-CUDA-11.7.0/Gaussian/g16c01-CUDA-11.7.0/g16/l301.exe)
 Standard basis: def2TZVPP (5D, 7F)
 Ernie: Thresh=  0.10000D-02 Tol=  0.10000D-05 Strict=F.
   231 basis functions,   374 primitive gaussians,   267 cartesian basis functions
    28 alpha electrons       28 beta electrons
       nuclear repulsion energy       331.9616101970 Hartrees.
 IExCor= 4336 DFT=T Ex+Corr=M062X ExCW=0 ScaHFX=  0.540000
 ScaDFX=  1.000000  1.000000  1.000000  1.000000 ScalE2=  1.000000  1.000000
 IRadAn=      5 IRanWt=     -1 IRanGd=            0 ICorTp=0 IEmpDi=  4
 NAtoms=    8 NActive=    8 NUniq=    8 SFac= 1.00D+00 NAtFMM=   60 NAOKFM=F Big=F
 Integral buffers will be    131072 words long.
 Raffenetti 2 integral format.
 Two-electron integral symmetry is turned off.
 Leave Link  301 at Sun May 25 03:49:51 2025, MaxMem=  3758096384 cpu:               0.1 elap:               0.0
 (Enter /apps/easybuild-2022/easybuild/software/Compiler/NVHPC/22.11-CUDA-11.7.0/Gaussian/g16c01-CUDA-11.7.0/g16/l302.exe)
 NPDir=0 NMtPBC=     1 NCelOv=     1 NCel=       1 NClECP=     1 NCelD=      1
         NCelK=      1 NCelE2=     1 NClLst=     1 CellRange=     0.0.
 One-electron integrals computed using PRISM.
   1 Symmetry operations used in ECPInt.
 ECPInt:  NShTT=    3486 NPrTT=   11183 LenC2=    3398 LenP2D=    8667.
 LDataN:  DoStor=T MaxTD1= 6 Len=  172
 NBasis=   231 RedAO= T EigKep=  8.19D-04  NBF=   231
 NBsUse=   231 1.00D-06 EigRej= -1.00D+00 NBFU=   231
 Precomputing XC quadrature grid using
 IXCGrd= 4 IRadAn=           5 IRanWt=          -1 IRanGd=           0 AccXCQ= 0.00D+00.
 Generated NRdTot=       0 NPtTot=           0 NUsed=           0 NTot=          32
 NSgBfM=   264   264   264   264   264 MxSgAt=     8 MxSgA2=     8.
 Leave Link  302 at Sun May 25 03:49:51 2025, MaxMem=  3758096384 cpu:               0.5 elap:               0.1
 (Enter /apps/easybuild-2022/easybuild/software/Compiler/NVHPC/22.11-CUDA-11.7.0/Gaussian/g16c01-CUDA-11.7.0/g16/l303.exe)
 DipDrv:  MaxL=1.
 Leave Link  303 at Sun May 25 03:49:51 2025, MaxMem=  3758096384 cpu:               0.1 elap:               0.0
 (Enter /apps/easybuild-2022/easybuild/software/Compiler/NVHPC/22.11-CUDA-11.7.0/Gaussian/g16c01-CUDA-11.7.0/g16/l401.exe)
 Initial guess from the checkpoint file:  "1141903082400600000001_r12_insertion_R_1_3_4_IRC_F.chk"
 B after Tr=    -0.000019   -0.000029    0.000000
         Rot=    1.000000   -0.000015   -0.000014    0.000000 Ang=  -0.00 deg.
 Guess basis will be translated and rotated to current coordinates.
 JPrj=2 DoOrth=T DoCkMO=T.
 Generating alternative initial guess.
 ExpMin= 9.52D-02 ExpMax= 3.55D+04 ExpMxC= 1.21D+03 IAcc=3 IRadAn=         5 AccDes= 0.00D+00
 Harris functional with IExCor= 1009 and IRadAn=       5 diagonalized for initial guess.
 HarFok:  IExCor= 1009 AccDes= 0.00D+00 IRadAn=         5 IDoV= 1 UseB2=F ITyADJ=14
 ICtDFT=  3500011 ScaDFX=  1.000000  1.000000  1.000000  1.000000
 FoFCou: FMM=F IPFlag=           0 FMFlag=      100000 FMFlg1=           0
         NFxFlg=           0 DoJE=T BraDBF=F KetDBF=T FulRan=T
         wScrn=  0.000000 ICntrl=       500 IOpCl=  0 I1Cent=   200000004 NGrid=           0
         NMat0=    1 NMatS0=      1 NMatT0=    0 NMatD0=    1 NMtDS0=    0 NMtDT0=    0
 Symmetry not used in FoFCou.
 Harris En= -526.475027781154    
 Leave Link  401 at Sun May 25 03:49:52 2025, MaxMem=  3758096384 cpu:               2.2 elap:               0.3
 (Enter /apps/easybuild-2022/easybuild/software/Compiler/NVHPC/22.11-CUDA-11.7.0/Gaussian/g16c01-CUDA-11.7.0/g16/l502.exe)
 Keep R1 ints in memory in canonical form, NReq=368651279.
 FoFCou: FMM=F IPFlag=           0 FMFlag=           0 FMFlg1=           0
         NFxFlg=           0 DoJE=F BraDBF=F KetDBF=F FulRan=T
         wScrn=  0.000000 ICntrl=       600 IOpCl=  0 I1Cent=           0 NGrid=           0
         NMat0=    1 NMatS0=  26796 NMatT0=    0 NMatD0=    1 NMtDS0=    0 NMtDT0=    0
 Symmetry not used in FoFCou.
 Two-electron integral symmetry not used.
 Closed shell SCF:
 Using DIIS extrapolation, IDIIS=  1040.
 NGot=  3758096384 LenX=  3398923531 LenY=  3398851801
 Requested convergence on RMS density matrix=1.00D-08 within  32 cycles.
 Requested convergence on MAX density matrix=1.00D-06.
 Requested convergence on             energy=1.00D-06.
 No special actions if energy rises.
 Integral accuracy reduced to 1.0D-05 until final iterations.

 Cycle   1  Pass 0  IDiag  1:
 E= -526.724784246390    
 DIIS: error= 2.55D-04 at cycle   1 NSaved=   1.
 NSaved= 1 IEnMin= 1 EnMin= -526.724784246390     IErMin= 1 ErrMin= 2.55D-04
 ErrMax= 2.55D-04  0.00D+00 EMaxC= 1.00D-01 BMatC= 5.81D-05 BMatP= 5.81D-05
 IDIUse=3 WtCom= 9.97D-01 WtEn= 2.55D-03
 Coeff-Com:  0.100D+01
 Coeff-En:   0.100D+01
 Coeff:      0.100D+01
 Gap=     1.043 Goal=   None    Shift=    0.000
 RMSDP=4.41D-05 MaxDP=1.80D-03              OVMax= 3.76D-03

 Cycle   2  Pass 0  IDiag  1:
 E= -526.724877531651     Delta-E=       -0.000093285262 Rises=F Damp=F
 DIIS: error= 1.16D-04 at cycle   2 NSaved=   2.
 NSaved= 2 IEnMin= 2 EnMin= -526.724877531651     IErMin= 2 ErrMin= 1.16D-04
 ErrMax= 1.16D-04  0.00D+00 EMaxC= 1.00D-01 BMatC= 4.04D-06 BMatP= 5.81D-05
 IDIUse=3 WtCom= 9.99D-01 WtEn= 1.16D-03
 Coeff-Com: -0.811D-01 0.108D+01
 Coeff-En:   0.000D+00 0.100D+01
 Coeff:     -0.810D-01 0.108D+01
 Gap=     0.301 Goal=   None    Shift=    0.000
 RMSDP=1.49D-05 MaxDP=4.27D-04 DE=-9.33D-05 OVMax= 1.42D-03

 Cycle   3  Pass 0  IDiag  1:
 E= -526.724884745504     Delta-E=       -0.000007213853 Rises=F Damp=F
 DIIS: error= 6.04D-05 at cycle   3 NSaved=   3.
 NSaved= 3 IEnMin= 3 EnMin= -526.724884745504     IErMin= 3 ErrMin= 6.04D-05
 ErrMax= 6.04D-05  0.00D+00 EMaxC= 1.00D-01 BMatC= 2.97D-06 BMatP= 4.04D-06
 IDIUse=1 WtCom= 1.00D+00 WtEn= 0.00D+00
 Coeff-Com: -0.941D-01 0.530D+00 0.564D+00
 Coeff:     -0.941D-01 0.530D+00 0.564D+00
 Gap=     0.301 Goal=   None    Shift=    0.000
 RMSDP=4.68D-06 MaxDP=1.57D-04 DE=-7.21D-06 OVMax= 4.44D-04

 Initial convergence to 1.0D-05 achieved.  Increase integral accuracy.
 Cycle   4  Pass 1  IDiag  1:
 E= -526.724865154906     Delta-E=        0.000019590599 Rises=F Damp=F
 DIIS: error= 3.24D-05 at cycle   1 NSaved=   1.
 NSaved= 1 IEnMin= 1 EnMin= -526.724865154906     IErMin= 1 ErrMin= 3.24D-05
 ErrMax= 3.24D-05  0.00D+00 EMaxC= 1.00D-01 BMatC= 5.29D-07 BMatP= 5.29D-07
 IDIUse=1 WtCom= 1.00D+00 WtEn= 0.00D+00
 Coeff-Com:  0.100D+01
 Coeff:      0.100D+01
 Gap=     0.301 Goal=   None    Shift=    0.000
 RMSDP=4.68D-06 MaxDP=1.57D-04 DE= 1.96D-05 OVMax= 3.83D-04

 Cycle   5  Pass 1  IDiag  1:
 E= -526.724865537294     Delta-E=       -0.000000382388 Rises=F Damp=F
 DIIS: error= 2.08D-05 at cycle   2 NSaved=   2.
 NSaved= 2 IEnMin= 2 EnMin= -526.724865537294     IErMin= 2 ErrMin= 2.08D-05
 ErrMax= 2.08D-05  0.00D+00 EMaxC= 1.00D-01 BMatC= 3.01D-07 BMatP= 5.29D-07
 IDIUse=1 WtCom= 1.00D+00 WtEn= 0.00D+00
 Coeff-Com:  0.400D+00 0.600D+00
 Coeff:      0.400D+00 0.600D+00
 Gap=     0.301 Goal=   None    Shift=    0.000
 RMSDP=1.58D-06 MaxDP=6.69D-05 DE=-3.82D-07 OVMax= 1.58D-04

 Cycle   6  Pass 1  IDiag  1:
 E= -526.724865710805     Delta-E=       -0.000000173511 Rises=F Damp=F
 DIIS: error= 1.45D-05 at cycle   3 NSaved=   3.
 NSaved= 3 IEnMin= 3 EnMin= -526.724865710805     IErMin= 3 ErrMin= 1.45D-05
 ErrMax= 1.45D-05  0.00D+00 EMaxC= 1.00D-01 BMatC= 6.27D-08 BMatP= 3.01D-07
 IDIUse=1 WtCom= 1.00D+00 WtEn= 0.00D+00
 Coeff-Com: -0.635D-01 0.294D+00 0.770D+00
 Coeff:     -0.635D-01 0.294D+00 0.770D+00
 Gap=     0.301 Goal=   None    Shift=    0.000
 RMSDP=9.05D-07 MaxDP=2.21D-05 DE=-1.74D-07 OVMax= 9.30D-05

 Cycle   7  Pass 1  IDiag  1:
 E= -526.724865764770     Delta-E=       -0.000000053966 Rises=F Damp=F
 DIIS: error= 1.85D-06 at cycle   4 NSaved=   4.
 NSaved= 4 IEnMin= 4 EnMin= -526.724865764770     IErMin= 4 ErrMin= 1.85D-06
 ErrMax= 1.85D-06  0.00D+00 EMaxC= 1.00D-01 BMatC= 1.69D-09 BMatP= 6.27D-08
 IDIUse=1 WtCom= 1.00D+00 WtEn= 0.00D+00
 Coeff-Com: -0.222D-01 0.503D-02 0.628D-01 0.954D+00
 Coeff:     -0.222D-01 0.503D-02 0.628D-01 0.954D+00
 Gap=     0.301 Goal=   None    Shift=    0.000
 RMSDP=3.04D-07 MaxDP=7.16D-06 DE=-5.40D-08 OVMax= 3.21D-05

 Cycle   8  Pass 1  IDiag  1:
 E= -526.724865768304     Delta-E=       -0.000000003534 Rises=F Damp=F
 DIIS: error= 1.29D-06 at cycle   5 NSaved=   5.
 NSaved= 5 IEnMin= 5 EnMin= -526.724865768304     IErMin= 5 ErrMin= 1.29D-06
 ErrMax= 1.29D-06  0.00D+00 EMaxC= 1.00D-01 BMatC= 1.23D-09 BMatP= 1.69D-09
 IDIUse=1 WtCom= 1.00D+00 WtEn= 0.00D+00
 Coeff-Com:  0.733D-02-0.887D-01-0.208D+00 0.571D+00 0.718D+00
 Coeff:      0.733D-02-0.887D-01-0.208D+00 0.571D+00 0.718D+00
 Gap=     0.301 Goal=   None    Shift=    0.000
 RMSDP=1.85D-07 MaxDP=6.06D-06 DE=-3.53D-09 OVMax= 1.59D-05

 Cycle   9  Pass 1  IDiag  1:
 E= -526.724865769644     Delta-E=       -0.000000001339 Rises=F Damp=F
 DIIS: error= 1.52D-07 at cycle   6 NSaved=   6.
 NSaved= 6 IEnMin= 6 EnMin= -526.724865769644     IErMin= 6 ErrMin= 1.52D-07
 ErrMax= 1.52D-07  0.00D+00 EMaxC= 1.00D-01 BMatC= 1.39D-11 BMatP= 1.23D-09
 IDIUse=1 WtCom= 1.00D+00 WtEn= 0.00D+00
 Coeff-Com:  0.205D-02-0.134D-01-0.346D-01 0.322D-01 0.106D+00 0.907D+00
 Coeff:      0.205D-02-0.134D-01-0.346D-01 0.322D-01 0.106D+00 0.907D+00
 Gap=     0.301 Goal=   None    Shift=    0.000
 RMSDP=3.01D-08 MaxDP=6.84D-07 DE=-1.34D-09 OVMax= 3.25D-06

 Cycle  10  Pass 1  IDiag  1:
 E= -526.724865769681     Delta-E=       -0.000000000037 Rises=F Damp=F
 DIIS: error= 8.33D-08 at cycle   7 NSaved=   7.
 NSaved= 7 IEnMin= 7 EnMin= -526.724865769681     IErMin= 7 ErrMin= 8.33D-08
 ErrMax= 8.33D-08  0.00D+00 EMaxC= 1.00D-01 BMatC= 4.00D-12 BMatP= 1.39D-11
 IDIUse=1 WtCom= 1.00D+00 WtEn= 0.00D+00
 Coeff-Com:  0.122D-03 0.320D-02 0.508D-02-0.370D-01-0.240D-01 0.359D+00
 Coeff-Com:  0.694D+00
 Coeff:      0.122D-03 0.320D-02 0.508D-02-0.370D-01-0.240D-01 0.359D+00
 Coeff:      0.694D+00
 Gap=     0.301 Goal=   None    Shift=    0.000
 RMSDP=8.20D-09 MaxDP=2.61D-07 DE=-3.71D-11 OVMax= 6.69D-07

 SCF Done:  E(RM062X) =  -526.724865770     A.U. after   10 cycles
            NFock= 10  Conv=0.82D-08     -V/T= 2.0037
 KE= 5.247885651279D+02 PE=-1.911613047833D+03 EE= 5.281380067380D+02
 Leave Link  502 at Sun May 25 03:49:59 2025, MaxMem=  3758096384 cpu:              38.8 elap:               7.1
 (Enter /apps/easybuild-2022/easybuild/software/Compiler/NVHPC/22.11-CUDA-11.7.0/Gaussian/g16c01-CUDA-11.7.0/g16/l508.exe)
 QCSCF skips out because SCF is already converged.
 Leave Link  508 at Sun May 25 03:49:59 2025, MaxMem=  3758096384 cpu:               0.0 elap:               0.0
 (Enter /apps/easybuild-2022/easybuild/software/Compiler/NVHPC/22.11-CUDA-11.7.0/Gaussian/g16c01-CUDA-11.7.0/g16/l801.exe)
 DoSCS=F DFT=T ScalE2(SS,OS)=  1.000000  1.000000
 Range of M.O.s used for correlation:     1   231
 NBasis=   231 NAE=    28 NBE=    28 NFC=     0 NFV=     0
 NROrb=    231 NOA=    28 NOB=    28 NVA=   203 NVB=   203

 **** Warning!!: The largest alpha MO coefficient is  0.11484129D+02

 Leave Link  801 at Sun May 25 03:49:59 2025, MaxMem=  3758096384 cpu:               0.0 elap:               0.0
 (Enter /apps/easybuild-2022/easybuild/software/Compiler/NVHPC/22.11-CUDA-11.7.0/Gaussian/g16c01-CUDA-11.7.0/g16/l1101.exe)
 Leave Link 1101 at Sun May 25 03:49:59 2025, MaxMem=  3758096384 cpu:               0.0 elap:               0.0
 (Enter /apps/easybuild-2022/easybuild/software/Compiler/NVHPC/22.11-CUDA-11.7.0/Gaussian/g16c01-CUDA-11.7.0/g16/l1102.exe)
 Symmetrizing basis deriv contribution to polar:
 IMax=3 JMax=2 DiffMx= 0.00D+00
 Leave Link 1102 at Sun May 25 03:49:59 2025, MaxMem=  3758096384 cpu:               0.0 elap:               0.0
 (Enter /apps/easybuild-2022/easybuild/software/Compiler/NVHPC/22.11-CUDA-11.7.0/Gaussian/g16c01-CUDA-11.7.0/g16/l1110.exe)
 Leave Link 1110 at Sun May 25 03:49:59 2025, MaxMem=  3758096384 cpu:               0.0 elap:               0.0
 (Enter /apps/easybuild-2022/easybuild/software/Compiler/NVHPC/22.11-CUDA-11.7.0/Gaussian/g16c01-CUDA-11.7.0/g16/l1002.exe)
 Minotr:  Closed shell wavefunction.
 Leave Link 1002 at Sun May 25 03:49:59 2025, MaxMem=  3758096384 cpu:               0.0 elap:               0.0
 (Enter /apps/easybuild-2022/easybuild/software/Compiler/NVHPC/22.11-CUDA-11.7.0/Gaussian/g16c01-CUDA-11.7.0/g16/l701.exe)
 ... and contract with generalized density number  0.
 Compute integral first derivatives.
   1 Symmetry operations used in ECPInt.
 ECPInt:  NShTT=    3486 NPrTT=   11183 LenC2=    3398 LenP2D=    8667.
 LDataN:  DoStor=T MaxTD1= 7 Len=  274
 Leave Link  701 at Sun May 25 03:49:59 2025, MaxMem=  3758096384 cpu:               0.5 elap:               0.1
 (Enter /apps/easybuild-2022/easybuild/software/Compiler/NVHPC/22.11-CUDA-11.7.0/Gaussian/g16c01-CUDA-11.7.0/g16/l702.exe)
 L702 exits ... SP integral derivatives will be done elsewhere.
 Leave Link  702 at Sun May 25 03:49:59 2025, MaxMem=  3758096384 cpu:               0.0 elap:               0.0
 (Enter /apps/easybuild-2022/easybuild/software/Compiler/NVHPC/22.11-CUDA-11.7.0/Gaussian/g16c01-CUDA-11.7.0/g16/l703.exe)
 Integral derivatives from FoFJK, PRISM(SPDF).
 Compute integral first derivatives, UseDBF=F ICtDFT=           0.
 Calling FoFJK, ICntrl=      2127 FMM=F ISym2X=0 I1Cent= 0 IOpClX= 0 NMat=1 NMatS=1 NMatT=0.
 FoFJK:  IHMeth= 1 ICntrl=    2127 DoSepK=F KAlg= 0 I1Cent=           0 FoldK=F
 IRaf=         0 NMat=       1 IRICut=       1 DoRegI=T DoRafI=F ISym2E= 0 IDoP0=0 IntGTp=1.
 FoFCou: FMM=F IPFlag=           0 FMFlag=      100000 FMFlg1=         800
         NFxFlg=           0 DoJE=F BraDBF=F KetDBF=F FulRan=T
         wScrn=  0.000000 ICntrl=      2127 IOpCl=  0 I1Cent=           0 NGrid=           0
         NMat0=    1 NMatS0=      1 NMatT0=    0 NMatD0=    1 NMtDS0=    0 NMtDT0=    0
 Symmetry not used in FoFCou.
 Leave Link  703 at Sun May 25 03:50:03 2025, MaxMem=  3758096384 cpu:              26.5 elap:               3.4
 (Enter /apps/easybuild-2022/easybuild/software/Compiler/NVHPC/22.11-CUDA-11.7.0/Gaussian/g16c01-CUDA-11.7.0/g16/l716.exe)
 Dipole        =-1.16074751D+00 8.98842237D-01-9.14477158D-01
 Polarizability= 0.00000000D+00 0.00000000D+00 0.00000000D+00
                 0.00000000D+00 0.00000000D+00 0.00000000D+00
 -------------------------------------------------------------------
 Center     Atomic                   Forces (Hartrees/Bohr)
 Number     Number              X              Y              Z
 -------------------------------------------------------------------
      1        6          -0.000748141   -0.000981273   -0.002880160
      2        8          -0.000168147   -0.000244461   -0.000712254
      3        6           0.000963524    0.000704501    0.002784559
      4        9          -0.003439762    0.000707168   -0.000192085
      5        9           0.002027130   -0.000127871    0.000531308
      6        9           0.001593937    0.000031136    0.000684037
      7        8          -0.000195308   -0.000048462   -0.000264504
      8        1          -0.000033233   -0.000040739    0.000049100
 -------------------------------------------------------------------
 Cartesian Forces:  Max     0.003439762 RMS     0.001282798
 Leave Link  716 at Sun May 25 03:50:03 2025, MaxMem=  3758096384 cpu:               0.0 elap:               0.0
 (Enter /apps/easybuild-2022/easybuild/software/Compiler/NVHPC/22.11-CUDA-11.7.0/Gaussian/g16c01-CUDA-11.7.0/g16/l123.exe)
 IRC-IRC-IRC-IRC-IRC-IRC-IRC-IRC-IRC-IRC-IRC-IRC-IRC-IRC-IRC-IRC-IRC-IRC
 Pt  3 Step number   1 out of a maximum of  20
 Using modified Bulirsch-Stoer corrector integration.
   Using distance weighted interpolants to fit PES.
 PreDWI: IReCr0= 2 IReCr1= 1 IReCr2= 1 IReCr3= 1
 Modified Bulirsch-Stoer Extrapolation Cycles:
    EPS =    0.000010000000000
    Cycle     1 NS=    48
      PEZero:  N= 2 I= 1 D=  3.85D-04 Err=  3.69D-06
    Cycle     2 NS=    64 Truncation Error =  0.000003695
 BS completed in    2 cycles and     112 integration steps.
 Maximum DWI energy   std dev =  0.000000074 at pt    47
 Maximum DWI gradient std dev =  0.005824220 at pt    28
 SUMMARY OF CORRECTOR INTEGRATION:
   Predictor End Point Energy =  -526.724866
   Old End Point Energy       =  -526.724866
   Corrected End Point Energy =  -526.724866
   Predictor End-Start Dist.  =     0.073926
   Old End-Start Dist.        =     0.073926
   New End-Start Dist.        =     0.073925
   New End-Old End Dist.      =     0.000365
 CORRECTOR INTEGRATION CONVERGENCE:
   Recorrection delta-x convergence threshold:    0.010000
   Delta-x Convergence Met
 Point Number:   3          Path Number:   1
                    CURRENT STRUCTURE
                Cartesian Coordinates (Ang):                
 ---------------------------------------------------------------------
 Center     Atomic                     Coordinates (Angstroms)
 Number     Number                        X           Y           Z
 ---------------------------------------------------------------------
      1          6                    0.935390   -0.132207    0.215534
      2          8                    1.369181   -1.203132    0.459441
      3          6                   -0.649493   -0.129200   -0.509747
      4          9                   -0.032091    0.514389    1.279649
      5          9                   -1.280139    0.877433   -0.971184
      6          9                   -1.452346   -1.078375   -0.285663
      7          8                    1.623147    0.917370   -0.267805
      8          1                    1.220187    1.739013    0.031911
 ---------------------------------------------------------------------
   CHANGE IN THE REACTION COORDINATE =    0.07393
   NET REACTION COORDINATE UP TO THIS POINT =    0.22179
  # OF POINTS ALONG THE PATH =   3
  # OF STEPS =   1

 Calculating another point on the path.
 Point Number  4 in FORWARD path direction.
 Using LQA Reaction Path Following.
   LQA: T_Est iteration completed in    3 iterations.
 IRC-IRC-IRC-IRC-IRC-IRC-IRC-IRC-IRC-IRC-IRC-IRC-IRC-IRC-IRC-IRC-IRC-IRC
 Leave Link  123 at Sun May 25 03:50:03 2025, MaxMem=  3758096384 cpu:               0.1 elap:               0.0
 (Enter /apps/easybuild-2022/easybuild/software/Compiler/NVHPC/22.11-CUDA-11.7.0/Gaussian/g16c01-CUDA-11.7.0/g16/l202.exe)
                          Input orientation:                          
 ---------------------------------------------------------------------
 Center     Atomic      Atomic             Coordinates (Angstroms)
 Number     Number       Type             X           Y           Z
 ---------------------------------------------------------------------
      1          6           0        0.933843   -0.134127    0.209789
      2          8           0        1.368969   -1.203545    0.458388
      3          6           0       -0.647580   -0.127799   -0.504206
      4          9           0       -0.036434    0.515278    1.279396
      5          9           0       -1.277591    0.877273   -0.970508
      6          9           0       -1.450341   -1.078326   -0.284796
      7          8           0        1.622890    0.917308   -0.268208
      8          1           0        1.219309    1.738075    0.033116
 ---------------------------------------------------------------------
                    Distance matrix (angstroms):
                    1          2          3          4          5
     1  C    0.000000
     2  O    1.181012   0.000000
     3  C    1.735145   2.479977   0.000000
     4  F    1.583421   2.367184   1.992056   0.000000
     5  F    2.703049   3.657298   1.274567   2.594915   0.000000
     6  F    2.611601   2.918306   1.263355   2.642992   2.079522
     7  O    1.344909   2.256199   2.510573   2.304357   2.984564
     8  H    1.902063   2.975967   2.693599   2.150660   2.825376
                    6          7          8
     6  F    0.000000
     7  O    3.664366   0.000000
     8  H    3.893612   0.962981   0.000000
 Symmetry turned off by external request.
 Stoichiometry    C2HF3O2
 Rotational constants (GHZ):           3.9943723           2.3465760           1.9495280
 Leave Link  202 at Sun May 25 03:50:03 2025, MaxMem=  3758096384 cpu:               0.0 elap:               0.0
 (Enter /apps/easybuild-2022/easybuild/software/Compiler/NVHPC/22.11-CUDA-11.7.0/Gaussian/g16c01-CUDA-11.7.0/g16/l301.exe)
 Standard basis: def2TZVPP (5D, 7F)
 Ernie: Thresh=  0.10000D-02 Tol=  0.10000D-05 Strict=F.
   231 basis functions,   374 primitive gaussians,   267 cartesian basis functions
    28 alpha electrons       28 beta electrons
       nuclear repulsion energy       332.0916776823 Hartrees.
 IExCor= 4336 DFT=T Ex+Corr=M062X ExCW=0 ScaHFX=  0.540000
 ScaDFX=  1.000000  1.000000  1.000000  1.000000 ScalE2=  1.000000  1.000000
 IRadAn=      5 IRanWt=     -1 IRanGd=            0 ICorTp=0 IEmpDi=  4
 NAtoms=    8 NActive=    8 NUniq=    8 SFac= 1.00D+00 NAtFMM=   60 NAOKFM=F Big=F
 Integral buffers will be    131072 words long.
 Raffenetti 2 integral format.
 Two-electron integral symmetry is turned off.
 Leave Link  301 at Sun May 25 03:50:03 2025, MaxMem=  3758096384 cpu:               0.0 elap:               0.0
 (Enter /apps/easybuild-2022/easybuild/software/Compiler/NVHPC/22.11-CUDA-11.7.0/Gaussian/g16c01-CUDA-11.7.0/g16/l302.exe)
 NPDir=0 NMtPBC=     1 NCelOv=     1 NCel=       1 NClECP=     1 NCelD=      1
         NCelK=      1 NCelE2=     1 NClLst=     1 CellRange=     0.0.
 One-electron integrals computed using PRISM.
   1 Symmetry operations used in ECPInt.
 ECPInt:  NShTT=    3486 NPrTT=   11183 LenC2=    3399 LenP2D=    8669.
 LDataN:  DoStor=T MaxTD1= 6 Len=  172
 NBasis=   231 RedAO= T EigKep=  8.02D-04  NBF=   231
 NBsUse=   231 1.00D-06 EigRej= -1.00D+00 NBFU=   231
 Precomputing XC quadrature grid using
 IXCGrd= 4 IRadAn=           5 IRanWt=          -1 IRanGd=           0 AccXCQ= 0.00D+00.
 Generated NRdTot=       0 NPtTot=           0 NUsed=           0 NTot=          32
 NSgBfM=   264   264   264   264   264 MxSgAt=     8 MxSgA2=     8.
 Leave Link  302 at Sun May 25 03:50:03 2025, MaxMem=  3758096384 cpu:               0.5 elap:               0.1
 (Enter /apps/easybuild-2022/easybuild/software/Compiler/NVHPC/22.11-CUDA-11.7.0/Gaussian/g16c01-CUDA-11.7.0/g16/l303.exe)
 DipDrv:  MaxL=1.
 Leave Link  303 at Sun May 25 03:50:03 2025, MaxMem=  3758096384 cpu:               0.1 elap:               0.0
 (Enter /apps/easybuild-2022/easybuild/software/Compiler/NVHPC/22.11-CUDA-11.7.0/Gaussian/g16c01-CUDA-11.7.0/g16/l401.exe)
 Initial guess from the checkpoint file:  "1141903082400600000001_r12_insertion_R_1_3_4_IRC_F.chk"
 B after Tr=    -0.000018   -0.000029   -0.000001
         Rot=    1.000000   -0.000015   -0.000013    0.000001 Ang=  -0.00 deg.
 Guess basis will be translated and rotated to current coordinates.
 JPrj=2 DoOrth=T DoCkMO=T.
 Generating alternative initial guess.
 ExpMin= 9.52D-02 ExpMax= 3.55D+04 ExpMxC= 1.21D+03 IAcc=3 IRadAn=         5 AccDes= 0.00D+00
 Harris functional with IExCor= 1009 and IRadAn=       5 diagonalized for initial guess.
 HarFok:  IExCor= 1009 AccDes= 0.00D+00 IRadAn=         5 IDoV= 1 UseB2=F ITyADJ=14
 ICtDFT=  3500011 ScaDFX=  1.000000  1.000000  1.000000  1.000000
 FoFCou: FMM=F IPFlag=           0 FMFlag=      100000 FMFlg1=           0
         NFxFlg=           0 DoJE=T BraDBF=F KetDBF=T FulRan=T
         wScrn=  0.000000 ICntrl=       500 IOpCl=  0 I1Cent=   200000004 NGrid=           0
         NMat0=    1 NMatS0=      1 NMatT0=    0 NMatD0=    1 NMtDS0=    0 NMtDT0=    0
 Symmetry not used in FoFCou.
 Harris En= -526.475818311598    
 Leave Link  401 at Sun May 25 03:50:03 2025, MaxMem=  3758096384 cpu:               2.2 elap:               0.3
 (Enter /apps/easybuild-2022/easybuild/software/Compiler/NVHPC/22.11-CUDA-11.7.0/Gaussian/g16c01-CUDA-11.7.0/g16/l502.exe)
 Keep R1 ints in memory in canonical form, NReq=368651279.
 FoFCou: FMM=F IPFlag=           0 FMFlag=           0 FMFlg1=           0
         NFxFlg=           0 DoJE=F BraDBF=F KetDBF=F FulRan=T
         wScrn=  0.000000 ICntrl=       600 IOpCl=  0 I1Cent=           0 NGrid=           0
         NMat0=    1 NMatS0=  26796 NMatT0=    0 NMatD0=    1 NMtDS0=    0 NMtDT0=    0
 Symmetry not used in FoFCou.
 Two-electron integral symmetry not used.
 Closed shell SCF:
 Using DIIS extrapolation, IDIIS=  1040.
 NGot=  3758096384 LenX=  3398923531 LenY=  3398851801
 Requested convergence on RMS density matrix=1.00D-08 within  32 cycles.
 Requested convergence on MAX density matrix=1.00D-06.
 Requested convergence on             energy=1.00D-06.
 No special actions if energy rises.
 Integral accuracy reduced to 1.0D-05 until final iterations.

 Cycle   1  Pass 0  IDiag  1:
 E= -526.724929038318    
 DIIS: error= 2.58D-04 at cycle   1 NSaved=   1.
 NSaved= 1 IEnMin= 1 EnMin= -526.724929038318     IErMin= 1 ErrMin= 2.58D-04
 ErrMax= 2.58D-04  0.00D+00 EMaxC= 1.00D-01 BMatC= 5.83D-05 BMatP= 5.83D-05
 IDIUse=3 WtCom= 9.97D-01 WtEn= 2.58D-03
 Coeff-Com:  0.100D+01
 Coeff-En:   0.100D+01
 Coeff:      0.100D+01
 Gap=     1.044 Goal=   None    Shift=    0.000
 RMSDP=4.43D-05 MaxDP=1.78D-03              OVMax= 3.73D-03

 Cycle   2  Pass 0  IDiag  1:
 E= -526.725022962998     Delta-E=       -0.000093924681 Rises=F Damp=F
 DIIS: error= 1.22D-04 at cycle   2 NSaved=   2.
 NSaved= 2 IEnMin= 2 EnMin= -526.725022962998     IErMin= 2 ErrMin= 1.22D-04
 ErrMax= 1.22D-04  0.00D+00 EMaxC= 1.00D-01 BMatC= 4.07D-06 BMatP= 5.83D-05
 IDIUse=3 WtCom= 9.99D-01 WtEn= 1.22D-03
 Coeff-Com: -0.812D-01 0.108D+01
 Coeff-En:   0.000D+00 0.100D+01
 Coeff:     -0.811D-01 0.108D+01
 Gap=     0.301 Goal=   None    Shift=    0.000
 RMSDP=1.50D-05 MaxDP=4.22D-04 DE=-9.39D-05 OVMax= 1.43D-03

 Cycle   3  Pass 0  IDiag  1:
 E= -526.725030317130     Delta-E=       -0.000007354132 Rises=F Damp=F
 DIIS: error= 6.03D-05 at cycle   3 NSaved=   3.
 NSaved= 3 IEnMin= 3 EnMin= -526.725030317130     IErMin= 3 ErrMin= 6.03D-05
 ErrMax= 6.03D-05  0.00D+00 EMaxC= 1.00D-01 BMatC= 2.98D-06 BMatP= 4.07D-06
 IDIUse=1 WtCom= 1.00D+00 WtEn= 0.00D+00
 Coeff-Com: -0.941D-01 0.529D+00 0.565D+00
 Coeff:     -0.941D-01 0.529D+00 0.565D+00
 Gap=     0.301 Goal=   None    Shift=    0.000
 RMSDP=4.72D-06 MaxDP=1.55D-04 DE=-7.35D-06 OVMax= 4.47D-04

 Initial convergence to 1.0D-05 achieved.  Increase integral accuracy.
 Cycle   4  Pass 1  IDiag  1:
 E= -526.725007288260     Delta-E=        0.000023028870 Rises=F Damp=F
 DIIS: error= 3.27D-05 at cycle   1 NSaved=   1.
 NSaved= 1 IEnMin= 1 EnMin= -526.725007288260     IErMin= 1 ErrMin= 3.27D-05
 ErrMax= 3.27D-05  0.00D+00 EMaxC= 1.00D-01 BMatC= 5.36D-07 BMatP= 5.36D-07
 IDIUse=1 WtCom= 1.00D+00 WtEn= 0.00D+00
 Coeff-Com:  0.100D+01
 Coeff:      0.100D+01
 Gap=     0.302 Goal=   None    Shift=    0.000
 RMSDP=4.72D-06 MaxDP=1.55D-04 DE= 2.30D-05 OVMax= 3.77D-04

 Cycle   5  Pass 1  IDiag  1:
 E= -526.725007683486     Delta-E=       -0.000000395225 Rises=F Damp=F
 DIIS: error= 1.98D-05 at cycle   2 NSaved=   2.
 NSaved= 2 IEnMin= 2 EnMin= -526.725007683486     IErMin= 2 ErrMin= 1.98D-05
 ErrMax= 1.98D-05  0.00D+00 EMaxC= 1.00D-01 BMatC= 3.01D-07 BMatP= 5.36D-07
 IDIUse=1 WtCom= 1.00D+00 WtEn= 0.00D+00
 Coeff-Com:  0.397D+00 0.603D+00
 Coeff:      0.397D+00 0.603D+00
 Gap=     0.301 Goal=   None    Shift=    0.000
 RMSDP=1.58D-06 MaxDP=6.60D-05 DE=-3.95D-07 OVMax= 1.58D-04

 Cycle   6  Pass 1  IDiag  1:
 E= -526.725007858122     Delta-E=       -0.000000174636 Rises=F Damp=F
 DIIS: error= 1.44D-05 at cycle   3 NSaved=   3.
 NSaved= 3 IEnMin= 3 EnMin= -526.725007858122     IErMin= 3 ErrMin= 1.44D-05
 ErrMax= 1.44D-05  0.00D+00 EMaxC= 1.00D-01 BMatC= 6.49D-08 BMatP= 3.01D-07
 IDIUse=1 WtCom= 1.00D+00 WtEn= 0.00D+00
 Coeff-Com: -0.665D-01 0.297D+00 0.770D+00
 Coeff:     -0.665D-01 0.297D+00 0.770D+00
 Gap=     0.301 Goal=   None    Shift=    0.000
 RMSDP=9.27D-07 MaxDP=2.13D-05 DE=-1.75D-07 OVMax= 9.45D-05

 Cycle   7  Pass 1  IDiag  1:
 E= -526.725007914574     Delta-E=       -0.000000056452 Rises=F Damp=F
 DIIS: error= 1.95D-06 at cycle   4 NSaved=   4.
 NSaved= 4 IEnMin= 4 EnMin= -526.725007914574     IErMin= 4 ErrMin= 1.95D-06
 ErrMax= 1.95D-06  0.00D+00 EMaxC= 1.00D-01 BMatC= 1.80D-09 BMatP= 6.49D-08
 IDIUse=1 WtCom= 1.00D+00 WtEn= 0.00D+00
 Coeff-Com: -0.229D-01 0.354D-02 0.588D-01 0.961D+00
 Coeff:     -0.229D-01 0.354D-02 0.588D-01 0.961D+00
 Gap=     0.301 Goal=   None    Shift=    0.000
 RMSDP=3.16D-07 MaxDP=7.33D-06 DE=-5.65D-08 OVMax= 3.37D-05

 Cycle   8  Pass 1  IDiag  1:
 E= -526.725007918360     Delta-E=       -0.000000003786 Rises=F Damp=F
 DIIS: error= 1.37D-06 at cycle   5 NSaved=   5.
 NSaved= 5 IEnMin= 5 EnMin= -526.725007918360     IErMin= 5 ErrMin= 1.37D-06
 ErrMax= 1.37D-06  0.00D+00 EMaxC= 1.00D-01 BMatC= 1.35D-09 BMatP= 1.80D-09
 IDIUse=1 WtCom= 1.00D+00 WtEn= 0.00D+00
[...]
 NSaved= 1 IEnMin= 1 EnMin= -526.837527379641     IErMin= 1 ErrMin= 3.61D-05
 ErrMax= 3.61D-05  0.00D+00 EMaxC= 1.00D-01 BMatC= 6.87D-07 BMatP= 6.87D-07
 IDIUse=1 WtCom= 1.00D+00 WtEn= 0.00D+00
 Coeff-Com:  0.100D+01
 Coeff:      0.100D+01
 Gap=     0.401 Goal=   None    Shift=    0.000
 RMSDP=6.04D-06 MaxDP=2.08D-04 DE=-1.56D-05 OVMax= 2.78D-04

 Cycle   4  Pass 1  IDiag  1:
 E= -526.837527581817     Delta-E=       -0.000000202176 Rises=F Damp=F
 DIIS: error= 3.91D-05 at cycle   2 NSaved=   2.
 NSaved= 2 IEnMin= 2 EnMin= -526.837527581817     IErMin= 1 ErrMin= 3.61D-05
 ErrMax= 3.91D-05  0.00D+00 EMaxC= 1.00D-01 BMatC= 5.23D-07 BMatP= 6.87D-07
 IDIUse=1 WtCom= 1.00D+00 WtEn= 0.00D+00
 Coeff-Com:  0.460D+00 0.540D+00
 Coeff:      0.460D+00 0.540D+00
 Gap=     0.401 Goal=   None    Shift=    0.000
 RMSDP=1.59D-06 MaxDP=7.60D-05 DE=-2.02D-07 OVMax= 1.03D-04

 Cycle   5  Pass 1  IDiag  1:
 E= -526.837527855976     Delta-E=       -0.000000274159 Rises=F Damp=F
 DIIS: error= 7.88D-06 at cycle   3 NSaved=   3.
 NSaved= 3 IEnMin= 3 EnMin= -526.837527855976     IErMin= 3 ErrMin= 7.88D-06
 ErrMax= 7.88D-06  0.00D+00 EMaxC= 1.00D-01 BMatC= 2.56D-08 BMatP= 5.23D-07
 IDIUse=1 WtCom= 1.00D+00 WtEn= 0.00D+00
 Coeff-Com: -0.347D-01 0.151D+00 0.884D+00
 Coeff:     -0.347D-01 0.151D+00 0.884D+00
 Gap=     0.401 Goal=   None    Shift=    0.000
 RMSDP=6.74D-07 MaxDP=1.63D-05 DE=-2.74D-07 OVMax= 7.89D-05

 Cycle   6  Pass 1  IDiag  1:
 E= -526.837527876472     Delta-E=       -0.000000020496 Rises=F Damp=F
 DIIS: error= 3.59D-06 at cycle   4 NSaved=   4.
 NSaved= 4 IEnMin= 4 EnMin= -526.837527876472     IErMin= 4 ErrMin= 3.59D-06
 ErrMax= 3.59D-06  0.00D+00 EMaxC= 1.00D-01 BMatC= 3.02D-09 BMatP= 2.56D-08
 IDIUse=1 WtCom= 1.00D+00 WtEn= 0.00D+00
 Coeff-Com: -0.292D-01 0.522D-01 0.418D+00 0.559D+00
 Coeff:     -0.292D-01 0.522D-01 0.418D+00 0.559D+00
 Gap=     0.401 Goal=   None    Shift=    0.000
 RMSDP=1.72D-07 MaxDP=7.15D-06 DE=-2.05D-08 OVMax= 2.39D-05

 Cycle   7  Pass 1  IDiag  1:
 E= -526.837527879178     Delta-E=       -0.000000002706 Rises=F Damp=F
 DIIS: error= 9.96D-07 at cycle   5 NSaved=   5.
 NSaved= 5 IEnMin= 5 EnMin= -526.837527879178     IErMin= 5 ErrMin= 9.96D-07
 ErrMax= 9.96D-07  0.00D+00 EMaxC= 1.00D-01 BMatC= 5.52D-10 BMatP= 3.02D-09
 IDIUse=1 WtCom= 1.00D+00 WtEn= 0.00D+00
 Coeff-Com:  0.216D-02-0.361D-01-0.149D+00 0.236D+00 0.946D+00
 Coeff:      0.216D-02-0.361D-01-0.149D+00 0.236D+00 0.946D+00
 Gap=     0.401 Goal=   None    Shift=    0.000
 RMSDP=1.50D-07 MaxDP=5.06D-06 DE=-2.71D-09 OVMax= 2.89D-05

 Cycle   8  Pass 1  IDiag  1:
 E= -526.837527880303     Delta-E=       -0.000000001125 Rises=F Damp=F
 DIIS: error= 2.74D-07 at cycle   6 NSaved=   6.
 NSaved= 6 IEnMin= 6 EnMin= -526.837527880303     IErMin= 6 ErrMin= 2.74D-07
 ErrMax= 2.74D-07  0.00D+00 EMaxC= 1.00D-01 BMatC= 4.21D-11 BMatP= 5.52D-10
 IDIUse=1 WtCom= 1.00D+00 WtEn= 0.00D+00
 Coeff-Com:  0.406D-02-0.170D-01-0.966D-01-0.652D-02 0.263D+00 0.853D+00
 Coeff:      0.406D-02-0.170D-01-0.966D-01-0.652D-02 0.263D+00 0.853D+00
 Gap=     0.401 Goal=   None    Shift=    0.000
 RMSDP=4.84D-08 MaxDP=1.82D-06 DE=-1.13D-09 OVMax= 1.02D-05

 Cycle   9  Pass 1  IDiag  1:
 E= -526.837527880404     Delta-E=       -0.000000000101 Rises=F Damp=F
 DIIS: error= 9.69D-08 at cycle   7 NSaved=   7.
 NSaved= 7 IEnMin= 7 EnMin= -526.837527880404     IErMin= 7 ErrMin= 9.69D-08
 ErrMax= 9.69D-08  0.00D+00 EMaxC= 1.00D-01 BMatC= 3.32D-12 BMatP= 4.21D-11
 IDIUse=1 WtCom= 1.00D+00 WtEn= 0.00D+00
 Coeff-Com:  0.270D-03 0.317D-02 0.796D-02-0.325D-01-0.949D-01 0.812D-01
 Coeff-Com:  0.103D+01
 Coeff:      0.270D-03 0.317D-02 0.796D-02-0.325D-01-0.949D-01 0.812D-01
 Coeff:      0.103D+01
 Gap=     0.401 Goal=   None    Shift=    0.000
 RMSDP=1.84D-08 MaxDP=6.70D-07 DE=-1.01D-10 OVMax= 3.79D-06

 Cycle  10  Pass 1  IDiag  1:
 E= -526.837527880421     Delta-E=       -0.000000000018 Rises=F Damp=F
 DIIS: error= 2.41D-08 at cycle   8 NSaved=   8.
 NSaved= 8 IEnMin= 8 EnMin= -526.837527880421     IErMin= 8 ErrMin= 2.41D-08
 ErrMax= 2.41D-08  0.00D+00 EMaxC= 1.00D-01 BMatC= 4.96D-13 BMatP= 3.32D-12
 IDIUse=1 WtCom= 1.00D+00 WtEn= 0.00D+00
 Coeff-Com: -0.335D-03 0.254D-02 0.118D-01-0.941D-02-0.535D-01-0.476D-01
 Coeff-Com:  0.325D+00 0.772D+00
 Coeff:     -0.335D-03 0.254D-02 0.118D-01-0.941D-02-0.535D-01-0.476D-01
 Coeff:      0.325D+00 0.772D+00
 Gap=     0.401 Goal=   None    Shift=    0.000
 RMSDP=3.56D-09 MaxDP=9.40D-08 DE=-1.75D-11 OVMax= 5.41D-07

 SCF Done:  E(RM062X) =  -526.837527880     A.U. after   10 cycles
            NFock= 10  Conv=0.36D-08     -V/T= 2.0036
 KE= 5.249398665105D+02 PE=-1.928143072403D+03 EE= 5.361804202676D+02
 Leave Link  502 at Sun May 25 04:09:00 2025, MaxMem=  3758096384 cpu:              41.0 elap:               7.3
 (Enter /apps/easybuild-2022/easybuild/software/Compiler/NVHPC/22.11-CUDA-11.7.0/Gaussian/g16c01-CUDA-11.7.0/g16/l508.exe)
 QCSCF skips out because SCF is already converged.
 Leave Link  508 at Sun May 25 04:09:00 2025, MaxMem=  3758096384 cpu:               0.0 elap:               0.0
 (Enter /apps/easybuild-2022/easybuild/software/Compiler/NVHPC/22.11-CUDA-11.7.0/Gaussian/g16c01-CUDA-11.7.0/g16/l801.exe)
 DoSCS=F DFT=T ScalE2(SS,OS)=  1.000000  1.000000
 Range of M.O.s used for correlation:     1   231
 NBasis=   231 NAE=    28 NBE=    28 NFC=     0 NFV=     0
 NROrb=    231 NOA=    28 NOB=    28 NVA=   203 NVB=   203

 **** Warning!!: The largest alpha MO coefficient is  0.14922697D+02

 Leave Link  801 at Sun May 25 04:09:00 2025, MaxMem=  3758096384 cpu:               0.0 elap:               0.0
 (Enter /apps/easybuild-2022/easybuild/software/Compiler/NVHPC/22.11-CUDA-11.7.0/Gaussian/g16c01-CUDA-11.7.0/g16/l1101.exe)
 Leave Link 1101 at Sun May 25 04:09:00 2025, MaxMem=  3758096384 cpu:               0.0 elap:               0.0
 (Enter /apps/easybuild-2022/easybuild/software/Compiler/NVHPC/22.11-CUDA-11.7.0/Gaussian/g16c01-CUDA-11.7.0/g16/l1102.exe)
 Symmetrizing basis deriv contribution to polar:
 IMax=3 JMax=2 DiffMx= 0.00D+00
 Leave Link 1102 at Sun May 25 04:09:00 2025, MaxMem=  3758096384 cpu:               0.0 elap:               0.0
 (Enter /apps/easybuild-2022/easybuild/software/Compiler/NVHPC/22.11-CUDA-11.7.0/Gaussian/g16c01-CUDA-11.7.0/g16/l1110.exe)
 Leave Link 1110 at Sun May 25 04:09:00 2025, MaxMem=  3758096384 cpu:               0.0 elap:               0.0
 (Enter /apps/easybuild-2022/easybuild/software/Compiler/NVHPC/22.11-CUDA-11.7.0/Gaussian/g16c01-CUDA-11.7.0/g16/l1002.exe)
 Minotr:  Closed shell wavefunction.
 Leave Link 1002 at Sun May 25 04:09:00 2025, MaxMem=  3758096384 cpu:               0.0 elap:               0.0
 (Enter /apps/easybuild-2022/easybuild/software/Compiler/NVHPC/22.11-CUDA-11.7.0/Gaussian/g16c01-CUDA-11.7.0/g16/l701.exe)
 ... and contract with generalized density number  0.
 Compute integral first derivatives.
   1 Symmetry operations used in ECPInt.
 ECPInt:  NShTT=    3486 NPrTT=   11183 LenC2=    3407 LenP2D=    8773.
 LDataN:  DoStor=T MaxTD1= 7 Len=  274
 Leave Link  701 at Sun May 25 04:09:00 2025, MaxMem=  3758096384 cpu:               0.4 elap:               0.1
 (Enter /apps/easybuild-2022/easybuild/software/Compiler/NVHPC/22.11-CUDA-11.7.0/Gaussian/g16c01-CUDA-11.7.0/g16/l702.exe)
 L702 exits ... SP integral derivatives will be done elsewhere.
 Leave Link  702 at Sun May 25 04:09:00 2025, MaxMem=  3758096384 cpu:               0.0 elap:               0.0
 (Enter /apps/easybuild-2022/easybuild/software/Compiler/NVHPC/22.11-CUDA-11.7.0/Gaussian/g16c01-CUDA-11.7.0/g16/l703.exe)
 Integral derivatives from FoFJK, PRISM(SPDF).
 Compute integral first derivatives, UseDBF=F ICtDFT=           0.
 Calling FoFJK, ICntrl=      2127 FMM=F ISym2X=0 I1Cent= 0 IOpClX= 0 NMat=1 NMatS=1 NMatT=0.
 FoFJK:  IHMeth= 1 ICntrl=    2127 DoSepK=F KAlg= 0 I1Cent=           0 FoldK=F
 IRaf=         0 NMat=       1 IRICut=       1 DoRegI=T DoRafI=F ISym2E= 0 IDoP0=0 IntGTp=1.
 FoFCou: FMM=F IPFlag=           0 FMFlag=      100000 FMFlg1=         800
         NFxFlg=           0 DoJE=F BraDBF=F KetDBF=F FulRan=T
         wScrn=  0.000000 ICntrl=      2127 IOpCl=  0 I1Cent=           0 NGrid=           0
         NMat0=    1 NMatS0=      1 NMatT0=    0 NMatD0=    1 NMtDS0=    0 NMtDT0=    0
 Symmetry not used in FoFCou.
 Leave Link  703 at Sun May 25 04:09:04 2025, MaxMem=  3758096384 cpu:              26.8 elap:               3.4
 (Enter /apps/easybuild-2022/easybuild/software/Compiler/NVHPC/22.11-CUDA-11.7.0/Gaussian/g16c01-CUDA-11.7.0/g16/l716.exe)
 Dipole        =-3.40382010D-01 9.69107842D-01-5.01876997D-01
 Polarizability= 0.00000000D+00 0.00000000D+00 0.00000000D+00
                 0.00000000D+00 0.00000000D+00 0.00000000D+00
 -------------------------------------------------------------------
 Center     Atomic                   Forces (Hartrees/Bohr)
 Number     Number              X              Y              Z
 -------------------------------------------------------------------
      1        6           0.000437796    0.000476256    0.000941621
      2        8           0.003296635   -0.002734556   -0.010026166
      3        6           0.000356573    0.001654509    0.005623141
      4        9          -0.023896446    0.002159461    0.004681903
      5        9           0.011021976    0.002001992    0.000525970
      6        9           0.006009538   -0.000903850    0.005912976
      7        8           0.002488816   -0.002203397   -0.005680337
      8        1           0.000285113   -0.000450415   -0.001979108
 -------------------------------------------------------------------
 Cartesian Forces:  Max     0.023896446 RMS     0.006446777
 Leave Link  716 at Sun May 25 04:09:04 2025, MaxMem=  3758096384 cpu:               0.0 elap:               0.0
 (Enter /apps/easybuild-2022/easybuild/software/Compiler/NVHPC/22.11-CUDA-11.7.0/Gaussian/g16c01-CUDA-11.7.0/g16/l123.exe)
 IRC-IRC-IRC-IRC-IRC-IRC-IRC-IRC-IRC-IRC-IRC-IRC-IRC-IRC-IRC-IRC-IRC-IRC
 Pt100 Step number   1 out of a maximum of  20
 Using modified Bulirsch-Stoer corrector integration.
   Using distance weighted interpolants to fit PES.
 PreDWI: IReCr0= 2 IReCr1= 1 IReCr2= 1 IReCr3= 1
 Modified Bulirsch-Stoer Extrapolation Cycles:
    EPS =    0.000010000000000
    Cycle     1 NS=    48
      PEZero:  N= 2 I= 1 D=  3.85D-04 Err=  5.02D-06
    Cycle     2 NS=    64 Truncation Error =  0.000005017
 BS completed in    2 cycles and     112 integration steps.
 Maximum DWI energy   std dev =  0.000000013 at pt    46
 Maximum DWI gradient std dev =  0.002665935 at pt    29
 SUMMARY OF CORRECTOR INTEGRATION:
   Predictor End Point Energy =  -526.837528
   Old End Point Energy       =  -526.837528
   Corrected End Point Energy =  -526.837528
   Predictor End-Start Dist.  =     0.073933
   Old End-Start Dist.        =     0.073933
   New End-Start Dist.        =     0.073932
   New End-Old End Dist.      =     0.000160
 CORRECTOR INTEGRATION CONVERGENCE:
   Recorrection delta-x convergence threshold:    0.010000
   Delta-x Convergence Met
 Point Number: 100          Path Number:   1
                    CURRENT STRUCTURE
                Cartesian Coordinates (Ang):                
 ---------------------------------------------------------------------
 Center     Atomic                     Coordinates (Angstroms)
 Number     Number                        X           Y           Z
 ---------------------------------------------------------------------
      1          6                    0.972766   -0.237331   -0.105398
      2          8                    1.421664   -1.254289    0.299748
      3          6                   -0.546470    0.009698   -0.056165
      4          9                   -0.572927    0.533881    1.183490
      5          9                   -1.069080    0.909688   -0.895846
      6          9                   -1.296208   -1.065133   -0.141871
      7          8                    1.678309    0.873170   -0.318168
      8          1                    1.113239    1.624987   -0.533171
 ---------------------------------------------------------------------
   CHANGE IN THE REACTION COORDINATE =    0.07393
   NET REACTION COORDINATE UP TO THIS POINT =    7.39309
  # OF POINTS ALONG THE PATH = 100
  # OF STEPS =   1

 Maximum number of steps reached.
 Calculation of FORWARD path complete.
 Reaction path calculation complete.
 
 Energies reported relative to the TS energy of        -526.724687
 --------------------------------------------------------------------------
    Summary of reaction path following
 --------------------------------------------------------------------------
                        Energy    RxCoord
   1                    0.00000   0.00000
   2                   -0.00002   0.07395
   3                   -0.00008   0.14787
   4                   -0.00018   0.22179
   5                   -0.00032   0.29572
   6                   -0.00051   0.36965
   7                   -0.00074   0.44358
   8                   -0.00101   0.51751
   9                   -0.00133   0.59144
  10                   -0.00171   0.66537
  11                   -0.00212   0.73930
  12                   -0.00259   0.81323
  13                   -0.00311   0.88716
  14                   -0.00368   0.96109
  15                   -0.00430   1.03502
  16                   -0.00496   1.10895
  17                   -0.00568   1.18288
  18                   -0.00644   1.25681
  19                   -0.00726   1.33074
  20                   -0.00812   1.40467
  21                   -0.00903   1.47860
  22                   -0.00998   1.55253
  23                   -0.01098   1.62647
  24                   -0.01202   1.70040
  25                   -0.01311   1.77433
  26                   -0.01424   1.84826
  27                   -0.01541   1.92219
  28                   -0.01662   1.99612
  29                   -0.01787   2.07005
  30                   -0.01915   2.14399
  31                   -0.02048   2.21792
  32                   -0.02183   2.29185
  33                   -0.02323   2.36578
  34                   -0.02465   2.43971
  35                   -0.02611   2.51364
  36                   -0.02759   2.58757
  37                   -0.02911   2.66151
  38                   -0.03065   2.73544
  39                   -0.03222   2.80937
  40                   -0.03382   2.88330
  41                   -0.03544   2.95723
  42                   -0.03708   3.03116
  43                   -0.03873   3.10510
  44                   -0.04041   3.17903
  45                   -0.04210   3.25296
  46                   -0.04381   3.32689
  47                   -0.04553   3.40082
  48                   -0.04725   3.47475
  49                   -0.04899   3.54869
  50                   -0.05073   3.62262
  51                   -0.05247   3.69655
  52                   -0.05422   3.77048
  53                   -0.05596   3.84441
  54                   -0.05770   3.91834
  55                   -0.05943   3.99228
  56                   -0.06116   4.06621
  57                   -0.06288   4.14014
  58                   -0.06458   4.21407
  59                   -0.06627   4.28800
  60                   -0.06795   4.36193
  61                   -0.06960   4.43586
  62                   -0.07124   4.50980
  63                   -0.07285   4.58373
  64                   -0.07444   4.65766
  65                   -0.07601   4.73159
  66                   -0.07754   4.80552
  67                   -0.07905   4.87945
  68                   -0.08053   4.95338
  69                   -0.08198   5.02731
  70                   -0.08340   5.10124
  71                   -0.08479   5.17517
  72                   -0.08614   5.24910
  73                   -0.08746   5.32303
  74                   -0.08875   5.39696
  75                   -0.09001   5.47089
  76                   -0.09123   5.54482
  77                   -0.09243   5.61875
  78                   -0.09359   5.69268
  79                   -0.09472   5.76661
  80                   -0.09582   5.84054
  81                   -0.09689   5.91447
  82                   -0.09793   5.98840
  83                   -0.09895   6.06233
  84                   -0.09993   6.13626
  85                   -0.10089   6.21019
  86                   -0.10182   6.28412
  87                   -0.10272   6.35805
  88                   -0.10360   6.43198
  89                   -0.10445   6.50591
  90                   -0.10528   6.57984
  91                   -0.10608   6.65377
  92                   -0.10686   6.72771
  93                   -0.10762   6.80164
  94                   -0.10835   6.87557
  95                   -0.10905   6.94950
  96                   -0.10974   7.02343
  97                   -0.11040   7.09736
  98                   -0.11104   7.17129
  99                   -0.11166   7.24523
 100                   -0.11226   7.31916
 101                   -0.11284   7.39309
 --------------------------------------------------------------------------
 
 Total number of points:                  100
 Total number of gradient calculations:   100
 Total number of Hessian calculations:      0
 IRC-IRC-IRC-IRC-IRC-IRC-IRC-IRC-IRC-IRC-IRC-IRC-IRC-IRC-IRC-IRC-IRC-IRC
 Leave Link  123 at Sun May 25 04:09:04 2025, MaxMem=  3758096384 cpu:               0.1 elap:               0.0
 (Enter /apps/easybuild-2022/easybuild/software/Compiler/NVHPC/22.11-CUDA-11.7.0/Gaussian/g16c01-CUDA-11.7.0/g16/l202.exe)
                          Input orientation:                          
 ---------------------------------------------------------------------
 Center     Atomic      Atomic             Coordinates (Angstroms)
 Number     Number       Type             X           Y           Z
 ---------------------------------------------------------------------
      1          6           0        0.972766   -0.237334   -0.105404
      2          8           0        1.421663   -1.254286    0.299749
      3          6           0       -0.546463    0.009696   -0.056163
      4          9           0       -0.572925    0.533880    1.183492
      5          9           0       -1.069082    0.909691   -0.895847
      6          9           0       -1.296210   -1.065134   -0.141871
      7          8           0        1.678304    0.873172   -0.318162
      8          1           0        1.113278    1.624965   -0.533222
 ---------------------------------------------------------------------
                    Distance matrix (angstroms):
                    1          2          3          4          5
     1  C    0.000000
     2  O    1.183152   0.000000
     3  C    1.539970   2.365977   0.000000
     4  F    2.155270   2.820802   1.346185   0.000000
     5  F    2.471763   3.509424   1.337232   2.170497   0.000000
     6  F    2.415540   2.760007   1.313288   2.199222   2.126029
     7  O    1.332769   2.230191   2.400796   2.727291   2.807701
     8  H    1.915967   3.013142   2.364618   2.642130   2.325040
                    6          7          8
     6  F    0.000000
     7  O    3.554692   0.000000
     8  H    3.632550   0.964727   0.000000
 Symmetry turned off by external request.
 Stoichiometry    C2HF3O2
 Rotational constants (GHZ):           3.9321827           2.5740872           2.1030862
 Leave Link  202 at Sun May 25 04:09:04 2025, MaxMem=  3758096384 cpu:               0.0 elap:               0.0
 (Enter /apps/easybuild-2022/easybuild/software/Compiler/NVHPC/22.11-CUDA-11.7.0/Gaussian/g16c01-CUDA-11.7.0/g16/l9999.exe)

 This type of calculation cannot be archived.


 IT IS DOUBTED WHETHER A MAN EVER BRINGS HIS FACULTIES TO BEAR WITH THEIR FULL FORCE
 ON A SUBJECT UNTIL HE WRITES UPON IT.

                          -- CICERO
 Job cpu time:       0 days  1 hours 59 minutes 14.6 seconds.
 Elapsed time:       0 days  0 hours 19 minutes 24.9 seconds.
 File lengths (MBytes):  RWF=     30 Int=      0 D2E=      0 Chk=      6 Scr=      1
 Normal termination of Gaussian 16 at Sun May 25 04:09:04 2025.
done
