 Entering Gaussian System, Link 0=g16
 Initial command:
 /apps/easybuild-2022/easybuild/software/Compiler/NVHPC/22.11-CUDA-11.7.0/Gaussian/g16c01-CUDA-11.7.0/g16/l1.exe "/tmp/Gau-271038.inp" -scrdir="/tmp/"
 Entering Link 1 = /apps/easybuild-2022/easybuild/software/Compiler/NVHPC/22.11-CUDA-11.7.0/Gaussian/g16c01-CUDA-11.7.0/g16/l1.exe PID=    271039.
  
 Copyright (c) 1988-2019, Gaussian, Inc.  All Rights Reserved.
  
 This is part of the Gaussian(R) 16 program.  It is based on
 the Gaussian(R) 09 system (copyright 2009, Gaussian, Inc.),
 the Gaussian(R) 03 system (copyright 2003, Gaussian, Inc.),
 the Gaussian(R) 98 system (copyright 1998, Gaussian, Inc.),
 the Gaussian(R) 94 system (copyright 1995, Gaussian, Inc.),
 the Gaussian 92(TM) system (copyright 1992, Gaussian, Inc.),
 the Gaussian 90(TM) system (copyright 1990, Gaussian, Inc.),
 the Gaussian 88(TM) system (copyright 1988, Gaussian, Inc.),
 the Gaussian 86(TM) system (copyright 1986, Carnegie Mellon
 University), and the Gaussian 82(TM) system (copyright 1983,
 Carnegie Mellon University). Gaussian is a federally registered
 trademark of Gaussian, Inc.
  
 This software contains proprietary and confidential information,
 including trade secrets, belonging to Gaussian, Inc.
  
 This software is provided under written license and may be
 used, copied, transmitted, or stored only in accord with that
 written license.
  
 The following legend is applicable only to US Government
 contracts under FAR:
  
                    RESTRICTED RIGHTS LEGEND
  
 Use, reproduction and disclosure by the US Government is
 subject to restrictions as set forth in subparagraphs (a)
 and (c) of the Commercial Computer Software - Restricted
 Rights clause in FAR 52.227-19.
  
 Gaussian, Inc.
 340 Quinnipiac St., Bldg. 40, Wallingford CT 06492
  
  
 ---------------------------------------------------------------
 Warning -- This program may not be used in any manner that
 competes with the business of Gaussian, Inc. or will provide
 assistance to any competitor of Gaussian, Inc.  The licensee
 of this program is prohibited from giving any competitor of
 Gaussian, Inc. access to this program.  By using this program,
 the user acknowledges that Gaussian, Inc. is engaged in the
 business of creating and licensing software in the field of
 computational chemistry and represents and warrants to the
 licensee that it is not a competitor of Gaussian, Inc. and that
 it will not use this program in any manner prohibited above.
 ---------------------------------------------------------------
  

 Cite this work as:
 Gaussian 16, Revision C.01,
 M. J. Frisch, G. W. Trucks, H. B. Schlegel, G. E. Scuseria, 
 M. A. Robb, J. R. Cheeseman, G. Scalmani, V. Barone, 
 G. A. Petersson, H. Nakatsuji, X. Li, M. Caricato, A. V. Marenich, 
 J. Bloino, B. G. Janesko, R. Gomperts, B. Mennucci, H. P. Hratchian, 
 J. V. Ortiz, A. F. Izmaylov, J. L. Sonnenberg, D. Williams-Young, 
 F. Ding, F. Lipparini, F. Egidi, J. Goings, B. Peng, A. Petrone, 
 T. Henderson, D. Ranasinghe, V. G. Zakrzewski, J. Gao, N. Rega, 
 G. Zheng, W. Liang, M. Hada, M. Ehara, K. Toyota, R. Fukuda, 
 J. Hasegawa, M. Ishida, T. Nakajima, Y. Honda, O. Kitao, H. Nakai, 
 T. Vreven, K. Throssell, J. A. Montgomery, Jr., J. E. Peralta, 
 F. Ogliaro, M. J. Bearpark, J. J. Heyd, E. N. Brothers, K. N. Kudin, 
 V. N. Staroverov, T. A. Keith, R. Kobayashi, J. Normand, 
 K. Raghavachari, A. P. Rendell, J. C. Burant, S. S. Iyengar, 
 J. Tomasi, M. Cossi, J. M. Millam, M. Klene, C. Adamo, R. Cammi, 
 J. W. Ochterski, R. L. Martin, K. Morokuma, O. Farkas, 
 J. B. Foresman, and D. J. Fox, Gaussian, Inc., Wallingford CT, 2019.
 
 ******************************************
 Gaussian 16:  ES64L-G16RevC.01  3-Jul-2019
                25-May-2025 
 ******************************************
 %mem=28GB
 %chk=1141903082400600000001_intra_H_migration_1_8
 %nprocshared=8
 Will use up to    8 processors via shared memory.
 ----------------------------------------------------------------------
 #P M062X/Def2TZVPP Symm(None) scf(xqc) pop(None) opt(NoFreeze,TS,CalcA
 ll,NoEigentest,MaxCycle=999)
 ----------------------------------------------------------------------
 1/5=1,6=999,10=4,11=1,18=20,26=3,29=2000,38=1/1,3;
 2/9=110,12=2,15=3,17=6,18=5,40=1/2;
 3/5=44,7=202,11=2,25=1,30=1,71=2,74=-55,140=1/1,2,3;
 4//1;
 5/5=2,8=3,13=1,38=5/2,8;
 8/6=4,10=90,11=11/1;
 11/6=1,8=1,9=11,15=111,16=1,31=1/1,2,10;
 10/6=1,31=1/2;
 7/10=1,25=1,30=1/1,2,3,16;
 1/5=1,6=999,10=4,11=1,18=20,26=3/3(3);
 2/9=110,15=3/2;
 7/8=1,9=1,25=1,30=1,44=-1/16;
 99//99;
 2/9=110,15=3/2;
 3/5=44,7=202,11=2,25=1,30=1,71=2,74=-55,140=1/1,2,3;
 4/5=5,16=3,69=1/1;
 5/5=2,8=3,13=1,38=5/2,8;
 8/6=4,10=90,11=11/1;
 11/6=1,8=1,9=11,15=111,16=1,31=1/1,2,10;
 10/6=1,31=1/2;
 7/10=1,25=1,30=1/1,2,3,16;
 1/5=1,6=999,10=4,11=1,18=20,26=3/3(-8);
 2/9=110,15=3/2;
 7/8=1,9=1,25=1,30=1,44=-1/16;
 99//99;
 Leave Link    1 at Sun May 25 03:53:46 2025, MaxMem=  3758096384 cpu:               0.0 elap:               0.0
 (Enter /apps/easybuild-2022/easybuild/software/Compiler/NVHPC/22.11-CUDA-11.7.0/Gaussian/g16c01-CUDA-11.7.0/g16/l101.exe)
 ------------------------------
 Gaussian input prepared by ASE
 ------------------------------
 Symbolic Z-matrix:
 Charge =  0 Multiplicity = 1
 C                     1.48112   0.284    -0.01359 
 O                     2.3726   -0.56619  -0.12039 
 C                    -0.02607   0.02452  -0.03758 
 F                    -0.54153   0.67465   1.10179 
 F                    -0.54757   0.43081  -1.09609 
 F                    -0.29445  -1.32704   0.02736 
 O                     1.93979   1.44909   0.12786 
 H                     2.93574   0.53443   0.00957 
 
 Add virtual bond connecting atoms H8         and O2         Dist= 2.35D+00.
 Add virtual bond connecting atoms H8         and O7         Dist= 2.57D+00.
 ITRead=  0  0  0  0  0  0  0  0
 MicOpt= -1 -1 -1 -1 -1 -1 -1 -1
 NAtoms=      8 NQM=        8 NQMF=       0 NMMI=      0 NMMIF=      0
                NMic=       0 NMicF=      0.
                    Isotopes and Nuclear Properties:
 (Nuclear quadrupole moments (NQMom) in fm**2, nuclear magnetic moments (NMagM)
  in nuclear magnetons)

  Atom         1           2           3           4           5           6           7           8
 IAtWgt=          12          16          12          19          19          19          16           1
 AtmWgt=  12.0000000  15.9949146  12.0000000  18.9984032  18.9984032  18.9984032  15.9949146   1.0078250
 NucSpn=           0           0           0           1           1           1           0           1
 AtZEff=  -0.0000000  -0.0000000  -0.0000000  -0.0000000  -0.0000000  -0.0000000  -0.0000000  -0.0000000
 NQMom=    0.0000000   0.0000000   0.0000000   0.0000000   0.0000000   0.0000000   0.0000000   0.0000000
 NMagM=    0.0000000   0.0000000   0.0000000   2.6288670   2.6288670   2.6288670   0.0000000   2.7928460
 AtZNuc=   6.0000000   8.0000000   6.0000000   9.0000000   9.0000000   9.0000000   8.0000000   1.0000000
 Leave Link  101 at Sun May 25 03:53:46 2025, MaxMem=  3758096384 cpu:               0.2 elap:               0.2
 (Enter /apps/easybuild-2022/easybuild/software/Compiler/NVHPC/22.11-CUDA-11.7.0/Gaussian/g16c01-CUDA-11.7.0/g16/l103.exe)

 GradGradGradGradGradGradGradGradGradGradGradGradGradGradGradGradGradGrad
 Berny optimization.
 Initialization pass.
                           ----------------------------
                           !    Initial Parameters    !
                           ! (Angstroms and Degrees)  !
 --------------------------                            --------------------------
 ! Name  Definition              Value          Derivative Info.                !
 --------------------------------------------------------------------------------
 ! R1    R(1,2)                  1.2365         calculate D2E/DX2 analytically  !
 ! R2    R(1,3)                  1.5295         calculate D2E/DX2 analytically  !
 ! R3    R(1,7)                  1.2601         calculate D2E/DX2 analytically  !
 ! R4    R(2,8)                  1.2431         calculate D2E/DX2 analytically  !
 ! R5    R(3,4)                  1.4094         calculate D2E/DX2 analytically  !
 ! R6    R(3,5)                  1.248          calculate D2E/DX2 analytically  !
 ! R7    R(3,6)                  1.3795         calculate D2E/DX2 analytically  !
 ! R8    R(7,8)                  1.3574         calculate D2E/DX2 analytically  !
 ! A1    A(2,1,3)              126.3296         calculate D2E/DX2 analytically  !
 ! A2    A(2,1,7)              112.5192         calculate D2E/DX2 analytically  !
 ! A3    A(3,1,7)              121.151          calculate D2E/DX2 analytically  !
 ! A4    A(1,2,8)               73.0717         calculate D2E/DX2 analytically  !
 ! A5    A(1,3,4)              105.6309         calculate D2E/DX2 analytically  !
 ! A6    A(1,3,5)              111.7054         calculate D2E/DX2 analytically  !
 ! A7    A(1,3,6)              110.9269         calculate D2E/DX2 analytically  !
 ! A8    A(4,3,5)              112.4985         calculate D2E/DX2 analytically  !
 ! A9    A(4,3,6)              110.0434         calculate D2E/DX2 analytically  !
 ! A10   A(5,3,6)              106.1169         calculate D2E/DX2 analytically  !
 ! A11   A(1,7,8)               68.5466         calculate D2E/DX2 analytically  !
 ! A12   A(2,8,7)              105.8621         calculate D2E/DX2 analytically  !
 ! D1    D(3,1,2,8)            180.0            calculate D2E/DX2 analytically  !
 ! D2    D(7,1,2,8)             -0.1568         calculate D2E/DX2 analytically  !
 ! D3    D(2,1,3,4)            129.2644         calculate D2E/DX2 analytically  !
 ! D4    D(2,1,3,5)           -108.1167         calculate D2E/DX2 analytically  !
 ! D5    D(2,1,3,6)             10.0541         calculate D2E/DX2 analytically  !
 ! D6    D(7,1,3,4)            -50.5664         calculate D2E/DX2 analytically  !
 ! D7    D(7,1,3,5)             72.0525         calculate D2E/DX2 analytically  !
 ! D8    D(7,1,3,6)           -169.7767         calculate D2E/DX2 analytically  !
 ! D9    D(2,1,7,8)              0.1476         calculate D2E/DX2 analytically  !
 ! D10   D(3,1,7,8)           -180.0            calculate D2E/DX2 analytically  !
 ! D11   D(1,2,8,7)              0.1397         calculate D2E/DX2 analytically  !
 ! D12   D(1,7,8,2)             -0.141          calculate D2E/DX2 analytically  !
 --------------------------------------------------------------------------------
 Trust Radius=3.00D-01 FncErr=1.00D-07 GrdErr=1.00D-06 EigMax=2.50D+02 EigMin=1.00D-04
 Number of steps in this run=    100 maximum allowed number of steps=    100.
 Search for a saddle point of order  1.
 GradGradGradGradGradGradGradGradGradGradGradGradGradGradGradGradGradGrad

 Leave Link  103 at Sun May 25 03:53:46 2025, MaxMem=  3758096384 cpu:               0.0 elap:               0.0
 (Enter /apps/easybuild-2022/easybuild/software/Compiler/NVHPC/22.11-CUDA-11.7.0/Gaussian/g16c01-CUDA-11.7.0/g16/l202.exe)
                          Input orientation:                          
 ---------------------------------------------------------------------
 Center     Atomic      Atomic             Coordinates (Angstroms)
 Number     Number       Type             X           Y           Z
 ---------------------------------------------------------------------
      1          6           0        1.481115    0.283999   -0.013589
      2          8           0        2.372598   -0.566186   -0.120393
      3          6           0       -0.026072    0.024520   -0.037580
      4          9           0       -0.541530    0.674652    1.101792
      5          9           0       -0.547567    0.430811   -1.096092
      6          9           0       -0.294447   -1.327041    0.027355
      7          8           0        1.939790    1.449091    0.127855
      8          1           0        2.935736    0.534428    0.009565
 ---------------------------------------------------------------------
                    Distance matrix (angstroms):
                    1          2          3          4          5
     1  C    0.000000
     2  O    1.236513   0.000000
     3  C    1.529548   2.471722   0.000000
     4  F    2.342601   3.394931   1.409446   0.000000
     5  F    2.304109   3.236256   1.247989   2.211377   0.000000
     6  F    2.397863   2.777383   1.379478   2.285222   2.101487
     7  O    1.260091   2.076124   2.433390   2.775835   2.953284
     8  H    1.476202   1.243127   3.005750   3.647465   3.656038
                    6          7          8
     6  F    0.000000
     7  O    3.564944   0.000000
     8  H    3.728199   1.357391   0.000000
 Symmetry turned off by external request.
 Stoichiometry    C2HF3O2
 Rotational constants (GHZ):           4.0027098           2.3881964           2.0288937
 Leave Link  202 at Sun May 25 03:53:46 2025, MaxMem=  3758096384 cpu:               0.0 elap:               0.0
 (Enter /apps/easybuild-2022/easybuild/software/Compiler/NVHPC/22.11-CUDA-11.7.0/Gaussian/g16c01-CUDA-11.7.0/g16/l301.exe)
 Standard basis: def2TZVPP (5D, 7F)
 Ernie: Thresh=  0.10000D-02 Tol=  0.10000D-05 Strict=F.
   231 basis functions,   374 primitive gaussians,   267 cartesian basis functions
    28 alpha electrons       28 beta electrons
       nuclear repulsion energy       336.7684977530 Hartrees.
 IExCor= 4336 DFT=T Ex+Corr=M062X ExCW=0 ScaHFX=  0.540000
 ScaDFX=  1.000000  1.000000  1.000000  1.000000 ScalE2=  1.000000  1.000000
 IRadAn=      5 IRanWt=     -1 IRanGd=            0 ICorTp=0 IEmpDi=  4
 NAtoms=    8 NActive=    8 NUniq=    8 SFac= 1.00D+00 NAtFMM=   60 NAOKFM=F Big=F
 Integral buffers will be    131072 words long.
 Raffenetti 2 integral format.
 Two-electron integral symmetry is turned off.
 Leave Link  301 at Sun May 25 03:53:46 2025, MaxMem=  3758096384 cpu:               0.0 elap:               0.0
 (Enter /apps/easybuild-2022/easybuild/software/Compiler/NVHPC/22.11-CUDA-11.7.0/Gaussian/g16c01-CUDA-11.7.0/g16/l302.exe)
 NPDir=0 NMtPBC=     1 NCelOv=     1 NCel=       1 NClECP=     1 NCelD=      1
         NCelK=      1 NCelE2=     1 NClLst=     1 CellRange=     0.0.
 One-electron integrals computed using PRISM.
   1 Symmetry operations used in ECPInt.
 ECPInt:  NShTT=    3486 NPrTT=   11183 LenC2=    3404 LenP2D=    8713.
 LDataN:  DoStor=T MaxTD1= 6 Len=  172
 NBasis=   231 RedAO= T EigKep=  3.44D-04  NBF=   231
 NBsUse=   231 1.00D-06 EigRej= -1.00D+00 NBFU=   231
 Precomputing XC quadrature grid using
 IXCGrd= 4 IRadAn=           5 IRanWt=          -1 IRanGd=           0 AccXCQ= 0.00D+00.
 Generated NRdTot=       0 NPtTot=           0 NUsed=           0 NTot=          32
 NSgBfM=   266   266   266   266   266 MxSgAt=     8 MxSgA2=     8.
 Leave Link  302 at Sun May 25 03:53:47 2025, MaxMem=  3758096384 cpu:               0.5 elap:               0.1
 (Enter /apps/easybuild-2022/easybuild/software/Compiler/NVHPC/22.11-CUDA-11.7.0/Gaussian/g16c01-CUDA-11.7.0/g16/l303.exe)
 DipDrv:  MaxL=1.
 Leave Link  303 at Sun May 25 03:53:47 2025, MaxMem=  3758096384 cpu:               0.1 elap:               0.0
 (Enter /apps/easybuild-2022/easybuild/software/Compiler/NVHPC/22.11-CUDA-11.7.0/Gaussian/g16c01-CUDA-11.7.0/g16/l401.exe)
 ExpMin= 9.52D-02 ExpMax= 3.55D+04 ExpMxC= 1.21D+03 IAcc=3 IRadAn=         5 AccDes= 0.00D+00
 Harris functional with IExCor= 1009 and IRadAn=       5 diagonalized for initial guess.
 HarFok:  IExCor= 1009 AccDes= 0.00D+00 IRadAn=         5 IDoV= 1 UseB2=F ITyADJ=14
 ICtDFT=  3500011 ScaDFX=  1.000000  1.000000  1.000000  1.000000
 FoFCou: FMM=F IPFlag=           0 FMFlag=      100000 FMFlg1=           0
         NFxFlg=           0 DoJE=T BraDBF=F KetDBF=T FulRan=T
         wScrn=  0.000000 ICntrl=       500 IOpCl=  0 I1Cent=   200000004 NGrid=           0
         NMat0=    1 NMatS0=      1 NMatT0=    0 NMatD0=    1 NMtDS0=    0 NMtDT0=    0
 Symmetry not used in FoFCou.
 Harris En= -526.480387876765    
 JPrj=0 DoOrth=F DoCkMO=F.
 Leave Link  401 at Sun May 25 03:53:47 2025, MaxMem=  3758096384 cpu:               2.0 elap:               0.3
 (Enter /apps/easybuild-2022/easybuild/software/Compiler/NVHPC/22.11-CUDA-11.7.0/Gaussian/g16c01-CUDA-11.7.0/g16/l502.exe)
 Keep R1 ints in memory in canonical form, NReq=368651279.
 FoFCou: FMM=F IPFlag=           0 FMFlag=           0 FMFlg1=           0
         NFxFlg=           0 DoJE=F BraDBF=F KetDBF=F FulRan=T
         wScrn=  0.000000 ICntrl=       600 IOpCl=  0 I1Cent=           0 NGrid=           0
         NMat0=    1 NMatS0=  26796 NMatT0=    0 NMatD0=    1 NMtDS0=    0 NMtDT0=    0
 Symmetry not used in FoFCou.
 Two-electron integral symmetry not used.
 Closed shell SCF:
 Using DIIS extrapolation, IDIIS=  1040.
 NGot=  3758096384 LenX=  3398923531 LenY=  3398851801
 Requested convergence on RMS density matrix=1.00D-08 within  32 cycles.
 Requested convergence on MAX density matrix=1.00D-06.
 Requested convergence on             energy=1.00D-06.
 No special actions if energy rises.
 Integral accuracy reduced to 1.0D-05 until final iterations.

 Cycle   1  Pass 0  IDiag  1:
 E= -526.639023121323    
 DIIS: error= 2.76D-02 at cycle   1 NSaved=   1.
 NSaved= 1 IEnMin= 1 EnMin= -526.639023121323     IErMin= 1 ErrMin= 2.76D-02
 ErrMax= 2.76D-02  0.00D+00 EMaxC= 1.00D-01 BMatC= 2.69D-01 BMatP= 2.69D-01
 IDIUse=3 WtCom= 7.24D-01 WtEn= 2.76D-01
 Coeff-Com:  0.100D+01
 Coeff-En:   0.100D+01
 Coeff:      0.100D+01
 Gap=     0.323 Goal=   None    Shift=    0.000
 GapD=    0.323 DampG=1.000 DampE=0.500 DampFc=0.5000 IDamp=-1.
 Damping current iteration by 5.00D-01
 RMSDP=2.21D-03 MaxDP=7.39D-02              OVMax= 1.26D-01

 Cycle   2  Pass 0  IDiag  1:
 E= -526.695801015982     Delta-E=       -0.056777894658 Rises=F Damp=T
 DIIS: error= 8.32D-03 at cycle   2 NSaved=   2.
 NSaved= 2 IEnMin= 2 EnMin= -526.695801015982     IErMin= 2 ErrMin= 8.32D-03
 ErrMax= 8.32D-03  0.00D+00 EMaxC= 1.00D-01 BMatC= 2.60D-02 BMatP= 2.69D-01
 IDIUse=3 WtCom= 9.17D-01 WtEn= 8.32D-02
 Coeff-Com:  0.394D-01 0.961D+00
 Coeff-En:   0.168D+00 0.832D+00
 Coeff:      0.501D-01 0.950D+00
 Gap=     0.411 Goal=   None    Shift=    0.000
 RMSDP=6.50D-04 MaxDP=1.84D-02 DE=-5.68D-02 OVMax= 7.05D-02

 Cycle   3  Pass 0  IDiag  1:
 E= -526.772641559555     Delta-E=       -0.076840543574 Rises=F Damp=F
 DIIS: error= 4.28D-03 at cycle   3 NSaved=   3.
 NSaved= 3 IEnMin= 3 EnMin= -526.772641559555     IErMin= 3 ErrMin= 4.28D-03
 ErrMax= 4.28D-03  0.00D+00 EMaxC= 1.00D-01 BMatC= 5.20D-03 BMatP= 2.60D-02
 IDIUse=3 WtCom= 9.57D-01 WtEn= 4.28D-02
 Coeff-Com: -0.757D-01 0.251D+00 0.825D+00
 Coeff-En:   0.000D+00 0.000D+00 0.100D+01
 Coeff:     -0.724D-01 0.240D+00 0.832D+00
 Gap=     0.397 Goal=   None    Shift=    0.000
 RMSDP=2.59D-04 MaxDP=9.62D-03 DE=-7.68D-02 OVMax= 2.70D-02

 Cycle   4  Pass 0  IDiag  1:
 E= -526.774774726844     Delta-E=       -0.002133167288 Rises=F Damp=F
 DIIS: error= 4.68D-03 at cycle   4 NSaved=   4.
 NSaved= 4 IEnMin= 4 EnMin= -526.774774726844     IErMin= 3 ErrMin= 4.28D-03
 ErrMax= 4.68D-03  0.00D+00 EMaxC= 1.00D-01 BMatC= 2.25D-03 BMatP= 5.20D-03
 IDIUse=3 WtCom= 9.53D-01 WtEn= 4.68D-02
 Coeff-Com: -0.436D-01 0.887D-01 0.487D+00 0.468D+00
 Coeff-En:   0.000D+00 0.000D+00 0.285D+00 0.715D+00
 Coeff:     -0.416D-01 0.845D-01 0.478D+00 0.479D+00
 Gap=     0.401 Goal=   None    Shift=    0.000
 RMSDP=1.09D-04 MaxDP=4.94D-03 DE=-2.13D-03 OVMax= 1.60D-02

 Cycle   5  Pass 0  IDiag  1:
 E= -526.776220350380     Delta-E=       -0.001445623536 Rises=F Damp=F
 DIIS: error= 1.21D-03 at cycle   5 NSaved=   5.
 NSaved= 5 IEnMin= 5 EnMin= -526.776220350380     IErMin= 5 ErrMin= 1.21D-03
 ErrMax= 1.21D-03  0.00D+00 EMaxC= 1.00D-01 BMatC= 1.48D-04 BMatP= 2.25D-03
 IDIUse=3 WtCom= 9.88D-01 WtEn= 1.21D-02
 Coeff-Com: -0.168D-01 0.269D-01 0.199D+00 0.269D+00 0.522D+00
 Coeff-En:   0.000D+00 0.000D+00 0.000D+00 0.000D+00 0.100D+01
 Coeff:     -0.166D-01 0.266D-01 0.196D+00 0.266D+00 0.528D+00
 Gap=     0.401 Goal=   None    Shift=    0.000
 RMSDP=2.92D-05 MaxDP=1.01D-03 DE=-1.45D-03 OVMax= 3.44D-03

 Cycle   6  Pass 0  IDiag  1:
 E= -526.776324557334     Delta-E=       -0.000104206954 Rises=F Damp=F
 DIIS: error= 1.17D-04 at cycle   6 NSaved=   6.
 NSaved= 6 IEnMin= 6 EnMin= -526.776324557334     IErMin= 6 ErrMin= 1.17D-04
 ErrMax= 1.17D-04  0.00D+00 EMaxC= 1.00D-01 BMatC= 2.35D-06 BMatP= 1.48D-04
 IDIUse=3 WtCom= 9.99D-01 WtEn= 1.17D-03
 Coeff-Com: -0.662D-03-0.459D-04 0.425D-02 0.180D-01 0.118D+00 0.860D+00
 Coeff-En:   0.000D+00 0.000D+00 0.000D+00 0.000D+00 0.000D+00 0.100D+01
 Coeff:     -0.661D-03-0.459D-04 0.425D-02 0.180D-01 0.118D+00 0.860D+00
 Gap=     0.401 Goal=   None    Shift=    0.000
 RMSDP=5.96D-06 MaxDP=1.16D-04 DE=-1.04D-04 OVMax= 3.25D-04

 Initial convergence to 1.0D-05 achieved.  Increase integral accuracy.
 Cycle   7  Pass 1  IDiag  1:
 E= -526.776325235385     Delta-E=       -0.000000678050 Rises=F Damp=F
 DIIS: error= 3.04D-05 at cycle   1 NSaved=   1.
 NSaved= 1 IEnMin= 1 EnMin= -526.776325235385     IErMin= 1 ErrMin= 3.04D-05
 ErrMax= 3.04D-05  0.00D+00 EMaxC= 1.00D-01 BMatC= 5.04D-07 BMatP= 5.04D-07
 IDIUse=1 WtCom= 1.00D+00 WtEn= 0.00D+00
 Coeff-Com:  0.100D+01
 Coeff:      0.100D+01
 Gap=     0.401 Goal=   None    Shift=    0.000
 RMSDP=5.96D-06 MaxDP=1.16D-04 DE=-6.78D-07 OVMax= 1.61D-04

 Cycle   8  Pass 1  IDiag  1:
 E= -526.776325412261     Delta-E=       -0.000000176877 Rises=F Damp=F
 DIIS: error= 2.76D-05 at cycle   2 NSaved=   2.
 NSaved= 2 IEnMin= 2 EnMin= -526.776325412261     IErMin= 2 ErrMin= 2.76D-05
 ErrMax= 2.76D-05  0.00D+00 EMaxC= 1.00D-01 BMatC= 3.37D-07 BMatP= 5.04D-07
 IDIUse=1 WtCom= 1.00D+00 WtEn= 0.00D+00
 Coeff-Com:  0.441D+00 0.559D+00
 Coeff:      0.441D+00 0.559D+00
 Gap=     0.401 Goal=   None    Shift=    0.000
 RMSDP=1.53D-06 MaxDP=5.54D-05 DE=-1.77D-07 OVMax= 7.53D-05

 Cycle   9  Pass 1  IDiag  1:
 E= -526.776325593444     Delta-E=       -0.000000181182 Rises=F Damp=F
 DIIS: error= 6.53D-06 at cycle   3 NSaved=   3.
 NSaved= 3 IEnMin= 3 EnMin= -526.776325593444     IErMin= 3 ErrMin= 6.53D-06
 ErrMax= 6.53D-06  0.00D+00 EMaxC= 1.00D-01 BMatC= 1.98D-08 BMatP= 3.37D-07
 IDIUse=1 WtCom= 1.00D+00 WtEn= 0.00D+00
 Coeff-Com: -0.119D-01 0.175D+00 0.837D+00
 Coeff:     -0.119D-01 0.175D+00 0.837D+00
 Gap=     0.401 Goal=   None    Shift=    0.000
 RMSDP=6.14D-07 MaxDP=2.49D-05 DE=-1.81D-07 OVMax= 3.83D-05

 Cycle  10  Pass 1  IDiag  1:
 E= -526.776325604462     Delta-E=       -0.000000011018 Rises=F Damp=F
 DIIS: error= 4.08D-06 at cycle   4 NSaved=   4.
 NSaved= 4 IEnMin= 4 EnMin= -526.776325604462     IErMin= 4 ErrMin= 4.08D-06
 ErrMax= 4.08D-06  0.00D+00 EMaxC= 1.00D-01 BMatC= 2.84D-09 BMatP= 1.98D-08
 IDIUse=1 WtCom= 1.00D+00 WtEn= 0.00D+00
 Coeff-Com: -0.259D-01 0.609D-01 0.412D+00 0.553D+00
 Coeff:     -0.259D-01 0.609D-01 0.412D+00 0.553D+00
 Gap=     0.401 Goal=   None    Shift=    0.000
 RMSDP=1.65D-07 MaxDP=6.85D-06 DE=-1.10D-08 OVMax= 1.73D-05

 Cycle  11  Pass 1  IDiag  1:
 E= -526.776325606179     Delta-E=       -0.000000001717 Rises=F Damp=F
 DIIS: error= 2.59D-06 at cycle   5 NSaved=   5.
 NSaved= 5 IEnMin= 5 EnMin= -526.776325606179     IErMin= 5 ErrMin= 2.59D-06
 ErrMax= 2.59D-06  0.00D+00 EMaxC= 1.00D-01 BMatC= 4.72D-10 BMatP= 2.84D-09
 IDIUse=1 WtCom= 1.00D+00 WtEn= 0.00D+00
 Coeff-Com: -0.119D-01 0.494D-02 0.909D-01 0.300D+00 0.616D+00
 Coeff:     -0.119D-01 0.494D-02 0.909D-01 0.300D+00 0.616D+00
 Gap=     0.401 Goal=   None    Shift=    0.000
 RMSDP=6.53D-08 MaxDP=2.87D-06 DE=-1.72D-09 OVMax= 9.96D-06

 Cycle  12  Pass 1  IDiag  1:
 E= -526.776325606528     Delta-E=       -0.000000000349 Rises=F Damp=F
 DIIS: error= 3.35D-07 at cycle   6 NSaved=   6.
 NSaved= 6 IEnMin= 6 EnMin= -526.776325606528     IErMin= 6 ErrMin= 3.35D-07
 ErrMax= 3.35D-07  0.00D+00 EMaxC= 1.00D-01 BMatC= 4.85D-11 BMatP= 4.72D-10
 IDIUse=1 WtCom= 1.00D+00 WtEn= 0.00D+00
 Coeff-Com:  0.150D-03-0.968D-02-0.396D-01 0.158D-01 0.263D+00 0.770D+00
 Coeff:      0.150D-03-0.968D-02-0.396D-01 0.158D-01 0.263D+00 0.770D+00
 Gap=     0.401 Goal=   None    Shift=    0.000
 RMSDP=2.65D-08 MaxDP=7.84D-07 DE=-3.49D-10 OVMax= 2.87D-06

 Cycle  13  Pass 1  IDiag  1:
 E= -526.776325606564     Delta-E=       -0.000000000036 Rises=F Damp=F
 DIIS: error= 1.40D-07 at cycle   7 NSaved=   7.
 NSaved= 7 IEnMin= 7 EnMin= -526.776325606564     IErMin= 7 ErrMin= 1.40D-07
 ErrMax= 1.40D-07  0.00D+00 EMaxC= 1.00D-01 BMatC= 5.18D-12 BMatP= 4.85D-11
 IDIUse=1 WtCom= 1.00D+00 WtEn= 0.00D+00
 Coeff-Com:  0.103D-02-0.519D-02-0.270D-01-0.193D-01 0.755D-01 0.345D+00
 Coeff-Com:  0.630D+00
 Coeff:      0.103D-02-0.519D-02-0.270D-01-0.193D-01 0.755D-01 0.345D+00
 Coeff:      0.630D+00
 Gap=     0.401 Goal=   None    Shift=    0.000
 RMSDP=7.26D-09 MaxDP=2.63D-07 DE=-3.59D-11 OVMax= 8.70D-07

 SCF Done:  E(RM062X) =  -526.776325607     A.U. after   13 cycles
            NFock= 13  Conv=0.73D-08     -V/T= 2.0037
 KE= 5.248135177148D+02 PE=-1.921048105191D+03 EE= 5.326897641164D+02
 Leave Link  502 at Sun May 25 03:53:55 2025, MaxMem=  3758096384 cpu:              43.6 elap:               8.4
 (Enter /apps/easybuild-2022/easybuild/software/Compiler/NVHPC/22.11-CUDA-11.7.0/Gaussian/g16c01-CUDA-11.7.0/g16/l508.exe)
 QCSCF skips out because SCF is already converged.
 Leave Link  508 at Sun May 25 03:53:55 2025, MaxMem=  3758096384 cpu:               0.0 elap:               0.0
 (Enter /apps/easybuild-2022/easybuild/software/Compiler/NVHPC/22.11-CUDA-11.7.0/Gaussian/g16c01-CUDA-11.7.0/g16/l801.exe)
 DoSCS=F DFT=T ScalE2(SS,OS)=  1.000000  1.000000
 Range of M.O.s used for correlation:     1   231
 NBasis=   231 NAE=    28 NBE=    28 NFC=     0 NFV=     0
 NROrb=    231 NOA=    28 NOB=    28 NVA=   203 NVB=   203

 **** Warning!!: The largest alpha MO coefficient is  0.15523797D+02

 Leave Link  801 at Sun May 25 03:53:55 2025, MaxMem=  3758096384 cpu:               0.0 elap:               0.0
 (Enter /apps/easybuild-2022/easybuild/software/Compiler/NVHPC/22.11-CUDA-11.7.0/Gaussian/g16c01-CUDA-11.7.0/g16/l1101.exe)
 Using compressed storage, NAtomX=     8.
 Will process      9 centers per pass.
   1 Symmetry operations used in ECPInt.
 ECPInt:  NShTT=    3486 NPrTT=   11183 LenC2=    3404 LenP2D=    8713.
 LDataN:  DoStor=T MaxTD1= 7 Len=  274
 Leave Link 1101 at Sun May 25 03:53:55 2025, MaxMem=  3758096384 cpu:               0.6 elap:               0.1
 (Enter /apps/easybuild-2022/easybuild/software/Compiler/NVHPC/22.11-CUDA-11.7.0/Gaussian/g16c01-CUDA-11.7.0/g16/l1102.exe)
 Symmetrizing basis deriv contribution to polar:
 IMax=3 JMax=2 DiffMx= 0.00D+00
 Leave Link 1102 at Sun May 25 03:53:56 2025, MaxMem=  3758096384 cpu:               0.1 elap:               0.0
 (Enter /apps/easybuild-2022/easybuild/software/Compiler/NVHPC/22.11-CUDA-11.7.0/Gaussian/g16c01-CUDA-11.7.0/g16/l1110.exe)
 Forming Gx(P) for the SCF density, NAtomX=     8.
 Integral derivatives from FoFJK, PRISM(SPDF).
 Do as many integral derivatives as possible in FoFJK.
 G2DrvN: MDV=    3758095424.
 G2DrvN: will do     9 centers at a time, making    1 passes.
 Calling FoFCou, ICntrl=  3107 FMM=F I1Cent=   0 AccDes= 0.00D+00.
 FoFJK:  IHMeth= 1 ICntrl=    3107 DoSepK=F KAlg= 0 I1Cent=           0 FoldK=F
 IRaf=         0 NMat=       1 IRICut=       1 DoRegI=T DoRafI=F ISym2E= 0 IDoP0=0 IntGTp=1.
 FoFCou: FMM=F IPFlag=           0 FMFlag=      100000 FMFlg1=           0
         NFxFlg=           0 DoJE=F BraDBF=F KetDBF=F FulRan=T
         wScrn=  0.000000 ICntrl=      3107 IOpCl=  0 I1Cent=           0 NGrid=           0
         NMat0=    1 NMatS0=      1 NMatT0=    0 NMatD0=    1 NMtDS0=    0 NMtDT0=    0
 Symmetry not used in FoFCou.
 End of G2Drv F.D. properties file   721 does not exist.
 End of G2Drv F.D. properties file   722 does not exist.
 End of G2Drv F.D. properties file   788 does not exist.
 Leave Link 1110 at Sun May 25 03:54:10 2025, MaxMem=  3758096384 cpu:             114.2 elap:              14.4
 (Enter /apps/easybuild-2022/easybuild/software/Compiler/NVHPC/22.11-CUDA-11.7.0/Gaussian/g16c01-CUDA-11.7.0/g16/l1002.exe)
 Minotr:  Closed shell wavefunction.
          IDoAtm=11111111
          Direct CPHF calculation.
          Differentiating once with respect to electric field.
                with respect to dipole field.
          Differentiating once with respect to nuclear coordinates.
          Requested convergence is 1.0D-08 RMS, and 1.0D-07 maximum.
          Secondary convergence is 1.0D-12 RMS, and 1.0D-12 maximum.
          NewPWx=T KeepS1=F KeepF1=F KeepIn=T MapXYZ=F SortEE=F KeepMc=T.
         2392 words used for storage of precomputed grid.
 Keep R1 ints in memory in canonical form, NReq=368655240.
 FoFCou: FMM=F IPFlag=           0 FMFlag=           0 FMFlg1=           0
         NFxFlg=           0 DoJE=F BraDBF=F KetDBF=F FulRan=T
         wScrn=  0.000000 ICntrl=       600 IOpCl=  0 I1Cent=           0 NGrid=           0
         NMat0=    1 NMatS0=  26796 NMatT0=    0 NMatD0=    1 NMtDS0=    0 NMtDT0=    0
 Symmetry not used in FoFCou.
 Two-electron integral symmetry not used.
          MDV=    3758096384 using IRadAn=       1.
          Solving linear equations simultaneously, MaxMat=       0.
          There are    27 degrees of freedom in the 1st order CPHF.  IDoFFX=6 NUNeed=     3.
     24 vectors produced by pass  0 Test12= 2.11D-14 3.70D-09 XBig12= 1.75D+01 2.43D+00.
 AX will form    24 AO Fock derivatives at one time.
     24 vectors produced by pass  1 Test12= 2.11D-14 3.70D-09 XBig12= 4.70D+00 3.74D-01.
     24 vectors produced by pass  2 Test12= 2.11D-14 3.70D-09 XBig12= 8.70D-02 5.76D-02.
     24 vectors produced by pass  3 Test12= 2.11D-14 3.70D-09 XBig12= 1.93D-03 9.22D-03.
     24 vectors produced by pass  4 Test12= 2.11D-14 3.70D-09 XBig12= 2.88D-05 6.46D-04.
     24 vectors produced by pass  5 Test12= 2.11D-14 3.70D-09 XBig12= 2.95D-07 8.02D-05.
     24 vectors produced by pass  6 Test12= 2.11D-14 3.70D-09 XBig12= 1.46D-09 8.20D-06.
     11 vectors produced by pass  7 Test12= 2.11D-14 3.70D-09 XBig12= 5.66D-12 3.34D-07.
      3 vectors produced by pass  8 Test12= 2.11D-14 3.70D-09 XBig12= 2.01D-14 1.86D-08.
 InvSVY:  IOpt=1 It=  1 EMax= 2.66D-15
 Solved reduced A of dimension   182 with    27 vectors.
 FullF1:  Do perturbations      1 to       3.
 Isotropic polarizability for W=    0.000000       32.46 Bohr**3.
 End of Minotr F.D. properties file   721 does not exist.
 End of Minotr F.D. properties file   722 does not exist.
 End of Minotr F.D. properties file   788 does not exist.
 Leave Link 1002 at Sun May 25 03:54:30 2025, MaxMem=  3758096384 cpu:             161.5 elap:              20.5
 (Enter /apps/easybuild-2022/easybuild/software/Compiler/NVHPC/22.11-CUDA-11.7.0/Gaussian/g16c01-CUDA-11.7.0/g16/l701.exe)
 ... and contract with generalized density number  0.
 Compute integral second derivatives.
   1 Symmetry operations used in ECPInt.
 ECPInt:  NShTT=    3486 NPrTT=   11183 LenC2=    3404 LenP2D=    8713.
 LDataN:  DoStor=T MaxTD1= 8 Len=  415
 Leave Link  701 at Sun May 25 03:54:31 2025, MaxMem=  3758096384 cpu:               0.6 elap:               0.1
 (Enter /apps/easybuild-2022/easybuild/software/Compiler/NVHPC/22.11-CUDA-11.7.0/Gaussian/g16c01-CUDA-11.7.0/g16/l702.exe)
 L702 exits ... SP integral derivatives will be done elsewhere.
 Leave Link  702 at Sun May 25 03:54:31 2025, MaxMem=  3758096384 cpu:               0.0 elap:               0.0
 (Enter /apps/easybuild-2022/easybuild/software/Compiler/NVHPC/22.11-CUDA-11.7.0/Gaussian/g16c01-CUDA-11.7.0/g16/l703.exe)
 Integral derivatives from FoFJK, PRISM(SPDF).
 Compute integral second derivatives, UseDBF=F ICtDFT=           0.
 Calling FoFJK, ICntrl=    100127 FMM=F ISym2X=0 I1Cent= 0 IOpClX= 0 NMat=1 NMatS=1 NMatT=0.
 FoFJK:  IHMeth= 1 ICntrl=  100127 DoSepK=F KAlg= 0 I1Cent=           0 FoldK=F
 IRaf=         0 NMat=       1 IRICut=       1 DoRegI=T DoRafI=F ISym2E= 0 IDoP0=0 IntGTp=1.
 FoFCou: FMM=F IPFlag=           0 FMFlag=      100000 FMFlg1=         800
         NFxFlg=           0 DoJE=F BraDBF=F KetDBF=F FulRan=T
         wScrn=  0.000000 ICntrl=    100127 IOpCl=  0 I1Cent=           0 NGrid=           0
         NMat0=    1 NMatS0=      1 NMatT0=    0 NMatD0=    1 NMtDS0=    0 NMtDT0=    0
 Symmetry not used in FoFCou.
 Leave Link  703 at Sun May 25 03:55:06 2025, MaxMem=  3758096384 cpu:             283.2 elap:              35.7
 (Enter /apps/easybuild-2022/easybuild/software/Compiler/NVHPC/22.11-CUDA-11.7.0/Gaussian/g16c01-CUDA-11.7.0/g16/l716.exe)
 Dipole        = 2.27135803D-01-2.65026731D-02-2.52119289D-01
 Polarizability= 3.52053411D+01 1.81362577D-01 3.62540453D+01
                -4.16466453D-01 1.92671215D+00 2.59290436D+01
 -------------------------------------------------------------------
 Center     Atomic                   Forces (Hartrees/Bohr)
 Number     Number              X              Y              Z
 -------------------------------------------------------------------
      1        6          -0.015056342    0.039335327    0.009205799
      2        8           0.023896762   -0.020847309   -0.003328009
      3        6           0.012421307   -0.041604702    0.080877048
      4        9           0.011151378   -0.029070910   -0.046042858
      5        9          -0.031265484    0.034036345   -0.048467993
      6        9           0.008072324    0.036043370    0.011859087
      7        8          -0.012242661   -0.005910364   -0.002529352
      8        1           0.003022715   -0.011981758   -0.001573721
 -------------------------------------------------------------------
 Cartesian Forces:  Max     0.080877048 RMS     0.029387969
 Force constants in Cartesian coordinates: 
                1             2             3             4             5 
      1  0.922075D+00
      2 -0.521295D-01  0.800007D+00
      3 -0.470143D-02  0.705526D-01  0.237260D+00
      4 -0.375734D+00  0.204328D+00  0.265650D-01  0.352035D+00
      5  0.283785D+00 -0.391771D+00 -0.403945D-01 -0.347103D+00  0.563248D+00
      6  0.354310D-01 -0.392782D-01 -0.731238D-01 -0.437461D-01  0.637114D-01
      7 -0.226243D+00 -0.341200D-01  0.314892D-02 -0.211354D-02 -0.261943D-02
      8 -0.287340D-01 -0.604227D-01  0.548247D-02  0.272198D-01 -0.458339D-02
      9 -0.317374D-02  0.546718D-02 -0.719412D-01  0.350908D-02 -0.196112D-02
     10 -0.106031D-01  0.221712D-01  0.373683D-01 -0.924260D-02 -0.227720D-02
     11  0.592590D-03 -0.364682D-02 -0.115263D-01  0.142217D-02  0.425010D-02
     12  0.907761D-02 -0.182701D-01 -0.172190D-01  0.694362D-02  0.397218D-02
     13 -0.126246D-01  0.225151D-01 -0.509119D-01 -0.882043D-02 -0.288059D-02
     14  0.212172D-03  0.592749D-02  0.538606D-02 -0.541210D-03  0.186589D-02
     15 -0.116788D-01  0.134825D-01 -0.179574D-01 -0.673448D-02 -0.269597D-02
     16  0.141516D-02 -0.348553D-01  0.227464D-02 -0.111381D-02  0.690773D-03
     17  0.254430D-02 -0.327346D-01  0.917842D-03 -0.103708D-02  0.808904D-02
     18  0.470694D-03  0.875243D-03  0.730070D-02 -0.263444D-03  0.514597D-04
     19 -0.195225D+00 -0.786603D-01 -0.869456D-02  0.100157D+00  0.955804D-01
     20 -0.147965D+00 -0.475484D+00 -0.466285D-01  0.283634D-01 -0.167393D+00
     21 -0.184322D-01 -0.487758D-01 -0.931900D-01  0.299840D-02 -0.267005D-01
     22 -0.103060D+00 -0.492495D-01 -0.504896D-02 -0.551681D-01 -0.251761D-01
     23 -0.583055D-01  0.158123D+00  0.162102D-01  0.873478D-01 -0.137057D-01
     24 -0.699319D-02  0.159466D-01  0.288712D-01  0.107279D-01  0.401701D-02
                6             7             8             9            10 
      6  0.541698D-01
      7 -0.892057D-03  0.645238D+00
      8 -0.102797D-02 -0.179566D-01  0.459687D+00
      9  0.105506D-01  0.156241D+00 -0.117363D+00  0.635817D+00
     10 -0.234001D-02 -0.124129D+00  0.164639D-01  0.380836D-01  0.112974D+00
     11  0.967953D-03  0.242647D-01 -0.905908D-01 -0.214822D-01 -0.335364D-01
     12  0.932069D-03  0.390997D-01 -0.139669D-01 -0.112669D+00 -0.623716D-01
     13  0.329055D-02 -0.187116D+00  0.708974D-01 -0.195673D+00  0.227271D-01
     14 -0.442648D-03  0.740705D-01 -0.107429D+00  0.130098D+00 -0.670452D-02
     15  0.804960D-03 -0.198998D+00  0.130537D+00 -0.398027D+00 -0.591604D-02
     16 -0.665902D-04 -0.107863D+00 -0.401468D-01  0.211850D-02  0.122176D-01
     17  0.301146D-03 -0.491743D-01 -0.182985D+00  0.850887D-02  0.443200D-02
     18 -0.334090D-03  0.516085D-03  0.139169D-02 -0.790430D-01 -0.259316D-02
     19  0.112393D-01  0.549830D-02 -0.265516D-01 -0.112193D-02 -0.382415D-02
     20 -0.280445D-01  0.500566D-02 -0.160619D-01 -0.306443D-02 -0.212718D-02
     21  0.525641D-01  0.760310D-03 -0.413409D-02  0.591704D-02 -0.955402D-03
     22 -0.291609D-02 -0.327168D-02 -0.119212D-02  0.168036D-04 -0.119880D-03
     23  0.381277D-02  0.529354D-03  0.238622D-02 -0.202601D-03  0.157816D-02
     24 -0.455635D-01  0.124489D-03 -0.919174D-03  0.939566D-02 -0.127569D-02
               11            12            13            14            15 
     11  0.113284D+00
     12  0.660801D-01  0.198524D+00
     13 -0.623474D-02  0.520624D-02  0.169769D+00
     14  0.144475D-01 -0.123593D-01 -0.913659D-01  0.148617D+00
     15 -0.412382D-02 -0.710873D-01  0.233028D+00 -0.186281D+00  0.499227D+00
     16  0.133239D-01  0.106483D-02  0.203515D-01  0.217083D-01 -0.679206D-02
     17 -0.395009D-01 -0.257505D-01  0.992265D-02 -0.654064D-01  0.507632D-01
     18 -0.332952D-01 -0.155766D-02 -0.102920D-02  0.646074D-01 -0.163522D-01
     19 -0.922173D-03  0.138293D-03 -0.364038D-02  0.196714D-02 -0.192726D-02
     20  0.421480D-02  0.319670D-02 -0.373714D-02  0.266748D-02 -0.313364D-02
     21  0.290386D-02  0.322046D-02  0.348304D-02 -0.627059D-03  0.285423D-02
     22  0.108985D-02  0.841270D-03 -0.646693D-03  0.653607D-03 -0.981584D-03
     23 -0.245821D-02 -0.290218D-02  0.883244D-03 -0.690081D-03  0.145203D-02
     24  0.475523D-03 -0.143618D-03  0.260589D-02 -0.380558D-03  0.537448D-03
               16            17            18            19            20 
     16  0.845172D-01
     17  0.441929D-01  0.315463D+00
     18  0.273585D-02 -0.340291D-01  0.903515D-01
     19 -0.105496D-01 -0.115959D-01  0.243476D-03  0.118475D+00
     20 -0.318256D-02  0.323056D-02  0.312003D-03  0.112603D+00  0.683156D+00
     21 -0.877682D-03  0.271199D-03  0.150264D-03  0.115328D-01  0.771671D-01
     22  0.102444D-02  0.715371D-03 -0.803091D-04 -0.108911D-01  0.110401D-01
     23 -0.173121D-02 -0.615514D-02  0.863746D-04 -0.924206D-01 -0.343299D-01
     24 -0.457495D-03 -0.982742D-03 -0.515495D-03 -0.114101D-01  0.195213D-03
               21            22            23            24 
     21  0.640989D-01
     22  0.149067D-02  0.172133D+00
     23 -0.104736D-03  0.621188D-01 -0.103171D+00
     24 -0.356150D-01  0.667821D-02 -0.183519D-01  0.430334D-01
 FormGI is forming the generalized inverse of G from B-inverse, IUseBI=4.
 Force constants in internal coordinates: 
                1             2             3             4             5 
      1  0.501622D+00
      2  0.118446D-01  0.290916D+00
      3  0.381202D-02  0.142819D-01  0.428535D+00
      4  0.124456D+00 -0.189945D-02  0.397112D-01  0.355738D-01
      5  0.444613D-02  0.197610D-01  0.539828D-02 -0.275636D-02  0.266424D+00
      6  0.548784D-02  0.276704D-01  0.587728D-02 -0.155805D-02  0.511403D-01
      7  0.527162D-02  0.167119D-01  0.471227D-02  0.348397D-02  0.386081D-01
      8  0.604971D-01 -0.160428D-02  0.118252D+00  0.123169D+00  0.182412D-02
      9  0.571620D-01  0.698456D-02  0.147957D-01 -0.921359D-02  0.115196D-01
     10 -0.831583D-01 -0.176278D-01 -0.672703D-01  0.423379D-02 -0.578212D-02
     11  0.259973D-01  0.106473D-01  0.524754D-01  0.497963D-02 -0.574300D-02
     12 -0.991785D-01  0.879727D-02  0.520639D-01 -0.683662D-02  0.330291D-02
     13  0.893871D-02  0.197737D-01  0.486200D-03 -0.127919D-02  0.300467D-01
     14  0.574599D-02  0.149523D-01  0.633114D-03 -0.856712D-03 -0.241045D-01
     15 -0.297204D-02  0.159822D-01  0.130569D-01  0.397029D-03 -0.236511D-01
     16 -0.399859D-02 -0.153032D-01 -0.429514D-02  0.831485D-03  0.121183D-01
     17 -0.426494D-02 -0.184300D-01 -0.460955D-02  0.556152D-03  0.879540D-02
     18 -0.373097D-02 -0.169678D-01 -0.489937D-02  0.393107D-03 -0.391919D-02
     19  0.717481D-01  0.786498D-02 -0.831615D-01 -0.647866D-02  0.162054D-02
     20  0.110589D+00  0.966673D-03  0.983685D-01  0.908166D-02  0.857009D-03
     21 -0.159588D-03 -0.143591D-02 -0.100109D-03  0.564290D-04  0.195213D-02
     22  0.250956D-03  0.275115D-03  0.306080D-03 -0.561629D-05 -0.365472D-03
     23 -0.210855D-02 -0.137749D-02  0.237304D-02  0.383953D-05 -0.197206D-02
     24  0.218691D-02  0.152331D-02 -0.220413D-02 -0.313233D-03  0.183169D-01
     25 -0.731632D-03  0.378526D-03  0.622566D-03 -0.113248D-03 -0.177225D-01
     26 -0.240347D-02 -0.318377D-02  0.211063D-02  0.745155D-04  0.526377D-03
     27  0.189198D-02 -0.282972D-03 -0.246655D-02 -0.242557D-03  0.208153D-01
     28 -0.102656D-02 -0.142776D-02  0.360152D-03 -0.425724D-04 -0.152240D-01
     29 -0.310897D-03 -0.260518D-03 -0.238346D-03 -0.781827D-04  0.340137D-03
     30  0.143358D-03  0.134683D-02  0.903574D-04 -0.161790D-03 -0.181081D-02
     31 -0.116607D-03 -0.210610D-03  0.189832D-03 -0.694214D-04  0.336047D-03
     32 -0.262947D-03  0.215733D-03  0.127866D-03 -0.211269D-04 -0.338966D-03
                6             7             8             9            10 
      6  0.697482D+00
      7  0.679224D-01  0.326157D+00
      8  0.899681D-03 -0.391457D-02  0.268597D-01
      9  0.860214D-02 -0.100117D-01  0.486229D-02  0.102609D+00
     10 -0.662476D-02 -0.532948D-02  0.442267D-02 -0.542665D-01  0.111532D+00
     11 -0.196951D-02  0.153401D-01 -0.928545D-02 -0.483436D-01 -0.572666D-01
     12  0.332895D-02  0.820733D-03 -0.234604D-01  0.265731D-01 -0.592352D-01
     13 -0.256681D-01 -0.236970D-01 -0.110094D-02  0.644000D-02 -0.611863D-02
     14  0.272206D-01 -0.362482D-01  0.605155D-03  0.868279D-02 -0.344030D-02
     15 -0.358891D-01  0.144167D-01 -0.235265D-02 -0.879668D-02 -0.545456D-02
     16  0.905372D-02 -0.284031D-02  0.359725D-03 -0.433144D-02  0.490924D-02
     17 -0.631156D-02  0.105312D-01  0.142934D-02 -0.444851D-03  0.522214D-02
     18  0.299303D-01  0.382013D-01  0.101552D-02 -0.192920D-02  0.485563D-02
     19  0.245309D-02  0.328380D-02 -0.595002D-02  0.332549D-01 -0.618925D-01
     20  0.845283D-03  0.122467D-02  0.249873D-01 -0.556221D-02  0.959556D-02
     21 -0.272509D-02  0.368408D-03  0.193707D-03  0.518815D-03  0.402834D-03
     22  0.578080D-03 -0.506603D-04 -0.256776D-04 -0.114434D-03 -0.219122D-03
     23 -0.164104D-01  0.151184D-01  0.160586D-04 -0.108270D-02 -0.108208D-03
     24 -0.606121D-02 -0.250813D-01  0.948108D-04  0.290009D-02 -0.962399D-04
     25  0.255803D-01  0.890253D-02  0.217472D-03  0.321274D-03  0.195660D-03
     26 -0.199712D-01  0.156046D-01  0.230872D-03 -0.419022D-03  0.324362D-03
     27 -0.962204D-02 -0.245951D-01  0.309624D-03  0.356377D-02  0.336330D-03
     28  0.220195D-01  0.938878D-02  0.432286D-03  0.984949D-03  0.628230D-03
     29 -0.546666D-03  0.527594D-04  0.119871D-03  0.799137D-04  0.222681D-03
     30  0.258217D-02 -0.384574D-03 -0.629866D-04 -0.246628D-03 -0.376429D-03
     31 -0.502898D-03  0.599496D-04  0.131319D-03  0.163569D-03  0.160987D-04
     32  0.507423D-03 -0.585899D-04 -0.621637D-04 -0.197628D-03 -0.136668D-04
               11            12            13            14            15 
     11  0.105613D+00
     12  0.326627D-01  0.823422D-01
     13 -0.327408D-03  0.132603D-02  0.185204D+00
     14 -0.522952D-02  0.893717D-03  0.388429D-02  0.190332D+00
     15  0.142484D-01  0.355797D-02 -0.674727D-02  0.971533D-02  0.188105D+00
     16 -0.579649D-03 -0.209106D-02 -0.858461D-01 -0.811019D-01 -0.181309D-01
     17 -0.477715D-02 -0.178881D-02 -0.812091D-01 -0.205871D-01 -0.688786D-01
     18 -0.292881D-02 -0.182176D-02 -0.200250D-01 -0.101289D+00 -0.978742D-01
     19  0.286383D-01  0.389998D-01  0.365266D-02  0.190344D-02 -0.740416D-04
     20 -0.403320D-02 -0.621067D-01  0.114131D-02  0.643611D-03  0.197014D-02
     21 -0.930249D-03 -0.204187D-03  0.285413D-02 -0.533398D-02  0.107565D-02
     22  0.348801D-03  0.687753D-04  0.311637D-03  0.108685D-03 -0.984762D-04
     23  0.120079D-02  0.670635D-03 -0.586874D-02 -0.728468D-02  0.115697D-01
     24 -0.279257D-02 -0.504219D-03  0.118585D-01  0.753250D-02 -0.935252D-02
     25 -0.502108D-03  0.121453D-03 -0.152042D-01  0.984834D-02 -0.251640D-02
     26  0.788123D-04  0.506823D-03 -0.311748D-02 -0.131646D-01  0.128691D-01
     27 -0.391454D-02 -0.668030D-03  0.146098D-01  0.165261D-02 -0.805306D-02
     28 -0.162408D-02 -0.423586D-04 -0.124529D-01  0.396844D-02 -0.121694D-02
     29 -0.316945D-03 -0.236068D-04 -0.296317D-03 -0.105085D-03  0.983630D-04
     30  0.631146D-03  0.232828D-03 -0.267701D-02  0.504301D-02 -0.104576D-02
     31 -0.193256D-03  0.311822D-04 -0.269295D-03 -0.928926D-04  0.110282D-03
     32  0.225001D-03  0.102804D-03  0.265255D-03  0.894720D-04 -0.973531D-04
               16            17            18            19            20 
     16  0.124044D+00
     17  0.322746D-01  0.112167D+00
     18  0.302214D-01  0.277408D-01  0.156260D+00
     19 -0.186687D-02 -0.198488D-02 -0.171105D-02  0.778650D-01
     20 -0.952093D-03 -0.144855D-02 -0.132331D-02 -0.549721D-01  0.107484D+00
     21  0.597249D-03 -0.830206D-04  0.884777D-03 -0.250762D-03  0.743081D-04
     22 -0.182527D-03 -0.294008D-04 -0.116474D-03  0.647944D-04  0.136509D-03
     23 -0.236018D-01  0.252558D-01  0.987881D-03 -0.599513D-03  0.526364D-04
     24  0.249254D-01 -0.181168D-03 -0.344619D-01  0.609281D-03  0.692797D-05
     25 -0.149249D-02 -0.238710D-01  0.319998D-01 -0.356588D-03  0.545911D-04
     26 -0.227672D-01  0.251830D-01  0.205745D-02 -0.813230D-03 -0.334498D-04
     27  0.257601D-01 -0.253965D-03 -0.333924D-01  0.395564D-03 -0.791583D-04
     28 -0.657846D-03 -0.239438D-01  0.330694D-01 -0.570305D-03 -0.314951D-04
     29  0.172624D-03  0.274580D-04  0.109359D-03 -0.110359D-03 -0.136684D-03
     30 -0.568726D-03  0.845274D-04 -0.832273D-03  0.205091D-03 -0.823856D-04
     31  0.152353D-03  0.138450D-04  0.920231D-04 -0.112795D-03  0.200880D-04
     32 -0.154139D-03 -0.148163D-04 -0.942431D-04 -0.161047D-05 -0.417072D-04
               21            22            23            24            25 
     21  0.856033D-02
     22  0.494379D-02  0.113526D-01
     23 -0.691692D-03  0.346505D-02  0.254247D-01
     24 -0.123027D-02  0.350815D-02 -0.116099D-01  0.310961D-01
     25 -0.286405D-02  0.336756D-02 -0.748864D-02 -0.134460D-01  0.314589D-01
     26  0.320982D-02 -0.345170D-02  0.209402D-01 -0.167294D-01 -0.142161D-01
     27  0.267124D-02 -0.340860D-02 -0.160944D-01  0.259766D-01 -0.201735D-01
     28  0.103746D-02 -0.354919D-02 -0.119731D-01 -0.185655D-01  0.247314D-01
     29 -0.465392D-02 -0.106869D-01 -0.326073D-02 -0.330388D-02 -0.316998D-02
     30 -0.805596D-02 -0.465464D-02  0.648333D-03  0.116651D-02  0.269761D-02
     31 -0.440793D-02 -0.101200D-01 -0.308646D-02 -0.312969D-02 -0.300184D-02
     32  0.444605D-02  0.102076D-01  0.311676D-02  0.315316D-02  0.302880D-02
               26            27            28            29            30 
     26  0.281304D-01
     27 -0.953922D-02  0.325318D-01
     28 -0.702599D-02 -0.136183D-01  0.296785D-01
     29  0.325037D-02  0.320722D-02  0.334112D-02  0.100601D-01
     30 -0.302144D-02 -0.250326D-02 -0.972164D-03  0.438155D-02  0.758197D-02
     31  0.307872D-02  0.303548D-02  0.316333D-02  0.952647D-02  0.414999D-02
     32 -0.310181D-02 -0.306541D-02 -0.318977D-02 -0.960892D-02 -0.418594D-02
               31            32 
     31  0.902182D-02
     32 -0.909971D-02  0.917878D-02
 Leave Link  716 at Sun May 25 03:55:06 2025, MaxMem=  3758096384 cpu:               0.0 elap:               0.0
 (Enter /apps/easybuild-2022/easybuild/software/Compiler/NVHPC/22.11-CUDA-11.7.0/Gaussian/g16c01-CUDA-11.7.0/g16/l103.exe)

 GradGradGradGradGradGradGradGradGradGradGradGradGradGradGradGradGradGrad
 Berny optimization.
 Red2BG is reusing G-inverse.
 Internal  Forces:  Max     0.065256300 RMS     0.018374830
 Search for a saddle point.
 Step number   1 out of a maximum of  100
 All quantities printed in internal units (Hartrees-Bohrs-Radians)
 Swapping is turned off.
 Second derivative matrix not updated -- analytic derivatives used.
 ITU=  0
     Eigenvalues ---   -0.11021  -0.00033   0.02225   0.05004   0.11447
     Eigenvalues ---    0.11810   0.12011   0.14430   0.19729   0.23294
     Eigenvalues ---    0.25336   0.27507   0.29641   0.34832   0.41625
     Eigenvalues ---    0.50571   0.63623   0.73087
 Eigenvectors required to have negative eigenvalues:
                          R8        R4        A4        A11       R3
   1                    0.68916  -0.65201   0.18444  -0.15444  -0.14045
                          R1        A1        A3        A12       R7
   1                    0.12489  -0.05391   0.04458  -0.03932   0.01028
 Eigenvalue     2 is  -3.33D-04 should be greater than     0.000000 Eigenvector:
                          D4        D3        D5        D7        D6
   1                    0.43706   0.42867   0.41792   0.39450   0.38610
                          D8        D1        D10       A5        A3
   1                    0.37536  -0.04097   0.03851   0.02474   0.01873
 RFO step:  Lambda0=2.557037295D-03 Lambda=-2.72358187D-02.
 Linear search not attempted -- option 19 set.
 Maximum step size (   0.300) exceeded in Quadratic search.
    -- Step size scaled by   0.870
 Iteration  1 RMS(Cart)=  0.09700203 RMS(Int)=  0.02947899
 Iteration  2 RMS(Cart)=  0.02668094 RMS(Int)=  0.00078183
 Iteration  3 RMS(Cart)=  0.00054806 RMS(Int)=  0.00031203
 Iteration  4 RMS(Cart)=  0.00000035 RMS(Int)=  0.00031203
 ITry= 1 IFail=0 DXMaxC= 3.56D-01 DCOld= 1.00D+10 DXMaxT= 3.00D-01 DXLimC= 3.00D+00 Rises=F
 Variable       Old X    -DE/DX   Delta X   Delta X   Delta X     New X
                                 (Linear)    (Quad)   (Total)
    R1        2.33667   0.02951   0.00000   0.02568   0.02603   2.36270
    R2        2.89043  -0.00024   0.00000   0.00592   0.00592   2.89635
    R3        2.38123  -0.01558   0.00000  -0.00795  -0.00780   2.37343
    R4        2.34917  -0.00519   0.00000   0.09552   0.09539   2.44456
    R5        2.66347  -0.05471   0.00000  -0.17431  -0.17431   2.48916
    R6        2.35836   0.06526   0.00000   0.10473   0.10473   2.46309
    R7        2.60684  -0.03633   0.00000  -0.10103  -0.10103   2.50581
    R8        2.56510   0.01288   0.00000  -0.09128  -0.09162   2.47347
    A1        2.20487  -0.00504   0.00000  -0.03349  -0.03378   2.17109
    A2        1.96383   0.00035   0.00000   0.00227   0.00244   1.96627
    A3        2.11448   0.00469   0.00000   0.03130   0.03098   2.14546
    A4        1.27534  -0.00581   0.00000  -0.04114  -0.04071   1.23463
    A5        1.84361   0.01307   0.00000   0.07493   0.07516   1.91877
    A6        1.94963   0.00361   0.00000  -0.04013  -0.03978   1.90985
    A7        1.93604  -0.00332   0.00000  -0.00833  -0.00849   1.92755
    A8        1.96347  -0.01296   0.00000  -0.04552  -0.04478   1.91869
    A9        1.92062  -0.01218   0.00000  -0.02240  -0.02267   1.89795
   A10        1.85209   0.01089   0.00000   0.03876   0.03872   1.89081
   A11        1.19636   0.00181   0.00000   0.02673   0.02647   1.22284
   A12        1.84764   0.00365   0.00000   0.01215   0.01180   1.85944
    D1        3.14159  -0.00068   0.00000  -0.03155  -0.03092   3.11067
    D2       -0.00274   0.00029   0.00000   0.00020   0.00021  -0.00252
    D3        2.25609  -0.00100   0.00000   0.29478   0.29516   2.55125
    D4       -1.88699  -0.00625   0.00000   0.26425   0.26391  -1.62308
    D5        0.17548   0.00758   0.00000   0.28149   0.28138   0.45685
    D6       -0.88255  -0.00203   0.00000   0.26056   0.26099  -0.62156
    D7        1.25755  -0.00729   0.00000   0.23003   0.22974   1.48729
    D8       -2.96316   0.00654   0.00000   0.24728   0.24721  -2.71596
    D9        0.00258  -0.00030   0.00000  -0.00005  -0.00007   0.00251
   D10       -3.14159   0.00060   0.00000   0.02972   0.03042  -3.11117
   D11        0.00244  -0.00028   0.00000  -0.00009  -0.00011   0.00233
   D12       -0.00246   0.00025   0.00000   0.00011   0.00013  -0.00233
         Item               Value     Threshold  Converged?
 Maximum Force            0.065256     0.000450     NO 
 RMS     Force            0.018375     0.000300     NO 
 Maximum Displacement     0.356084     0.001800     NO 
 RMS     Displacement     0.119176     0.001200     NO 
 Predicted change in Energy=-1.325096D-02
 Lowest energy point so far.  Saving SCF results.
 GradGradGradGradGradGradGradGradGradGradGradGradGradGradGradGradGradGrad

 Leave Link  103 at Sun May 25 03:55:06 2025, MaxMem=  3758096384 cpu:               0.0 elap:               0.0
 (Enter /apps/easybuild-2022/easybuild/software/Compiler/NVHPC/22.11-CUDA-11.7.0/Gaussian/g16c01-CUDA-11.7.0/g16/l202.exe)
                          Input orientation:                          
 ---------------------------------------------------------------------
 Center     Atomic      Atomic             Coordinates (Angstroms)
 Number     Number       Type             X           Y           Z
 ---------------------------------------------------------------------
      1          6           0        1.483674    0.284619    0.009173
      2          8           0        2.350642   -0.558270   -0.308825
      3          6           0       -0.025764    0.018779    0.002624
      4          9           0       -0.604581    0.691734    0.975833
      5          9           0       -0.524708    0.380724   -1.145822
      6          9           0       -0.269170   -1.273313    0.174578
      7          8           0        1.979287    1.399118    0.308681
      8          1           0        2.930241    0.560883   -0.017328
 ---------------------------------------------------------------------
                    Distance matrix (angstroms):
                    1          2          3          4          5
     1  C    0.000000
     2  O    1.250287   0.000000
     3  C    1.532683   2.465216   0.000000
     4  F    2.336875   3.456328   1.317207   0.000000
     5  F    2.318803   3.138457   1.303410   2.145816   0.000000
     6  F    2.350951   2.758329   1.326016   2.148470   2.131806
     7  O    1.255964   2.085806   2.453413   2.760771   3.069641
     8  H    1.472950   1.293603   3.005368   3.674025   3.639042
                    6          7          8
     6  F    0.000000
     7  O    3.495058   0.000000
     8  H    3.692876   1.308905   0.000000
 Symmetry turned off by external request.
 Stoichiometry    C2HF3O2
 Rotational constants (GHZ):           4.1446116           2.3913092           2.0496775
 Leave Link  202 at Sun May 25 03:55:06 2025, MaxMem=  3758096384 cpu:               0.0 elap:               0.0
 (Enter /apps/easybuild-2022/easybuild/software/Compiler/NVHPC/22.11-CUDA-11.7.0/Gaussian/g16c01-CUDA-11.7.0/g16/l301.exe)
 Standard basis: def2TZVPP (5D, 7F)
 Ernie: Thresh=  0.10000D-02 Tol=  0.10000D-05 Strict=F.
   231 basis functions,   374 primitive gaussians,   267 cartesian basis functions
    28 alpha electrons       28 beta electrons
       nuclear repulsion energy       339.4738157124 Hartrees.
 IExCor= 4336 DFT=T Ex+Corr=M062X ExCW=0 ScaHFX=  0.540000
 ScaDFX=  1.000000  1.000000  1.000000  1.000000 ScalE2=  1.000000  1.000000
 IRadAn=      5 IRanWt=     -1 IRanGd=            0 ICorTp=0 IEmpDi=  4
 NAtoms=    8 NActive=    8 NUniq=    8 SFac= 1.00D+00 NAtFMM=   60 NAOKFM=F Big=F
 Integral buffers will be    131072 words long.
 Raffenetti 2 integral format.
 Two-electron integral symmetry is turned off.
 Leave Link  301 at Sun May 25 03:55:06 2025, MaxMem=  3758096384 cpu:               0.0 elap:               0.0
 (Enter /apps/easybuild-2022/easybuild/software/Compiler/NVHPC/22.11-CUDA-11.7.0/Gaussian/g16c01-CUDA-11.7.0/g16/l302.exe)
 NPDir=0 NMtPBC=     1 NCelOv=     1 NCel=       1 NClECP=     1 NCelD=      1
         NCelK=      1 NCelE2=     1 NClLst=     1 CellRange=     0.0.
 One-electron integrals computed using PRISM.
   1 Symmetry operations used in ECPInt.
 ECPInt:  NShTT=    3486 NPrTT=   11183 LenC2=    3405 LenP2D=    8729.
 LDataN:  DoStor=T MaxTD1= 6 Len=  172
 NBasis=   231 RedAO= T EigKep=  3.49D-04  NBF=   231
 NBsUse=   231 1.00D-06 EigRej= -1.00D+00 NBFU=   231
 Precomputing XC quadrature grid using
 IXCGrd= 4 IRadAn=           5 IRanWt=          -1 IRanGd=           0 AccXCQ= 0.00D+00.
 Generated NRdTot=       0 NPtTot=           0 NUsed=           0 NTot=          32
 NSgBfM=   266   266   266   266   266 MxSgAt=     8 MxSgA2=     8.
 Leave Link  302 at Sun May 25 03:55:07 2025, MaxMem=  3758096384 cpu:               0.5 elap:               0.1
 (Enter /apps/easybuild-2022/easybuild/software/Compiler/NVHPC/22.11-CUDA-11.7.0/Gaussian/g16c01-CUDA-11.7.0/g16/l303.exe)
 DipDrv:  MaxL=1.
 Leave Link  303 at Sun May 25 03:55:07 2025, MaxMem=  3758096384 cpu:               0.0 elap:               0.0
 (Enter /apps/easybuild-2022/easybuild/software/Compiler/NVHPC/22.11-CUDA-11.7.0/Gaussian/g16c01-CUDA-11.7.0/g16/l401.exe)
 Initial guess from the checkpoint file:  "1141903082400600000001_intra_H_migration_1_8.chk"
 B after Tr=    -0.000204   -0.001433   -0.004294
         Rot=    0.999988    0.003393    0.003133    0.001671 Ang=   0.56 deg.
 Guess basis will be translated and rotated to current coordinates.
 JPrj=2 DoOrth=T DoCkMO=T.
 Generating alternative initial guess.
 ExpMin= 9.52D-02 ExpMax= 3.55D+04 ExpMxC= 1.21D+03 IAcc=3 IRadAn=         5 AccDes= 0.00D+00
 Harris functional with IExCor= 1009 and IRadAn=       5 diagonalized for initial guess.
 HarFok:  IExCor= 1009 AccDes= 0.00D+00 IRadAn=         5 IDoV= 1 UseB2=F ITyADJ=14
 ICtDFT=  3500011 ScaDFX=  1.000000  1.000000  1.000000  1.000000
 FoFCou: FMM=F IPFlag=           0 FMFlag=      100000 FMFlg1=           0
         NFxFlg=           0 DoJE=T BraDBF=F KetDBF=T FulRan=T
         wScrn=  0.000000 ICntrl=       500 IOpCl=  0 I1Cent=   200000004 NGrid=           0
         NMat0=    1 NMatS0=      1 NMatT0=    0 NMatD0=    1 NMtDS0=    0 NMtDT0=    0
 Symmetry not used in FoFCou.
 Harris En= -526.484218059713    
 Leave Link  401 at Sun May 25 03:55:07 2025, MaxMem=  3758096384 cpu:               2.2 elap:               0.3
 (Enter /apps/easybuild-2022/easybuild/software/Compiler/NVHPC/22.11-CUDA-11.7.0/Gaussian/g16c01-CUDA-11.7.0/g16/l502.exe)
 Keep R1 ints in memory in canonical form, NReq=368651279.
 FoFCou: FMM=F IPFlag=           0 FMFlag=           0 FMFlg1=           0
         NFxFlg=           0 DoJE=F BraDBF=F KetDBF=F FulRan=T
         wScrn=  0.000000 ICntrl=       600 IOpCl=  0 I1Cent=           0 NGrid=           0
         NMat0=    1 NMatS0=  26796 NMatT0=    0 NMatD0=    1 NMtDS0=    0 NMtDT0=    0
 Symmetry not used in FoFCou.
 Two-electron integral symmetry not used.
 Closed shell SCF:
 Using DIIS extrapolation, IDIIS=  1040.
 NGot=  3758096384 LenX=  3398923531 LenY=  3398851801
 Requested convergence on RMS density matrix=1.00D-08 within  32 cycles.
 Requested convergence on MAX density matrix=1.00D-06.
 Requested convergence on             energy=1.00D-06.
 No special actions if energy rises.
 Integral accuracy reduced to 1.0D-05 until final iterations.

 Cycle   1  Pass 0  IDiag  1:
 E= -526.735127473079    
 DIIS: error= 1.28D-02 at cycle   1 NSaved=   1.
 NSaved= 1 IEnMin= 1 EnMin= -526.735127473079     IErMin= 1 ErrMin= 1.28D-02
 ErrMax= 1.28D-02  0.00D+00 EMaxC= 1.00D-01 BMatC= 4.13D-02 BMatP= 4.13D-02
 IDIUse=3 WtCom= 8.72D-01 WtEn= 1.28D-01
 Coeff-Com:  0.100D+01
 Coeff-En:   0.100D+01
 Coeff:      0.100D+01
 Recover alternate guess density for next cycle.
 RMSDP=1.86D-03 MaxDP=3.69D-02              OVMax= 0.00D+00

 Cycle   2  Pass 0  IDiag  1:
 E= -526.658938882709     Delta-E=        0.076188590371 Rises=F Damp=F
 Switch densities from cycles 1 and 2 for lowest energy.
 DIIS: error= 2.80D-02 at cycle   2 NSaved=   2.
 NSaved= 2 IEnMin= 1 EnMin= -526.735127473079     IErMin= 1 ErrMin= 1.28D-02
 ErrMax= 2.80D-02  0.00D+00 EMaxC= 1.00D+00 BMatC= 2.60D-01 BMatP= 4.13D-02
 IDIUse=1 WtCom= 1.00D+00 WtEn= 0.00D+00
 Coeff-Com:  0.884D+00 0.116D+00
 Coeff:      0.884D+00 0.116D+00
 Gap=     0.389 Goal=   None    Shift=    0.000
 RMSDP=8.47D-04 MaxDP=1.88D-02 DE= 7.62D-02 OVMax= 6.88D-02

 Cycle   3  Pass 0  IDiag  1:
 E= -526.782361561039     Delta-E=       -0.123422678331 Rises=F Damp=F
 DIIS: error= 4.82D-03 at cycle   3 NSaved=   3.
 NSaved= 3 IEnMin= 3 EnMin= -526.782361561039     IErMin= 3 ErrMin= 4.82D-03
 ErrMax= 4.82D-03  0.00D+00 EMaxC= 1.00D+00 BMatC= 7.49D-03 BMatP= 4.13D-02
 IDIUse=1 WtCom= 1.00D+00 WtEn= 0.00D+00
 Coeff-Com:  0.282D-02 0.116D+00 0.881D+00
 Coeff:      0.282D-02 0.116D+00 0.881D+00
 Gap=     0.406 Goal=   None    Shift=    0.000
 RMSDP=2.76D-04 MaxDP=1.10D-02 DE=-1.23D-01 OVMax= 2.44D-02

 Cycle   4  Pass 0  IDiag  1:
 E= -526.786872182729     Delta-E=       -0.004510621690 Rises=F Damp=F
 DIIS: error= 4.21D-03 at cycle   4 NSaved=   4.
 NSaved= 4 IEnMin= 4 EnMin= -526.786872182729     IErMin= 4 ErrMin= 4.21D-03
 ErrMax= 4.21D-03  0.00D+00 EMaxC= 1.00D+00 BMatC= 2.36D-03 BMatP= 7.49D-03
 IDIUse=1 WtCom= 1.00D+00 WtEn= 0.00D+00
 Coeff-Com: -0.563D-01 0.357D-01 0.429D+00 0.591D+00
 Coeff:     -0.563D-01 0.357D-01 0.429D+00 0.591D+00
 Gap=     0.404 Goal=   None    Shift=    0.000
 RMSDP=1.30D-04 MaxDP=5.83D-03 DE=-4.51D-03 OVMax= 1.72D-02

 Cycle   5  Pass 0  IDiag  1:
 E= -526.788182374984     Delta-E=       -0.001310192255 Rises=F Damp=F
 DIIS: error= 2.17D-03 at cycle   5 NSaved=   5.
 NSaved= 5 IEnMin= 5 EnMin= -526.788182374984     IErMin= 5 ErrMin= 2.17D-03
 ErrMax= 2.17D-03  0.00D+00 EMaxC= 1.00D+00 BMatC= 4.72D-04 BMatP= 2.36D-03
 IDIUse=1 WtCom= 1.00D+00 WtEn= 0.00D+00
 Coeff-Com: -0.248D-01-0.238D-02 0.115D+00 0.347D+00 0.564D+00
 Coeff:     -0.248D-01-0.238D-02 0.115D+00 0.347D+00 0.564D+00
 Gap=     0.402 Goal=   None    Shift=    0.000
 RMSDP=5.00D-05 MaxDP=2.13D-03 DE=-1.31D-03 OVMax= 6.71D-03

 Cycle   6  Pass 0  IDiag  1:
 E= -526.788505072420     Delta-E=       -0.000322697436 Rises=F Damp=F
 DIIS: error= 3.87D-04 at cycle   6 NSaved=   6.
 NSaved= 6 IEnMin= 6 EnMin= -526.788505072420     IErMin= 6 ErrMin= 3.87D-04
 ErrMax= 3.87D-04  0.00D+00 EMaxC= 1.00D+00 BMatC= 2.69D-05 BMatP= 4.72D-04
 IDIUse=1 WtCom= 1.00D+00 WtEn= 0.00D+00
 Coeff-Com: -0.606D-02-0.372D-02 0.105D-01 0.106D+00 0.258D+00 0.636D+00
 Coeff:     -0.606D-02-0.372D-02 0.105D-01 0.106D+00 0.258D+00 0.636D+00
 Gap=     0.403 Goal=   None    Shift=    0.000
 RMSDP=1.51D-05 MaxDP=5.32D-04 DE=-3.23D-04 OVMax= 1.97D-03

 Cycle   7  Pass 0  IDiag  1:
 E= -526.788528852760     Delta-E=       -0.000023780341 Rises=F Damp=F
 DIIS: error= 1.44D-04 at cycle   7 NSaved=   7.
 NSaved= 7 IEnMin= 7 EnMin= -526.788528852760     IErMin= 7 ErrMin= 1.44D-04
 ErrMax= 1.44D-04  0.00D+00 EMaxC= 1.00D+00 BMatC= 2.87D-06 BMatP= 2.69D-05
 IDIUse=1 WtCom= 1.00D+00 WtEn= 0.00D+00
 Coeff-Com:  0.214D-02 0.229D-03-0.201D-01-0.371D-01-0.363D-01 0.194D+00
 Coeff-Com:  0.897D+00
 Coeff:      0.214D-02 0.229D-03-0.201D-01-0.371D-01-0.363D-01 0.194D+00
 Coeff:      0.897D+00
 Gap=     0.403 Goal=   None    Shift=    0.000
 RMSDP=8.98D-06 MaxDP=2.82D-04 DE=-2.38D-05 OVMax= 1.76D-03

 Initial convergence to 1.0D-05 achieved.  Increase integral accuracy.
 Cycle   8  Pass 1  IDiag  1:
 E= -526.788532277928     Delta-E=       -0.000003425168 Rises=F Damp=F
 DIIS: error= 3.77D-05 at cycle   1 NSaved=   1.
 NSaved= 1 IEnMin= 1 EnMin= -526.788532277928     IErMin= 1 ErrMin= 3.77D-05
 ErrMax= 3.77D-05  0.00D+00 EMaxC= 1.00D+00 BMatC= 4.86D-07 BMatP= 4.86D-07
 IDIUse=1 WtCom= 1.00D+00 WtEn= 0.00D+00
 Coeff-Com:  0.100D+01
 Coeff:      0.100D+01
 Gap=     0.403 Goal=   None    Shift=    0.000
 RMSDP=8.98D-06 MaxDP=2.82D-04 DE=-3.43D-06 OVMax= 5.86D-04

 Cycle   9  Pass 1  IDiag  1:
 E= -526.788532914615     Delta-E=       -0.000000636687 Rises=F Damp=F
 DIIS: error= 2.99D-05 at cycle   2 NSaved=   2.
 NSaved= 2 IEnMin= 2 EnMin= -526.788532914615     IErMin= 2 ErrMin= 2.99D-05
 ErrMax= 2.99D-05  0.00D+00 EMaxC= 1.00D+00 BMatC= 2.50D-07 BMatP= 4.86D-07
 IDIUse=1 WtCom= 1.00D+00 WtEn= 0.00D+00
 Coeff-Com:  0.382D+00 0.618D+00
 Coeff:      0.382D+00 0.618D+00
 Gap=     0.403 Goal=   None    Shift=    0.000
 RMSDP=1.86D-06 MaxDP=4.76D-05 DE=-6.37D-07 OVMax= 1.76D-04

 Cycle  10  Pass 1  IDiag  1:
 E= -526.788533121841     Delta-E=       -0.000000207226 Rises=F Damp=F
 DIIS: error= 1.27D-05 at cycle   3 NSaved=   3.
 NSaved= 3 IEnMin= 3 EnMin= -526.788533121841     IErMin= 3 ErrMin= 1.27D-05
 ErrMax= 1.27D-05  0.00D+00 EMaxC= 1.00D+00 BMatC= 4.21D-08 BMatP= 2.50D-07
 IDIUse=1 WtCom= 1.00D+00 WtEn= 0.00D+00
 Coeff-Com: -0.741D-01 0.231D+00 0.843D+00
 Coeff:     -0.741D-01 0.231D+00 0.843D+00
 Gap=     0.403 Goal=   None    Shift=    0.000
 RMSDP=1.18D-06 MaxDP=3.36D-05 DE=-2.07D-07 OVMax= 1.99D-04

 Cycle  11  Pass 1  IDiag  1:
 E= -526.788533192389     Delta-E=       -0.000000070548 Rises=F Damp=F
 DIIS: error= 4.87D-06 at cycle   4 NSaved=   4.
 NSaved= 4 IEnMin= 4 EnMin= -526.788533192389     IErMin= 4 ErrMin= 4.87D-06
 ErrMax= 4.87D-06  0.00D+00 EMaxC= 1.00D+00 BMatC= 5.93D-09 BMatP= 4.21D-08
 IDIUse=1 WtCom= 1.00D+00 WtEn= 0.00D+00
 Coeff-Com: -0.688D-01 0.692D-02 0.270D+00 0.792D+00
 Coeff:     -0.688D-01 0.692D-02 0.270D+00 0.792D+00
 Gap=     0.403 Goal=   None    Shift=    0.000
 RMSDP=4.78D-07 MaxDP=1.31D-05 DE=-7.05D-08 OVMax= 9.29D-05

 Cycle  12  Pass 1  IDiag  1:
 E= -526.788533205060     Delta-E=       -0.000000012671 Rises=F Damp=F
 DIIS: error= 4.32D-06 at cycle   5 NSaved=   5.
 NSaved= 5 IEnMin= 5 EnMin= -526.788533205060     IErMin= 5 ErrMin= 4.32D-06
 ErrMax= 4.32D-06  0.00D+00 EMaxC= 1.00D+00 BMatC= 1.99D-09 BMatP= 5.93D-09
 IDIUse=1 WtCom= 1.00D+00 WtEn= 0.00D+00
 Coeff-Com: -0.140D-01-0.574D-01-0.861D-01 0.381D+00 0.776D+00
 Coeff:     -0.140D-01-0.574D-01-0.861D-01 0.381D+00 0.776D+00
 Gap=     0.403 Goal=   None    Shift=    0.000
 RMSDP=2.72D-07 MaxDP=9.70D-06 DE=-1.27D-08 OVMax= 5.65D-05

 Cycle  13  Pass 1  IDiag  1:
 E= -526.788533208296     Delta-E=       -0.000000003236 Rises=F Damp=F
 DIIS: error= 2.75D-06 at cycle   6 NSaved=   6.
 NSaved= 6 IEnMin= 6 EnMin= -526.788533208296     IErMin= 6 ErrMin= 2.75D-06
 ErrMax= 2.75D-06  0.00D+00 EMaxC= 1.00D+00 BMatC= 7.99D-10 BMatP= 1.99D-09
 IDIUse=1 WtCom= 1.00D+00 WtEn= 0.00D+00
 Coeff-Com:  0.663D-02-0.402D-01-0.118D+00 0.660D-01 0.504D+00 0.582D+00
 Coeff:      0.663D-02-0.402D-01-0.118D+00 0.660D-01 0.504D+00 0.582D+00
 Gap=     0.403 Goal=   None    Shift=    0.000
 RMSDP=1.08D-07 MaxDP=3.42D-06 DE=-3.24D-09 OVMax= 2.01D-05

 Cycle  14  Pass 1  IDiag  1:
 E= -526.788533209037     Delta-E=       -0.000000000741 Rises=F Damp=F
 DIIS: error= 2.37D-07 at cycle   7 NSaved=   7.
 NSaved= 7 IEnMin= 7 EnMin= -526.788533209037     IErMin= 7 ErrMin= 2.37D-07
 ErrMax= 2.37D-07  0.00D+00 EMaxC= 1.00D+00 BMatC= 1.63D-11 BMatP= 7.99D-10
 IDIUse=1 WtCom= 1.00D+00 WtEn= 0.00D+00
 Coeff-Com:  0.280D-02-0.111D-01-0.364D-01 0.544D-02 0.135D+00 0.204D+00
 Coeff-Com:  0.700D+00
 Coeff:      0.280D-02-0.111D-01-0.364D-01 0.544D-02 0.135D+00 0.204D+00
 Coeff:      0.700D+00
 Gap=     0.403 Goal=   None    Shift=    0.000
 RMSDP=2.21D-08 MaxDP=9.35D-07 DE=-7.41D-10 OVMax= 2.08D-06

 Cycle  15  Pass 1  IDiag  1:
 E= -526.788533209074     Delta-E=       -0.000000000037 Rises=F Damp=F
 DIIS: error= 1.11D-07 at cycle   8 NSaved=   8.
 NSaved= 8 IEnMin= 8 EnMin= -526.788533209074     IErMin= 8 ErrMin= 1.11D-07
 ErrMax= 1.11D-07  0.00D+00 EMaxC= 1.00D+00 BMatC= 3.48D-12 BMatP= 1.63D-11
 IDIUse=1 WtCom= 1.00D+00 WtEn= 0.00D+00
 Coeff-Com: -0.881D-04 0.373D-02 0.863D-02-0.109D-01-0.490D-01-0.354D-01
 Coeff-Com:  0.306D+00 0.777D+00
 Coeff:     -0.881D-04 0.373D-02 0.863D-02-0.109D-01-0.490D-01-0.354D-01
 Coeff:      0.306D+00 0.777D+00
 Gap=     0.403 Goal=   None    Shift=    0.000
 RMSDP=1.15D-08 MaxDP=4.56D-07 DE=-3.73D-11 OVMax= 7.73D-07

 Cycle  16  Pass 1  IDiag  1:
 E= -526.788533209071     Delta-E=        0.000000000003 Rises=F Damp=F
 DIIS: error= 2.07D-08 at cycle   9 NSaved=   9.
 NSaved= 9 IEnMin= 8 EnMin= -526.788533209074     IErMin= 9 ErrMin= 2.07D-08
 ErrMax= 2.07D-08  0.00D+00 EMaxC= 1.00D+00 BMatC= 1.22D-13 BMatP= 3.48D-12
 IDIUse=1 WtCom= 1.00D+00 WtEn= 0.00D+00
 Coeff-Com: -0.229D-03 0.176D-02 0.467D-02-0.318D-02-0.216D-01-0.221D-01
 Coeff-Com:  0.299D-01 0.176D+00 0.835D+00
 Coeff:     -0.229D-03 0.176D-02 0.467D-02-0.318D-02-0.216D-01-0.221D-01
 Coeff:      0.299D-01 0.176D+00 0.835D+00
 Gap=     0.403 Goal=   None    Shift=    0.000
 RMSDP=1.91D-09 MaxDP=5.15D-08 DE= 2.96D-12 OVMax= 1.99D-07

 SCF Done:  E(RM062X) =  -526.788533209     A.U. after   16 cycles
            NFock= 16  Conv=0.19D-08     -V/T= 2.0035
 KE= 5.249417311099D+02 PE=-1.926540529559D+03 EE= 5.353364495273D+02
 Leave Link  502 at Sun May 25 03:55:17 2025, MaxMem=  3758096384 cpu:              51.3 elap:               9.9
 (Enter /apps/easybuild-2022/easybuild/software/Compiler/NVHPC/22.11-CUDA-11.7.0/Gaussian/g16c01-CUDA-11.7.0/g16/l508.exe)
 QCSCF skips out because SCF is already converged.
 Leave Link  508 at Sun May 25 03:55:17 2025, MaxMem=  3758096384 cpu:               0.0 elap:               0.0
 (Enter /apps/easybuild-2022/easybuild/software/Compiler/NVHPC/22.11-CUDA-11.7.0/Gaussian/g16c01-CUDA-11.7.0/g16/l801.exe)
 DoSCS=F DFT=T ScalE2(SS,OS)=  1.000000  1.000000
 Range of M.O.s used for correlation:     1   231
 NBasis=   231 NAE=    28 NBE=    28 NFC=     0 NFV=     0
 NROrb=    231 NOA=    28 NOB=    28 NVA=   203 NVB=   203

 **** Warning!!: The largest alpha MO coefficient is  0.16357469D+02

 Leave Link  801 at Sun May 25 03:55:17 2025, MaxMem=  3758096384 cpu:               0.0 elap:               0.0
 (Enter /apps/easybuild-2022/easybuild/software/Compiler/NVHPC/22.11-CUDA-11.7.0/Gaussian/g16c01-CUDA-11.7.0/g16/l1101.exe)
 Using compressed storage, NAtomX=     8.
 Will process      9 centers per pass.
   1 Symmetry operations used in ECPInt.
 ECPInt:  NShTT=    3486 NPrTT=   11183 LenC2=    3405 LenP2D=    8729.
 LDataN:  DoStor=T MaxTD1= 7 Len=  274
 Leave Link 1101 at Sun May 25 03:55:17 2025, MaxMem=  3758096384 cpu:               0.6 elap:               0.1
 (Enter /apps/easybuild-2022/easybuild/software/Compiler/NVHPC/22.11-CUDA-11.7.0/Gaussian/g16c01-CUDA-11.7.0/g16/l1102.exe)
 Symmetrizing basis deriv contribution to polar:
 IMax=3 JMax=2 DiffMx= 0.00D+00
 Leave Link 1102 at Sun May 25 03:55:17 2025, MaxMem=  3758096384 cpu:               0.1 elap:               0.0
 (Enter /apps/easybuild-2022/easybuild/software/Compiler/NVHPC/22.11-CUDA-11.7.0/Gaussian/g16c01-CUDA-11.7.0/g16/l1110.exe)
 Forming Gx(P) for the SCF density, NAtomX=     8.
 Integral derivatives from FoFJK, PRISM(SPDF).
 Do as many integral derivatives as possible in FoFJK.
 G2DrvN: MDV=    3758095424.
 G2DrvN: will do     9 centers at a time, making    1 passes.
 Calling FoFCou, ICntrl=  3107 FMM=F I1Cent=   0 AccDes= 0.00D+00.
 FoFJK:  IHMeth= 1 ICntrl=    3107 DoSepK=F KAlg= 0 I1Cent=           0 FoldK=F
 IRaf=         0 NMat=       1 IRICut=       1 DoRegI=T DoRafI=F ISym2E= 0 IDoP0=0 IntGTp=1.
 FoFCou: FMM=F IPFlag=           0 FMFlag=      100000 FMFlg1=           0
         NFxFlg=           0 DoJE=F BraDBF=F KetDBF=F FulRan=T
         wScrn=  0.000000 ICntrl=      3107 IOpCl=  0 I1Cent=           0 NGrid=           0
         NMat0=    1 NMatS0=      1 NMatT0=    0 NMatD0=    1 NMtDS0=    0 NMtDT0=    0
 Symmetry not used in FoFCou.
 End of G2Drv F.D. properties file   721 does not exist.
 End of G2Drv F.D. properties file   722 does not exist.
 End of G2Drv F.D. properties file   788 does not exist.
 Leave Link 1110 at Sun May 25 03:55:32 2025, MaxMem=  3758096384 cpu:             114.8 elap:              14.5
 (Enter /apps/easybuild-2022/easybuild/software/Compiler/NVHPC/22.11-CUDA-11.7.0/Gaussian/g16c01-CUDA-11.7.0/g16/l1002.exe)
 Minotr:  Closed shell wavefunction.
          IDoAtm=11111111
          Direct CPHF calculation.
          Differentiating once with respect to electric field.
                with respect to dipole field.
          Differentiating once with respect to nuclear coordinates.
          Requested convergence is 1.0D-08 RMS, and 1.0D-07 maximum.
          Secondary convergence is 1.0D-12 RMS, and 1.0D-12 maximum.
          NewPWx=T KeepS1=F KeepF1=F KeepIn=T MapXYZ=F SortEE=F KeepMc=T.
         2392 words used for storage of precomputed grid.
 Keep R1 ints in memory in canonical form, NReq=368655240.
 FoFCou: FMM=F IPFlag=           0 FMFlag=           0 FMFlg1=           0
         NFxFlg=           0 DoJE=F BraDBF=F KetDBF=F FulRan=T
         wScrn=  0.000000 ICntrl=       600 IOpCl=  0 I1Cent=           0 NGrid=           0
         NMat0=    1 NMatS0=  26796 NMatT0=    0 NMatD0=    1 NMtDS0=    0 NMtDT0=    0
 Symmetry not used in FoFCou.
 Two-electron integral symmetry not used.
          MDV=    3758096384 using IRadAn=       1.
          Solving linear equations simultaneously, MaxMat=       0.
          There are    27 degrees of freedom in the 1st order CPHF.  IDoFFX=6 NUNeed=     3.
     24 vectors produced by pass  0 Test12= 2.11D-14 3.70D-09 XBig12= 1.65D+01 2.35D+00.
 AX will form    24 AO Fock derivatives at one time.
     24 vectors produced by pass  1 Test12= 2.11D-14 3.70D-09 XBig12= 4.25D+00 3.93D-01.
     24 vectors produced by pass  2 Test12= 2.11D-14 3.70D-09 XBig12= 8.47D-02 5.68D-02.
     24 vectors produced by pass  3 Test12= 2.11D-14 3.70D-09 XBig12= 1.82D-03 8.75D-03.
     24 vectors produced by pass  4 Test12= 2.11D-14 3.70D-09 XBig12= 2.52D-05 9.05D-04.
     24 vectors produced by pass  5 Test12= 2.11D-14 3.70D-09 XBig12= 2.47D-07 1.07D-04.
     23 vectors produced by pass  6 Test12= 2.11D-14 3.70D-09 XBig12= 1.07D-09 7.38D-06.
     11 vectors produced by pass  7 Test12= 2.11D-14 3.70D-09 XBig12= 3.65D-12 3.49D-07.
      3 vectors produced by pass  8 Test12= 2.11D-14 3.70D-09 XBig12= 2.00D-14 2.09D-08.
 InvSVY:  IOpt=1 It=  1 EMax= 4.00D-15
 Solved reduced A of dimension   181 with    27 vectors.
 FullF1:  Do perturbations      1 to       3.
 Isotropic polarizability for W=    0.000000       32.06 Bohr**3.
 End of Minotr F.D. properties file   721 does not exist.
 End of Minotr F.D. properties file   722 does not exist.
 End of Minotr F.D. properties file   788 does not exist.
 Leave Link 1002 at Sun May 25 03:55:52 2025, MaxMem=  3758096384 cpu:             163.5 elap:              20.8
 (Enter /apps/easybuild-2022/easybuild/software/Compiler/NVHPC/22.11-CUDA-11.7.0/Gaussian/g16c01-CUDA-11.7.0/g16/l701.exe)
 ... and contract with generalized density number  0.
 Compute integral second derivatives.
   1 Symmetry operations used in ECPInt.
 ECPInt:  NShTT=    3486 NPrTT=   11183 LenC2=    3405 LenP2D=    8729.
 LDataN:  DoStor=T MaxTD1= 8 Len=  415
 Leave Link  701 at Sun May 25 03:55:53 2025, MaxMem=  3758096384 cpu:               0.6 elap:               0.1
 (Enter /apps/easybuild-2022/easybuild/software/Compiler/NVHPC/22.11-CUDA-11.7.0/Gaussian/g16c01-CUDA-11.7.0/g16/l702.exe)
 L702 exits ... SP integral derivatives will be done elsewhere.
 Leave Link  702 at Sun May 25 03:55:53 2025, MaxMem=  3758096384 cpu:               0.0 elap:               0.0
 (Enter /apps/easybuild-2022/easybuild/software/Compiler/NVHPC/22.11-CUDA-11.7.0/Gaussian/g16c01-CUDA-11.7.0/g16/l703.exe)
 Integral derivatives from FoFJK, PRISM(SPDF).
 Compute integral second derivatives, UseDBF=F ICtDFT=           0.
 Calling FoFJK, ICntrl=    100127 FMM=F ISym2X=0 I1Cent= 0 IOpClX= 0 NMat=1 NMatS=1 NMatT=0.
 FoFJK:  IHMeth= 1 ICntrl=  100127 DoSepK=F KAlg= 0 I1Cent=           0 FoldK=F
 IRaf=         0 NMat=       1 IRICut=       1 DoRegI=T DoRafI=F ISym2E= 0 IDoP0=0 IntGTp=1.
 FoFCou: FMM=F IPFlag=           0 FMFlag=      100000 FMFlg1=         800
         NFxFlg=           0 DoJE=F BraDBF=F KetDBF=F FulRan=T
         wScrn=  0.000000 ICntrl=    100127 IOpCl=  0 I1Cent=           0 NGrid=           0
         NMat0=    1 NMatS0=      1 NMatT0=    0 NMatD0=    1 NMtDS0=    0 NMtDT0=    0
 Symmetry not used in FoFCou.
 Leave Link  703 at Sun May 25 03:56:29 2025, MaxMem=  3758096384 cpu:             286.2 elap:              36.0
 (Enter /apps/easybuild-2022/easybuild/software/Compiler/NVHPC/22.11-CUDA-11.7.0/Gaussian/g16c01-CUDA-11.7.0/g16/l716.exe)
 Dipole        = 1.72374748D-01 3.35454211D-02-2.44607964D-02
 Polarizability= 3.52131463D+01 1.34827916D-01 3.48696086D+01
                -6.15384350D-01 2.97701434D+00 2.60909025D+01
 -------------------------------------------------------------------
 Center     Atomic                   Forces (Hartrees/Bohr)
 Number     Number              X              Y              Z
 -------------------------------------------------------------------
      1        6          -0.002783318    0.007032817    0.002487597
      2        8           0.003275071   -0.004459941   -0.001813137
      3        6           0.010879208   -0.011930692    0.012866201
      4        9          -0.003611459    0.004117498    0.003560379
      5        9          -0.007999389    0.008792454   -0.017954989
      6        9           0.001001865   -0.001526401    0.001589273
      7        8          -0.002014234   -0.001040977   -0.000421373
      8        1           0.001252256   -0.000984759   -0.000313950
 -------------------------------------------------------------------
 Cartesian Forces:  Max     0.017954989 RMS     0.006594518
 Force constants in Cartesian coordinates: 
                1             2             3             4             5 
      1  0.885469D+00
      2  0.117104D-01  0.758206D+00
      3 -0.405613D-01  0.159440D+00  0.282113D+00
      4 -0.333438D+00  0.155634D+00  0.654961D-01  0.298255D+00
      5  0.232041D+00 -0.350635D+00 -0.989548D-01 -0.290316D+00  0.496328D+00
      6  0.883289D-01 -0.930376D-01 -0.112141D+00 -0.105389D+00  0.154854D+00
      7 -0.221208D+00 -0.311484D-01  0.149859D-02 -0.772427D-03 -0.206938D-02
      8 -0.286702D-01 -0.634439D-01  0.575697D-02  0.267560D-01 -0.498970D-02
      9 -0.111433D-02  0.541527D-02 -0.728422D-01  0.109979D-01 -0.349861D-02
     10 -0.146909D-01  0.279156D-01  0.394481D-01 -0.128484D-01 -0.293127D-02
     11  0.164995D-02 -0.280650D-02 -0.113950D-01  0.210239D-02  0.445943D-02
     12  0.912907D-02 -0.177873D-01 -0.117899D-01  0.674954D-02  0.426431D-02
     13 -0.973677D-02  0.165138D-01 -0.485096D-01 -0.623476D-02 -0.177117D-02
     14  0.414960D-03  0.616108D-02  0.344015D-02 -0.827665D-03  0.143489D-02
     15 -0.992661D-02  0.107489D-01 -0.223121D-01 -0.594994D-02 -0.125951D-02
     16 -0.609392D-03 -0.400252D-01  0.591908D-02 -0.154968D-02  0.736081D-03
     17 -0.357156D-03 -0.358531D-01  0.377498D-02 -0.104673D-02  0.826194D-02
     18  0.115379D-02  0.351587D-02  0.823175D-02 -0.534414D-03 -0.122941D-03
     19 -0.201630D+00 -0.904086D-01 -0.180690D-01  0.104754D+00  0.840301D-01
     20 -0.165159D+00 -0.464822D+00 -0.104017D+00  0.174941D-01 -0.149344D+00
     21 -0.410377D-01 -0.109929D+00 -0.111421D+00  0.986153D-03 -0.671812D-01
     22 -0.104156D+00 -0.501915D-01 -0.522191D-02 -0.481657D-01 -0.197188D-01
     23 -0.516299D-01  0.153194D+00  0.419546D-01  0.902043D-01 -0.551511D-02
     24 -0.597183D-02  0.416336D-01  0.401610D-01  0.276436D-01  0.118991D-01
                6             7             8             9            10 
      6  0.106371D+00
      7 -0.603834D-03  0.640531D+00
      8 -0.432537D-02 -0.344560D-02  0.594347D+00
      9  0.837636D-02  0.122316D-01  0.263559D-02  0.622864D+00
     10 -0.187074D-02 -0.160817D+00  0.595918D-01  0.972764D-01  0.149941D+00
     11  0.150572D-02  0.670849D-01 -0.134953D+00 -0.902587D-01 -0.905889D-01
     12  0.104127D-02  0.984460D-01 -0.857291D-01 -0.203573D+00 -0.129537D+00
     13  0.379668D-02 -0.153546D+00  0.352314D-01 -0.125725D+00  0.240547D-01
     14 -0.435308D-04  0.344849D-01 -0.911130D-01  0.653276D-01 -0.564742D-02
[...]
     14  0.135011D-01 -0.220818D-01 -0.378382D-01  0.103951D+00
     15 -0.121435D-01 -0.822179D-01  0.123890D+00 -0.833765D-01  0.370501D+00
     16  0.247554D-01  0.199944D-02  0.181610D-01  0.176463D-01 -0.620474D-02
     17 -0.706272D-01 -0.275366D-01  0.825368D-02 -0.393720D-01  0.445736D-01
     18 -0.399823D-01  0.638908D-02  0.370732D-03  0.584978D-01 -0.247789D-01
     19 -0.111689D-02 -0.155208D-02 -0.566253D-02  0.189655D-02 -0.435798D-02
     20  0.425138D-02  0.393176D-02 -0.348803D-02  0.178985D-02 -0.163786D-02
     21  0.328418D-02  0.304270D-02  0.291840D-02  0.266357D-03  0.258832D-02
     22  0.129173D-02  0.865412D-03  0.326249D-04  0.338598D-03 -0.564885D-03
     23 -0.313610D-02 -0.355006D-02 -0.789441D-03 -0.654826D-03 -0.776850D-03
     24 -0.673095D-03 -0.157733D-02  0.221658D-02 -0.777056D-04  0.585516D-03
               16            17            18            19            20 
     16  0.859034D-01
     17  0.648589D-01  0.438870D+00
     18 -0.123980D-01 -0.563179D-01  0.903959D-01
     19 -0.106777D-01 -0.115417D-01  0.172998D-02  0.128005D+00
     20 -0.215933D-02  0.317397D-02  0.862852D-03  0.144004D+00  0.632645D+00
     21 -0.134676D-02  0.144334D-02 -0.330578D-04  0.466094D-01  0.203327D+00
     22  0.744613D-03  0.377643D-03 -0.378090D-03 -0.182149D-01  0.132863D-01
     23 -0.132174D-02 -0.525338D-02  0.623846D-03 -0.926654D-01 -0.359537D-01
     24 -0.143886D-02 -0.272826D-02 -0.373827D-03 -0.369116D-01  0.771251D-03
               21            22            23            24 
     21  0.125844D+00
     22  0.314565D-02  0.170789D+00
     23  0.111321D-01  0.522444D-01 -0.100248D+00
     24 -0.366251D-01  0.679585D-02 -0.596134D-01  0.219392D-01
 Red2BG is reusing G-inverse.
 Force constants in internal coordinates: 
                1             2             3             4             5 
      1  0.445942D+00
      2  0.126156D-01  0.290791D+00
      3  0.626287D-02  0.125043D-01  0.446136D+00
      4  0.121356D+00 -0.172876D-02  0.443329D-01  0.228599D-01
      5  0.493768D-02  0.212407D-01  0.529363D-02 -0.381217D-02  0.460140D+00
      6  0.534028D-02  0.235093D-01  0.532321D-02 -0.253052D-03  0.566932D-01
      7  0.532638D-02  0.213222D-01  0.496226D-02  0.318087D-02  0.571815D-01
      8  0.443691D-01 -0.172020D-02  0.121296D+00  0.124783D+00  0.328125D-02
      9  0.539313D-01  0.837855D-02  0.195408D-01 -0.904743D-02  0.153947D-01
     10 -0.734876D-01 -0.170015D-01 -0.735264D-01  0.381532D-02 -0.555838D-02
     11  0.195634D-01  0.859754D-02  0.539923D-01  0.523286D-02 -0.979131D-02
     12 -0.865406D-01  0.800870D-02  0.599898D-01 -0.563381D-02  0.334138D-02
     13  0.119700D-01  0.211247D-01 -0.228315D-02 -0.249611D-02  0.174994D-01
     14  0.280474D-02  0.904079D-02  0.312517D-02 -0.174890D-04 -0.296567D-01
     15 -0.213535D-02  0.205560D-01  0.117034D-01  0.405187D-03 -0.319024D-01
     16 -0.441515D-02 -0.156944D-01 -0.377118D-02  0.114640D-02  0.232534D-01
     17 -0.468475D-02 -0.205399D-01 -0.463256D-02  0.984894D-03  0.246881D-01
     18 -0.378363D-02 -0.154434D-01 -0.437373D-02  0.191153D-04 -0.360522D-02
     19  0.599986D-01  0.803769D-02 -0.866173D-01 -0.149934D-01  0.108881D-02
     20  0.100029D+00  0.954788D-03  0.100153D+00  0.168120D-01  0.112743D-02
     21  0.177172D-03 -0.802871D-03  0.100254D-02  0.176092D-03  0.940456D-03
     22 -0.193919D-03 -0.107887D-03 -0.121110D-03  0.195586D-04 -0.265001D-03
     23 -0.480684D-03  0.155590D-02  0.224570D-02 -0.433232D-04  0.152185D-03
     24  0.304435D-02  0.642173D-03 -0.179801D-02 -0.147649D-03  0.206587D-01
     25 -0.112493D-02 -0.332670D-03  0.180168D-02  0.107682D-03 -0.213233D-01
     26 -0.170878D-02  0.306718D-03  0.996765D-03  0.601692D-04  0.164163D-02
     27  0.181625D-02 -0.607012D-03 -0.304694D-02 -0.441562D-04  0.221482D-01
     28 -0.235303D-02 -0.158186D-02  0.552753D-03  0.211174D-03 -0.198338D-01
     29  0.159489D-03  0.107873D-03  0.155599D-03 -0.818886D-04  0.261616D-03
     30 -0.977756D-03  0.809312D-03 -0.195441D-03  0.807116D-04 -0.150849D-02
     31  0.247155D-03  0.119906D-03  0.413821D-03 -0.612974D-04  0.250043D-03
     32 -0.448998D-03 -0.119964D-03 -0.211878D-03  0.704446D-05 -0.251034D-03
                6             7             8             9            10 
      6  0.446119D+00
      7  0.566838D-01  0.459366D+00
      8 -0.452062D-03 -0.373878D-02  0.232964D-01
      9  0.278958D-02 -0.951780D-02  0.538315D-02  0.103380D+00
     10 -0.623648D-02 -0.561240D-02  0.391236D-02 -0.547641D-01  0.109681D+00
     11  0.334460D-02  0.151792D-01 -0.929464D-02 -0.486057D-01 -0.549274D-01
     12  0.265438D-02  0.114155D-02 -0.149004D-01  0.273313D-01 -0.599260D-01
     13 -0.292560D-01 -0.318473D-01  0.321695D-03  0.137885D-01 -0.580024D-02
     14  0.220489D-01 -0.295433D-01 -0.539499D-04  0.102841D-02 -0.281705D-02
     15 -0.289465D-01  0.176066D-01 -0.237934D-02 -0.782601D-02 -0.566774D-02
     16  0.211450D-01 -0.367682D-02  0.414941D-04 -0.398109D-02  0.464151D-02
     17 -0.434261D-02  0.246648D-01  0.979642D-03 -0.270195D-02  0.529825D-02
     18  0.210044D-01  0.231081D-01  0.113184D-02 -0.449699D-03  0.462366D-02
     19  0.271965D-02  0.334377D-02 -0.565555D-02  0.325885D-01 -0.599482D-01
     20  0.863932D-03  0.112627D-02  0.166438D-01 -0.515690D-02  0.101947D-01
     21 -0.272108D-02  0.161597D-02 -0.901283D-04 -0.135156D-02 -0.653271D-03
     22  0.521282D-03 -0.277981D-03  0.735005D-04 -0.360558D-03  0.462760D-03
     23 -0.202073D-01  0.197803D-01 -0.168323D-03  0.220273D-03 -0.139242D-02
     24  0.190674D-02 -0.222853D-01  0.420359D-04  0.426080D-02 -0.943084D-03
     25  0.240064D-01 -0.180886D-02 -0.308761D-04 -0.339765D-03 -0.428268D-03
     26 -0.239765D-01  0.214121D-01 -0.576675D-04 -0.532118D-03  0.455882D-03
     27 -0.186249D-02 -0.206535D-01  0.152691D-03  0.350841D-02  0.905219D-03
     28  0.202372D-01 -0.177032D-03  0.797791D-04 -0.109216D-02  0.142003D-02
     29 -0.521219D-03  0.281314D-03 -0.114130D-04  0.347915D-03 -0.462851D-03
     30  0.273766D-02 -0.106210D-02 -0.176137D-03 -0.205782D-02  0.646105D-03
     31 -0.473169D-03  0.266158D-03  0.000000D+00  0.374649D-03 -0.541972D-03
     32  0.473198D-03 -0.265205D-03  0.538854D-04 -0.393793D-03  0.541949D-03
               11            12            13            14            15 
     11  0.103543D+00
     12  0.326006D-01  0.775826D-01
     13 -0.792226D-02  0.582715D-03  0.194025D+00
     14  0.161595D-02  0.100597D-02  0.647224D-02  0.176142D+00
     15  0.135667D-01  0.363060D-02 -0.768176D-02  0.727339D-02  0.193185D+00
     16 -0.635576D-03 -0.182658D-02 -0.871070D-01 -0.870898D-01 -0.184213D-01
     17 -0.261205D-02 -0.183264D-02 -0.910306D-01 -0.187367D-01 -0.911811D-01
     18 -0.415045D-02 -0.166426D-02 -0.184150D-01 -0.869793D-01 -0.868641D-01
     19  0.273658D-01  0.393489D-01  0.372081D-02  0.927249D-03  0.598602D-03
     20 -0.504000D-02 -0.570065D-01  0.149660D-02  0.884156D-03  0.143836D-02
     21  0.211051D-02  0.388658D-03  0.188430D-02 -0.541604D-02  0.256920D-02
     22 -0.288269D-03 -0.289213D-03 -0.372811D-04  0.115550D-03 -0.576982D-04
     23  0.104703D-02  0.112642D-02 -0.323249D-02 -0.411432D-02  0.997007D-02
     24 -0.348054D-02 -0.135112D-03  0.105234D-01  0.292798D-02 -0.126859D-01
     25  0.570272D-03  0.627667D-03 -0.126099D-01  0.103233D-01  0.119898D-02
     26  0.273602D-03  0.127767D-03 -0.100060D-02 -0.103206D-01  0.124522D-01
     27 -0.425397D-02 -0.113376D-02  0.127553D-01 -0.327828D-02 -0.102038D-01
     28 -0.203153D-03 -0.370983D-03 -0.103780D-01  0.411704D-02  0.368107D-02
     29  0.301014D-03  0.317751D-03  0.335756D-04 -0.115486D-03  0.613261D-04
     30  0.130569D-02 -0.240446D-03 -0.237574D-02  0.543591D-02 -0.208983D-02
     31  0.339095D-03  0.327301D-03  0.371239D-04 -0.102447D-03  0.664554D-04
     32 -0.319931D-03 -0.254325D-03 -0.445377D-04  0.102610D-03 -0.592506D-04
               16            17            18            19            20 
     16  0.136537D+00
     17  0.306618D-01  0.142040D+00
     18  0.294832D-01  0.306438D-01  0.136243D+00
     19 -0.167169D-02 -0.184569D-02 -0.183669D-02  0.775987D-01
     20 -0.114342D-02 -0.161961D-02 -0.112286D-02 -0.570003D-01  0.103813D+00
     21  0.741395D-03 -0.442898D-03  0.621992D-03  0.238228D-03  0.392338D-04
     22 -0.625547D-04  0.100671D-03 -0.602908D-04 -0.326011D-03  0.182402D-03
     23 -0.311406D-01  0.289672D-01 -0.137978D-02  0.400563D-03 -0.125066D-03
     24  0.295886D-01  0.204371D-03 -0.305717D-01  0.116402D-02 -0.764080D-04
     25  0.485603D-03 -0.285536D-01  0.301517D-01 -0.150207D-03 -0.398785D-04
     26 -0.301622D-01  0.285135D-01 -0.449221D-03 -0.594487D-03  0.146529D-05
     27  0.305670D-01 -0.249287D-03 -0.296412D-01  0.168973D-03  0.501234D-04
     28  0.146400D-02 -0.290072D-01  0.310822D-01 -0.114526D-02  0.866530D-04
     29  0.632024D-04 -0.100666D-03  0.596547D-04  0.297478D-03 -0.182317D-03
     30 -0.667051D-03  0.445327D-03 -0.706429D-03 -0.381681D-03 -0.368046D-04
     31  0.518420D-04 -0.100593D-03  0.487184D-04  0.261945D-03 -0.749109D-04
     32 -0.513474D-04  0.100620D-03 -0.491887D-04 -0.334994D-03  0.750078D-04
               21            22            23            24            25 
     21  0.795050D-02
     22  0.450566D-02  0.104970D-01
     23 -0.678228D-03  0.332986D-02  0.302618D-01
     24 -0.201774D-02  0.330289D-02 -0.124213D-01  0.319967D-01
     25 -0.308567D-02  0.326635D-02 -0.106966D-01 -0.112307D-01  0.328427D-01
     26  0.307173D-02 -0.328652D-02  0.257782D-01 -0.182384D-01 -0.177475D-01
     27  0.173222D-02 -0.331349D-02 -0.169050D-01  0.261796D-01 -0.182816D-01
     28  0.664288D-03 -0.335003D-02 -0.151803D-01 -0.170478D-01  0.257918D-01
     29 -0.450567D-02 -0.104976D-01 -0.332955D-02 -0.330398D-02 -0.326600D-02
     30 -0.787709D-02 -0.449763D-02  0.701829D-03  0.184979D-02  0.311390D-02
     31 -0.415816D-02 -0.969038D-02 -0.307151D-02 -0.304959D-02 -0.301383D-02
     32  0.415865D-02  0.969051D-02  0.307289D-02  0.304723D-02  0.301531D-02
               26            27            28            29            30 
     26  0.328154D-01
     27 -0.112011D-01  0.318835D-01
     28 -0.107102D-01 -0.125777D-01  0.302619D-01
     29  0.328722D-02  0.331279D-02  0.335077D-02  0.104982D-01
     30 -0.306054D-02 -0.191258D-02 -0.648464D-03  0.449815D-02  0.795683D-02
     31  0.303426D-02  0.305617D-02  0.309193D-02  0.969096D-02  0.415143D-02
     32 -0.303295D-02 -0.305861D-02 -0.309053D-02 -0.969107D-02 -0.415105D-02
               31            32 
     31  0.894601D-02
     32 -0.894603D-02  0.894624D-02
 Leave Link  716 at Sun May 25 04:01:49 2025, MaxMem=  3758096384 cpu:               0.0 elap:               0.0
 (Enter /apps/easybuild-2022/easybuild/software/Compiler/NVHPC/22.11-CUDA-11.7.0/Gaussian/g16c01-CUDA-11.7.0/g16/l9999.exe)

 ----------------------------------------------------------------------

 Electric dipole moment (input orientation):
 (Debye = 10**-18 statcoulomb cm , SI units = C m)
                  (au)            (Debye)         (10**-30 SI)
   Tot        0.199272D+00      0.506499D+00      0.168950D+01
   x          0.195585D+00      0.497126D+00      0.165824D+01
   y          0.279443D-01      0.710274D-01      0.236922D+00
   z          0.259847D-01      0.660465D-01      0.220307D+00

 Dipole polarizability, Alpha (input orientation).
 (esu units = cm**3 , SI units = C**2 m**2 J**-1)
 Alpha(0;0):
               (au)            (10**-24 esu)      (10**-40 SI)
   iso        0.322069D+02      0.477257D+01      0.531020D+01
   aniso      0.102676D+02      0.152150D+01      0.169289D+01
   xx         0.352898D+02      0.522941D+01      0.581850D+01
   yx         0.180315D+00      0.267200D-01      0.297300D-01
   yy         0.345891D+02      0.512557D+01      0.570297D+01
   zx        -0.719238D+00     -0.106580D+00     -0.118586D+00
   zy         0.347388D+01      0.514775D+00      0.572765D+00
   zz         0.267418D+02      0.396272D+01      0.440912D+01

 ----------------------------------------------------------------------

 Dipole orientation:
     6          0.32005879          0.18657134          2.83085617
     8          1.47977601         -1.44373918          4.10030818
     6         -0.03326576          0.02437934         -0.03400156
     9         -2.10334477          1.23308109         -0.73677667
     9          1.94922958          1.08975369         -1.14743679
     9         -0.18999582         -2.35909416         -0.76698749
     8         -0.45481310          1.99756418          4.14755897
     1          0.73255372          0.38079622          5.58095657

 Electric dipole moment (dipole orientation):
 (Debye = 10**-18 statcoulomb cm , SI units = C m)
                  (au)            (Debye)         (10**-30 SI)
   Tot        0.199272D+00      0.506499D+00      0.168950D+01
   x          0.000000D+00      0.000000D+00      0.000000D+00
   y          0.000000D+00      0.000000D+00      0.000000D+00
   z          0.199272D+00      0.506499D+00      0.168950D+01

 Dipole polarizability, Alpha (dipole orientation).
 (esu units = cm**3 , SI units = C**2 m**2 J**-1)
 Alpha(0;0):
               (au)            (10**-24 esu)      (10**-40 SI)
   iso        0.322069D+02      0.477257D+01      0.531020D+01
   aniso      0.102676D+02      0.152150D+01      0.169289D+01
   xx         0.280773D+02      0.416063D+01      0.462932D+01
   yx        -0.442584D+01     -0.655841D+00     -0.729722D+00
   yy         0.334201D+02      0.495234D+01      0.551023D+01
   zx         0.123389D+01      0.182844D+00      0.203441D+00
   zy         0.717776D+00      0.106363D+00      0.118345D+00
   zz         0.351233D+02      0.520473D+01      0.579104D+01

 ----------------------------------------------------------------------
 Unable to Open any file for archive entry.
 1\1\GINC-SPARTAN-BM148\Freq\RM062X\def2TZVPP\C2H1F3O2\AKHALILOV\25-May
 -2025\0\\#P M062X/Def2TZVPP Symm(None) scf(xqc) pop(None) opt(NoFreeze
 ,TS,CalcAll,NoEigentest,MaxCycle=999)\\Gaussian input prepared by ASE\
 \0,1\C,1.483313221,0.2864603806,0.015260678\O,2.3383925913,-0.54177492
 76,-0.3785004515\C,-0.0218323971,0.012296779,0.0131223586\F,-0.6266221
 676,0.7220160783,0.9501005837\F,-0.5137282162,0.3558987415,-1.17244481
 72\F,-0.2612187658,-1.2713357759,0.2208184925\O,1.9898993422,1.3757609
 127,0.3741850909\H,2.9314193923,0.5649518113,-0.023628935\\Version=ES6
 4L-G16RevC.01\HF=-526.7891527\RMSD=8.248e-09\RMSF=1.931e-06\ZeroPoint=
 0.0353411\Thermal=0.0413627\ETot=-526.74779\HTot=-526.7468458\GTot=-52
 6.7862734\Dipole=0.1955846,0.0279443,0.0259847\DipoleDeriv=0.9217651,-
 0.0760022,-0.0667836,-0.0754168,1.3113317,0.4066841,-0.0651251,0.40691
 18,0.4179822,-0.7354603,0.2558291,0.1268567,0.1064169,-0.9884976,-0.25
 94226,0.0786964,-0.2826606,-0.4313909,1.5264216,-0.0154454,-0.0268962,
 -0.012312,1.6708078,-0.0337645,-0.0378327,-0.0355958,1.7320992,-0.5312
 034,0.1610278,0.2405532,0.1330333,-0.4299453,-0.2160766,0.2070857,-0.2
 173784,-0.5840074,-0.4983524,0.0492197,-0.2446651,0.0342249,-0.3168657
 ,0.1327548,-0.2056369,0.1404705,-0.7587685,-0.4028575,-0.1875776,0.025
 8424,-0.1448238,-0.8490033,0.1057281,0.018742,0.0990682,-0.2944749,-0.
 6458867,-0.1276579,-0.0242503,0.0185112,-1.0839776,-0.2935308,0.034808
 4,-0.2685005,-0.4243633,0.3655736,-0.0593935,-0.0306571,-0.0596335,0.6
 8615,0.1576275,-0.0307378,0.1576848,0.3429236\Polar=35.289818,0.180315
 2,34.5890604,-0.7192382,3.4738759,26.741762\PG=Unknown\NImag=1\\0.8765
 8373,0.03114585,0.73832869,-0.04636693,0.18809982,0.30563365,-0.320533
 57,0.14095584,0.07608082,0.28354627,0.21522752,-0.33303983,-0.11531709
 ,-0.27091062,0.46799399,0.10383273,-0.10803357,-0.13020714,-0.12369526
 ,0.18111495,0.13367381,-0.22509383,-0.03136118,0.00177588,-0.00195889,
 -0.00180780,-0.00042049,0.63691616,-0.03049584,-0.06401108,0.00633069,
 0.02635401,-0.00462317,-0.00553838,0.00943142,0.60030907,-0.00081542,0
 .00585520,-0.07126891,0.01342015,-0.00394171,0.00688067,-0.01066586,0.
 01416344,0.56339116,-0.01430412,0.02877888,0.03731787,-0.01327349,-0.0
 0302248,-0.00145622,-0.16214492,0.06026497,0.09078933,0.15271892,0.001
 75529,-0.00342760,-0.01134416,0.00238049,0.00454138,0.00167080,0.06858
 182,-0.13772992,-0.08532752,-0.09417553,0.19262697,0.00813565,-0.01726
 312,-0.01001925,0.00630403,0.00419458,0.00116517,0.09369574,-0.0822103
 5,-0.18761126,-0.12385636,0.14451556,0.27082883,-0.00872008,0.01435306
 ,-0.04702552,-0.00521044,-0.00151416,0.00361102,-0.14280664,0.02449540
 ,-0.10038931,0.02252198,-0.00347234,0.01440817,0.12168412,0.00055683,0
 .00622238,0.00259713,-0.00090587,0.00128484,0.00013699,0.02324929,-0.0
 8672282,0.04403778,-0.00494355,0.01350114,-0.02208180,-0.03783818,0.10
 395147,-0.00915945,0.00946059,-0.02379017,-0.00531417,-0.00082000,0.00
 304149,-0.09766667,0.04472057,-0.24592952,-0.00062202,-0.01214351,-0.0
 8221793,0.12388992,-0.08337655,0.37050116,-0.00005944,-0.04018078,0.00
 708509,-0.00173565,0.00073384,-0.00026242,-0.10811904,-0.06433266,0.01
 256625,0.01578278,0.02475542,0.00199944,0.01816098,0.01764634,-0.00620
 474,0.08590341,-0.00027350,-0.03562518,0.00470521,-0.00130857,0.007979
 75,0.00048283,-0.07250416,-0.29914571,0.03537777,0.01213766,-0.0706272
 4,-0.02753657,0.00825368,-0.03937203,0.04457361,0.06485891,0.43886982,
 0.00139330,0.00430318,0.00811917,-0.00056386,-0.00015642,-0.00003174,0
 .01012039,0.03216893,-0.07968660,-0.00027446,-0.03998226,0.00638908,0.
 00037073,0.05849781,-0.02477887,-0.01239799,-0.05631794,0.09039585,-0.
 20400365,-0.09500799,-0.02346978,0.10533036,0.07869259,0.02405217,0.00
 615424,-0.02426120,-0.00610015,-0.00093078,-0.00111689,-0.00155208,-0.
 00566253,0.00189655,-0.00435798,-0.01067766,-0.01154167,0.00172998,0.1
 2800492,-0.16923826,-0.45572562,-0.12495780,0.01460517,-0.13881130,-0.
 07411739,0.00573550,-0.01136956,-0.00817938,-0.00274535,0.00425138,0.0
 0393176,-0.00348803,0.00178985,-0.00163786,-0.00215933,0.00317397,0.00
 086285,0.14400403,0.63264501,-0.05139764,-0.13227163,-0.12457389,-0.00
 006784,-0.07961975,0.02390375,0.00244050,-0.00756115,0.00585341,-0.002
 30172,0.00328418,0.00304270,0.00291840,0.00026636,0.00258832,-0.001346
 76,0.00144334,-0.00003306,0.04660940,0.20332657,0.12584388,-0.10386904
 ,-0.04868368,-0.00539743,-0.04616460,-0.01739890,-0.00566153,-0.002947
 08,-0.00145610,0.00119502,-0.00037037,0.00129173,0.00086541,0.00003262
 ,0.00033860,-0.00056488,0.00074461,0.00037764,-0.00037809,-0.01821490,
 0.01328627,0.00314565,0.17078876,-0.04867790,0.14727824,0.04988619,0.0
 8882955,-0.00532566,0.00428378,-0.00132488,0.00329320,-0.00198558,0.00
 370539,-0.00313610,-0.00355006,-0.00078944,-0.00065483,-0.00077685,-0.
 00132174,-0.00525338,0.00062385,-0.09266542,-0.03595374,0.01113208,0.0
 5224443,-0.10024773,-0.00562224,0.04984954,0.04610655,0.03383613,0.014
 54543,-0.03842602,0.00072051,-0.00207375,0.00837105,0.00040358,-0.0006
 7309,-0.00157733,0.00221658,-0.00007771,0.00058552,-0.00143886,-0.0027
 2826,-0.00037383,-0.03691155,0.00077125,-0.03662512,0.00679585,-0.0596
 1340,0.02193919\\-0.00000029,0.00000069,0.00000120,0.00000123,0.000003
 00,-0.00000234,0.00000042,-0.00000191,0.00000234,-0.00000080,-0.000003
 86,0.00000075,-0.00000088,-0.00000170,0.,0.00000311,-0.00000212,-0.000
 00050,-0.00000231,0.00000178,0.00000003,-0.00000049,0.00000413,-0.0000
 0148\\\@
 The archive entry for this job was punched.


 The earth never tires,
 The earth is rude, silent, incomprehensible at first,
 Nature is rude and incomprehensible at first,
 Be not discouraged, keep on,
 There are divine things well envelop'd,
 I swear to you there are divine things more beautiful than words can tell.
                                 -- Walt Whitman
 Job cpu time:       0 days  1 hours  1 minutes  3.5 seconds.
 Elapsed time:       0 days  0 hours  8 minutes  1.8 seconds.
 File lengths (MBytes):  RWF=     51 Int=      0 D2E=      0 Chk=      5 Scr=      1
 Normal termination of Gaussian 16 at Sun May 25 04:01:49 2025.
done
