 Entering Gaussian System, Link 0=g16
 Initial command:
 /apps/easybuild-2022/easybuild/software/Compiler/NVHPC/22.11-CUDA-11.7.0/Gaussian/g16c01-CUDA-11.7.0/g16/l1.exe "/tmp/Gau-190169.inp" -scrdir="/tmp/"
 Entering Link 1 = /apps/easybuild-2022/easybuild/software/Compiler/NVHPC/22.11-CUDA-11.7.0/Gaussian/g16c01-CUDA-11.7.0/g16/l1.exe PID=    190221.
  
 Copyright (c) 1988-2019, Gaussian, Inc.  All Rights Reserved.
  
 This is part of the Gaussian(R) 16 program.  It is based on
 the Gaussian(R) 09 system (copyright 2009, Gaussian, Inc.),
 the Gaussian(R) 03 system (copyright 2003, Gaussian, Inc.),
 the Gaussian(R) 98 system (copyright 1998, Gaussian, Inc.),
 the Gaussian(R) 94 system (copyright 1995, Gaussian, Inc.),
 the Gaussian 92(TM) system (copyright 1992, Gaussian, Inc.),
 the Gaussian 90(TM) system (copyright 1990, Gaussian, Inc.),
 the Gaussian 88(TM) system (copyright 1988, Gaussian, Inc.),
 the Gaussian 86(TM) system (copyright 1986, Carnegie Mellon
 University), and the Gaussian 82(TM) system (copyright 1983,
 Carnegie Mellon University). Gaussian is a federally registered
 trademark of Gaussian, Inc.
  
 This software contains proprietary and confidential information,
 including trade secrets, belonging to Gaussian, Inc.
  
 This software is provided under written license and may be
 used, copied, transmitted, or stored only in accord with that
 written license.
  
 The following legend is applicable only to US Government
 contracts under FAR:
  
                    RESTRICTED RIGHTS LEGEND
  
 Use, reproduction and disclosure by the US Government is
 subject to restrictions as set forth in subparagraphs (a)
 and (c) of the Commercial Computer Software - Restricted
 Rights clause in FAR 52.227-19.
  
 Gaussian, Inc.
 340 Quinnipiac St., Bldg. 40, Wallingford CT 06492
  
  
 ---------------------------------------------------------------
 Warning -- This program may not be used in any manner that
 competes with the business of Gaussian, Inc. or will provide
 assistance to any competitor of Gaussian, Inc.  The licensee
 of this program is prohibited from giving any competitor of
 Gaussian, Inc. access to this program.  By using this program,
 the user acknowledges that Gaussian, Inc. is engaged in the
 business of creating and licensing software in the field of
 computational chemistry and represents and warrants to the
 licensee that it is not a competitor of Gaussian, Inc. and that
 it will not use this program in any manner prohibited above.
 ---------------------------------------------------------------
  

 Cite this work as:
 Gaussian 16, Revision C.01,
 M. J. Frisch, G. W. Trucks, H. B. Schlegel, G. E. Scuseria, 
 M. A. Robb, J. R. Cheeseman, G. Scalmani, V. Barone, 
 G. A. Petersson, H. Nakatsuji, X. Li, M. Caricato, A. V. Marenich, 
 J. Bloino, B. G. Janesko, R. Gomperts, B. Mennucci, H. P. Hratchian, 
 J. V. Ortiz, A. F. Izmaylov, J. L. Sonnenberg, D. Williams-Young, 
 F. Ding, F. Lipparini, F. Egidi, J. Goings, B. Peng, A. Petrone, 
 T. Henderson, D. Ranasinghe, V. G. Zakrzewski, J. Gao, N. Rega, 
 G. Zheng, W. Liang, M. Hada, M. Ehara, K. Toyota, R. Fukuda, 
 J. Hasegawa, M. Ishida, T. Nakajima, Y. Honda, O. Kitao, H. Nakai, 
 T. Vreven, K. Throssell, J. A. Montgomery, Jr., J. E. Peralta, 
 F. Ogliaro, M. J. Bearpark, J. J. Heyd, E. N. Brothers, K. N. Kudin, 
 V. N. Staroverov, T. A. Keith, R. Kobayashi, J. Normand, 
 K. Raghavachari, A. P. Rendell, J. C. Burant, S. S. Iyengar, 
 J. Tomasi, M. Cossi, J. M. Millam, M. Klene, C. Adamo, R. Cammi, 
 J. W. Ochterski, R. L. Martin, K. Morokuma, O. Farkas, 
 J. B. Foresman, and D. J. Fox, Gaussian, Inc., Wallingford CT, 2019.
 
 ******************************************
 Gaussian 16:  ES64L-G16RevC.01  3-Jul-2019
                25-May-2025 
 ******************************************
 %mem=28GB
 %chk=1141903082400600000001_r13_insertion_ROR_4_3_1_2
 %nprocshared=8
 Will use up to    8 processors via shared memory.
 ----------------------------------------------------------------------
 #P M062X/Def2TZVPP Symm(None) scf(xqc) pop(None) opt(NoFreeze,TS,CalcA
 ll,NoEigentest,MaxCycle=999)
 ----------------------------------------------------------------------
 1/5=1,6=999,10=4,11=1,18=20,26=3,29=2000,38=1/1,3;
 2/9=110,12=2,15=3,17=6,18=5,40=1/2;
 3/5=44,7=202,11=2,25=1,30=1,71=2,74=-55,140=1/1,2,3;
 4//1;
 5/5=2,8=3,13=1,38=5/2,8;
 8/6=4,10=90,11=11/1;
 11/6=1,8=1,9=11,15=111,16=1,31=1/1,2,10;
 10/6=1,31=1/2;
 7/10=1,25=1,30=1/1,2,3,16;
 1/5=1,6=999,10=4,11=1,18=20,26=3/3(3);
 2/9=110,15=3/2;
 7/8=1,9=1,25=1,30=1,44=-1/16;
 99//99;
 2/9=110,15=3/2;
 3/5=44,7=202,11=2,25=1,30=1,71=2,74=-55,140=1/1,2,3;
 4/5=5,16=3,69=1/1;
 5/5=2,8=3,13=1,38=5/2,8;
 8/6=4,10=90,11=11/1;
 11/6=1,8=1,9=11,15=111,16=1,31=1/1,2,10;
 10/6=1,31=1/2;
 7/10=1,25=1,30=1/1,2,3,16;
 1/5=1,6=999,10=4,11=1,18=20,26=3/3(-8);
 2/9=110,15=3/2;
 7/8=1,9=1,25=1,30=1,44=-1/16;
 99//99;
 Leave Link    1 at Sun May 25 03:47:30 2025, MaxMem=  3758096384 cpu:               0.1 elap:               0.0
 (Enter /apps/easybuild-2022/easybuild/software/Compiler/NVHPC/22.11-CUDA-11.7.0/Gaussian/g16c01-CUDA-11.7.0/g16/l101.exe)
 ------------------------------
 Gaussian input prepared by ASE
 ------------------------------
 Symbolic Z-matrix:
 Charge =  0 Multiplicity = 1
 C                     2.07376   0.99126   0.40496 
 O                     1.12392   0.90626  -1.35305 
 C                     1.44851  -0.01729  -0.42835 
 F                     0.97774   1.70372   0.47526 
 F                     0.44996  -0.58124   0.10316 
 F                     2.18291  -0.93303  -0.86621 
 O                     3.24255   1.60471   0.50492 
 H                     3.14813   2.57009   0.53932 
 
 ITRead=  0  0  0  0  0  0  0  0
 MicOpt= -1 -1 -1 -1 -1 -1 -1 -1
 NAtoms=      8 NQM=        8 NQMF=       0 NMMI=      0 NMMIF=      0
                NMic=       0 NMicF=      0.
                    Isotopes and Nuclear Properties:
 (Nuclear quadrupole moments (NQMom) in fm**2, nuclear magnetic moments (NMagM)
  in nuclear magnetons)

  Atom         1           2           3           4           5           6           7           8
 IAtWgt=          12          16          12          19          19          19          16           1
 AtmWgt=  12.0000000  15.9949146  12.0000000  18.9984032  18.9984032  18.9984032  15.9949146   1.0078250
 NucSpn=           0           0           0           1           1           1           0           1
 AtZEff=  -0.0000000  -0.0000000  -0.0000000  -0.0000000  -0.0000000  -0.0000000  -0.0000000  -0.0000000
 NQMom=    0.0000000   0.0000000   0.0000000   0.0000000   0.0000000   0.0000000   0.0000000   0.0000000
 NMagM=    0.0000000   0.0000000   0.0000000   2.6288670   2.6288670   2.6288670   0.0000000   2.7928460
 AtZNuc=   6.0000000   8.0000000   6.0000000   9.0000000   9.0000000   9.0000000   8.0000000   1.0000000
 Leave Link  101 at Sun May 25 03:47:30 2025, MaxMem=  3758096384 cpu:               0.3 elap:               0.2
 (Enter /apps/easybuild-2022/easybuild/software/Compiler/NVHPC/22.11-CUDA-11.7.0/Gaussian/g16c01-CUDA-11.7.0/g16/l103.exe)

 GradGradGradGradGradGradGradGradGradGradGradGradGradGradGradGradGradGrad
 Berny optimization.
 Initialization pass.
                           ----------------------------
                           !    Initial Parameters    !
                           ! (Angstroms and Degrees)  !
 --------------------------                            --------------------------
 ! Name  Definition              Value          Derivative Info.                !
 --------------------------------------------------------------------------------
 ! R1    R(1,3)                  1.45           calculate D2E/DX2 analytically  !
 ! R2    R(1,4)                  1.3091         calculate D2E/DX2 analytically  !
 ! R3    R(1,7)                  1.3238         calculate D2E/DX2 analytically  !
 ! R4    R(2,3)                  1.3466         calculate D2E/DX2 analytically  !
 ! R5    R(3,5)                  1.264          calculate D2E/DX2 analytically  !
 ! R6    R(3,6)                  1.2529         calculate D2E/DX2 analytically  !
 ! R7    R(7,8)                  0.9706         calculate D2E/DX2 analytically  !
 ! A1    A(3,1,4)               92.7734         calculate D2E/DX2 analytically  !
 ! A2    A(3,1,7)              138.2828         calculate D2E/DX2 analytically  !
 ! A3    A(4,1,7)              118.8777         calculate D2E/DX2 analytically  !
 ! A4    A(1,3,2)               91.2346         calculate D2E/DX2 analytically  !
 ! A5    A(1,3,5)              114.1626         calculate D2E/DX2 analytically  !
 ! A6    A(1,3,6)              117.1602         calculate D2E/DX2 analytically  !
 ! A7    A(2,3,5)              113.8487         calculate D2E/DX2 analytically  !
 ! A8    A(2,3,6)              113.7404         calculate D2E/DX2 analytically  !
 ! A9    A(5,3,6)              106.495          calculate D2E/DX2 analytically  !
 ! A10   A(1,7,8)              112.1912         calculate D2E/DX2 analytically  !
 ! D1    D(4,1,3,2)             57.3177         calculate D2E/DX2 analytically  !
 ! D2    D(4,1,3,5)            -59.6134         calculate D2E/DX2 analytically  !
 ! D3    D(4,1,3,6)            174.9406         calculate D2E/DX2 analytically  !
 ! D4    D(7,1,3,2)            -84.0273         calculate D2E/DX2 analytically  !
 ! D5    D(7,1,3,5)            159.0416         calculate D2E/DX2 analytically  !
 ! D6    D(7,1,3,6)             33.5955         calculate D2E/DX2 analytically  !
 ! D7    D(3,1,7,8)            129.0642         calculate D2E/DX2 analytically  !
 ! D8    D(4,1,7,8)             -5.4976         calculate D2E/DX2 analytically  !
 --------------------------------------------------------------------------------
 Trust Radius=3.00D-01 FncErr=1.00D-07 GrdErr=1.00D-06 EigMax=2.50D+02 EigMin=1.00D-04
 Number of steps in this run=    100 maximum allowed number of steps=    100.
 Search for a saddle point of order  1.
 GradGradGradGradGradGradGradGradGradGradGradGradGradGradGradGradGradGrad

 Leave Link  103 at Sun May 25 03:47:30 2025, MaxMem=  3758096384 cpu:               0.1 elap:               0.0
 (Enter /apps/easybuild-2022/easybuild/software/Compiler/NVHPC/22.11-CUDA-11.7.0/Gaussian/g16c01-CUDA-11.7.0/g16/l202.exe)
                          Input orientation:                          
 ---------------------------------------------------------------------
 Center     Atomic      Atomic             Coordinates (Angstroms)
 Number     Number       Type             X           Y           Z
 ---------------------------------------------------------------------
      1          6           0        2.073761    0.991259    0.404959
      2          8           0        1.123923    0.906256   -1.353045
      3          6           0        1.448514   -0.017287   -0.428348
      4          9           0        0.977742    1.703722    0.475256
      5          9           0        0.449955   -0.581239    0.103161
      6          9           0        2.182909   -0.933026   -0.866207
      7          8           0        3.242550    1.604706    0.504917
      8          1           0        3.148126    2.570086    0.539316
 ---------------------------------------------------------------------
                    Distance matrix (angstroms):
                    1          2          3          4          5
     1  C    0.000000
     2  O    1.999999   0.000000
     3  C    1.450000   1.346609   0.000000
     4  F    1.309123   2.000001   2.000000   0.000000
     5  F    2.280478   2.188015   1.263987   2.374460   0.000000
     6  F    2.308820   2.177480   1.252851   3.194431   2.016571
     7  O    1.323774   2.903177   2.592375   2.267165   3.569083
     8  H    1.914421   3.232145   3.243386   2.337789   4.171475
                    6          7          8
     6  F    0.000000
     7  O    3.072931   0.000000
     8  H    3.896015   0.970597   0.000000
 Symmetry turned off by external request.
 Stoichiometry    C2HF3O2
 Rotational constants (GHZ):           4.4401640           2.6898749           2.1965209
 Leave Link  202 at Sun May 25 03:47:30 2025, MaxMem=  3758096384 cpu:               0.1 elap:               0.0
 (Enter /apps/easybuild-2022/easybuild/software/Compiler/NVHPC/22.11-CUDA-11.7.0/Gaussian/g16c01-CUDA-11.7.0/g16/l301.exe)
 Standard basis: def2TZVPP (5D, 7F)
 Ernie: Thresh=  0.10000D-02 Tol=  0.10000D-05 Strict=F.
   231 basis functions,   374 primitive gaussians,   267 cartesian basis functions
    28 alpha electrons       28 beta electrons
       nuclear repulsion energy       351.0684074385 Hartrees.
 IExCor= 4336 DFT=T Ex+Corr=M062X ExCW=0 ScaHFX=  0.540000
 ScaDFX=  1.000000  1.000000  1.000000  1.000000 ScalE2=  1.000000  1.000000
 IRadAn=      5 IRanWt=     -1 IRanGd=            0 ICorTp=0 IEmpDi=  4
 NAtoms=    8 NActive=    8 NUniq=    8 SFac= 1.00D+00 NAtFMM=   60 NAOKFM=F Big=F
 Integral buffers will be    131072 words long.
 Raffenetti 2 integral format.
 Two-electron integral symmetry is turned off.
 Leave Link  301 at Sun May 25 03:47:30 2025, MaxMem=  3758096384 cpu:               0.1 elap:               0.1
 (Enter /apps/easybuild-2022/easybuild/software/Compiler/NVHPC/22.11-CUDA-11.7.0/Gaussian/g16c01-CUDA-11.7.0/g16/l302.exe)
 NPDir=0 NMtPBC=     1 NCelOv=     1 NCel=       1 NClECP=     1 NCelD=      1
         NCelK=      1 NCelE2=     1 NClLst=     1 CellRange=     0.0.
 One-electron integrals computed using PRISM.
   1 Symmetry operations used in ECPInt.
 ECPInt:  NShTT=    3486 NPrTT=   11183 LenC2=    3405 LenP2D=    8754.
 LDataN:  DoStor=T MaxTD1= 6 Len=  172
 NBasis=   231 RedAO= T EigKep=  2.79D-04  NBF=   231
 NBsUse=   231 1.00D-06 EigRej= -1.00D+00 NBFU=   231
 Precomputing XC quadrature grid using
 IXCGrd= 4 IRadAn=           5 IRanWt=          -1 IRanGd=           0 AccXCQ= 0.00D+00.
 Generated NRdTot=       0 NPtTot=           0 NUsed=           0 NTot=          32
 NSgBfM=   266   266   266   266   266 MxSgAt=     8 MxSgA2=     8.
 Leave Link  302 at Sun May 25 03:47:30 2025, MaxMem=  3758096384 cpu:               0.8 elap:               0.2
 (Enter /apps/easybuild-2022/easybuild/software/Compiler/NVHPC/22.11-CUDA-11.7.0/Gaussian/g16c01-CUDA-11.7.0/g16/l303.exe)
 DipDrv:  MaxL=1.
 Leave Link  303 at Sun May 25 03:47:31 2025, MaxMem=  3758096384 cpu:               0.1 elap:               0.0
 (Enter /apps/easybuild-2022/easybuild/software/Compiler/NVHPC/22.11-CUDA-11.7.0/Gaussian/g16c01-CUDA-11.7.0/g16/l401.exe)
 ExpMin= 9.52D-02 ExpMax= 3.55D+04 ExpMxC= 1.21D+03 IAcc=3 IRadAn=         5 AccDes= 0.00D+00
 Harris functional with IExCor= 1009 and IRadAn=       5 diagonalized for initial guess.
 HarFok:  IExCor= 1009 AccDes= 0.00D+00 IRadAn=         5 IDoV= 1 UseB2=F ITyADJ=14
 ICtDFT=  3500011 ScaDFX=  1.000000  1.000000  1.000000  1.000000
 FoFCou: FMM=F IPFlag=           0 FMFlag=      100000 FMFlg1=           0
         NFxFlg=           0 DoJE=T BraDBF=F KetDBF=T FulRan=T
         wScrn=  0.000000 ICntrl=       500 IOpCl=  0 I1Cent=   200000004 NGrid=           0
         NMat0=    1 NMatS0=      1 NMatT0=    0 NMatD0=    1 NMtDS0=    0 NMtDT0=    0
 Symmetry not used in FoFCou.
 Harris En= -526.406291970731    
 JPrj=0 DoOrth=F DoCkMO=F.
 Leave Link  401 at Sun May 25 03:47:31 2025, MaxMem=  3758096384 cpu:               2.9 elap:               0.9
 (Enter /apps/easybuild-2022/easybuild/software/Compiler/NVHPC/22.11-CUDA-11.7.0/Gaussian/g16c01-CUDA-11.7.0/g16/l502.exe)
 Keep R1 ints in memory in canonical form, NReq=368651279.
 FoFCou: FMM=F IPFlag=           0 FMFlag=           0 FMFlg1=           0
         NFxFlg=           0 DoJE=F BraDBF=F KetDBF=F FulRan=T
         wScrn=  0.000000 ICntrl=       600 IOpCl=  0 I1Cent=           0 NGrid=           0
         NMat0=    1 NMatS0=  26796 NMatT0=    0 NMatD0=    1 NMtDS0=    0 NMtDT0=    0
 Symmetry not used in FoFCou.
 Two-electron integral symmetry not used.
 Closed shell SCF:
 Using DIIS extrapolation, IDIIS=  1040.
 NGot=  3758096384 LenX=  3398923531 LenY=  3398851801
 Requested convergence on RMS density matrix=1.00D-08 within  32 cycles.
 Requested convergence on MAX density matrix=1.00D-06.
 Requested convergence on             energy=1.00D-06.
 No special actions if energy rises.
 Integral accuracy reduced to 1.0D-05 until final iterations.

 Cycle   1  Pass 0  IDiag  1:
 E= -526.440254800325    
 DIIS: error= 2.12D-02 at cycle   1 NSaved=   1.
 NSaved= 1 IEnMin= 1 EnMin= -526.440254800325     IErMin= 1 ErrMin= 2.12D-02
 ErrMax= 2.12D-02  0.00D+00 EMaxC= 1.00D-01 BMatC= 3.57D-01 BMatP= 3.57D-01
 IDIUse=3 WtCom= 7.88D-01 WtEn= 2.12D-01
 Coeff-Com:  0.100D+01
 Coeff-En:   0.100D+01
 Coeff:      0.100D+01
 Gap=    -0.033 Goal=   None    Shift=    0.000
 GapD=   -0.033 DampG=0.250 DampE=0.500 DampFc=0.2500 IDamp=-1.
 Damping current iteration by 2.50D-01
 RMSDP=4.64D-03 MaxDP=1.48D-01              OVMax= 5.67D-01

 Cycle   2  Pass 0  IDiag  1:
 E= -526.501077609808     Delta-E=       -0.060822809483 Rises=F Damp=T
 DIIS: error= 1.27D-02 at cycle   2 NSaved=   2.
 NSaved= 2 IEnMin= 2 EnMin= -526.501077609808     IErMin= 2 ErrMin= 1.27D-02
 ErrMax= 1.27D-02  0.00D+00 EMaxC= 1.00D-01 BMatC= 7.47D-02 BMatP= 3.57D-01
 IDIUse=3 WtCom= 8.73D-01 WtEn= 1.27D-01
 Coeff-Com: -0.353D+00 0.135D+01
 Coeff-En:   0.185D+00 0.815D+00
 Coeff:     -0.284D+00 0.128D+01
 Gap=     0.187 Goal=   None    Shift=    0.000
 RMSDP=1.15D-03 MaxDP=3.11D-02 DE=-6.08D-02 OVMax= 6.27D-01

 Cycle   3  Pass 0  IDiag  1:
 E= -526.621917572885     Delta-E=       -0.120839963077 Rises=F Damp=F
 DIIS: error= 9.77D-03 at cycle   3 NSaved=   3.
 NSaved= 3 IEnMin= 3 EnMin= -526.621917572885     IErMin= 3 ErrMin= 9.77D-03
 ErrMax= 9.77D-03  0.00D+00 EMaxC= 1.00D-01 BMatC= 5.51D-02 BMatP= 7.47D-02
 IDIUse=3 WtCom= 9.02D-01 WtEn= 9.77D-02
 Coeff-Com: -0.341D+00 0.781D+00 0.560D+00
 Coeff-En:   0.000D+00 0.000D+00 0.100D+01
 Coeff:     -0.308D+00 0.705D+00 0.603D+00
 Gap=     0.226 Goal=   None    Shift=    0.000
 RMSDP=7.49D-04 MaxDP=2.35D-02 DE=-1.21D-01 OVMax= 8.76D-02

 Cycle   4  Pass 0  IDiag  1:
 E= -526.663725402493     Delta-E=       -0.041807829608 Rises=F Damp=F
 DIIS: error= 3.40D-03 at cycle   4 NSaved=   4.
 NSaved= 4 IEnMin= 4 EnMin= -526.663725402493     IErMin= 4 ErrMin= 3.40D-03
 ErrMax= 3.40D-03  0.00D+00 EMaxC= 1.00D-01 BMatC= 6.08D-03 BMatP= 5.51D-02
 IDIUse=3 WtCom= 9.66D-01 WtEn= 3.40D-02
 Coeff-Com: -0.150D+00 0.225D+00 0.283D+00 0.643D+00
 Coeff-En:   0.000D+00 0.000D+00 0.000D+00 0.100D+01
 Coeff:     -0.145D+00 0.217D+00 0.273D+00 0.655D+00
 Gap=     0.247 Goal=   None    Shift=    0.000
 RMSDP=1.94D-04 MaxDP=8.88D-03 DE=-4.18D-02 OVMax= 1.26D-02

 Cycle   5  Pass 0  IDiag  1:
 E= -526.667275668357     Delta-E=       -0.003550265863 Rises=F Damp=F
 DIIS: error= 9.03D-04 at cycle   5 NSaved=   5.
 NSaved= 5 IEnMin= 5 EnMin= -526.667275668357     IErMin= 5 ErrMin= 9.03D-04
 ErrMax= 9.03D-04  0.00D+00 EMaxC= 1.00D-01 BMatC= 3.96D-04 BMatP= 6.08D-03
 IDIUse=3 WtCom= 9.91D-01 WtEn= 9.03D-03
 Coeff-Com: -0.430D-01 0.520D-01 0.457D-01 0.224D+00 0.721D+00
 Coeff-En:   0.000D+00 0.000D+00 0.000D+00 0.000D+00 0.100D+01
 Coeff:     -0.426D-01 0.515D-01 0.453D-01 0.222D+00 0.724D+00
 Gap=     0.253 Goal=   None    Shift=    0.000
 RMSDP=6.65D-05 MaxDP=1.96D-03 DE=-3.55D-03 OVMax= 6.37D-03

 Cycle   6  Pass 0  IDiag  1:
 E= -526.667629876810     Delta-E=       -0.000354208453 Rises=F Damp=F
 DIIS: error= 2.51D-04 at cycle   6 NSaved=   6.
 NSaved= 6 IEnMin= 6 EnMin= -526.667629876810     IErMin= 6 ErrMin= 2.51D-04
 ErrMax= 2.51D-04  0.00D+00 EMaxC= 1.00D-01 BMatC= 3.55D-05 BMatP= 3.96D-04
 IDIUse=3 WtCom= 9.97D-01 WtEn= 2.51D-03
 Coeff-Com:  0.434D-02-0.709D-02-0.235D-01-0.418D-01 0.187D+00 0.881D+00
 Coeff-En:   0.000D+00 0.000D+00 0.000D+00 0.000D+00 0.000D+00 0.100D+01
 Coeff:      0.433D-02-0.707D-02-0.234D-01-0.417D-01 0.186D+00 0.881D+00
 Gap=     0.256 Goal=   None    Shift=    0.000
 RMSDP=3.22D-05 MaxDP=6.57D-04 DE=-3.54D-04 OVMax= 3.28D-03

 Cycle   7  Pass 0  IDiag  1:
 E= -526.667674988119     Delta-E=       -0.000045111309 Rises=F Damp=F
 DIIS: error= 9.42D-05 at cycle   7 NSaved=   7.
 NSaved= 7 IEnMin= 7 EnMin= -526.667674988119     IErMin= 7 ErrMin= 9.42D-05
 ErrMax= 9.42D-05  0.00D+00 EMaxC= 1.00D-01 BMatC= 6.76D-06 BMatP= 3.55D-05
 IDIUse=1 WtCom= 1.00D+00 WtEn= 0.00D+00
 Coeff-Com:  0.720D-02-0.954D-02-0.112D-01-0.404D-01-0.150D-01 0.340D+00
 Coeff-Com:  0.729D+00
 Coeff:      0.720D-02-0.954D-02-0.112D-01-0.404D-01-0.150D-01 0.340D+00
 Coeff:      0.729D+00
 Gap=     0.256 Goal=   None    Shift=    0.000
 RMSDP=1.21D-05 MaxDP=2.32D-04 DE=-4.51D-05 OVMax= 1.12D-03

 Cycle   8  Pass 0  IDiag  1:
 E= -526.667681091091     Delta-E=       -0.000006102972 Rises=F Damp=F
 DIIS: error= 5.19D-05 at cycle   8 NSaved=   8.
 NSaved= 8 IEnMin= 8 EnMin= -526.667681091091     IErMin= 8 ErrMin= 5.19D-05
 ErrMax= 5.19D-05  0.00D+00 EMaxC= 1.00D-01 BMatC= 1.62D-06 BMatP= 6.76D-06
 IDIUse=1 WtCom= 1.00D+00 WtEn= 0.00D+00
 Coeff-Com:  0.226D-02-0.277D-02 0.255D-02-0.317D-02-0.337D-01-0.236D-01
 Coeff-Com:  0.280D+00 0.778D+00
 Coeff:      0.226D-02-0.277D-02 0.255D-02-0.317D-02-0.337D-01-0.236D-01
 Coeff:      0.280D+00 0.778D+00
 Gap=     0.256 Goal=   None    Shift=    0.000
 RMSDP=5.40D-06 MaxDP=1.22D-04 DE=-6.10D-06 OVMax= 5.58D-04

 Initial convergence to 1.0D-05 achieved.  Increase integral accuracy.
 Cycle   9  Pass 1  IDiag  1:
 E= -526.667679923697     Delta-E=        0.000001167394 Rises=F Damp=F
 DIIS: error= 2.10D-05 at cycle   1 NSaved=   1.
 NSaved= 1 IEnMin= 1 EnMin= -526.667679923697     IErMin= 1 ErrMin= 2.10D-05
 ErrMax= 2.10D-05  0.00D+00 EMaxC= 1.00D-01 BMatC= 5.74D-07 BMatP= 5.74D-07
 IDIUse=1 WtCom= 1.00D+00 WtEn= 0.00D+00
 Coeff-Com:  0.100D+01
 Coeff:      0.100D+01
 Gap=     0.256 Goal=   None    Shift=    0.000
 RMSDP=5.40D-06 MaxDP=1.22D-04 DE= 1.17D-06 OVMax= 5.97D-04

 Cycle  10  Pass 1  IDiag  1:
 E= -526.667680266745     Delta-E=       -0.000000343047 Rises=F Damp=F
 DIIS: error= 2.37D-05 at cycle   2 NSaved=   2.
 NSaved= 2 IEnMin= 2 EnMin= -526.667680266745     IErMin= 1 ErrMin= 2.10D-05
 ErrMax= 2.37D-05  0.00D+00 EMaxC= 1.00D-01 BMatC= 3.74D-07 BMatP= 5.74D-07
 IDIUse=1 WtCom= 1.00D+00 WtEn= 0.00D+00
 Coeff-Com:  0.422D+00 0.578D+00
 Coeff:      0.422D+00 0.578D+00
 Gap=     0.256 Goal=   None    Shift=    0.000
 RMSDP=2.78D-06 MaxDP=1.22D-04 DE=-3.43D-07 OVMax= 4.09D-04

 Cycle  11  Pass 1  IDiag  1:
 E= -526.667680450225     Delta-E=       -0.000000183481 Rises=F Damp=F
 DIIS: error= 1.85D-05 at cycle   3 NSaved=   3.
 NSaved= 3 IEnMin= 3 EnMin= -526.667680450225     IErMin= 3 ErrMin= 1.85D-05
 ErrMax= 1.85D-05  0.00D+00 EMaxC= 1.00D-01 BMatC= 1.79D-07 BMatP= 3.74D-07
 IDIUse=1 WtCom= 1.00D+00 WtEn= 0.00D+00
 Coeff-Com: -0.263D-01 0.407D+00 0.619D+00
 Coeff:     -0.263D-01 0.407D+00 0.619D+00
 Gap=     0.256 Goal=   None    Shift=    0.000
 RMSDP=1.52D-06 MaxDP=6.02D-05 DE=-1.83D-07 OVMax= 2.60D-04

 Cycle  12  Pass 1  IDiag  1:
 E= -526.667680611036     Delta-E=       -0.000000160811 Rises=F Damp=F
 DIIS: error= 4.35D-06 at cycle   4 NSaved=   4.
 NSaved= 4 IEnMin= 4 EnMin= -526.667680611036     IErMin= 4 ErrMin= 4.35D-06
 ErrMax= 4.35D-06  0.00D+00 EMaxC= 1.00D-01 BMatC= 6.07D-09 BMatP= 1.79D-07
 IDIUse=1 WtCom= 1.00D+00 WtEn= 0.00D+00
 Coeff-Com: -0.298D-01 0.126D+00 0.235D+00 0.669D+00
 Coeff:     -0.298D-01 0.126D+00 0.235D+00 0.669D+00
 Gap=     0.256 Goal=   None    Shift=    0.000
 RMSDP=4.99D-07 MaxDP=1.73D-05 DE=-1.61D-07 OVMax= 7.64D-05

 Cycle  13  Pass 1  IDiag  1:
 E= -526.667680626087     Delta-E=       -0.000000015051 Rises=F Damp=F
 DIIS: error= 2.56D-06 at cycle   5 NSaved=   5.
 NSaved= 5 IEnMin= 5 EnMin= -526.667680626087     IErMin= 5 ErrMin= 2.56D-06
 ErrMax= 2.56D-06  0.00D+00 EMaxC= 1.00D-01 BMatC= 1.94D-09 BMatP= 6.07D-09
 IDIUse=1 WtCom= 1.00D+00 WtEn= 0.00D+00
 Coeff-Com:  0.288D-02-0.124D+00-0.174D+00 0.194D+00 0.110D+01
 Coeff:      0.288D-02-0.124D+00-0.174D+00 0.194D+00 0.110D+01
 Gap=     0.256 Goal=   None    Shift=    0.000
 RMSDP=6.37D-07 MaxDP=1.94D-05 DE=-1.51D-08 OVMax= 1.08D-04

 Cycle  14  Pass 1  IDiag  1:
 E= -526.667680637142     Delta-E=       -0.000000011054 Rises=F Damp=F
 DIIS: error= 1.18D-06 at cycle   6 NSaved=   6.
 NSaved= 6 IEnMin= 6 EnMin= -526.667680637142     IErMin= 6 ErrMin= 1.18D-06
 ErrMax= 1.18D-06  0.00D+00 EMaxC= 1.00D-01 BMatC= 4.21D-10 BMatP= 1.94D-09
 IDIUse=1 WtCom= 1.00D+00 WtEn= 0.00D+00
 Coeff-Com:  0.875D-02-0.860D-01-0.127D+00-0.949D-01 0.440D+00 0.859D+00
 Coeff:      0.875D-02-0.860D-01-0.127D+00-0.949D-01 0.440D+00 0.859D+00
 Gap=     0.256 Goal=   None    Shift=    0.000
 RMSDP=3.15D-07 MaxDP=1.00D-05 DE=-1.11D-08 OVMax= 5.40D-05

 Cycle  15  Pass 1  IDiag  1:
 E= -526.667680639341     Delta-E=       -0.000000002200 Rises=F Damp=F
 DIIS: error= 3.78D-07 at cycle   7 NSaved=   7.
 NSaved= 7 IEnMin= 7 EnMin= -526.667680639341     IErMin= 7 ErrMin= 3.78D-07
 ErrMax= 3.78D-07  0.00D+00 EMaxC= 1.00D-01 BMatC= 7.52D-11 BMatP= 4.21D-10
 IDIUse=1 WtCom= 1.00D+00 WtEn= 0.00D+00
 Coeff-Com:  0.227D-02-0.486D-02-0.266D-02-0.690D-01-0.615D-01 0.273D+00
 Coeff-Com:  0.862D+00
 Coeff:      0.227D-02-0.486D-02-0.266D-02-0.690D-01-0.615D-01 0.273D+00
 Coeff:      0.862D+00
 Gap=     0.256 Goal=   None    Shift=    0.000
 RMSDP=1.03D-07 MaxDP=3.41D-06 DE=-2.20D-09 OVMax= 1.68D-05

 Cycle  16  Pass 1  IDiag  1:
 E= -526.667680639563     Delta-E=       -0.000000000221 Rises=F Damp=F
 DIIS: error= 1.25D-07 at cycle   8 NSaved=   8.
 NSaved= 8 IEnMin= 8 EnMin= -526.667680639563     IErMin= 8 ErrMin= 1.25D-07
 ErrMax= 1.25D-07  0.00D+00 EMaxC= 1.00D-01 BMatC= 1.00D-11 BMatP= 7.52D-11
 IDIUse=1 WtCom= 1.00D+00 WtEn= 0.00D+00
 Coeff-Com: -0.823D-03 0.132D-01 0.229D-01-0.828D-02-0.997D-01-0.585D-01
 Coeff-Com:  0.265D+00 0.867D+00
 Coeff:     -0.823D-03 0.132D-01 0.229D-01-0.828D-02-0.997D-01-0.585D-01
 Coeff:      0.265D+00 0.867D+00
 Gap=     0.256 Goal=   None    Shift=    0.000
 RMSDP=3.81D-08 MaxDP=1.17D-06 DE=-2.21D-10 OVMax= 6.14D-06

 Cycle  17  Pass 1  IDiag  1:
 E= -526.667680639593     Delta-E=       -0.000000000030 Rises=F Damp=F
 DIIS: error= 3.96D-08 at cycle   9 NSaved=   9.
 NSaved= 9 IEnMin= 9 EnMin= -526.667680639593     IErMin= 9 ErrMin= 3.96D-08
 ErrMax= 3.96D-08  0.00D+00 EMaxC= 1.00D-01 BMatC= 1.39D-12 BMatP= 1.00D-11
 IDIUse=1 WtCom= 1.00D+00 WtEn= 0.00D+00
 Coeff-Com: -0.459D-03 0.391D-02 0.727D-02 0.390D-02-0.224D-01-0.397D-01
 Coeff-Com: -0.191D-01 0.278D+00 0.788D+00
 Coeff:     -0.459D-03 0.391D-02 0.727D-02 0.390D-02-0.224D-01-0.397D-01
 Coeff:     -0.191D-01 0.278D+00 0.788D+00
 Gap=     0.256 Goal=   None    Shift=    0.000
 RMSDP=8.11D-09 MaxDP=1.93D-07 DE=-3.05D-11 OVMax= 1.13D-06

 SCF Done:  E(RM062X) =  -526.667680640     A.U. after   17 cycles
            NFock= 17  Conv=0.81D-08     -V/T= 2.0024
 KE= 5.253895706878D+02 PE=-1.950721086627D+03 EE= 5.475954278608D+02
 Leave Link  502 at Sun May 25 03:47:45 2025, MaxMem=  3758096384 cpu:              59.2 elap:              13.3
 (Enter /apps/easybuild-2022/easybuild/software/Compiler/NVHPC/22.11-CUDA-11.7.0/Gaussian/g16c01-CUDA-11.7.0/g16/l508.exe)
 QCSCF skips out because SCF is already converged.
 Leave Link  508 at Sun May 25 03:47:45 2025, MaxMem=  3758096384 cpu:               0.1 elap:               0.0
 (Enter /apps/easybuild-2022/easybuild/software/Compiler/NVHPC/22.11-CUDA-11.7.0/Gaussian/g16c01-CUDA-11.7.0/g16/l801.exe)
 DoSCS=F DFT=T ScalE2(SS,OS)=  1.000000  1.000000
 Range of M.O.s used for correlation:     1   231
 NBasis=   231 NAE=    28 NBE=    28 NFC=     0 NFV=     0
 NROrb=    231 NOA=    28 NOB=    28 NVA=   203 NVB=   203

 **** Warning!!: The largest alpha MO coefficient is  0.15597980D+02

 Leave Link  801 at Sun May 25 03:47:45 2025, MaxMem=  3758096384 cpu:               0.0 elap:               0.0
 (Enter /apps/easybuild-2022/easybuild/software/Compiler/NVHPC/22.11-CUDA-11.7.0/Gaussian/g16c01-CUDA-11.7.0/g16/l1101.exe)
 Using compressed storage, NAtomX=     8.
 Will process      9 centers per pass.
   1 Symmetry operations used in ECPInt.
 ECPInt:  NShTT=    3486 NPrTT=   11183 LenC2=    3405 LenP2D=    8754.
 LDataN:  DoStor=T MaxTD1= 7 Len=  274
 Leave Link 1101 at Sun May 25 03:47:45 2025, MaxMem=  3758096384 cpu:               0.8 elap:               0.4
 (Enter /apps/easybuild-2022/easybuild/software/Compiler/NVHPC/22.11-CUDA-11.7.0/Gaussian/g16c01-CUDA-11.7.0/g16/l1102.exe)
 Symmetrizing basis deriv contribution to polar:
 IMax=3 JMax=2 DiffMx= 0.00D+00
 Leave Link 1102 at Sun May 25 03:47:45 2025, MaxMem=  3758096384 cpu:               0.1 elap:               0.1
 (Enter /apps/easybuild-2022/easybuild/software/Compiler/NVHPC/22.11-CUDA-11.7.0/Gaussian/g16c01-CUDA-11.7.0/g16/l1110.exe)
 Forming Gx(P) for the SCF density, NAtomX=     8.
 Integral derivatives from FoFJK, PRISM(SPDF).
 Do as many integral derivatives as possible in FoFJK.
 G2DrvN: MDV=    3758095424.
 G2DrvN: will do     9 centers at a time, making    1 passes.
 Calling FoFCou, ICntrl=  3107 FMM=F I1Cent=   0 AccDes= 0.00D+00.
 FoFJK:  IHMeth= 1 ICntrl=    3107 DoSepK=F KAlg= 0 I1Cent=           0 FoldK=F
 IRaf=         0 NMat=       1 IRICut=       1 DoRegI=T DoRafI=F ISym2E= 0 IDoP0=0 IntGTp=1.
 FoFCou: FMM=F IPFlag=           0 FMFlag=      100000 FMFlg1=           0
         NFxFlg=           0 DoJE=F BraDBF=F KetDBF=F FulRan=T
         wScrn=  0.000000 ICntrl=      3107 IOpCl=  0 I1Cent=           0 NGrid=           0
         NMat0=    1 NMatS0=      1 NMatT0=    0 NMatD0=    1 NMtDS0=    0 NMtDT0=    0
 Symmetry not used in FoFCou.
 End of G2Drv F.D. properties file   721 does not exist.
 End of G2Drv F.D. properties file   722 does not exist.
 End of G2Drv F.D. properties file   788 does not exist.
 Leave Link 1110 at Sun May 25 03:48:20 2025, MaxMem=  3758096384 cpu:             118.5 elap:              34.9
 (Enter /apps/easybuild-2022/easybuild/software/Compiler/NVHPC/22.11-CUDA-11.7.0/Gaussian/g16c01-CUDA-11.7.0/g16/l1002.exe)
 Minotr:  Closed shell wavefunction.
          IDoAtm=11111111
          Direct CPHF calculation.
          Differentiating once with respect to electric field.
                with respect to dipole field.
          Differentiating once with respect to nuclear coordinates.
          Requested convergence is 1.0D-08 RMS, and 1.0D-07 maximum.
          Secondary convergence is 1.0D-12 RMS, and 1.0D-12 maximum.
          NewPWx=T KeepS1=F KeepF1=F KeepIn=T MapXYZ=F SortEE=F KeepMc=T.
         2392 words used for storage of precomputed grid.
 Keep R1 ints in memory in canonical form, NReq=368655240.
 FoFCou: FMM=F IPFlag=           0 FMFlag=           0 FMFlg1=           0
         NFxFlg=           0 DoJE=F BraDBF=F KetDBF=F FulRan=T
         wScrn=  0.000000 ICntrl=       600 IOpCl=  0 I1Cent=           0 NGrid=           0
         NMat0=    1 NMatS0=  26796 NMatT0=    0 NMatD0=    1 NMtDS0=    0 NMtDT0=    0
 Symmetry not used in FoFCou.
 Two-electron integral symmetry not used.
          MDV=    3758096384 using IRadAn=       1.
          Solving linear equations simultaneously, MaxMat=       0.
          There are    27 degrees of freedom in the 1st order CPHF.  IDoFFX=6 NUNeed=     3.
     24 vectors produced by pass  0 Test12= 2.11D-14 3.70D-09 XBig12= 2.34D+01 2.37D+00.
 AX will form    24 AO Fock derivatives at one time.
     24 vectors produced by pass  1 Test12= 2.11D-14 3.70D-09 XBig12= 4.78D+00 3.67D-01.
     24 vectors produced by pass  2 Test12= 2.11D-14 3.70D-09 XBig12= 1.10D-01 4.83D-02.
     24 vectors produced by pass  3 Test12= 2.11D-14 3.70D-09 XBig12= 1.84D-03 6.95D-03.
     24 vectors produced by pass  4 Test12= 2.11D-14 3.70D-09 XBig12= 2.93D-05 7.85D-04.
     24 vectors produced by pass  5 Test12= 2.11D-14 3.70D-09 XBig12= 3.42D-07 6.94D-05.
     24 vectors produced by pass  6 Test12= 2.11D-14 3.70D-09 XBig12= 2.31D-09 5.03D-06.
     11 vectors produced by pass  7 Test12= 2.11D-14 3.70D-09 XBig12= 1.16D-11 3.85D-07.
      3 vectors produced by pass  8 Test12= 2.11D-14 3.70D-09 XBig12= 4.87D-14 2.86D-08.
 InvSVY:  IOpt=1 It=  1 EMax= 4.44D-15
 Solved reduced A of dimension   182 with    27 vectors.
 FullF1:  Do perturbations      1 to       3.
 Isotropic polarizability for W=    0.000000       36.57 Bohr**3.
 End of Minotr F.D. properties file   721 does not exist.
 End of Minotr F.D. properties file   722 does not exist.
 End of Minotr F.D. properties file   788 does not exist.
 Leave Link 1002 at Sun May 25 03:48:52 2025, MaxMem=  3758096384 cpu:             171.1 elap:              31.4
 (Enter /apps/easybuild-2022/easybuild/software/Compiler/NVHPC/22.11-CUDA-11.7.0/Gaussian/g16c01-CUDA-11.7.0/g16/l701.exe)
 ... and contract with generalized density number  0.
 Compute integral second derivatives.
   1 Symmetry operations used in ECPInt.
 ECPInt:  NShTT=    3486 NPrTT=   11183 LenC2=    3405 LenP2D=    8754.
 LDataN:  DoStor=T MaxTD1= 8 Len=  415
 Leave Link  701 at Sun May 25 03:48:52 2025, MaxMem=  3758096384 cpu:               1.0 elap:               0.3
 (Enter /apps/easybuild-2022/easybuild/software/Compiler/NVHPC/22.11-CUDA-11.7.0/Gaussian/g16c01-CUDA-11.7.0/g16/l702.exe)
 L702 exits ... SP integral derivatives will be done elsewhere.
 Leave Link  702 at Sun May 25 03:48:52 2025, MaxMem=  3758096384 cpu:               0.1 elap:               0.0
 (Enter /apps/easybuild-2022/easybuild/software/Compiler/NVHPC/22.11-CUDA-11.7.0/Gaussian/g16c01-CUDA-11.7.0/g16/l703.exe)
 Integral derivatives from FoFJK, PRISM(SPDF).
 Compute integral second derivatives, UseDBF=F ICtDFT=           0.
 Calling FoFJK, ICntrl=    100127 FMM=F ISym2X=0 I1Cent= 0 IOpClX= 0 NMat=1 NMatS=1 NMatT=0.
 FoFJK:  IHMeth= 1 ICntrl=  100127 DoSepK=F KAlg= 0 I1Cent=           0 FoldK=F
 IRaf=         0 NMat=       1 IRICut=       1 DoRegI=T DoRafI=F ISym2E= 0 IDoP0=0 IntGTp=1.
 FoFCou: FMM=F IPFlag=           0 FMFlag=      100000 FMFlg1=         800
         NFxFlg=           0 DoJE=F BraDBF=F KetDBF=F FulRan=T
         wScrn=  0.000000 ICntrl=    100127 IOpCl=  0 I1Cent=           0 NGrid=           0
         NMat0=    1 NMatS0=      1 NMatT0=    0 NMatD0=    1 NMtDS0=    0 NMtDT0=    0
 Symmetry not used in FoFCou.
 Leave Link  703 at Sun May 25 03:49:27 2025, MaxMem=  3758096384 cpu:             256.5 elap:              34.5
 (Enter /apps/easybuild-2022/easybuild/software/Compiler/NVHPC/22.11-CUDA-11.7.0/Gaussian/g16c01-CUDA-11.7.0/g16/l716.exe)
 Dipole        = 1.07401029D+00 1.02451027D+00 1.42477963D+00
 Polarizability= 3.71394705D+01 4.68339051D+00 3.33070046D+01
                 8.50784514D+00 4.52669982D+00 3.92567191D+01
 -------------------------------------------------------------------
 Center     Atomic                   Forces (Hartrees/Bohr)
 Number     Number              X              Y              Z
 -------------------------------------------------------------------
      1        6          -0.003230617    0.086160619   -0.042618504
      2        8           0.048574459   -0.050469510   -0.004288584
      3        6          -0.016289260    0.033991090   -0.103248275
      4        9           0.007705253    0.071311758    0.121605515
      5        9          -0.069392981   -0.034262012    0.052177760
      6        9           0.073147915   -0.072352439   -0.027721811
      7        8          -0.035134928   -0.033668519    0.004816745
      8        1          -0.005379842   -0.000710988   -0.000722846
 -------------------------------------------------------------------
 Cartesian Forces:  Max     0.121605515 RMS     0.053493003
 Force constants in Cartesian coordinates: 
                1             2             3             4             5 
      1  0.614647D+00
      2  0.107114D+00  0.665921D+00
      3  0.115179D-02  0.172041D+00  0.144351D+00
      4 -0.140040D-01  0.108923D-01  0.845283D-02  0.919785D-01
      5  0.221984D-01 -0.971843D-02  0.507289D-01 -0.691349D-01  0.257970D+00
      6 -0.143667D-01  0.528476D-02 -0.326094D-01  0.355976D-02 -0.762336D-01
      7 -0.293950D-01 -0.999784D-01 -0.792939D-02 -0.104812D+00  0.692791D-02
      8 -0.106519D+00 -0.201827D+00 -0.118811D+00  0.451551D-01 -0.144562D+00
      9 -0.818878D-02 -0.103647D+00  0.869629D-02 -0.459640D-01  0.254490D-01
     10 -0.253693D+00  0.127600D+00  0.902836D-02  0.309381D-01  0.170745D-01
     11  0.127232D+00 -0.189679D+00 -0.338964D-01  0.121539D-02 -0.745575D-02
     12  0.324001D-01 -0.112302D-01 -0.324773D-01  0.201039D-01 -0.846779D-01
     13 -0.490986D-01 -0.213642D-01 -0.700122D-03  0.132853D-01 -0.164482D-01
     14 -0.328535D-01 -0.121717D-01  0.158803D-02 -0.281980D-01 -0.336474D-01
     15 -0.132560D-01 -0.123176D-01 -0.365320D-02  0.390256D-01  0.553873D-01
     16  0.289478D-02 -0.559338D-03 -0.141573D-02 -0.795772D-02  0.521547D-01
     17  0.266347D-01 -0.250912D-01 -0.243809D-01  0.442762D-01 -0.664512D-01
     18  0.139898D-01 -0.308549D-01 -0.247568D-01 -0.194627D-01  0.368230D-01
     19 -0.265759D+00 -0.671940D-01  0.567790D-03 -0.939842D-02 -0.148404D-01
     20 -0.129143D+00 -0.202421D+00 -0.394342D-01 -0.645473D-02  0.145619D-02
     21 -0.124931D-01 -0.178448D-01 -0.595555D-01 -0.892474D-02 -0.860012D-02
     22 -0.559232D-02 -0.565103D-01 -0.915553D-02 -0.295652D-04  0.206806D-02
     23 -0.146643D-01 -0.250131D-01 -0.783542D-02  0.224867D-02  0.240883D-02
     24  0.762918D-03 -0.143088D-02  0.539508D-05  0.320949D-02  0.112350D-02
                6             7             8             9            10 
      6  0.325099D+00
      7 -0.435054D-02  0.688165D+00
      8  0.824133D-01 -0.761021D-02  0.828640D+00
      9 -0.159270D+00 -0.209314D+00  0.146278D+00  0.412362D+00
     10  0.149143D-01 -0.144852D-01  0.108258D-01  0.352914D-01  0.286576D+00
     11 -0.619693D-01  0.599114D-01 -0.500580D-01 -0.335112D-01 -0.178956D+00
     12 -0.126782D+00  0.174832D-02 -0.354670D-01 -0.280293D-01 -0.472037D-01
     13  0.174495D-01 -0.322622D+00 -0.147764D+00  0.143587D+00  0.745499D-02
     14  0.468047D-01 -0.158745D+00 -0.144452D+00  0.782724D-01 -0.389887D-02
     15 -0.275418D-01  0.133720D+00  0.657973D-01 -0.115378D+00 -0.110917D-01
     16 -0.105597D-01 -0.202790D+00  0.187261D+00  0.102476D+00  0.126737D-02
     17  0.132499D-01  0.199286D+00 -0.314058D+00 -0.142270D+00  0.481664D-02
     18  0.175008D-01  0.102007D+00 -0.129277D+00 -0.111553D+00 -0.158137D-03
     19 -0.622350D-02 -0.145452D-01  0.170128D-01 -0.239985D-01 -0.602026D-01
     20 -0.106656D-01 -0.226783D-02  0.283277D-01  0.230203D-01  0.175135D-01
     21  0.220070D-02 -0.122299D-01 -0.284515D-02 -0.107913D-01  0.238170D-03
     22 -0.423101D-03  0.484355D-03  0.163895D-02  0.611122D-02  0.214388D-02
     23  0.111579D-02  0.247576D-02 -0.201124D-02  0.640826D-02  0.502500D-02
     24  0.140268D-02 -0.365136D-02 -0.808867D-02  0.396253D-02 -0.101880D-02
               11            12            13            14            15 
     11  0.240174D+00
     12  0.130606D+00  0.170615D+00
     13 -0.151862D-02 -0.178852D-02  0.445493D+00
     14 -0.991081D-02 -0.120634D-02  0.189854D+00  0.187694D+00
     15  0.153047D-02  0.371948D-02 -0.218846D+00 -0.104143D+00  0.157676D+00
     16 -0.515073D-02 -0.127189D-02 -0.936220D-01  0.383355D-01  0.666792D-01
     17 -0.116271D-01 -0.233151D-02  0.898043D-02  0.213018D-01 -0.455266D-02
     18 -0.106632D-01  0.239580D-02  0.598888D-01 -0.213899D-01 -0.157157D-01
     19 -0.753803D-02 -0.438491D-02  0.945881D-03 -0.343723D-02  0.444546D-02
     20  0.268731D-01  0.323322D-02 -0.117559D-01 -0.961684D-02 -0.820069D-03
     21  0.621320D-02  0.140868D-01  0.543940D-04 -0.581111D-03  0.222711D-02
     22  0.480500D-02  0.396735D-03 -0.183730D-02 -0.105674D-02 -0.675832D-03
     23  0.168361D-02  0.107348D-02  0.171344D-04  0.803070D-03 -0.882142D-03
     24  0.169015D-02 -0.352922D-02  0.355448D-03  0.654709D-03 -0.133381D-02
               16            17            18            19            20 
     16  0.294373D+00
     17 -0.277296D+00  0.401317D+00
     18 -0.156769D+00  0.158319D+00  0.131106D+00
     19  0.564605D-02 -0.677272D-02  0.844916D-03  0.388507D+00
     20  0.550804D-02 -0.601548D-02 -0.250419D-02  0.424876D-01  0.646355D+00
     21  0.143010D-02  0.403216D-03  0.114498D-02  0.287728D-01  0.424572D-01
     22  0.188811D-03  0.749518D-04 -0.341135D-03 -0.451941D-01  0.841120D-01
     23 -0.252464D-03  0.624339D-03 -0.453119D-03  0.402820D-01 -0.484959D+00
     24 -0.569082D-03  0.156225D-02 -0.121653D-03 -0.239776D-04 -0.152866D-01
               21            22            23            24 
     21  0.600893D-01
     22  0.315228D-02  0.498362D-01
     23 -0.192024D-01 -0.351318D-01  0.506463D+00
     24 -0.940212D-02  0.935364D-03  0.197756D-01  0.901620D-02
 FormGI is forming the generalized inverse of G from B-inverse, IUseBI=4.
 Force constants in internal coordinates: 
                1             2             3             4             5 
      1  0.459509D+00
      2  0.103254D+00  0.447463D+00
      3  0.150827D-01  0.404068D-01  0.424928D+00
      4  0.748211D-01  0.265330D-01  0.257493D-02  0.375855D+00
      5  0.447117D-01  0.109700D-01  0.959495D-02  0.624759D-01  0.661615D+00
      6  0.386654D-01  0.728997D-02  0.108404D-01  0.678403D-01  0.788083D-01
      7 -0.629414D-02 -0.325655D-02  0.119276D-01  0.955542D-04 -0.939785D-03
      8  0.204607D+00  0.919076D-01 -0.203386D-01  0.555763D-01 -0.666656D-04
      9 -0.830707D-01 -0.613599D-01  0.144906D-01 -0.256153D-01  0.618925D-02
     10 -0.857912D-01 -0.272022D-01  0.111875D-01 -0.312510D-01 -0.482258D-02
     11  0.141229D+00  0.107436D+00  0.341848D-01  0.290848D-01 -0.383804D-01
     12  0.600493D-01 -0.269680D-01  0.244476D-02 -0.190895D-01  0.174843D-01
     13  0.648251D-02  0.756985D-02 -0.986958D-02 -0.390988D-01 -0.607086D-01
     14 -0.254723D-01 -0.295786D-01 -0.119027D-01  0.214921D-01  0.258689D-01
     15 -0.117160D+00 -0.437170D-01 -0.864195D-02  0.187721D-01 -0.651568D-02
     16 -0.491294D-01 -0.784620D-02 -0.368322D-02 -0.545339D-02  0.505165D-01
     17 -0.841051D-02  0.121029D-02  0.522475D-01  0.309843D-02  0.273144D-02
     18  0.108941D+00  0.146377D-01  0.128200D-02  0.582927D-02  0.225713D-01
     19  0.498381D-01 -0.537191D-03 -0.352422D-02 -0.284835D-01  0.880407D-02
     20  0.581367D-01  0.295020D-01  0.853538D-02  0.333535D-01 -0.254291D-01
     21  0.330021D-01 -0.779444D-02 -0.600307D-02  0.648112D-02  0.237069D-01
     22 -0.261012D-01 -0.229693D-01 -0.108093D-01 -0.278317D-01  0.993960D-02
     23 -0.178026D-01  0.706985D-02  0.125031D-02  0.340054D-01 -0.242936D-01
     24  0.788422D-01  0.255372D-01  0.144619D-02  0.881244D-02 -0.420752D-03
     25 -0.756716D-01 -0.226949D-01 -0.536402D-03 -0.105951D-01 -0.167669D-02
                6             7             8             9            10 
      6  0.714271D+00
      7 -0.537131D-03  0.509756D+00
      8  0.722538D-02  0.458378D-02  0.448794D+00
      9 -0.381187D-02  0.721193D-03 -0.174107D+00  0.168076D+00
     10 -0.536565D-02 -0.514086D-02 -0.245529D+00  0.304734D-01  0.186312D+00
     11 -0.449956D-01 -0.660601D-02  0.240077D+00 -0.100223D+00 -0.892903D-01
     12 -0.601770D-01  0.118745D-02 -0.164616D-02  0.936024D-02 -0.124796D-01
     13  0.243567D-01  0.957342D-03 -0.246159D-01  0.488922D-02  0.870292D-02
     14 -0.610313D-02  0.219516D-02 -0.114262D-01 -0.177307D-02  0.345052D-02
     15  0.265999D-01  0.128897D-02 -0.154741D+00  0.670020D-01  0.646682D-01
     16  0.472537D-01  0.515099D-03 -0.281792D-01  0.122188D-01  0.166235D-01
     17  0.140423D-03  0.237170D-01  0.459965D-02  0.159858D-01 -0.178187D-01
     18 -0.214058D-01  0.431645D-03  0.131485D+00 -0.526314D-01 -0.532584D-01
     19  0.237622D-01  0.106004D-02  0.213138D-01 -0.146710D-02 -0.808422D-02
     20 -0.994216D-02 -0.169071D-02  0.862790D-01 -0.325452D-01 -0.283125D-01
     21 -0.178606D-01  0.169791D-02  0.738804D-01 -0.424401D-01 -0.355230D-01
     22  0.273075D-01  0.232630D-02 -0.362907D-01  0.872417D-02  0.965114D-02
     23 -0.639693D-02 -0.424450D-03  0.286745D-01 -0.223540D-01 -0.105771D-01
     24 -0.176686D-02  0.188906D-02  0.115529D+00 -0.175314D-01 -0.703864D-01
     25 -0.626533D-03  0.392089D-03 -0.117177D+00  0.210364D-01  0.685450D-01
               11            12            13            14            15 
     11  0.407853D+00
     12  0.236193D-01  0.233426D+00
     13  0.152445D-02 -0.215893D-01  0.229698D+00
     14 -0.861874D-01 -0.604160D-01 -0.336567D-01  0.111650D+00
     15 -0.261061D+00 -0.160238D-01 -0.322122D-01  0.357711D-01  0.225183D+00
     16 -0.555528D-01 -0.133688D+00 -0.122857D+00  0.285098D-01  0.308676D-01
     17 -0.698316D-02  0.583512D-02 -0.323266D-03  0.546391D-03  0.153897D-02
     18  0.182095D+00 -0.869844D-02 -0.476913D-01  0.993479D-02 -0.125218D+00
     19  0.633719D-01 -0.117388D-01 -0.518103D-02 -0.560878D-01 -0.271829D-01
     20  0.120102D+00 -0.196873D-01 -0.169481D-01 -0.925301D-02 -0.272242D-01
     21  0.730735D-01  0.682596D-02 -0.275867D-01  0.264922D-01 -0.735146D-01
     22 -0.456497D-01  0.378559D-02  0.149236D-01 -0.395304D-01  0.245203D-01
     23  0.110808D-01 -0.416293D-02  0.315649D-02  0.730441D-02  0.244790D-01
     24  0.953446D-01 -0.464257D-02 -0.157484D-01 -0.989499D-02 -0.542626D-01
     25 -0.104871D+00  0.815757D-02  0.158589D-01  0.136189D-01  0.552014D-01
               16            17            18            19            20 
     16  0.208662D+00
     17 -0.901931D-03  0.159393D+00
     18  0.851077D-03 -0.212629D-02  0.105484D+00
     19  0.310510D-01 -0.621305D-03  0.287926D-02  0.363342D-01
     20 -0.320654D-01 -0.455589D-02  0.535831D-01  0.720129D-02  0.879015D-01
     21  0.177389D-04  0.325926D-02  0.516211D-01 -0.174648D-01  0.129808D-02
     22  0.302177D-01  0.476424D-02 -0.509839D-01  0.159902D-01 -0.450837D-01
     23 -0.328987D-01  0.829654D-03 -0.280085D-03 -0.131427D-01  0.356165D-01
     24 -0.451282D-02  0.133793D-02  0.533450D-01  0.166219D-01  0.419958D-01
     25  0.512494D-02 -0.203036D-02 -0.513274D-01 -0.147804D-01 -0.444792D-01
               21            22            23            24            25 
     21  0.522037D-01
     22 -0.168822D-01  0.500919D-01
     23  0.188065D-02 -0.109820D-01  0.377772D-01
     24  0.132804D-01 -0.234427D-01  0.193117D-02  0.542985D-01
     25 -0.950797D-02  0.270391D-01 -0.265975D-02 -0.416640D-01  0.555761D-01
 Leave Link  716 at Sun May 25 03:49:27 2025, MaxMem=  3758096384 cpu:               0.1 elap:               0.1
 (Enter /apps/easybuild-2022/easybuild/software/Compiler/NVHPC/22.11-CUDA-11.7.0/Gaussian/g16c01-CUDA-11.7.0/g16/l103.exe)

 GradGradGradGradGradGradGradGradGradGradGradGradGradGradGradGradGradGrad
 Berny optimization.
 Red2BG is reusing G-inverse.
 Internal  Forces:  Max     0.189921690 RMS     0.066182129
 Search for a saddle point.
 Step number   1 out of a maximum of  100
 All quantities printed in internal units (Hartrees-Bohrs-Radians)
 Swapping is turned off.
 Second derivative matrix not updated -- analytic derivatives used.
 ITU=  0
     Eigenvalues ---   -0.03735   0.01308   0.02527   0.11974   0.14693
     Eigenvalues ---    0.15426   0.18201   0.22913   0.28389   0.30386
     Eigenvalues ---    0.38557   0.40876   0.43052   0.47837   0.51460
     Eigenvalues ---    0.63181   0.82869   1.35299
 Eigenvectors required to have negative eigenvalues:
                          D2        D1        A4        D5        D4
   1                   -0.51436  -0.47647   0.39525  -0.26715  -0.22927
                          D3        D8        A5        R1        A6
   1                   -0.22235   0.20248  -0.17200   0.16556  -0.15889
 RFO step:  Lambda0=4.581106388D-03 Lambda=-1.25482959D-01.
 Linear search not attempted -- option 19 set.
 Maximum step size (   0.300) exceeded in Quadratic search.
    -- Step size scaled by   0.625
 Iteration  1 RMS(Cart)=  0.09324406 RMS(Int)=  0.00552771
 Iteration  2 RMS(Cart)=  0.00581283 RMS(Int)=  0.00158775
 Iteration  3 RMS(Cart)=  0.00002624 RMS(Int)=  0.00158759
 Iteration  4 RMS(Cart)=  0.00000010 RMS(Int)=  0.00158759
 ITry= 1 IFail=0 DXMaxC= 2.79D-01 DCOld= 1.00D+10 DXMaxT= 3.00D-01 DXLimC= 3.00D+00 Rises=F
 Variable       Old X    -DE/DX   Delta X   Delta X   Delta X     New X
                                 (Linear)    (Quad)   (Total)
    R1        2.74010   0.11782   0.00000   0.09787   0.09787   2.83798
    R2        2.47388   0.03889   0.00000  -0.01632  -0.01632   2.45757
    R3        2.50157  -0.05139   0.00000  -0.06082  -0.06082   2.44075
    R4        2.54472  -0.04338   0.00000  -0.14031  -0.14031   2.40441
    R5        2.38859   0.09205   0.00000   0.07729   0.07729   2.46588
    R6        2.36754   0.10545   0.00000   0.07798   0.07798   2.44552
    R7        1.83416  -0.00021   0.00000   0.00217   0.00217   1.83633
    A1        1.61920   0.18992   0.00000   0.14157   0.14198   1.76118
    A2        2.41349  -0.08148   0.00000  -0.08492  -0.08437   2.32912
    A3        2.07481  -0.08844   0.00000  -0.05927  -0.05799   2.01682
    A4        1.59234   0.03989   0.00000   0.03980   0.04043   1.63278
    A5        1.99251  -0.01922   0.00000  -0.05832  -0.06087   1.93165
    A6        2.04483  -0.03179   0.00000  -0.06810  -0.07037   1.97446
    A7        1.98703   0.02327   0.00000   0.02095   0.02138   2.00841
    A8        1.98514  -0.03036   0.00000   0.05820   0.05915   2.04430
    A9        1.85869   0.01831   0.00000   0.01190   0.00709   1.86578
   A10        1.95811  -0.01001   0.00000  -0.00208  -0.00208   1.95603
    D1        1.00038   0.06584   0.00000  -0.06797  -0.06836   0.93203
    D2       -1.04045   0.02401   0.00000  -0.09729  -0.09584  -1.13629
    D3        3.05329   0.04483   0.00000   0.00318   0.00028   3.05357
    D4       -1.46655   0.02038   0.00000  -0.08010  -0.07926  -1.54582
    D5        2.77580  -0.02145   0.00000  -0.10942  -0.10674   2.66906
    D6        0.58635  -0.00064   0.00000  -0.00895  -0.01063   0.57572
    D7        2.25259   0.05800   0.00000   0.04700   0.04827   2.30087
    D8       -0.09595  -0.05859   0.00000  -0.00856  -0.00983  -0.10579
         Item               Value     Threshold  Converged?
 Maximum Force            0.189922     0.000450     NO 
 RMS     Force            0.066182     0.000300     NO 
 Maximum Displacement     0.278736     0.001800     NO 
 RMS     Displacement     0.093206     0.001200     NO 
 Predicted change in Energy=-5.697254D-02
 Lowest energy point so far.  Saving SCF results.
 GradGradGradGradGradGradGradGradGradGradGradGradGradGradGradGradGradGrad

 Leave Link  103 at Sun May 25 03:49:27 2025, MaxMem=  3758096384 cpu:               0.1 elap:               0.1
 (Enter /apps/easybuild-2022/easybuild/software/Compiler/NVHPC/22.11-CUDA-11.7.0/Gaussian/g16c01-CUDA-11.7.0/g16/l202.exe)
                          Input orientation:                          
 ---------------------------------------------------------------------
 Center     Atomic      Atomic             Coordinates (Angstroms)
 Number     Number       Type             X           Y           Z
 ---------------------------------------------------------------------
      1          6           0        2.027991    1.027441    0.410783
      2          8           0        1.073061    0.840175   -1.367990
      3          6           0        1.428175   -0.011830   -0.492276
      4          9           0        1.029416    1.851223    0.535276
      5          9           0        0.447855   -0.631499    0.105822
      6          9           0        2.276956   -0.916982   -0.859703
      7          8           0        3.202288    1.558278    0.497030
      8          1           0        3.161738    2.527670    0.551067
 ---------------------------------------------------------------------
                    Distance matrix (angstroms):
                    1          2          3          4          5
     1  C    0.000000
     2  O    2.027558   0.000000
     3  C    1.501792   1.272358   0.000000
     4  F    1.300488   2.155584   2.164679   0.000000
     5  F    2.311257   2.174587   1.304889   2.585836   0.000000
     6  F    2.336000   2.189822   1.294115   3.341449   2.087905
     7  O    1.291589   2.920203   2.567381   2.192865   3.540490
     8  H    1.885670   3.300453   3.246978   2.237103   4.188526
                    6          7          8
     6  F    0.000000
     7  O    2.970501   0.000000
     8  H    3.826061   0.971743   0.000000
 Symmetry turned off by external request.
 Stoichiometry    C2HF3O2
 Rotational constants (GHZ):           4.3124296           2.6230337           2.1235358
 Leave Link  202 at Sun May 25 03:49:27 2025, MaxMem=  3758096384 cpu:               0.1 elap:               0.0
 (Enter /apps/easybuild-2022/easybuild/software/Compiler/NVHPC/22.11-CUDA-11.7.0/Gaussian/g16c01-CUDA-11.7.0/g16/l301.exe)
 Standard basis: def2TZVPP (5D, 7F)
 Ernie: Thresh=  0.10000D-02 Tol=  0.10000D-05 Strict=F.
   231 basis functions,   374 primitive gaussians,   267 cartesian basis functions
    28 alpha electrons       28 beta electrons
       nuclear repulsion energy       346.3863945101 Hartrees.
 IExCor= 4336 DFT=T Ex+Corr=M062X ExCW=0 ScaHFX=  0.540000
 ScaDFX=  1.000000  1.000000  1.000000  1.000000 ScalE2=  1.000000  1.000000
 IRadAn=      5 IRanWt=     -1 IRanGd=            0 ICorTp=0 IEmpDi=  4
 NAtoms=    8 NActive=    8 NUniq=    8 SFac= 1.00D+00 NAtFMM=   60 NAOKFM=F Big=F
 Integral buffers will be    131072 words long.
 Raffenetti 2 integral format.
 Two-electron integral symmetry is turned off.
 Leave Link  301 at Sun May 25 03:49:27 2025, MaxMem=  3758096384 cpu:               0.1 elap:               0.1
 (Enter /apps/easybuild-2022/easybuild/software/Compiler/NVHPC/22.11-CUDA-11.7.0/Gaussian/g16c01-CUDA-11.7.0/g16/l302.exe)
 NPDir=0 NMtPBC=     1 NCelOv=     1 NCel=       1 NClECP=     1 NCelD=      1
         NCelK=      1 NCelE2=     1 NClLst=     1 CellRange=     0.0.
 One-electron integrals computed using PRISM.
   1 Symmetry operations used in ECPInt.
 ECPInt:  NShTT=    3486 NPrTT=   11183 LenC2=    3401 LenP2D=    8738.
 LDataN:  DoStor=T MaxTD1= 6 Len=  172
 NBasis=   231 RedAO= T EigKep=  4.18D-04  NBF=   231
 NBsUse=   231 1.00D-06 EigRej= -1.00D+00 NBFU=   231
 Precomputing XC quadrature grid using
 IXCGrd= 4 IRadAn=           5 IRanWt=          -1 IRanGd=           0 AccXCQ= 0.00D+00.
 Generated NRdTot=       0 NPtTot=           0 NUsed=           0 NTot=          32
 NSgBfM=   266   266   266   266   266 MxSgAt=     8 MxSgA2=     8.
 Leave Link  302 at Sun May 25 03:49:27 2025, MaxMem=  3758096384 cpu:               0.7 elap:               0.4
 (Enter /apps/easybuild-2022/easybuild/software/Compiler/NVHPC/22.11-CUDA-11.7.0/Gaussian/g16c01-CUDA-11.7.0/g16/l303.exe)
 DipDrv:  MaxL=1.
 Leave Link  303 at Sun May 25 03:49:27 2025, MaxMem=  3758096384 cpu:               0.1 elap:               0.1
 (Enter /apps/easybuild-2022/easybuild/software/Compiler/NVHPC/22.11-CUDA-11.7.0/Gaussian/g16c01-CUDA-11.7.0/g16/l401.exe)
 Initial guess from the checkpoint file:  "1141903082400600000001_r13_insertion_ROR_4_3_1_2.chk"
 B after Tr=     0.013521   -0.007350    0.016583
         Rot=    0.999992    0.001993   -0.001456   -0.003173 Ang=   0.46 deg.
 Guess basis will be translated and rotated to current coordinates.
 JPrj=2 DoOrth=T DoCkMO=T.
 Generating alternative initial guess.
 ExpMin= 9.52D-02 ExpMax= 3.55D+04 ExpMxC= 1.21D+03 IAcc=3 IRadAn=         5 AccDes= 0.00D+00
 Harris functional with IExCor= 1009 and IRadAn=       5 diagonalized for initial guess.
 HarFok:  IExCor= 1009 AccDes= 0.00D+00 IRadAn=         5 IDoV= 1 UseB2=F ITyADJ=14
 ICtDFT=  3500011 ScaDFX=  1.000000  1.000000  1.000000  1.000000
 FoFCou: FMM=F IPFlag=           0 FMFlag=      100000 FMFlg1=           0
         NFxFlg=           0 DoJE=T BraDBF=F KetDBF=T FulRan=T
         wScrn=  0.000000 ICntrl=       500 IOpCl=  0 I1Cent=   200000004 NGrid=           0
         NMat0=    1 NMatS0=      1 NMatT0=    0 NMatD0=    1 NMtDS0=    0 NMtDT0=    0
 Symmetry not used in FoFCou.
 Harris En= -526.459048631663    
 Leave Link  401 at Sun May 25 03:49:28 2025, MaxMem=  3758096384 cpu:               3.2 elap:               0.9
 (Enter /apps/easybuild-2022/easybuild/software/Compiler/NVHPC/22.11-CUDA-11.7.0/Gaussian/g16c01-CUDA-11.7.0/g16/l502.exe)
 Keep R1 ints in memory in canonical form, NReq=368651279.
 FoFCou: FMM=F IPFlag=           0 FMFlag=           0 FMFlg1=           0
         NFxFlg=           0 DoJE=F BraDBF=F KetDBF=F FulRan=T
         wScrn=  0.000000 ICntrl=       600 IOpCl=  0 I1Cent=           0 NGrid=           0
         NMat0=    1 NMatS0=  26796 NMatT0=    0 NMatD0=    1 NMtDS0=    0 NMtDT0=    0
 Symmetry not used in FoFCou.
 Two-electron integral symmetry not used.
 Closed shell SCF:
 Using DIIS extrapolation, IDIIS=  1040.
 NGot=  3758096384 LenX=  3398923531 LenY=  3398851801
 Requested convergence on RMS density matrix=1.00D-08 within  32 cycles.
 Requested convergence on MAX density matrix=1.00D-06.
 Requested convergence on             energy=1.00D-06.
 No special actions if energy rises.
 Integral accuracy reduced to 1.0D-05 until final iterations.

 Cycle   1  Pass 0  IDiag  1:
 E= -526.697732705638    
 DIIS: error= 4.85D-03 at cycle   1 NSaved=   1.
 NSaved= 1 IEnMin= 1 EnMin= -526.697732705638     IErMin= 1 ErrMin= 4.85D-03
 ErrMax= 4.85D-03  0.00D+00 EMaxC= 1.00D-01 BMatC= 2.26D-02 BMatP= 2.26D-02
 IDIUse=3 WtCom= 9.51D-01 WtEn= 4.85D-02
 Coeff-Com:  0.100D+01
 Coeff-En:   0.100D+01
 Coeff:      0.100D+01
 Gap=     1.147 Goal=   None    Shift=    0.000
 GapD=    1.147 DampG=2.000 DampE=1.000 DampFc=2.0000 IDamp=-1.
 RMSDP=6.60D-04 MaxDP=1.13D-02              OVMax= 4.68D-02

 Cycle   2  Pass 0  IDiag  1:
 E= -526.721856039367     Delta-E=       -0.024123333728 Rises=F Damp=F
 DIIS: error= 2.19D-03 at cycle   2 NSaved=   2.
 NSaved= 2 IEnMin= 2 EnMin= -526.721856039367     IErMin= 2 ErrMin= 2.19D-03
 ErrMax= 2.19D-03  0.00D+00 EMaxC= 1.00D-01 BMatC= 3.25D-03 BMatP= 2.26D-02
 IDIUse=3 WtCom= 9.78D-01 WtEn= 2.19D-02
 Coeff-Com:  0.984D-01 0.902D+00
 Coeff-En:   0.000D+00 0.100D+01
 Coeff:      0.963D-01 0.904D+00
 Gap=     0.265 Goal=   None    Shift=    0.000
 RMSDP=3.12D-04 MaxDP=1.14D-02 DE=-2.41D-02 OVMax= 4.46D-02

 Cycle   3  Pass 0  IDiag  1:
 E= -526.720845595540     Delta-E=        0.001010443827 Rises=F Damp=F
 DIIS: error= 3.10D-03 at cycle   3 NSaved=   3.
 NSaved= 3 IEnMin= 2 EnMin= -526.721856039367     IErMin= 2 ErrMin= 2.19D-03
 ErrMax= 3.10D-03  0.00D+00 EMaxC= 1.00D-01 BMatC= 5.40D-03 BMatP= 3.25D-03
 IDIUse=3 WtCom= 1.52D-01 WtEn= 8.48D-01
 Coeff-Com: -0.711D-01 0.600D+00 0.471D+00
 Coeff-En:   0.000D+00 0.577D+00 0.423D+00
 Coeff:     -0.108D-01 0.581D+00 0.430D+00
 Gap=     0.280 Goal=   None    Shift=    0.000
 RMSDP=1.97D-04 MaxDP=8.64D-03 DE= 1.01D-03 OVMax= 3.17D-02

 Cycle   4  Pass 0  IDiag  1:
 E= -526.724812677303     Delta-E=       -0.003967081763 Rises=F Damp=F
 DIIS: error= 5.01D-04 at cycle   4 NSaved=   4.
 NSaved= 4 IEnMin= 4 EnMin= -526.724812677303     IErMin= 4 ErrMin= 5.01D-04
 ErrMax= 5.01D-04  0.00D+00 EMaxC= 1.00D-01 BMatC= 1.06D-04 BMatP= 3.25D-03
 IDIUse=3 WtCom= 9.95D-01 WtEn= 5.01D-03
 Coeff-Com: -0.264D-01 0.417D-01 0.132D+00 0.852D+00
 Coeff-En:   0.000D+00 0.000D+00 0.000D+00 0.100D+01
 Coeff:     -0.262D-01 0.415D-01 0.131D+00 0.853D+00
 Gap=     0.277 Goal=   None    Shift=    0.000
 RMSDP=4.85D-05 MaxDP=1.01D-03 DE=-3.97D-03 OVMax= 5.46D-03

 Cycle   5  Pass 0  IDiag  1:
 E= -526.724937839527     Delta-E=       -0.000125162224 Rises=F Damp=F
 DIIS: error= 1.46D-04 at cycle   5 NSaved=   5.
 NSaved= 5 IEnMin= 5 EnMin= -526.724937839527     IErMin= 5 ErrMin= 1.46D-04
 ErrMax= 1.46D-04  0.00D+00 EMaxC= 1.00D-01 BMatC= 1.35D-05 BMatP= 1.06D-04
 IDIUse=3 WtCom= 9.99D-01 WtEn= 1.46D-03
 Coeff-Com: -0.140D-02-0.561D-01-0.357D-04 0.333D+00 0.725D+00
 Coeff-En:   0.000D+00 0.000D+00 0.000D+00 0.000D+00 0.100D+01
 Coeff:     -0.140D-02-0.560D-01-0.357D-04 0.332D+00 0.725D+00
 Gap=     0.277 Goal=   None    Shift=    0.000
 RMSDP=1.66D-05 MaxDP=4.86D-04 DE=-1.25D-04 OVMax= 2.65D-03

 Cycle   6  Pass 0  IDiag  1:
 E= -526.724954442232     Delta-E=       -0.000016602705 Rises=F Damp=F
 DIIS: error= 4.34D-05 at cycle   6 NSaved=   6.
 NSaved= 6 IEnMin= 6 EnMin= -526.724954442232     IErMin= 6 ErrMin= 4.34D-05
 ErrMax= 4.34D-05  0.00D+00 EMaxC= 1.00D-01 BMatC= 1.39D-06 BMatP= 1.35D-05
 IDIUse=1 WtCom= 1.00D+00 WtEn= 0.00D+00
 Coeff-Com:  0.310D-02-0.198D-01-0.182D-01-0.456D-01 0.191D+00 0.889D+00
 Coeff:      0.310D-02-0.198D-01-0.182D-01-0.456D-01 0.191D+00 0.889D+00
 Gap=     0.277 Goal=   None    Shift=    0.000
 RMSDP=9.54D-06 MaxDP=2.67D-04 DE=-1.66D-05 OVMax= 1.75D-03

 Initial convergence to 1.0D-05 achieved.  Increase integral accuracy.
 Cycle   7  Pass 1  IDiag  1:
 E= -526.724996842574     Delta-E=       -0.000042400342 Rises=F Damp=F
 DIIS: error= 2.91D-05 at cycle   1 NSaved=   1.
 NSaved= 1 IEnMin= 1 EnMin= -526.724996842574     IErMin= 1 ErrMin= 2.91D-05
 ErrMax= 2.91D-05  0.00D+00 EMaxC= 1.00D-01 BMatC= 6.25D-07 BMatP= 6.25D-07
 IDIUse=1 WtCom= 1.00D+00 WtEn= 0.00D+00
 Coeff-Com:  0.100D+01
 Coeff:      0.100D+01
 Gap=     0.277 Goal=   None    Shift=    0.000
 RMSDP=9.54D-06 MaxDP=2.67D-04 DE=-4.24D-05 OVMax= 6.97D-04

 Cycle   8  Pass 1  IDiag  1:
 E= -526.724997837453     Delta-E=       -0.000000994878 Rises=F Damp=F
 DIIS: error= 1.59D-05 at cycle   2 NSaved=   2.
 NSaved= 2 IEnMin= 2 EnMin= -526.724997837453     IErMin= 2 ErrMin= 1.59D-05
 ErrMax= 1.59D-05  0.00D+00 EMaxC= 1.00D-01 BMatC= 1.51D-07 BMatP= 6.25D-07
 IDIUse=1 WtCom= 1.00D+00 WtEn= 0.00D+00
 Coeff-Com:  0.216D+00 0.784D+00
 Coeff:      0.216D+00 0.784D+00
 Gap=     0.277 Goal=   None    Shift=    0.000
 RMSDP=2.62D-06 MaxDP=9.35D-05 DE=-9.95D-07 OVMax= 3.77D-04

 Cycle   9  Pass 1  IDiag  1:
 E= -526.724998034970     Delta-E=       -0.000000197517 Rises=F Damp=F
 DIIS: error= 1.31D-05 at cycle   3 NSaved=   3.
 NSaved= 3 IEnMin= 3 EnMin= -526.724998034970     IErMin= 3 ErrMin= 1.31D-05
 ErrMax= 1.31D-05  0.00D+00 EMaxC= 1.00D-01 BMatC= 9.34D-08 BMatP= 1.51D-07
 IDIUse=1 WtCom= 1.00D+00 WtEn= 0.00D+00
 Coeff-Com: -0.665D-01 0.430D+00 0.637D+00
 Coeff:     -0.665D-01 0.430D+00 0.637D+00
 Gap=     0.277 Goal=   None    Shift=    0.000
 RMSDP=1.57D-06 MaxDP=5.06D-05 DE=-1.98D-07 OVMax= 1.91D-04

 Cycle  10  Pass 1  IDiag  1:
 E= -526.724998154272     Delta-E=       -0.000000119303 Rises=F Damp=F
 DIIS: error= 5.04D-06 at cycle   4 NSaved=   4.
 NSaved= 4 IEnMin= 4 EnMin= -526.724998154272     IErMin= 4 ErrMin= 5.04D-06
 ErrMax= 5.04D-06  0.00D+00 EMaxC= 1.00D-01 BMatC= 1.46D-08 BMatP= 9.34D-08
 IDIUse=1 WtCom= 1.00D+00 WtEn= 0.00D+00
 Coeff-Com: -0.595D-01 0.123D+00 0.302D+00 0.634D+00
 Coeff:     -0.595D-01 0.123D+00 0.302D+00 0.634D+00
 Gap=     0.277 Goal=   None    Shift=    0.000
 RMSDP=6.84D-07 MaxDP=3.59D-05 DE=-1.19D-07 OVMax= 1.45D-04

 Cycle  11  Pass 1  IDiag  1:
 E= -526.724998183853     Delta-E=       -0.000000029580 Rises=F Damp=F
 DIIS: error= 3.26D-06 at cycle   5 NSaved=   5.
 NSaved= 5 IEnMin= 5 EnMin= -526.724998183853     IErMin= 5 ErrMin= 3.26D-06
 ErrMax= 3.26D-06  0.00D+00 EMaxC= 1.00D-01 BMatC= 4.08D-09 BMatP= 1.46D-08
 IDIUse=1 WtCom= 1.00D+00 WtEn= 0.00D+00
 Coeff-Com: -0.138D-03-0.147D+00-0.166D+00 0.301D+00 0.101D+01
 Coeff:     -0.138D-03-0.147D+00-0.166D+00 0.301D+00 0.101D+01
 Gap=     0.277 Goal=   None    Shift=    0.000
 RMSDP=8.37D-07 MaxDP=2.60D-05 DE=-2.96D-08 OVMax= 1.56D-04

 Cycle  12  Pass 1  IDiag  1:
 E= -526.724998200283     Delta-E=       -0.000000016430 Rises=F Damp=F
 DIIS: error= 1.10D-06 at cycle   6 NSaved=   6.
 NSaved= 6 IEnMin= 6 EnMin= -526.724998200283     IErMin= 6 ErrMin= 1.10D-06
 ErrMax= 1.10D-06  0.00D+00 EMaxC= 1.00D-01 BMatC= 8.43D-10 BMatP= 4.08D-09
 IDIUse=1 WtCom= 1.00D+00 WtEn= 0.00D+00
 Coeff-Com:  0.989D-02-0.969D-01-0.134D+00 0.398D-01 0.519D+00 0.663D+00
 Coeff:      0.989D-02-0.969D-01-0.134D+00 0.398D-01 0.519D+00 0.663D+00
 Gap=     0.277 Goal=   None    Shift=    0.000
 RMSDP=2.21D-07 MaxDP=8.45D-06 DE=-1.64D-08 OVMax= 4.73D-05

 Cycle  13  Pass 1  IDiag  1:
 E= -526.724998201662     Delta-E=       -0.000000001379 Rises=F Damp=F
 DIIS: error= 1.42D-07 at cycle   7 NSaved=   7.
 NSaved= 7 IEnMin= 7 EnMin= -526.724998201662     IErMin= 7 ErrMin= 1.42D-07
 ErrMax= 1.42D-07  0.00D+00 EMaxC= 1.00D-01 BMatC= 2.14D-11 BMatP= 8.43D-10
 IDIUse=1 WtCom= 1.00D+00 WtEn= 0.00D+00
 Coeff-Com:  0.164D-02-0.651D-02-0.110D-01-0.141D-01 0.135D-01 0.114D+00
 Coeff-Com:  0.902D+00
 Coeff:      0.164D-02-0.651D-02-0.110D-01-0.141D-01 0.135D-01 0.114D+00
 Coeff:      0.902D+00
 Gap=     0.277 Goal=   None    Shift=    0.000
 RMSDP=4.81D-08 MaxDP=1.69D-06 DE=-1.38D-09 OVMax= 7.01D-06

 Cycle  14  Pass 1  IDiag  1:
 E= -526.724998201717     Delta-E=       -0.000000000055 Rises=F Damp=F
 DIIS: error= 1.11D-07 at cycle   8 NSaved=   8.
 NSaved= 8 IEnMin= 8 EnMin= -526.724998201717     IErMin= 8 ErrMin= 1.11D-07
 ErrMax= 1.11D-07  0.00D+00 EMaxC= 1.00D-01 BMatC= 8.42D-12 BMatP= 2.14D-11
 IDIUse=1 WtCom= 1.00D+00 WtEn= 0.00D+00
 Coeff-Com: -0.505D-03 0.985D-02 0.130D-01-0.126D-01-0.609D-01-0.438D-01
 Coeff-Com:  0.424D+00 0.671D+00
 Coeff:     -0.505D-03 0.985D-02 0.130D-01-0.126D-01-0.609D-01-0.438D-01
 Coeff:      0.424D+00 0.671D+00
 Gap=     0.277 Goal=   None    Shift=    0.000
 RMSDP=1.41D-08 MaxDP=5.09D-07 DE=-5.50D-11 OVMax= 1.60D-06

 Cycle  15  Pass 1  IDiag  1:
 E= -526.724998201712     Delta-E=        0.000000000005 Rises=F Damp=F
 DIIS: error= 3.33D-08 at cycle   9 NSaved=   9.
 NSaved= 9 IEnMin= 8 EnMin= -526.724998201717     IErMin= 9 ErrMin= 3.33D-08
 ErrMax= 3.33D-08  0.00D+00 EMaxC= 1.00D-01 BMatC= 6.20D-13 BMatP= 8.42D-12
 IDIUse=1 WtCom= 1.00D+00 WtEn= 0.00D+00
 Coeff-Com: -0.311D-03 0.416D-02 0.599D-02-0.431D-02-0.216D-01-0.290D-01
 Coeff-Com:  0.866D-01 0.231D+00 0.728D+00
 Coeff:     -0.311D-03 0.416D-02 0.599D-02-0.431D-02-0.216D-01-0.290D-01
 Coeff:      0.866D-01 0.231D+00 0.728D+00
 Gap=     0.277 Goal=   None    Shift=    0.000
 RMSDP=3.44D-09 MaxDP=7.28D-08 DE= 5.00D-12 OVMax= 2.30D-07

 SCF Done:  E(RM062X) =  -526.724998202     A.U. after   15 cycles
            NFock= 15  Conv=0.34D-08     -V/T= 2.0029
 KE= 5.252196432403D+02 PE=-1.941265803519D+03 EE= 5.429347675672D+02
 Leave Link  502 at Sun May 25 03:49:43 2025, MaxMem=  3758096384 cpu:              54.1 elap:              14.6
 (Enter /apps/easybuild-2022/easybuild/software/Compiler/NVHPC/22.11-CUDA-11.7.0/Gaussian/g16c01-CUDA-11.7.0/g16/l508.exe)
 QCSCF skips out because SCF is already converged.
 Leave Link  508 at Sun May 25 03:49:43 2025, MaxMem=  3758096384 cpu:               0.1 elap:               0.0
 (Enter /apps/easybuild-2022/easybuild/software/Compiler/NVHPC/22.11-CUDA-11.7.0/Gaussian/g16c01-CUDA-11.7.0/g16/l801.exe)
 DoSCS=F DFT=T ScalE2(SS,OS)=  1.000000  1.000000
 Range of M.O.s used for correlation:     1   231
 NBasis=   231 NAE=    28 NBE=    28 NFC=     0 NFV=     0
 NROrb=    231 NOA=    28 NOB=    28 NVA=   203 NVB=   203

 **** Warning!!: The largest alpha MO coefficient is  0.13156060D+02

 Leave Link  801 at Sun May 25 03:49:43 2025, MaxMem=  3758096384 cpu:               0.1 elap:               0.1
 (Enter /apps/easybuild-2022/easybuild/software/Compiler/NVHPC/22.11-CUDA-11.7.0/Gaussian/g16c01-CUDA-11.7.0/g16/l1101.exe)
 Using compressed storage, NAtomX=     8.
 Will process      9 centers per pass.
   1 Symmetry operations used in ECPInt.
 ECPInt:  NShTT=    3486 NPrTT=   11183 LenC2=    3401 LenP2D=    8738.
 LDataN:  DoStor=T MaxTD1= 7 Len=  274
 Leave Link 1101 at Sun May 25 03:49:43 2025, MaxMem=  3758096384 cpu:               1.0 elap:               0.2
 (Enter /apps/easybuild-2022/easybuild/software/Compiler/NVHPC/22.11-CUDA-11.7.0/Gaussian/g16c01-CUDA-11.7.0/g16/l1102.exe)
 Symmetrizing basis deriv contribution to polar:
 IMax=3 JMax=2 DiffMx= 0.00D+00
 Leave Link 1102 at Sun May 25 03:49:43 2025, MaxMem=  3758096384 cpu:               0.1 elap:               0.1
 (Enter /apps/easybuild-2022/easybuild/software/Compiler/NVHPC/22.11-CUDA-11.7.0/Gaussian/g16c01-CUDA-11.7.0/g16/l1110.exe)
 Forming Gx(P) for the SCF density, NAtomX=     8.
 Integral derivatives from FoFJK, PRISM(SPDF).
 Do as many integral derivatives as possible in FoFJK.
 G2DrvN: MDV=    3758095424.
 G2DrvN: will do     9 centers at a time, making    1 passes.
 Calling FoFCou, ICntrl=  3107 FMM=F I1Cent=   0 AccDes= 0.00D+00.
 FoFJK:  IHMeth= 1 ICntrl=    3107 DoSepK=F KAlg= 0 I1Cent=           0 FoldK=F
 IRaf=         0 NMat=       1 IRICut=       1 DoRegI=T DoRafI=F ISym2E= 0 IDoP0=0 IntGTp=1.
 FoFCou: FMM=F IPFlag=           0 FMFlag=      100000 FMFlg1=           0
         NFxFlg=           0 DoJE=F BraDBF=F KetDBF=F FulRan=T
         wScrn=  0.000000 ICntrl=      3107 IOpCl=  0 I1Cent=           0 NGrid=           0
         NMat0=    1 NMatS0=      1 NMatT0=    0 NMatD0=    1 NMtDS0=    0 NMtDT0=    0
 Symmetry not used in FoFCou.
 End of G2Drv F.D. properties file   721 does not exist.
 End of G2Drv F.D. properties file   722 does not exist.
 End of G2Drv F.D. properties file   788 does not exist.
 Leave Link 1110 at Sun May 25 03:50:07 2025, MaxMem=  3758096384 cpu:             113.8 elap:              23.6
 (Enter /apps/easybuild-2022/easybuild/software/Compiler/NVHPC/22.11-CUDA-11.7.0/Gaussian/g16c01-CUDA-11.7.0/g16/l1002.exe)
 Minotr:  Closed shell wavefunction.
          IDoAtm=11111111
          Direct CPHF calculation.
          Differentiating once with respect to electric field.
                with respect to dipole field.
          Differentiating once with respect to nuclear coordinates.
          Requested convergence is 1.0D-08 RMS, and 1.0D-07 maximum.
          Secondary convergence is 1.0D-12 RMS, and 1.0D-12 maximum.
          NewPWx=T KeepS1=F KeepF1=F KeepIn=T MapXYZ=F SortEE=F KeepMc=T.
         2392 words used for storage of precomputed grid.
 Keep R1 ints in memory in canonical form, NReq=368655240.
 FoFCou: FMM=F IPFlag=           0 FMFlag=           0 FMFlg1=           0
         NFxFlg=           0 DoJE=F BraDBF=F KetDBF=F FulRan=T
         wScrn=  0.000000 ICntrl=       600 IOpCl=  0 I1Cent=           0 NGrid=           0
         NMat0=    1 NMatS0=  26796 NMatT0=    0 NMatD0=    1 NMtDS0=    0 NMtDT0=    0
 Symmetry not used in FoFCou.
 Two-electron integral symmetry not used.
          MDV=    3758096384 using IRadAn=       1.
          Solving linear equations simultaneously, MaxMat=       0.
          There are    27 degrees of freedom in the 1st order CPHF.  IDoFFX=6 NUNeed=     3.
     24 vectors produced by pass  0 Test12= 2.11D-14 3.70D-09 XBig12= 2.22D+01 3.01D+00.
 AX will form    24 AO Fock derivatives at one time.
     24 vectors produced by pass  1 Test12= 2.11D-14 3.70D-09 XBig12= 4.40D+00 3.12D-01.
     24 vectors produced by pass  2 Test12= 2.11D-14 3.70D-09 XBig12= 9.82D-02 4.54D-02.
     24 vectors produced by pass  3 Test12= 2.11D-14 3.70D-09 XBig12= 1.58D-03 5.08D-03.
     24 vectors produced by pass  4 Test12= 2.11D-14 3.70D-09 XBig12= 2.34D-05 8.25D-04.
     24 vectors produced by pass  5 Test12= 2.11D-14 3.70D-09 XBig12= 2.32D-07 6.71D-05.
     24 vectors produced by pass  6 Test12= 2.11D-14 3.70D-09 XBig12= 1.49D-09 5.09D-06.
     10 vectors produced by pass  7 Test12= 2.11D-14 3.70D-09 XBig12= 7.04D-12 2.87D-07.
      3 vectors produced by pass  8 Test12= 2.11D-14 3.70D-09 XBig12= 2.95D-14 2.17D-08.
 InvSVY:  IOpt=1 It=  1 EMax= 4.00D-15
 Solved reduced A of dimension   181 with    27 vectors.
 FullF1:  Do perturbations      1 to       3.
 Isotropic polarizability for W=    0.000000       36.34 Bohr**3.
 End of Minotr F.D. properties file   721 does not exist.
 End of Minotr F.D. properties file   722 does not exist.
 End of Minotr F.D. properties file   788 does not exist.
 Leave Link 1002 at Sun May 25 03:51:05 2025, MaxMem=  3758096384 cpu:             202.1 elap:              57.8
 (Enter /apps/easybuild-2022/easybuild/software/Compiler/NVHPC/22.11-CUDA-11.7.0/Gaussian/g16c01-CUDA-11.7.0/g16/l701.exe)
 ... and contract with generalized density number  0.
 Compute integral second derivatives.
   1 Symmetry operations used in ECPInt.
 ECPInt:  NShTT=    3486 NPrTT=   11183 LenC2=    3401 LenP2D=    8738.
 LDataN:  DoStor=T MaxTD1= 8 Len=  415
 Leave Link  701 at Sun May 25 03:51:05 2025, MaxMem=  3758096384 cpu:               0.9 elap:               0.5
 (Enter /apps/easybuild-2022/easybuild/software/Compiler/NVHPC/22.11-CUDA-11.7.0/Gaussian/g16c01-CUDA-11.7.0/g16/l702.exe)
 L702 exits ... SP integral derivatives will be done elsewhere.
 Leave Link  702 at Sun May 25 03:51:05 2025, MaxMem=  3758096384 cpu:               0.1 elap:               0.1
 (Enter /apps/easybuild-2022/easybuild/software/Compiler/NVHPC/22.11-CUDA-11.7.0/Gaussian/g16c01-CUDA-11.7.0/g16/l703.exe)
 Integral derivatives from FoFJK, PRISM(SPDF).
 Compute integral second derivatives, UseDBF=F ICtDFT=           0.
 Calling FoFJK, ICntrl=    100127 FMM=F ISym2X=0 I1Cent= 0 IOpClX= 0 NMat=1 NMatS=1 NMatT=0.
 FoFJK:  IHMeth= 1 ICntrl=  100127 DoSepK=F KAlg= 0 I1Cent=           0 FoldK=F
 IRaf=         0 NMat=       1 IRICut=       1 DoRegI=T DoRafI=F ISym2E= 0 IDoP0=0 IntGTp=1.
 FoFCou: FMM=F IPFlag=           0 FMFlag=      100000 FMFlg1=         800
         NFxFlg=           0 DoJE=F BraDBF=F KetDBF=F FulRan=T
         wScrn=  0.000000 ICntrl=    100127 IOpCl=  0 I1Cent=           0 NGrid=           0
         NMat0=    1 NMatS0=      1 NMatT0=    0 NMatD0=    1 NMtDS0=    0 NMtDT0=    0
 Symmetry not used in FoFCou.
 Leave Link  703 at Sun May 25 03:51:39 2025, MaxMem=  3758096384 cpu:             226.1 elap:              33.9
 (Enter /apps/easybuild-2022/easybuild/software/Compiler/NVHPC/22.11-CUDA-11.7.0/Gaussian/g16c01-CUDA-11.7.0/g16/l716.exe)
 Dipole        = 1.14802058D+00 1.25554024D+00 1.38592989D+00
 Polarizability= 3.68692314D+01 4.39076029D+00 3.38792575D+01
                 7.67886760D+00 5.00340256D+00 3.82852109D+01
 -------------------------------------------------------------------
 Center     Atomic                   Forces (Hartrees/Bohr)
 Number     Number              X              Y              Z
 -------------------------------------------------------------------
      1        6          -0.010243489    0.056606111   -0.034310145
      2        8           0.027145651   -0.016086866   -0.009510615
      3        6          -0.017429298    0.009021599   -0.048435218
      4        9           0.007875554    0.032489725    0.067806109
      5        9          -0.034461238   -0.024675076    0.030586653
      6        9           0.042108625   -0.038092367   -0.009863141
      7        8          -0.012494695   -0.019221985    0.003361655
      8        1          -0.002501110   -0.000041141    0.000364701
 -------------------------------------------------------------------
 Cartesian Forces:  Max     0.067806109 RMS     0.029308436
 Force constants in Cartesian coordinates: 
                1             2             3             4             5 
      1  0.678804D+00
      2  0.920749D-01  0.662846D+00
      3 -0.192408D-01  0.137111D+00  0.138184D+00
      4 -0.122297D-01  0.146863D-01 -0.989366D-02  0.122733D+00
      5  0.268539D-01 -0.400401D-02  0.604702D-01 -0.110665D+00  0.328304D+00
      6 -0.237540D-01  0.158487D-01 -0.569440D-01  0.736735D-01 -0.204258D+00
      7 -0.157298D-01 -0.645900D-01  0.295524D-01 -0.126480D+00  0.470615D-01
      8 -0.704640D-01 -0.167238D+00 -0.768604D-01  0.852249D-01 -0.222166D+00
      9  0.235457D-01 -0.787351D-01  0.466412D-01 -0.892004D-01  0.115157D+00
     10 -0.242837D+00  0.136058D+00  0.162413D-01  0.195466D-01  0.115377D-01
     11  0.138826D+00 -0.224429D+00 -0.476952D-01 -0.490520D-02 -0.141431D-01
     12  0.357719D-01 -0.165471D-01 -0.408231D-01  0.945382D-02 -0.617093D-01
     13 -0.445541D-01 -0.207505D-01 -0.163665D-02  0.174495D-01 -0.164537D-01
     14 -0.354008D-01 -0.114465D-01  0.128297D-02 -0.272991D-01 -0.357588D-01
     15 -0.121460D-01 -0.103448D-01 -0.354330D-02  0.393644D-01  0.623385D-01
     16 -0.380796D-02  0.264472D-02 -0.448601D-03 -0.131918D-01  0.551534D-01
     17  0.271753D-01 -0.235989D-01 -0.258430D-01  0.476293D-01 -0.573283D-01
     18  0.135990D-01 -0.276947D-01 -0.246828D-01 -0.219369D-01  0.349365D-01
     19 -0.351677D+00 -0.101551D+00 -0.484478D-02 -0.786302D-02 -0.157436D-01
     20 -0.159518D+00 -0.206814D+00 -0.399268D-01 -0.654618D-02  0.231948D-02
     21 -0.168172D-01 -0.180054D-01 -0.615766D-01 -0.499315D-02 -0.862295D-02
     22 -0.796928D-02 -0.585728D-01 -0.972918D-02  0.359988D-04  0.225619D-02
     23 -0.195472D-01 -0.253158D-01 -0.853924D-02  0.187527D-02  0.277639D-02
     24 -0.958703D-03 -0.163314D-02  0.274468D-02  0.353243D-02  0.168838D-02
                6             7             8             9            10 
      6  0.378196D+00
      7 -0.528135D-01  0.576342D+00
      8  0.172832D+00 -0.645937D-01  0.736448D+00
      9 -0.262946D+00 -0.107888D+00 -0.315858D-01  0.456119D+00
     10  0.305389D-02 -0.469930D-02 -0.439517D-02  0.238434D-01  0.301506D+00
     11 -0.379186D-01  0.482784D-01 -0.232081D-01 -0.224069D-01 -0.184290D+00
     12 -0.550494D-01 -0.656282D-02 -0.248283D-01 -0.361915D-01 -0.364434D-01
     13  0.184999D-01 -0.227460D+00 -0.997042D-01  0.995801D-01  0.623619D-02
     14  0.527596D-01 -0.111050D+00 -0.131018D+00  0.617746D-01  0.182974D-02
     15 -0.303103D-01  0.862774D-01  0.463645D-01 -0.107392D+00 -0.782587D-02
     16 -0.123069D-01 -0.185454D+00  0.131775D+00  0.653265D-01  0.313252D-04
     17  0.153472D-01  0.147895D+00 -0.221592D+00 -0.787258D-01  0.268715D-02
     18  0.202589D-01  0.690415D-01 -0.717450D-01 -0.906241D-01 -0.115861D-02
     19 -0.543718D-02 -0.163701D-01  0.207996D-01 -0.215304D-01 -0.820166D-01
     20 -0.149829D-01 -0.546010D-02  0.300283D-01  0.272518D-01  0.296203D-01
     21  0.441915D-02 -0.142598D-01 -0.454495D-02 -0.100542D-01  0.300781D-02
     22 -0.915699D-03 -0.148912D-03  0.135704D-02  0.632283D-02  0.223287D-02
     23  0.372600D-03  0.245873D-02 -0.125468D-02  0.727062D-02  0.695147D-02
     24  0.237528D-02 -0.334734D-02 -0.963161D-02  0.444777D-02 -0.718467D-03
               11            12            13            14            15 
     11  0.249192D+00
     12  0.103707D+00  0.109941D+00
     13 -0.423113D-02 -0.142918D-02  0.326883D+00
     14 -0.278588D-02 -0.524260D-03  0.150345D+00  0.173220D+00
     15  0.483151D-02  0.349232D-02 -0.160459D+00 -0.100541D+00  0.147930D+00
     16 -0.933996D-03  0.157665D-02 -0.764542D-01  0.272049D-01  0.511316D-01
     17 -0.120541D-01 -0.234434D-02  0.245497D-02  0.184135D-01 -0.976602D-03
     18 -0.874899D-02  0.257257D-02  0.459359D-01 -0.143718D-01 -0.997215D-02
     19  0.292863D-02 -0.243353D-02 -0.606663D-03 -0.451367D-02  0.434487D-02
     20  0.263862D-01  0.111704D-02 -0.115287D-01 -0.111346D-01 -0.710435D-03
     21  0.606382D-02  0.211448D-01 -0.674244D-03 -0.104517D-02  0.147818D-02
     22  0.432660D-02  0.665692D-04 -0.149430D-02 -0.111626D-02 -0.687369D-03
     23  0.104181D-02  0.112906D-02 -0.132103D-03  0.510089D-03 -0.961424D-03
     24  0.216713D-02 -0.508674D-02  0.183163D-03  0.665436D-03 -0.168307D-02
               16            17            18            19            20 
     16  0.271760D+00
     17 -0.221209D+00  0.301100D+00
     18 -0.105723D+00  0.899444D-01  0.101622D+00
     19  0.695036D-02 -0.687551D-02  0.444041D-03  0.493121D+00
     20  0.540522D-02 -0.536811D-02 -0.191292D-02  0.888190D-01  0.644729D+00
     21  0.127586D-02  0.907778D-03  0.110460D-02  0.288105D-01  0.535684D-01
     22  0.165920D-03  0.242777D-03 -0.201974D-03 -0.415380D-01  0.592088D-01
     23 -0.404766D-04  0.428599D-03 -0.407500D-03  0.161367D-01 -0.480147D+00
     24 -0.832211D-03  0.169051D-02 -0.278578D-03  0.646419D-03 -0.244041D-01
               21            22            23            24 
     21  0.589335D-01
     22  0.365012D-02  0.487157D-01
     23 -0.283215D-01 -0.770240D-02  0.501960D+00
     24 -0.154494D-01  0.149471D-02  0.294574D-01  0.129300D-01
[...]
 Cartesian Forces:  Max     0.000003787 RMS     0.000001556
 Force constants in Cartesian coordinates: 
                1             2             3             4             5 
      1  0.620438D+00
      2  0.818436D-01  0.531686D+00
      3 -0.998537D-01  0.104518D+00  0.170543D+00
      4 -0.705060D-02  0.798240D-02 -0.281756D-01  0.133047D+00
      5  0.896143D-02  0.151040D-01  0.679330D-02 -0.109288D+00  0.347131D+00
      6 -0.280419D-01  0.130808D-01 -0.669010D-01  0.123139D+00 -0.364737D+00
      7  0.382702D-02 -0.536998D-02  0.307190D-01 -0.128194D+00  0.689688D-01
      8  0.100460D-01 -0.489227D-01  0.482339D-01  0.980292D-01 -0.314949D+00
      9  0.314770D-01  0.752828D-02  0.385636D-01 -0.997926D-01  0.252652D+00
     10 -0.175991D+00  0.107907D+00  0.663538D-01  0.349260D-02  0.280128D-02
     11  0.115314D+00 -0.249512D+00 -0.111302D+00 -0.109689D-01  0.180907D-02
     12  0.660384D-01 -0.883229D-01 -0.888569D-01  0.152811D-03  0.113980D-02
     13 -0.251921D-01 -0.121122D-01 -0.933917D-03  0.128819D-01 -0.167267D-01
     14 -0.256057D-01 -0.802473D-02 -0.358079D-02 -0.252343D-01 -0.140293D-01
     15 -0.375399D-02 -0.845183D-02  0.501351D-02  0.360999D-01  0.574405D-01
     16 -0.398561D-02  0.333571D-02  0.621542D-02 -0.130745D-01  0.502579D-01
     17  0.147443D-01 -0.182317D-01 -0.228036D-01  0.429953D-01 -0.352640D-01
     18  0.721835D-02 -0.173365D-01 -0.697668D-02 -0.338177D-01  0.427468D-01
     19 -0.401795D+00 -0.128181D+00  0.371213D-01 -0.154610D-02 -0.649639D-02
     20 -0.178952D+00 -0.194323D+00 -0.146421D-01 -0.361706D-02 -0.668169D-03
     21  0.289720D-01 -0.116217D-01 -0.657776D-01  0.772939D-03  0.703381D-03
     22 -0.102513D-01 -0.554051D-01 -0.114463D-01  0.443963D-03  0.152179D-02
     23 -0.263516D-01 -0.277763D-01 -0.721727D-02  0.101511D-03  0.866493D-03
     24 -0.205623D-02  0.605369D-03  0.143922D-01  0.162161D-02  0.326113D-02
                6             7             8             9            10 
      6  0.546048D+00
      7 -0.871930D-01  0.467545D+00
      8  0.322313D+00 -0.152723D+00  0.540001D+00
      9 -0.446799D+00 -0.305798D-01 -0.386242D+00  0.585737D+00
     10  0.231924D-02 -0.511651D-02 -0.660944D-02  0.380398D-02  0.269363D+00
     11 -0.149188D-01  0.361308D-01  0.224069D-01  0.225411D-01 -0.156819D+00
     12  0.260326D-02  0.114352D-01 -0.704323D-02  0.583617D-02 -0.109026D+00
     13  0.156014D-01 -0.158117D+00 -0.324245D-01  0.842925D-01  0.395289D-02
     14  0.416225D-01 -0.507834D-01 -0.938344D-01  0.595422D-01  0.250025D-02
     15 -0.431289D-01  0.642946D-01  0.330292D-01 -0.125778D+00 -0.272611D-02
     16 -0.196220D-01 -0.173966D+00  0.690138D-01  0.556388D-03  0.149320D-02
     17  0.206554D-01  0.103132D+00 -0.134270D+00  0.113694D-01 -0.279215D-03
     18  0.412349D-02  0.145344D-01  0.899029D-03 -0.686011D-01 -0.617762D-03
     19 -0.558831D-02 -0.530517D-02  0.150541D-01  0.564033D-02 -0.100437D+00
     20 -0.160696D-01 -0.357808D-03  0.261886D-01  0.277821D-01  0.415107D-01
     21  0.263046D-02 -0.345208D-02 -0.493977D-02  0.588372D-02  0.409168D-01
     22 -0.614181D-03 -0.673215D-03 -0.386197D-03  0.460227D-02  0.324274D-02
     23 -0.194676D-02  0.100282D-02  0.338063D-02  0.482726D-02  0.898844D-02
     24  0.142419D-02  0.241701D-03 -0.625038D-02  0.515810D-02 -0.102375D-02
               11            12            13            14            15 
     11  0.208029D+00
     12  0.103629D+00  0.792957D-01
     13 -0.984199D-02 -0.424283D-02  0.238636D+00
     14 -0.486804D-02 -0.107353D-02  0.790984D-01  0.119145D+00
     15  0.453377D-02 -0.409035D-04 -0.127069D+00 -0.836837D-01  0.163927D+00
     16  0.105826D-02 -0.293265D-03 -0.683174D-01  0.253500D-01  0.339110D-01
     17 -0.123905D-01 -0.351530D-02  0.110556D-02  0.118262D-01 -0.112065D-02
     18 -0.743958D-02 -0.328907D-02  0.348082D-01 -0.111972D-01  0.240182D-02
     19  0.199973D-01  0.380031D-01 -0.308412D-02 -0.452292D-02  0.841567D-04
     20  0.328351D-01 -0.577376D-02 -0.874467D-02 -0.976937D-02 -0.130023D-02
     21  0.347418D-03  0.140586D-01 -0.250237D-02 -0.204600D-02 -0.927992D-03
     22  0.512981D-02 -0.206717D-02 -0.759219D-03 -0.802337D-03 -0.840676D-03
     23  0.169079D-02  0.960332D-03 -0.353881D-03 -0.445374D-03 -0.447093D-03
     24  0.260943D-02 -0.960680D-02  0.459086D-04  0.416599D-03 -0.146603D-02
               16            17            18            19            20 
     16  0.251732D+00
     17 -0.155634D+00  0.194936D+00
     18 -0.203470D-01 -0.580594D-02  0.742256D-01
     19  0.581997D-02 -0.625221D-02 -0.146944D-02  0.550356D+00
     20  0.584589D-02 -0.607872D-02 -0.173596D-02  0.132723D+00  0.580775D+00
     21  0.317575D-03  0.401976D-03 -0.965856D-03 -0.724181D-01  0.124502D+00
     22  0.298700D-03  0.188594D-03 -0.308934D-03 -0.440085D-01  0.115916D-01
     23  0.772459D-03 -0.526607D-03 -0.130701D-03 -0.223217D-01 -0.428959D+00
     24 -0.738090D-03  0.818800D-03 -0.918200D-03 -0.137297D-02 -0.112763D+00
               21            22            23            24 
     21  0.100408D+00
     22  0.739323D-02  0.517068D-01
     23 -0.107347D+00  0.381619D-01  0.451770D+00
     24 -0.553089D-01  0.328181D-02  0.111302D+00  0.463255D-01
 Red2BG is reusing G-inverse.
 Force constants in internal coordinates: 
                1             2             3             4             5 
      1  0.122980D-01
      2 -0.752457D-02  0.453711D+00
      3 -0.330291D-02  0.831829D-01  0.582728D+00
      4  0.666305D-01  0.101769D-01  0.753413D-02  0.861634D+00
      5  0.345278D-01  0.125237D-01  0.761847D-02  0.663581D-01  0.382676D+00
      6  0.345795D-01  0.601601D-02  0.115467D-01  0.659947D-01  0.482547D-01
      7 -0.468346D-02 -0.435438D-02  0.240223D-01  0.215393D-02 -0.639517D-04
      8 -0.542286D-02 -0.237353D-01 -0.255604D-01  0.327726D-02  0.276599D-03
      9 -0.684475D-02 -0.387655D-01 -0.114228D-01  0.593492D-02  0.635465D-02
     10  0.142761D-01  0.617468D-01  0.378418D-01 -0.120249D-01 -0.707945D-02
     11  0.324497D-01  0.150544D-01  0.206599D-01  0.221600D-01 -0.430942D-01
     12  0.634823D-01  0.179700D-02  0.161384D-01 -0.390281D-01  0.147132D-01
     13  0.629336D-01  0.205111D-01  0.832252D-03 -0.390570D-01 -0.326811D-01
     14 -0.319985D-01 -0.953289D-02 -0.722980D-02  0.210005D-01  0.227955D-01
     15 -0.317666D-01 -0.642461D-02 -0.895853D-02  0.208745D-01 -0.148320D-01
     16 -0.249706D-01 -0.553576D-02 -0.595274D-02 -0.139354D-01  0.290636D-01
     17 -0.262589D-02  0.167005D-02  0.434928D-01  0.207297D-02  0.107855D-02
     18  0.453019D-02  0.592965D-02  0.976586D-02 -0.463033D-02  0.169272D-01
     19  0.709343D-02  0.104385D-01  0.526291D-02 -0.218369D-01  0.236081D-02
     20  0.144283D-02  0.105719D-01  0.726759D-02  0.123805D-01 -0.234086D-01
     21 -0.394555D-02 -0.136348D-01 -0.417205D-02  0.458883D-02  0.202358D-01
     22 -0.138231D-02 -0.912592D-02 -0.867500D-02 -0.126177D-01  0.566941D-02
     23 -0.703291D-02 -0.899258D-02 -0.667032D-02  0.215997D-01 -0.201000D-01
     24  0.301552D-03 -0.270251D-02 -0.172468D-02 -0.204660D-02 -0.139912D-02
     25 -0.211625D-02  0.300973D-02  0.363578D-02  0.237843D-02 -0.232727D-03
                6             7             8             9            10 
      6  0.381913D+00
      7  0.641324D-03  0.483268D+00
      8  0.697740D-02  0.642960D-02  0.786183D-01
      9 -0.328428D-04  0.507196D-02  0.235679D-01  0.843057D-01
     10 -0.778939D-02 -0.114745D-01 -0.951866D-01 -0.970096D-01  0.179557D+00
     11 -0.430562D-01 -0.181395D-02 -0.453728D-02 -0.681487D-02  0.103972D-02
     12 -0.324000D-01  0.244965D-02 -0.747055D-02  0.274564D-01 -0.153802D-01
     13  0.150832D-01  0.185391D-03  0.242957D-01 -0.799095D-02 -0.149368D-01
     14 -0.147426D-01  0.788308D-04 -0.199401D-02 -0.266396D-02  0.575614D-02
     15  0.224645D-01 -0.382831D-03 -0.278473D-02 -0.221053D-02  0.606653D-02
     16  0.290584D-01  0.173222D-04 -0.146488D-02 -0.137883D-02  0.391484D-02
     17  0.585875D-03  0.219967D-01  0.541161D-02  0.119287D-01 -0.165356D-01
     18 -0.206017D-01 -0.120724D-02 -0.124452D-01 -0.261850D-02  0.181274D-01
     19  0.201972D-01 -0.147540D-02 -0.635721D-02 -0.640004D-02  0.166325D-01
     20 -0.598961D-02 -0.214989D-02 -0.914133D-02 -0.975445D-02  0.201569D-01
     21 -0.165926D-01  0.255214D-02  0.546645D-02  0.111552D-01 -0.188142D-01
     22  0.242062D-01  0.228398D-02  0.115544D-01  0.737371D-02 -0.203091D-01
     23 -0.198057D-02  0.160950D-02  0.877030D-02  0.401930D-02 -0.167847D-01
     24 -0.747180D-03  0.126350D-02  0.138652D-01  0.107736D-01 -0.213785D-01
     25 -0.135361D-02 -0.358311D-03 -0.205445D-01 -0.955438D-02  0.227635D-01
               11            12            13            14            15 
     11  0.209734D+00
     12  0.694710D-01  0.232322D+00
     13  0.681758D-01  0.487481D-01  0.233010D+00
     14 -0.781082D-01 -0.793945D-01 -0.462315D-01  0.105513D+00
     15 -0.771092D-01 -0.463200D-01 -0.782505D-01  0.900171D-02  0.104690D+00
     16 -0.506804D-01 -0.701616D-01 -0.709897D-01  0.174470D-02  0.163736D-02
     17 -0.112850D-02  0.489218D-02 -0.959260D-03 -0.569897D-03 -0.510908D-03
     18 -0.855368D-02  0.126202D-01 -0.118633D-01  0.324859D-01 -0.290073D-01
     19 -0.185633D-01 -0.161010D-02 -0.137844D-02 -0.279543D-01  0.246837D-02
     20 -0.129027D-03  0.164885D-02  0.156903D-02  0.171581D-02  0.321632D-01
     21  0.991955D-02  0.100365D-01 -0.100201D-01  0.285390D-01 -0.329838D-01
     22 -0.900216D-04 -0.419374D-02  0.464763D-03 -0.319011D-01 -0.150808D-02
     23  0.183442D-01 -0.934792D-03  0.341224D-02 -0.223104D-02  0.281868D-01
     24 -0.166012D-01  0.429678D-02  0.649806D-02  0.170039D-02  0.134377D-02
     25  0.256359D-02  0.346729D-03 -0.381935D-02  0.163147D-03  0.124917D-03
               16            17            18            19            20 
     16  0.106124D+00
     17 -0.338567D-03  0.169913D+00
     18  0.138439D-02 -0.144681D-02  0.314647D-01
     19  0.394348D-01 -0.204792D-02 -0.442200D-02  0.322020D-01
     20 -0.361370D-01 -0.266647D-02 -0.599424D-02 -0.831791D-02  0.286925D-01
     21 -0.188227D-02  0.273979D-02  0.199967D-01 -0.170729D-01 -0.150524D-01
     22  0.361682D-01  0.213869D-02 -0.158900D-01  0.195510D-01 -0.173760D-01
     23 -0.394037D-01  0.152014D-02 -0.174622D-01 -0.209688D-01  0.196344D-01
     24  0.153607D-02  0.174117D-02 -0.620333D-03  0.177150D-02 -0.255627D-02
     25 -0.206322D-04 -0.461908D-03 -0.249084D-02 -0.364295D-02 -0.273684D-02
               21            22            23            24            25 
     21  0.304118D-01
     22 -0.665790D-02  0.287831D-01
     23 -0.463733D-02 -0.814397D-02  0.324593D-01
     24  0.499958D-03  0.289180D-02 -0.143598D-02  0.141544D-01
     25  0.353949D-02  0.238738D-02  0.329349D-02  0.496749D-02  0.234797D-01
 Leave Link  716 at Sun May 25 04:06:55 2025, MaxMem=  3758096384 cpu:               0.1 elap:               0.1
 (Enter /apps/easybuild-2022/easybuild/software/Compiler/NVHPC/22.11-CUDA-11.7.0/Gaussian/g16c01-CUDA-11.7.0/g16/l9999.exe)

 ----------------------------------------------------------------------

 Electric dipole moment (input orientation):
 (Debye = 10**-18 statcoulomb cm , SI units = C m)
                  (au)            (Debye)         (10**-30 SI)
   Tot        0.213812D+01      0.543456D+01      0.181277D+02
   x          0.101375D+01      0.257670D+01      0.859494D+01
   y          0.140721D+01      0.357678D+01      0.119308D+02
   z          0.125045D+01      0.317833D+01      0.106018D+02

 Dipole polarizability, Alpha (input orientation).
 (esu units = cm**3 , SI units = C**2 m**2 J**-1)
 Alpha(0;0):
               (au)            (10**-24 esu)      (10**-40 SI)
   iso        0.374088D+02      0.554341D+01      0.616787D+01
   aniso      0.147001D+02      0.217833D+01      0.242371D+01
   xx         0.368594D+02      0.546200D+01      0.607729D+01
   yx         0.459481D+01      0.680881D+00      0.757582D+00
   yy         0.370492D+02      0.549013D+01      0.610860D+01
   zx         0.450727D+01      0.667908D+00      0.743148D+00
   zy         0.547488D+01      0.811293D+00      0.902686D+00
   zz         0.383177D+02      0.567809D+01      0.631773D+01

 ----------------------------------------------------------------------

 Dipole orientation:
     6          2.39409128          0.25742674          3.78552258
     8          2.93506271          2.45454499         -0.13586896
     6          2.79884626          0.22417514          0.22641706
     9          0.29190597          1.18090667          4.66382937
     9          0.77480044         -1.13842892         -0.44929654
     9          4.80454020         -1.31018988          0.02903713
     8          4.23081679          0.62974968          5.29451312
     1          3.75546370          1.59791618          6.79092399

 Electric dipole moment (dipole orientation):
 (Debye = 10**-18 statcoulomb cm , SI units = C m)
                  (au)            (Debye)         (10**-30 SI)
   Tot        0.213812D+01      0.543456D+01      0.181277D+02
   x          0.000000D+00      0.000000D+00      0.000000D+00
   y          0.000000D+00      0.000000D+00      0.000000D+00
   z          0.213812D+01      0.543456D+01      0.181277D+02

 Dipole polarizability, Alpha (dipole orientation).
 (esu units = cm**3 , SI units = C**2 m**2 J**-1)
 Alpha(0;0):
               (au)            (10**-24 esu)      (10**-40 SI)
   iso        0.374088D+02      0.554341D+01      0.616787D+01
   aniso      0.147001D+02      0.217833D+01      0.242371D+01
   xx         0.329962D+02      0.488953D+01      0.544034D+01
   yx         0.169615D+00      0.251344D-01      0.279657D-01
   yy         0.322077D+02      0.477269D+01      0.531034D+01
   zx         0.647194D+00      0.959042D-01      0.106708D+00
   zy        -0.145312D+01     -0.215331D+00     -0.239588D+00
   zz         0.470224D+02      0.696800D+01      0.775294D+01

 ----------------------------------------------------------------------
 Unable to Open any file for archive entry.
 1\1\GINC-SPARTAN-BM200\Freq\RM062X\def2TZVPP\C2H1F3O2\AKHALILOV\25-May
 -2025\0\\#P M062X/Def2TZVPP Symm(None) scf(xqc) pop(None) opt(NoFreeze
 ,TS,CalcAll,NoEigentest,MaxCycle=999)\\Gaussian input prepared by ASE\
 \0,1\C,2.0101596484,1.1679626076,0.4812171706\O,1.0430207217,0.5907414
 097,-1.6333238781\C,1.3044514348,-0.1265617486,-0.7102334572\F,1.17966
 92251,2.0480120993,0.9588454816\F,0.3577385412,-0.674985356,0.06304547
 23\F,2.3256185484,-0.9943158865,-0.740158658\O,3.1840577595,1.64531179
 4,0.3577158752\H,3.242764121,2.5883120806,0.6029009936\\Version=ES64L-
 G16RevC.01\HF=-526.757305\RMSD=6.558e-09\RMSF=1.556e-06\ZeroPoint=0.03
 64172\Thermal=0.0428278\ETot=-526.7144772\HTot=-526.7135331\GTot=-526.
 7524584\Dipole=1.0137511,1.4072118,1.2504501\DipoleDeriv=1.5797838,-0.
 0520255,-0.3589685,0.0035502,0.8880159,0.5537219,-0.5215348,-0.0073799
 ,0.0188942,-0.6658906,-0.0269236,-0.2558842,-0.0000722,-0.870142,0.179
 1646,-0.2939757,0.0724838,-1.2281925,1.8606102,0.0478493,0.1206243,0.2
 189112,2.3127359,0.1739302,0.0880782,-0.1049957,1.9976738,-0.6110258,0
 .1719018,0.2921477,0.4202095,-0.6519773,-0.5831509,0.3097171,-0.188258
 9,-0.1850986,-0.7673405,-0.3914844,0.1636719,-0.3336359,-0.6075908,0.0
 871787,0.3363494,0.2726113,-0.4763588,-0.6360345,0.4935288,0.1132008,0
 .2852618,-0.8508978,-0.1628631,-0.0061777,-0.0395582,-0.3387734,-1.100
 6211,-0.3125004,-0.1093145,-0.6071061,-0.495146,-0.1929016,0.0402554,0
 .0067391,-0.1994532,0.3405185,0.0696541,0.0345226,0.0128815,0.2750021,
 -0.0550799,0.0472882,-0.0116415,0.4113085\Polar=36.8593812,4.5948121,3
 7.0492488,4.5072688,5.4748797,38.3176578\PG=Unknown\NImag=1\\0.6204383
 8,0.08184360,0.53168649,-0.09985368,0.10451848,0.17054287,-0.00705060,
 0.00798240,-0.02817560,0.13304659,0.00896143,0.01510398,0.00679330,-0.
 10928810,0.34713128,-0.02804188,0.01308076,-0.06690101,0.12313868,-0.3
 6473676,0.54604797,0.00382702,-0.00536998,0.03071901,-0.12819383,0.068
 96878,-0.08719298,0.46754546,0.01004596,-0.04892267,0.04823388,0.09802
 916,-0.31494943,0.32231336,-0.15272290,0.54000074,0.03147698,0.0075282
 8,0.03856359,-0.09979261,0.25265175,-0.44679945,-0.03057977,-0.3862420
 8,0.58573735,-0.17599063,0.10790700,0.06635384,0.00349260,0.00280128,0
 .00231924,-0.00511651,-0.00660944,0.00380398,0.26936265,0.11531376,-0.
 24951177,-0.11130191,-0.01096891,0.00180907,-0.01491883,0.03613081,0.0
 2240686,0.02254112,-0.15681901,0.20802854,0.06603840,-0.08832290,-0.08
 885687,0.00015281,0.00113980,0.00260326,0.01143520,-0.00704323,0.00583
 617,-0.10902625,0.10362858,0.07929568,-0.02519212,-0.01211223,-0.00093
 392,0.01288186,-0.01672673,0.01560141,-0.15811741,-0.03242446,0.084292
 45,0.00395289,-0.00984199,-0.00424283,0.23863557,-0.02560571,-0.008024
 73,-0.00358079,-0.02523430,-0.01402925,0.04162248,-0.05078340,-0.09383
 440,0.05954216,0.00250025,-0.00486804,-0.00107353,0.07909841,0.1191450
 0,-0.00375399,-0.00845183,0.00501351,0.03609986,0.05744054,-0.04312890
 ,0.06429456,0.03302919,-0.12577841,-0.00272611,0.00453377,-0.00004090,
 -0.12706880,-0.08368370,0.16392690,-0.00398561,0.00333571,0.00621542,-
 0.01307447,0.05025793,-0.01962198,-0.17396633,0.06901375,0.00055639,0.
 00149320,0.00105826,-0.00029326,-0.06831744,0.02535000,0.03391101,0.25
 173198,0.01474430,-0.01823174,-0.02280360,0.04299530,-0.03526397,0.020
 65536,0.10313168,-0.13427027,0.01136936,-0.00027922,-0.01239050,-0.003
 51530,0.00110556,0.01182617,-0.00112065,-0.15563400,0.19493564,0.00721
 835,-0.01733648,-0.00697668,-0.03381769,0.04274685,0.00412349,0.014534
 37,0.00089903,-0.06860107,-0.00061776,-0.00743958,-0.00328907,0.034808
 15,-0.01119722,0.00240182,-0.02034705,-0.00580594,0.07422557,-0.401795
 16,-0.12818136,0.03712128,-0.00154610,-0.00649639,-0.00558831,-0.00530
 517,0.01505413,0.00564033,-0.10043692,0.01999725,0.03800310,-0.0030841
 2,-0.00452292,0.00008416,0.00581997,-0.00625221,-0.00146944,0.55035597
 ,-0.17895179,-0.19432323,-0.01464209,-0.00361706,-0.00066817,-0.016069
 61,-0.00035781,0.02618855,0.02778215,0.04151069,0.03283506,-0.00577376
 ,-0.00874467,-0.00976937,-0.00130023,0.00584589,-0.00607872,-0.0017359
 6,0.13272319,0.58077524,0.02897204,-0.01162169,-0.06577762,0.00077294,
 0.00070338,0.00263046,-0.00345208,-0.00493977,0.00588372,0.04091680,0.
 00034742,0.01405855,-0.00250237,-0.00204600,-0.00092799,0.00031757,0.0
 0040198,-0.00096586,-0.07241814,0.12450211,0.10040767,-0.01025127,-0.0
 5540513,-0.01144635,0.00044396,0.00152179,-0.00061418,-0.00067321,-0.0
 0038620,0.00460227,0.00324274,0.00512981,-0.00206717,-0.00075922,-0.00
 080234,-0.00084068,0.00029870,0.00018859,-0.00030893,-0.04400848,0.011
 59156,0.00739323,0.05170678,-0.02635156,-0.02777632,-0.00721727,0.0001
 0151,0.00086649,-0.00194676,0.00100282,0.00338063,0.00482726,0.0089884
 4,0.00169079,0.00096033,-0.00035388,-0.00044537,-0.00044709,0.00077246
 ,-0.00052661,-0.00013070,-0.02232170,-0.42895936,-0.10734743,0.0381619
 1,0.45176975,-0.00205623,0.00060537,0.01439222,0.00162161,0.00326113,0
 .00142419,0.00024170,-0.00625038,0.00515810,-0.00102375,0.00260943,-0.
 00960680,0.00004591,0.00041660,-0.00146603,-0.00073809,0.00081880,-0.0
 0091820,-0.00137297,-0.11276261,-0.05530894,0.00328181,0.11130165,0.04
 632546\\0.00000043,-0.00000124,-0.00000033,-0.00000108,0.00000237,0.00
 000054,-0.00000008,0.,-0.00000005,-0.00000010,-0.00000257,0.00000298,0
 .00000206,-0.00000075,-0.00000200,0.00000032,0.00000212,-0.00000379,-0
 .00000073,0.00000006,0.00000055,-0.00000083,0.00000002,0.00000209\\\@
 The archive entry for this job was punched.


 HERE WE GO......
 SLIDING DOWN THE RAZOR BLADE OF LIFE......
                                 TOM LEHRER
 Job cpu time:       0 days  1 hours 36 minutes 46.5 seconds.
 Elapsed time:       0 days  0 hours 19 minutes 22.8 seconds.
 File lengths (MBytes):  RWF=     50 Int=      0 D2E=      0 Chk=      5 Scr=      1
 Normal termination of Gaussian 16 at Sun May 25 04:06:55 2025.
done
