 Entering Gaussian System, Link 0=g16
 Initial command:
 /apps/easybuild-2022/easybuild/software/Compiler/NVHPC/22.11-CUDA-11.7.0/Gaussian/g16c01-CUDA-11.7.0/g16/l1.exe "/tmp/Gau-139070.inp" -scrdir="/tmp/"
 Entering Link 1 = /apps/easybuild-2022/easybuild/software/Compiler/NVHPC/22.11-CUDA-11.7.0/Gaussian/g16c01-CUDA-11.7.0/g16/l1.exe PID=    139071.
  
 Copyright (c) 1988-2019, Gaussian, Inc.  All Rights Reserved.
  
 This is part of the Gaussian(R) 16 program.  It is based on
 the Gaussian(R) 09 system (copyright 2009, Gaussian, Inc.),
 the Gaussian(R) 03 system (copyright 2003, Gaussian, Inc.),
 the Gaussian(R) 98 system (copyright 1998, Gaussian, Inc.),
 the Gaussian(R) 94 system (copyright 1995, Gaussian, Inc.),
 the Gaussian 92(TM) system (copyright 1992, Gaussian, Inc.),
 the Gaussian 90(TM) system (copyright 1990, Gaussian, Inc.),
 the Gaussian 88(TM) system (copyright 1988, Gaussian, Inc.),
 the Gaussian 86(TM) system (copyright 1986, Carnegie Mellon
 University), and the Gaussian 82(TM) system (copyright 1983,
 Carnegie Mellon University). Gaussian is a federally registered
 trademark of Gaussian, Inc.
  
 This software contains proprietary and confidential information,
 including trade secrets, belonging to Gaussian, Inc.
  
 This software is provided under written license and may be
 used, copied, transmitted, or stored only in accord with that
 written license.
  
 The following legend is applicable only to US Government
 contracts under FAR:
  
                    RESTRICTED RIGHTS LEGEND
  
 Use, reproduction and disclosure by the US Government is
 subject to restrictions as set forth in subparagraphs (a)
 and (c) of the Commercial Computer Software - Restricted
 Rights clause in FAR 52.227-19.
  
 Gaussian, Inc.
 340 Quinnipiac St., Bldg. 40, Wallingford CT 06492
  
  
 ---------------------------------------------------------------
 Warning -- This program may not be used in any manner that
 competes with the business of Gaussian, Inc. or will provide
 assistance to any competitor of Gaussian, Inc.  The licensee
 of this program is prohibited from giving any competitor of
 Gaussian, Inc. access to this program.  By using this program,
 the user acknowledges that Gaussian, Inc. is engaged in the
 business of creating and licensing software in the field of
 computational chemistry and represents and warrants to the
 licensee that it is not a competitor of Gaussian, Inc. and that
 it will not use this program in any manner prohibited above.
 ---------------------------------------------------------------
  

 Cite this work as:
 Gaussian 16, Revision C.01,
 M. J. Frisch, G. W. Trucks, H. B. Schlegel, G. E. Scuseria, 
 M. A. Robb, J. R. Cheeseman, G. Scalmani, V. Barone, 
 G. A. Petersson, H. Nakatsuji, X. Li, M. Caricato, A. V. Marenich, 
 J. Bloino, B. G. Janesko, R. Gomperts, B. Mennucci, H. P. Hratchian, 
 J. V. Ortiz, A. F. Izmaylov, J. L. Sonnenberg, D. Williams-Young, 
 F. Ding, F. Lipparini, F. Egidi, J. Goings, B. Peng, A. Petrone, 
 T. Henderson, D. Ranasinghe, V. G. Zakrzewski, J. Gao, N. Rega, 
 G. Zheng, W. Liang, M. Hada, M. Ehara, K. Toyota, R. Fukuda, 
 J. Hasegawa, M. Ishida, T. Nakajima, Y. Honda, O. Kitao, H. Nakai, 
 T. Vreven, K. Throssell, J. A. Montgomery, Jr., J. E. Peralta, 
 F. Ogliaro, M. J. Bearpark, J. J. Heyd, E. N. Brothers, K. N. Kudin, 
 V. N. Staroverov, T. A. Keith, R. Kobayashi, J. Normand, 
 K. Raghavachari, A. P. Rendell, J. C. Burant, S. S. Iyengar, 
 J. Tomasi, M. Cossi, J. M. Millam, M. Klene, C. Adamo, R. Cammi, 
 J. W. Ochterski, R. L. Martin, K. Morokuma, O. Farkas, 
 J. B. Foresman, and D. J. Fox, Gaussian, Inc., Wallingford CT, 2019.
 
 ******************************************
 Gaussian 16:  ES64L-G16RevC.01  3-Jul-2019
                25-May-2025 
 ******************************************
 %mem=28GB
 %chk=1141903082400600000001_well_mp2
 %nprocshared=8
 Will use up to    8 processors via shared memory.
 -----------------------------------------------------------
 #P mp2/6-31G Symm(None) scf(xqc) pop(None) freq opt(CalcFC)
 -----------------------------------------------------------
 1/10=4,18=20,19=15,38=1/1,3;
 2/9=110,12=2,15=3,17=6,18=5,40=1/2;
 3/5=1,6=6,11=9,25=1,30=1,71=2,140=1/1,2,3;
 4//1;
 5/5=2,8=3,13=1,38=5/2,8;
 8/6=3,8=1,10=2,19=11,30=-1/1;
 9/15=3,16=-3/6;
 11/6=1,8=1,15=11,17=12,24=-1,27=1,28=-2,29=300,31=1,32=6,42=3/1,2,10;
 10/6=2,21=1,31=1/2;
 8/6=4,8=1,10=2,19=11,30=-1/11,4;
 10/5=1,20=4,31=1/2;
 11/12=2,14=11,16=1,17=2,28=-2,31=1,42=3,76=2/2,10,12;
 7/10=1,12=2,25=1,30=1,44=2/1,2,3,16;
 1/10=4,18=20,19=15/3(2);
 2/9=110,15=3/2;
 99//99;
 2/9=110,15=3/2;
 3/5=1,6=6,11=9,25=1,30=1,71=1/1,2,3;
 4/5=5,16=3,69=1/1;
 5/5=2,8=3,13=1,38=5/2,8;
 8/6=4,10=2/1;
 9/15=2,16=-3/6;
 10/5=1,31=1/2;
 7/12=2,30=1/1,2,3,16;
 1/18=20,19=15/3(-8);
 2/9=110,15=3/2;
 99/9=10/99;
 Leave Link    1 at Sun May 25 03:18:12 2025, MaxMem=  3758096384 cpu:               0.0 elap:               0.0
 (Enter /apps/easybuild-2022/easybuild/software/Compiler/NVHPC/22.11-CUDA-11.7.0/Gaussian/g16c01-CUDA-11.7.0/g16/l101.exe)
 ------------------------------
 Gaussian input prepared by ASE
 ------------------------------
 Symbolic Z-matrix:
 Charge =  0 Multiplicity = 1
 C                     0.57821   0.30979   0.02553 
 O                     1.02247   1.39749   0.20128 
 C                    -0.93277  -0.00652   0.04885 
 F                    -1.31499  -0.51566  -1.1195 
 F                    -1.20223  -0.89568   1.0014 
 F                    -1.62746   1.09053   0.28243 
 O                     1.26765  -0.8004   -0.21503 
 H                     2.20913  -0.57955  -0.22496 
 
 ITRead=  0  0  0  0  0  0  0  0
 MicOpt= -1 -1 -1 -1 -1 -1 -1 -1
 NAtoms=      8 NQM=        8 NQMF=       0 NMMI=      0 NMMIF=      0
                NMic=       0 NMicF=      0.
                    Isotopes and Nuclear Properties:
 (Nuclear quadrupole moments (NQMom) in fm**2, nuclear magnetic moments (NMagM)
  in nuclear magnetons)

  Atom         1           2           3           4           5           6           7           8
 IAtWgt=          12          16          12          19          19          19          16           1
 AtmWgt=  12.0000000  15.9949146  12.0000000  18.9984032  18.9984032  18.9984032  15.9949146   1.0078250
 NucSpn=           0           0           0           1           1           1           0           1
 AtZEff=  -0.0000000  -0.0000000  -0.0000000  -0.0000000  -0.0000000  -0.0000000  -0.0000000  -0.0000000
 NQMom=    0.0000000   0.0000000   0.0000000   0.0000000   0.0000000   0.0000000   0.0000000   0.0000000
 NMagM=    0.0000000   0.0000000   0.0000000   2.6288670   2.6288670   2.6288670   0.0000000   2.7928460
 AtZNuc=   6.0000000   8.0000000   6.0000000   9.0000000   9.0000000   9.0000000   8.0000000   1.0000000
 Leave Link  101 at Sun May 25 03:18:12 2025, MaxMem=  3758096384 cpu:               0.2 elap:               0.2
 (Enter /apps/easybuild-2022/easybuild/software/Compiler/NVHPC/22.11-CUDA-11.7.0/Gaussian/g16c01-CUDA-11.7.0/g16/l103.exe)

 GradGradGradGradGradGradGradGradGradGradGradGradGradGradGradGradGradGrad
 Berny optimization.
 Initialization pass.
                           ----------------------------
                           !    Initial Parameters    !
                           ! (Angstroms and Degrees)  !
 --------------------------                            --------------------------
 ! Name  Definition              Value          Derivative Info.                !
 --------------------------------------------------------------------------------
 ! R1    R(1,2)                  1.188          calculate D2E/DX2 analytically  !
 ! R2    R(1,3)                  1.5439         calculate D2E/DX2 analytically  !
 ! R3    R(1,7)                  1.3288         calculate D2E/DX2 analytically  !
 ! R4    R(3,4)                  1.3305         calculate D2E/DX2 analytically  !
 ! R5    R(3,5)                  1.3306         calculate D2E/DX2 analytically  !
 ! R6    R(3,6)                  1.3193         calculate D2E/DX2 analytically  !
 ! R7    R(7,8)                  0.9671         calculate D2E/DX2 analytically  !
 ! A1    A(2,1,3)              123.4581         calculate D2E/DX2 analytically  !
 ! A2    A(2,1,7)              126.7053         calculate D2E/DX2 analytically  !
 ! A3    A(3,1,7)              109.8366         calculate D2E/DX2 analytically  !
 ! A4    A(1,3,4)              110.2593         calculate D2E/DX2 analytically  !
 ! A5    A(1,3,5)              110.2371         calculate D2E/DX2 analytically  !
 ! A6    A(1,3,6)              110.3417         calculate D2E/DX2 analytically  !
 ! A7    A(4,3,5)              108.3447         calculate D2E/DX2 analytically  !
 ! A8    A(4,3,6)              108.8071         calculate D2E/DX2 analytically  !
 ! A9    A(5,3,6)              108.8008         calculate D2E/DX2 analytically  !
 ! A10   A(1,7,8)              108.4311         calculate D2E/DX2 analytically  !
 ! D1    D(2,1,3,4)            120.46           calculate D2E/DX2 analytically  !
 ! D2    D(2,1,3,5)           -119.9603         calculate D2E/DX2 analytically  !
 ! D3    D(2,1,3,6)              0.2388         calculate D2E/DX2 analytically  !
 ! D4    D(7,1,3,4)            -59.5579         calculate D2E/DX2 analytically  !
 ! D5    D(7,1,3,5)             60.0218         calculate D2E/DX2 analytically  !
 ! D6    D(7,1,3,6)           -179.7792         calculate D2E/DX2 analytically  !
 ! D7    D(2,1,7,8)             -0.0031         calculate D2E/DX2 analytically  !
 ! D8    D(3,1,7,8)           -179.9844         calculate D2E/DX2 analytically  !
 --------------------------------------------------------------------------------
 Trust Radius=3.00D-01 FncErr=1.00D-07 GrdErr=1.00D-07 EigMax=2.50D+02 EigMin=1.00D-04
 Number of steps in this run=     35 maximum allowed number of steps=    100.
 GradGradGradGradGradGradGradGradGradGradGradGradGradGradGradGradGradGrad

 Leave Link  103 at Sun May 25 03:18:12 2025, MaxMem=  3758096384 cpu:               0.0 elap:               0.0
 (Enter /apps/easybuild-2022/easybuild/software/Compiler/NVHPC/22.11-CUDA-11.7.0/Gaussian/g16c01-CUDA-11.7.0/g16/l202.exe)
                          Input orientation:                          
 ---------------------------------------------------------------------
 Center     Atomic      Atomic             Coordinates (Angstroms)
 Number     Number       Type             X           Y           Z
 ---------------------------------------------------------------------
      1          6           0        0.578205    0.309791    0.025527
      2          8           0        1.022467    1.397491    0.201281
      3          6           0       -0.932774   -0.006524    0.048852
      4          9           0       -1.314994   -0.515659   -1.119502
      5          9           0       -1.202229   -0.895680    1.001398
      6          9           0       -1.627455    1.090533    0.282429
      7          8           0        1.267647   -0.800403   -0.215030
      8          1           0        2.209132   -0.579549   -0.224955
 ---------------------------------------------------------------------
                    Distance matrix (angstroms):
                    1          2          3          4          5
     1  C    0.000000
     2  O    1.188002   0.000000
     3  C    1.543910   2.411941   0.000000
     4  F    2.361496   3.296716   1.330549   0.000000
     5  F    2.361235   3.293644   1.330620   2.157626   0.000000
     6  F    2.353825   2.668875   1.319346   2.154738   2.154710
     7  O    1.328807   2.250370   2.354088   2.751215   2.754825
     8  H    1.874457   2.344896   3.205449   3.636449   3.638855
                    6          7          8
     6  F    0.000000
     7  O    3.493525   0.000000
     8  H    4.214975   0.967093   0.000000
 Symmetry turned off by external request.
 Stoichiometry    C2HF3O2
 Rotational constants (GHZ):           3.8930409           2.5146735           2.0853800
 Leave Link  202 at Sun May 25 03:18:12 2025, MaxMem=  3758096384 cpu:               0.0 elap:               0.0
 (Enter /apps/easybuild-2022/easybuild/software/Compiler/NVHPC/22.11-CUDA-11.7.0/Gaussian/g16c01-CUDA-11.7.0/g16/l301.exe)
 Standard basis: 6-31G (6D, 7F)
 Ernie: Thresh=  0.10000D-02 Tol=  0.10000D-05 Strict=F.
    65 basis functions,   158 primitive gaussians,    65 cartesian basis functions
    28 alpha electrons       28 beta electrons
       nuclear repulsion energy       338.4129606511 Hartrees.
 IExCor=    0 DFT=F Ex=HF Corr=None ExCW=0 ScaHFX=  1.000000
 ScaDFX=  1.000000  1.000000  1.000000  1.000000 ScalE2=  1.000000  1.000000
 IRadAn=      5 IRanWt=     -1 IRanGd=            0 ICorTp=0 IEmpDi=  4
 NAtoms=    8 NActive=    8 NUniq=    8 SFac= 1.00D+00 NAtFMM=   60 NAOKFM=F Big=F
 Integral buffers will be    131072 words long.
 Raffenetti 1 integral format.
 Two-electron integral symmetry is turned off.
 Leave Link  301 at Sun May 25 03:18:12 2025, MaxMem=  3758096384 cpu:               0.0 elap:               0.0
 (Enter /apps/easybuild-2022/easybuild/software/Compiler/NVHPC/22.11-CUDA-11.7.0/Gaussian/g16c01-CUDA-11.7.0/g16/l302.exe)
 NPDir=0 NMtPBC=     1 NCelOv=     1 NCel=       1 NClECP=     1 NCelD=      1
         NCelK=      1 NCelE2=     1 NClLst=     1 CellRange=     0.0.
 One-electron integrals computed using PRISM.
 NBasis=    65 RedAO= T EigKep=  5.28D-03  NBF=    65
 NBsUse=    65 1.00D-06 EigRej= -1.00D+00 NBFU=    65
 Leave Link  302 at Sun May 25 03:18:12 2025, MaxMem=  3758096384 cpu:               0.2 elap:               0.1
 (Enter /apps/easybuild-2022/easybuild/software/Compiler/NVHPC/22.11-CUDA-11.7.0/Gaussian/g16c01-CUDA-11.7.0/g16/l303.exe)
 DipDrv:  MaxL=1.
 Leave Link  303 at Sun May 25 03:18:12 2025, MaxMem=  3758096384 cpu:               0.1 elap:               0.0
 (Enter /apps/easybuild-2022/easybuild/software/Compiler/NVHPC/22.11-CUDA-11.7.0/Gaussian/g16c01-CUDA-11.7.0/g16/l401.exe)
 ExpMin= 1.61D-01 ExpMax= 7.00D+03 ExpMxC= 1.05D+03 IAcc=3 IRadAn=         5 AccDes= 0.00D+00
 Harris functional with IExCor=  205 and IRadAn=       5 diagonalized for initial guess.
 HarFok:  IExCor=  205 AccDes= 0.00D+00 IRadAn=         5 IDoV= 1 UseB2=F ITyADJ=14
 ICtDFT=  3500011 ScaDFX=  1.000000  1.000000  1.000000  1.000000
 FoFCou: FMM=F IPFlag=           0 FMFlag=      100000 FMFlg1=           0
         NFxFlg=           0 DoJE=T BraDBF=F KetDBF=T FulRan=T
         wScrn=  0.000000 ICntrl=       500 IOpCl=  0 I1Cent=   200000004 NGrid=           0
         NMat0=    1 NMatS0=      1 NMatT0=    0 NMatD0=    1 NMtDS0=    0 NMtDT0=    0
 Symmetry not used in FoFCou.
 Harris En= -524.237218756001    
 JPrj=0 DoOrth=F DoCkMO=F.
 Leave Link  401 at Sun May 25 03:18:12 2025, MaxMem=  3758096384 cpu:               0.5 elap:               0.1
 (Enter /apps/easybuild-2022/easybuild/software/Compiler/NVHPC/22.11-CUDA-11.7.0/Gaussian/g16c01-CUDA-11.7.0/g16/l502.exe)
 Keep R1 ints in memory in canonical form, NReq=3942741.
 FoFCou: FMM=F IPFlag=           0 FMFlag=           0 FMFlg1=           0
         NFxFlg=           0 DoJE=F BraDBF=F KetDBF=F FulRan=T
         wScrn=  0.000000 ICntrl=       600 IOpCl=  0 I1Cent=           0 NGrid=           0
         NMat0=    1 NMatS0=   2145 NMatT0=    0 NMatD0=    1 NMtDS0=    0 NMtDT0=    0
 Symmetry not used in FoFCou.
 Two-electron integral symmetry not used.
 Closed shell SCF:
 Using DIIS extrapolation, IDIIS=  1040.
 NGot=  3758096384 LenX=  3755784906 LenY=  3755780240
 Requested convergence on RMS density matrix=1.00D-08 within  32 cycles.
 Requested convergence on MAX density matrix=1.00D-06.
 Requested convergence on             energy=1.00D-06.
 No special actions if energy rises.

 Cycle   1  Pass 1  IDiag  1:
 E= -524.012838572133    
 DIIS: error= 4.40D-02 at cycle   1 NSaved=   1.
 NSaved= 1 IEnMin= 1 EnMin= -524.012838572133     IErMin= 1 ErrMin= 4.40D-02
 ErrMax= 4.40D-02  0.00D+00 EMaxC= 1.00D-01 BMatC= 2.60D-01 BMatP= 2.60D-01
 IDIUse=3 WtCom= 5.60D-01 WtEn= 4.40D-01
 Coeff-Com:  0.100D+01
 Coeff-En:   0.100D+01
 Coeff:      0.100D+01
 Gap=     0.585 Goal=   None    Shift=    0.000
 GapD=    0.585 DampG=2.000 DampE=0.500 DampFc=1.0000 IDamp=-1.
 RMSDP=8.04D-03 MaxDP=1.26D-01              OVMax= 1.20D-01

 Cycle   2  Pass 1  IDiag  1:
 E= -524.104375756185     Delta-E=       -0.091537184053 Rises=F Damp=F
 DIIS: error= 2.49D-02 at cycle   2 NSaved=   2.
 NSaved= 2 IEnMin= 2 EnMin= -524.104375756185     IErMin= 2 ErrMin= 2.49D-02
 ErrMax= 2.49D-02  0.00D+00 EMaxC= 1.00D-01 BMatC= 6.90D-02 BMatP= 2.60D-01
 IDIUse=3 WtCom= 7.51D-01 WtEn= 2.49D-01
 Coeff-Com:  0.301D+00 0.699D+00
 Coeff-En:   0.592D-01 0.941D+00
 Coeff:      0.241D+00 0.759D+00
 Gap=     0.644 Goal=   None    Shift=    0.000
 RMSDP=4.31D-03 MaxDP=6.09D-02 DE=-9.15D-02 OVMax= 4.29D-02

 Cycle   3  Pass 1  IDiag  1:
 E= -524.147781374960     Delta-E=       -0.043405618775 Rises=F Damp=F
 DIIS: error= 9.09D-03 at cycle   3 NSaved=   3.
 NSaved= 3 IEnMin= 3 EnMin= -524.147781374960     IErMin= 3 ErrMin= 9.09D-03
 ErrMax= 9.09D-03  0.00D+00 EMaxC= 1.00D-01 BMatC= 7.85D-03 BMatP= 6.90D-02
 IDIUse=3 WtCom= 9.09D-01 WtEn= 9.09D-02
 Coeff-Com: -0.208D-01 0.228D+00 0.793D+00
 Coeff-En:   0.000D+00 0.000D+00 0.100D+01
 Coeff:     -0.189D-01 0.207D+00 0.812D+00
 Gap=     0.611 Goal=   None    Shift=    0.000
 RMSDP=1.22D-03 MaxDP=2.43D-02 DE=-4.34D-02 OVMax= 3.18D-02

 Cycle   4  Pass 1  IDiag  1:
 E= -524.153883727011     Delta-E=       -0.006102352051 Rises=F Damp=F
 DIIS: error= 3.32D-03 at cycle   4 NSaved=   4.
 NSaved= 4 IEnMin= 4 EnMin= -524.153883727011     IErMin= 4 ErrMin= 3.32D-03
 ErrMax= 3.32D-03  0.00D+00 EMaxC= 1.00D-01 BMatC= 4.63D-04 BMatP= 7.85D-03
 IDIUse=3 WtCom= 9.67D-01 WtEn= 3.32D-02
 Coeff-Com: -0.161D-01 0.404D-01 0.280D+00 0.696D+00
 Coeff-En:   0.000D+00 0.000D+00 0.000D+00 0.100D+01
 Coeff:     -0.156D-01 0.390D-01 0.271D+00 0.706D+00
 Gap=     0.615 Goal=   None    Shift=    0.000
 RMSDP=3.71D-04 MaxDP=4.37D-03 DE=-6.10D-03 OVMax= 5.47D-03

 Cycle   5  Pass 1  IDiag  1:
 E= -524.154295653388     Delta-E=       -0.000411926377 Rises=F Damp=F
 DIIS: error= 1.28D-03 at cycle   5 NSaved=   5.
 NSaved= 5 IEnMin= 5 EnMin= -524.154295653388     IErMin= 5 ErrMin= 1.28D-03
 ErrMax= 1.28D-03  0.00D+00 EMaxC= 1.00D-01 BMatC= 3.09D-05 BMatP= 4.63D-04
 IDIUse=3 WtCom= 9.87D-01 WtEn= 1.28D-02
 Coeff-Com:  0.368D-02-0.380D-01-0.130D+00-0.313D-01 0.120D+01
 Coeff-En:   0.000D+00 0.000D+00 0.000D+00 0.000D+00 0.100D+01
 Coeff:      0.363D-02-0.375D-01-0.129D+00-0.309D-01 0.119D+01
 Gap=     0.617 Goal=   None    Shift=    0.000
 RMSDP=2.23D-04 MaxDP=2.70D-03 DE=-4.12D-04 OVMax= 5.59D-03

 Cycle   6  Pass 1  IDiag  1:
 E= -524.154383898242     Delta-E=       -0.000088244853 Rises=F Damp=F
 DIIS: error= 3.92D-04 at cycle   6 NSaved=   6.
 NSaved= 6 IEnMin= 6 EnMin= -524.154383898242     IErMin= 6 ErrMin= 3.92D-04
 ErrMax= 3.92D-04  0.00D+00 EMaxC= 1.00D-01 BMatC= 4.11D-06 BMatP= 3.09D-05
 IDIUse=3 WtCom= 9.96D-01 WtEn= 3.92D-03
 Coeff-Com:  0.141D-02-0.413D-02-0.243D-01-0.932D-01 0.481D-01 0.107D+01
 Coeff-En:   0.000D+00 0.000D+00 0.000D+00 0.000D+00 0.000D+00 0.100D+01
 Coeff:      0.140D-02-0.411D-02-0.242D-01-0.928D-01 0.479D-01 0.107D+01
 Gap=     0.618 Goal=   None    Shift=    0.000
 RMSDP=7.92D-05 MaxDP=8.39D-04 DE=-8.82D-05 OVMax= 1.83D-03

 Cycle   7  Pass 1  IDiag  1:
 E= -524.154394683775     Delta-E=       -0.000010785533 Rises=F Damp=F
 DIIS: error= 1.21D-04 at cycle   7 NSaved=   7.
 NSaved= 7 IEnMin= 7 EnMin= -524.154394683775     IErMin= 7 ErrMin= 1.21D-04
 ErrMax= 1.21D-04  0.00D+00 EMaxC= 1.00D-01 BMatC= 5.83D-07 BMatP= 4.11D-06
 IDIUse=3 WtCom= 9.99D-01 WtEn= 1.21D-03
 Coeff-Com: -0.865D-03 0.676D-02 0.292D-01 0.147D-01-0.173D+00-0.271D+00
 Coeff-Com:  0.139D+01
 Coeff-En:   0.000D+00 0.000D+00 0.000D+00 0.000D+00 0.000D+00 0.000D+00
 Coeff-En:   0.100D+01
 Coeff:     -0.864D-03 0.675D-02 0.292D-01 0.147D-01-0.173D+00-0.271D+00
 Coeff:      0.139D+01
 Gap=     0.618 Goal=   None    Shift=    0.000
 RMSDP=4.06D-05 MaxDP=4.40D-04 DE=-1.08D-05 OVMax= 1.01D-03

 Cycle   8  Pass 1  IDiag  1:
 E= -524.154396526951     Delta-E=       -0.000001843176 Rises=F Damp=F
 DIIS: error= 2.84D-05 at cycle   8 NSaved=   8.
 NSaved= 8 IEnMin= 8 EnMin= -524.154396526951     IErMin= 8 ErrMin= 2.84D-05
 ErrMax= 2.84D-05  0.00D+00 EMaxC= 1.00D-01 BMatC= 3.92D-08 BMatP= 5.83D-07
 IDIUse=1 WtCom= 1.00D+00 WtEn= 0.00D+00
 Coeff-Com:  0.178D-03-0.192D-02-0.697D-02-0.188D-02 0.557D-01 0.257D-01
 Coeff-Com: -0.482D+00 0.141D+01
 Coeff:      0.178D-03-0.192D-02-0.697D-02-0.188D-02 0.557D-01 0.257D-01
 Coeff:     -0.482D+00 0.141D+01
 Gap=     0.618 Goal=   None    Shift=    0.000
 RMSDP=8.76D-06 MaxDP=1.17D-04 DE=-1.84D-06 OVMax= 2.24D-04

 Cycle   9  Pass 1  IDiag  1:
 E= -524.154396640882     Delta-E=       -0.000000113931 Rises=F Damp=F
 DIIS: error= 5.51D-06 at cycle   9 NSaved=   9.
 NSaved= 9 IEnMin= 9 EnMin= -524.154396640882     IErMin= 9 ErrMin= 5.51D-06
 ErrMax= 5.51D-06  0.00D+00 EMaxC= 1.00D-01 BMatC= 3.62D-09 BMatP= 3.92D-08
 IDIUse=1 WtCom= 1.00D+00 WtEn= 0.00D+00
 Coeff-Com:  0.106D-03-0.973D-03-0.379D-02-0.222D-02 0.261D-01 0.308D-01
 Coeff-Com: -0.216D+00 0.227D+00 0.939D+00
 Coeff:      0.106D-03-0.973D-03-0.379D-02-0.222D-02 0.261D-01 0.308D-01
 Coeff:     -0.216D+00 0.227D+00 0.939D+00
 Gap=     0.618 Goal=   None    Shift=    0.000
 RMSDP=1.79D-06 MaxDP=2.32D-05 DE=-1.14D-07 OVMax= 3.86D-05

 Cycle  10  Pass 1  IDiag  1:
 E= -524.154396646728     Delta-E=       -0.000000005846 Rises=F Damp=F
 DIIS: error= 1.51D-06 at cycle  10 NSaved=  10.
 NSaved=10 IEnMin=10 EnMin= -524.154396646728     IErMin=10 ErrMin= 1.51D-06
 ErrMax= 1.51D-06  0.00D+00 EMaxC= 1.00D-01 BMatC= 2.84D-10 BMatP= 3.62D-09
 IDIUse=1 WtCom= 1.00D+00 WtEn= 0.00D+00
 Coeff-Com: -0.193D-05 0.276D-04 0.127D-03-0.264D-03-0.134D-02 0.266D-02
 Coeff-Com:  0.123D-01-0.934D-01 0.154D+00 0.926D+00
 Coeff:     -0.193D-05 0.276D-04 0.127D-03-0.264D-03-0.134D-02 0.266D-02
 Coeff:      0.123D-01-0.934D-01 0.154D+00 0.926D+00
 Gap=     0.618 Goal=   None    Shift=    0.000
 RMSDP=3.24D-07 MaxDP=4.43D-06 DE=-5.85D-09 OVMax= 4.42D-06

 Cycle  11  Pass 1  IDiag  1:
 E= -524.154396647077     Delta-E=       -0.000000000349 Rises=F Damp=F
 DIIS: error= 4.22D-07 at cycle  11 NSaved=  11.
 NSaved=11 IEnMin=11 EnMin= -524.154396647077     IErMin=11 ErrMin= 4.22D-07
 ErrMax= 4.22D-07  0.00D+00 EMaxC= 1.00D-01 BMatC= 1.87D-11 BMatP= 2.84D-10
 IDIUse=1 WtCom= 1.00D+00 WtEn= 0.00D+00
 Coeff-Com: -0.101D-04 0.980D-04 0.397D-03 0.203D-03-0.279D-02-0.274D-02
 Coeff-Com:  0.217D-01-0.243D-01-0.876D-01 0.715D-02 0.109D+01
 Coeff:     -0.101D-04 0.980D-04 0.397D-03 0.203D-03-0.279D-02-0.274D-02
 Coeff:      0.217D-01-0.243D-01-0.876D-01 0.715D-02 0.109D+01
 Gap=     0.618 Goal=   None    Shift=    0.000
 RMSDP=1.14D-07 MaxDP=1.43D-06 DE=-3.49D-10 OVMax= 1.48D-06

 Cycle  12  Pass 1  IDiag  1:
 E= -524.154396647115     Delta-E=       -0.000000000038 Rises=F Damp=F
 DIIS: error= 1.47D-07 at cycle  12 NSaved=  12.
 NSaved=12 IEnMin=12 EnMin= -524.154396647115     IErMin=12 ErrMin= 1.47D-07
 ErrMax= 1.47D-07  0.00D+00 EMaxC= 1.00D-01 BMatC= 8.35D-13 BMatP= 1.87D-11
 IDIUse=1 WtCom= 1.00D+00 WtEn= 0.00D+00
 Coeff-Com:  0.169D-05-0.169D-04-0.693D-04-0.151D-04 0.507D-03 0.402D-03
 Coeff-Com: -0.429D-02 0.842D-02 0.487D-02-0.415D-01-0.182D+00 0.121D+01
 Coeff:      0.169D-05-0.169D-04-0.693D-04-0.151D-04 0.507D-03 0.402D-03
 Coeff:     -0.429D-02 0.842D-02 0.487D-02-0.415D-01-0.182D+00 0.121D+01
 Gap=     0.618 Goal=   None    Shift=    0.000
 RMSDP=2.77D-08 MaxDP=4.21D-07 DE=-3.80D-11 OVMax= 4.78D-07

 Cycle  13  Pass 1  IDiag  1:
 E= -524.154396647118     Delta-E=       -0.000000000003 Rises=F Damp=F
 DIIS: error= 3.82D-08 at cycle  13 NSaved=  13.
 NSaved=13 IEnMin=13 EnMin= -524.154396647118     IErMin=13 ErrMin= 3.82D-08
 ErrMax= 3.82D-08  0.00D+00 EMaxC= 1.00D-01 BMatC= 9.97D-14 BMatP= 8.35D-13
 IDIUse=1 WtCom= 1.00D+00 WtEn= 0.00D+00
 Coeff-Com:  0.982D-06-0.967D-05-0.387D-04-0.186D-04 0.276D-03 0.274D-03
 Coeff-Com: -0.226D-02 0.328D-02 0.681D-02-0.722D-02-0.104D+00 0.203D+00
 Coeff-Com:  0.900D+00
 Coeff:      0.982D-06-0.967D-05-0.387D-04-0.186D-04 0.276D-03 0.274D-03
 Coeff:     -0.226D-02 0.328D-02 0.681D-02-0.722D-02-0.104D+00 0.203D+00
 Coeff:      0.900D+00
 Gap=     0.618 Goal=   None    Shift=    0.000
 RMSDP=7.38D-09 MaxDP=1.05D-07 DE=-3.41D-12 OVMax= 1.21D-07

 SCF Done:  E(RHF) =  -524.154396647     A.U. after   13 cycles
            NFock= 13  Conv=0.74D-08     -V/T= 1.9995
 KE= 5.243961171556D+02 PE=-1.922362078567D+03 EE= 5.353986041132D+02
 Leave Link  502 at Sun May 25 03:18:12 2025, MaxMem=  3758096384 cpu:               0.5 elap:               0.1
 (Enter /apps/easybuild-2022/easybuild/software/Compiler/NVHPC/22.11-CUDA-11.7.0/Gaussian/g16c01-CUDA-11.7.0/g16/l508.exe)
 QCSCF skips out because SCF is already converged.
 Leave Link  508 at Sun May 25 03:18:12 2025, MaxMem=  3758096384 cpu:               0.0 elap:               0.0
 (Enter /apps/easybuild-2022/easybuild/software/Compiler/NVHPC/22.11-CUDA-11.7.0/Gaussian/g16c01-CUDA-11.7.0/g16/l801.exe)
 ExpMin= 1.61D-01 ExpMax= 7.00D+03 ExpMxC= 1.05D+03 IAcc=3 IRadAn=         5 AccDes= 0.00D+00
 HarFok:  IExCor=  205 AccDes= 0.00D+00 IRadAn=         5 IDoV=-2 UseB2=F ITyADJ=14
 ICtDFT= 12500011 ScaDFX=  1.000000  1.000000  1.000000  1.000000
 Largest valence mixing into a core orbital is  1.11D-04
 Largest core mixing into a valence orbital is  5.37D-05
 Range of M.O.s used for correlation:     8    65
 NBasis=    65 NAE=    28 NBE=    28 NFC=     7 NFV=     0
 NROrb=     58 NOA=    21 NOB=    21 NVA=    37 NVB=    37
 Leave Link  801 at Sun May 25 03:18:12 2025, MaxMem=  3758096384 cpu:               0.1 elap:               0.0
 (Enter /apps/easybuild-2022/easybuild/software/Compiler/NVHPC/22.11-CUDA-11.7.0/Gaussian/g16c01-CUDA-11.7.0/g16/l906.exe)
 Frozen-core derivative calculation, NFC=   7 NFV=   0.
 FulOut=F Deriv=T AODrv=T NAtomX=     8
   MMem=           0  MDisk=          21 MDiskD=          21
  W3Min=      118300 MinDsk=      307465 NBas6D=          65
 NBas2D=        2229    NTT=        2145    LW2=     3300000
    MDV=  3758030124 MDiskM=      601927 NBas2p=        2215
 Disk-based method using ON**2 memory for 21 occupieds at a time.
 Permanent disk used for amplitudes=     1325044 words.
 Estimated scratch disk usage=    11948671 words.
 IMap=   1   2   3   4   5   6   7   8   9  10  11  12  13  14  15  16  17  18  19  20
 IMap=  21  22  23  24  25  26  27  28
 Actual    scratch disk usage=    11192959 words.
 JobTyp=1 Pass  1:  I=   8 to  28 NPSUse=  8 ParTrn=T ParDer=T DoDerP=T.
 (rs|ai) integrals will be sorted in core.
 Spin components of T(2) and E(2):
     alpha-alpha T2 =       0.3096337134D-01 E2=     -0.1047407199D+00
     alpha-beta  T2 =       0.1686982931D+00 E2=     -0.5705680337D+00
     beta-beta   T2 =       0.3096337134D-01 E2=     -0.1047407199D+00
 The integrals were generated   1 times.
 ANorm=    0.1109335403D+01
 E2 =    -0.7800494735D+00 EUMP2 =    -0.52493444612062D+03
 Leave Link  906 at Sun May 25 03:18:13 2025, MaxMem=  3758096384 cpu:               8.7 elap:               1.1
 (Enter /apps/easybuild-2022/easybuild/software/Compiler/NVHPC/22.11-CUDA-11.7.0/Gaussian/g16c01-CUDA-11.7.0/g16/l1101.exe)
 Using compressed Sx but separate Hx and Fx, NAtomX=     8.
 Will process      9 centers per pass.
 Leave Link 1101 at Sun May 25 03:18:13 2025, MaxMem=  3758096384 cpu:               0.2 elap:               0.0
 (Enter /apps/easybuild-2022/easybuild/software/Compiler/NVHPC/22.11-CUDA-11.7.0/Gaussian/g16c01-CUDA-11.7.0/g16/l1102.exe)
 Leave Link 1102 at Sun May 25 03:18:14 2025, MaxMem=  3758096384 cpu:               0.0 elap:               0.0
 (Enter /apps/easybuild-2022/easybuild/software/Compiler/NVHPC/22.11-CUDA-11.7.0/Gaussian/g16c01-CUDA-11.7.0/g16/l1110.exe)
 Forming Gx(P) for the SCF density, NAtomX=     8.
 Integral derivatives from FoFJK, PRISM(SPDF).
 Do as many integral derivatives as possible in FoFJK.
 G2DrvN: MDV=    3758095424.
 G2DrvN: will do     9 centers at a time, making    1 passes.
 Calling FoFCou, ICntrl=  3107 FMM=F I1Cent=   0 AccDes= 0.00D+00.
 FoFJK:  IHMeth= 1 ICntrl=    3107 DoSepK=F KAlg= 0 I1Cent=           0 FoldK=F
 IRaf=         0 NMat=       1 IRICut=       1 DoRegI=T DoRafI=F ISym2E= 0 IDoP0=0 IntGTp=1.
 FoFCou: FMM=F IPFlag=           0 FMFlag=      100000 FMFlg1=           0
         NFxFlg=           0 DoJE=F BraDBF=F KetDBF=F FulRan=T
         wScrn=  0.000000 ICntrl=      3107 IOpCl=  0 I1Cent=           0 NGrid=           0
         NMat0=    1 NMatS0=      1 NMatT0=    0 NMatD0=    1 NMtDS0=    0 NMtDT0=    0
 Symmetry not used in FoFCou.
 End of G2Drv F.D. properties file   721 does not exist.
 End of G2Drv F.D. properties file   722 does not exist.
 End of G2Drv F.D. properties file   788 does not exist.
 Leave Link 1110 at Sun May 25 03:18:14 2025, MaxMem=  3758096384 cpu:               0.5 elap:               0.1
 (Enter /apps/easybuild-2022/easybuild/software/Compiler/NVHPC/22.11-CUDA-11.7.0/Gaussian/g16c01-CUDA-11.7.0/g16/l1002.exe)
 Minotr:  Closed shell wavefunction.
          IDoAtm=11111111
          Frozen-core window.
          Direct CPHF calculation.
          Differentiating once with respect to electric field.
                with respect to dipole field.
          Differentiating once with respect to nuclear coordinates.
          Requested convergence is 1.0D-08 RMS, and 1.0D-07 maximum.
          Secondary convergence is 1.0D-12 RMS, and 1.0D-12 maximum.
          NewPWx=T KeepS1=T KeepF1=T KeepIn=T MapXYZ=F SortEE=F KeepMc=T.
 Keep R1 ints in memory in canonical form, NReq=3942285.
 FoFCou: FMM=F IPFlag=           0 FMFlag=           0 FMFlg1=           0
         NFxFlg=           0 DoJE=F BraDBF=F KetDBF=F FulRan=T
         wScrn=  0.000000 ICntrl=       600 IOpCl=  0 I1Cent=           0 NGrid=           0
         NMat0=    1 NMatS0=   2145 NMatT0=    0 NMatD0=    1 NMtDS0=    0 NMtDT0=    0
 Symmetry not used in FoFCou.
 Two-electron integral symmetry not used.
          MDV=    3758096384 using IRadAn=       1.
          Solving linear equations simultaneously, MaxMat=       0.
          There are    27 degrees of freedom in the 1st order CPHF.  IDoFFX=6 NUNeed=    27.
     24 vectors produced by pass  0 Test12= 3.84D-15 3.70D-09 XBig12= 7.12D+00 1.74D+00.
 AX will form    24 AO Fock derivatives at one time.
     24 vectors produced by pass  1 Test12= 3.84D-15 3.70D-09 XBig12= 4.73D-01 1.18D-01.
     24 vectors produced by pass  2 Test12= 3.84D-15 3.70D-09 XBig12= 1.15D-02 2.36D-02.
     24 vectors produced by pass  3 Test12= 3.84D-15 3.70D-09 XBig12= 1.36D-04 2.44D-03.
     24 vectors produced by pass  4 Test12= 3.84D-15 3.70D-09 XBig12= 6.67D-07 1.41D-04.
     24 vectors produced by pass  5 Test12= 3.84D-15 3.70D-09 XBig12= 3.29D-09 8.88D-06.
     22 vectors produced by pass  6 Test12= 3.84D-15 3.70D-09 XBig12= 1.66D-11 8.04D-07.
      6 vectors produced by pass  7 Test12= 3.84D-15 3.70D-09 XBig12= 9.49D-14 5.49D-08.
 InvSVY:  IOpt=1 It=  1 EMax= 2.66D-15
 Solved reduced A of dimension   172 with    27 vectors.
 FullF1:  Do perturbations      1 to      27.
 Saving first derivative matrices.
 End of Minotr F.D. properties file   721 does not exist.
 End of Minotr F.D. properties file   722 does not exist.
 End of Minotr F.D. properties file   788 does not exist.
 Leave Link 1002 at Sun May 25 03:18:14 2025, MaxMem=  3758096384 cpu:               0.7 elap:               0.1
 (Enter /apps/easybuild-2022/easybuild/software/Compiler/NVHPC/22.11-CUDA-11.7.0/Gaussian/g16c01-CUDA-11.7.0/g16/l811.exe)
 MDV=  3758096384.
 Form MO integral derivatives with frozen-active canonical formalism.
 MOERI=1 MOERIx=1 NAtoms=     8 NAtomX=     8.
 Discarding MO integrals.
 MO basis two electron integral derivatives will not be stored on disk.
 IAlg= 3 DoFC=T DoPWx=T Debug=F.
 Frozen-core window:  NFC=   7 NFV=   0.
 Reordered first order wavefunction length =      2146592
 In DefCFB: NBatch=  1 ICI= 28 ICA= 37 LFMax= 37
            Large arrays: LIAPS=    17508400 LIARS=     4242420 words.
 In StABat: MaxSiz=  9 MinSiz=  2 NAtomB=  8
 DoIAMN: NPSUse=  8.
 Leave Link  811 at Sun May 25 03:18:16 2025, MaxMem=  3758096384 cpu:               8.3 elap:               2.2
 (Enter /apps/easybuild-2022/easybuild/software/Compiler/NVHPC/22.11-CUDA-11.7.0/Gaussian/g16c01-CUDA-11.7.0/g16/l804.exe)
 Frozen-core window:  NFC=   7 NFV=   0.
 Closed-shell transformation, MDV=  3758096384 ITran=4 ISComp=1.
 Semi-Direct transformation.
 ModeAB=           2 MOrb=            28 LenV=    3757905954
 LASXX=      2478259 LTotXX=     2478259 LenRXX=     2478259
 LTotAB=     2672474 MaxLAS=     3903900 LenRXY=     3903900
 NonZer=     4956518 LenScr=     8177664 LnRSAI=           0
 LnScr1=           0 LExtra=           0 Total=     14559823
 MaxDsk=          -1 SrtSym=           F ITran=            4
 DoSDTr:  NPSUse=  8
 JobTyp=0 Pass  1:  I=   1 to  28.
 (rs|ai) integrals will be sorted in core.
 Complete sort for first half transformation.
 First half transformation complete.
 Begin second half transformation for I=  10.
 Begin second half transformation for I=  20.
 Begin second half transformation for I=  10.
 Begin second half transformation for I=  20.
 Complete sort for second half transformation.
 Second half transformation complete.
 Spin components of T(2) and E(2):
     alpha-alpha T2 =       0.3096337134D-01 E2=     -0.1047407199D+00
     alpha-beta  T2 =       0.1686982931D+00 E2=     -0.5705680337D+00
     beta-beta   T2 =       0.3096337134D-01 E2=     -0.1047407199D+00
 ANorm=    0.1568837172D+01
 E2 =    -0.7800494735D+00 EUMP2 =    -0.52493444612062D+03
 Leave Link  804 at Sun May 25 03:18:16 2025, MaxMem=  3758096384 cpu:               1.1 elap:               0.2
 (Enter /apps/easybuild-2022/easybuild/software/Compiler/NVHPC/22.11-CUDA-11.7.0/Gaussian/g16c01-CUDA-11.7.0/g16/l1002.exe)
 Minotr:  Closed shell wavefunction.
          Computing MP2/KS-MP2 derivatives.
          Using Z-Vector for PSCF gradient.
          Skipping F1 and S1 gradient terms here.
          IDoAtm=11111111
          Frozen-core window.
          Using MO integrals in the linear equations.
          Forming densities via direct SCF.
          Differentiating once with respect to electric field.
                with respect to dipole field.
          Differentiating once with respect to nuclear coordinates.
          Requested convergence is 1.0D-10 RMS, and 1.0D-09 maximum.
          NewPWx=F KeepS1=T KeepF1=T KeepIn=T MapXYZ=F SortEE=F KeepMc=T.
          MDV=    3758096384 using IRadAn=       5.
          Solving linear equations separately, MaxMat=       0.
          There are     1 degrees of freedom in the 1st order CPHF.  IDoFFX=0 NUNeed=     1.
 FoFJK:  IHMeth= 1 ICntrl=       0 DoSepK=F KAlg= 0 I1Cent=           0 FoldK=F
 IRaf=         0 NMat=       1 IRICut=       1 DoRegI=T DoRafI=F ISym2E= 0 IDoP0=0 IntGTp=1.
 FoFCou: FMM=F IPFlag=           0 FMFlag=      100000 FMFlg1=           0
         NFxFlg=           0 DoJE=F BraDBF=F KetDBF=F FulRan=T
         wScrn=  0.000000 ICntrl=         0 IOpCl=  0 I1Cent=           0 NGrid=           0
         NMat0=    1 NMatS0=      1 NMatT0=    0 NMatD0=    1 NMtDS0=    0 NMtDT0=    0
 Symmetry not used in FoFCou.
 LinEq1:  Iter=  0 NonCon=     1 RMS=9.14D-03 Max=1.11D-01 NDo=     1
 LinEq1:  Iter=  1 NonCon=     1 RMS=3.52D-03 Max=4.28D-02 NDo=     1
 LinEq1:  Iter=  2 NonCon=     1 RMS=1.01D-03 Max=9.29D-03 NDo=     1
 LinEq1:  Iter=  3 NonCon=     1 RMS=4.79D-04 Max=1.04D-02 NDo=     1
 LinEq1:  Iter=  4 NonCon=     1 RMS=1.54D-04 Max=1.09D-03 NDo=     1
 LinEq1:  Iter=  5 NonCon=     1 RMS=5.38D-05 Max=7.26D-04 NDo=     1
 LinEq1:  Iter=  6 NonCon=     1 RMS=1.09D-05 Max=8.42D-05 NDo=     1
 LinEq1:  Iter=  7 NonCon=     1 RMS=4.43D-06 Max=3.19D-05 NDo=     1
 LinEq1:  Iter=  8 NonCon=     1 RMS=1.12D-06 Max=1.08D-05 NDo=     1
 LinEq1:  Iter=  9 NonCon=     1 RMS=2.98D-07 Max=2.43D-06 NDo=     1
 LinEq1:  Iter= 10 NonCon=     1 RMS=6.60D-08 Max=5.85D-07 NDo=     1
 LinEq1:  Iter= 11 NonCon=     1 RMS=1.21D-08 Max=9.35D-08 NDo=     1
 LinEq1:  Iter= 12 NonCon=     1 RMS=5.05D-09 Max=4.01D-08 NDo=     1
 LinEq1:  Iter= 13 NonCon=     1 RMS=5.92D-10 Max=3.54D-09 NDo=     1
 LinEq1:  Iter= 14 NonCon=     0 RMS=7.94D-11 Max=7.82D-10 NDo=     1
 Linear equations converged to 1.000D-10 1.000D-09 after    14 iterations.
 End of Minotr F.D. properties file   721 does not exist.
 End of Minotr F.D. properties file   722 does not exist.
 End of Minotr F.D. properties file   788 does not exist.
 Leave Link 1002 at Sun May 25 03:18:16 2025, MaxMem=  3758096384 cpu:               1.2 elap:               0.3
 (Enter /apps/easybuild-2022/easybuild/software/Compiler/NVHPC/22.11-CUDA-11.7.0/Gaussian/g16c01-CUDA-11.7.0/g16/l1102.exe)
 Use density number 2.
 Symmetrizing basis deriv contribution to polar:
 IMax=3 JMax=2 DiffMx= 0.00D+00
 Leave Link 1102 at Sun May 25 03:18:16 2025, MaxMem=  3758096384 cpu:               0.0 elap:               0.0
 (Enter /apps/easybuild-2022/easybuild/software/Compiler/NVHPC/22.11-CUDA-11.7.0/Gaussian/g16c01-CUDA-11.7.0/g16/l1110.exe)
 Forming Gx(P) for generalized density number  2 NAtomX=     8.
 Integral derivatives from FoFJK, PRISM(SPDF).
 Do as many integral derivatives as possible in FoFJK.
 G2DrvN: MDV=    3758095424.
 G2DrvN: will do     9 centers at a time, making    1 passes.
 Calling FoFCou, ICntrl=  3107 FMM=F I1Cent=   0 AccDes= 0.00D+00.
 FoFJK:  IHMeth= 1 ICntrl=    3107 DoSepK=F KAlg= 0 I1Cent=           0 FoldK=F
 IRaf=         0 NMat=       1 IRICut=       1 DoRegI=T DoRafI=F ISym2E= 0 IDoP0=0 IntGTp=1.
 FoFCou: FMM=F IPFlag=           0 FMFlag=      100000 FMFlg1=           0
         NFxFlg=           0 DoJE=F BraDBF=F KetDBF=F FulRan=T
         wScrn=  0.000000 ICntrl=      3107 IOpCl=  0 I1Cent=           0 NGrid=           0
         NMat0=    1 NMatS0=      1 NMatT0=    0 NMatD0=    1 NMtDS0=    0 NMtDT0=    0
 Symmetry not used in FoFCou.
 End of G2Drv F.D. properties file   721 does not exist.
 End of G2Drv F.D. properties file   722 does not exist.
 End of G2Drv F.D. properties file   788 does not exist.
 Leave Link 1110 at Sun May 25 03:18:17 2025, MaxMem=  3758096384 cpu:               0.5 elap:               0.1
 (Enter /apps/easybuild-2022/easybuild/software/Compiler/NVHPC/22.11-CUDA-11.7.0/Gaussian/g16c01-CUDA-11.7.0/g16/l1112.exe)
 MP22nd: MDV=    3758096384
 This link is doing NAtomX=     8 total of    27 degrees of freedom.
 Using ON3 I/O method in MakUI.
 Frozen-core window:  NFC=   7 NFV=   0.
 Using Ix for Sx.
 Use MO integrals over full window.
 Using OV2 memory method for fx*t*t/D, MaxI=    28 DoOO2=F NP=   8.
 R2 and R3 integrals will be kept in memory, NReq=     5403170.
 FoFCou: FMM=F IPFlag=           0 FMFlag=           0 FMFlg1=           0
         NFxFlg=           0 DoJE=F BraDBF=F KetDBF=F FulRan=T
         wScrn=  0.000000 ICntrl=       600 IOpCl=  0 I1Cent=           0 NGrid=           0
         NMat0=    1 NMatS0=      1 NMatT0=    0 NMatD0=    1 NMtDS0=    0 NMtDT0=    0
 Symmetry not used in FoFCou.
 DD1Dir will call FoFMem   1 times, MxPair=       812
 NAB=   406 NAA=     0 NBB=     0.
 FoFJK:  IHMeth= 1 ICntrl=       0 DoSepK=F KAlg= 0 I1Cent=           0 FoldK=F
 IRaf=         0 NMat=      27 IRICut=      67 DoRegI=T DoRafI=T ISym2E= 0 IDoP0=0 IntGTp=1.
 Discarding MO integrals.
 Leave Link 1112 at Sun May 25 03:18:18 2025, MaxMem=  3758096384 cpu:               8.4 elap:               1.4
 (Enter /apps/easybuild-2022/easybuild/software/Compiler/NVHPC/22.11-CUDA-11.7.0/Gaussian/g16c01-CUDA-11.7.0/g16/l701.exe)
 ... and contract with generalized density number  2.
 Compute integral second derivatives.
 Leave Link  701 at Sun May 25 03:18:18 2025, MaxMem=  3758096384 cpu:               0.3 elap:               0.1
 (Enter /apps/easybuild-2022/easybuild/software/Compiler/NVHPC/22.11-CUDA-11.7.0/Gaussian/g16c01-CUDA-11.7.0/g16/l702.exe)
 L702 exits ... SP integral derivatives will be done elsewhere.
 Leave Link  702 at Sun May 25 03:18:18 2025, MaxMem=  3758096384 cpu:               0.0 elap:               0.0
 (Enter /apps/easybuild-2022/easybuild/software/Compiler/NVHPC/22.11-CUDA-11.7.0/Gaussian/g16c01-CUDA-11.7.0/g16/l703.exe)
 Integral derivatives from FoFJK, PRISM(SPDF).
 Compute integral second derivatives, UseDBF=F ICtDFT=           0.
 Calling FoFJK, ICntrl=  10100127 FMM=F ISym2X=0 I1Cent= 0 IOpClX= 0 NMat=1 NMatS=1 NMatT=0.
 FoFJK:  IHMeth= 1 ICntrl=10100127 DoSepK=F KAlg= 0 I1Cent=           0 FoldK=F
 IRaf=         0 NMat=       1 IRICut=       1 DoRegI=T DoRafI=F ISym2E= 0 IDoP0=0 IntGTp=1.
 FoFCou: FMM=F IPFlag=           0 FMFlag=      100000 FMFlg1=         800
         NFxFlg=           0 DoJE=F BraDBF=F KetDBF=F FulRan=T
         wScrn=  0.000000 ICntrl=  10100127 IOpCl=  0 I1Cent=           0 NGrid=           0
         NMat0=    1 NMatS0=      1 NMatT0=    0 NMatD0=    1 NMtDS0=    0 NMtDT0=    0
 Symmetry not used in FoFCou.
 Leave Link  703 at Sun May 25 03:18:18 2025, MaxMem=  3758096384 cpu:               1.3 elap:               0.2
 (Enter /apps/easybuild-2022/easybuild/software/Compiler/NVHPC/22.11-CUDA-11.7.0/Gaussian/g16c01-CUDA-11.7.0/g16/l716.exe)
 Dipole        = 9.34704666D-01-2.64115554D-01-9.91128772D-02
 Polarizability= 2.47230958D+01-2.72907541D-01 2.85728833D+01
                -4.81068813D-01 2.19663101D+00 1.71064126D+01
 -------------------------------------------------------------------
 Center     Atomic                   Forces (Hartrees/Bohr)
 Number     Number              X              Y              Z
 -------------------------------------------------------------------
      1        6          -0.066384351   -0.045103242   -0.004752017
      2        8           0.038353071    0.089248982    0.014321461
      3        6           0.064378861    0.006635880   -0.002229945
      4        9          -0.019001461   -0.026076074   -0.061765477
      5        9          -0.013014866   -0.046212065    0.050511763
      6        9          -0.036296160    0.061689693    0.012979684
      7        8           0.011617350   -0.035825751   -0.007183735
      8        1           0.020347557   -0.004357423   -0.001881735
 -------------------------------------------------------------------
 Cartesian Forces:  Max     0.089248982 RMS     0.039374977
 Force constants in Cartesian coordinates: 
                1             2             3             4             5 
      1  0.703521D+00
      2  0.154586D+00  0.115195D+01
      3 -0.195230D-03  0.171481D+00  0.203262D+00
      4 -0.217582D+00 -0.301166D+00 -0.452394D-01  0.198725D+00
      5 -0.304309D+00 -0.779026D+00 -0.120954D+00  0.327338D+00  0.890400D+00
      6 -0.458140D-01 -0.121125D+00 -0.505492D-01  0.486314D-01  0.148501D+00
      7 -0.183572D+00 -0.640252D-02  0.425503D-02 -0.940814D-02 -0.112599D-01
      8 -0.231110D-01 -0.492150D-01  0.747806D-02 -0.390631D-01 -0.289595D-01
      9  0.121045D-02  0.657761D-02 -0.819667D-01 -0.559138D-02 -0.853034D-02
     10 -0.549470D-02 -0.190471D-01 -0.415830D-01 -0.763540D-02 -0.332230D-02
     11 -0.214340D-02 -0.435356D-02 -0.219169D-01 -0.275371D-02  0.140058D-02
     12 -0.173487D-02 -0.149825D-01 -0.175907D-01 -0.556643D-02 -0.614695D-03
     13 -0.153135D-02 -0.303955D-01  0.317502D-01 -0.739899D-02 -0.185533D-02
     14 -0.119928D-03 -0.185382D-01  0.224642D-01 -0.485223D-02  0.186115D-02
     15  0.373802D-03  0.180305D-01 -0.736055D-02  0.505936D-02  0.128036D-02
     16 -0.277741D-01  0.448807D-01  0.100082D-01  0.139196D-02  0.253099D-02
     17  0.462739D-02 -0.190193D-01 -0.538289D-02 -0.370653D-02  0.678982D-02
     18  0.278194D-02 -0.750257D-02  0.786362D-02 -0.765634D-03  0.117633D-02
     19 -0.222083D+00  0.162908D+00  0.392194D-01  0.367414D-01 -0.280299D-02
     20  0.108954D+00 -0.285727D+00 -0.494571D-01  0.304487D-01 -0.928508D-01
     21  0.293215D-01 -0.523424D-01 -0.590784D-01  0.520685D-02 -0.223437D-01
     22 -0.454836D-01 -0.536368D-02  0.178476D-02  0.516620D-02 -0.632004D-02
     23  0.615160D-01  0.393170D-02 -0.371199D-02 -0.624568D-02  0.385245D-03
     24  0.140565D-01 -0.136216D-03  0.542012D-02 -0.173478D-02  0.148505D-02
                6             7             8             9            10 
      6  0.993856D-02
      7 -0.461626D-03  0.621415D+00
      8 -0.700116D-02 -0.370398D-01  0.725623D+00
      9  0.195133D-01 -0.445510D-02  0.135212D-01  0.665406D+00
     10  0.358595D-02 -0.114473D+00 -0.493133D-01 -0.111398D+00  0.897037D-01
     11  0.251263D-02 -0.540910D-01 -0.109531D+00 -0.122161D+00  0.508512D-01
     12  0.981867D-03 -0.109272D+00 -0.118545D+00 -0.316767D+00  0.124260D+00
     13 -0.368600D-02 -0.954627D-01 -0.663320D-01  0.722888D-01  0.206780D-01
     14 -0.174073D-02 -0.695320D-01 -0.215674D+00  0.170166D+00  0.446462D-02
     15  0.380074D-03  0.686224D-01  0.166155D+00 -0.229465D+00  0.217894D-02
     16  0.387919D-03 -0.195614D+00  0.166117D+00  0.372557D-01  0.195636D-01
     17  0.149575D-02  0.180638D+00 -0.303341D+00 -0.542510D-01  0.159741D-01
     18 -0.157696D-03  0.399251D-01 -0.535064D-01 -0.659642D-01  0.210479D-01
     19 -0.892165D-03 -0.225974D-01  0.443087D-01  0.946830D-02 -0.339429D-02
     20 -0.241211D-01 -0.418191D-02 -0.128108D-01 -0.272174D-02  0.104330D-02
     21  0.253822D-01  0.629678D-03 -0.536272D-02  0.227529D-02  0.119482D-02
     22 -0.175148D-02 -0.287859D-03  0.443318D-02  0.122113D-02  0.105170D-02
     23  0.147865D-02  0.186886D-02 -0.609256D-02 -0.260035D-02 -0.650524D-03
     24 -0.548905D-02  0.756930D-03 -0.273965D-02  0.696790D-02  0.713475D-03
               11            12            13            14            15 
     11  0.132458D+00
     12  0.166035D+00  0.437095D+00
     13  0.819215D-02 -0.111388D-01  0.691177D-01
     14  0.166680D-01  0.528369D-02  0.634552D-01  0.280073D+00
     15  0.304239D-01 -0.814112D-01 -0.716936D-01 -0.234656D+00  0.309804D+00
     16  0.199436D-02  0.528532D-02  0.169072D-01  0.959962D-02 -0.596406D-02
     17 -0.398858D-01 -0.400612D-01  0.262210D-01 -0.696345D-01  0.209510D-01
     18 -0.582929D-01 -0.255875D-01 -0.162507D-01  0.408254D-01  0.681307D-02
     19 -0.197218D-02 -0.182667D-02 -0.324850D-02 -0.286151D-02  0.157170D-02
     20  0.298034D-02  0.280549D-02  0.102793D-02  0.468150D-02 -0.236373D-02
     21  0.242752D-02  0.330719D-02 -0.237722D-03 -0.159464D-02  0.146451D-02
     22 -0.774619D-04 -0.593579D-05  0.938602D-03 -0.153749D-03 -0.148536D-03
     23  0.263446D-03  0.793679D-04 -0.313391D-03  0.562651D-03  0.178614D-03
     24  0.972382D-03 -0.278723D-04 -0.103219D-02 -0.747749D-03 -0.224277D-03
               16            17            18            19            20 
     16  0.198190D+00
     17 -0.225484D+00  0.420852D+00
     18 -0.477532D-01  0.766601D-01  0.763863D-01
     19 -0.122337D-01  0.133355D-02  0.937743D-03  0.703899D+00
     20 -0.108277D-02  0.439847D-02  0.678346D-03 -0.617413D-01  0.438630D+00
     21  0.506200D-03  0.572894D-03  0.101168D-02 -0.478512D-01  0.797896D-01
     22 -0.431353D-03  0.395815D-03  0.768390D-04 -0.477084D+00 -0.744683D-01
     23  0.144333D-02 -0.159635D-03 -0.383397D-04 -0.139173D+00 -0.593016D-01
     24  0.273873D-03  0.153337D-04 -0.365294D-03 -0.627102D-03 -0.460967D-02
               21            22            23            24 
     21  0.388122D-01
     22  0.112299D-01  0.516130D+00
     23 -0.114648D-02  0.815542D-01  0.604108D-01
     24 -0.131747D-01 -0.124067D-01  0.576053D-02  0.689317D-02
 FormGI is forming the generalized inverse of G from B-inverse, IUseBI=4.
 Force constants in internal coordinates: 
                1             2             3             4             5 
      1  0.104416D+01
      2  0.283869D-01  0.285101D+00
      3  0.722515D-01  0.141959D-01  0.539268D+00
      4  0.349725D-02  0.179325D-01  0.569479D-02  0.549267D+00
      5  0.349450D-02  0.179698D-01  0.568161D-02  0.504695D-01  0.549118D+00
      6  0.281204D-02  0.161900D-01  0.138348D-02  0.507869D-01  0.507924D-01
      7 -0.440653D-02 -0.238953D-02  0.700454D-02 -0.250778D-03 -0.236329D-03
      8  0.143104D-01  0.138353D-01 -0.475853D-01  0.109646D-01  0.108564D-01
      9  0.385356D-01 -0.398914D-01  0.157555D-01 -0.591425D-02 -0.592088D-02
     10 -0.528460D-01  0.260561D-01  0.318298D-01 -0.504921D-02 -0.493664D-02
     11  0.870682D-02  0.151832D-01 -0.178066D-02  0.179617D-01 -0.298549D-01
     12  0.855875D-02  0.150210D-01 -0.173335D-02 -0.298587D-01  0.179859D-01
     13 -0.134435D-01  0.337696D-01  0.143293D-01 -0.310648D-01 -0.310404D-01
     14 -0.270403D-02 -0.170954D-01 -0.318596D-02  0.238134D-01  0.237982D-01
     15 -0.577907D-03 -0.244597D-01 -0.400853D-02  0.254678D-01 -0.492488D-02
     16 -0.562664D-03 -0.243614D-01 -0.400659D-02 -0.491855D-02  0.254564D-01
     17  0.144685D-02  0.128623D-02  0.635248D-01  0.519585D-04  0.564070D-04
     18 -0.378536D-02  0.104436D-02  0.307596D-02 -0.666708D-03 -0.213146D-01
     19  0.380033D-02 -0.101720D-02 -0.310073D-02  0.213170D-01  0.680376D-03
     20 -0.275609D-04  0.997870D-05  0.000000D+00 -0.239746D-01  0.240098D-01
     21 -0.377608D-02  0.999297D-03  0.308438D-02  0.293059D-02 -0.249287D-01
     22  0.380961D-02 -0.106227D-02 -0.309231D-02  0.249143D-01 -0.293370D-02
     23 -0.182811D-04 -0.350865D-04  0.806207D-05 -0.203773D-01  0.203957D-01
     24  0.346585D-05  0.000000D+00 -0.352947D-05  0.138836D-02 -0.139182D-02
     25  0.000000D+00  0.334768D-04  0.179724D-05 -0.235887D-02  0.236530D-02
                6             7             8             9            10 
      6  0.577242D+00
      7  0.351360D-03  0.528793D+00
      8 -0.148831D-01  0.214343D-02  0.166587D+00
      9 -0.275907D-02 -0.106310D-01 -0.991649D-01  0.206255D+00
     10  0.176421D-01  0.848757D-02 -0.674217D-01 -0.107090D+00  0.174511D+00
     11 -0.310895D-01 -0.126653D-02  0.765467D-02 -0.562426D-02 -0.202865D-02
     12 -0.310742D-01 -0.125380D-02  0.762869D-02 -0.547611D-02 -0.215437D-02
     13  0.173803D-01  0.422146D-03 -0.418854D-02 -0.100798D-01  0.142683D-01
     14 -0.402763D-02  0.812835D-03 -0.662565D-02  0.592570D-02  0.699950D-03
     15  0.249187D-01  0.672625D-03 -0.237772D-02  0.797525D-02 -0.559779D-02
     16  0.249177D-01  0.667549D-03 -0.237846D-02  0.791632D-02 -0.553760D-02
     17  0.187163D-02  0.437239D-01  0.122682D-02 -0.304718D-01  0.292450D-01
     18  0.221706D-01  0.293619D-03 -0.698439D-03 -0.176898D-03  0.872155D-03
     19 -0.222070D-01 -0.295258D-03  0.768861D-03  0.138050D-03 -0.910100D-03
     20 -0.175341D-04  0.000000D+00  0.264653D-04 -0.453142D-05 -0.259416D-04
     21  0.221823D-01  0.291893D-03 -0.700310D-03 -0.131172D-03  0.835899D-03
     22 -0.221953D-01 -0.296984D-03  0.766990D-03  0.183775D-03 -0.946356D-03
     23 -0.579794D-05 -0.157289D-05  0.245945D-04  0.411939D-04 -0.621975D-04
     24  0.431033D-05  0.143016D-05  0.216764D-04 -0.191379D-04  0.106681D-05
     25 -0.536590D-05  0.000000D+00 -0.363887D-04  0.479781D-05  0.272889D-04
               11            12            13            14            15 
     11  0.198189D+00
     12  0.112097D-01  0.197838D+00
     13 -0.816139D-02 -0.794541D-02  0.231122D+00
     14 -0.948369D-01 -0.947985D-01 -0.184453D-01  0.149129D+00
     15 -0.925072D-01 -0.194404D-01 -0.101861D+00  0.325550D-01  0.152137D+00
     16 -0.194431D-01 -0.923916D-01 -0.101839D+00  0.325160D-01  0.354227D-01
     17 -0.282342D-02 -0.276297D-02  0.520329D-02  0.568290D-03 -0.949726D-04
     18 -0.710135D-02 -0.784447D-02  0.165254D-01 -0.323949D-01  0.324039D-01
     19  0.794650D-02  0.707626D-02 -0.165501D-01  0.323733D-01  0.185562D-02
     20 -0.142887D-01  0.142569D-01  0.195263D-05  0.369502D-05 -0.319807D-01
     21 -0.134804D-02 -0.136708D-01  0.165568D-01 -0.323744D-01  0.315738D-01
     22  0.136998D-01  0.124996D-02 -0.165187D-01  0.323938D-01  0.102553D-02
     23 -0.853538D-02  0.843064D-02  0.333682D-04  0.241864D-04 -0.328108D-01
     24  0.106663D-02 -0.107312D-02  0.230985D-05  0.271680D-05 -0.351870D-03
     25 -0.492342D-02  0.498689D-02 -0.319300D-04 -0.157383D-04  0.514392D-03
               16            17            18            19            20 
     16  0.152059D+00
     17 -0.111808D-03  0.199637D+00
     18 -0.187955D-02  0.141866D-02  0.367419D-01
     19 -0.324234D-01 -0.141592D-02 -0.128949D-01  0.367636D-01
     20  0.320215D-01  0.905166D-05 -0.966836D-02 -0.968023D-02  0.393623D-01
     21 -0.102849D-02  0.142003D-02  0.263695D-01 -0.232896D-01 -0.227326D-01
     22 -0.315723D-01 -0.141455D-02 -0.232673D-01  0.263689D-01 -0.227445D-01
     23  0.328725D-01  0.104278D-04 -0.200408D-01 -0.200750D-01  0.262980D-01
     24  0.353303D-03  0.122423D-04 -0.555271D-02 -0.555372D-02 -0.580294D-02
     25 -0.529896D-03  0.313711D-05  0.524117D-02  0.526313D-02  0.779204D-02
               21            22            23            24            25 
     21  0.407668D-01
     22 -0.889226D-02  0.407439D-01
     23 -0.833529D-02 -0.836949D-02  0.380035D-01
     24  0.619982D-02  0.619880D-02  0.594958D-02  0.159160D-01
     25 -0.878227D-02 -0.876031D-02 -0.623140D-02  0.368603D-02  0.182792D-01
 Leave Link  716 at Sun May 25 03:18:18 2025, MaxMem=  3758096384 cpu:               0.0 elap:               0.0
 (Enter /apps/easybuild-2022/easybuild/software/Compiler/NVHPC/22.11-CUDA-11.7.0/Gaussian/g16c01-CUDA-11.7.0/g16/l103.exe)

 GradGradGradGradGradGradGradGradGradGradGradGradGradGradGradGradGradGrad
 Berny optimization.
 Red2BG is reusing G-inverse.
 Internal  Forces:  Max     0.098174880 RMS     0.033473555
 Search for a local minimum.
 Step number   1 out of a maximum of   35
 All quantities printed in internal units (Hartrees-Bohrs-Radians)
 RMS Force = .33474D-01 SwitMx=.10000D-02 MixMth= 1
 Mixed Optimization -- RFO/linear search
 Second derivative matrix not updated -- analytic derivatives used.
 ITU=  0
     Eigenvalues ---    0.00110   0.02059   0.04996   0.14312   0.15933
     Eigenvalues ---    0.16976   0.21858   0.23795   0.23916   0.27418
     Eigenvalues ---    0.32480   0.44448   0.51677   0.52647   0.53586
     Eigenvalues ---    0.56624   0.67764   1.06102
 RFO step:  Lambda=-3.50429710D-02 EMin= 1.09560617D-03
 Linear search not attempted -- first point.
 Iteration  1 RMS(Cart)=  0.04885983 RMS(Int)=  0.00037078
 Iteration  2 RMS(Cart)=  0.00038285 RMS(Int)=  0.00001521
 Iteration  3 RMS(Cart)=  0.00000021 RMS(Int)=  0.00001521
 ITry= 1 IFail=0 DXMaxC= 1.08D-01 DCOld= 1.00D+10 DXMaxT= 3.00D-01 DXLimC= 3.00D+00 Rises=F
 Variable       Old X    -DE/DX   Delta X   Delta X   Delta X     New X
                                 (Linear)    (Quad)   (Total)
    R1        2.24500   0.09817   0.00000   0.08495   0.08495   2.32994
    R2        2.91757   0.00465   0.00000  -0.01564  -0.01564   2.90192
    R3        2.51108   0.05180   0.00000   0.07456   0.07456   2.58565
    R4        2.51437   0.06967   0.00000   0.10057   0.10057   2.61494
    R5        2.51451   0.06968   0.00000   0.10059   0.10059   2.61510
    R6        2.49320   0.07271   0.00000   0.10419   0.10419   2.59739
    R7        1.82754   0.01883   0.00000   0.02969   0.02969   1.85723
    A1        2.15475   0.00317   0.00000   0.01685   0.01685   2.17160
    A2        2.21142  -0.00081   0.00000  -0.00767  -0.00767   2.20375
    A3        1.91701  -0.00236   0.00000  -0.00918  -0.00918   1.90783
    A4        1.92439  -0.00097   0.00000   0.00794   0.00791   1.93230
    A5        1.92400  -0.00099   0.00000   0.00787   0.00784   1.93184
    A6        1.92583  -0.00379   0.00000   0.00016   0.00016   1.92598
    A7        1.89097   0.00199   0.00000  -0.00294  -0.00299   1.88798
    A8        1.89904   0.00197   0.00000  -0.00676  -0.00676   1.89228
    A9        1.89893   0.00199   0.00000  -0.00668  -0.00668   1.89225
   A10        1.89248   0.01654   0.00000   0.04375   0.04375   1.93623
    D1        2.10242  -0.00061   0.00000  -0.00325  -0.00327   2.09915
    D2       -2.09370   0.00061   0.00000   0.00311   0.00313  -2.09057
    D3        0.00417   0.00001   0.00000  -0.00004  -0.00004   0.00413
    D4       -1.03948  -0.00063   0.00000  -0.00342  -0.00344  -1.04292
    D5        1.04758   0.00059   0.00000   0.00295   0.00297   1.05055
    D6       -3.13774  -0.00001   0.00000  -0.00020  -0.00020  -3.13794
    D7       -0.00005  -0.00000   0.00000   0.00001   0.00001  -0.00004
    D8       -3.14132   0.00001   0.00000   0.00018   0.00018  -3.14114
         Item               Value     Threshold  Converged?
 Maximum Force            0.098175     0.000450     NO 
 RMS     Force            0.033474     0.000300     NO 
 Maximum Displacement     0.108100     0.001800     NO 
 RMS     Displacement     0.048909     0.001200     NO 
 Predicted change in Energy=-1.835543D-02
 Lowest energy point so far.  Saving SCF results.
 GradGradGradGradGradGradGradGradGradGradGradGradGradGradGradGradGradGrad

 Leave Link  103 at Sun May 25 03:18:18 2025, MaxMem=  3758096384 cpu:               0.0 elap:               0.0
 (Enter /apps/easybuild-2022/easybuild/software/Compiler/NVHPC/22.11-CUDA-11.7.0/Gaussian/g16c01-CUDA-11.7.0/g16/l202.exe)
                          Input orientation:                          
 ---------------------------------------------------------------------
 Center     Atomic      Atomic             Coordinates (Angstroms)
 Number     Number       Type             X           Y           Z
 ---------------------------------------------------------------------
      1          6           0        0.569707    0.327836    0.029187
      2          8           0        1.035898    1.454695    0.210927
      3          6           0       -0.929282   -0.005037    0.048921
      4          9           0       -1.328822   -0.535568   -1.165046
      5          9           0       -1.211526   -0.930555    1.038265
      6          9           0       -1.667530    1.128698    0.291470
      7          8           0        1.283343   -0.813086   -0.218142
      8          1           0        2.248211   -0.626984   -0.235583
 ---------------------------------------------------------------------
                    Distance matrix (angstroms):
                    1          2          3          4          5
     1  C    0.000000
     2  O    1.232954   0.000000
     3  C    1.535631   2.453364   0.000000
     4  F    2.403346   3.383245   1.383767   0.000000
     5  F    2.403035   3.380062   1.383852   2.241506   0.000000
     6  F    2.390691   2.724203   1.374480   2.237396   2.237446
     7  O    1.368265   2.321241   2.370649   2.792320   2.795841
     8  H    1.949143   2.449993   3.250266   3.696948   3.699273
                    6          7          8
     6  F    0.000000
     7  O    3.569017   0.000000
     8  H    4.323567   0.982806   0.000000
 Symmetry turned off by external request.
 Stoichiometry    C2HF3O2
 Rotational constants (GHZ):           3.6228975           2.4207819           1.9990622
 Leave Link  202 at Sun May 25 03:18:18 2025, MaxMem=  3758096384 cpu:               0.0 elap:               0.0
 (Enter /apps/easybuild-2022/easybuild/software/Compiler/NVHPC/22.11-CUDA-11.7.0/Gaussian/g16c01-CUDA-11.7.0/g16/l301.exe)
 Standard basis: 6-31G (6D, 7F)
 Ernie: Thresh=  0.10000D-02 Tol=  0.10000D-05 Strict=F.
    65 basis functions,   158 primitive gaussians,    65 cartesian basis functions
    28 alpha electrons       28 beta electrons
       nuclear repulsion energy       329.2769634347 Hartrees.
 IExCor=    0 DFT=F Ex=HF Corr=None ExCW=0 ScaHFX=  1.000000
 ScaDFX=  1.000000  1.000000  1.000000  1.000000 ScalE2=  1.000000  1.000000
 IRadAn=      5 IRanWt=     -1 IRanGd=            0 ICorTp=0 IEmpDi=  4
 NAtoms=    8 NActive=    8 NUniq=    8 SFac= 1.00D+00 NAtFMM=   60 NAOKFM=F Big=F
 Integral buffers will be    131072 words long.
 Raffenetti 1 integral format.
 Two-electron integral symmetry is turned off.
 Leave Link  301 at Sun May 25 03:18:18 2025, MaxMem=  3758096384 cpu:               0.0 elap:               0.0
 (Enter /apps/easybuild-2022/easybuild/software/Compiler/NVHPC/22.11-CUDA-11.7.0/Gaussian/g16c01-CUDA-11.7.0/g16/l302.exe)
 NPDir=0 NMtPBC=     1 NCelOv=     1 NCel=       1 NClECP=     1 NCelD=      1
         NCelK=      1 NCelE2=     1 NClLst=     1 CellRange=     0.0.
 One-electron integrals computed using PRISM.
 NBasis=    65 RedAO= T EigKep=  5.73D-03  NBF=    65
 NBsUse=    65 1.00D-06 EigRej= -1.00D+00 NBFU=    65
 Leave Link  302 at Sun May 25 03:18:18 2025, MaxMem=  3758096384 cpu:               0.2 elap:               0.1
 (Enter /apps/easybuild-2022/easybuild/software/Compiler/NVHPC/22.11-CUDA-11.7.0/Gaussian/g16c01-CUDA-11.7.0/g16/l303.exe)
 DipDrv:  MaxL=1.
 Leave Link  303 at Sun May 25 03:18:18 2025, MaxMem=  3758096384 cpu:               0.0 elap:               0.0
 (Enter /apps/easybuild-2022/easybuild/software/Compiler/NVHPC/22.11-CUDA-11.7.0/Gaussian/g16c01-CUDA-11.7.0/g16/l401.exe)
 Initial guess from the checkpoint file:  "1141903082400600000001_well_mp2.chk"
 B after Tr=    -0.010424    0.012729    0.002840
         Rot=    0.999996   -0.000152    0.000471   -0.002654 Ang=  -0.31 deg.
 Guess basis will be translated and rotated to current coordinates.
 JPrj=2 DoOrth=T DoCkMO=T.
 Generating alternative initial guess.
 ExpMin= 1.61D-01 ExpMax= 7.00D+03 ExpMxC= 1.05D+03 IAcc=3 IRadAn=         5 AccDes= 0.00D+00
 Harris functional with IExCor=  205 and IRadAn=       5 diagonalized for initial guess.
 HarFok:  IExCor=  205 AccDes= 0.00D+00 IRadAn=         5 IDoV= 1 UseB2=F ITyADJ=14
 ICtDFT=  3500011 ScaDFX=  1.000000  1.000000  1.000000  1.000000
 FoFCou: FMM=F IPFlag=           0 FMFlag=      100000 FMFlg1=           0
         NFxFlg=           0 DoJE=T BraDBF=F KetDBF=T FulRan=T
         wScrn=  0.000000 ICntrl=       500 IOpCl=  0 I1Cent=   200000004 NGrid=           0
         NMat0=    1 NMatS0=      1 NMatT0=    0 NMatD0=    1 NMtDS0=    0 NMtDT0=    0
 Symmetry not used in FoFCou.
 Harris En= -524.246429880434    
 Leave Link  401 at Sun May 25 03:18:19 2025, MaxMem=  3758096384 cpu:               0.6 elap:               0.1
 (Enter /apps/easybuild-2022/easybuild/software/Compiler/NVHPC/22.11-CUDA-11.7.0/Gaussian/g16c01-CUDA-11.7.0/g16/l502.exe)
 Keep R1 ints in memory in canonical form, NReq=3942044.
 FoFCou: FMM=F IPFlag=           0 FMFlag=           0 FMFlg1=           0
         NFxFlg=           0 DoJE=F BraDBF=F KetDBF=F FulRan=T
         wScrn=  0.000000 ICntrl=       600 IOpCl=  0 I1Cent=           0 NGrid=           0
         NMat0=    1 NMatS0=   2145 NMatT0=    0 NMatD0=    1 NMtDS0=    0 NMtDT0=    0
 Symmetry not used in FoFCou.
 Two-electron integral symmetry not used.
 Closed shell SCF:
 Using DIIS extrapolation, IDIIS=  1040.
 NGot=  3758096384 LenX=  3755784906 LenY=  3755780240
 Requested convergence on RMS density matrix=1.00D-08 within  32 cycles.
 Requested convergence on MAX density matrix=1.00D-06.
 Requested convergence on             energy=1.00D-06.
 No special actions if energy rises.

 Cycle   1  Pass 1  IDiag  1:
 E= -524.144895402492    
 DIIS: error= 6.93D-03 at cycle   1 NSaved=   1.
 NSaved= 1 IEnMin= 1 EnMin= -524.144895402492     IErMin= 1 ErrMin= 6.93D-03
 ErrMax= 6.93D-03  0.00D+00 EMaxC= 1.00D-01 BMatC= 6.19D-03 BMatP= 6.19D-03
 IDIUse=3 WtCom= 9.31D-01 WtEn= 6.93D-02
 Coeff-Com:  0.100D+01
 Coeff-En:   0.100D+01
 Coeff:      0.100D+01
 Gap=     1.256 Goal=   None    Shift=    0.000
 GapD=    1.256 DampG=2.000 DampE=1.000 DampFc=2.0000 IDamp=-1.
 RMSDP=1.53D-03 MaxDP=1.34D-02              OVMax= 1.18D-02

 Cycle   2  Pass 1  IDiag  1:
 E= -524.151375964210     Delta-E=       -0.006480561718 Rises=F Damp=F
 DIIS: error= 1.73D-03 at cycle   2 NSaved=   2.
 NSaved= 2 IEnMin= 2 EnMin= -524.151375964210     IErMin= 2 ErrMin= 1.73D-03
 ErrMax= 1.73D-03  0.00D+00 EMaxC= 1.00D-01 BMatC= 3.74D-04 BMatP= 6.19D-03
 IDIUse=3 WtCom= 9.83D-01 WtEn= 1.73D-02
 Coeff-Com: -0.499D-01 0.105D+01
 Coeff-En:   0.000D+00 0.100D+01
 Coeff:     -0.490D-01 0.105D+01
 Gap=     0.597 Goal=   None    Shift=    0.000
 RMSDP=4.42D-04 MaxDP=3.69D-03 DE=-6.48D-03 OVMax= 3.53D-03

 Cycle   3  Pass 1  IDiag  1:
 E= -524.151863060725     Delta-E=       -0.000487096515 Rises=F Damp=F
 DIIS: error= 6.36D-04 at cycle   3 NSaved=   3.
 NSaved= 3 IEnMin= 3 EnMin= -524.151863060725     IErMin= 3 ErrMin= 6.36D-04
 ErrMax= 6.36D-04  0.00D+00 EMaxC= 1.00D-01 BMatC= 4.96D-05 BMatP= 3.74D-04
 IDIUse=3 WtCom= 9.94D-01 WtEn= 6.36D-03
 Coeff-Com: -0.673D-01 0.134D+00 0.933D+00
 Coeff-En:   0.000D+00 0.000D+00 0.100D+01
 Coeff:     -0.669D-01 0.133D+00 0.934D+00
 Gap=     0.596 Goal=   None    Shift=    0.000
 RMSDP=1.49D-04 MaxDP=1.59D-03 DE=-4.87D-04 OVMax= 1.41D-03

 Cycle   4  Pass 1  IDiag  1:
 E= -524.151922907768     Delta-E=       -0.000059847043 Rises=F Damp=F
 DIIS: error= 2.91D-04 at cycle   4 NSaved=   4.
 NSaved= 4 IEnMin= 4 EnMin= -524.151922907768     IErMin= 4 ErrMin= 2.91D-04
 ErrMax= 2.91D-04  0.00D+00 EMaxC= 1.00D-01 BMatC= 5.80D-06 BMatP= 4.96D-05
 IDIUse=3 WtCom= 9.97D-01 WtEn= 2.91D-03
 Coeff-Com: -0.107D-01-0.451D-01 0.188D+00 0.868D+00
 Coeff-En:   0.000D+00 0.000D+00 0.000D+00 0.100D+01
 Coeff:     -0.106D-01-0.450D-01 0.187D+00 0.868D+00
 Gap=     0.597 Goal=   None    Shift=    0.000
 RMSDP=6.50D-05 MaxDP=6.54D-04 DE=-5.98D-05 OVMax= 8.05D-04

 Cycle   5  Pass 1  IDiag  1:
 E= -524.151930760704     Delta-E=       -0.000007852936 Rises=F Damp=F
 DIIS: error= 1.04D-04 at cycle   5 NSaved=   5.
 NSaved= 5 IEnMin= 5 EnMin= -524.151930760704     IErMin= 5 ErrMin= 1.04D-04
 ErrMax= 1.04D-04  0.00D+00 EMaxC= 1.00D-01 BMatC= 8.42D-07 BMatP= 5.80D-06
 IDIUse=3 WtCom= 9.99D-01 WtEn= 1.04D-03
 Coeff-Com:  0.927D-02-0.216D-01-0.140D+00 0.123D+00 0.103D+01
 Coeff-En:   0.000D+00 0.000D+00 0.000D+00 0.000D+00 0.100D+01
 Coeff:      0.926D-02-0.216D-01-0.140D+00 0.122D+00 0.103D+01
 Gap=     0.597 Goal=   None    Shift=    0.000
 RMSDP=2.59D-05 MaxDP=2.51D-04 DE=-7.85D-06 OVMax= 3.50D-04

 Cycle   6  Pass 1  IDiag  1:
 E= -524.151932097656     Delta-E=       -0.000001336952 Rises=F Damp=F
 DIIS: error= 5.29D-05 at cycle   6 NSaved=   6.
 NSaved= 6 IEnMin= 6 EnMin= -524.151932097656     IErMin= 6 ErrMin= 5.29D-05
 ErrMax= 5.29D-05  0.00D+00 EMaxC= 1.00D-01 BMatC= 8.99D-08 BMatP= 8.42D-07
 IDIUse=1 WtCom= 1.00D+00 WtEn= 0.00D+00
 Coeff-Com:  0.377D-02-0.405D-02-0.592D-01-0.134D-01 0.317D+00 0.756D+00
 Coeff:      0.377D-02-0.405D-02-0.592D-01-0.134D-01 0.317D+00 0.756D+00
 Gap=     0.597 Goal=   None    Shift=    0.000
 RMSDP=6.47D-06 MaxDP=8.72D-05 DE=-1.34D-06 OVMax= 1.12D-04

 Cycle   7  Pass 1  IDiag  1:
 E= -524.151932202000     Delta-E=       -0.000000104344 Rises=F Damp=F
 DIIS: error= 1.91D-05 at cycle   7 NSaved=   7.
 NSaved= 7 IEnMin= 7 EnMin= -524.151932202000     IErMin= 7 ErrMin= 1.91D-05
 ErrMax= 1.91D-05  0.00D+00 EMaxC= 1.00D-01 BMatC= 9.02D-09 BMatP= 8.99D-08
 IDIUse=1 WtCom= 1.00D+00 WtEn= 0.00D+00
 Coeff-Com: -0.112D-02 0.306D-02 0.168D-01-0.200D-01-0.151D+00 0.995D-01
 Coeff-Com:  0.105D+01
 Coeff:     -0.112D-02 0.306D-02 0.168D-01-0.200D-01-0.151D+00 0.995D-01
 Coeff:      0.105D+01
 Gap=     0.597 Goal=   None    Shift=    0.000
 RMSDP=2.51D-06 MaxDP=3.98D-05 DE=-1.04D-07 OVMax= 5.36D-05

 Cycle   8  Pass 1  IDiag  1:
 E= -524.151932218159     Delta-E=       -0.000000016159 Rises=F Damp=F
 DIIS: error= 3.12D-06 at cycle   8 NSaved=   8.
 NSaved= 8 IEnMin= 8 EnMin= -524.151932218159     IErMin= 8 ErrMin= 3.12D-06
 ErrMax= 3.12D-06  0.00D+00 EMaxC= 1.00D-01 BMatC= 3.12D-10 BMatP= 9.02D-09
 IDIUse=1 WtCom= 1.00D+00 WtEn= 0.00D+00
 Coeff-Com:  0.988D-04-0.499D-03-0.141D-02 0.547D-02 0.193D-01-0.591D-01
 Coeff-Com: -0.197D+00 0.123D+01
 Coeff:      0.988D-04-0.499D-03-0.141D-02 0.547D-02 0.193D-01-0.591D-01
 Coeff:     -0.197D+00 0.123D+01
 Gap=     0.597 Goal=   None    Shift=    0.000
 RMSDP=6.16D-07 MaxDP=8.89D-06 DE=-1.62D-08 OVMax= 1.22D-05

 Cycle   9  Pass 1  IDiag  1:
 E= -524.151932219072     Delta-E=       -0.000000000913 Rises=F Damp=F
 DIIS: error= 9.39D-07 at cycle   9 NSaved=   9.
 NSaved= 9 IEnMin= 9 EnMin= -524.151932219072     IErMin= 9 ErrMin= 9.39D-07
 ErrMax= 9.39D-07  0.00D+00 EMaxC= 1.00D-01 BMatC= 4.39D-11 BMatP= 3.12D-10
 IDIUse=1 WtCom= 1.00D+00 WtEn= 0.00D+00
 Coeff-Com:  0.119D-03-0.357D-03-0.172D-02 0.237D-02 0.168D-01-0.190D-01
 Coeff-Com: -0.108D+00 0.694D-01 0.104D+01
 Coeff:      0.119D-03-0.357D-03-0.172D-02 0.237D-02 0.168D-01-0.190D-01
 Coeff:     -0.108D+00 0.694D-01 0.104D+01
 Gap=     0.597 Goal=   None    Shift=    0.000
 RMSDP=2.02D-07 MaxDP=2.90D-06 DE=-9.13D-10 OVMax= 5.09D-06

 Cycle  10  Pass 1  IDiag  1:
 E= -524.151932219181     Delta-E=       -0.000000000109 Rises=F Damp=F
 DIIS: error= 3.94D-07 at cycle  10 NSaved=  10.
 NSaved=10 IEnMin=10 EnMin= -524.151932219181     IErMin=10 ErrMin= 3.94D-07
 ErrMax= 3.94D-07  0.00D+00 EMaxC= 1.00D-01 BMatC= 7.47D-12 BMatP= 4.39D-11
 IDIUse=1 WtCom= 1.00D+00 WtEn= 0.00D+00
 Coeff-Com: -0.989D-05 0.587D-04 0.157D-03-0.833D-03-0.159D-02 0.523D-02
 Coeff-Com:  0.280D-01-0.173D+00 0.568D-01 0.108D+01
 Coeff:     -0.989D-05 0.587D-04 0.157D-03-0.833D-03-0.159D-02 0.523D-02
 Coeff:      0.280D-01-0.173D+00 0.568D-01 0.108D+01
 Gap=     0.597 Goal=   None    Shift=    0.000
 RMSDP=8.54D-08 MaxDP=1.09D-06 DE=-1.09D-10 OVMax= 2.31D-06

 Cycle  11  Pass 1  IDiag  1:
 E= -524.151932219190     Delta-E=       -0.000000000008 Rises=F Damp=F
 DIIS: error= 1.35D-07 at cycle  11 NSaved=  11.
 NSaved=11 IEnMin=11 EnMin= -524.151932219190     IErMin=11 ErrMin= 1.35D-07
 ErrMax= 1.35D-07  0.00D+00 EMaxC= 1.00D-01 BMatC= 1.12D-12 BMatP= 7.47D-12
 IDIUse=1 WtCom= 1.00D+00 WtEn= 0.00D+00
 Coeff-Com: -0.170D-04 0.557D-04 0.250D-03-0.523D-03-0.222D-02 0.255D-02
 Coeff-Com:  0.198D-01-0.362D-01-0.129D+00 0.164D+00 0.982D+00
 Coeff:     -0.170D-04 0.557D-04 0.250D-03-0.523D-03-0.222D-02 0.255D-02
 Coeff:      0.198D-01-0.362D-01-0.129D+00 0.164D+00 0.982D+00
 Gap=     0.597 Goal=   None    Shift=    0.000
 RMSDP=3.25D-08 MaxDP=3.90D-07 DE=-8.41D-12 OVMax= 8.98D-07

 Cycle  12  Pass 1  IDiag  1:
 E= -524.151932219200     Delta-E=       -0.000000000010 Rises=F Damp=F
 DIIS: error= 4.90D-08 at cycle  12 NSaved=  12.
 NSaved=12 IEnMin=12 EnMin= -524.151932219200     IErMin=12 ErrMin= 4.90D-08
 ErrMax= 4.90D-08  0.00D+00 EMaxC= 1.00D-01 BMatC= 1.61D-13 BMatP= 1.12D-12
 IDIUse=1 WtCom= 1.00D+00 WtEn= 0.00D+00
 Coeff-Com:  0.771D-05-0.267D-04-0.117D-03 0.261D-03 0.123D-02-0.222D-02
 Coeff-Com: -0.108D-01 0.403D-01 0.367D-01-0.233D+00-0.336D+00 0.150D+01
 Coeff:      0.771D-05-0.267D-04-0.117D-03 0.261D-03 0.123D-02-0.222D-02
 Coeff:     -0.108D-01 0.403D-01 0.367D-01-0.233D+00-0.336D+00 0.150D+01
 Gap=     0.597 Goal=   None    Shift=    0.000
 RMSDP=2.04D-08 MaxDP=2.90D-07 DE=-1.00D-11 OVMax= 5.14D-07

 Cycle  13  Pass 1  IDiag  1:
 E= -524.151932219187     Delta-E=        0.000000000013 Rises=F Damp=F
 DIIS: error= 1.05D-08 at cycle  13 NSaved=  13.
 NSaved=13 IEnMin=12 EnMin= -524.151932219200     IErMin=13 ErrMin= 1.05D-08
 ErrMax= 1.05D-08  0.00D+00 EMaxC= 1.00D-01 BMatC= 8.58D-15 BMatP= 1.61D-13
 IDIUse=1 WtCom= 1.00D+00 WtEn= 0.00D+00
 Coeff-Com: -0.164D-05 0.616D-05 0.258D-04-0.681D-04-0.271D-03 0.557D-03
 Coeff-Com:  0.278D-02-0.122D-01-0.663D-02 0.769D-01 0.621D-01-0.598D+00
 Coeff-Com:  0.147D+01
 Coeff:     -0.164D-05 0.616D-05 0.258D-04-0.681D-04-0.271D-03 0.557D-03
 Coeff:      0.278D-02-0.122D-01-0.663D-02 0.769D-01 0.621D-01-0.598D+00
 Coeff:      0.147D+01
 Gap=     0.597 Goal=   None    Shift=    0.000
 RMSDP=5.65D-09 MaxDP=7.27D-08 DE= 1.27D-11 OVMax= 1.20D-07

 SCF Done:  E(RHF) =  -524.151932219     A.U. after   13 cycles
            NFock= 13  Conv=0.57D-08     -V/T= 2.0011
 KE= 5.235905440607D+02 PE=-1.903668481003D+03 EE= 5.266490412881D+02
 Leave Link  502 at Sun May 25 03:18:19 2025, MaxMem=  3758096384 cpu:               0.5 elap:               0.1
 (Enter /apps/easybuild-2022/easybuild/software/Compiler/NVHPC/22.11-CUDA-11.7.0/Gaussian/g16c01-CUDA-11.7.0/g16/l508.exe)
 QCSCF skips out because SCF is already converged.
 Leave Link  508 at Sun May 25 03:18:19 2025, MaxMem=  3758096384 cpu:               0.0 elap:               0.0
 (Enter /apps/easybuild-2022/easybuild/software/Compiler/NVHPC/22.11-CUDA-11.7.0/Gaussian/g16c01-CUDA-11.7.0/g16/l801.exe)
 ExpMin= 1.61D-01 ExpMax= 7.00D+03 ExpMxC= 1.05D+03 IAcc=3 IRadAn=         5 AccDes= 0.00D+00
 HarFok:  IExCor=  205 AccDes= 0.00D+00 IRadAn=         5 IDoV=-2 UseB2=F ITyADJ=14
 ICtDFT= 12500011 ScaDFX=  1.000000  1.000000  1.000000  1.000000
 Largest valence mixing into a core orbital is  1.19D-04
 Largest core mixing into a valence orbital is  5.77D-05
 Range of M.O.s used for correlation:     8    65
 NBasis=    65 NAE=    28 NBE=    28 NFC=     7 NFV=     0
 NROrb=     58 NOA=    21 NOB=    21 NVA=    37 NVB=    37
 Leave Link  801 at Sun May 25 03:18:19 2025, MaxMem=  3758096384 cpu:               0.1 elap:               0.0
 (Enter /apps/easybuild-2022/easybuild/software/Compiler/NVHPC/22.11-CUDA-11.7.0/Gaussian/g16c01-CUDA-11.7.0/g16/l906.exe)
 Frozen-core derivative calculation, NFC=   7 NFV=   0.
 FulOut=F Deriv=T AODrv=T NAtomX=     8
   MMem=        3300  MDisk=          21 MDiskD=          21
  W3Min=      118300 MinDsk=      206065 NBas6D=          65
 NBas2D=        2229    NTT=        2145    LW2=     2000000
    MDV=  3758032726 MDiskM=      601928 NBas2p=        2189
 Fully direct method using O(ONN) memory.
 IMap=   1   2   3   4   5   6   7   8   9  10  11  12  13  14  15  16  17  18  19  20
 IMap=  21  22  23  24  25  26  27  28
 JobTyp=1 Pass  1:  I=   8 to  28 NPSUse=  8 ParTrn=T ParDer=T DoDerP=T.
 Spin components of T(2) and E(2):
     alpha-alpha T2 =       0.3295428801D-01 E2=     -0.1077195215D+00
     alpha-beta  T2 =       0.1803390185D+00 E2=     -0.5869456038D+00
     beta-beta   T2 =       0.3295428801D-01 E2=     -0.1077195215D+00
 The integrals were generated   1 times.
 ANorm=    0.1116354601D+01
 E2 =    -0.8023846468D+00 EUMP2 =    -0.52495431686596D+03
 Leave Link  906 at Sun May 25 03:18:19 2025, MaxMem=  3758096384 cpu:               1.6 elap:               0.2
 (Enter /apps/easybuild-2022/easybuild/software/Compiler/NVHPC/22.11-CUDA-11.7.0/Gaussian/g16c01-CUDA-11.7.0/g16/l1002.exe)
 Minotr:  Closed shell wavefunction.
          Computing MP2/KS-MP2 derivatives.
          Using Z-Vector for PSCF gradient.
          Skipping F1 and S1 gradient terms here.
          IDoAtm=11111111
          Frozen-core window.
          Direct CPHF calculation.
          Differentiating once with respect to electric field.
                with respect to dipole field.
          Differentiating once with respect to nuclear coordinates.
          Requested convergence is 1.0D-10 RMS, and 1.0D-09 maximum.
          NewPWx=F KeepS1=T KeepF1=T KeepIn=T MapXYZ=F SortEE=F KeepMc=T.
 Keep R1 ints in memory in canonical form, NReq=3944329.
 FoFCou: FMM=F IPFlag=           0 FMFlag=           0 FMFlg1=           0
         NFxFlg=           0 DoJE=F BraDBF=F KetDBF=F FulRan=T
         wScrn=  0.000000 ICntrl=       600 IOpCl=  0 I1Cent=           0 NGrid=           0
         NMat0=    1 NMatS0=   2145 NMatT0=    0 NMatD0=    1 NMtDS0=    0 NMtDT0=    0
 Symmetry not used in FoFCou.
 Two-electron integral symmetry not used.
          MDV=    3758096384 using IRadAn=       5.
          Solving linear equations separately, MaxMat=       0.
          There are     1 degrees of freedom in the 1st order CPHF.  IDoFFX=0 NUNeed=     1.
 LinEq1:  Iter=  0 NonCon=     1 RMS=9.95D-03 Max=1.19D-01 NDo=     1
 AX will form     1 AO Fock derivatives at one time.
 LinEq1:  Iter=  1 NonCon=     1 RMS=4.10D-03 Max=4.79D-02 NDo=     1
 LinEq1:  Iter=  2 NonCon=     1 RMS=1.25D-03 Max=1.10D-02 NDo=     1
 LinEq1:  Iter=  3 NonCon=     1 RMS=5.88D-04 Max=1.17D-02 NDo=     1
 LinEq1:  Iter=  4 NonCon=     1 RMS=1.97D-04 Max=1.44D-03 NDo=     1
 LinEq1:  Iter=  5 NonCon=     1 RMS=6.13D-05 Max=7.51D-04 NDo=     1
 LinEq1:  Iter=  6 NonCon=     1 RMS=1.25D-05 Max=1.05D-04 NDo=     1
 LinEq1:  Iter=  7 NonCon=     1 RMS=5.43D-06 Max=3.90D-05 NDo=     1
 LinEq1:  Iter=  8 NonCon=     1 RMS=1.61D-06 Max=2.37D-05 NDo=     1
 LinEq1:  Iter=  9 NonCon=     1 RMS=4.64D-07 Max=3.85D-06 NDo=     1
 LinEq1:  Iter= 10 NonCon=     1 RMS=1.01D-07 Max=9.98D-07 NDo=     1
 LinEq1:  Iter= 11 NonCon=     1 RMS=1.77D-08 Max=1.32D-07 NDo=     1
 LinEq1:  Iter= 12 NonCon=     1 RMS=8.04D-09 Max=6.88D-08 NDo=     1
 LinEq1:  Iter= 13 NonCon=     1 RMS=1.07D-09 Max=7.59D-09 NDo=     1
 LinEq1:  Iter= 14 NonCon=     1 RMS=1.43D-10 Max=1.28D-09 NDo=     1
 LinEq1:  Iter= 15 NonCon=     0 RMS=2.17D-11 Max=4.43D-10 NDo=     1
 Linear equations converged to 1.000D-10 1.000D-09 after    15 iterations.
 End of Minotr F.D. properties file   721 does not exist.
 End of Minotr F.D. properties file   722 does not exist.
 End of Minotr F.D. properties file   788 does not exist.
 Leave Link 1002 at Sun May 25 03:18:19 2025, MaxMem=  3758096384 cpu:               0.7 elap:               0.2
 (Enter /apps/easybuild-2022/easybuild/software/Compiler/NVHPC/22.11-CUDA-11.7.0/Gaussian/g16c01-CUDA-11.7.0/g16/l701.exe)
 ... and contract with generalized density number  2.
 Compute integral first derivatives.
 Leave Link  701 at Sun May 25 03:18:19 2025, MaxMem=  3758096384 cpu:               0.2 elap:               0.0
 (Enter /apps/easybuild-2022/easybuild/software/Compiler/NVHPC/22.11-CUDA-11.7.0/Gaussian/g16c01-CUDA-11.7.0/g16/l702.exe)
 L702 exits ... SP integral derivatives will be done elsewhere.
 Leave Link  702 at Sun May 25 03:18:19 2025, MaxMem=  3758096384 cpu:               0.0 elap:               0.0
 (Enter /apps/easybuild-2022/easybuild/software/Compiler/NVHPC/22.11-CUDA-11.7.0/Gaussian/g16c01-CUDA-11.7.0/g16/l703.exe)
 Integral derivatives from FoFJK, PRISM(SPDF).
 Compute integral first derivatives, UseDBF=F ICtDFT=           0.
 Calling FoFJK, ICntrl=  10002127 FMM=F ISym2X=0 I1Cent= 0 IOpClX= 0 NMat=1 NMatS=1 NMatT=0.
 FoFJK:  IHMeth= 1 ICntrl=10002127 DoSepK=F KAlg= 0 I1Cent=           0 FoldK=F
 IRaf=         0 NMat=       1 IRICut=       1 DoRegI=T DoRafI=F ISym2E= 0 IDoP0=0 IntGTp=1.
 FoFCou: FMM=F IPFlag=           0 FMFlag=      100000 FMFlg1=         800
         NFxFlg=           0 DoJE=F BraDBF=F KetDBF=F FulRan=T
         wScrn=  0.000000 ICntrl=  10002127 IOpCl=  0 I1Cent=           0 NGrid=           0
         NMat0=    1 NMatS0=      1 NMatT0=    0 NMatD0=    1 NMtDS0=    0 NMtDT0=    0
 Symmetry not used in FoFCou.
 Leave Link  703 at Sun May 25 03:18:19 2025, MaxMem=  3758096384 cpu:               0.4 elap:               0.1
 (Enter /apps/easybuild-2022/easybuild/software/Compiler/NVHPC/22.11-CUDA-11.7.0/Gaussian/g16c01-CUDA-11.7.0/g16/l716.exe)
 Dipole        = 1.00637991D+00-2.65585802D-01-1.03143588D-01
 -------------------------------------------------------------------
 Center     Atomic                   Forces (Hartrees/Bohr)
 Number     Number              X              Y              Z
 -------------------------------------------------------------------
      1        6          -0.010897768   -0.007063180   -0.000724634
      2        8           0.006142466    0.014162155    0.002265550
      3        6           0.013075138    0.000943575   -0.000524972
      4        9          -0.003603864   -0.004752341   -0.011441615
      5        9          -0.002491282   -0.008497679    0.009389269
      6        9          -0.006986946    0.011533027    0.002440814
      7        8           0.002437455   -0.005485273   -0.001130184
      8        1           0.002324802   -0.000840283   -0.000274227
 -------------------------------------------------------------------
 Cartesian Forces:  Max     0.014162155 RMS     0.006919376
 Leave Link  716 at Sun May 25 03:18:19 2025, MaxMem=  3758096384 cpu:               0.0 elap:               0.0
 (Enter /apps/easybuild-2022/easybuild/software/Compiler/NVHPC/22.11-CUDA-11.7.0/Gaussian/g16c01-CUDA-11.7.0/g16/l103.exe)

[...]
     13 -0.106481D-01  0.293782D-01  0.127542D-01 -0.239691D-01 -0.239646D-01
     14 -0.889669D-03 -0.140492D-01 -0.281958D-02  0.149814D-01  0.149762D-01
     15  0.201253D-03 -0.206600D-01 -0.360963D-02  0.168095D-01 -0.302744D-02
     16  0.205949D-03 -0.206401D-01 -0.360860D-02 -0.302631D-02  0.168050D-01
     17  0.875596D-03  0.159079D-02  0.543272D-01  0.179877D-03  0.180753D-03
     18 -0.311186D-02  0.100870D-02  0.280321D-02 -0.394140D-04 -0.163872D-01
     19  0.311417D-02 -0.100331D-02 -0.281011D-02  0.163871D-01  0.429014D-04
     20 -0.552300D-05  0.298282D-05 -0.123062D-05 -0.183574D-01  0.183648D-01
     21 -0.310889D-02  0.999219D-03  0.280631D-02  0.273160D-02 -0.191624D-01
     22  0.311713D-02 -0.101279D-02 -0.280701D-02  0.191581D-01 -0.273225D-02
     23 -0.256042D-05 -0.649700D-05  0.186969D-05 -0.155864D-01  0.155896D-01
     24  0.143689D-05  0.000000D+00 -0.236623D-05  0.105464D-02 -0.105527D-02
     25  0.000000D+00  0.612864D-05 -0.144156D-05 -0.177052D-02  0.177183D-02
                6             7             8             9            10 
      6  0.375792D+00
      7 -0.997312D-04  0.467797D+00
      8 -0.115195D-01  0.146482D-02  0.150345D+00
      9 -0.263939D-02 -0.866525D-02 -0.853407D-01  0.183264D+00
     10  0.141589D-01  0.720043D-02 -0.650040D-01 -0.979229D-01  0.162927D+00
     11 -0.241354D-01 -0.111739D-02  0.472424D-02 -0.437764D-02 -0.346148D-03
     12 -0.241325D-01 -0.111602D-02  0.472435D-02 -0.434577D-02 -0.379028D-03
     13  0.219902D-01 -0.409416D-04  0.209616D-03 -0.102183D-01  0.100087D-01
     14 -0.244167D-02  0.934265D-03 -0.541120D-02  0.484321D-02  0.567991D-03
     15  0.150096D-01  0.720363D-03 -0.233095D-02  0.747049D-02 -0.513961D-02
     16  0.150089D-01  0.719709D-03 -0.233084D-02  0.745625D-02 -0.512535D-02
     17  0.164253D-02  0.375600D-01  0.111901D-02 -0.303692D-01  0.292501D-01
     18  0.175197D-01  0.151597D-03  0.284133D-03 -0.163177D-03 -0.122030D-03
     19 -0.175257D-01 -0.151923D-03 -0.267795D-03  0.154223D-03  0.112498D-03
     20 -0.410662D-05  0.000000D+00  0.804363D-05 -0.204154D-05 -0.728484D-05
     21  0.175217D-01  0.151201D-03  0.281622D-03 -0.152313D-03 -0.127844D-03
     22 -0.175237D-01 -0.152319D-03 -0.270306D-03  0.165086D-03  0.106685D-03
     23 -0.209286D-05  0.000000D+00  0.553242D-05  0.882223D-05 -0.130983D-04
     24  0.000000D+00  0.000000D+00  0.741961D-05 -0.747890D-05  0.118620D-05
     25  0.000000D+00  0.000000D+00 -0.990542D-05  0.452335D-05  0.392135D-05
               11            12            13            14            15 
     11  0.168941D+00
     12  0.423653D-02  0.168873D+00
     13 -0.106844D-01 -0.106412D-01  0.203226D+00
     14 -0.794081D-01 -0.794035D-01 -0.142816D-01  0.124169D+00
     15 -0.760486D-01 -0.141293D-01 -0.877706D-01  0.280784D-01  0.126748D+00
     16 -0.141296D-01 -0.760246D-01 -0.877607D-01  0.280704D-01  0.310369D-01
     17 -0.275035D-02 -0.273672D-02  0.492914D-02  0.519213D-03  0.386807D-04
     18 -0.593184D-02 -0.880945D-02  0.160488D-01 -0.255450D-01  0.260972D-01
     19  0.882919D-02  0.592564D-02 -0.160522D-01  0.255407D-01  0.170627D-02
     20 -0.130709D-01  0.130656D-01  0.133374D-05  0.000000D+00 -0.259106D-01
     21 -0.194320D-02 -0.128130D-01  0.160542D-01 -0.255403D-01  0.255164D-01
     22  0.128178D-01  0.192211D-02 -0.160467D-01  0.255454D-01  0.112554D-02
     23 -0.908228D-02  0.906203D-02  0.680195D-05  0.483894D-05 -0.264914D-01
     24  0.426961D-03 -0.427439D-03  0.000000D+00  0.000000D+00 -0.284144D-03
     25 -0.363875D-02  0.365191D-02 -0.668000D-05 -0.356874D-05  0.308544D-03
               16            17            18            19            20 
     16  0.126727D+00
     17  0.347259D-04  0.174626D+00
     18 -0.171114D-02  0.149113D-02  0.313932D-01
     19 -0.261014D-01 -0.148999D-02 -0.105228D-01  0.313965D-01
     20  0.259178D-01  0.213946D-05 -0.787980D-02 -0.788208D-02  0.329631D-01
     21 -0.112539D-02  0.149113D-02  0.218849D-01 -0.200353D-01 -0.192436D-01
     22 -0.255157D-01 -0.148999D-02 -0.200310D-01  0.218840D-01 -0.192459D-01
     23  0.265036D-01  0.213933D-05 -0.173880D-01 -0.173946D-01  0.215993D-01
     24  0.284525D-03  0.188834D-05 -0.476849D-02 -0.476843D-02 -0.468907D-02
     25 -0.311587D-03  0.000000D+00  0.492160D-02  0.492612D-02  0.689213D-02
               21            22            23            24            25 
     21  0.348701D-01
     22 -0.705012D-02  0.348649D-01
     23 -0.625844D-02 -0.626502D-02  0.327288D-01
     24  0.521482D-02  0.521488D-02  0.529423D-02  0.134783D-01
     25 -0.801880D-02 -0.801428D-02 -0.604827D-02  0.330406D-02  0.164920D-01
 Leave Link  716 at Sun May 25 03:18:28 2025, MaxMem=  3758096384 cpu:               0.0 elap:               0.0
 (Enter /apps/easybuild-2022/easybuild/software/Compiler/NVHPC/22.11-CUDA-11.7.0/Gaussian/g16c01-CUDA-11.7.0/g16/l103.exe)

 GradGradGradGradGradGradGradGradGradGradGradGradGradGradGradGradGradGrad
 Berny optimization.
 Red2BG is reusing G-inverse.
 Internal  Forces:  Max     0.000228363 RMS     0.000071598
 Search for a local minimum.
 Step number   1 out of a maximum of    2
 All quantities printed in internal units (Hartrees-Bohrs-Radians)
 Second derivative matrix not updated -- analytic derivatives used.
 ITU=  0
     Eigenvalues ---    0.00111   0.01795   0.04550   0.11815   0.12915
     Eigenvalues ---    0.14575   0.19633   0.20113   0.22821   0.23863
     Eigenvalues ---    0.28807   0.34719   0.35950   0.38153   0.42859
     Eigenvalues ---    0.45310   0.47655   0.74192
 Angle between quadratic step and forces=  67.11 degrees.
 Linear search not attempted -- first point.
 Iteration  1 RMS(Cart)=  0.00060598 RMS(Int)=  0.00000021
 Iteration  2 RMS(Cart)=  0.00000024 RMS(Int)=  0.00000001
 ITry= 1 IFail=0 DXMaxC= 1.59D-03 DCOld= 1.00D+10 DXMaxT= 3.00D-01 DXLimC= 3.00D+00 Rises=F
 Variable       Old X    -DE/DX   Delta X   Delta X   Delta X     New X
                                 (Linear)    (Quad)   (Total)
    R1        2.34915   0.00005   0.00000   0.00014   0.00014   2.34929
    R2        2.89548  -0.00004   0.00000  -0.00014  -0.00014   2.89534
    R3        2.60218  -0.00023   0.00000  -0.00056  -0.00056   2.60162
    R4        2.64298   0.00005   0.00000   0.00015   0.00015   2.64313
    R5        2.64300   0.00006   0.00000   0.00014   0.00014   2.64313
    R6        2.62775   0.00013   0.00000   0.00027   0.00027   2.62802
    R7        1.86140  -0.00010   0.00000  -0.00016  -0.00016   1.86124
    A1        2.17584  -0.00004   0.00000  -0.00026  -0.00026   2.17558
    A2        2.20247   0.00002   0.00000  -0.00002  -0.00002   2.20246
    A3        1.90488   0.00001   0.00000   0.00027   0.00027   1.90515
    A4        1.93509  -0.00006   0.00000  -0.00023  -0.00023   1.93485
    A5        1.93497  -0.00006   0.00000  -0.00011  -0.00011   1.93485
    A6        1.92514  -0.00003   0.00000   0.00001   0.00001   1.92515
    A7        1.88777   0.00004   0.00000   0.00005   0.00005   1.88782
    A8        1.88972   0.00005   0.00000   0.00015   0.00015   1.88987
    A9        1.88972   0.00006   0.00000   0.00016   0.00016   1.88987
   A10        1.94454  -0.00014   0.00000  -0.00065  -0.00065   1.94389
    D1        2.09407   0.00001   0.00000  -0.00094  -0.00094   2.09313
    D2       -2.09202  -0.00001   0.00000  -0.00111  -0.00111  -2.09313
    D3        0.00098   0.00000   0.00000  -0.00098  -0.00098   0.00000
    D4       -1.04764   0.00001   0.00000  -0.00082  -0.00082  -1.04846
    D5        1.04946  -0.00001   0.00000  -0.00099  -0.00099   1.04847
    D6       -3.14073  -0.00000   0.00000  -0.00087  -0.00087  -3.14159
    D7        0.00004  -0.00000   0.00000  -0.00004  -0.00004   0.00000
    D8       -3.14143   0.00000   0.00000  -0.00016  -0.00016  -3.14159
         Item               Value     Threshold  Converged?
 Maximum Force            0.000228     0.000450     YES
 RMS     Force            0.000072     0.000300     YES
 Maximum Displacement     0.001592     0.001800     YES
 RMS     Displacement     0.000606     0.001200     YES
 Predicted change in Energy=-1.800530D-07
 Optimization completed.
    -- Stationary point found.
                           ----------------------------
                           !   Optimized Parameters   !
                           ! (Angstroms and Degrees)  !
 --------------------------                            --------------------------
 ! Name  Definition              Value          Derivative Info.                !
 --------------------------------------------------------------------------------
 ! R1    R(1,2)                  1.2431         -DE/DX =    0.0                 !
 ! R2    R(1,3)                  1.5322         -DE/DX =    0.0                 !
 ! R3    R(1,7)                  1.377          -DE/DX =   -0.0002              !
 ! R4    R(3,4)                  1.3986         -DE/DX =    0.0001              !
 ! R5    R(3,5)                  1.3986         -DE/DX =    0.0001              !
 ! R6    R(3,6)                  1.3905         -DE/DX =    0.0001              !
 ! R7    R(7,8)                  0.985          -DE/DX =   -0.0001              !
 ! A1    A(2,1,3)              124.6664         -DE/DX =    0.0                 !
 ! A2    A(2,1,7)              126.1923         -DE/DX =    0.0                 !
 ! A3    A(3,1,7)              109.1413         -DE/DX =    0.0                 !
 ! A4    A(1,3,4)              110.8724         -DE/DX =   -0.0001              !
 ! A5    A(1,3,5)              110.8653         -DE/DX =   -0.0001              !
 ! A6    A(1,3,6)              110.3025         -DE/DX =    0.0                 !
 ! A7    A(4,3,5)              108.1612         -DE/DX =    0.0                 !
 ! A8    A(4,3,6)              108.2731         -DE/DX =    0.0001              !
 ! A9    A(5,3,6)              108.2728         -DE/DX =    0.0001              !
 ! A10   A(1,7,8)              111.414          -DE/DX =   -0.0001              !
 ! D1    D(2,1,3,4)            119.9815         -DE/DX =    0.0                 !
 ! D2    D(2,1,3,5)           -119.8637         -DE/DX =    0.0                 !
 ! D3    D(2,1,3,6)              0.0564         -DE/DX =    0.0                 !
 ! D4    D(7,1,3,4)            -60.0253         -DE/DX =    0.0                 !
 ! D5    D(7,1,3,5)             60.1296         -DE/DX =    0.0                 !
 ! D6    D(7,1,3,6)           -179.9503         -DE/DX =    0.0                 !
 ! D7    D(2,1,7,8)              0.0025         -DE/DX =    0.0                 !
 ! D8    D(3,1,7,8)           -179.9907         -DE/DX =    0.0                 !
 --------------------------------------------------------------------------------
 GradGradGradGradGradGradGradGradGradGradGradGradGradGradGradGradGradGrad

 Leave Link  103 at Sun May 25 03:18:28 2025, MaxMem=  3758096384 cpu:               0.0 elap:               0.0
 (Enter /apps/easybuild-2022/easybuild/software/Compiler/NVHPC/22.11-CUDA-11.7.0/Gaussian/g16c01-CUDA-11.7.0/g16/l9999.exe)

 ----------------------------------------------------------------------

 Electric dipole moment (input orientation):
 (Debye = 10**-18 statcoulomb cm , SI units = C m)
                  (au)            (Debye)         (10**-30 SI)
   Tot        0.106714D+01      0.271239D+01      0.904757D+01
   x          0.102848D+01      0.261414D+01      0.871982D+01
   y         -0.265182D+00     -0.674027D+00     -0.224831D+01
   z         -0.103394D+00     -0.262802D+00     -0.876612D+00

 Dipole polarizability, Alpha (input orientation).
 (esu units = cm**3 , SI units = C**2 m**2 J**-1)
 Alpha(0;0):
               (au)            (10**-24 esu)      (10**-40 SI)
   iso        0.254241D+02      0.376746D+01      0.419186D+01
   aniso      0.121941D+02      0.180698D+01      0.201053D+01
   xx         0.261891D+02      0.388083D+01      0.431800D+01
   yx        -0.489053D+00     -0.724702D-01     -0.806339D-01
   yy         0.315584D+02      0.467647D+01      0.520328D+01
   zx        -0.525184D+00     -0.778242D-01     -0.865911D-01
   zy         0.247820D+01      0.367231D+00      0.408600D+00
   zz         0.185246D+02      0.274507D+01      0.305430D+01

 ----------------------------------------------------------------------

 Dipole orientation:
     6          0.08173878          0.88292160          0.87310837
     8          0.29621501          3.20411451          1.16390292
     6         -0.04156840         -0.45086728         -1.69391361
     9          1.94769498         -2.17088963         -1.95791732
     9         -2.31459413         -1.77307536         -1.95954114
     9          0.12301022          1.30457730         -3.64235500
     8         -0.08269754         -0.89420847          2.76680697
     1         -0.00979887         -0.10257316          4.44990699

 Electric dipole moment (dipole orientation):
 (Debye = 10**-18 statcoulomb cm , SI units = C m)
                  (au)            (Debye)         (10**-30 SI)
   Tot        0.106714D+01      0.271239D+01      0.904757D+01
   x          0.000000D+00      0.000000D+00      0.000000D+00
   y          0.000000D+00      0.000000D+00      0.000000D+00
   z          0.106714D+01      0.271239D+01      0.904757D+01

 Dipole polarizability, Alpha (dipole orientation).
 (esu units = cm**3 , SI units = C**2 m**2 J**-1)
 Alpha(0;0):
               (au)            (10**-24 esu)      (10**-40 SI)
   iso        0.254241D+02      0.376746D+01      0.419186D+01
   aniso      0.121941D+02      0.180698D+01      0.201053D+01
   xx         0.181592D+02      0.269092D+01      0.299406D+01
   yx         0.121689D+01      0.180324D+00      0.200638D+00
   yy         0.312125D+02      0.462522D+01      0.514625D+01
   zx        -0.181779D+00     -0.269368D-01     -0.299713D-01
   zy        -0.195438D+01     -0.289610D+00     -0.322234D+00
   zz         0.269004D+02      0.398623D+01      0.443528D+01

 ----------------------------------------------------------------------
 Unable to Open any file for archive entry.
 1\1\GINC-SPARTAN-BM174\Freq\RMP2-FC\6-31G\C2H1F3O2\AKHALILOV\25-May-20
 25\0\\#P Geom=AllCheck Guess=TCheck SCRF=Check GenChk RMP2(FC)/6-31G F
 req\\Gaussian input prepared by ASE\\0,1\C,0.5679614282,0.3319319096,0
 .0296511221\O,1.0387726277,1.4681244056,0.2105938354\C,-0.926552789,-0
 .0053587384,0.0487607329\F,-1.3325868529,-0.5394435084,-1.1784251736\F
 ,-1.213278332,-0.9412496682,1.0477695128\F,-1.6764087183,1.1393803433,
 0.2955647983\O,1.2868527909,-0.8162793409,-0.2172704101\H,2.2552388454
 ,-0.6371054027,-0.2366444177\\Version=ES64L-G16RevC.01\HF=-524.1470756
 \MP2=-524.9551077\RMSD=3.923e-10\RMSF=7.872e-05\ZeroPoint=0.0375266\Th
 ermal=0.0438573\ETot=-524.9112505\HTot=-524.9103063\GTot=-524.9488272\
 Dipole=1.02848,-0.2651825,-0.1033941\DipoleDeriv=0.9971544,-0.313505,-
 0.1000223,-0.3895859,1.2855695,0.2190213,-0.1138421,0.2149285,0.238847
 8,-0.5013628,-0.127495,-0.0110448,0.1741297,-0.6259967,-0.0727502,0.04
 36605,-0.056627,-0.2890764,1.3590125,-0.0250484,0.0095198,-0.0910774,1
 .4311005,-0.0292509,-0.0025008,-0.0327845,1.6135224,-0.456477,-0.07876
 6,-0.1329739,-0.054256,-0.3762718,-0.1314444,-0.0785975,-0.1237986,-0.
 6358185,-0.4385928,-0.1003056,0.0850526,-0.05775,-0.4949779,0.1940559,
 0.0428464,0.1900038,-0.535053,-0.5184748,0.2052304,0.0470405,0.1370666
 ,-0.5633425,-0.0491552,0.0347678,-0.0527967,-0.3429474,-0.7127514,0.55
 68088,0.1142813,0.398851,-0.9533683,-0.1097494,0.0856086,-0.1181724,-0
 .4925333,0.2714919,-0.1169192,-0.0118532,-0.117378,0.2972873,-0.020727
 1,-0.0119428,-0.0207532,0.4430584\Polar=26.189121,-0.4890529,31.558404
 7,-0.5251837,2.4781998,18.5246452\PG=Unknown\NImag=0\\0.64372782,0.106
 47235,0.81940193,-0.00456519,0.10688740,0.21849240,-0.19166906,-0.1905
 7241,-0.02752767,0.17685413,-0.19189975,-0.53311878,-0.07553654,0.2147
 4990,0.62359080,-0.02776842,-0.07561006,-0.07237081,0.03072429,0.09746
 093,0.03910165,-0.20119376,-0.01106443,0.00482777,-0.00953843,-0.01394
 137,-0.00111166,0.58482321,-0.03135070,-0.04588271,0.00680563,-0.03422
 122,-0.02665570,-0.00606804,0.00175578,0.53098648,0.00115106,0.0057134
 5,-0.07310997,-0.00479747,-0.00716336,0.01588714,-0.00529201,0.0091144
 4,0.48215074,-0.00423231,-0.01673855,-0.03398803,-0.00520458,-0.001479
 92,0.00252456,-0.10396832,-0.02953150,-0.06569719,0.08592074,-0.001850
 54,-0.00460573,-0.01870005,-0.00190789,0.00186846,0.00188257,-0.034215
 14,-0.09508666,-0.06745129,0.03235715,0.10943635,-0.00081786,-0.013376
 89,-0.01486889,-0.00399251,0.00028013,0.00065823,-0.06706344,-0.065072
 50,-0.20415736,0.07798242,0.10082772,0.29042197,-0.00105483,-0.0258423
 3,0.02545748,-0.00504470,-0.00058522,-0.00232522,-0.09229162,-0.040553
 60,0.04390027,0.01505330,0.00605140,-0.00828381,0.07285799,0.00014141,
 -0.01688089,0.01871359,-0.00342929,0.00235917,-0.00092630,-0.04511933,
 -0.15361409,0.09309169,0.00316515,0.01291698,0.00314108,0.04096575,0.1
 9944350,-0.00032943,0.01558000,-0.00577679,0.00360484,0.00050436,0.000
 02492,0.04357604,0.09022228,-0.15728577,0.00193089,0.02258883,-0.05723
 596,-0.04577143,-0.14158687,0.21344349,-0.02310896,0.03808826,0.008520
 83,0.00027124,0.00266200,0.00047244,-0.15400857,0.08859063,0.02076799,
 0.01455653,0.00115875,0.00385259,0.01252466,0.00669522,-0.00438316,0.1
 5994055,0.00408976,-0.01579465,-0.00445941,-0.00319600,0.00504291,0.00
 107915,0.10433093,-0.19128270,-0.02843286,0.01182176,-0.02751241,-0.02
 833921,0.01948596,-0.04889015,0.01454537,-0.13739749,0.27450825,0.0023
 8247,-0.00627627,0.00638414,-0.00059267,0.00076717,0.00018948,0.023621
 39,-0.02759437,-0.07097822,0.01608328,-0.04193038,-0.01757418,-0.01238
 202,0.02939632,0.00583562,-0.02985108,0.04506485,0.07538114,-0.1893910
 9,0.10725250,0.02683467,0.03053321,-0.00446993,-0.00116438,-0.02289445
 ,0.04190944,0.00892256,-0.00311358,-0.00174450,-0.00183049,-0.00294239
 ,-0.00255432,0.00159302,-0.01024619,0.00074998,0.00073891,0.63046252,0
 .05965707,-0.20700447,-0.03132960,0.02465915,-0.07420226,-0.01913724,-
 0.00385406,-0.01199330,-0.00229740,0.00101338,0.00260161,0.00238219,0.
 00084992,0.00400928,-0.00200522,-0.00112902,0.00410568,0.00061577,-0.0
 3353592,0.33783531,0.01819340,-0.03387569,-0.05912695,0.00412178,-0.01
 757644,0.02055493,0.00062971,-0.00476244,0.00092731,0.00066934,0.00192
 141,0.00282252,0.00020252,-0.00121044,0.00124654,0.00039896,0.00052044
 ,0.00109952,-0.03792822,0.05652400,0.04856624,-0.03307782,-0.00759540,
 0.00044015,0.00379818,-0.00503571,-0.00135161,-0.00092808,0.00340117,0
 .00104477,0.00098822,0.00015076,0.00015308,0.00089760,0.00013541,-0.00
 022078,0.00007073,0.00011510,-0.00000029,-0.43240803,-0.04766053,0.013
 71253,0.46065920,0.05474040,0.00388529,-0.00238100,-0.00608225,0.00111
 540,0.00131899,0.00210761,-0.00647133,-0.00257466,-0.00060747,0.000381
 39,0.00015749,-0.00037189,0.00065618,0.00015126,0.00133165,-0.00017693
 ,-0.00004309,-0.10760725,-0.05535185,-0.00154083,0.05648919,0.05596185
 ,0.01175397,0.00095805,0.00037687,-0.00154059,0.00126376,-0.00404555,0
 .00081220,-0.00264500,0.00656612,0.00049472,0.00086119,-0.00006632,-0.
 00079781,-0.00061906,-0.00025206,0.00022143,0.00002168,-0.00033750,0.0
 0283391,-0.00475248,-0.01609010,-0.01377784,0.00491185,0.01384853\\-0.
 00013470,0.00025158,0.00005676,0.00000405,-0.00005220,-0.00000938,-0.0
 0002762,0.00000615,0.00000660,-0.00002450,0.00002832,0.00005827,-0.000
 02786,0.00005504,-0.00004643,0.00004373,-0.00012828,-0.00002512,0.0000
 5547,-0.00010649,-0.00002506,0.00011144,-0.00005413,-0.00001563\\\@
 The archive entry for this job was punched.


 IT IS BETTER TO THINK YOU ARE HALF DRY THAN TO KNOW YOU
 ARE ALL WET.  -- SNOOPY
 Job cpu time:       0 days  0 hours  0 minutes 32.4 seconds.
 Elapsed time:       0 days  0 hours  0 minutes  6.4 seconds.
 File lengths (MBytes):  RWF=    208 Int=      0 D2E=      0 Chk=      2 Scr=      1
 Normal termination of Gaussian 16 at Sun May 25 03:18:28 2025.
done
