 Entering Gaussian System, Link 0=g16
 Initial command:
 /apps/easybuild-2022/easybuild/software/Compiler/NVHPC/22.11-CUDA-11.7.0/Gaussian/g16c01-CUDA-11.7.0/g16/l1.exe "/tmp/Gau-82601.inp" -scrdir="/tmp/"
 Entering Link 1 = /apps/easybuild-2022/easybuild/software/Compiler/NVHPC/22.11-CUDA-11.7.0/Gaussian/g16c01-CUDA-11.7.0/g16/l1.exe PID=     82602.
  
 Copyright (c) 1988-2019, Gaussian, Inc.  All Rights Reserved.
  
 This is part of the Gaussian(R) 16 program.  It is based on
 the Gaussian(R) 09 system (copyright 2009, Gaussian, Inc.),
 the Gaussian(R) 03 system (copyright 2003, Gaussian, Inc.),
 the Gaussian(R) 98 system (copyright 1998, Gaussian, Inc.),
 the Gaussian(R) 94 system (copyright 1995, Gaussian, Inc.),
 the Gaussian 92(TM) system (copyright 1992, Gaussian, Inc.),
 the Gaussian 90(TM) system (copyright 1990, Gaussian, Inc.),
 the Gaussian 88(TM) system (copyright 1988, Gaussian, Inc.),
 the Gaussian 86(TM) system (copyright 1986, Carnegie Mellon
 University), and the Gaussian 82(TM) system (copyright 1983,
 Carnegie Mellon University). Gaussian is a federally registered
 trademark of Gaussian, Inc.
  
 This software contains proprietary and confidential information,
 including trade secrets, belonging to Gaussian, Inc.
  
 This software is provided under written license and may be
 used, copied, transmitted, or stored only in accord with that
 written license.
  
 The following legend is applicable only to US Government
 contracts under FAR:
  
                    RESTRICTED RIGHTS LEGEND
  
 Use, reproduction and disclosure by the US Government is
 subject to restrictions as set forth in subparagraphs (a)
 and (c) of the Commercial Computer Software - Restricted
 Rights clause in FAR 52.227-19.
  
 Gaussian, Inc.
 340 Quinnipiac St., Bldg. 40, Wallingford CT 06492
  
  
 ---------------------------------------------------------------
 Warning -- This program may not be used in any manner that
 competes with the business of Gaussian, Inc. or will provide
 assistance to any competitor of Gaussian, Inc.  The licensee
 of this program is prohibited from giving any competitor of
 Gaussian, Inc. access to this program.  By using this program,
 the user acknowledges that Gaussian, Inc. is engaged in the
 business of creating and licensing software in the field of
 computational chemistry and represents and warrants to the
 licensee that it is not a competitor of Gaussian, Inc. and that
 it will not use this program in any manner prohibited above.
 ---------------------------------------------------------------
  

 Cite this work as:
 Gaussian 16, Revision C.01,
 M. J. Frisch, G. W. Trucks, H. B. Schlegel, G. E. Scuseria, 
 M. A. Robb, J. R. Cheeseman, G. Scalmani, V. Barone, 
 G. A. Petersson, H. Nakatsuji, X. Li, M. Caricato, A. V. Marenich, 
 J. Bloino, B. G. Janesko, R. Gomperts, B. Mennucci, H. P. Hratchian, 
 J. V. Ortiz, A. F. Izmaylov, J. L. Sonnenberg, D. Williams-Young, 
 F. Ding, F. Lipparini, F. Egidi, J. Goings, B. Peng, A. Petrone, 
 T. Henderson, D. Ranasinghe, V. G. Zakrzewski, J. Gao, N. Rega, 
 G. Zheng, W. Liang, M. Hada, M. Ehara, K. Toyota, R. Fukuda, 
 J. Hasegawa, M. Ishida, T. Nakajima, Y. Honda, O. Kitao, H. Nakai, 
 T. Vreven, K. Throssell, J. A. Montgomery, Jr., J. E. Peralta, 
 F. Ogliaro, M. J. Bearpark, J. J. Heyd, E. N. Brothers, K. N. Kudin, 
 V. N. Staroverov, T. A. Keith, R. Kobayashi, J. Normand, 
 K. Raghavachari, A. P. Rendell, J. C. Burant, S. S. Iyengar, 
 J. Tomasi, M. Cossi, J. M. Millam, M. Klene, C. Adamo, R. Cammi, 
 J. W. Ochterski, R. L. Martin, K. Morokuma, O. Farkas, 
 J. B. Foresman, and D. J. Fox, Gaussian, Inc., Wallingford CT, 2019.
 
 ******************************************
 Gaussian 16:  ES64L-G16RevC.01  3-Jul-2019
                25-May-2025 
 ******************************************
 %mem=28GB
 %chk=1141903082400600000001_intra_H_migration_2_8_IRC_R
 %nprocshared=8
 Will use up to    8 processors via shared memory.
 ----------------------------------------------------------------------
 #P M062X/Def2TZVPP Symm(None) scf(xqc) pop(None) geom(AllCheck,NoKeepC
 onstants) guess(Read) irc(RCFC,reverse,MaxPoints=100,StepSize=2)
 ----------------------------------------------------------------------
 1/10=5,18=10,22=2,26=3,29=20007,38=1,39=2,42=100,44=3,172=1/1,23;
 2/12=2,15=3,29=1,40=1/2;
 3/5=44,7=202,11=2,14=-4,25=1,30=1,71=2,74=-55,116=-2,140=1/1,2,3;
 4/5=1/1;
 5/5=2,8=3,13=1,38=6/2,8;
 8/6=4,10=90,11=11/1;
 11/6=1,8=1,9=11,15=111,16=1,31=1/1,2,10;
 10/6=1,13=1,31=1/2;
 7/10=1,25=1,30=1/1,2,3,16;
 1/18=10,22=2,26=3,39=2,42=100,44=3/23(2);
 2/15=3,29=1/2;
 99/5=20/99;
 2/15=3,29=1/2;
 3/5=44,7=202,11=2,14=-2,25=1,30=1,71=2,74=-55,140=1/1,2,3;
 4/5=5,16=3,69=1/1;
 5/5=2,8=3,13=1,38=5/2,8;
 8/6=4,10=90,11=11/1;
 11/6=1,8=1,9=11,15=111,16=1,31=1/1,2,10;
 10/6=1,13=1,31=1/2;
 7/10=1,25=1,30=1/1,2,3,16;
 1/18=10,22=2,26=3,39=2,42=100,44=3/23(-8);
 2/15=3,29=1/2;
 99/5=20,9=1/99;
 Leave Link    1 at Sun May 25 03:53:00 2025, MaxMem=  3758096384 cpu:               0.1 elap:               0.1
 (Enter /apps/easybuild-2022/easybuild/software/Compiler/NVHPC/22.11-CUDA-11.7.0/Gaussian/g16c01-CUDA-11.7.0/g16/l101.exe)
 Structure from the checkpoint file:  "1141903082400600000001_intra_H_migration_2_8_IRC_R.chk"
 ------------------------------
 Gaussian input prepared by ASE
 ------------------------------
 Charge =  0 Multiplicity = 1
 Redundant internal coordinates found in file.  (old form).
 C,0,1.2946644379,-0.1932351227,-0.5188007328
 O,0,1.7453987297,-0.4692690364,-1.6556160325
 C,0,1.862914521,-0.7561392493,0.7854787881
 F,0,2.5482780914,-1.8630010482,0.560431056
 F,0,2.6717200489,0.1497243091,1.3240430769
 F,0,0.8851964307,-1.0185009337,1.6375031535
 O,0,0.3443738795,0.6240565933,-0.5571290706
 H,0,0.765091861,0.3831954879,-1.7691282386
 Recover connectivity data from disk.
 ITRead=  0  0  0  0  0  0  0  0
 MicOpt= -1 -1 -1 -1 -1 -1 -1 -1
 NAtoms=      8 NQM=        8 NQMF=       0 NMMI=      0 NMMIF=      0
                NMic=       0 NMicF=      0.
                    Isotopes and Nuclear Properties:
 (Nuclear quadrupole moments (NQMom) in fm**2, nuclear magnetic moments (NMagM)
  in nuclear magnetons)

  Atom         1           2           3           4           5           6           7           8
 IAtWgt=          12          16          12          19          19          19          16           1
 AtmWgt=  12.0000000  15.9949146  12.0000000  18.9984032  18.9984032  18.9984032  15.9949146   1.0078250
 NucSpn=           0           0           0           1           1           1           0           1
 AtZEff=   3.6000000   5.6000000   3.6000000   6.7500000   6.7500000   6.7500000   5.6000000   1.0000000
 NQMom=    0.0000000   0.0000000   0.0000000   0.0000000   0.0000000   0.0000000   0.0000000   0.0000000
 NMagM=    0.0000000   0.0000000   0.0000000   2.6288670   2.6288670   2.6288670   0.0000000   2.7928460
 AtZNuc=   6.0000000   8.0000000   6.0000000   9.0000000   9.0000000   9.0000000   8.0000000   1.0000000
 Leave Link  101 at Sun May 25 03:53:00 2025, MaxMem=  3758096384 cpu:               0.3 elap:               0.2
 (Enter /apps/easybuild-2022/easybuild/software/Compiler/NVHPC/22.11-CUDA-11.7.0/Gaussian/g16c01-CUDA-11.7.0/g16/l123.exe)
 IRC-IRC-IRC-IRC-IRC-IRC-IRC-IRC-IRC-IRC-IRC-IRC-IRC-IRC-IRC-IRC-IRC-IRC
 ------------------------------------------------------------------------
 INPUT DATA FOR L123
 ------------------------------------------------------------------------
 GENERAL PARAMETERS:
 Rxn path following direction = Reverse
 Maximum points per path      = 100
 Step size                    =   0.020 bohr
 Integration scheme           = HPC                                 
    Redo corrector integration= Yes                                 
    DWI Weight Power          =  2
    DWI will use Hessian update vectors when possible.
    Max correction cycles     =  20
 Initial Hessian              = ReadFC from chk
 Hessian evaluation           = All updating
 Hessian updating method      = Bofill                              
 ------------------------------------------------------------------------
          ******** Start new reaction path calculation ********
 RCFC Option Requested - Data Read From Chk File:
 "1141903082400600000001_intra_H_migration_2_8_IRC_R.chk"
   Energy From Chk =   -526.7891565

 Current Structure is TS -> form Hessian eigenvectors.
                            Recovering Hessian eigenvectors from chk file.
 Supplied step size of   0.0200 bohr.
    Integration on MW PES will use step size of   0.0210 sqrt(amu)*bohr.
 Point Number:   0          Path Number:   1
 Calculating another point on the path.
 Point Number  1 in REVERSE path direction.
 Using LQA Reaction Path Following.
 IRC-IRC-IRC-IRC-IRC-IRC-IRC-IRC-IRC-IRC-IRC-IRC-IRC-IRC-IRC-IRC-IRC-IRC
 Leave Link  123 at Sun May 25 03:53:00 2025, MaxMem=  3758096384 cpu:               0.0 elap:               0.0
 (Enter /apps/easybuild-2022/easybuild/software/Compiler/NVHPC/22.11-CUDA-11.7.0/Gaussian/g16c01-CUDA-11.7.0/g16/l202.exe)
                          Input orientation:                          
 ---------------------------------------------------------------------
 Center     Atomic      Atomic             Coordinates (Angstroms)
 Number     Number       Type             X           Y           Z
 ---------------------------------------------------------------------
      1          6           0       -0.355702    0.337250   -0.807371
      2          8           0        0.095305    0.061048   -1.944841
      3          6           0        0.213004   -0.226010    0.496553
      4          9           0        0.898387   -1.332892    0.271491
      5          9           0        1.021823    0.679841    1.035107
      6          9           0       -0.764693   -0.488382    1.348563
      7          8           0       -1.305439    1.154065   -0.845686
      8          1           0       -0.877737    0.907796   -2.063608
 ---------------------------------------------------------------------
                    Distance matrix (angstroms):
                    1          2          3          4          5
     1  C    0.000000
     2  O    1.254405   0.000000
     3  C    1.530002   2.461029   0.000000
     4  F    2.350756   2.738638   1.321208   0.000000
     5  F    2.325869   3.181420   1.328455   2.156255   0.000000
     6  F    2.344567   3.447895   1.323121   2.153860   2.157461
     7  O    1.253257   2.089237   2.451913   3.505693   3.029590
     8  H    1.475186   1.295337   3.004939   3.691610   3.641747
                    6          7          8
     6  F    0.000000
     7  O    2.793701   0.000000
     8  H    3.688496   1.314120   0.000000
 Symmetry turned off by external request.
 Stoichiometry    C2HF3O2
 Rotational constants (GHZ):           4.1027449           2.3826345           2.0472078
 Leave Link  202 at Sun May 25 03:53:00 2025, MaxMem=  3758096384 cpu:               0.1 elap:               0.0
 (Enter /apps/easybuild-2022/easybuild/software/Compiler/NVHPC/22.11-CUDA-11.7.0/Gaussian/g16c01-CUDA-11.7.0/g16/l301.exe)
 Standard basis: def2TZVPP (5D, 7F)
 Ernie: Thresh=  0.10000D-02 Tol=  0.10000D-05 Strict=F.
   231 basis functions,   374 primitive gaussians,   267 cartesian basis functions
    28 alpha electrons       28 beta electrons
       nuclear repulsion energy       338.4803552813 Hartrees.
 IExCor= 4336 DFT=T Ex+Corr=M062X ExCW=0 ScaHFX=  0.540000
 ScaDFX=  1.000000  1.000000  1.000000  1.000000 ScalE2=  1.000000  1.000000
 IRadAn=      5 IRanWt=     -1 IRanGd=            0 ICorTp=0 IEmpDi=  4
 NAtoms=    8 NActive=    8 NUniq=    8 SFac= 1.00D+00 NAtFMM=   60 NAOKFM=F Big=F
 Integral buffers will be    131072 words long.
 Raffenetti 2 integral format.
 Two-electron integral symmetry is turned off.
 Leave Link  301 at Sun May 25 03:53:01 2025, MaxMem=  3758096384 cpu:               0.1 elap:               0.0
 (Enter /apps/easybuild-2022/easybuild/software/Compiler/NVHPC/22.11-CUDA-11.7.0/Gaussian/g16c01-CUDA-11.7.0/g16/l302.exe)
 NPDir=0 NMtPBC=     1 NCelOv=     1 NCel=       1 NClECP=     1 NCelD=      1
         NCelK=      1 NCelE2=     1 NClLst=     1 CellRange=     0.0.
 One-electron integrals computed using PRISM.
   1 Symmetry operations used in ECPInt.
 ECPInt:  NShTT=    3486 NPrTT=   11183 LenC2=    3403 LenP2D=    8722.
 LDataN:  DoStor=T MaxTD1= 6 Len=  172
 NBasis=   231 RedAO= T EigKep=  3.45D-04  NBF=   231
 NBsUse=   231 1.00D-06 EigRej= -1.00D+00 NBFU=   231
 Precomputing XC quadrature grid using
 IXCGrd= 4 IRadAn=           5 IRanWt=          -1 IRanGd=           0 AccXCQ= 0.00D+00.
 Generated NRdTot=       0 NPtTot=           0 NUsed=           0 NTot=          32
 NSgBfM=   266   266   266   266   266 MxSgAt=     8 MxSgA2=     8.
 Leave Link  302 at Sun May 25 03:53:01 2025, MaxMem=  3758096384 cpu:               0.8 elap:               0.2
 (Enter /apps/easybuild-2022/easybuild/software/Compiler/NVHPC/22.11-CUDA-11.7.0/Gaussian/g16c01-CUDA-11.7.0/g16/l303.exe)
 DipDrv:  MaxL=1.
 Leave Link  303 at Sun May 25 03:53:01 2025, MaxMem=  3758096384 cpu:               0.1 elap:               0.0
 (Enter /apps/easybuild-2022/easybuild/software/Compiler/NVHPC/22.11-CUDA-11.7.0/Gaussian/g16c01-CUDA-11.7.0/g16/l401.exe)
 Initial guess from the checkpoint file:  "1141903082400600000001_intra_H_migration_2_8_IRC_R.chk"
 B after Tr=    -3.117697    1.001679   -0.546398
         Rot=    1.000000    0.000032    0.000038    0.000003 Ang=   0.01 deg.
 Guess basis will be translated and rotated to current coordinates.
 JPrj=2 DoOrth=T DoCkMO=T.
 Leave Link  401 at Sun May 25 03:53:01 2025, MaxMem=  3758096384 cpu:               0.3 elap:               0.1
 (Enter /apps/easybuild-2022/easybuild/software/Compiler/NVHPC/22.11-CUDA-11.7.0/Gaussian/g16c01-CUDA-11.7.0/g16/l502.exe)
 Keep R1 ints in memory in canonical form, NReq=368651279.
 FoFCou: FMM=F IPFlag=           0 FMFlag=           0 FMFlg1=           0
         NFxFlg=           0 DoJE=F BraDBF=F KetDBF=F FulRan=T
         wScrn=  0.000000 ICntrl=       600 IOpCl=  0 I1Cent=           0 NGrid=           0
         NMat0=    1 NMatS0=  26796 NMatT0=    0 NMatD0=    1 NMtDS0=    0 NMtDT0=    0
 Symmetry not used in FoFCou.
 Two-electron integral symmetry not used.
 Closed shell SCF:
 Using DIIS extrapolation, IDIIS=  1040.
 NGot=  3758096384 LenX=  3398923531 LenY=  3398851801
 Requested convergence on RMS density matrix=1.00D-08 within  32 cycles.
 Requested convergence on MAX density matrix=1.00D-06.
 Requested convergence on             energy=1.00D-06.
 No special actions if energy rises.

 Cycle   1  Pass 1  IDiag  1:
 E= -526.789139128317    
 DIIS: error= 3.67D-04 at cycle   1 NSaved=   1.
 NSaved= 1 IEnMin= 1 EnMin= -526.789139128317     IErMin= 1 ErrMin= 3.67D-04
 ErrMax= 3.67D-04  0.00D+00 EMaxC= 1.00D-01 BMatC= 3.13D-05 BMatP= 3.13D-05
 IDIUse=3 WtCom= 9.96D-01 WtEn= 3.67D-03
 Coeff-Com:  0.100D+01
 Coeff-En:   0.100D+01
 Coeff:      0.100D+01
 Gap=     0.402 Goal=   None    Shift=    0.000
 RMSDP=2.56D-05 MaxDP=9.00D-04              OVMax= 3.20D-03

 Cycle   2  Pass 1  IDiag  1:
 E= -526.789180773832     Delta-E=       -0.000041645516 Rises=F Damp=F
 DIIS: error= 2.12D-04 at cycle   2 NSaved=   2.
 NSaved= 2 IEnMin= 2 EnMin= -526.789180773832     IErMin= 2 ErrMin= 2.12D-04
 ErrMax= 2.12D-04  0.00D+00 EMaxC= 1.00D-01 BMatC= 7.53D-06 BMatP= 3.13D-05
 IDIUse=3 WtCom= 9.98D-01 WtEn= 2.12D-03
 Coeff-Com:  0.194D+00 0.806D+00
 Coeff-En:   0.000D+00 0.100D+01
 Coeff:      0.194D+00 0.806D+00
 Gap=     0.402 Goal=   None    Shift=    0.000
 RMSDP=1.24D-05 MaxDP=5.59D-04 DE=-4.16D-05 OVMax= 1.92D-03

 Cycle   3  Pass 1  IDiag  1:
 E= -526.789181582892     Delta-E=       -0.000000809059 Rises=F Damp=F
 DIIS: error= 4.00D-04 at cycle   3 NSaved=   3.
 NSaved= 3 IEnMin= 3 EnMin= -526.789181582892     IErMin= 2 ErrMin= 2.12D-04
 ErrMax= 4.00D-04  0.00D+00 EMaxC= 1.00D-01 BMatC= 9.78D-06 BMatP= 7.53D-06
 IDIUse=3 WtCom= 3.33D-01 WtEn= 6.67D-01
 Coeff-Com: -0.919D-01 0.566D+00 0.525D+00
 Coeff-En:   0.000D+00 0.469D+00 0.531D+00
 Coeff:     -0.306D-01 0.501D+00 0.529D+00
 Gap=     0.402 Goal=   None    Shift=    0.000
 RMSDP=7.88D-06 MaxDP=3.18D-04 DE=-8.09D-07 OVMax= 1.50D-03

 Cycle   4  Pass 1  IDiag  1:
 E= -526.789188662441     Delta-E=       -0.000007079549 Rises=F Damp=F
 DIIS: error= 6.45D-05 at cycle   4 NSaved=   4.
 NSaved= 4 IEnMin= 4 EnMin= -526.789188662441     IErMin= 4 ErrMin= 6.45D-05
 ErrMax= 6.45D-05  0.00D+00 EMaxC= 1.00D-01 BMatC= 6.23D-07 BMatP= 7.53D-06
 IDIUse=1 WtCom= 1.00D+00 WtEn= 0.00D+00
 Coeff-Com: -0.964D-02-0.164D+00 0.122D+00 0.105D+01
 Coeff:     -0.964D-02-0.164D+00 0.122D+00 0.105D+01
 Gap=     0.402 Goal=   None    Shift=    0.000
 RMSDP=3.36D-06 MaxDP=1.35D-04 DE=-7.08D-06 OVMax= 5.38D-04

 Cycle   5  Pass 1  IDiag  1:
 E= -526.789189372515     Delta-E=       -0.000000710074 Rises=F Damp=F
 DIIS: error= 1.23D-05 at cycle   5 NSaved=   5.
 NSaved= 5 IEnMin= 5 EnMin= -526.789189372515     IErMin= 5 ErrMin= 1.23D-05
 ErrMax= 1.23D-05  0.00D+00 EMaxC= 1.00D-01 BMatC= 8.88D-09 BMatP= 6.23D-07
 IDIUse=1 WtCom= 1.00D+00 WtEn= 0.00D+00
 Coeff-Com:  0.107D-01-0.702D-01-0.611D-01-0.148D-01 0.114D+01
 Coeff:      0.107D-01-0.702D-01-0.611D-01-0.148D-01 0.114D+01
 Gap=     0.402 Goal=   None    Shift=    0.000
 RMSDP=1.10D-06 MaxDP=3.49D-05 DE=-7.10D-07 OVMax= 1.62D-04

 Cycle   6  Pass 1  IDiag  1:
 E= -526.789189408310     Delta-E=       -0.000000035796 Rises=F Damp=F
 DIIS: error= 1.83D-06 at cycle   6 NSaved=   6.
 NSaved= 6 IEnMin= 6 EnMin= -526.789189408310     IErMin= 6 ErrMin= 1.83D-06
 ErrMax= 1.83D-06  0.00D+00 EMaxC= 1.00D-01 BMatC= 1.17D-09 BMatP= 8.88D-09
 IDIUse=1 WtCom= 1.00D+00 WtEn= 0.00D+00
 Coeff-Com:  0.327D-02-0.902D-02-0.211D-01-0.648D-01 0.327D+00 0.765D+00
 Coeff:      0.327D-02-0.902D-02-0.211D-01-0.648D-01 0.327D+00 0.765D+00
 Gap=     0.402 Goal=   None    Shift=    0.000
 RMSDP=1.60D-07 MaxDP=4.93D-06 DE=-3.58D-08 OVMax= 2.06D-05

 Cycle   7  Pass 1  IDiag  1:
 E= -526.789189409449     Delta-E=       -0.000000001139 Rises=F Damp=F
 DIIS: error= 1.01D-06 at cycle   7 NSaved=   7.
 NSaved= 7 IEnMin= 7 EnMin= -526.789189409449     IErMin= 7 ErrMin= 1.01D-06
 ErrMax= 1.01D-06  0.00D+00 EMaxC= 1.00D-01 BMatC= 3.73D-10 BMatP= 1.17D-09
 IDIUse=1 WtCom= 1.00D+00 WtEn= 0.00D+00
 Coeff-Com: -0.503D-03 0.101D-01 0.250D-02-0.330D-01-0.588D-01 0.370D+00
 Coeff-Com:  0.710D+00
 Coeff:     -0.503D-03 0.101D-01 0.250D-02-0.330D-01-0.588D-01 0.370D+00
 Coeff:      0.710D+00
 Gap=     0.402 Goal=   None    Shift=    0.000
 RMSDP=6.39D-08 MaxDP=1.81D-06 DE=-1.14D-09 OVMax= 7.13D-06

 Cycle   8  Pass 1  IDiag  1:
 E= -526.789189409733     Delta-E=       -0.000000000284 Rises=F Damp=F
 DIIS: error= 2.46D-07 at cycle   8 NSaved=   8.
 NSaved= 8 IEnMin= 8 EnMin= -526.789189409733     IErMin= 8 ErrMin= 2.46D-07
 ErrMax= 2.46D-07  0.00D+00 EMaxC= 1.00D-01 BMatC= 1.22D-11 BMatP= 3.73D-10
 IDIUse=1 WtCom= 1.00D+00 WtEn= 0.00D+00
 Coeff-Com: -0.278D-03 0.204D-02 0.222D-02-0.200D-02-0.318D-01 0.133D-01
 Coeff-Com:  0.928D-01 0.924D+00
 Coeff:     -0.278D-03 0.204D-02 0.222D-02-0.200D-02-0.318D-01 0.133D-01
 Coeff:      0.928D-01 0.924D+00
 Gap=     0.402 Goal=   None    Shift=    0.000
 RMSDP=1.74D-08 MaxDP=4.71D-07 DE=-2.84D-10 OVMax= 1.47D-06

 Cycle   9  Pass 1  IDiag  1:
 E= -526.789189409754     Delta-E=       -0.000000000021 Rises=F Damp=F
 DIIS: error= 5.52D-08 at cycle   9 NSaved=   9.
 NSaved= 9 IEnMin= 9 EnMin= -526.789189409754     IErMin= 9 ErrMin= 5.52D-08
 ErrMax= 5.52D-08  0.00D+00 EMaxC= 1.00D-01 BMatC= 5.97D-13 BMatP= 1.22D-11
 IDIUse=1 WtCom= 1.00D+00 WtEn= 0.00D+00
 Coeff-Com: -0.436D-05-0.346D-03 0.229D-03 0.144D-02-0.322D-03-0.168D-01
 Coeff-Com: -0.280D-01 0.873D-01 0.956D+00
 Coeff:     -0.436D-05-0.346D-03 0.229D-03 0.144D-02-0.322D-03-0.168D-01
 Coeff:     -0.280D-01 0.873D-01 0.956D+00
 Gap=     0.402 Goal=   None    Shift=    0.000
 RMSDP=4.26D-09 MaxDP=1.47D-07 DE=-2.14D-11 OVMax= 2.56D-07

 SCF Done:  E(RM062X) =  -526.789189410     A.U. after    9 cycles
            NFock=  9  Conv=0.43D-08     -V/T= 2.0037
 KE= 5.248599500221D+02 PE=-1.924508885411D+03 EE= 5.343793906976D+02
 Leave Link  502 at Sun May 25 03:53:08 2025, MaxMem=  3758096384 cpu:              38.2 elap:               7.0
 (Enter /apps/easybuild-2022/easybuild/software/Compiler/NVHPC/22.11-CUDA-11.7.0/Gaussian/g16c01-CUDA-11.7.0/g16/l508.exe)
 QCSCF skips out because SCF is already converged.
 Leave Link  508 at Sun May 25 03:53:08 2025, MaxMem=  3758096384 cpu:               0.0 elap:               0.0
 (Enter /apps/easybuild-2022/easybuild/software/Compiler/NVHPC/22.11-CUDA-11.7.0/Gaussian/g16c01-CUDA-11.7.0/g16/l801.exe)
 DoSCS=F DFT=T ScalE2(SS,OS)=  1.000000  1.000000
 Range of M.O.s used for correlation:     1   231
 NBasis=   231 NAE=    28 NBE=    28 NFC=     0 NFV=     0
 NROrb=    231 NOA=    28 NOB=    28 NVA=   203 NVB=   203

 **** Warning!!: The largest alpha MO coefficient is  0.16595107D+02

 Leave Link  801 at Sun May 25 03:53:08 2025, MaxMem=  3758096384 cpu:               0.1 elap:               0.0
 (Enter /apps/easybuild-2022/easybuild/software/Compiler/NVHPC/22.11-CUDA-11.7.0/Gaussian/g16c01-CUDA-11.7.0/g16/l1101.exe)
 Leave Link 1101 at Sun May 25 03:53:08 2025, MaxMem=  3758096384 cpu:               0.0 elap:               0.0
 (Enter /apps/easybuild-2022/easybuild/software/Compiler/NVHPC/22.11-CUDA-11.7.0/Gaussian/g16c01-CUDA-11.7.0/g16/l1102.exe)
 Symmetrizing basis deriv contribution to polar:
 IMax=3 JMax=2 DiffMx= 0.00D+00
 Leave Link 1102 at Sun May 25 03:53:08 2025, MaxMem=  3758096384 cpu:               0.1 elap:               0.0
 (Enter /apps/easybuild-2022/easybuild/software/Compiler/NVHPC/22.11-CUDA-11.7.0/Gaussian/g16c01-CUDA-11.7.0/g16/l1110.exe)
 Leave Link 1110 at Sun May 25 03:53:08 2025, MaxMem=  3758096384 cpu:               0.1 elap:               0.0
 (Enter /apps/easybuild-2022/easybuild/software/Compiler/NVHPC/22.11-CUDA-11.7.0/Gaussian/g16c01-CUDA-11.7.0/g16/l1002.exe)
 Minotr:  Closed shell wavefunction.
 Leave Link 1002 at Sun May 25 03:53:08 2025, MaxMem=  3758096384 cpu:               0.1 elap:               0.0
 (Enter /apps/easybuild-2022/easybuild/software/Compiler/NVHPC/22.11-CUDA-11.7.0/Gaussian/g16c01-CUDA-11.7.0/g16/l701.exe)
 ... and contract with generalized density number  0.
 Compute integral first derivatives.
   1 Symmetry operations used in ECPInt.
 ECPInt:  NShTT=    3486 NPrTT=   11183 LenC2=    3403 LenP2D=    8722.
 LDataN:  DoStor=T MaxTD1= 7 Len=  274
 Leave Link  701 at Sun May 25 03:53:08 2025, MaxMem=  3758096384 cpu:               0.4 elap:               0.1
 (Enter /apps/easybuild-2022/easybuild/software/Compiler/NVHPC/22.11-CUDA-11.7.0/Gaussian/g16c01-CUDA-11.7.0/g16/l702.exe)
 L702 exits ... SP integral derivatives will be done elsewhere.
 Leave Link  702 at Sun May 25 03:53:08 2025, MaxMem=  3758096384 cpu:               0.1 elap:               0.0
 (Enter /apps/easybuild-2022/easybuild/software/Compiler/NVHPC/22.11-CUDA-11.7.0/Gaussian/g16c01-CUDA-11.7.0/g16/l703.exe)
 Integral derivatives from FoFJK, PRISM(SPDF).
 Compute integral first derivatives, UseDBF=F ICtDFT=           0.
 Calling FoFJK, ICntrl=      2127 FMM=F ISym2X=0 I1Cent= 0 IOpClX= 0 NMat=1 NMatS=1 NMatT=0.
 FoFJK:  IHMeth= 1 ICntrl=    2127 DoSepK=F KAlg= 0 I1Cent=           0 FoldK=F
 IRaf=         0 NMat=       1 IRICut=       1 DoRegI=T DoRafI=F ISym2E= 0 IDoP0=0 IntGTp=1.
 FoFCou: FMM=F IPFlag=           0 FMFlag=      100000 FMFlg1=         800
         NFxFlg=           0 DoJE=F BraDBF=F KetDBF=F FulRan=T
         wScrn=  0.000000 ICntrl=      2127 IOpCl=  0 I1Cent=           0 NGrid=           0
         NMat0=    1 NMatS0=      1 NMatT0=    0 NMatD0=    1 NMtDS0=    0 NMtDT0=    0
 Symmetry not used in FoFCou.
 Leave Link  703 at Sun May 25 03:53:11 2025, MaxMem=  3758096384 cpu:              20.0 elap:               2.6
 (Enter /apps/easybuild-2022/easybuild/software/Compiler/NVHPC/22.11-CUDA-11.7.0/Gaussian/g16c01-CUDA-11.7.0/g16/l716.exe)
 Dipole        =-6.90958348D-02 3.95441902D-02-1.84941065D-01
 Polarizability= 0.00000000D+00 0.00000000D+00 0.00000000D+00
                 0.00000000D+00 0.00000000D+00 0.00000000D+00
 -------------------------------------------------------------------
 Center     Atomic                   Forces (Hartrees/Bohr)
 Number     Number              X              Y              Z
 -------------------------------------------------------------------
      1        6          -0.001589328    0.001244381    0.001238172
      2        8          -0.000875310    0.000894175   -0.001322429
      3        6          -0.000037339    0.000035817    0.000027599
      4        9           0.000049977   -0.000052605   -0.000033582
      5        9           0.000001284   -0.000017844   -0.000005786
      6        9           0.000053255   -0.000014398   -0.000035772
      7        8           0.000378570   -0.000512308    0.001712870
      8        1           0.002018890   -0.001577219   -0.001581072
 -------------------------------------------------------------------
 Cartesian Forces:  Max     0.002018890 RMS     0.000942947
 Leave Link  716 at Sun May 25 03:53:11 2025, MaxMem=  3758096384 cpu:               0.1 elap:               0.0
 (Enter /apps/easybuild-2022/easybuild/software/Compiler/NVHPC/22.11-CUDA-11.7.0/Gaussian/g16c01-CUDA-11.7.0/g16/l123.exe)
 IRC-IRC-IRC-IRC-IRC-IRC-IRC-IRC-IRC-IRC-IRC-IRC-IRC-IRC-IRC-IRC-IRC-IRC
 Pt  1 Step number   1 out of a maximum of  20
 Using modified Bulirsch-Stoer corrector integration.
   Using distance weighted interpolants to fit PES.
 PreDWI: IReCr0= 2 IReCr1= 1 IReCr2= 1 IReCr3= 1
 Modified Bulirsch-Stoer Extrapolation Cycles:
    EPS =    0.000010000000000
    Cycle     1 NS=    48
      PEZero:  N= 2 I= 1 D=  5.46D-05 Err=  1.05D-04
    Cycle     2 NS=    64 Truncation Error =  0.000104782
      PEZero:  N= 3 I= 2 D=  5.46D-05 Err=  6.99D-05
      PEZero:  N= 3 I= 1 D=  1.09D-04 Err=  6.15D-10
    Cycle     3 NS=    96 Truncation Error =  0.000000001
 BS completed in    3 cycles and     208 integration steps.
 Maximum DWI energy   std dev =  0.000000008 at pt    48
 Maximum DWI gradient std dev =  0.001737218 at pt     1
 SUMMARY OF CORRECTOR INTEGRATION:
   Predictor End Point Energy =  -526.789189
   Old End Point Energy       =  -526.789189
   Corrected End Point Energy =  -526.789189
   Predictor End-Start Dist.  =     0.020965
   Old End-Start Dist.        =     0.020965
   New End-Start Dist.        =     0.020965
   New End-Old End Dist.      =     0.000018
 CORRECTOR INTEGRATION CONVERGENCE:
   Recorrection delta-x convergence threshold:    0.010000
   Delta-x Convergence Met
 Point Number:   1          Path Number:   1
                    CURRENT STRUCTURE
                Cartesian Coordinates (Ang):                
 ---------------------------------------------------------------------
 Center     Atomic                     Coordinates (Angstroms)
 Number     Number                        X           Y           Z
 ---------------------------------------------------------------------
      1          6                   -0.355702    0.337250   -0.807371
      2          8                    0.095305    0.061048   -1.944842
      3          6                    0.213004   -0.226009    0.496553
      4          9                    0.898387   -1.332891    0.271491
      5          9                    1.021822    0.679841    1.035107
      6          9                   -0.764693   -0.488383    1.348563
      7          8                   -1.305440    1.154064   -0.845685
      8          1                   -0.877737    0.907794   -2.063605
 ---------------------------------------------------------------------
   CHANGE IN THE REACTION COORDINATE =    0.02096
   NET REACTION COORDINATE UP TO THIS POINT =    0.02096
  # OF POINTS ALONG THE PATH =   1
  # OF STEPS =   1

 Calculating another point on the path.
 Point Number  2 in REVERSE path direction.
 Using LQA Reaction Path Following.
   LQA: T_Est iteration completed in    3 iterations.
 IRC-IRC-IRC-IRC-IRC-IRC-IRC-IRC-IRC-IRC-IRC-IRC-IRC-IRC-IRC-IRC-IRC-IRC
 Leave Link  123 at Sun May 25 03:53:11 2025, MaxMem=  3758096384 cpu:               0.1 elap:               0.1
 (Enter /apps/easybuild-2022/easybuild/software/Compiler/NVHPC/22.11-CUDA-11.7.0/Gaussian/g16c01-CUDA-11.7.0/g16/l202.exe)
                          Input orientation:                          
 ---------------------------------------------------------------------
 Center     Atomic      Atomic             Coordinates (Angstroms)
 Number     Number       Type             X           Y           Z
 ---------------------------------------------------------------------
      1          6           0       -0.356169    0.337616   -0.807007
      2          8           0        0.095112    0.061245   -1.945133
      3          6           0        0.212993   -0.226000    0.496561
      4          9           0        0.898396   -1.332901    0.271485
      5          9           0        1.021823    0.679837    1.035106
      6          9           0       -0.764683   -0.488385    1.348556
      7          8           0       -1.305356    1.153951   -0.845307
      8          1           0       -0.870668    0.902274   -2.069145
 ---------------------------------------------------------------------
                    Distance matrix (angstroms):
                    1          2          3          4          5
     1  C    0.000000
     2  O    1.255136   0.000000
     3  C    1.530000   2.461357   0.000000
     4  F    2.351108   2.739034   1.321237   0.000000
     5  F    2.325803   3.181709   1.328449   2.156263   0.000000
     6  F    2.344273   3.448149   1.323099   2.153862   2.157451
     7  O    1.252528   2.089242   2.451583   3.505451   3.029274
     8  H    1.475310   1.286639   3.005024   3.688379   3.642441
                    6          7          8
     6  F    0.000000
     7  O    2.793319   0.000000
     8  H    3.691320   1.322903   0.000000
 Symmetry turned off by external request.
 Stoichiometry    C2HF3O2
 Rotational constants (GHZ):           4.1027380           2.3826329           2.0472015
 Leave Link  202 at Sun May 25 03:53:11 2025, MaxMem=  3758096384 cpu:               0.1 elap:               0.0
 (Enter /apps/easybuild-2022/easybuild/software/Compiler/NVHPC/22.11-CUDA-11.7.0/Gaussian/g16c01-CUDA-11.7.0/g16/l301.exe)
 Standard basis: def2TZVPP (5D, 7F)
 Ernie: Thresh=  0.10000D-02 Tol=  0.10000D-05 Strict=F.
   231 basis functions,   374 primitive gaussians,   267 cartesian basis functions
    28 alpha electrons       28 beta electrons
       nuclear repulsion energy       338.4808217651 Hartrees.
 IExCor= 4336 DFT=T Ex+Corr=M062X ExCW=0 ScaHFX=  0.540000
 ScaDFX=  1.000000  1.000000  1.000000  1.000000 ScalE2=  1.000000  1.000000
 IRadAn=      5 IRanWt=     -1 IRanGd=            0 ICorTp=0 IEmpDi=  4
 NAtoms=    8 NActive=    8 NUniq=    8 SFac= 1.00D+00 NAtFMM=   60 NAOKFM=F Big=F
 Integral buffers will be    131072 words long.
 Raffenetti 2 integral format.
 Two-electron integral symmetry is turned off.
 Leave Link  301 at Sun May 25 03:53:11 2025, MaxMem=  3758096384 cpu:               0.1 elap:               0.0
 (Enter /apps/easybuild-2022/easybuild/software/Compiler/NVHPC/22.11-CUDA-11.7.0/Gaussian/g16c01-CUDA-11.7.0/g16/l302.exe)
 NPDir=0 NMtPBC=     1 NCelOv=     1 NCel=       1 NClECP=     1 NCelD=      1
         NCelK=      1 NCelE2=     1 NClLst=     1 CellRange=     0.0.
 One-electron integrals computed using PRISM.
   1 Symmetry operations used in ECPInt.
 ECPInt:  NShTT=    3486 NPrTT=   11183 LenC2=    3403 LenP2D=    8720.
 LDataN:  DoStor=T MaxTD1= 6 Len=  172
 NBasis=   231 RedAO= T EigKep=  3.45D-04  NBF=   231
 NBsUse=   231 1.00D-06 EigRej= -1.00D+00 NBFU=   231
 Precomputing XC quadrature grid using
 IXCGrd= 4 IRadAn=           5 IRanWt=          -1 IRanGd=           0 AccXCQ= 0.00D+00.
 Generated NRdTot=       0 NPtTot=           0 NUsed=           0 NTot=          32
 NSgBfM=   266   266   266   266   266 MxSgAt=     8 MxSgA2=     8.
 Leave Link  302 at Sun May 25 03:53:11 2025, MaxMem=  3758096384 cpu:               0.8 elap:               0.2
 (Enter /apps/easybuild-2022/easybuild/software/Compiler/NVHPC/22.11-CUDA-11.7.0/Gaussian/g16c01-CUDA-11.7.0/g16/l303.exe)
 DipDrv:  MaxL=1.
 Leave Link  303 at Sun May 25 03:53:11 2025, MaxMem=  3758096384 cpu:               0.1 elap:               0.0
 (Enter /apps/easybuild-2022/easybuild/software/Compiler/NVHPC/22.11-CUDA-11.7.0/Gaussian/g16c01-CUDA-11.7.0/g16/l401.exe)
 Initial guess from the checkpoint file:  "1141903082400600000001_intra_H_migration_2_8_IRC_R.chk"
 B after Tr=     0.000112   -0.000087   -0.000088
         Rot=    1.000000    0.000032    0.000039    0.000002 Ang=   0.01 deg.
 Guess basis will be translated and rotated to current coordinates.
 JPrj=2 DoOrth=T DoCkMO=T.
 Generating alternative initial guess.
 ExpMin= 9.52D-02 ExpMax= 3.55D+04 ExpMxC= 1.21D+03 IAcc=3 IRadAn=         5 AccDes= 0.00D+00
 Harris functional with IExCor= 1009 and IRadAn=       5 diagonalized for initial guess.
 HarFok:  IExCor= 1009 AccDes= 0.00D+00 IRadAn=         5 IDoV= 1 UseB2=F ITyADJ=14
 ICtDFT=  3500011 ScaDFX=  1.000000  1.000000  1.000000  1.000000
 FoFCou: FMM=F IPFlag=           0 FMFlag=      100000 FMFlg1=           0
         NFxFlg=           0 DoJE=T BraDBF=F KetDBF=T FulRan=T
         wScrn=  0.000000 ICntrl=       500 IOpCl=  0 I1Cent=   200000004 NGrid=           0
         NMat0=    1 NMatS0=      1 NMatT0=    0 NMatD0=    1 NMtDS0=    0 NMtDT0=    0
 Symmetry not used in FoFCou.
 Harris En= -526.486454816941    
 Leave Link  401 at Sun May 25 03:53:12 2025, MaxMem=  3758096384 cpu:               2.1 elap:               0.4
 (Enter /apps/easybuild-2022/easybuild/software/Compiler/NVHPC/22.11-CUDA-11.7.0/Gaussian/g16c01-CUDA-11.7.0/g16/l502.exe)
 Keep R1 ints in memory in canonical form, NReq=368651279.
 FoFCou: FMM=F IPFlag=           0 FMFlag=           0 FMFlg1=           0
         NFxFlg=           0 DoJE=F BraDBF=F KetDBF=F FulRan=T
         wScrn=  0.000000 ICntrl=       600 IOpCl=  0 I1Cent=           0 NGrid=           0
         NMat0=    1 NMatS0=  26796 NMatT0=    0 NMatD0=    1 NMtDS0=    0 NMtDT0=    0
 Symmetry not used in FoFCou.
 Two-electron integral symmetry not used.
 Closed shell SCF:
 Using DIIS extrapolation, IDIIS=  1040.
 NGot=  3758096384 LenX=  3398923531 LenY=  3398851801
 Requested convergence on RMS density matrix=1.00D-08 within  32 cycles.
 Requested convergence on MAX density matrix=1.00D-06.
 Requested convergence on             energy=1.00D-06.
 No special actions if energy rises.
 Integral accuracy reduced to 1.0D-05 until final iterations.

 Cycle   1  Pass 0  IDiag  1:
 E= -526.789264543439    
 DIIS: error= 3.49D-04 at cycle   1 NSaved=   1.
 NSaved= 1 IEnMin= 1 EnMin= -526.789264543439     IErMin= 1 ErrMin= 3.49D-04
 ErrMax= 3.49D-04  0.00D+00 EMaxC= 1.00D-01 BMatC= 3.15D-05 BMatP= 3.15D-05
 IDIUse=3 WtCom= 9.97D-01 WtEn= 3.49D-03
 Coeff-Com:  0.100D+01
 Coeff-En:   0.100D+01
 Coeff:      0.100D+01
 Gap=     1.076 Goal=   None    Shift=    0.000
 RMSDP=2.65D-05 MaxDP=9.04D-04              OVMax= 3.18D-03

 Cycle   2  Pass 0  IDiag  1:
 E= -526.789306243201     Delta-E=       -0.000041699762 Rises=F Damp=F
 DIIS: error= 2.10D-04 at cycle   2 NSaved=   2.
 NSaved= 2 IEnMin= 2 EnMin= -526.789306243201     IErMin= 2 ErrMin= 2.10D-04
 ErrMax= 2.10D-04  0.00D+00 EMaxC= 1.00D-01 BMatC= 7.47D-06 BMatP= 3.15D-05
 IDIUse=3 WtCom= 9.98D-01 WtEn= 2.10D-03
 Coeff-Com:  0.191D+00 0.809D+00
 Coeff-En:   0.000D+00 0.100D+01
 Coeff:      0.191D+00 0.809D+00
 Gap=     0.402 Goal=   None    Shift=    0.000
 RMSDP=1.24D-05 MaxDP=5.56D-04 DE=-4.17D-05 OVMax= 1.92D-03

 Cycle   3  Pass 0  IDiag  1:
 E= -526.789306976282     Delta-E=       -0.000000733081 Rises=F Damp=F
 DIIS: error= 4.00D-04 at cycle   3 NSaved=   3.
 NSaved= 3 IEnMin= 3 EnMin= -526.789306976282     IErMin= 2 ErrMin= 2.10D-04
 ErrMax= 4.00D-04  0.00D+00 EMaxC= 1.00D-01 BMatC= 9.80D-06 BMatP= 7.47D-06
 IDIUse=3 WtCom= 3.33D-01 WtEn= 6.67D-01
 Coeff-Com: -0.904D-01 0.567D+00 0.523D+00
 Coeff-En:   0.000D+00 0.471D+00 0.529D+00
 Coeff:     -0.301D-01 0.503D+00 0.527D+00
 Gap=     0.401 Goal=   None    Shift=    0.000
 RMSDP=7.83D-06 MaxDP=3.17D-04 DE=-7.33D-07 OVMax= 1.49D-03

 Initial convergence to 1.0D-05 achieved.  Increase integral accuracy.
 Cycle   4  Pass 1  IDiag  1:
 E= -526.789287117500     Delta-E=        0.000019858782 Rises=F Damp=F
 DIIS: error= 6.38D-05 at cycle   1 NSaved=   1.
 NSaved= 1 IEnMin= 1 EnMin= -526.789287117500     IErMin= 1 ErrMin= 6.38D-05
 ErrMax= 6.38D-05  0.00D+00 EMaxC= 1.00D-01 BMatC= 9.26D-07 BMatP= 9.26D-07
 IDIUse=1 WtCom= 1.00D+00 WtEn= 0.00D+00
 Coeff-Com:  0.100D+01
 Coeff:      0.100D+01
 Gap=     0.402 Goal=   None    Shift=    0.000
 RMSDP=7.83D-06 MaxDP=3.17D-04 DE= 1.99D-05 OVMax= 7.10D-04

 Cycle   5  Pass 1  IDiag  1:
 E= -526.789286844707     Delta-E=        0.000000272792 Rises=F Damp=F
 DIIS: error= 1.60D-04 at cycle   2 NSaved=   2.
 NSaved= 2 IEnMin= 1 EnMin= -526.789287117500     IErMin= 1 ErrMin= 6.38D-05
 ErrMax= 1.60D-04  0.00D+00 EMaxC= 1.00D-01 BMatC= 1.68D-06 BMatP= 9.26D-07
 IDIUse=3 WtCom= 4.41D-01 WtEn= 5.59D-01
 Coeff-Com:  0.586D+00 0.414D+00
 Coeff-En:   0.582D+00 0.418D+00
 Coeff:      0.584D+00 0.416D+00
 Gap=     0.401 Goal=   None    Shift=    0.000
 RMSDP=2.98D-06 MaxDP=1.24D-04 DE= 2.73D-07 OVMax= 5.10D-04

 Cycle   6  Pass 1  IDiag  1:
 E= -526.789287993510     Delta-E=       -0.000001148803 Rises=F Damp=F
 DIIS: error= 2.05D-05 at cycle   3 NSaved=   3.
 NSaved= 3 IEnMin= 3 EnMin= -526.789287993510     IErMin= 3 ErrMin= 2.05D-05
 ErrMax= 2.05D-05  0.00D+00 EMaxC= 1.00D-01 BMatC= 6.91D-08 BMatP= 9.26D-07
 IDIUse=1 WtCom= 1.00D+00 WtEn= 0.00D+00
 Coeff-Com: -0.838D-01 0.132D+00 0.952D+00
 Coeff:     -0.838D-01 0.132D+00 0.952D+00
 Gap=     0.401 Goal=   None    Shift=    0.000
 RMSDP=1.20D-06 MaxDP=4.12D-05 DE=-1.15D-06 OVMax= 1.53D-04

 Cycle   7  Pass 1  IDiag  1:
 E= -526.789288070930     Delta-E=       -0.000000077420 Rises=F Damp=F
 DIIS: error= 4.12D-06 at cycle   4 NSaved=   4.
 NSaved= 4 IEnMin= 4 EnMin= -526.789288070930     IErMin= 4 ErrMin= 4.12D-06
 ErrMax= 4.12D-06  0.00D+00 EMaxC= 1.00D-01 BMatC= 1.72D-09 BMatP= 6.91D-08
 IDIUse=1 WtCom= 1.00D+00 WtEn= 0.00D+00
 Coeff-Com: -0.151D-02-0.378D-01-0.289D+00 0.133D+01
 Coeff:     -0.151D-02-0.378D-01-0.289D+00 0.133D+01
 Gap=     0.401 Goal=   None    Shift=    0.000
 RMSDP=4.45D-07 MaxDP=1.40D-05 DE=-7.74D-08 OVMax= 6.36D-05

 Cycle   8  Pass 1  IDiag  1:
 E= -526.789288077787     Delta-E=       -0.000000006857 Rises=F Damp=F
 DIIS: error= 9.31D-07 at cycle   5 NSaved=   5.
 NSaved= 5 IEnMin= 5 EnMin= -526.789288077787     IErMin= 5 ErrMin= 9.31D-07
 ErrMax= 9.31D-07  0.00D+00 EMaxC= 1.00D-01 BMatC= 3.54D-10 BMatP= 1.72D-09
 IDIUse=1 WtCom= 1.00D+00 WtEn= 0.00D+00
 Coeff-Com:  0.749D-02-0.248D-01-0.200D+00 0.490D+00 0.727D+00
 Coeff:      0.749D-02-0.248D-01-0.200D+00 0.490D+00 0.727D+00
 Gap=     0.401 Goal=   None    Shift=    0.000
 RMSDP=9.60D-08 MaxDP=2.83D-06 DE=-6.86D-09 OVMax= 1.35D-05

 Cycle   9  Pass 1  IDiag  1:
 E= -526.789288078239     Delta-E=       -0.000000000452 Rises=F Damp=F
 DIIS: error= 4.32D-07 at cycle   6 NSaved=   6.
 NSaved= 6 IEnMin= 6 EnMin= -526.789288078239     IErMin= 6 ErrMin= 4.32D-07
 ErrMax= 4.32D-07  0.00D+00 EMaxC= 1.00D-01 BMatC= 5.48D-11 BMatP= 3.54D-10
 IDIUse=1 WtCom= 1.00D+00 WtEn= 0.00D+00
 Coeff-Com:  0.354D-02-0.574D-02-0.534D-01 0.449D-01 0.312D+00 0.699D+00
 Coeff:      0.354D-02-0.574D-02-0.534D-01 0.449D-01 0.312D+00 0.699D+00
 Gap=     0.401 Goal=   None    Shift=    0.000
 RMSDP=3.02D-08 MaxDP=8.14D-07 DE=-4.52D-10 OVMax= 3.77D-06

 Cycle  10  Pass 1  IDiag  1:
 E= -526.789288078281     Delta-E=       -0.000000000042 Rises=F Damp=F
 DIIS: error= 1.07D-07 at cycle   7 NSaved=   7.
 NSaved= 7 IEnMin= 7 EnMin= -526.789288078281     IErMin= 7 ErrMin= 1.07D-07
 ErrMax= 1.07D-07  0.00D+00 EMaxC= 1.00D-01 BMatC= 2.42D-12 BMatP= 5.48D-11
 IDIUse=1 WtCom= 1.00D+00 WtEn= 0.00D+00
 Coeff-Com: -0.122D-03 0.191D-02 0.993D-02-0.397D-01-0.160D-01 0.129D+00
 Coeff-Com:  0.915D+00
 Coeff:     -0.122D-03 0.191D-02 0.993D-02-0.397D-01-0.160D-01 0.129D+00
 Coeff:      0.915D+00
 Gap=     0.401 Goal=   None    Shift=    0.000
 RMSDP=9.75D-09 MaxDP=3.93D-07 DE=-4.21D-11 OVMax= 7.35D-07

 SCF Done:  E(RM062X) =  -526.789288078     A.U. after   10 cycles
            NFock= 10  Conv=0.97D-08     -V/T= 2.0037
 KE= 5.248603143372D+02 PE=-1.924510323172D+03 EE= 5.343798989913D+02
 Leave Link  502 at Sun May 25 03:53:20 2025, MaxMem=  3758096384 cpu:              39.1 elap:               8.0
 (Enter /apps/easybuild-2022/easybuild/software/Compiler/NVHPC/22.11-CUDA-11.7.0/Gaussian/g16c01-CUDA-11.7.0/g16/l508.exe)
 QCSCF skips out because SCF is already converged.
 Leave Link  508 at Sun May 25 03:53:20 2025, MaxMem=  3758096384 cpu:               0.0 elap:               0.0
 (Enter /apps/easybuild-2022/easybuild/software/Compiler/NVHPC/22.11-CUDA-11.7.0/Gaussian/g16c01-CUDA-11.7.0/g16/l801.exe)
 DoSCS=F DFT=T ScalE2(SS,OS)=  1.000000  1.000000
 Range of M.O.s used for correlation:     1   231
 NBasis=   231 NAE=    28 NBE=    28 NFC=     0 NFV=     0
 NROrb=    231 NOA=    28 NOB=    28 NVA=   203 NVB=   203

 **** Warning!!: The largest alpha MO coefficient is  0.16521437D+02

 Leave Link  801 at Sun May 25 03:53:20 2025, MaxMem=  3758096384 cpu:               0.1 elap:               0.0
 (Enter /apps/easybuild-2022/easybuild/software/Compiler/NVHPC/22.11-CUDA-11.7.0/Gaussian/g16c01-CUDA-11.7.0/g16/l1101.exe)
 Leave Link 1101 at Sun May 25 03:53:20 2025, MaxMem=  3758096384 cpu:               0.1 elap:               0.0
 (Enter /apps/easybuild-2022/easybuild/software/Compiler/NVHPC/22.11-CUDA-11.7.0/Gaussian/g16c01-CUDA-11.7.0/g16/l1102.exe)
 Symmetrizing basis deriv contribution to polar:
 IMax=3 JMax=2 DiffMx= 0.00D+00
 Leave Link 1102 at Sun May 25 03:53:20 2025, MaxMem=  3758096384 cpu:               0.1 elap:               0.0
 (Enter /apps/easybuild-2022/easybuild/software/Compiler/NVHPC/22.11-CUDA-11.7.0/Gaussian/g16c01-CUDA-11.7.0/g16/l1110.exe)
 Leave Link 1110 at Sun May 25 03:53:20 2025, MaxMem=  3758096384 cpu:               0.1 elap:               0.0
 (Enter /apps/easybuild-2022/easybuild/software/Compiler/NVHPC/22.11-CUDA-11.7.0/Gaussian/g16c01-CUDA-11.7.0/g16/l1002.exe)
 Minotr:  Closed shell wavefunction.
 Leave Link 1002 at Sun May 25 03:53:20 2025, MaxMem=  3758096384 cpu:               0.1 elap:               0.0
 (Enter /apps/easybuild-2022/easybuild/software/Compiler/NVHPC/22.11-CUDA-11.7.0/Gaussian/g16c01-CUDA-11.7.0/g16/l701.exe)
 ... and contract with generalized density number  0.
 Compute integral first derivatives.
   1 Symmetry operations used in ECPInt.
 ECPInt:  NShTT=    3486 NPrTT=   11183 LenC2=    3403 LenP2D=    8720.
 LDataN:  DoStor=T MaxTD1= 7 Len=  274
 Leave Link  701 at Sun May 25 03:53:20 2025, MaxMem=  3758096384 cpu:               0.7 elap:               0.3
 (Enter /apps/easybuild-2022/easybuild/software/Compiler/NVHPC/22.11-CUDA-11.7.0/Gaussian/g16c01-CUDA-11.7.0/g16/l702.exe)
 L702 exits ... SP integral derivatives will be done elsewhere.
 Leave Link  702 at Sun May 25 03:53:20 2025, MaxMem=  3758096384 cpu:               0.1 elap:               0.0
 (Enter /apps/easybuild-2022/easybuild/software/Compiler/NVHPC/22.11-CUDA-11.7.0/Gaussian/g16c01-CUDA-11.7.0/g16/l703.exe)
 Integral derivatives from FoFJK, PRISM(SPDF).
 Compute integral first derivatives, UseDBF=F ICtDFT=           0.
 Calling FoFJK, ICntrl=      2127 FMM=F ISym2X=0 I1Cent= 0 IOpClX= 0 NMat=1 NMatS=1 NMatT=0.
 FoFJK:  IHMeth= 1 ICntrl=    2127 DoSepK=F KAlg= 0 I1Cent=           0 FoldK=F
 IRaf=         0 NMat=       1 IRICut=       1 DoRegI=T DoRafI=F ISym2E= 0 IDoP0=0 IntGTp=1.
 FoFCou: FMM=F IPFlag=           0 FMFlag=      100000 FMFlg1=         800
         NFxFlg=           0 DoJE=F BraDBF=F KetDBF=F FulRan=T
         wScrn=  0.000000 ICntrl=      2127 IOpCl=  0 I1Cent=           0 NGrid=           0
         NMat0=    1 NMatS0=      1 NMatT0=    0 NMatD0=    1 NMtDS0=    0 NMtDT0=    0
 Symmetry not used in FoFCou.
 Leave Link  703 at Sun May 25 03:53:24 2025, MaxMem=  3758096384 cpu:              25.3 elap:               3.5
 (Enter /apps/easybuild-2022/easybuild/software/Compiler/NVHPC/22.11-CUDA-11.7.0/Gaussian/g16c01-CUDA-11.7.0/g16/l716.exe)
 Dipole        =-6.03893643D-02 3.27740247D-02-1.91957151D-01
 Polarizability= 0.00000000D+00 0.00000000D+00 0.00000000D+00
                 0.00000000D+00 0.00000000D+00 0.00000000D+00
 -------------------------------------------------------------------
 Center     Atomic                   Forces (Hartrees/Bohr)
 Number     Number              X              Y              Z
 -------------------------------------------------------------------
      1        6          -0.003173297    0.002479334    0.002467329
      2        8          -0.001745652    0.001773929   -0.002643944
      3        6          -0.000078924    0.000067091    0.000052603
      4        9           0.000090867   -0.000108835   -0.000064383
      5        9           0.000012526   -0.000036485   -0.000014866
      6        9           0.000106880   -0.000018741   -0.000067376
      7        8           0.000757259   -0.001009770    0.003420964
      8        1           0.004030343   -0.003146522   -0.003150327
 -------------------------------------------------------------------
 Cartesian Forces:  Max     0.004030343 RMS     0.001880933
 Leave Link  716 at Sun May 25 03:53:24 2025, MaxMem=  3758096384 cpu:               0.1 elap:               0.0
 (Enter /apps/easybuild-2022/easybuild/software/Compiler/NVHPC/22.11-CUDA-11.7.0/Gaussian/g16c01-CUDA-11.7.0/g16/l123.exe)
 IRC-IRC-IRC-IRC-IRC-IRC-IRC-IRC-IRC-IRC-IRC-IRC-IRC-IRC-IRC-IRC-IRC-IRC
 Pt  2 Step number   1 out of a maximum of  20
 Using modified Bulirsch-Stoer corrector integration.
   Using distance weighted interpolants to fit PES.
 PreDWI: IReCr0= 2 IReCr1= 1 IReCr2= 1 IReCr3= 1
 Modified Bulirsch-Stoer Extrapolation Cycles:
    EPS =    0.000010000000000
    Cycle     1 NS=    48
      PEZero:  N= 2 I= 1 D=  1.09D-04 Err=  8.22D-08
    Cycle     2 NS=    64 Truncation Error =  0.000000082
 BS completed in    2 cycles and     112 integration steps.
 Maximum DWI energy   std dev =  0.000000014 at pt    49
 Maximum DWI gradient std dev =  0.000527488 at pt    27
 SUMMARY OF CORRECTOR INTEGRATION:
   Predictor End Point Energy =  -526.789288
   Old End Point Energy       =  -526.789288
   Corrected End Point Energy =  -526.789288
   Predictor End-Start Dist.  =     0.020958
   Old End-Start Dist.        =     0.020958
   New End-Start Dist.        =     0.020958
   New End-Old End Dist.      =     0.000010
 CORRECTOR INTEGRATION CONVERGENCE:
   Recorrection delta-x convergence threshold:    0.010000
   Delta-x Convergence Met
 Point Number:   2          Path Number:   1
                    CURRENT STRUCTURE
                Cartesian Coordinates (Ang):                
 ---------------------------------------------------------------------
 Center     Atomic                     Coordinates (Angstroms)
 Number     Number                        X           Y           Z
 ---------------------------------------------------------------------
      1          6                   -0.356170    0.337616   -0.807007
      2          8                    0.095112    0.061245   -1.945133
      3          6                    0.212993   -0.225999    0.496561
      4          9                    0.898396   -1.332901    0.271485
      5          9                    1.021823    0.679838    1.035106
      6          9                   -0.764683   -0.488385    1.348556
      7          8                   -1.305356    1.153952   -0.845307
      8          1                   -0.870667    0.902273   -2.069141
 ---------------------------------------------------------------------
   CHANGE IN THE REACTION COORDINATE =    0.02096
   NET REACTION COORDINATE UP TO THIS POINT =    0.04192
  # OF POINTS ALONG THE PATH =   2
  # OF STEPS =   1

 Calculating another point on the path.
 Point Number  3 in REVERSE path direction.
 Using LQA Reaction Path Following.
   LQA: T_Est iteration completed in    3 iterations.
 IRC-IRC-IRC-IRC-IRC-IRC-IRC-IRC-IRC-IRC-IRC-IRC-IRC-IRC-IRC-IRC-IRC-IRC
 Leave Link  123 at Sun May 25 03:53:24 2025, MaxMem=  3758096384 cpu:               0.1 elap:               0.1
 (Enter /apps/easybuild-2022/easybuild/software/Compiler/NVHPC/22.11-CUDA-11.7.0/Gaussian/g16c01-CUDA-11.7.0/g16/l202.exe)
                          Input orientation:                          
 ---------------------------------------------------------------------
 Center     Atomic      Atomic             Coordinates (Angstroms)
 Number     Number       Type             X           Y           Z
 ---------------------------------------------------------------------
      1          6           0       -0.356637    0.337981   -0.806644
      2          8           0        0.094919    0.061441   -1.945426
      3          6           0        0.212981   -0.225990    0.496569
      4          9           0        0.898405   -1.332911    0.271479
      5          9           0        1.021824    0.679834    1.035104
      6          9           0       -0.764673   -0.488386    1.348550
      7          8           0       -1.305272    1.153840   -0.844929
      8          1           0       -0.863592    0.896751   -2.074673
 ---------------------------------------------------------------------
                    Distance matrix (angstroms):
                    1          2          3          4          5
     1  C    0.000000
     2  O    1.255867   0.000000
     3  C    1.529997   2.461685   0.000000
     4  F    2.351459   2.739429   1.321267   0.000000
     5  F    2.325738   3.182000   1.328444   2.156270   0.000000
     6  F    2.343979   3.448403   1.323076   2.153864   2.157443
     7  O    1.251799   2.089250   2.451253   3.505209   3.028958
     8  H    1.475508   1.277964   3.005135   3.685167   3.643153
                    6          7          8
     6  F    0.000000
     7  O    2.792938   0.000000
     8  H    3.694163   1.331708   0.000000
 Symmetry turned off by external request.
 Stoichiometry    C2HF3O2
 Rotational constants (GHZ):           4.1027207           2.3826312           2.0471928
 Leave Link  202 at Sun May 25 03:53:24 2025, MaxMem=  3758096384 cpu:               0.1 elap:               0.0
 (Enter /apps/easybuild-2022/easybuild/software/Compiler/NVHPC/22.11-CUDA-11.7.0/Gaussian/g16c01-CUDA-11.7.0/g16/l301.exe)
 Standard basis: def2TZVPP (5D, 7F)
 Ernie: Thresh=  0.10000D-02 Tol=  0.10000D-05 Strict=F.
   231 basis functions,   374 primitive gaussians,   267 cartesian basis functions
    28 alpha electrons       28 beta electrons
       nuclear repulsion energy       338.4815606807 Hartrees.
 IExCor= 4336 DFT=T Ex+Corr=M062X ExCW=0 ScaHFX=  0.540000
 ScaDFX=  1.000000  1.000000  1.000000  1.000000 ScalE2=  1.000000  1.000000
 IRadAn=      5 IRanWt=     -1 IRanGd=            0 ICorTp=0 IEmpDi=  4
 NAtoms=    8 NActive=    8 NUniq=    8 SFac= 1.00D+00 NAtFMM=   60 NAOKFM=F Big=F
 Integral buffers will be    131072 words long.
 Raffenetti 2 integral format.
 Two-electron integral symmetry is turned off.
 Leave Link  301 at Sun May 25 03:53:24 2025, MaxMem=  3758096384 cpu:               0.1 elap:               0.1
 (Enter /apps/easybuild-2022/easybuild/software/Compiler/NVHPC/22.11-CUDA-11.7.0/Gaussian/g16c01-CUDA-11.7.0/g16/l302.exe)
 NPDir=0 NMtPBC=     1 NCelOv=     1 NCel=       1 NClECP=     1 NCelD=      1
         NCelK=      1 NCelE2=     1 NClLst=     1 CellRange=     0.0.
 One-electron integrals computed using PRISM.
   1 Symmetry operations used in ECPInt.
 ECPInt:  NShTT=    3486 NPrTT=   11183 LenC2=    3403 LenP2D=    8720.
 LDataN:  DoStor=T MaxTD1= 6 Len=  172
 NBasis=   231 RedAO= T EigKep=  3.45D-04  NBF=   231
 NBsUse=   231 1.00D-06 EigRej= -1.00D+00 NBFU=   231
 Precomputing XC quadrature grid using
 IXCGrd= 4 IRadAn=           5 IRanWt=          -1 IRanGd=           0 AccXCQ= 0.00D+00.
 Generated NRdTot=       0 NPtTot=           0 NUsed=           0 NTot=          32
 NSgBfM=   266   266   266   266   266 MxSgAt=     8 MxSgA2=     8.
 Leave Link  302 at Sun May 25 03:53:24 2025, MaxMem=  3758096384 cpu:               0.7 elap:               0.2
 (Enter /apps/easybuild-2022/easybuild/software/Compiler/NVHPC/22.11-CUDA-11.7.0/Gaussian/g16c01-CUDA-11.7.0/g16/l303.exe)
 DipDrv:  MaxL=1.
 Leave Link  303 at Sun May 25 03:53:24 2025, MaxMem=  3758096384 cpu:               0.2 elap:               0.1
 (Enter /apps/easybuild-2022/easybuild/software/Compiler/NVHPC/22.11-CUDA-11.7.0/Gaussian/g16c01-CUDA-11.7.0/g16/l401.exe)
 Initial guess from the checkpoint file:  "1141903082400600000001_intra_H_migration_2_8_IRC_R.chk"
 B after Tr=     0.000112   -0.000087   -0.000087
         Rot=    1.000000    0.000032    0.000038    0.000003 Ang=   0.01 deg.
 Guess basis will be translated and rotated to current coordinates.
 JPrj=2 DoOrth=T DoCkMO=T.
 Generating alternative initial guess.
 ExpMin= 9.52D-02 ExpMax= 3.55D+04 ExpMxC= 1.21D+03 IAcc=3 IRadAn=         5 AccDes= 0.00D+00
 Harris functional with IExCor= 1009 and IRadAn=       5 diagonalized for initial guess.
 HarFok:  IExCor= 1009 AccDes= 0.00D+00 IRadAn=         5 IDoV= 1 UseB2=F ITyADJ=14
 ICtDFT=  3500011 ScaDFX=  1.000000  1.000000  1.000000  1.000000
 FoFCou: FMM=F IPFlag=           0 FMFlag=      100000 FMFlg1=           0
         NFxFlg=           0 DoJE=T BraDBF=F KetDBF=T FulRan=T
         wScrn=  0.000000 ICntrl=       500 IOpCl=  0 I1Cent=   200000004 NGrid=           0
         NMat0=    1 NMatS0=      1 NMatT0=    0 NMatD0=    1 NMtDS0=    0 NMtDT0=    0
 Symmetry not used in FoFCou.
 Harris En= -526.486618717013    
 Leave Link  401 at Sun May 25 03:53:25 2025, MaxMem=  3758096384 cpu:               2.2 elap:               0.4
 (Enter /apps/easybuild-2022/easybuild/software/Compiler/NVHPC/22.11-CUDA-11.7.0/Gaussian/g16c01-CUDA-11.7.0/g16/l502.exe)
 Keep R1 ints in memory in canonical form, NReq=368651279.
 FoFCou: FMM=F IPFlag=           0 FMFlag=           0 FMFlg1=           0
         NFxFlg=           0 DoJE=F BraDBF=F KetDBF=F FulRan=T
         wScrn=  0.000000 ICntrl=       600 IOpCl=  0 I1Cent=           0 NGrid=           0
         NMat0=    1 NMatS0=  26796 NMatT0=    0 NMatD0=    1 NMtDS0=    0 NMtDT0=    0
 Symmetry not used in FoFCou.
 Two-electron integral symmetry not used.
 Closed shell SCF:
 Using DIIS extrapolation, IDIIS=  1040.
 NGot=  3758096384 LenX=  3398923531 LenY=  3398851801
 Requested convergence on RMS density matrix=1.00D-08 within  32 cycles.
 Requested convergence on MAX density matrix=1.00D-06.
 Requested convergence on             energy=1.00D-06.
 No special actions if energy rises.
 Integral accuracy reduced to 1.0D-05 until final iterations.

 Cycle   1  Pass 0  IDiag  1:
 E= -526.789428253314    
 DIIS: error= 3.24D-04 at cycle   1 NSaved=   1.
 NSaved= 1 IEnMin= 1 EnMin= -526.789428253314     IErMin= 1 ErrMin= 3.24D-04
 ErrMax= 3.24D-04  0.00D+00 EMaxC= 1.00D-01 BMatC= 3.15D-05 BMatP= 3.15D-05
 IDIUse=3 WtCom= 9.97D-01 WtEn= 3.24D-03
 Coeff-Com:  0.100D+01
 Coeff-En:   0.100D+01
 Coeff:      0.100D+01
 Gap=     1.076 Goal=   None    Shift=    0.000
 RMSDP=2.65D-05 MaxDP=9.14D-04              OVMax= 3.17D-03

 Cycle   2  Pass 0  IDiag  1:
 E= -526.789469800485     Delta-E=       -0.000041547171 Rises=F Damp=F
 DIIS: error= 2.08D-04 at cycle   2 NSaved=   2.
 NSaved= 2 IEnMin= 2 EnMin= -526.789469800485     IErMin= 2 ErrMin= 2.08D-04
 ErrMax= 2.08D-04  0.00D+00 EMaxC= 1.00D-01 BMatC= 7.45D-06 BMatP= 3.15D-05
 IDIUse=3 WtCom= 9.98D-01 WtEn= 2.08D-03
 Coeff-Com:  0.192D+00 0.808D+00
 Coeff-En:   0.000D+00 0.100D+01
 Coeff:      0.192D+00 0.808D+00
 Gap=     0.401 Goal=   None    Shift=    0.000
 RMSDP=1.24D-05 MaxDP=5.53D-04 DE=-4.15D-05 OVMax= 1.91D-03

 Cycle   3  Pass 0  IDiag  1:
 E= -526.789470515212     Delta-E=       -0.000000714727 Rises=F Damp=F
 DIIS: error= 3.98D-04 at cycle   3 NSaved=   3.
 NSaved= 3 IEnMin= 3 EnMin= -526.789470515212     IErMin= 2 ErrMin= 2.08D-04
 ErrMax= 3.98D-04  0.00D+00 EMaxC= 1.00D-01 BMatC= 9.74D-06 BMatP= 7.45D-06
 IDIUse=3 WtCom= 3.34D-01 WtEn= 6.66D-01
 Coeff-Com: -0.886D-01 0.566D+00 0.522D+00
 Coeff-En:   0.000D+00 0.472D+00 0.528D+00
 Coeff:     -0.296D-01 0.503D+00 0.526D+00
 Gap=     0.401 Goal=   None    Shift=    0.000
 RMSDP=7.79D-06 MaxDP=3.16D-04 DE=-7.15D-07 OVMax= 1.49D-03

 Initial convergence to 1.0D-05 achieved.  Increase integral accuracy.
 Cycle   4  Pass 1  IDiag  1:
 E= -526.789451049618     Delta-E=        0.000019465593 Rises=F Damp=F
 DIIS: error= 6.27D-05 at cycle   1 NSaved=   1.
 NSaved= 1 IEnMin= 1 EnMin= -526.789451049618     IErMin= 1 ErrMin= 6.27D-05
 ErrMax= 6.27D-05  0.00D+00 EMaxC= 1.00D-01 BMatC= 9.12D-07 BMatP= 9.12D-07
 IDIUse=1 WtCom= 1.00D+00 WtEn= 0.00D+00
 Coeff-Com:  0.100D+01
 Coeff:      0.100D+01
 Gap=     0.401 Goal=   None    Shift=    0.000
 RMSDP=7.79D-06 MaxDP=3.16D-04 DE= 1.95D-05 OVMax= 7.01D-04

 Cycle   5  Pass 1  IDiag  1:
 E= -526.789450792430     Delta-E=        0.000000257189 Rises=F Damp=F
 DIIS: error= 1.58D-04 at cycle   2 NSaved=   2.
 NSaved= 2 IEnMin= 1 EnMin= -526.789451049618     IErMin= 1 ErrMin= 6.27D-05
 ErrMax= 1.58D-04  0.00D+00 EMaxC= 1.00D-01 BMatC= 1.64D-06 BMatP= 9.12D-07
 IDIUse=3 WtCom= 4.43D-01 WtEn= 5.57D-01
 Coeff-Com:  0.585D+00 0.415D+00
 Coeff-En:   0.579D+00 0.421D+00
 Coeff:      0.582D+00 0.418D+00
 Gap=     0.401 Goal=   None    Shift=    0.000
 RMSDP=2.96D-06 MaxDP=1.22D-04 DE= 2.57D-07 OVMax= 5.06D-04

 Cycle   6  Pass 1  IDiag  1:
 E= -526.789451909491     Delta-E=       -0.000001117062 Rises=F Damp=F
 DIIS: error= 2.06D-05 at cycle   3 NSaved=   3.
 NSaved= 3 IEnMin= 3 EnMin= -526.789451909491     IErMin= 3 ErrMin= 2.06D-05
 ErrMax= 2.06D-05  0.00D+00 EMaxC= 1.00D-01 BMatC= 7.10D-08 BMatP= 9.12D-07
 IDIUse=1 WtCom= 1.00D+00 WtEn= 0.00D+00
 Coeff-Com: -0.833D-01 0.136D+00 0.947D+00
 Coeff:     -0.833D-01 0.136D+00 0.947D+00
 Gap=     0.401 Goal=   None    Shift=    0.000
 RMSDP=1.20D-06 MaxDP=4.11D-05 DE=-1.12D-06 OVMax= 1.52D-04

 Cycle   7  Pass 1  IDiag  1:
 E= -526.789451987332     Delta-E=       -0.000000077840 Rises=F Damp=F
 DIIS: error= 4.07D-06 at cycle   4 NSaved=   4.
 NSaved= 4 IEnMin= 4 EnMin= -526.789451987332     IErMin= 4 ErrMin= 4.07D-06
 ErrMax= 4.07D-06  0.00D+00 EMaxC= 1.00D-01 BMatC= 1.69D-09 BMatP= 7.10D-08
 IDIUse=1 WtCom= 1.00D+00 WtEn= 0.00D+00
 Coeff-Com: -0.142D-02-0.390D-01-0.289D+00 0.133D+01
 Coeff:     -0.142D-02-0.390D-01-0.289D+00 0.133D+01
 Gap=     0.401 Goal=   None    Shift=    0.000
 RMSDP=4.41D-07 MaxDP=1.40D-05 DE=-7.78D-08 OVMax= 6.30D-05

 Cycle   8  Pass 1  IDiag  1:
 E= -526.789451994026     Delta-E=       -0.000000006694 Rises=F Damp=F
 DIIS: error= 9.08D-07 at cycle   5 NSaved=   5.
 NSaved= 5 IEnMin= 5 EnMin= -526.789451994026     IErMin= 5 ErrMin= 9.08D-07
 ErrMax= 9.08D-07  0.00D+00 EMaxC= 1.00D-01 BMatC= 3.56D-10 BMatP= 1.69D-09
 IDIUse=1 WtCom= 1.00D+00 WtEn= 0.00D+00
 Coeff-Com:  0.750D-02-0.258D-01-0.200D+00 0.497D+00 0.721D+00
 Coeff:      0.750D-02-0.258D-01-0.200D+00 0.497D+00 0.721D+00
 Gap=     0.401 Goal=   None    Shift=    0.000
 RMSDP=9.46D-08 MaxDP=2.78D-06 DE=-6.69D-09 OVMax= 1.32D-05

 Cycle   9  Pass 1  IDiag  1:
 E= -526.789451994457     Delta-E=       -0.000000000432 Rises=F Damp=F
 DIIS: error= 4.18D-07 at cycle   6 NSaved=   6.
 NSaved= 6 IEnMin= 6 EnMin= -526.789451994457     IErMin= 6 ErrMin= 4.18D-07
 ErrMax= 4.18D-07  0.00D+00 EMaxC= 1.00D-01 BMatC= 5.73D-11 BMatP= 3.56D-10
 IDIUse=1 WtCom= 1.00D+00 WtEn= 0.00D+00
 Coeff-Com:  0.355D-02-0.609D-02-0.540D-01 0.467D-01 0.315D+00 0.694D+00
 Coeff:      0.355D-02-0.609D-02-0.540D-01 0.467D-01 0.315D+00 0.694D+00
 Gap=     0.401 Goal=   None    Shift=    0.000
 RMSDP=3.05D-08 MaxDP=8.98D-07 DE=-4.32D-10 OVMax= 3.82D-06

 Cycle  10  Pass 1  IDiag  1:
 E= -526.789451994521     Delta-E=       -0.000000000064 Rises=F Damp=F
 DIIS: error= 1.02D-07 at cycle   7 NSaved=   7.
 NSaved= 7 IEnMin= 7 EnMin= -526.789451994521     IErMin= 7 ErrMin= 1.02D-07
 ErrMax= 1.02D-07  0.00D+00 EMaxC= 1.00D-01 BMatC= 2.55D-12 BMatP= 5.73D-11
 IDIUse=1 WtCom= 1.00D+00 WtEn= 0.00D+00
 Coeff-Com: -0.532D-04 0.184D-02 0.888D-02-0.388D-01-0.105D-01 0.136D+00
 Coeff-Com:  0.903D+00
 Coeff:     -0.532D-04 0.184D-02 0.888D-02-0.388D-01-0.105D-01 0.136D+00
 Coeff:      0.903D+00
 Gap=     0.401 Goal=   None    Shift=    0.000
 RMSDP=9.79D-09 MaxDP=3.87D-07 DE=-6.37D-11 OVMax= 7.36D-07

 SCF Done:  E(RM062X) =  -526.789451995     A.U. after   10 cycles
            NFock= 10  Conv=0.98D-08     -V/T= 2.0037
 KE= 5.248609121777D+02 PE=-1.924512601850D+03 EE= 5.343806769974D+02
 Leave Link  502 at Sun May 25 03:53:32 2025, MaxMem=  3758096384 cpu:              40.1 elap:               7.6
 (Enter /apps/easybuild-2022/easybuild/software/Compiler/NVHPC/22.11-CUDA-11.7.0/Gaussian/g16c01-CUDA-11.7.0/g16/l508.exe)
 QCSCF skips out because SCF is already converged.
 Leave Link  508 at Sun May 25 03:53:32 2025, MaxMem=  3758096384 cpu:               0.1 elap:               0.0
 (Enter /apps/easybuild-2022/easybuild/software/Compiler/NVHPC/22.11-CUDA-11.7.0/Gaussian/g16c01-CUDA-11.7.0/g16/l801.exe)
 DoSCS=F DFT=T ScalE2(SS,OS)=  1.000000  1.000000
 Range of M.O.s used for correlation:     1   231
 NBasis=   231 NAE=    28 NBE=    28 NFC=     0 NFV=     0
 NROrb=    231 NOA=    28 NOB=    28 NVA=   203 NVB=   203

 **** Warning!!: The largest alpha MO coefficient is  0.16320689D+02

 Leave Link  801 at Sun May 25 03:53:32 2025, MaxMem=  3758096384 cpu:               0.1 elap:               0.0
 (Enter /apps/easybuild-2022/easybuild/software/Compiler/NVHPC/22.11-CUDA-11.7.0/Gaussian/g16c01-CUDA-11.7.0/g16/l1101.exe)
 Leave Link 1101 at Sun May 25 03:53:32 2025, MaxMem=  3758096384 cpu:               0.1 elap:               0.0
 (Enter /apps/easybuild-2022/easybuild/software/Compiler/NVHPC/22.11-CUDA-11.7.0/Gaussian/g16c01-CUDA-11.7.0/g16/l1102.exe)
 Symmetrizing basis deriv contribution to polar:
 IMax=3 JMax=2 DiffMx= 0.00D+00
 Leave Link 1102 at Sun May 25 03:53:32 2025, MaxMem=  3758096384 cpu:               0.1 elap:               0.1
 (Enter /apps/easybuild-2022/easybuild/software/Compiler/NVHPC/22.11-CUDA-11.7.0/Gaussian/g16c01-CUDA-11.7.0/g16/l1110.exe)
 Leave Link 1110 at Sun May 25 03:53:32 2025, MaxMem=  3758096384 cpu:               0.1 elap:               0.0
 (Enter /apps/easybuild-2022/easybuild/software/Compiler/NVHPC/22.11-CUDA-11.7.0/Gaussian/g16c01-CUDA-11.7.0/g16/l1002.exe)
 Minotr:  Closed shell wavefunction.
 Leave Link 1002 at Sun May 25 03:53:32 2025, MaxMem=  3758096384 cpu:               0.1 elap:               0.0
 (Enter /apps/easybuild-2022/easybuild/software/Compiler/NVHPC/22.11-CUDA-11.7.0/Gaussian/g16c01-CUDA-11.7.0/g16/l701.exe)
 ... and contract with generalized density number  0.
 Compute integral first derivatives.
   1 Symmetry operations used in ECPInt.
 ECPInt:  NShTT=    3486 NPrTT=   11183 LenC2=    3403 LenP2D=    8720.
 LDataN:  DoStor=T MaxTD1= 7 Len=  274
 Leave Link  701 at Sun May 25 03:53:33 2025, MaxMem=  3758096384 cpu:               0.8 elap:               0.2
 (Enter /apps/easybuild-2022/easybuild/software/Compiler/NVHPC/22.11-CUDA-11.7.0/Gaussian/g16c01-CUDA-11.7.0/g16/l702.exe)
 L702 exits ... SP integral derivatives will be done elsewhere.
 Leave Link  702 at Sun May 25 03:53:33 2025, MaxMem=  3758096384 cpu:               0.1 elap:               0.0
 (Enter /apps/easybuild-2022/easybuild/software/Compiler/NVHPC/22.11-CUDA-11.7.0/Gaussian/g16c01-CUDA-11.7.0/g16/l703.exe)
 Integral derivatives from FoFJK, PRISM(SPDF).
 Compute integral first derivatives, UseDBF=F ICtDFT=           0.
 Calling FoFJK, ICntrl=      2127 FMM=F ISym2X=0 I1Cent= 0 IOpClX= 0 NMat=1 NMatS=1 NMatT=0.
 FoFJK:  IHMeth= 1 ICntrl=    2127 DoSepK=F KAlg= 0 I1Cent=           0 FoldK=F
 IRaf=         0 NMat=       1 IRICut=       1 DoRegI=T DoRafI=F ISym2E= 0 IDoP0=0 IntGTp=1.
 FoFCou: FMM=F IPFlag=           0 FMFlag=      100000 FMFlg1=         800
         NFxFlg=           0 DoJE=F BraDBF=F KetDBF=F FulRan=T
         wScrn=  0.000000 ICntrl=      2127 IOpCl=  0 I1Cent=           0 NGrid=           0
         NMat0=    1 NMatS0=      1 NMatT0=    0 NMatD0=    1 NMtDS0=    0 NMtDT0=    0
 Symmetry not used in FoFCou.
 Leave Link  703 at Sun May 25 03:53:37 2025, MaxMem=  3758096384 cpu:              25.6 elap:               4.8
 (Enter /apps/easybuild-2022/easybuild/software/Compiler/NVHPC/22.11-CUDA-11.7.0/Gaussian/g16c01-CUDA-11.7.0/g16/l716.exe)
 Dipole        =-5.17629594D-02 2.60751088D-02-1.99027202D-01
 Polarizability= 0.00000000D+00 0.00000000D+00 0.00000000D+00
                 0.00000000D+00 0.00000000D+00 0.00000000D+00
 -------------------------------------------------------------------
 Center     Atomic                   Forces (Hartrees/Bohr)
 Number     Number              X              Y              Z
 -------------------------------------------------------------------
      1        6          -0.004746913    0.003705359    0.003687610
      2        8          -0.002600398    0.002639176   -0.003960988
      3        6          -0.000120406    0.000099962    0.000075086
      4        9           0.000131943   -0.000165169   -0.000095475
      5        9           0.000023946   -0.000055410   -0.000022863
      6        9           0.000159553   -0.000022995   -0.000097710
      7        8           0.001128729   -0.001499174    0.005114768
      8        1           0.006023545   -0.004701750   -0.004700428
 -------------------------------------------------------------------
 Cartesian Forces:  Max     0.006023545 RMS     0.002810454
 Leave Link  716 at Sun May 25 03:53:38 2025, MaxMem=  3758096384 cpu:               0.1 elap:               0.0
 (Enter /apps/easybuild-2022/easybuild/software/Compiler/NVHPC/22.11-CUDA-11.7.0/Gaussian/g16c01-CUDA-11.7.0/g16/l123.exe)
 IRC-IRC-IRC-IRC-IRC-IRC-IRC-IRC-IRC-IRC-IRC-IRC-IRC-IRC-IRC-IRC-IRC-IRC
 Pt  3 Step number   1 out of a maximum of  20
 Using modified Bulirsch-Stoer corrector integration.
   Using distance weighted interpolants to fit PES.
 PreDWI: IReCr0= 2 IReCr1= 1 IReCr2= 1 IReCr3= 1
 Modified Bulirsch-Stoer Extrapolation Cycles:
    EPS =    0.000010000000000
    Cycle     1 NS=    48
      PEZero:  N= 2 I= 1 D=  1.09D-04 Err=  9.51D-08
    Cycle     2 NS=    64 Truncation Error =  0.000000095
 BS completed in    2 cycles and     112 integration steps.
 Maximum DWI energy   std dev =  0.000000034 at pt    36
 Maximum DWI gradient std dev =  0.000310168 at pt    28
 SUMMARY OF CORRECTOR INTEGRATION:
   Predictor End Point Energy =  -526.789452
   Old End Point Energy       =  -526.789452
   Corrected End Point Energy =  -526.789452
   Predictor End-Start Dist.  =     0.020959
   Old End-Start Dist.        =     0.020959
   New End-Start Dist.        =     0.020959
   New End-Old End Dist.      =     0.000007
 CORRECTOR INTEGRATION CONVERGENCE:
   Recorrection delta-x convergence threshold:    0.010000
   Delta-x Convergence Met
 Point Number:   3          Path Number:   1
                    CURRENT STRUCTURE
                Cartesian Coordinates (Ang):                
 ---------------------------------------------------------------------
 Center     Atomic                     Coordinates (Angstroms)
 Number     Number                        X           Y           Z
 ---------------------------------------------------------------------
      1          6                   -0.356638    0.337981   -0.806644
      2          8                    0.094919    0.061441   -1.945426
      3          6                    0.212981   -0.225990    0.496569
      4          9                    0.898405   -1.332911    0.271479
      5          9                    1.021824    0.679834    1.035105
      6          9                   -0.764673   -0.488386    1.348550
      7          8                   -1.305272    1.153840   -0.844929
      8          1                   -0.863591    0.896750   -2.074670
 ---------------------------------------------------------------------
   CHANGE IN THE REACTION COORDINATE =    0.02096
   NET REACTION COORDINATE UP TO THIS POINT =    0.06288
  # OF POINTS ALONG THE PATH =   3
  # OF STEPS =   1

 Calculating another point on the path.
 Point Number  4 in REVERSE path direction.
 Using LQA Reaction Path Following.
   LQA: T_Est iteration completed in    3 iterations.
 IRC-IRC-IRC-IRC-IRC-IRC-IRC-IRC-IRC-IRC-IRC-IRC-IRC-IRC-IRC-IRC-IRC-IRC
 Leave Link  123 at Sun May 25 03:53:38 2025, MaxMem=  3758096384 cpu:               0.1 elap:               0.1
 (Enter /apps/easybuild-2022/easybuild/software/Compiler/NVHPC/22.11-CUDA-11.7.0/Gaussian/g16c01-CUDA-11.7.0/g16/l202.exe)
                          Input orientation:                          
 ---------------------------------------------------------------------
 Center     Atomic      Atomic             Coordinates (Angstroms)
 Number     Number       Type             X           Y           Z
 ---------------------------------------------------------------------
      1          6           0       -0.357106    0.338347   -0.806280
      2          8           0        0.094727    0.061636   -1.945720
      3          6           0        0.212969   -0.225980    0.496576
      4          9           0        0.898413   -1.332922    0.271473
      5          9           0        1.021826    0.679831    1.035103
      6          9           0       -0.764663   -0.488388    1.348544
      7          8           0       -1.305189    1.153729   -0.844550
      8          1           0       -0.856513    0.891225   -2.080193
 ---------------------------------------------------------------------
                    Distance matrix (angstroms):
                    1          2          3          4          5
     1  C    0.000000
     2  O    1.256601   0.000000
     3  C    1.529994   2.462014   0.000000
     4  F    2.351811   2.739826   1.321297   0.000000
     5  F    2.325673   3.182292   1.328440   2.156278   0.000000
     6  F    2.343684   3.448659   1.323054   2.153866   2.157434
     7  O    1.251069   2.089260   2.450922   3.504968   3.028642
     8  H    1.475784   1.269314   3.005275   3.681973   3.643887
                    6          7          8
     6  F    0.000000
     7  O    2.792558   0.000000
     8  H    3.697027   1.340534   0.000000
 Symmetry turned off by external request.
 Stoichiometry    C2HF3O2
 Rotational constants (GHZ):           4.1026938           2.3826293           2.0471818
 Leave Link  202 at Sun May 25 03:53:38 2025, MaxMem=  3758096384 cpu:               0.1 elap:               0.0
 (Enter /apps/easybuild-2022/easybuild/software/Compiler/NVHPC/22.11-CUDA-11.7.0/Gaussian/g16c01-CUDA-11.7.0/g16/l301.exe)
 Standard basis: def2TZVPP (5D, 7F)
 Ernie: Thresh=  0.10000D-02 Tol=  0.10000D-05 Strict=F.
   231 basis functions,   374 primitive gaussians,   267 cartesian basis functions
    28 alpha electrons       28 beta electrons
       nuclear repulsion energy       338.4825851048 Hartrees.
 IExCor= 4336 DFT=T Ex+Corr=M062X ExCW=0 ScaHFX=  0.540000
 ScaDFX=  1.000000  1.000000  1.000000  1.000000 ScalE2=  1.000000  1.000000
 IRadAn=      5 IRanWt=     -1 IRanGd=            0 ICorTp=0 IEmpDi=  4
 NAtoms=    8 NActive=    8 NUniq=    8 SFac= 1.00D+00 NAtFMM=   60 NAOKFM=F Big=F
 Integral buffers will be    131072 words long.
 Raffenetti 2 integral format.
 Two-electron integral symmetry is turned off.
 Leave Link  301 at Sun May 25 03:53:38 2025, MaxMem=  3758096384 cpu:               0.1 elap:               0.0
 (Enter /apps/easybuild-2022/easybuild/software/Compiler/NVHPC/22.11-CUDA-11.7.0/Gaussian/g16c01-CUDA-11.7.0/g16/l302.exe)
 NPDir=0 NMtPBC=     1 NCelOv=     1 NCel=       1 NClECP=     1 NCelD=      1
         NCelK=      1 NCelE2=     1 NClLst=     1 CellRange=     0.0.
 One-electron integrals computed using PRISM.
   1 Symmetry operations used in ECPInt.
 ECPInt:  NShTT=    3486 NPrTT=   11183 LenC2=    3403 LenP2D=    8720.
 LDataN:  DoStor=T MaxTD1= 6 Len=  172
 NBasis=   231 RedAO= T EigKep=  3.45D-04  NBF=   231
 NBsUse=   231 1.00D-06 EigRej= -1.00D+00 NBFU=   231
 Precomputing XC quadrature grid using
 IXCGrd= 4 IRadAn=           5 IRanWt=          -1 IRanGd=           0 AccXCQ= 0.00D+00.
 Generated NRdTot=       0 NPtTot=           0 NUsed=           0 NTot=          32
 NSgBfM=   266   266   266   266   266 MxSgAt=     8 MxSgA2=     8.
 Leave Link  302 at Sun May 25 03:53:38 2025, MaxMem=  3758096384 cpu:               0.7 elap:               0.2
 (Enter /apps/easybuild-2022/easybuild/software/Compiler/NVHPC/22.11-CUDA-11.7.0/Gaussian/g16c01-CUDA-11.7.0/g16/l303.exe)
 DipDrv:  MaxL=1.
 Leave Link  303 at Sun May 25 03:53:38 2025, MaxMem=  3758096384 cpu:               0.1 elap:               0.1
 (Enter /apps/easybuild-2022/easybuild/software/Compiler/NVHPC/22.11-CUDA-11.7.0/Gaussian/g16c01-CUDA-11.7.0/g16/l401.exe)
 Initial guess from the checkpoint file:  "1141903082400600000001_intra_H_migration_2_8_IRC_R.chk"
 B after Tr=     0.000112   -0.000087   -0.000087
         Rot=    1.000000    0.000032    0.000038    0.000003 Ang=   0.01 deg.
 Guess basis will be translated and rotated to current coordinates.
 JPrj=2 DoOrth=T DoCkMO=T.
 Generating alternative initial guess.
 ExpMin= 9.52D-02 ExpMax= 3.55D+04 ExpMxC= 1.21D+03 IAcc=3 IRadAn=         5 AccDes= 0.00D+00
 Harris functional with IExCor= 1009 and IRadAn=       5 diagonalized for initial guess.
 HarFok:  IExCor= 1009 AccDes= 0.00D+00 IRadAn=         5 IDoV= 1 UseB2=F ITyADJ=14
 ICtDFT=  3500011 ScaDFX=  1.000000  1.000000  1.000000  1.000000
 FoFCou: FMM=F IPFlag=           0 FMFlag=      100000 FMFlg1=           0
         NFxFlg=           0 DoJE=T BraDBF=F KetDBF=T FulRan=T
         wScrn=  0.000000 ICntrl=       500 IOpCl=  0 I1Cent=   200000004 NGrid=           0
         NMat0=    1 NMatS0=      1 NMatT0=    0 NMatD0=    1 NMtDS0=    0 NMtDT0=    0
 Symmetry not used in FoFCou.
 Harris En= -526.486845739374    
 Leave Link  401 at Sun May 25 03:53:38 2025, MaxMem=  3758096384 cpu:               2.2 elap:               0.4
 (Enter /apps/easybuild-2022/easybuild/software/Compiler/NVHPC/22.11-CUDA-11.7.0/Gaussian/g16c01-CUDA-11.7.0/g16/l502.exe)
 Keep R1 ints in memory in canonical form, NReq=368651279.
 FoFCou: FMM=F IPFlag=           0 FMFlag=           0 FMFlg1=           0
         NFxFlg=           0 DoJE=F BraDBF=F KetDBF=F FulRan=T
         wScrn=  0.000000 ICntrl=       600 IOpCl=  0 I1Cent=           0 NGrid=           0
         NMat0=    1 NMatS0=  26796 NMatT0=    0 NMatD0=    1 NMtDS0=    0 NMtDT0=    0
 Symmetry not used in FoFCou.
 Two-electron integral symmetry not used.
 Closed shell SCF:
 Using DIIS extrapolation, IDIIS=  1040.
 NGot=  3758096384 LenX=  3398923531 LenY=  3398851801
 Requested convergence on RMS density matrix=1.00D-08 within  32 cycles.
 Requested convergence on MAX density matrix=1.00D-06.
 Requested convergence on             energy=1.00D-06.
 No special actions if energy rises.
 Integral accuracy reduced to 1.0D-05 until final iterations.

 Cycle   1  Pass 0  IDiag  1:
 E= -526.789656450336    
 DIIS: error= 3.24D-04 at cycle   1 NSaved=   1.
 NSaved= 1 IEnMin= 1 EnMin= -526.789656450336     IErMin= 1 ErrMin= 3.24D-04
 ErrMax= 3.24D-04  0.00D+00 EMaxC= 1.00D-01 BMatC= 3.15D-05 BMatP= 3.15D-05
 IDIUse=3 WtCom= 9.97D-01 WtEn= 3.24D-03
 Coeff-Com:  0.100D+01
 Coeff-En:   0.100D+01
 Coeff:      0.100D+01
 Gap=     1.076 Goal=   None    Shift=    0.000
 RMSDP=2.65D-05 MaxDP=9.24D-04              OVMax= 3.16D-03

 Cycle   2  Pass 0  IDiag  1:
 E= -526.789697774168     Delta-E=       -0.000041323832 Rises=F Damp=F
 DIIS: error= 2.06D-04 at cycle   2 NSaved=   2.
 NSaved= 2 IEnMin= 2 EnMin= -526.789697774168     IErMin= 2 ErrMin= 2.06D-04
 ErrMax= 2.06D-04  0.00D+00 EMaxC= 1.00D-01 BMatC= 7.43D-06 BMatP= 3.15D-05
 IDIUse=3 WtCom= 9.98D-01 WtEn= 2.06D-03
 Coeff-Com:  0.193D+00 0.807D+00
 Coeff-En:   0.000D+00 0.100D+01
 Coeff:      0.192D+00 0.808D+00
 Gap=     0.401 Goal=   None    Shift=    0.000
 RMSDP=1.23D-05 MaxDP=5.49D-04 DE=-4.13D-05 OVMax= 1.89D-03

 Cycle   3  Pass 0  IDiag  1:
 E= -526.789698464253     Delta-E=       -0.000000690086 Rises=F Damp=F
 DIIS: error= 3.96D-04 at cycle   3 NSaved=   3.
 NSaved= 3 IEnMin= 3 EnMin= -526.789698464253     IErMin= 2 ErrMin= 2.06D-04
 ErrMax= 3.96D-04  0.00D+00 EMaxC= 1.00D-01 BMatC= 9.66D-06 BMatP= 7.43D-06
 IDIUse=3 WtCom= 3.34D-01 WtEn= 6.66D-01
 Coeff-Com: -0.862D-01 0.564D+00 0.522D+00
 Coeff-En:   0.000D+00 0.473D+00 0.527D+00
 Coeff:     -0.288D-01 0.503D+00 0.525D+00
 Gap=     0.401 Goal=   None    Shift=    0.000
 RMSDP=7.74D-06 MaxDP=3.14D-04 DE=-6.90D-07 OVMax= 1.47D-03

 Initial convergence to 1.0D-05 achieved.  Increase integral accuracy.
 Cycle   4  Pass 1  IDiag  1:
 E= -526.789679413163     Delta-E=        0.000019051090 Rises=F Damp=F
 DIIS: error= 6.14D-05 at cycle   1 NSaved=   1.
 NSaved= 1 IEnMin= 1 EnMin= -526.789679413163     IErMin= 1 ErrMin= 6.14D-05
 ErrMax= 6.14D-05  0.00D+00 EMaxC= 1.00D-01 BMatC= 8.94D-07 BMatP= 8.94D-07
 IDIUse=1 WtCom= 1.00D+00 WtEn= 0.00D+00
 Coeff-Com:  0.100D+01
 Coeff:      0.100D+01
 Gap=     0.401 Goal=   None    Shift=    0.000
 RMSDP=7.74D-06 MaxDP=3.14D-04 DE= 1.91D-05 OVMax= 6.88D-04

 Cycle   5  Pass 1  IDiag  1:
 E= -526.789679175855     Delta-E=        0.000000237308 Rises=F Damp=F
 DIIS: error= 1.55D-04 at cycle   2 NSaved=   2.
 NSaved= 2 IEnMin= 1 EnMin= -526.789679413163     IErMin= 1 ErrMin= 6.14D-05
 ErrMax= 1.55D-04  0.00D+00 EMaxC= 1.00D-01 BMatC= 1.58D-06 BMatP= 8.94D-07
 IDIUse=3 WtCom= 4.45D-01 WtEn= 5.55D-01
 Coeff-Com:  0.583D+00 0.417D+00
 Coeff-En:   0.576D+00 0.424D+00
 Coeff:      0.579D+00 0.421D+00
 Gap=     0.401 Goal=   None    Shift=    0.000
 RMSDP=2.92D-06 MaxDP=1.20D-04 DE= 2.37D-07 OVMax= 5.01D-04

 Cycle   6  Pass 1  IDiag  1:
 E= -526.789680251429     Delta-E=       -0.000001075574 Rises=F Damp=F
 DIIS: error= 2.07D-05 at cycle   3 NSaved=   3.
 NSaved= 3 IEnMin= 3 EnMin= -526.789680251429     IErMin= 3 ErrMin= 2.07D-05
 ErrMax= 2.07D-05  0.00D+00 EMaxC= 1.00D-01 BMatC= 7.33D-08 BMatP= 8.94D-07
 IDIUse=1 WtCom= 1.00D+00 WtEn= 0.00D+00
 Coeff-Com: -0.825D-01 0.142D+00 0.940D+00
 Coeff:     -0.825D-01 0.142D+00 0.940D+00
 Gap=     0.401 Goal=   None    Shift=    0.000
 RMSDP=1.19D-06 MaxDP=4.10D-05 DE=-1.08D-06 OVMax= 1.51D-04

 Cycle   7  Pass 1  IDiag  1:
 E= -526.789680329655     Delta-E=       -0.000000078226 Rises=F Damp=F
 DIIS: error= 4.01D-06 at cycle   4 NSaved=   4.
 NSaved= 4 IEnMin= 4 EnMin= -526.789680329655     IErMin= 4 ErrMin= 4.01D-06
 ErrMax= 4.01D-06  0.00D+00 EMaxC= 1.00D-01 BMatC= 1.66D-09 BMatP= 7.33D-08
 IDIUse=1 WtCom= 1.00D+00 WtEn= 0.00D+00
 Coeff-Com: -0.165D-02-0.400D-01-0.283D+00 0.132D+01
 Coeff:     -0.165D-02-0.400D-01-0.283D+00 0.132D+01
 Gap=     0.401 Goal=   None    Shift=    0.000
 RMSDP=4.34D-07 MaxDP=1.40D-05 DE=-7.82D-08 OVMax= 6.20D-05

 Cycle   8  Pass 1  IDiag  1:
 E= -526.789680336160     Delta-E=       -0.000000006505 Rises=F Damp=F
 DIIS: error= 8.85D-07 at cycle   5 NSaved=   5.
 NSaved= 5 IEnMin= 5 EnMin= -526.789680336160     IErMin= 5 ErrMin= 8.85D-07
 ErrMax= 8.85D-07  0.00D+00 EMaxC= 1.00D-01 BMatC= 3.72D-10 BMatP= 1.66D-09
 IDIUse=1 WtCom= 1.00D+00 WtEn= 0.00D+00
 Coeff-Com:  0.750D-02-0.272D-01-0.201D+00 0.512D+00 0.710D+00
 Coeff:      0.750D-02-0.272D-01-0.201D+00 0.512D+00 0.710D+00
 Gap=     0.401 Goal=   None    Shift=    0.000
 RMSDP=9.40D-08 MaxDP=2.75D-06 DE=-6.51D-09 OVMax= 1.29D-05

 Cycle   9  Pass 1  IDiag  1:
 E= -526.789680336597     Delta-E=       -0.000000000437 Rises=F Damp=F
 DIIS: error= 3.87D-07 at cycle   6 NSaved=   6.
[...]
 ErrMax= 1.35D-04  0.00D+00 EMaxC= 1.00D-01 BMatC= 4.57D-06 BMatP= 4.57D-06
 IDIUse=3 WtCom= 9.99D-01 WtEn= 1.35D-03
 Coeff-Com:  0.100D+01
 Coeff-En:   0.100D+01
 Coeff:      0.100D+01
 Gap=     1.090 Goal=   None    Shift=    0.000
 RMSDP=1.24D-05 MaxDP=4.24D-04              OVMax= 4.99D-04

 Cycle   2  Pass 0  IDiag  1:
 E= -526.849640684473     Delta-E=       -0.000004441770 Rises=F Damp=F
 DIIS: error= 2.16D-05 at cycle   2 NSaved=   2.
 NSaved= 2 IEnMin= 2 EnMin= -526.849640684473     IErMin= 2 ErrMin= 2.16D-05
 ErrMax= 2.16D-05  0.00D+00 EMaxC= 1.00D-01 BMatC= 1.11D-07 BMatP= 4.57D-06
 IDIUse=1 WtCom= 1.00D+00 WtEn= 0.00D+00
 Coeff-Com: -0.106D+00 0.111D+01
 Coeff:     -0.106D+00 0.111D+01
 Gap=     0.402 Goal=   None    Shift=    0.000
 RMSDP=2.19D-06 MaxDP=8.30D-05 DE=-4.44D-06 OVMax= 1.12D-04

 Initial convergence to 1.0D-05 achieved.  Increase integral accuracy.
 Cycle   3  Pass 1  IDiag  1:
 E= -526.849624506652     Delta-E=        0.000016177821 Rises=F Damp=F
 DIIS: error= 2.21D-05 at cycle   1 NSaved=   1.
 NSaved= 1 IEnMin= 1 EnMin= -526.849624506652     IErMin= 1 ErrMin= 2.21D-05
 ErrMax= 2.21D-05  0.00D+00 EMaxC= 1.00D-01 BMatC= 3.41D-07 BMatP= 3.41D-07
 IDIUse=1 WtCom= 1.00D+00 WtEn= 0.00D+00
 Coeff-Com:  0.100D+01
 Coeff:      0.100D+01
 Gap=     0.402 Goal=   None    Shift=    0.000
 RMSDP=2.19D-06 MaxDP=8.30D-05 DE= 1.62D-05 OVMax= 1.23D-04

 Cycle   4  Pass 1  IDiag  1:
 E= -526.849624698270     Delta-E=       -0.000000191617 Rises=F Damp=F
 DIIS: error= 2.24D-05 at cycle   2 NSaved=   2.
 NSaved= 2 IEnMin= 2 EnMin= -526.849624698270     IErMin= 1 ErrMin= 2.21D-05
 ErrMax= 2.24D-05  0.00D+00 EMaxC= 1.00D-01 BMatC= 7.96D-08 BMatP= 3.41D-07
 IDIUse=1 WtCom= 1.00D+00 WtEn= 0.00D+00
 Coeff-Com:  0.224D+00 0.776D+00
 Coeff:      0.224D+00 0.776D+00
 Gap=     0.402 Goal=   None    Shift=    0.000
 RMSDP=1.32D-06 MaxDP=5.20D-05 DE=-1.92D-07 OVMax= 1.64D-04

 Cycle   5  Pass 1  IDiag  1:
 E= -526.849624700174     Delta-E=       -0.000000001905 Rises=F Damp=F
 DIIS: error= 2.33D-05 at cycle   3 NSaved=   3.
 NSaved= 3 IEnMin= 3 EnMin= -526.849624700174     IErMin= 1 ErrMin= 2.21D-05
 ErrMax= 2.33D-05  0.00D+00 EMaxC= 1.00D-01 BMatC= 8.06D-08 BMatP= 7.96D-08
 IDIUse=1 WtCom= 1.00D+00 WtEn= 0.00D+00
 Coeff-Com: -0.427D-01 0.512D+00 0.531D+00
 Coeff:     -0.427D-01 0.512D+00 0.531D+00
 Gap=     0.402 Goal=   None    Shift=    0.000
 RMSDP=6.28D-07 MaxDP=2.70D-05 DE=-1.90D-09 OVMax= 8.19D-05

 Cycle   6  Pass 1  IDiag  1:
 E= -526.849624754538     Delta-E=       -0.000000054364 Rises=F Damp=F
 DIIS: error= 6.46D-07 at cycle   4 NSaved=   4.
 NSaved= 4 IEnMin= 4 EnMin= -526.849624754538     IErMin= 4 ErrMin= 6.46D-07
 ErrMax= 6.46D-07  0.00D+00 EMaxC= 1.00D-01 BMatC= 2.31D-10 BMatP= 7.96D-08
 IDIUse=1 WtCom= 1.00D+00 WtEn= 0.00D+00
 Coeff-Com: -0.118D-01 0.969D-01 0.111D+00 0.804D+00
 Coeff:     -0.118D-01 0.969D-01 0.111D+00 0.804D+00
 Gap=     0.402 Goal=   None    Shift=    0.000
 RMSDP=7.57D-08 MaxDP=3.36D-06 DE=-5.44D-08 OVMax= 3.52D-06

 Cycle   7  Pass 1  IDiag  1:
 E= -526.849624754706     Delta-E=       -0.000000000168 Rises=F Damp=F
 DIIS: error= 3.23D-07 at cycle   5 NSaved=   5.
 NSaved= 5 IEnMin= 5 EnMin= -526.849624754706     IErMin= 5 ErrMin= 3.23D-07
 ErrMax= 3.23D-07  0.00D+00 EMaxC= 1.00D-01 BMatC= 8.95D-11 BMatP= 2.31D-10
 IDIUse=1 WtCom= 1.00D+00 WtEn= 0.00D+00
 Coeff-Com:  0.655D-03-0.331D-01-0.297D-01 0.371D+00 0.691D+00
 Coeff:      0.655D-03-0.331D-01-0.297D-01 0.371D+00 0.691D+00
 Gap=     0.402 Goal=   None    Shift=    0.000
 RMSDP=2.94D-08 MaxDP=1.27D-06 DE=-1.68D-10 OVMax= 1.43D-06

 Cycle   8  Pass 1  IDiag  1:
 E= -526.849624754736     Delta-E=       -0.000000000030 Rises=F Damp=F
 DIIS: error= 8.08D-08 at cycle   6 NSaved=   6.
 NSaved= 6 IEnMin= 6 EnMin= -526.849624754736     IErMin= 6 ErrMin= 8.08D-08
 ErrMax= 8.08D-08  0.00D+00 EMaxC= 1.00D-01 BMatC= 3.39D-12 BMatP= 8.95D-11
 IDIUse=1 WtCom= 1.00D+00 WtEn= 0.00D+00
 Coeff-Com:  0.115D-02-0.188D-01-0.189D-01 0.680D-01 0.229D+00 0.739D+00
 Coeff:      0.115D-02-0.188D-01-0.189D-01 0.680D-01 0.229D+00 0.739D+00
 Gap=     0.402 Goal=   None    Shift=    0.000
 RMSDP=7.81D-09 MaxDP=2.83D-07 DE=-3.00D-11 OVMax= 4.26D-07

 SCF Done:  E(RM062X) =  -526.849624755     A.U. after    8 cycles
            NFock=  8  Conv=0.78D-08     -V/T= 2.0037
 KE= 5.249051894289D+02 PE=-1.921085003315D+03 EE= 5.328300166562D+02
 Leave Link  502 at Sun May 25 04:14:29 2025, MaxMem=  3758096384 cpu:              33.7 elap:               6.5
 (Enter /apps/easybuild-2022/easybuild/software/Compiler/NVHPC/22.11-CUDA-11.7.0/Gaussian/g16c01-CUDA-11.7.0/g16/l508.exe)
 QCSCF skips out because SCF is already converged.
 Leave Link  508 at Sun May 25 04:14:30 2025, MaxMem=  3758096384 cpu:               0.0 elap:               0.0
 (Enter /apps/easybuild-2022/easybuild/software/Compiler/NVHPC/22.11-CUDA-11.7.0/Gaussian/g16c01-CUDA-11.7.0/g16/l801.exe)
 DoSCS=F DFT=T ScalE2(SS,OS)=  1.000000  1.000000
 Range of M.O.s used for correlation:     1   231
 NBasis=   231 NAE=    28 NBE=    28 NFC=     0 NFV=     0
 NROrb=    231 NOA=    28 NOB=    28 NVA=   203 NVB=   203

 **** Warning!!: The largest alpha MO coefficient is  0.12160309D+02

 Leave Link  801 at Sun May 25 04:14:30 2025, MaxMem=  3758096384 cpu:               0.1 elap:               0.0
 (Enter /apps/easybuild-2022/easybuild/software/Compiler/NVHPC/22.11-CUDA-11.7.0/Gaussian/g16c01-CUDA-11.7.0/g16/l1101.exe)
 Leave Link 1101 at Sun May 25 04:14:30 2025, MaxMem=  3758096384 cpu:               0.1 elap:               0.0
 (Enter /apps/easybuild-2022/easybuild/software/Compiler/NVHPC/22.11-CUDA-11.7.0/Gaussian/g16c01-CUDA-11.7.0/g16/l1102.exe)
 Symmetrizing basis deriv contribution to polar:
 IMax=3 JMax=2 DiffMx= 0.00D+00
 Leave Link 1102 at Sun May 25 04:14:30 2025, MaxMem=  3758096384 cpu:               0.1 elap:               0.1
 (Enter /apps/easybuild-2022/easybuild/software/Compiler/NVHPC/22.11-CUDA-11.7.0/Gaussian/g16c01-CUDA-11.7.0/g16/l1110.exe)
 Leave Link 1110 at Sun May 25 04:14:30 2025, MaxMem=  3758096384 cpu:               0.1 elap:               0.0
 (Enter /apps/easybuild-2022/easybuild/software/Compiler/NVHPC/22.11-CUDA-11.7.0/Gaussian/g16c01-CUDA-11.7.0/g16/l1002.exe)
 Minotr:  Closed shell wavefunction.
 Leave Link 1002 at Sun May 25 04:14:30 2025, MaxMem=  3758096384 cpu:               0.1 elap:               0.0
 (Enter /apps/easybuild-2022/easybuild/software/Compiler/NVHPC/22.11-CUDA-11.7.0/Gaussian/g16c01-CUDA-11.7.0/g16/l701.exe)
 ... and contract with generalized density number  0.
 Compute integral first derivatives.
   1 Symmetry operations used in ECPInt.
 ECPInt:  NShTT=    3486 NPrTT=   11183 LenC2=    3398 LenP2D=    8674.
 LDataN:  DoStor=T MaxTD1= 7 Len=  274
 Leave Link  701 at Sun May 25 04:14:30 2025, MaxMem=  3758096384 cpu:               0.7 elap:               0.2
 (Enter /apps/easybuild-2022/easybuild/software/Compiler/NVHPC/22.11-CUDA-11.7.0/Gaussian/g16c01-CUDA-11.7.0/g16/l702.exe)
 L702 exits ... SP integral derivatives will be done elsewhere.
 Leave Link  702 at Sun May 25 04:14:30 2025, MaxMem=  3758096384 cpu:               0.1 elap:               0.0
 (Enter /apps/easybuild-2022/easybuild/software/Compiler/NVHPC/22.11-CUDA-11.7.0/Gaussian/g16c01-CUDA-11.7.0/g16/l703.exe)
 Integral derivatives from FoFJK, PRISM(SPDF).
 Compute integral first derivatives, UseDBF=F ICtDFT=           0.
 Calling FoFJK, ICntrl=      2127 FMM=F ISym2X=0 I1Cent= 0 IOpClX= 0 NMat=1 NMatS=1 NMatT=0.
 FoFJK:  IHMeth= 1 ICntrl=    2127 DoSepK=F KAlg= 0 I1Cent=           0 FoldK=F
 IRaf=         0 NMat=       1 IRICut=       1 DoRegI=T DoRafI=F ISym2E= 0 IDoP0=0 IntGTp=1.
 FoFCou: FMM=F IPFlag=           0 FMFlag=      100000 FMFlg1=         800
         NFxFlg=           0 DoJE=F BraDBF=F KetDBF=F FulRan=T
         wScrn=  0.000000 ICntrl=      2127 IOpCl=  0 I1Cent=           0 NGrid=           0
         NMat0=    1 NMatS0=      1 NMatT0=    0 NMatD0=    1 NMtDS0=    0 NMtDT0=    0
 Symmetry not used in FoFCou.
 Leave Link  703 at Sun May 25 04:14:34 2025, MaxMem=  3758096384 cpu:              24.2 elap:               3.7
 (Enter /apps/easybuild-2022/easybuild/software/Compiler/NVHPC/22.11-CUDA-11.7.0/Gaussian/g16c01-CUDA-11.7.0/g16/l716.exe)
 Dipole        = 1.26221668D-01-6.71553477D-02-8.26733912D-01
 Polarizability= 0.00000000D+00 0.00000000D+00 0.00000000D+00
                 0.00000000D+00 0.00000000D+00 0.00000000D+00
 -------------------------------------------------------------------
 Center     Atomic                   Forces (Hartrees/Bohr)
 Number     Number              X              Y              Z
 -------------------------------------------------------------------
      1        6          -0.003814933    0.003540829   -0.003012574
      2        8           0.010068220   -0.008882006    0.004437414
      3        6          -0.001412945    0.001428963   -0.003685022
      4        9          -0.001380594    0.001869868   -0.003727964
      5        9          -0.000809375   -0.000334099   -0.002410253
      6        9           0.000852517    0.000591243   -0.002385957
      7        8          -0.005525494    0.003282945    0.012127385
      8        1           0.002022604   -0.001497743   -0.001343028
 -------------------------------------------------------------------
 Cartesian Forces:  Max     0.012127385 RMS     0.004485624
 Leave Link  716 at Sun May 25 04:14:34 2025, MaxMem=  3758096384 cpu:               0.1 elap:               0.0
 (Enter /apps/easybuild-2022/easybuild/software/Compiler/NVHPC/22.11-CUDA-11.7.0/Gaussian/g16c01-CUDA-11.7.0/g16/l123.exe)
 IRC-IRC-IRC-IRC-IRC-IRC-IRC-IRC-IRC-IRC-IRC-IRC-IRC-IRC-IRC-IRC-IRC-IRC
 Pt100 Step number   1 out of a maximum of  20
 Using modified Bulirsch-Stoer corrector integration.
   Using distance weighted interpolants to fit PES.
 PreDWI: IReCr0= 2 IReCr1= 1 IReCr2= 1 IReCr3= 1
 Modified Bulirsch-Stoer Extrapolation Cycles:
    EPS =    0.000010000000000
    Cycle     1 NS=    48
      PEZero:  N= 2 I= 1 D=  1.09D-04 Err=  2.34D-06
    Cycle     2 NS=    64 Truncation Error =  0.000002342
 BS completed in    2 cycles and     112 integration steps.
 Maximum DWI energy   std dev =  0.000000002 at pt    46
 Maximum DWI gradient std dev =  0.000674646 at pt    29
 SUMMARY OF CORRECTOR INTEGRATION:
   Predictor End Point Energy =  -526.849625
   Old End Point Energy       =  -526.849625
   Corrected End Point Energy =  -526.849625
   Predictor End-Start Dist.  =     0.020960
   Old End-Start Dist.        =     0.020960
   New End-Start Dist.        =     0.020960
   New End-Old End Dist.      =     0.000016
 CORRECTOR INTEGRATION CONVERGENCE:
   Recorrection delta-x convergence threshold:    0.010000
   Delta-x Convergence Met
 Point Number: 100          Path Number:   1
                    CURRENT STRUCTURE
                Cartesian Coordinates (Ang):                
 ---------------------------------------------------------------------
 Center     Atomic                     Coordinates (Angstroms)
 Number     Number                        X           Y           Z
 ---------------------------------------------------------------------
      1          6                   -0.420139    0.392233   -0.813384
      2          8                    0.132751    0.030955   -1.961665
      3          6                    0.206772   -0.219778    0.481318
      4          9                    0.897145   -1.330833    0.265295
      5          9                    1.021434    0.678235    1.032679
      6          9                   -0.761604   -0.487951    1.345659
      7          8                   -1.324679    1.161560   -0.762796
      8          1                   -0.352731    0.520892   -2.641821
 ---------------------------------------------------------------------
   CHANGE IN THE REACTION COORDINATE =    0.02096
   NET REACTION COORDINATE UP TO THIS POINT =    2.09602
  # OF POINTS ALONG THE PATH = 100
  # OF STEPS =   1

 Maximum number of steps reached.
 Calculation of REVERSE path complete.
 Reaction path calculation complete.
 
 Energies reported relative to the TS energy of        -526.789156
 --------------------------------------------------------------------------
    Summary of reaction path following
 --------------------------------------------------------------------------
                        Energy    RxCoord
   1                   -0.06047  -2.09602
   2                   -0.06034  -2.07506
   3                   -0.06020  -2.05410
   4                   -0.06005  -2.03314
   5                   -0.05990  -2.01218
   6                   -0.05974  -1.99122
   7                   -0.05957  -1.97026
   8                   -0.05940  -1.94930
   9                   -0.05922  -1.92834
  10                   -0.05903  -1.90738
  11                   -0.05883  -1.88642
  12                   -0.05863  -1.86546
  13                   -0.05842  -1.84450
  14                   -0.05820  -1.82354
  15                   -0.05797  -1.80257
  16                   -0.05773  -1.78161
  17                   -0.05749  -1.76065
  18                   -0.05724  -1.73969
  19                   -0.05697  -1.71873
  20                   -0.05670  -1.69777
  21                   -0.05642  -1.67681
  22                   -0.05613  -1.65585
  23                   -0.05583  -1.63489
  24                   -0.05552  -1.61393
  25                   -0.05520  -1.59297
  26                   -0.05487  -1.57201
  27                   -0.05452  -1.55105
  28                   -0.05417  -1.53009
  29                   -0.05380  -1.50913
  30                   -0.05342  -1.48817
  31                   -0.05303  -1.46721
  32                   -0.05263  -1.44625
  33                   -0.05221  -1.42529
  34                   -0.05177  -1.40433
  35                   -0.05133  -1.38337
  36                   -0.05086  -1.36241
  37                   -0.05038  -1.34145
  38                   -0.04989  -1.32049
  39                   -0.04938  -1.29953
  40                   -0.04885  -1.27857
  41                   -0.04830  -1.25761
  42                   -0.04773  -1.23665
  43                   -0.04715  -1.21569
  44                   -0.04654  -1.19473
  45                   -0.04592  -1.17377
  46                   -0.04528  -1.15281
  47                   -0.04461  -1.13185
  48                   -0.04392  -1.11089
  49                   -0.04322  -1.08993
  50                   -0.04249  -1.06897
  51                   -0.04174  -1.04801
  52                   -0.04096  -1.02705
  53                   -0.04016  -1.00609
  54                   -0.03934  -0.98513
  55                   -0.03850  -0.96417
  56                   -0.03764  -0.94321
  57                   -0.03675  -0.92225
  58                   -0.03584  -0.90129
  59                   -0.03491  -0.88033
  60                   -0.03395  -0.85937
  61                   -0.03297  -0.83841
  62                   -0.03198  -0.81745
  63                   -0.03096  -0.79649
  64                   -0.02992  -0.77553
  65                   -0.02886  -0.75457
  66                   -0.02779  -0.73361
  67                   -0.02670  -0.71265
  68                   -0.02560  -0.69169
  69                   -0.02449  -0.67073
  70                   -0.02338  -0.64977
  71                   -0.02225  -0.62881
  72                   -0.02113  -0.60785
  73                   -0.02000  -0.58689
  74                   -0.01888  -0.56593
  75                   -0.01777  -0.54497
  76                   -0.01666  -0.52401
  77                   -0.01557  -0.50305
  78                   -0.01449  -0.48209
  79                   -0.01344  -0.46112
  80                   -0.01240  -0.44016
  81                   -0.01139  -0.41920
  82                   -0.01040  -0.39824
  83                   -0.00944  -0.37728
  84                   -0.00852  -0.35632
  85                   -0.00763  -0.33536
  86                   -0.00678  -0.31440
  87                   -0.00596  -0.29344
  88                   -0.00519  -0.27248
  89                   -0.00447  -0.25152
  90                   -0.00379  -0.23056
  91                   -0.00316  -0.20960
  92                   -0.00258  -0.18864
  93                   -0.00205  -0.16768
  94                   -0.00158  -0.14672
  95                   -0.00117  -0.12576
  96                   -0.00082  -0.10480
  97                   -0.00052  -0.08384
  98                   -0.00030  -0.06288
  99                   -0.00013  -0.04192
 100                   -0.00003  -0.02096
 101                    0.00000   0.00000
 --------------------------------------------------------------------------
 
 Total number of points:                  100
 Total number of gradient calculations:   100
 Total number of Hessian calculations:      0
 IRC-IRC-IRC-IRC-IRC-IRC-IRC-IRC-IRC-IRC-IRC-IRC-IRC-IRC-IRC-IRC-IRC-IRC
 Leave Link  123 at Sun May 25 04:14:34 2025, MaxMem=  3758096384 cpu:               0.1 elap:               0.0
 (Enter /apps/easybuild-2022/easybuild/software/Compiler/NVHPC/22.11-CUDA-11.7.0/Gaussian/g16c01-CUDA-11.7.0/g16/l202.exe)
                          Input orientation:                          
 ---------------------------------------------------------------------
 Center     Atomic      Atomic             Coordinates (Angstroms)
 Number     Number       Type             X           Y           Z
 ---------------------------------------------------------------------
      1          6           0       -0.420139    0.392233   -0.813384
      2          8           0        0.132752    0.030955   -1.961665
      3          6           0        0.206772   -0.219778    0.481318
      4          9           0        0.897145   -1.330833    0.265295
      5          9           0        1.021434    0.678235    1.032679
      6          9           0       -0.761604   -0.487951    1.345659
      7          8           0       -1.324679    1.161560   -0.762796
      8          1           0       -0.352734    0.520895   -2.641827
 ---------------------------------------------------------------------
                    Distance matrix (angstroms):
                    1          2          3          4          5
     1  C    0.000000
     2  O    1.324674   0.000000
     3  C    1.563274   2.456931   0.000000
     4  F    2.422342   2.719948   1.325792   0.000000
     5  F    2.359635   3.189800   1.331954   2.154224   0.000000
     6  F    2.356436   3.465188   1.325427   2.151531   2.153410
     7  O    1.188535   2.199922   2.408579   3.493636   2.993590
     8  H    1.834204   0.968689   3.258171   3.666395   3.926206
                    6          7          8
     6  F    0.000000
     7  O    2.735603   0.000000
     8  H    4.133399   2.210404   0.000000
 Symmetry turned off by external request.
 Stoichiometry    C2HF3O2
 Rotational constants (GHZ):           3.9644257           2.4106470           2.0297388
 Leave Link  202 at Sun May 25 04:14:34 2025, MaxMem=  3758096384 cpu:               0.1 elap:               0.0
 (Enter /apps/easybuild-2022/easybuild/software/Compiler/NVHPC/22.11-CUDA-11.7.0/Gaussian/g16c01-CUDA-11.7.0/g16/l9999.exe)

 This type of calculation cannot be archived.


 PENOTUS DIED A HUNDRED YEARS OLD WANTING BUT TWO...
 AND HE USED TO SAY BEFORE HE DIED, HAVING SPENT HIS
 WHOLE LIFE IN VAINLY SEARCHING AFTER THE PHILOSOPHER'S
 STONE, THAT IF HE HAD A MORTAL ENEMY HE DID NOT DARE
 TO ENCOUNTER OPENLY, HE WOULD ADVISE HIM ABOVE ALL
 THINGS TO GIVE HIMSELF UP TO THE STUDY AND PRACTICE
 OF ALCHEMY.  --  NICOLAS LEMERY, M.D.
 "A COURSE OF CHYMISTRY", WALTER KETTILBY, LONDON, 1686
 Job cpu time:       0 days  1 hours 53 minutes  0.9 seconds.
 Elapsed time:       0 days  0 hours 21 minutes 21.6 seconds.
 File lengths (MBytes):  RWF=     30 Int=      0 D2E=      0 Chk=      6 Scr=      1
 Normal termination of Gaussian 16 at Sun May 25 04:14:34 2025.
done
