 Entering Gaussian System, Link 0=g16
 Initial command:
 /apps/easybuild-2022/easybuild/software/Compiler/NVHPC/22.11-CUDA-11.7.0/Gaussian/g16c01-CUDA-11.7.0/g16/l1.exe "/tmp/Gau-78428.inp" -scrdir="/tmp/"
 Entering Link 1 = /apps/easybuild-2022/easybuild/software/Compiler/NVHPC/22.11-CUDA-11.7.0/Gaussian/g16c01-CUDA-11.7.0/g16/l1.exe PID=     78431.
  
 Copyright (c) 1988-2019, Gaussian, Inc.  All Rights Reserved.
  
 This is part of the Gaussian(R) 16 program.  It is based on
 the Gaussian(R) 09 system (copyright 2009, Gaussian, Inc.),
 the Gaussian(R) 03 system (copyright 2003, Gaussian, Inc.),
 the Gaussian(R) 98 system (copyright 1998, Gaussian, Inc.),
 the Gaussian(R) 94 system (copyright 1995, Gaussian, Inc.),
 the Gaussian 92(TM) system (copyright 1992, Gaussian, Inc.),
 the Gaussian 90(TM) system (copyright 1990, Gaussian, Inc.),
 the Gaussian 88(TM) system (copyright 1988, Gaussian, Inc.),
 the Gaussian 86(TM) system (copyright 1986, Carnegie Mellon
 University), and the Gaussian 82(TM) system (copyright 1983,
 Carnegie Mellon University). Gaussian is a federally registered
 trademark of Gaussian, Inc.
  
 This software contains proprietary and confidential information,
 including trade secrets, belonging to Gaussian, Inc.
  
 This software is provided under written license and may be
 used, copied, transmitted, or stored only in accord with that
 written license.
  
 The following legend is applicable only to US Government
 contracts under FAR:
  
                    RESTRICTED RIGHTS LEGEND
  
 Use, reproduction and disclosure by the US Government is
 subject to restrictions as set forth in subparagraphs (a)
 and (c) of the Commercial Computer Software - Restricted
 Rights clause in FAR 52.227-19.
  
 Gaussian, Inc.
 340 Quinnipiac St., Bldg. 40, Wallingford CT 06492
  
  
 ---------------------------------------------------------------
 Warning -- This program may not be used in any manner that
 competes with the business of Gaussian, Inc. or will provide
 assistance to any competitor of Gaussian, Inc.  The licensee
 of this program is prohibited from giving any competitor of
 Gaussian, Inc. access to this program.  By using this program,
 the user acknowledges that Gaussian, Inc. is engaged in the
 business of creating and licensing software in the field of
 computational chemistry and represents and warrants to the
 licensee that it is not a competitor of Gaussian, Inc. and that
 it will not use this program in any manner prohibited above.
 ---------------------------------------------------------------
  

 Cite this work as:
 Gaussian 16, Revision C.01,
 M. J. Frisch, G. W. Trucks, H. B. Schlegel, G. E. Scuseria, 
 M. A. Robb, J. R. Cheeseman, G. Scalmani, V. Barone, 
 G. A. Petersson, H. Nakatsuji, X. Li, M. Caricato, A. V. Marenich, 
 J. Bloino, B. G. Janesko, R. Gomperts, B. Mennucci, H. P. Hratchian, 
 J. V. Ortiz, A. F. Izmaylov, J. L. Sonnenberg, D. Williams-Young, 
 F. Ding, F. Lipparini, F. Egidi, J. Goings, B. Peng, A. Petrone, 
 T. Henderson, D. Ranasinghe, V. G. Zakrzewski, J. Gao, N. Rega, 
 G. Zheng, W. Liang, M. Hada, M. Ehara, K. Toyota, R. Fukuda, 
 J. Hasegawa, M. Ishida, T. Nakajima, Y. Honda, O. Kitao, H. Nakai, 
 T. Vreven, K. Throssell, J. A. Montgomery, Jr., J. E. Peralta, 
 F. Ogliaro, M. J. Bearpark, J. J. Heyd, E. N. Brothers, K. N. Kudin, 
 V. N. Staroverov, T. A. Keith, R. Kobayashi, J. Normand, 
 K. Raghavachari, A. P. Rendell, J. C. Burant, S. S. Iyengar, 
 J. Tomasi, M. Cossi, J. M. Millam, M. Klene, C. Adamo, R. Cammi, 
 J. W. Ochterski, R. L. Martin, K. Morokuma, O. Farkas, 
 J. B. Foresman, and D. J. Fox, Gaussian, Inc., Wallingford CT, 2019.
 
 ******************************************
 Gaussian 16:  ES64L-G16RevC.01  3-Jul-2019
                25-May-2025 
 ******************************************
 %mem=28GB
 %chk=1141942801461180600001_well
 %nprocshared=8
 Will use up to    8 processors via shared memory.
 -----------------------------------------------------------------
 #P M062X/Def2TZVPP Symm(None) scf(xqc) pop(None) freq opt(CalcFC)
 -----------------------------------------------------------------
 1/10=4,18=20,19=15,26=3,38=1/1,3;
 2/9=110,12=2,15=3,17=6,18=5,40=1/2;
 3/5=44,7=202,11=2,25=1,30=1,71=2,74=-55,140=1/1,2,3;
 4//1;
 5/5=2,8=3,13=1,38=5/2,8;
 8/6=4,10=90,11=11/1;
 11/6=1,8=1,9=11,15=111,16=1,31=1/1,2,10;
 10/6=1,13=1,31=1/2;
 7/10=1,25=1,30=1/1,2,3,16;
 1/10=4,18=20,19=15,26=3/3(2);
 2/9=110,15=3/2;
 99//99;
 2/9=110,15=3/2;
 3/5=44,7=202,11=2,25=1,30=1,71=1,74=-55/1,2,3;
 4/5=5,16=3,69=1/1;
 5/5=2,8=3,13=1,38=5/2,8;
 7/30=1/1,2,3,16;
 1/18=20,19=15,26=3/3(-5);
 2/9=110,15=3/2;
 99/9=1/99;
 Leave Link    1 at Sun May 25 05:01:06 2025, MaxMem=  3758096384 cpu:               0.0 elap:               0.0
 (Enter /apps/easybuild-2022/easybuild/software/Compiler/NVHPC/22.11-CUDA-11.7.0/Gaussian/g16c01-CUDA-11.7.0/g16/l101.exe)
 ------------------------------
 Gaussian input prepared by ASE
 ------------------------------
 Symbolic Z-matrix:
 Charge =  0 Multiplicity = 1
 C                    -0.52195   0.46104   0.75687 
 O                    -2.67387   0.00257   1.11652 
 C                     0.662     0.10345  -0.16515 
 F                     1.63041  -0.40107   0.59332 
 F                     0.41463  -0.7736   -1.14172 
 F                     1.0937    1.22521  -0.73233 
 O                    -1.4812   -0.22557   0.34011 
 H                    -3.2813   -0.59574   0.6577 
 
 ITRead=  0  0  0  0  0  0  0  0
 MicOpt= -1 -1 -1 -1 -1 -1 -1 -1
 NAtoms=      8 NQM=        8 NQMF=       0 NMMI=      0 NMMIF=      0
                NMic=       0 NMicF=      0.
                    Isotopes and Nuclear Properties:
 (Nuclear quadrupole moments (NQMom) in fm**2, nuclear magnetic moments (NMagM)
  in nuclear magnetons)

  Atom         1           2           3           4           5           6           7           8
 IAtWgt=          12          16          12          19          19          19          16           1
 AtmWgt=  12.0000000  15.9949146  12.0000000  18.9984032  18.9984032  18.9984032  15.9949146   1.0078250
 NucSpn=           0           0           0           1           1           1           0           1
 AtZEff=  -0.0000000  -0.0000000  -0.0000000  -0.0000000  -0.0000000  -0.0000000  -0.0000000  -0.0000000
 NQMom=    0.0000000   0.0000000   0.0000000   0.0000000   0.0000000   0.0000000   0.0000000   0.0000000
 NMagM=    0.0000000   0.0000000   0.0000000   2.6288670   2.6288670   2.6288670   0.0000000   2.7928460
 AtZNuc=   6.0000000   8.0000000   6.0000000   9.0000000   9.0000000   9.0000000   8.0000000   1.0000000
 Leave Link  101 at Sun May 25 05:01:06 2025, MaxMem=  3758096384 cpu:               0.2 elap:               0.2
 (Enter /apps/easybuild-2022/easybuild/software/Compiler/NVHPC/22.11-CUDA-11.7.0/Gaussian/g16c01-CUDA-11.7.0/g16/l103.exe)

 GradGradGradGradGradGradGradGradGradGradGradGradGradGradGradGradGradGrad
 Berny optimization.
 Initialization pass.
                           ----------------------------
                           !    Initial Parameters    !
                           ! (Angstroms and Degrees)  !
 --------------------------                            --------------------------
 ! Name  Definition              Value          Derivative Info.                !
 --------------------------------------------------------------------------------
 ! R1    R(1,3)                  1.5426         calculate D2E/DX2 analytically  !
 ! R2    R(1,7)                  1.2511         calculate D2E/DX2 analytically  !
 ! R3    R(2,7)                  1.4413         calculate D2E/DX2 analytically  !
 ! R4    R(2,8)                  0.9682         calculate D2E/DX2 analytically  !
 ! R5    R(3,4)                  1.3295         calculate D2E/DX2 analytically  !
 ! R6    R(3,5)                  1.3357         calculate D2E/DX2 analytically  !
 ! R7    R(3,6)                  1.3291         calculate D2E/DX2 analytically  !
 ! A1    A(3,1,7)              105.1964         calculate D2E/DX2 analytically  !
 ! A2    A(7,2,8)               99.5587         calculate D2E/DX2 analytically  !
 ! A3    A(1,3,4)              107.8195         calculate D2E/DX2 analytically  !
 ! A4    A(1,3,5)              116.5554         calculate D2E/DX2 analytically  !
 ! A5    A(1,3,6)              107.9815         calculate D2E/DX2 analytically  !
 ! A6    A(4,3,5)              107.6271         calculate D2E/DX2 analytically  !
 ! A7    A(4,3,6)              109.0955         calculate D2E/DX2 analytically  !
 ! A8    A(5,3,6)              107.5987         calculate D2E/DX2 analytically  !
 ! A9    A(1,7,2)              111.6012         calculate D2E/DX2 analytically  !
 ! D1    D(7,1,3,4)           -120.0479         calculate D2E/DX2 analytically  !
 ! D2    D(7,1,3,5)              1.033          calculate D2E/DX2 analytically  !
 ! D3    D(7,1,3,6)            122.2028         calculate D2E/DX2 analytically  !
 ! D4    D(3,1,7,2)            179.8665         calculate D2E/DX2 analytically  !
 ! D5    D(8,2,7,1)           -179.9711         calculate D2E/DX2 analytically  !
 --------------------------------------------------------------------------------
 Trust Radius=3.00D-01 FncErr=1.00D-07 GrdErr=1.00D-06 EigMax=2.50D+02 EigMin=1.00D-04
 Number of steps in this run=     31 maximum allowed number of steps=    100.
 GradGradGradGradGradGradGradGradGradGradGradGradGradGradGradGradGradGrad

 Leave Link  103 at Sun May 25 05:01:06 2025, MaxMem=  3758096384 cpu:               0.0 elap:               0.0
 (Enter /apps/easybuild-2022/easybuild/software/Compiler/NVHPC/22.11-CUDA-11.7.0/Gaussian/g16c01-CUDA-11.7.0/g16/l202.exe)
                          Input orientation:                          
 ---------------------------------------------------------------------
 Center     Atomic      Atomic             Coordinates (Angstroms)
 Number     Number       Type             X           Y           Z
 ---------------------------------------------------------------------
      1          6           0       -0.521954    0.461036    0.756874
      2          8           0       -2.673870    0.002571    1.116518
      3          6           0        0.661995    0.103447   -0.165147
      4          9           0        1.630413   -0.401072    0.593324
      5          9           0        0.414629   -0.773604   -1.141718
      6          9           0        1.093696    1.225207   -0.732328
      7          8           0       -1.481200   -0.225574    0.340113
      8          1           0       -3.281298   -0.595741    0.657703
 ---------------------------------------------------------------------
                    Distance matrix (angstroms):
                    1          2          3          4          5
     1  C    0.000000
     2  O    2.229412   0.000000
     3  C    1.542637   3.575030   0.000000
     4  F    2.324363   4.354711   1.329530   0.000000
     5  F    2.450750   3.903960   1.335702   2.151112   0.000000
     6  F    2.326372   4.371227   1.329062   2.165687   2.150344
     7  O    1.251110   1.441290   2.226393   3.126828   2.467859
     8  H    2.956449   0.968224   4.088460   4.915989   4.114539
                    6          7          8
     6  F    0.000000
     7  O    3.144040   0.000000
     8  H    4.938483   1.865004   0.000000
 Symmetry turned off by external request.
 Stoichiometry    C2HF3O2
 Rotational constants (GHZ):           5.4702906           1.6083762           1.5917519
 Leave Link  202 at Sun May 25 05:01:06 2025, MaxMem=  3758096384 cpu:               0.0 elap:               0.0
 (Enter /apps/easybuild-2022/easybuild/software/Compiler/NVHPC/22.11-CUDA-11.7.0/Gaussian/g16c01-CUDA-11.7.0/g16/l301.exe)
 Standard basis: def2TZVPP (5D, 7F)
 Ernie: Thresh=  0.10000D-02 Tol=  0.10000D-05 Strict=F.
   231 basis functions,   374 primitive gaussians,   267 cartesian basis functions
    28 alpha electrons       28 beta electrons
       nuclear repulsion energy       324.8834504942 Hartrees.
 IExCor= 4336 DFT=T Ex+Corr=M062X ExCW=0 ScaHFX=  0.540000
 ScaDFX=  1.000000  1.000000  1.000000  1.000000 ScalE2=  1.000000  1.000000
 IRadAn=      5 IRanWt=     -1 IRanGd=            0 ICorTp=0 IEmpDi=  4
 NAtoms=    8 NActive=    8 NUniq=    8 SFac= 1.00D+00 NAtFMM=   60 NAOKFM=F Big=F
 Integral buffers will be    131072 words long.
 Raffenetti 2 integral format.
 Two-electron integral symmetry is turned off.
 Leave Link  301 at Sun May 25 05:01:06 2025, MaxMem=  3758096384 cpu:               0.0 elap:               0.0
 (Enter /apps/easybuild-2022/easybuild/software/Compiler/NVHPC/22.11-CUDA-11.7.0/Gaussian/g16c01-CUDA-11.7.0/g16/l302.exe)
 NPDir=0 NMtPBC=     1 NCelOv=     1 NCel=       1 NClECP=     1 NCelD=      1
         NCelK=      1 NCelE2=     1 NClLst=     1 CellRange=     0.0.
 One-electron integrals computed using PRISM.
   1 Symmetry operations used in ECPInt.
 ECPInt:  NShTT=    3486 NPrTT=   11183 LenC2=    3328 LenP2D=    8427.
 LDataN:  DoStor=T MaxTD1= 6 Len=  172
 NBasis=   231 RedAO= T EigKep=  5.92D-04  NBF=   231
 NBsUse=   231 1.00D-06 EigRej= -1.00D+00 NBFU=   231
 Precomputing XC quadrature grid using
 IXCGrd= 4 IRadAn=           5 IRanWt=          -1 IRanGd=           0 AccXCQ= 0.00D+00.
 Generated NRdTot=       0 NPtTot=           0 NUsed=           0 NTot=          32
 NSgBfM=   266   266   266   266   266 MxSgAt=     8 MxSgA2=     8.
 Leave Link  302 at Sun May 25 05:01:06 2025, MaxMem=  3758096384 cpu:               0.4 elap:               0.1
 (Enter /apps/easybuild-2022/easybuild/software/Compiler/NVHPC/22.11-CUDA-11.7.0/Gaussian/g16c01-CUDA-11.7.0/g16/l303.exe)
 DipDrv:  MaxL=1.
 Leave Link  303 at Sun May 25 05:01:06 2025, MaxMem=  3758096384 cpu:               0.1 elap:               0.0
 (Enter /apps/easybuild-2022/easybuild/software/Compiler/NVHPC/22.11-CUDA-11.7.0/Gaussian/g16c01-CUDA-11.7.0/g16/l401.exe)
 ExpMin= 9.52D-02 ExpMax= 3.55D+04 ExpMxC= 1.21D+03 IAcc=3 IRadAn=         5 AccDes= 0.00D+00
 Harris functional with IExCor= 1009 and IRadAn=       5 diagonalized for initial guess.
 HarFok:  IExCor= 1009 AccDes= 0.00D+00 IRadAn=         5 IDoV= 1 UseB2=F ITyADJ=14
 ICtDFT=  3500011 ScaDFX=  1.000000  1.000000  1.000000  1.000000
 FoFCou: FMM=F IPFlag=           0 FMFlag=      100000 FMFlg1=           0
         NFxFlg=           0 DoJE=T BraDBF=F KetDBF=T FulRan=T
         wScrn=  0.000000 ICntrl=       500 IOpCl=  0 I1Cent=   200000004 NGrid=           0
         NMat0=    1 NMatS0=      1 NMatT0=    0 NMatD0=    1 NMtDS0=    0 NMtDT0=    0
 Symmetry not used in FoFCou.
 Harris En= -526.336009555584    
 JPrj=0 DoOrth=F DoCkMO=F.
 Leave Link  401 at Sun May 25 05:01:06 2025, MaxMem=  3758096384 cpu:               2.0 elap:               0.3
 (Enter /apps/easybuild-2022/easybuild/software/Compiler/NVHPC/22.11-CUDA-11.7.0/Gaussian/g16c01-CUDA-11.7.0/g16/l502.exe)
 Keep R1 ints in memory in canonical form, NReq=368651279.
 FoFCou: FMM=F IPFlag=           0 FMFlag=           0 FMFlg1=           0
         NFxFlg=           0 DoJE=F BraDBF=F KetDBF=F FulRan=T
         wScrn=  0.000000 ICntrl=       600 IOpCl=  0 I1Cent=           0 NGrid=           0
         NMat0=    1 NMatS0=  26796 NMatT0=    0 NMatD0=    1 NMtDS0=    0 NMtDT0=    0
 Symmetry not used in FoFCou.
 Two-electron integral symmetry not used.
 Closed shell SCF:
 Using DIIS extrapolation, IDIIS=  1040.
 NGot=  3758096384 LenX=  3398923531 LenY=  3398851801
 Requested convergence on RMS density matrix=1.00D-08 within  32 cycles.
 Requested convergence on MAX density matrix=1.00D-06.
 Requested convergence on             energy=1.00D-06.
 No special actions if energy rises.
 Integral accuracy reduced to 1.0D-05 until final iterations.

 Cycle   1  Pass 0  IDiag  1:
 E= -526.553250147135    
 DIIS: error= 2.22D-02 at cycle   1 NSaved=   1.
 NSaved= 1 IEnMin= 1 EnMin= -526.553250147135     IErMin= 1 ErrMin= 2.22D-02
 ErrMax= 2.22D-02  0.00D+00 EMaxC= 1.00D-01 BMatC= 1.96D-01 BMatP= 1.96D-01
 IDIUse=3 WtCom= 7.78D-01 WtEn= 2.22D-01
 Coeff-Com:  0.100D+01
 Coeff-En:   0.100D+01
 Coeff:      0.100D+01
 Gap=     0.274 Goal=   None    Shift=    0.000
 GapD=    0.274 DampG=1.000 DampE=0.500 DampFc=0.5000 IDamp=-1.
 Damping current iteration by 5.00D-01
 RMSDP=1.85D-03 MaxDP=7.18D-02              OVMax= 1.05D-01

 Cycle   2  Pass 0  IDiag  1:
 E= -526.593138434298     Delta-E=       -0.039888287163 Rises=F Damp=T
 DIIS: error= 7.43D-03 at cycle   2 NSaved=   2.
 NSaved= 2 IEnMin= 2 EnMin= -526.593138434298     IErMin= 2 ErrMin= 7.43D-03
 ErrMax= 7.43D-03  0.00D+00 EMaxC= 1.00D-01 BMatC= 2.68D-02 BMatP= 1.96D-01
 IDIUse=3 WtCom= 9.26D-01 WtEn= 7.43D-02
 Coeff-Com: -0.136D-01 0.101D+01
 Coeff-En:   0.101D+00 0.899D+00
 Coeff:     -0.513D-02 0.101D+01
 Gap=     0.299 Goal=   None    Shift=    0.000
 RMSDP=6.16D-04 MaxDP=1.85D-02 DE=-3.99D-02 OVMax= 7.16D-02

 Cycle   3  Pass 0  IDiag  1:
 E= -526.640633385927     Delta-E=       -0.047494951629 Rises=F Damp=F
 DIIS: error= 5.09D-03 at cycle   3 NSaved=   3.
 NSaved= 3 IEnMin= 3 EnMin= -526.640633385927     IErMin= 3 ErrMin= 5.09D-03
 ErrMax= 5.09D-03  0.00D+00 EMaxC= 1.00D-01 BMatC= 1.02D-02 BMatP= 2.68D-02
 IDIUse=3 WtCom= 9.49D-01 WtEn= 5.09D-02
 Coeff-Com: -0.132D+00 0.401D+00 0.731D+00
 Coeff-En:   0.000D+00 0.000D+00 0.100D+01
 Coeff:     -0.126D+00 0.381D+00 0.745D+00
 Gap=     0.295 Goal=   None    Shift=    0.000
 RMSDP=2.89D-04 MaxDP=1.27D-02 DE=-4.75D-02 OVMax= 2.68D-02

 Cycle   4  Pass 0  IDiag  1:
 E= -526.646179960934     Delta-E=       -0.005546575007 Rises=F Damp=F
 DIIS: error= 2.35D-03 at cycle   4 NSaved=   4.
 NSaved= 4 IEnMin= 4 EnMin= -526.646179960934     IErMin= 4 ErrMin= 2.35D-03
 ErrMax= 2.35D-03  0.00D+00 EMaxC= 1.00D-01 BMatC= 2.11D-03 BMatP= 1.02D-02
 IDIUse=3 WtCom= 9.76D-01 WtEn= 2.35D-02
 Coeff-Com: -0.624D-01 0.127D+00 0.408D+00 0.528D+00
 Coeff-En:   0.000D+00 0.000D+00 0.126D+00 0.874D+00
 Coeff:     -0.609D-01 0.124D+00 0.401D+00 0.536D+00
 Gap=     0.298 Goal=   None    Shift=    0.000
 RMSDP=8.79D-05 MaxDP=3.69D-03 DE=-5.55D-03 OVMax= 7.60D-03

 Cycle   5  Pass 0  IDiag  1:
 E= -526.647492759429     Delta-E=       -0.001312798495 Rises=F Damp=F
 DIIS: error= 3.19D-04 at cycle   5 NSaved=   5.
 NSaved= 5 IEnMin= 5 EnMin= -526.647492759429     IErMin= 5 ErrMin= 3.19D-04
 ErrMax= 3.19D-04  0.00D+00 EMaxC= 1.00D-01 BMatC= 4.56D-05 BMatP= 2.11D-03
 IDIUse=3 WtCom= 9.97D-01 WtEn= 3.19D-03
 Coeff-Com: -0.152D-01 0.238D-01 0.114D+00 0.200D+00 0.678D+00
 Coeff-En:   0.000D+00 0.000D+00 0.000D+00 0.000D+00 0.100D+01
 Coeff:     -0.151D-01 0.237D-01 0.114D+00 0.199D+00 0.679D+00
 Gap=     0.298 Goal=   None    Shift=    0.000
 RMSDP=2.62D-05 MaxDP=1.79D-03 DE=-1.31D-03 OVMax= 2.77D-03

 Cycle   6  Pass 0  IDiag  1:
 E= -526.647533368290     Delta-E=       -0.000040608861 Rises=F Damp=F
 DIIS: error= 1.44D-04 at cycle   6 NSaved=   6.
 NSaved= 6 IEnMin= 6 EnMin= -526.647533368290     IErMin= 6 ErrMin= 1.44D-04
 ErrMax= 1.44D-04  0.00D+00 EMaxC= 1.00D-01 BMatC= 6.44D-06 BMatP= 4.56D-05
 IDIUse=3 WtCom= 9.99D-01 WtEn= 1.44D-03
 Coeff-Com:  0.640D-03-0.433D-02 0.266D-02 0.393D-02 0.214D+00 0.783D+00
 Coeff-En:   0.000D+00 0.000D+00 0.000D+00 0.000D+00 0.000D+00 0.100D+01
 Coeff:      0.639D-03-0.433D-02 0.266D-02 0.393D-02 0.214D+00 0.783D+00
 Gap=     0.298 Goal=   None    Shift=    0.000
 RMSDP=1.42D-05 MaxDP=4.00D-04 DE=-4.06D-05 OVMax= 1.98D-03

 Cycle   7  Pass 0  IDiag  1:
 E= -526.647541171284     Delta-E=       -0.000007802994 Rises=F Damp=F
 DIIS: error= 8.09D-05 at cycle   7 NSaved=   7.
 NSaved= 7 IEnMin= 7 EnMin= -526.647541171284     IErMin= 7 ErrMin= 8.09D-05
 ErrMax= 8.09D-05  0.00D+00 EMaxC= 1.00D-01 BMatC= 1.35D-06 BMatP= 6.44D-06
 IDIUse=1 WtCom= 1.00D+00 WtEn= 0.00D+00
 Coeff-Com:  0.388D-02-0.763D-02-0.231D-01-0.469D-01-0.539D-01 0.312D+00
 Coeff-Com:  0.815D+00
 Coeff:      0.388D-02-0.763D-02-0.231D-01-0.469D-01-0.539D-01 0.312D+00
 Coeff:      0.815D+00
 Gap=     0.298 Goal=   None    Shift=    0.000
 RMSDP=7.52D-06 MaxDP=3.80D-04 DE=-7.80D-06 OVMax= 1.05D-03

 Initial convergence to 1.0D-05 achieved.  Increase integral accuracy.
 Cycle   8  Pass 1  IDiag  1:
 E= -526.647543704826     Delta-E=       -0.000002533543 Rises=F Damp=F
 DIIS: error= 2.87D-05 at cycle   1 NSaved=   1.
 NSaved= 1 IEnMin= 1 EnMin= -526.647543704826     IErMin= 1 ErrMin= 2.87D-05
 ErrMax= 2.87D-05  0.00D+00 EMaxC= 1.00D-01 BMatC= 6.32D-07 BMatP= 6.32D-07
 IDIUse=1 WtCom= 1.00D+00 WtEn= 0.00D+00
 Coeff-Com:  0.100D+01
 Coeff:      0.100D+01
 Gap=     0.298 Goal=   None    Shift=    0.000
 RMSDP=7.52D-06 MaxDP=3.80D-04 DE=-2.53D-06 OVMax= 4.48D-04

 Cycle   9  Pass 1  IDiag  1:
 E= -526.647544082590     Delta-E=       -0.000000377763 Rises=F Damp=F
 DIIS: error= 2.98D-05 at cycle   2 NSaved=   2.
 NSaved= 2 IEnMin= 2 EnMin= -526.647544082590     IErMin= 1 ErrMin= 2.87D-05
 ErrMax= 2.98D-05  0.00D+00 EMaxC= 1.00D-01 BMatC= 3.02D-07 BMatP= 6.32D-07
 IDIUse=1 WtCom= 1.00D+00 WtEn= 0.00D+00
 Coeff-Com:  0.377D+00 0.623D+00
 Coeff:      0.377D+00 0.623D+00
 Gap=     0.298 Goal=   None    Shift=    0.000
 RMSDP=1.77D-06 MaxDP=8.24D-05 DE=-3.78D-07 OVMax= 1.85D-04

 Cycle  10  Pass 1  IDiag  1:
 E= -526.647544258431     Delta-E=       -0.000000175841 Rises=F Damp=F
 DIIS: error= 1.44D-05 at cycle   3 NSaved=   3.
 NSaved= 3 IEnMin= 3 EnMin= -526.647544258431     IErMin= 3 ErrMin= 1.44D-05
 ErrMax= 1.44D-05  0.00D+00 EMaxC= 1.00D-01 BMatC= 7.12D-08 BMatP= 3.02D-07
 IDIUse=1 WtCom= 1.00D+00 WtEn= 0.00D+00
 Coeff-Com: -0.259D-01 0.312D+00 0.714D+00
 Coeff:     -0.259D-01 0.312D+00 0.714D+00
 Gap=     0.298 Goal=   None    Shift=    0.000
 RMSDP=9.94D-07 MaxDP=3.76D-05 DE=-1.76D-07 OVMax= 9.13D-05

 Cycle  11  Pass 1  IDiag  1:
 E= -526.647544308458     Delta-E=       -0.000000050027 Rises=F Damp=F
 DIIS: error= 3.93D-06 at cycle   4 NSaved=   4.
 NSaved= 4 IEnMin= 4 EnMin= -526.647544308458     IErMin= 4 ErrMin= 3.93D-06
 ErrMax= 3.93D-06  0.00D+00 EMaxC= 1.00D-01 BMatC= 5.16D-09 BMatP= 7.12D-08
 IDIUse=1 WtCom= 1.00D+00 WtEn= 0.00D+00
 Coeff-Com: -0.296D-01 0.121D+00 0.330D+00 0.579D+00
 Coeff:     -0.296D-01 0.121D+00 0.330D+00 0.579D+00
 Gap=     0.298 Goal=   None    Shift=    0.000
 RMSDP=2.65D-07 MaxDP=1.37D-05 DE=-5.00D-08 OVMax= 2.91D-05

 Cycle  12  Pass 1  IDiag  1:
 E= -526.647544312913     Delta-E=       -0.000000004455 Rises=F Damp=F
 DIIS: error= 1.42D-06 at cycle   5 NSaved=   5.
 NSaved= 5 IEnMin= 5 EnMin= -526.647544312913     IErMin= 5 ErrMin= 1.42D-06
 ErrMax= 1.42D-06  0.00D+00 EMaxC= 1.00D-01 BMatC= 7.56D-10 BMatP= 5.16D-09
 IDIUse=1 WtCom= 1.00D+00 WtEn= 0.00D+00
 Coeff-Com: -0.322D-02-0.219D-01-0.564D-01 0.210D+00 0.871D+00
 Coeff:     -0.322D-02-0.219D-01-0.564D-01 0.210D+00 0.871D+00
 Gap=     0.298 Goal=   None    Shift=    0.000
 RMSDP=1.57D-07 MaxDP=7.11D-06 DE=-4.45D-09 OVMax= 1.79D-05

 Cycle  13  Pass 1  IDiag  1:
 E= -526.647544313829     Delta-E=       -0.000000000917 Rises=F Damp=F
 DIIS: error= 6.68D-07 at cycle   6 NSaved=   6.
 NSaved= 6 IEnMin= 6 EnMin= -526.647544313829     IErMin= 6 ErrMin= 6.68D-07
 ErrMax= 6.68D-07  0.00D+00 EMaxC= 1.00D-01 BMatC= 1.15D-10 BMatP= 7.56D-10
 IDIUse=1 WtCom= 1.00D+00 WtEn= 0.00D+00
 Coeff-Com:  0.370D-02-0.307D-01-0.880D-01 0.160D-01 0.392D+00 0.707D+00
 Coeff:      0.370D-02-0.307D-01-0.880D-01 0.160D-01 0.392D+00 0.707D+00
 Gap=     0.298 Goal=   None    Shift=    0.000
 RMSDP=7.55D-08 MaxDP=2.04D-06 DE=-9.17D-10 OVMax= 1.12D-05

 Cycle  14  Pass 1  IDiag  1:
 E= -526.647544313997     Delta-E=       -0.000000000167 Rises=F Damp=F
 DIIS: error= 1.89D-07 at cycle   7 NSaved=   7.
 NSaved= 7 IEnMin= 7 EnMin= -526.647544313997     IErMin= 7 ErrMin= 1.89D-07
 ErrMax= 1.89D-07  0.00D+00 EMaxC= 1.00D-01 BMatC= 1.46D-11 BMatP= 1.15D-10
 IDIUse=1 WtCom= 1.00D+00 WtEn= 0.00D+00
 Coeff-Com:  0.204D-02-0.127D-01-0.366D-01-0.102D-01 0.808D-01 0.309D+00
 Coeff-Com:  0.668D+00
 Coeff:      0.204D-02-0.127D-01-0.366D-01-0.102D-01 0.808D-01 0.309D+00
 Coeff:      0.668D+00
 Gap=     0.298 Goal=   None    Shift=    0.000
 RMSDP=1.82D-08 MaxDP=9.23D-07 DE=-1.67D-10 OVMax= 1.81D-06

 Cycle  15  Pass 1  IDiag  1:
 E= -526.647544313997     Delta-E=       -0.000000000000 Rises=F Damp=F
 DIIS: error= 4.53D-08 at cycle   8 NSaved=   8.
 NSaved= 8 IEnMin= 8 EnMin= -526.647544313997     IErMin= 8 ErrMin= 4.53D-08
 ErrMax= 4.53D-08  0.00D+00 EMaxC= 1.00D-01 BMatC= 1.15D-12 BMatP= 1.46D-11
 IDIUse=1 WtCom= 1.00D+00 WtEn= 0.00D+00
 Coeff-Com: -0.137D-03 0.269D-02 0.724D-02-0.374D-02-0.579D-01-0.373D-01
 Coeff-Com:  0.190D+00 0.899D+00
 Coeff:     -0.137D-03 0.269D-02 0.724D-02-0.374D-02-0.579D-01-0.373D-01
 Coeff:      0.190D+00 0.899D+00
 Gap=     0.298 Goal=   None    Shift=    0.000
 RMSDP=1.08D-08 MaxDP=5.97D-07 DE=-2.27D-13 OVMax= 9.45D-07

 Cycle  16  Pass 1  IDiag  1:
 E= -526.647544314013     Delta-E=       -0.000000000016 Rises=F Damp=F
 DIIS: error= 2.02D-08 at cycle   9 NSaved=   9.
 NSaved= 9 IEnMin= 9 EnMin= -526.647544314013     IErMin= 9 ErrMin= 2.02D-08
 ErrMax= 2.02D-08  0.00D+00 EMaxC= 1.00D-01 BMatC= 8.46D-14 BMatP= 1.15D-12
 IDIUse=1 WtCom= 1.00D+00 WtEn= 0.00D+00
 Coeff-Com: -0.170D-03 0.163D-02 0.433D-02-0.581D-03-0.226D-01-0.295D-01
 Coeff-Com:  0.190D-01 0.297D+00 0.731D+00
 Coeff:     -0.170D-03 0.163D-02 0.433D-02-0.581D-03-0.226D-01-0.295D-01
 Coeff:      0.190D-01 0.297D+00 0.731D+00
 Gap=     0.298 Goal=   None    Shift=    0.000
 RMSDP=1.56D-09 MaxDP=4.95D-08 DE=-1.64D-11 OVMax= 1.62D-07

 SCF Done:  E(RM062X) =  -526.647544314     A.U. after   16 cycles
            NFock= 16  Conv=0.16D-08     -V/T= 2.0036
 KE= 5.247471703915D+02 PE=-1.897494704724D+03 EE= 5.212165395245D+02
 Leave Link  502 at Sun May 25 05:01:16 2025, MaxMem=  3758096384 cpu:              48.6 elap:               9.6
 (Enter /apps/easybuild-2022/easybuild/software/Compiler/NVHPC/22.11-CUDA-11.7.0/Gaussian/g16c01-CUDA-11.7.0/g16/l508.exe)
 QCSCF skips out because SCF is already converged.
 Leave Link  508 at Sun May 25 05:01:16 2025, MaxMem=  3758096384 cpu:               0.0 elap:               0.0
 (Enter /apps/easybuild-2022/easybuild/software/Compiler/NVHPC/22.11-CUDA-11.7.0/Gaussian/g16c01-CUDA-11.7.0/g16/l801.exe)
 DoSCS=F DFT=T ScalE2(SS,OS)=  1.000000  1.000000
 Range of M.O.s used for correlation:     1   231
 NBasis=   231 NAE=    28 NBE=    28 NFC=     0 NFV=     0
 NROrb=    231 NOA=    28 NOB=    28 NVA=   203 NVB=   203

 **** Warning!!: The largest alpha MO coefficient is  0.16861995D+02

 Leave Link  801 at Sun May 25 05:01:16 2025, MaxMem=  3758096384 cpu:               0.0 elap:               0.0
 (Enter /apps/easybuild-2022/easybuild/software/Compiler/NVHPC/22.11-CUDA-11.7.0/Gaussian/g16c01-CUDA-11.7.0/g16/l1101.exe)
 Using compressed storage, NAtomX=     8.
 Will process      9 centers per pass.
   1 Symmetry operations used in ECPInt.
 ECPInt:  NShTT=    3486 NPrTT=   11183 LenC2=    3328 LenP2D=    8427.
 LDataN:  DoStor=T MaxTD1= 7 Len=  274
 Leave Link 1101 at Sun May 25 05:01:16 2025, MaxMem=  3758096384 cpu:               0.6 elap:               0.1
 (Enter /apps/easybuild-2022/easybuild/software/Compiler/NVHPC/22.11-CUDA-11.7.0/Gaussian/g16c01-CUDA-11.7.0/g16/l1102.exe)
 Symmetrizing basis deriv contribution to polar:
 IMax=3 JMax=2 DiffMx= 0.00D+00
 Leave Link 1102 at Sun May 25 05:01:16 2025, MaxMem=  3758096384 cpu:               0.0 elap:               0.0
 (Enter /apps/easybuild-2022/easybuild/software/Compiler/NVHPC/22.11-CUDA-11.7.0/Gaussian/g16c01-CUDA-11.7.0/g16/l1110.exe)
 Forming Gx(P) for the SCF density, NAtomX=     8.
 Integral derivatives from FoFJK, PRISM(SPDF).
 Do as many integral derivatives as possible in FoFJK.
 G2DrvN: MDV=    3758095424.
 G2DrvN: will do     9 centers at a time, making    1 passes.
 Calling FoFCou, ICntrl=  3107 FMM=F I1Cent=   0 AccDes= 0.00D+00.
 FoFJK:  IHMeth= 1 ICntrl=    3107 DoSepK=F KAlg= 0 I1Cent=           0 FoldK=F
 IRaf=         0 NMat=       1 IRICut=       1 DoRegI=T DoRafI=F ISym2E= 0 IDoP0=0 IntGTp=1.
 FoFCou: FMM=F IPFlag=           0 FMFlag=      100000 FMFlg1=           0
         NFxFlg=           0 DoJE=F BraDBF=F KetDBF=F FulRan=T
         wScrn=  0.000000 ICntrl=      3107 IOpCl=  0 I1Cent=           0 NGrid=           0
         NMat0=    1 NMatS0=      1 NMatT0=    0 NMatD0=    1 NMtDS0=    0 NMtDT0=    0
 Symmetry not used in FoFCou.
 End of G2Drv F.D. properties file   721 does not exist.
 End of G2Drv F.D. properties file   722 does not exist.
 End of G2Drv F.D. properties file   788 does not exist.
 Leave Link 1110 at Sun May 25 05:01:29 2025, MaxMem=  3758096384 cpu:             102.1 elap:              12.9
 (Enter /apps/easybuild-2022/easybuild/software/Compiler/NVHPC/22.11-CUDA-11.7.0/Gaussian/g16c01-CUDA-11.7.0/g16/l1002.exe)
 Minotr:  Closed shell wavefunction.
          IDoAtm=11111111
          Direct CPHF calculation.
          Differentiating once with respect to nuclear coordinates.
          Requested convergence is 1.0D-08 RMS, and 1.0D-07 maximum.
          Secondary convergence is 1.0D-12 RMS, and 1.0D-12 maximum.
          NewPWx=T KeepS1=F KeepF1=F KeepIn=T MapXYZ=F SortEE=F KeepMc=T.
         2399 words used for storage of precomputed grid.
 Keep R1 ints in memory in canonical form, NReq=368655247.
 FoFCou: FMM=F IPFlag=           0 FMFlag=           0 FMFlg1=           0
         NFxFlg=           0 DoJE=F BraDBF=F KetDBF=F FulRan=T
         wScrn=  0.000000 ICntrl=       600 IOpCl=  0 I1Cent=           0 NGrid=           0
         NMat0=    1 NMatS0=  26796 NMatT0=    0 NMatD0=    1 NMtDS0=    0 NMtDT0=    0
 Symmetry not used in FoFCou.
 Two-electron integral symmetry not used.
          MDV=    3758096384 using IRadAn=       1.
          Solving linear equations simultaneously, MaxMat=       0.
          There are    27 degrees of freedom in the 1st order CPHF.  IDoFFX=6 NUNeed=     0.
     21 vectors produced by pass  0 Test12= 2.11D-14 3.70D-09 XBig12= 1.16D-01 1.23D-01.
 AX will form    21 AO Fock derivatives at one time.
     21 vectors produced by pass  1 Test12= 2.11D-14 3.70D-09 XBig12= 3.06D-02 7.69D-02.
     21 vectors produced by pass  2 Test12= 2.11D-14 3.70D-09 XBig12= 1.35D-03 9.63D-03.
     21 vectors produced by pass  3 Test12= 2.11D-14 3.70D-09 XBig12= 6.28D-05 2.47D-03.
     21 vectors produced by pass  4 Test12= 2.11D-14 3.70D-09 XBig12= 1.46D-06 2.21D-04.
     21 vectors produced by pass  5 Test12= 2.11D-14 3.70D-09 XBig12= 1.97D-08 2.81D-05.
     21 vectors produced by pass  6 Test12= 2.11D-14 3.70D-09 XBig12= 1.70D-10 2.35D-06.
     10 vectors produced by pass  7 Test12= 2.11D-14 3.70D-09 XBig12= 9.50D-13 1.50D-07.
      1 vectors produced by pass  8 Test12= 2.11D-14 3.70D-09 XBig12= 4.18D-15 1.30D-08.
 InvSVY:  IOpt=1 It=  1 EMax= 1.11D-15
 Solved reduced A of dimension   158 with    21 vectors.
 End of Minotr F.D. properties file   721 does not exist.
 End of Minotr F.D. properties file   722 does not exist.
 End of Minotr F.D. properties file   788 does not exist.
 Leave Link 1002 at Sun May 25 05:01:46 2025, MaxMem=  3758096384 cpu:             128.9 elap:              16.6
 (Enter /apps/easybuild-2022/easybuild/software/Compiler/NVHPC/22.11-CUDA-11.7.0/Gaussian/g16c01-CUDA-11.7.0/g16/l701.exe)
 ... and contract with generalized density number  0.
 Compute integral second derivatives.
   1 Symmetry operations used in ECPInt.
 ECPInt:  NShTT=    3486 NPrTT=   11183 LenC2=    3328 LenP2D=    8427.
 LDataN:  DoStor=T MaxTD1= 8 Len=  415
 Leave Link  701 at Sun May 25 05:01:46 2025, MaxMem=  3758096384 cpu:               0.6 elap:               0.1
 (Enter /apps/easybuild-2022/easybuild/software/Compiler/NVHPC/22.11-CUDA-11.7.0/Gaussian/g16c01-CUDA-11.7.0/g16/l702.exe)
 L702 exits ... SP integral derivatives will be done elsewhere.
 Leave Link  702 at Sun May 25 05:01:46 2025, MaxMem=  3758096384 cpu:               0.0 elap:               0.0
 (Enter /apps/easybuild-2022/easybuild/software/Compiler/NVHPC/22.11-CUDA-11.7.0/Gaussian/g16c01-CUDA-11.7.0/g16/l703.exe)
 Integral derivatives from FoFJK, PRISM(SPDF).
 Compute integral second derivatives, UseDBF=F ICtDFT=           0.
 Calling FoFJK, ICntrl=    100127 FMM=F ISym2X=0 I1Cent= 0 IOpClX= 0 NMat=1 NMatS=1 NMatT=0.
 FoFJK:  IHMeth= 1 ICntrl=  100127 DoSepK=F KAlg= 0 I1Cent=           0 FoldK=F
 IRaf=         0 NMat=       1 IRICut=       1 DoRegI=T DoRafI=F ISym2E= 0 IDoP0=0 IntGTp=1.
 FoFCou: FMM=F IPFlag=           0 FMFlag=      100000 FMFlg1=         800
         NFxFlg=           0 DoJE=F BraDBF=F KetDBF=F FulRan=T
         wScrn=  0.000000 ICntrl=    100127 IOpCl=  0 I1Cent=           0 NGrid=           0
         NMat0=    1 NMatS0=      1 NMatT0=    0 NMatD0=    1 NMtDS0=    0 NMtDT0=    0
 Symmetry not used in FoFCou.
 Leave Link  703 at Sun May 25 05:02:18 2025, MaxMem=  3758096384 cpu:             250.8 elap:              31.6
 (Enter /apps/easybuild-2022/easybuild/software/Compiler/NVHPC/22.11-CUDA-11.7.0/Gaussian/g16c01-CUDA-11.7.0/g16/l716.exe)
 Dipole        =-1.05340548D+00-6.10077553D-01-2.89368339D-01
 Polarizability= 0.00000000D+00 0.00000000D+00 0.00000000D+00
                 0.00000000D+00 0.00000000D+00 0.00000000D+00
 -------------------------------------------------------------------
 Center     Atomic                   Forces (Hartrees/Bohr)
 Number     Number              X              Y              Z
 -------------------------------------------------------------------
      1        6          -0.000003503    0.000001772    0.000001204
      2        8          -0.000001339    0.000006263    0.000006022
      3        6          -0.000002877   -0.000006550   -0.000002668
      4        9           0.000004457   -0.000002415   -0.000003874
      5        9          -0.000008560    0.000001810    0.000001710
      6        9           0.000003207   -0.000001499   -0.000000938
      7        8           0.000008341   -0.000003291   -0.000003480
      8        1           0.000000275    0.000003909    0.000002024
 -------------------------------------------------------------------
 Cartesian Forces:  Max     0.000008560 RMS     0.000004072
 Force constants in Cartesian coordinates: 
                1             2             3             4             5 
      1  0.542075D+00
      2  0.178747D+00  0.238395D+00
      3  0.883140D-02  0.141741D+00  0.221870D+00
      4 -0.988361D-01 -0.269898D-01  0.295802D-02  0.394644D+00
      5 -0.247675D-01  0.481677D-02  0.344627D-01  0.192922D+00  0.261591D+00
      6  0.560554D-02  0.353340D-01  0.245898D-01  0.706646D-01  0.212703D+00
      7 -0.107680D+00  0.109538D-01  0.398421D-01  0.143248D-01 -0.706473D-02
      8  0.392558D-01 -0.541708D-01 -0.282059D-01 -0.841623D-02  0.605922D-02
      9  0.737422D-01 -0.160829D-01 -0.944250D-01 -0.904668D-02 -0.920571D-02
     10 -0.298052D-01  0.135701D-01 -0.229857D-01 -0.509946D-02 -0.483634D-02
     11  0.173235D-01 -0.222215D-03  0.833124D-02  0.189095D-02  0.125584D-02
     12  0.144946D-02 -0.496642D-02  0.794205D-02 -0.547242D-03  0.800190D-04
     13  0.114689D-02  0.124558D-01  0.175355D-01  0.274714D-03  0.507058D-03
     14  0.143220D-03 -0.994029D-02 -0.204879D-01  0.416004D-02  0.214937D-03
     15  0.258597D-02 -0.256892D-01 -0.257204D-01  0.446157D-02  0.131792D-02
     16 -0.673503D-02 -0.273595D-01  0.135481D-01 -0.562161D-02  0.194873D-02
     17 -0.943712D-02 -0.681480D-02  0.337994D-02 -0.354874D-02  0.764406D-03
     18  0.152542D-01  0.255270D-01 -0.874313D-02  0.413694D-02 -0.303977D-03
     19 -0.285706D+00 -0.160106D+00 -0.642569D-01 -0.932960D-01  0.307503D-02
     20 -0.201573D+00 -0.171119D+00 -0.138048D+00  0.429017D-01 -0.658282D-01
     21 -0.113896D+00 -0.155351D+00 -0.122102D+00  0.830072D-01 -0.578766D-01
     22 -0.144596D-01 -0.127117D-02  0.452746D-02 -0.206391D+00 -0.161784D+00
     23  0.308088D-03 -0.944988D-03 -0.117251D-02 -0.202920D+00 -0.208874D+00
     24  0.642736D-02 -0.511924D-03 -0.341159D-02 -0.155634D+00 -0.181178D+00
                6             7             8             9            10 
      6  0.240223D+00
      7 -0.782708D-02  0.593515D+00
      8 -0.866165D-02  0.686487D-02  0.550141D+00
      9  0.910096D-02 -0.142279D-01  0.163993D-02  0.552248D+00
     10  0.411216D-02 -0.230739D+00  0.798679D-01 -0.850420D-01  0.264207D+00
     11 -0.346968D-03  0.695071D-01 -0.108206D+00  0.402512D-01 -0.101140D+00
     12  0.264195D-03 -0.854749D-01  0.391361D-01 -0.128896D+00  0.155793D+00
     13  0.157365D-04 -0.822837D-01 -0.123689D-01 -0.108111D-01 -0.156126D-01
     14 -0.151796D-03 -0.920598D-02 -0.162109D+00 -0.106004D+00 -0.961138D-02
     15 -0.122195D-02 -0.713358D-02 -0.104509D+00 -0.197780D+00 -0.400683D-01
     16 -0.149749D-02 -0.119409D+00 -0.774113D-01  0.572742D-01  0.209402D-01
     17 -0.422941D-03 -0.760394D-01 -0.218861D+00  0.873468D-01  0.149667D-01
     18  0.103321D-02  0.471654D-01  0.845989D-01 -0.131098D+00 -0.115351D-01
     19  0.354299D-01 -0.661391D-01 -0.266404D-01 -0.121330D-01 -0.400736D-02
     20 -0.746714D-01  0.559945D-02 -0.150786D-01  0.178424D-02  0.668716D-02
     21 -0.122813D+00  0.267995D-01  0.154940D-01 -0.116026D-01 -0.137905D-02
     22 -0.106503D+00 -0.158869D-02 -0.115178D-02  0.244173D-03  0.116469D-03
     23 -0.163782D+00 -0.615089D-03  0.222476D-02  0.270230D-03  0.495345D-03
     24 -0.151176D+00  0.856460D-03  0.507669D-03  0.245239D-02  0.110463D-02
               11            12            13            14            15 
     11  0.131448D+00
     12 -0.744779D-01  0.196094D+00
     13 -0.192750D-01 -0.531094D-01  0.925435D-01
     14  0.167324D-01 -0.656820D-02  0.464814D-01  0.227033D+00
     15 -0.175358D-01 -0.518621D-01  0.520199D-01  0.159572D+00  0.256071D+00
     16  0.275040D-01 -0.209074D-01  0.351514D-02 -0.257485D-01 -0.520196D-02
     17 -0.405716D-01  0.424981D-01 -0.319041D-01 -0.734774D-01 -0.103561D-01
     18  0.453254D-01 -0.231010D-01 -0.116846D-01 -0.277104D-01  0.189019D-01
     19  0.407595D-02  0.291176D-02  0.000000D+00 -0.678411D-02 -0.702923D-02
     20 -0.666819D-04  0.421045D-02  0.411664D-02  0.193486D-02 -0.274844D-02
     21 -0.115270D-02 -0.254046D-03  0.637987D-02  0.164242D-02  0.216018D-02
     22  0.112995D-03 -0.115658D-03  0.416416D-03  0.565306D-03  0.365595D-03
     23 -0.370168D-03  0.878447D-04 -0.128262D-04 -0.388742D-03 -0.508991D-04
     24 -0.394425D-03 -0.187040D-03 -0.345954D-03 -0.291934D-03 -0.548556D-03
               16            17            18            19            20 
     16  0.107903D+00
     17  0.102919D+00  0.339534D+00
     18 -0.483601D-01 -0.128329D+00  0.146596D+00
     19 -0.557716D-03  0.307384D-02  0.493274D-02  0.471871D+00
     20 -0.270107D-02 -0.788053D-03  0.150709D-02  0.169611D+00  0.246325D+00
     21  0.473867D-02  0.550663D-02 -0.296773D-02  0.157286D-01  0.188413D+00
     22 -0.350902D-04 -0.297496D-04  0.904971D-04 -0.221644D-01 -0.246416D-01
     23  0.849016D-03  0.214074D-03 -0.615280D-03  0.136951D-01  0.462046D-02
     24  0.405887D-03  0.376239D-03 -0.621855D-03  0.244162D-01  0.195538D-01
               21            22            23            24 
     21  0.247564D+00
     22 -0.213787D-01  0.244105D+00
     23  0.332490D-02  0.188200D+00  0.203518D+00
     24  0.100151D-01  0.122770D+00  0.161938D+00  0.143478D+00
 FormGI is forming the generalized inverse of G from B-inverse, IUseBI=4.
 Force constants in internal coordinates: 
                1             2             3             4             5 
      1  0.259057D+00
      2  0.168859D-01  0.598239D+00
      3 -0.727509D-02  0.991960D-01  0.241550D+00
      4  0.538885D-04  0.398438D-02 -0.441634D-02  0.519772D+00
      5  0.222845D-01  0.255128D-02  0.562122D-02 -0.722280D-03  0.440547D+00
      6  0.206416D-01 -0.913667D-03  0.632920D-02 -0.314317D-04  0.556935D-01
      7  0.224018D-01  0.262684D-02  0.553356D-02 -0.724109D-03  0.569022D-01
      8  0.900045D-01  0.911895D-01 -0.547975D-02 -0.239195D-02  0.148981D-01
      9  0.258694D-02  0.216636D-01  0.524492D-01  0.375185D-02  0.125615D-02
     10  0.133894D-01  0.130262D-01  0.492947D-02 -0.101491D-02  0.229830D-01
     11  0.293571D-01 -0.174830D-01 -0.118367D-02  0.280482D-03 -0.367440D-01
     12  0.141212D-01  0.133553D-01  0.486958D-02 -0.952293D-03 -0.258983D-01
     13 -0.239593D-01 -0.339023D-02 -0.244876D-02  0.546033D-03  0.297333D-01
     14 -0.107772D-01 -0.178511D-02 -0.423906D-02  0.667130D-03  0.266866D-01
     15 -0.244401D-01 -0.334434D-02 -0.234291D-02  0.537141D-03 -0.126433D-01
     16  0.919401D-02  0.840879D-01  0.655445D-01  0.107105D-01  0.486881D-02
     17  0.110890D-02  0.613699D-02  0.868427D-04 -0.166472D-03 -0.220194D-02
     18  0.710462D-04  0.362900D-05 -0.820915D-04 -0.520933D-04  0.296564D-01
     19 -0.897980D-03 -0.586949D-02 -0.156225D-03  0.991992D-04 -0.321569D-01
     20  0.426487D-04  0.183663D-03 -0.889492D-04 -0.506526D-04 -0.972180D-02
     21 -0.228081D-04 -0.572127D-04 -0.722253D-04 -0.157118D-03  0.281826D-03
                6             7             8             9            10 
      6  0.416532D+00
      7  0.558192D-01  0.442251D+00
      8 -0.149330D-01  0.153511D-01  0.364673D+00
      9  0.183886D-02  0.125324D-02  0.641310D-02  0.233240D+00
     10 -0.368008D-01 -0.261067D-01  0.122210D-01  0.172393D-02  0.180125D+00
     11  0.136042D-01 -0.369154D-01  0.138415D-01 -0.207927D-02 -0.141675D-01
     12 -0.370563D-01  0.231967D-01  0.125213D-01  0.176776D-02  0.165654D-01
     13  0.348426D-01 -0.125160D-01 -0.150567D-01 -0.442740D-03 -0.905069D-01
     14 -0.112667D-01  0.264586D-01 -0.985148D-02 -0.529257D-03 -0.698788D-01
     15  0.353690D-01  0.298527D-01 -0.152858D-01 -0.428171D-03 -0.293267D-01
     16  0.642724D-02  0.492899D-02  0.220323D-01  0.517605D-01  0.397916D-02
     17 -0.263000D-01  0.320118D-01  0.100610D-02  0.595832D-03  0.661597D-02
     18 -0.171656D-03 -0.296131D-01  0.195590D-03 -0.494595D-04  0.187776D-01
     19  0.264922D-01  0.241545D-02 -0.611902D-03 -0.647782D-03 -0.163505D-01
     20  0.233716D-03  0.921770D-02  0.572085D-04 -0.250388D-04 -0.202205D-01
     21 -0.358355D-04 -0.194562D-03 -0.785139D-04 -0.948228D-04  0.184646D-02
               11            12            13            14            15 
     11  0.216973D+00
     12 -0.154210D-01  0.181847D+00
     13 -0.825967D-01 -0.295284D-01  0.179620D+00
     14 -0.329965D-01 -0.697943D-01  0.121794D-01  0.166675D+00
     15 -0.832355D-01 -0.908415D-01  0.158639D-01  0.121153D-01  0.180203D+00
     16 -0.702541D-03  0.444663D-02 -0.265300D-02 -0.271036D-02 -0.263721D-02
     17 -0.273370D-01  0.168345D-01 -0.543708D-01  0.608966D-01  0.424238D-02
     18  0.519506D-03 -0.193082D-01  0.541085D-01  0.168290D-03 -0.541401D-01
     19  0.273979D-01 -0.684296D-02 -0.446681D-02 -0.609307D-01  0.541776D-01
     20  0.507067D-03  0.195160D-01 -0.863406D-04  0.159632D-03  0.104635D-03
     21 -0.683390D-04 -0.176215D-02  0.216997D-03 -0.146543D-04 -0.215374D-03
               16            17            18            19            20 
     16  0.378218D+00
     17  0.731723D-03  0.564217D-01
     18 -0.117280D-03 -0.279796D-01  0.576737D-01
     19 -0.578893D-03 -0.279206D-01 -0.279302D-01  0.563431D-01
     20 -0.426666D-04  0.784252D-02 -0.764515D-02  0.806859D-02  0.104760D+00
     21  0.828471D-04 -0.632537D-03  0.104009D-02 -0.663757D-03 -0.512056D-02
               21 
     21  0.545109D-02
 Leave Link  716 at Sun May 25 05:02:18 2025, MaxMem=  3758096384 cpu:               0.0 elap:               0.0
 (Enter /apps/easybuild-2022/easybuild/software/Compiler/NVHPC/22.11-CUDA-11.7.0/Gaussian/g16c01-CUDA-11.7.0/g16/l103.exe)

 GradGradGradGradGradGradGradGradGradGradGradGradGradGradGradGradGradGrad
 Berny optimization.
 Red2BG is reusing G-inverse.
 Internal  Forces:  Max     0.000015095 RMS     0.000005078
 Search for a local minimum.
 Step number   1 out of a maximum of   31
 All quantities printed in internal units (Hartrees-Bohrs-Radians)
 RMS Force = .50782D-05 SwitMx=.10000D-02 MixMth= 2
 Mixed Optimization -- En-DIIS/RFO-DIIS
 Second derivative matrix not updated -- analytic derivatives used.
 ITU=  0
     Eigenvalues ---    0.00012   0.00517   0.09199   0.15159   0.17278
     Eigenvalues ---    0.18501   0.19700   0.23508   0.24386   0.24408
     Eigenvalues ---    0.32380   0.37656   0.40040   0.41654   0.44614
     Eigenvalues ---    0.52046   0.57230   0.69727
 RFO step:  Lambda= 0.00000000D+00 EMin= 1.20517064D-04
 Linear search not attempted -- first point.
 Iteration  1 RMS(Cart)=  0.00091242 RMS(Int)=  0.00000059
 Iteration  2 RMS(Cart)=  0.00000071 RMS(Int)=  0.00000000
 ITry= 1 IFail=0 DXMaxC= 1.96D-03 DCOld= 1.00D+10 DXMaxT= 3.00D-01 DXLimC= 3.00D+00 Rises=F
 Variable       Old X    -DE/DX   Delta X   Delta X   Delta X     New X
                                 (Linear)    (Quad)   (Total)
    R1        2.91516  -0.00000   0.00000   0.00001   0.00001   2.91517
    R2        2.36426  -0.00000   0.00000  -0.00000  -0.00000   2.36425
    R3        2.72364   0.00000   0.00000   0.00002   0.00002   2.72366
    R4        1.82968   0.00000   0.00000   0.00000   0.00000   1.82968
    R5        2.51245   0.00000   0.00000   0.00004   0.00004   2.51249
    R6        2.52411  -0.00000   0.00000  -0.00001  -0.00001   2.52410
    R7        2.51156   0.00000   0.00000  -0.00003  -0.00003   2.51153
    A1        1.83602  -0.00002   0.00000  -0.00005  -0.00005   1.83598
    A2        1.73763  -0.00000   0.00000  -0.00001  -0.00001   1.73761
    A3        1.88181   0.00001   0.00000  -0.00008  -0.00008   1.88173
    A4        2.03428  -0.00001   0.00000  -0.00005  -0.00005   2.03423
    A5        1.88463   0.00000   0.00000   0.00012   0.00012   1.88476
    A6        1.87845   0.00000   0.00000   0.00004   0.00004   1.87848
    A7        1.90408  -0.00000   0.00000  -0.00002  -0.00002   1.90405
    A8        1.87795   0.00000   0.00000  -0.00001  -0.00001   1.87794
    A9        1.94781  -0.00000   0.00000  -0.00000  -0.00000   1.94781
    D1       -2.09523  -0.00000   0.00000   0.00191   0.00191  -2.09332
    D2        0.01803   0.00000   0.00000   0.00187   0.00187   0.01990
    D3        2.13284  -0.00000   0.00000   0.00192   0.00192   2.13476
    D4        3.13926   0.00000   0.00000  -0.00016  -0.00016   3.13911
    D5       -3.14109  -0.00000   0.00000  -0.00014  -0.00014  -3.14123
         Item               Value     Threshold  Converged?
 Maximum Force            0.000015     0.000450     YES
 RMS     Force            0.000005     0.000300     YES
 Maximum Displacement     0.001964     0.001800     NO 
 RMS     Displacement     0.000912     0.001200     YES
 Predicted change in Energy=-1.714078D-09
 Lowest energy point so far.  Saving SCF results.
 GradGradGradGradGradGradGradGradGradGradGradGradGradGradGradGradGradGrad

 Leave Link  103 at Sun May 25 05:02:18 2025, MaxMem=  3758096384 cpu:               0.0 elap:               0.0
 (Enter /apps/easybuild-2022/easybuild/software/Compiler/NVHPC/22.11-CUDA-11.7.0/Gaussian/g16c01-CUDA-11.7.0/g16/l202.exe)
                          Input orientation:                          
 ---------------------------------------------------------------------
 Center     Atomic      Atomic             Coordinates (Angstroms)
 Number     Number       Type             X           Y           Z
 ---------------------------------------------------------------------
      1          6           0       -0.522249    0.461910    0.756188
      2          8           0       -2.673901    0.002650    1.116429
      3          6           0        0.661922    0.103646   -0.165294
      4          9           0        1.629598   -0.401566    0.593698
      5          9           0        0.414420   -0.773195   -1.142014
      6          9           0        1.094735    1.225081   -0.732227
      7          8           0       -1.481100   -0.225770    0.340289
      8          1           0       -3.281014   -0.596486    0.658271
 ---------------------------------------------------------------------
                    Distance matrix (angstroms):
                    1          2          3          4          5
     1  C    0.000000
     2  O    2.229416   0.000000
     3  C    1.542642   3.575014   0.000000
     4  F    2.324315   4.353934   1.329551   0.000000
     5  F    2.450715   3.903873   1.335698   2.151153   0.000000
     6  F    2.326467   4.372011   1.329044   2.165672   2.150317
     7  O    1.251108   1.441298   2.226359   3.125950   2.467771
     8  H    2.956446   0.968225   4.088421   4.914903   4.114424
                    6          7          8
     6  F    0.000000
     7  O    3.144867   0.000000
     8  H    4.939512   1.865002   0.000000
 Symmetry turned off by external request.
 Stoichiometry    C2HF3O2
 Rotational constants (GHZ):           5.4703849           1.6083927           1.5917682
 Leave Link  202 at Sun May 25 05:02:18 2025, MaxMem=  3758096384 cpu:               0.0 elap:               0.0
 (Enter /apps/easybuild-2022/easybuild/software/Compiler/NVHPC/22.11-CUDA-11.7.0/Gaussian/g16c01-CUDA-11.7.0/g16/l301.exe)
 Standard basis: def2TZVPP (5D, 7F)
 Ernie: Thresh=  0.10000D-02 Tol=  0.10000D-05 Strict=F.
   231 basis functions,   374 primitive gaussians,   267 cartesian basis functions
    28 alpha electrons       28 beta electrons
       nuclear repulsion energy       324.8844710096 Hartrees.
 IExCor= 4336 DFT=T Ex+Corr=M062X ExCW=0 ScaHFX=  0.540000
 ScaDFX=  1.000000  1.000000  1.000000  1.000000 ScalE2=  1.000000  1.000000
 IRadAn=      5 IRanWt=     -1 IRanGd=            0 ICorTp=0 IEmpDi=  4
 NAtoms=    8 NActive=    8 NUniq=    8 SFac= 1.00D+00 NAtFMM=   60 NAOKFM=F Big=F
 Integral buffers will be    131072 words long.
 Raffenetti 2 integral format.
 Two-electron integral symmetry is turned off.
 Leave Link  301 at Sun May 25 05:02:18 2025, MaxMem=  3758096384 cpu:               0.1 elap:               0.0
 (Enter /apps/easybuild-2022/easybuild/software/Compiler/NVHPC/22.11-CUDA-11.7.0/Gaussian/g16c01-CUDA-11.7.0/g16/l302.exe)
 NPDir=0 NMtPBC=     1 NCelOv=     1 NCel=       1 NClECP=     1 NCelD=      1
         NCelK=      1 NCelE2=     1 NClLst=     1 CellRange=     0.0.
 One-electron integrals computed using PRISM.
   1 Symmetry operations used in ECPInt.
 ECPInt:  NShTT=    3486 NPrTT=   11183 LenC2=    3328 LenP2D=    8427.
 LDataN:  DoStor=T MaxTD1= 6 Len=  172
 NBasis=   231 RedAO= T EigKep=  5.92D-04  NBF=   231
 NBsUse=   231 1.00D-06 EigRej= -1.00D+00 NBFU=   231
 Precomputing XC quadrature grid using
 IXCGrd= 4 IRadAn=           5 IRanWt=          -1 IRanGd=           0 AccXCQ= 0.00D+00.
 Generated NRdTot=       0 NPtTot=           0 NUsed=           0 NTot=          32
 NSgBfM=   266   266   266   266   266 MxSgAt=     8 MxSgA2=     8.
 Leave Link  302 at Sun May 25 05:02:18 2025, MaxMem=  3758096384 cpu:               0.5 elap:               0.1
 (Enter /apps/easybuild-2022/easybuild/software/Compiler/NVHPC/22.11-CUDA-11.7.0/Gaussian/g16c01-CUDA-11.7.0/g16/l303.exe)
 DipDrv:  MaxL=1.
 Leave Link  303 at Sun May 25 05:02:18 2025, MaxMem=  3758096384 cpu:               0.1 elap:               0.1
 (Enter /apps/easybuild-2022/easybuild/software/Compiler/NVHPC/22.11-CUDA-11.7.0/Gaussian/g16c01-CUDA-11.7.0/g16/l401.exe)
 Initial guess from the checkpoint file:  "1141942801461180600001_well.chk"
 B after Tr=    -0.000038    0.000074   -0.000057
         Rot=    1.000000   -0.000064    0.000042    0.000083 Ang=  -0.01 deg.
 Guess basis will be translated and rotated to current coordinates.
 JPrj=2 DoOrth=T DoCkMO=T.
 Leave Link  401 at Sun May 25 05:02:18 2025, MaxMem=  3758096384 cpu:               0.2 elap:               0.1
 (Enter /apps/easybuild-2022/easybuild/software/Compiler/NVHPC/22.11-CUDA-11.7.0/Gaussian/g16c01-CUDA-11.7.0/g16/l502.exe)
 Keep R1 ints in memory in canonical form, NReq=368651279.
 FoFCou: FMM=F IPFlag=           0 FMFlag=           0 FMFlg1=           0
         NFxFlg=           0 DoJE=F BraDBF=F KetDBF=F FulRan=T
         wScrn=  0.000000 ICntrl=       600 IOpCl=  0 I1Cent=           0 NGrid=           0
         NMat0=    1 NMatS0=  26796 NMatT0=    0 NMatD0=    1 NMtDS0=    0 NMtDT0=    0
 Symmetry not used in FoFCou.
 Two-electron integral symmetry not used.
 Closed shell SCF:
 Using DIIS extrapolation, IDIIS=  1040.
 NGot=  3758096384 LenX=  3398923531 LenY=  3398851801
 Requested convergence on RMS density matrix=1.00D-08 within  32 cycles.
 Requested convergence on MAX density matrix=1.00D-06.
 Requested convergence on             energy=1.00D-06.
 No special actions if energy rises.

 Cycle   1  Pass 1  IDiag  1:
 E= -526.647542323073    
 DIIS: error= 6.35D-05 at cycle   1 NSaved=   1.
 NSaved= 1 IEnMin= 1 EnMin= -526.647542323073     IErMin= 1 ErrMin= 6.35D-05
 ErrMax= 6.35D-05  0.00D+00 EMaxC= 1.00D-01 BMatC= 1.35D-06 BMatP= 1.35D-06
 IDIUse=1 WtCom= 1.00D+00 WtEn= 0.00D+00
 Coeff-Com:  0.100D+01
 Coeff:      0.100D+01
 Gap=     1.096 Goal=   None    Shift=    0.000
 RMSDP=5.26D-06 MaxDP=1.67D-04              OVMax= 4.34D-04

 Cycle   2  Pass 1  IDiag  1:
 E= -526.647544168085     Delta-E=       -0.000001845012 Rises=F Damp=F
 DIIS: error= 1.38D-05 at cycle   2 NSaved=   2.
 NSaved= 2 IEnMin= 2 EnMin= -526.647544168085     IErMin= 2 ErrMin= 1.38D-05
 ErrMax= 1.38D-05  0.00D+00 EMaxC= 1.00D-01 BMatC= 5.14D-08 BMatP= 1.35D-06
 IDIUse=1 WtCom= 1.00D+00 WtEn= 0.00D+00
 Coeff-Com: -0.165D+00 0.116D+01
 Coeff:     -0.165D+00 0.116D+01
 Gap=     0.298 Goal=   None    Shift=    0.000
 RMSDP=1.54D-06 MaxDP=5.15D-05 DE=-1.85D-06 OVMax= 2.32D-04

 Cycle   3  Pass 1  IDiag  1:
 E= -526.647544302714     Delta-E=       -0.000000134628 Rises=F Damp=F
 DIIS: error= 4.92D-06 at cycle   3 NSaved=   3.
 NSaved= 3 IEnMin= 3 EnMin= -526.647544302714     IErMin= 3 ErrMin= 4.92D-06
 ErrMax= 4.92D-06  0.00D+00 EMaxC= 1.00D-01 BMatC= 2.16D-09 BMatP= 5.14D-08
 IDIUse=1 WtCom= 1.00D+00 WtEn= 0.00D+00
 Coeff-Com:  0.121D-01-0.182D+00 0.117D+01
 Coeff:      0.121D-01-0.182D+00 0.117D+01
 Gap=     0.298 Goal=   None    Shift=    0.000
 RMSDP=5.07D-07 MaxDP=1.84D-05 DE=-1.35D-07 OVMax= 1.02D-04

 Cycle   4  Pass 1  IDiag  1:
 E= -526.647544313645     Delta-E=       -0.000000010932 Rises=F Damp=F
 DIIS: error= 1.65D-06 at cycle   4 NSaved=   4.
 NSaved= 4 IEnMin= 4 EnMin= -526.647544313645     IErMin= 4 ErrMin= 1.65D-06
 ErrMax= 1.65D-06  0.00D+00 EMaxC= 1.00D-01 BMatC= 5.22D-10 BMatP= 2.16D-09
 IDIUse=1 WtCom= 1.00D+00 WtEn= 0.00D+00
 Coeff-Com:  0.115D-01-0.105D+00 0.224D+00 0.870D+00
 Coeff:      0.115D-01-0.105D+00 0.224D+00 0.870D+00
 Gap=     0.298 Goal=   None    Shift=    0.000
 RMSDP=1.78D-07 MaxDP=6.78D-06 DE=-1.09D-08 OVMax= 3.59D-05

 Cycle   5  Pass 1  IDiag  1:
 E= -526.647544315070     Delta-E=       -0.000000001425 Rises=F Damp=F
 DIIS: error= 7.49D-07 at cycle   5 NSaved=   5.
 NSaved= 5 IEnMin= 5 EnMin= -526.647544315070     IErMin= 5 ErrMin= 7.49D-07
 ErrMax= 7.49D-07  0.00D+00 EMaxC= 1.00D-01 BMatC= 3.04D-10 BMatP= 5.22D-10
 IDIUse=1 WtCom= 1.00D+00 WtEn= 0.00D+00
 Coeff-Com:  0.375D-02-0.121D-01-0.207D+00 0.508D+00 0.707D+00
 Coeff:      0.375D-02-0.121D-01-0.207D+00 0.508D+00 0.707D+00
 Gap=     0.298 Goal=   None    Shift=    0.000
 RMSDP=1.09D-07 MaxDP=4.29D-06 DE=-1.43D-09 OVMax= 2.24D-05

 Cycle   6  Pass 1  IDiag  1:
 E= -526.647544315546     Delta-E=       -0.000000000476 Rises=F Damp=F
 DIIS: error= 2.39D-07 at cycle   6 NSaved=   6.
 NSaved= 6 IEnMin= 6 EnMin= -526.647544315546     IErMin= 6 ErrMin= 2.39D-07
 ErrMax= 2.39D-07  0.00D+00 EMaxC= 1.00D-01 BMatC= 2.17D-11 BMatP= 3.04D-10
 IDIUse=1 WtCom= 1.00D+00 WtEn= 0.00D+00
 Coeff-Com: -0.627D-03 0.148D-01-0.106D+00 0.214D-01 0.218D+00 0.852D+00
 Coeff:     -0.627D-03 0.148D-01-0.106D+00 0.214D-01 0.218D+00 0.852D+00
 Gap=     0.298 Goal=   None    Shift=    0.000
 RMSDP=4.02D-08 MaxDP=1.30D-06 DE=-4.76D-10 OVMax= 8.41D-06

 Cycle   7  Pass 1  IDiag  1:
 E= -526.647544315587     Delta-E=       -0.000000000040 Rises=F Damp=F
 DIIS: error= 1.28D-07 at cycle   7 NSaved=   7.
 NSaved= 7 IEnMin= 7 EnMin= -526.647544315587     IErMin= 7 ErrMin= 1.28D-07
 ErrMax= 1.28D-07  0.00D+00 EMaxC= 1.00D-01 BMatC= 7.85D-12 BMatP= 2.17D-11
 IDIUse=1 WtCom= 1.00D+00 WtEn= 0.00D+00
 Coeff-Com: -0.877D-03 0.106D-01-0.355D-01-0.507D-01 0.308D-01 0.468D+00
 Coeff-Com:  0.578D+00
 Coeff:     -0.877D-03 0.106D-01-0.355D-01-0.507D-01 0.308D-01 0.468D+00
 Coeff:      0.578D+00
 Gap=     0.298 Goal=   None    Shift=    0.000
 RMSDP=1.11D-08 MaxDP=3.17D-07 DE=-4.05D-11 OVMax= 2.02D-06

 Cycle   8  Pass 1  IDiag  1:
 E= -526.647544315623     Delta-E=       -0.000000000037 Rises=F Damp=F
 DIIS: error= 2.63D-08 at cycle   8 NSaved=   8.
 NSaved= 8 IEnMin= 8 EnMin= -526.647544315623     IErMin= 8 ErrMin= 2.63D-08
 ErrMax= 2.63D-08  0.00D+00 EMaxC= 1.00D-01 BMatC= 3.53D-13 BMatP= 7.85D-12
 IDIUse=1 WtCom= 1.00D+00 WtEn= 0.00D+00
 Coeff-Com: -0.378D-04-0.551D-03 0.800D-02-0.315D-02-0.259D-01-0.892D-01
 Coeff-Com:  0.753D-01 0.104D+01
 Coeff:     -0.378D-04-0.551D-03 0.800D-02-0.315D-02-0.259D-01-0.892D-01
 Coeff:      0.753D-01 0.104D+01
 Gap=     0.298 Goal=   None    Shift=    0.000
 RMSDP=5.17D-09 MaxDP=1.45D-07 DE=-3.68D-11 OVMax= 8.51D-07

 SCF Done:  E(RM062X) =  -526.647544316     A.U. after    8 cycles
            NFock=  8  Conv=0.52D-08     -V/T= 2.0036
 KE= 5.247471712595D+02 PE=-1.897496736467D+03 EE= 5.212175498819D+02
 Leave Link  502 at Sun May 25 05:02:24 2025, MaxMem=  3758096384 cpu:              34.8 elap:               6.1
 (Enter /apps/easybuild-2022/easybuild/software/Compiler/NVHPC/22.11-CUDA-11.7.0/Gaussian/g16c01-CUDA-11.7.0/g16/l508.exe)
 QCSCF skips out because SCF is already converged.
 Leave Link  508 at Sun May 25 05:02:24 2025, MaxMem=  3758096384 cpu:               0.0 elap:               0.0
 (Enter /apps/easybuild-2022/easybuild/software/Compiler/NVHPC/22.11-CUDA-11.7.0/Gaussian/g16c01-CUDA-11.7.0/g16/l701.exe)
 ... and contract with generalized density number  0.
 Compute integral first derivatives.
   1 Symmetry operations used in ECPInt.
 ECPInt:  NShTT=    3486 NPrTT=   11183 LenC2=    3328 LenP2D=    8427.
 LDataN:  DoStor=T MaxTD1= 7 Len=  274
 Leave Link  701 at Sun May 25 05:02:24 2025, MaxMem=  3758096384 cpu:               0.4 elap:               0.1
 (Enter /apps/easybuild-2022/easybuild/software/Compiler/NVHPC/22.11-CUDA-11.7.0/Gaussian/g16c01-CUDA-11.7.0/g16/l702.exe)
 L702 exits ... SP integral derivatives will be done elsewhere.
 Leave Link  702 at Sun May 25 05:02:24 2025, MaxMem=  3758096384 cpu:               0.0 elap:               0.0
 (Enter /apps/easybuild-2022/easybuild/software/Compiler/NVHPC/22.11-CUDA-11.7.0/Gaussian/g16c01-CUDA-11.7.0/g16/l703.exe)
 Integral derivatives from FoFJK, PRISM(SPDF).
 Compute integral first derivatives, UseDBF=F ICtDFT=           0.
 Calling FoFJK, ICntrl=      2127 FMM=F ISym2X=0 I1Cent= 0 IOpClX= 0 NMat=1 NMatS=1 NMatT=0.
 FoFJK:  IHMeth= 1 ICntrl=    2127 DoSepK=F KAlg= 0 I1Cent=           0 FoldK=F
 IRaf=         0 NMat=       1 IRICut=       1 DoRegI=T DoRafI=F ISym2E= 0 IDoP0=0 IntGTp=1.
 FoFCou: FMM=F IPFlag=           0 FMFlag=      100000 FMFlg1=         800
         NFxFlg=           0 DoJE=F BraDBF=F KetDBF=F FulRan=T
         wScrn=  0.000000 ICntrl=      2127 IOpCl=  0 I1Cent=           0 NGrid=           0
         NMat0=    1 NMatS0=      1 NMatT0=    0 NMatD0=    1 NMtDS0=    0 NMtDT0=    0
 Symmetry not used in FoFCou.
 Leave Link  703 at Sun May 25 05:02:27 2025, MaxMem=  3758096384 cpu:              23.0 elap:               3.0
 (Enter /apps/easybuild-2022/easybuild/software/Compiler/NVHPC/22.11-CUDA-11.7.0/Gaussian/g16c01-CUDA-11.7.0/g16/l716.exe)
 Dipole        =-1.05310961D+00-6.10801292D-01-2.88784344D-01
 -------------------------------------------------------------------
 Center     Atomic                   Forces (Hartrees/Bohr)
 Number     Number              X              Y              Z
 -------------------------------------------------------------------
      1        6           0.000001492   -0.000000246    0.000000410
      2        8           0.000001425    0.000002986    0.000003076
      3        6          -0.000000291   -0.000001865   -0.000001720
      4        9          -0.000000043   -0.000003727   -0.000003114
      5        9          -0.000003132   -0.000001020   -0.000001529
      6        9           0.000000872   -0.000002198   -0.000001818
      7        8          -0.000000097    0.000001634    0.000001131
      8        1          -0.000000226    0.000004435    0.000003564
 -------------------------------------------------------------------
 Cartesian Forces:  Max     0.000004435 RMS     0.000002155
 Leave Link  716 at Sun May 25 05:02:27 2025, MaxMem=  3758096384 cpu:               0.0 elap:               0.0
 (Enter /apps/easybuild-2022/easybuild/software/Compiler/NVHPC/22.11-CUDA-11.7.0/Gaussian/g16c01-CUDA-11.7.0/g16/l103.exe)

 GradGradGradGradGradGradGradGradGradGradGradGradGradGradGradGradGradGrad
 Berny optimization.
 Using GEDIIS/GDIIS optimizer.
 FormGI is forming the generalized inverse of G from B-inverse, IUseBI=4.
 Internal  Forces:  Max     0.000000414 RMS     0.000000144
 Search for a local minimum.
 Step number   2 out of a maximum of   31
 All quantities printed in internal units (Hartrees-Bohrs-Radians)
 RMS Force = .14358D-06 SwitMx=.10000D-02 MixMth= 2
 Mixed Optimization -- En-DIIS/RFO-DIIS
 Swapping is turned off.
 Update second derivatives using D2CorX and points    1    2
 DE= -1.61D-09 DEPred=-1.71D-09 R= 9.39D-01
 Trust test= 9.39D-01 RLast= 3.30D-03 DXMaxT set to 3.00D-01
 ITU=  0  0
     Eigenvalues ---    0.00014   0.00510   0.09216   0.15150   0.17261
     Eigenvalues ---    0.18458   0.19410   0.23475   0.24055   0.24388
     Eigenvalues ---    0.32110   0.37628   0.39583   0.41657   0.44427
     Eigenvalues ---    0.52044   0.57214   0.69584
 En-DIIS/RFO-DIIS/Sim-DIIS IScMMF=       -3 using points:     2    1
 RFO step:  Lambda=-2.32304685D-12.
 NNeg= 0 NGDIIS= 2 SimSw=  2.50D-03 Rises=F DC= -1.61D-09 SmlDif=  1.00D-05
 NRisDI= 0 DoIntr=F SqrtH=F CThrHd= 10.0 CDAdj=  3.0
 RMS Error=  0.1753389454D-03 NUsed= 2 OKEnD=F EnDIS=F
 InvSVX:  RCond= 1.23D-05 Info=           0 Equed=N FErr=  1.13D-15 BErr=  6.80D-17
 DidBck=T Rises=F RFO-DIIS coefs:    0.75748    0.24252
 Iteration  1 RMS(Cart)=  0.00023627 RMS(Int)=  0.00000004
 Iteration  2 RMS(Cart)=  0.00000005 RMS(Int)=  0.00000000
 ITry= 1 IFail=0 DXMaxC= 4.97D-04 DCOld= 1.00D+10 DXMaxT= 3.00D-01 DXLimC= 3.00D+00 Rises=F
 Variable       Old X    -DE/DX   Delta X   Delta X   Delta X     New X
                                 (Linear)    (Quad)   (Total)
    R1        2.91517   0.00000  -0.00000   0.00000   0.00000   2.91517
    R2        2.36425  -0.00000   0.00000  -0.00000   0.00000   2.36425
    R3        2.72366  -0.00000  -0.00000   0.00000  -0.00000   2.72366
    R4        1.82968  -0.00000  -0.00000   0.00000  -0.00000   1.82968
    R5        2.51249   0.00000  -0.00001   0.00000  -0.00001   2.51248
    R6        2.52410  -0.00000   0.00000  -0.00000  -0.00000   2.52410
    R7        2.51153   0.00000   0.00001   0.00000   0.00001   2.51154
    A1        1.83598  -0.00000   0.00001  -0.00001  -0.00000   1.83598
    A2        1.73761  -0.00000   0.00000  -0.00000  -0.00000   1.73761
    A3        1.88173  -0.00000   0.00002   0.00001   0.00003   1.88176
    A4        2.03423  -0.00000   0.00001  -0.00001  -0.00000   2.03423
    A5        1.88476   0.00000  -0.00003   0.00000  -0.00003   1.88473
    A6        1.87848   0.00000  -0.00001   0.00000  -0.00000   1.87848
    A7        1.90405   0.00000   0.00001  -0.00001  -0.00000   1.90405
    A8        1.87794   0.00000   0.00000   0.00000   0.00000   1.87794
    A9        1.94781   0.00000   0.00000  -0.00000   0.00000   1.94781
    D1       -2.09332  -0.00000  -0.00046  -0.00000  -0.00047  -2.09378
    D2        0.01990  -0.00000  -0.00045   0.00000  -0.00045   0.01945
    D3        2.13476  -0.00000  -0.00046  -0.00000  -0.00047   2.13429
    D4        3.13911  -0.00000   0.00004   0.00001   0.00004   3.13915
    D5       -3.14123  -0.00000   0.00003  -0.00006  -0.00003  -3.14126
         Item               Value     Threshold  Converged?
 Maximum Force            0.000000     0.000450     YES
 RMS     Force            0.000000     0.000300     YES
 Maximum Displacement     0.000497     0.001800     YES
 RMS     Displacement     0.000236     0.001200     YES
 Predicted change in Energy=-4.946835D-11
 Optimization completed.
    -- Stationary point found.
                           ----------------------------
                           !   Optimized Parameters   !
                           ! (Angstroms and Degrees)  !
 --------------------------                            --------------------------
 ! Name  Definition              Value          Derivative Info.                !
 --------------------------------------------------------------------------------
 ! R1    R(1,3)                  1.5426         -DE/DX =    0.0                 !
 ! R2    R(1,7)                  1.2511         -DE/DX =    0.0                 !
 ! R3    R(2,7)                  1.4413         -DE/DX =    0.0                 !
 ! R4    R(2,8)                  0.9682         -DE/DX =    0.0                 !
 ! R5    R(3,4)                  1.3296         -DE/DX =    0.0                 !
 ! R6    R(3,5)                  1.3357         -DE/DX =    0.0                 !
 ! R7    R(3,6)                  1.329          -DE/DX =    0.0                 !
 ! A1    A(3,1,7)              105.1938         -DE/DX =    0.0                 !
 ! A2    A(7,2,8)               99.5579         -DE/DX =    0.0                 !
 ! A3    A(1,3,4)              107.8149         -DE/DX =    0.0                 !
 ! A4    A(1,3,5)              116.5527         -DE/DX =    0.0                 !
 ! A5    A(1,3,6)              107.9887         -DE/DX =    0.0                 !
 ! A6    A(4,3,5)              107.6292         -DE/DX =    0.0                 !
 ! A7    A(4,3,6)              109.0943         -DE/DX =    0.0                 !
 ! A8    A(5,3,6)              107.598          -DE/DX =    0.0                 !
 ! A9    A(1,7,2)              111.6011         -DE/DX =    0.0                 !
 ! D1    D(7,1,3,4)           -119.9382         -DE/DX =    0.0                 !
 ! D2    D(7,1,3,5)              1.14           -DE/DX =    0.0                 !
 ! D3    D(7,1,3,6)            122.3127         -DE/DX =    0.0                 !
 ! D4    D(3,1,7,2)            179.8576         -DE/DX =    0.0                 !
 ! D5    D(8,2,7,1)           -179.9792         -DE/DX =    0.0                 !
 --------------------------------------------------------------------------------
 Lowest energy point so far.  Saving SCF results.
 Largest change from initial coordinates is atom    1       0.001 Angstoms.
 GradGradGradGradGradGradGradGradGradGradGradGradGradGradGradGradGradGrad

 Leave Link  103 at Sun May 25 05:02:27 2025, MaxMem=  3758096384 cpu:               0.0 elap:               0.0
 (Enter /apps/easybuild-2022/easybuild/software/Compiler/NVHPC/22.11-CUDA-11.7.0/Gaussian/g16c01-CUDA-11.7.0/g16/l202.exe)
                          Input orientation:                          
 ---------------------------------------------------------------------
 Center     Atomic      Atomic             Coordinates (Angstroms)
 Number     Number       Type             X           Y           Z
 ---------------------------------------------------------------------
      1          6           0       -0.522249    0.461910    0.756188
      2          8           0       -2.673901    0.002650    1.116429
      3          6           0        0.661922    0.103646   -0.165294
      4          9           0        1.629598   -0.401566    0.593698
      5          9           0        0.414420   -0.773195   -1.142014
      6          9           0        1.094735    1.225081   -0.732227
      7          8           0       -1.481100   -0.225770    0.340289
      8          1           0       -3.281014   -0.596486    0.658271
 ---------------------------------------------------------------------
                    Distance matrix (angstroms):
                    1          2          3          4          5
     1  C    0.000000
     2  O    2.229416   0.000000
     3  C    1.542642   3.575014   0.000000
     4  F    2.324315   4.353934   1.329551   0.000000
     5  F    2.450715   3.903873   1.335698   2.151153   0.000000
     6  F    2.326467   4.372011   1.329044   2.165672   2.150317
     7  O    1.251108   1.441298   2.226359   3.125950   2.467771
     8  H    2.956446   0.968225   4.088421   4.914903   4.114424
                    6          7          8
     6  F    0.000000
     7  O    3.144867   0.000000
     8  H    4.939512   1.865002   0.000000
 Symmetry turned off by external request.
 Stoichiometry    C2HF3O2
 Rotational constants (GHZ):           5.4703849           1.6083927           1.5917682
 Leave Link  202 at Sun May 25 05:02:27 2025, MaxMem=  3758096384 cpu:               0.0 elap:               0.0
 (Enter /apps/easybuild-2022/easybuild/software/Compiler/NVHPC/22.11-CUDA-11.7.0/Gaussian/g16c01-CUDA-11.7.0/g16/l9999.exe)
 Unable to Open any file for archive entry.
 1\1\GINC-SPARTAN-BM163\FOpt\RM062X\def2TZVPP\C2H1F3O2\AKHALILOV\25-May
 -2025\0\\#P M062X/Def2TZVPP Symm(None) scf(xqc) pop(None) freq opt(Cal
 cFC)\\Gaussian input prepared by ASE\\0,1\C,-0.522249128,0.4619104829,
 0.7561880218\O,-2.6739005898,0.0026503315,1.1164286063\C,0.6619217221,
 0.1036456727,-0.1652943345\F,1.6295979222,-0.4015661332,0.5936975027\F
 ,0.4144199422,-0.7731949074,-1.1420140517\F,1.0947351618,1.2250813744,
 -0.7322273997\O,-1.4811002397,-0.2257704661,0.3402891876\H,-3.28101379
 08,-0.5964863549,0.6582714674\\Version=ES64L-G16RevC.01\HF=-526.647544
 3\RMSD=5.170e-09\RMSF=2.155e-06\Dipole=-1.0531096,-0.6108013,-0.288784
 3\PG=Unknown\\@
 The archive entry for this job was punched.


 WHEN HAVING A MEETING OF THE MINDS,
 MAKE SURE YOU HAVE THE EQUIPMENT FOR IT.
 Leave Link 9999 at Sun May 25 05:02:27 2025, MaxMem=  3758096384 cpu:               0.0 elap:               0.0
 Job cpu time:       0 days  0 hours  9 minutes 53.9 seconds.
 Elapsed time:       0 days  0 hours  1 minutes 21.3 seconds.
 File lengths (MBytes):  RWF=     46 Int=      0 D2E=      0 Chk=      5 Scr=      1
 Normal termination of Gaussian 16 at Sun May 25 05:02:27 2025.
 (Enter /apps/easybuild-2022/easybuild/software/Compiler/NVHPC/22.11-CUDA-11.7.0/Gaussian/g16c01-CUDA-11.7.0/g16/l1.exe)
 Link1:  Proceeding to internal job step number  2.
 ---------------------------------------------------------------------
 #P Geom=AllCheck Guess=TCheck SCRF=Check GenChk RM062X/def2TZVPP Freq
 ---------------------------------------------------------------------
 1/10=4,29=7,30=1,38=1,40=1/1,3;
 2/12=2,15=3,40=1/2;
 3/5=44,7=202,11=2,14=-4,25=1,30=1,70=2,71=2,74=-55,116=1,140=1/1,2,3;
 4/5=101/1;
 5/5=2,8=3,13=1,38=6,98=1/2,8;
 8/6=4,10=90,11=11/1;
 11/6=1,8=1,9=11,15=111,16=1,31=1/1,2,10;
 10/6=1,31=1/2;
 7/8=1,10=1,25=1,30=1/1,2,3,16;
 1/10=4,30=1/3;
 99//99;
 Leave Link    1 at Sun May 25 05:02:27 2025, MaxMem=  3758096384 cpu:               0.0 elap:               0.0
 (Enter /apps/easybuild-2022/easybuild/software/Compiler/NVHPC/22.11-CUDA-11.7.0/Gaussian/g16c01-CUDA-11.7.0/g16/l101.exe)
 Structure from the checkpoint file:  "1141942801461180600001_well.chk"
 ------------------------------
 Gaussian input prepared by ASE
 ------------------------------
 Charge =  0 Multiplicity = 1
 Redundant internal coordinates found in file.  (old form).
 C,0,-0.522249128,0.4619104829,0.7561880218
 O,0,-2.6739005898,0.0026503315,1.1164286063
 C,0,0.6619217221,0.1036456727,-0.1652943345
 F,0,1.6295979222,-0.4015661332,0.5936975027
 F,0,0.4144199422,-0.7731949074,-1.1420140517
 F,0,1.0947351618,1.2250813744,-0.7322273997
 O,0,-1.4811002397,-0.2257704661,0.3402891876
 H,0,-3.2810137908,-0.5964863549,0.6582714674
 Recover connectivity data from disk.
 ITRead=  0  0  0  0  0  0  0  0
 MicOpt= -1 -1 -1 -1 -1 -1 -1 -1
 NAtoms=      8 NQM=        8 NQMF=       0 NMMI=      0 NMMIF=      0
                NMic=       0 NMicF=      0.
                    Isotopes and Nuclear Properties:
 (Nuclear quadrupole moments (NQMom) in fm**2, nuclear magnetic moments (NMagM)
  in nuclear magnetons)

  Atom         1           2           3           4           5           6           7           8
 IAtWgt=          12          16          12          19          19          19          16           1
 AtmWgt=  12.0000000  15.9949146  12.0000000  18.9984032  18.9984032  18.9984032  15.9949146   1.0078250
 NucSpn=           0           0           0           1           1           1           0           1
 AtZEff=   3.6000000   5.6000000   3.6000000   6.7500000   6.7500000   6.7500000   5.6000000   1.0000000
 NQMom=    0.0000000   0.0000000   0.0000000   0.0000000   0.0000000   0.0000000   0.0000000   0.0000000
 NMagM=    0.0000000   0.0000000   0.0000000   2.6288670   2.6288670   2.6288670   0.0000000   2.7928460
 AtZNuc=   6.0000000   8.0000000   6.0000000   9.0000000   9.0000000   9.0000000   8.0000000   1.0000000
 Leave Link  101 at Sun May 25 05:02:28 2025, MaxMem=  3758096384 cpu:               0.2 elap:               0.2
 (Enter /apps/easybuild-2022/easybuild/software/Compiler/NVHPC/22.11-CUDA-11.7.0/Gaussian/g16c01-CUDA-11.7.0/g16/l103.exe)

 GradGradGradGradGradGradGradGradGradGradGradGradGradGradGradGradGradGrad
 Berny optimization.
 Initialization pass.
                           ----------------------------
                           !    Initial Parameters    !
                           ! (Angstroms and Degrees)  !
 --------------------------                            --------------------------
 ! Name  Definition              Value          Derivative Info.                !
 --------------------------------------------------------------------------------
 ! R1    R(1,3)                  1.5426         calculate D2E/DX2 analytically  !
 ! R2    R(1,7)                  1.2511         calculate D2E/DX2 analytically  !
 ! R3    R(2,7)                  1.4413         calculate D2E/DX2 analytically  !
 ! R4    R(2,8)                  0.9682         calculate D2E/DX2 analytically  !
 ! R5    R(3,4)                  1.3296         calculate D2E/DX2 analytically  !
 ! R6    R(3,5)                  1.3357         calculate D2E/DX2 analytically  !
 ! R7    R(3,6)                  1.329          calculate D2E/DX2 analytically  !
 ! A1    A(3,1,7)              105.1938         calculate D2E/DX2 analytically  !
 ! A2    A(7,2,8)               99.5579         calculate D2E/DX2 analytically  !
 ! A3    A(1,3,4)              107.8149         calculate D2E/DX2 analytically  !
 ! A4    A(1,3,5)              116.5527         calculate D2E/DX2 analytically  !
 ! A5    A(1,3,6)              107.9887         calculate D2E/DX2 analytically  !
 ! A6    A(4,3,5)              107.6292         calculate D2E/DX2 analytically  !
 ! A7    A(4,3,6)              109.0943         calculate D2E/DX2 analytically  !
 ! A8    A(5,3,6)              107.598          calculate D2E/DX2 analytically  !
 ! A9    A(1,7,2)              111.6011         calculate D2E/DX2 analytically  !
 ! D1    D(7,1,3,4)           -119.9382         calculate D2E/DX2 analytically  !
 ! D2    D(7,1,3,5)              1.14           calculate D2E/DX2 analytically  !
 ! D3    D(7,1,3,6)            122.3127         calculate D2E/DX2 analytically  !
 ! D4    D(3,1,7,2)            179.8576         calculate D2E/DX2 analytically  !
 ! D5    D(8,2,7,1)           -179.9792         calculate D2E/DX2 analytically  !
 --------------------------------------------------------------------------------
 Trust Radius=3.00D-01 FncErr=1.00D-07 GrdErr=1.00D-07 EigMax=2.50D+02 EigMin=1.00D-04
 Number of steps in this run=      2 maximum allowed number of steps=      2.
 GradGradGradGradGradGradGradGradGradGradGradGradGradGradGradGradGradGrad

 Leave Link  103 at Sun May 25 05:02:28 2025, MaxMem=  3758096384 cpu:               0.0 elap:               0.0
 (Enter /apps/easybuild-2022/easybuild/software/Compiler/NVHPC/22.11-CUDA-11.7.0/Gaussian/g16c01-CUDA-11.7.0/g16/l202.exe)
                          Input orientation:                          
 ---------------------------------------------------------------------
 Center     Atomic      Atomic             Coordinates (Angstroms)
 Number     Number       Type             X           Y           Z
 ---------------------------------------------------------------------
      1          6           0       -0.522249    0.461910    0.756188
      2          8           0       -2.673901    0.002650    1.116429
      3          6           0        0.661922    0.103646   -0.165294
      4          9           0        1.629598   -0.401566    0.593698
      5          9           0        0.414420   -0.773195   -1.142014
      6          9           0        1.094735    1.225081   -0.732227
      7          8           0       -1.481100   -0.225770    0.340289
      8          1           0       -3.281014   -0.596486    0.658271
 ---------------------------------------------------------------------
                    Distance matrix (angstroms):
                    1          2          3          4          5
     1  C    0.000000
     2  O    2.229416   0.000000
     3  C    1.542642   3.575014   0.000000
     4  F    2.324315   4.353934   1.329551   0.000000
     5  F    2.450715   3.903873   1.335698   2.151153   0.000000
     6  F    2.326467   4.372011   1.329044   2.165672   2.150317
     7  O    1.251108   1.441298   2.226359   3.125950   2.467771
     8  H    2.956446   0.968225   4.088421   4.914903   4.114424
                    6          7          8
     6  F    0.000000
     7  O    3.144867   0.000000
     8  H    4.939512   1.865002   0.000000
 Symmetry turned off by external request.
 Stoichiometry    C2HF3O2
 Rotational constants (GHZ):           5.4703849           1.6083927           1.5917682
 Leave Link  202 at Sun May 25 05:02:28 2025, MaxMem=  3758096384 cpu:               0.0 elap:               0.0
 (Enter /apps/easybuild-2022/easybuild/software/Compiler/NVHPC/22.11-CUDA-11.7.0/Gaussian/g16c01-CUDA-11.7.0/g16/l301.exe)
 Standard basis: def2TZVPP (5D, 7F)
 Ernie: Thresh=  0.10000D-02 Tol=  0.10000D-05 Strict=F.
   231 basis functions,   374 primitive gaussians,   267 cartesian basis functions
    28 alpha electrons       28 beta electrons
       nuclear repulsion energy       324.8844710096 Hartrees.
 IExCor= 4336 DFT=T Ex+Corr=M062X ExCW=0 ScaHFX=  0.540000
 ScaDFX=  1.000000  1.000000  1.000000  1.000000 ScalE2=  1.000000  1.000000
 IRadAn=      5 IRanWt=     -1 IRanGd=            0 ICorTp=0 IEmpDi=  4
 NAtoms=    8 NActive=    8 NUniq=    8 SFac= 1.00D+00 NAtFMM=   60 NAOKFM=F Big=F
 Integral buffers will be    131072 words long.
 Raffenetti 2 integral format.
 Two-electron integral symmetry is turned off.
 Leave Link  301 at Sun May 25 05:02:28 2025, MaxMem=  3758096384 cpu:               0.0 elap:               0.0
 (Enter /apps/easybuild-2022/easybuild/software/Compiler/NVHPC/22.11-CUDA-11.7.0/Gaussian/g16c01-CUDA-11.7.0/g16/l302.exe)
 NPDir=0 NMtPBC=     1 NCelOv=     1 NCel=       1 NClECP=     1 NCelD=      1
         NCelK=      1 NCelE2=     1 NClLst=     1 CellRange=     0.0.
 One-electron integrals computed using PRISM.
   1 Symmetry operations used in ECPInt.
 ECPInt:  NShTT=    3486 NPrTT=   11183 LenC2=    3328 LenP2D=    8427.
 LDataN:  DoStor=T MaxTD1= 6 Len=  172
 NBasis=   231 RedAO= T EigKep=  5.92D-04  NBF=   231
 NBsUse=   231 1.00D-06 EigRej= -1.00D+00 NBFU=   231
 Precomputing XC quadrature grid using
 IXCGrd= 4 IRadAn=           5 IRanWt=          -1 IRanGd=           0 AccXCQ= 0.00D+00.
 Generated NRdTot=       0 NPtTot=           0 NUsed=           0 NTot=          32
 NSgBfM=   266   266   266   266   266 MxSgAt=     8 MxSgA2=     8.
 Leave Link  302 at Sun May 25 05:02:28 2025, MaxMem=  3758096384 cpu:               0.5 elap:               0.1
[...]
     21 -0.114875D-02 -0.258765D-03  0.638900D-02  0.163422D-02  0.214703D-02
     22  0.113356D-03 -0.116324D-03  0.416300D-03  0.565792D-03  0.365397D-03
     23 -0.370743D-03  0.880055D-04 -0.123245D-04 -0.388985D-03 -0.511305D-04
     24 -0.395108D-03 -0.186674D-03 -0.346251D-03 -0.292117D-03 -0.548033D-03
               16            17            18            19            20 
     16  0.108112D+00
     17  0.103155D+00  0.339439D+00
     18 -0.484795D-01 -0.128251D+00  0.146563D+00
     19 -0.578356D-03  0.306685D-02  0.494263D-02  0.471672D+00
     20 -0.268450D-02 -0.771665D-03  0.149894D-02  0.169769D+00  0.246986D+00
     21  0.474839D-02  0.550513D-02 -0.296980D-02  0.153976D-01  0.188414D+00
     22 -0.361321D-04 -0.293912D-04  0.907284D-04 -0.221601D-01 -0.246791D-01
     23  0.850097D-03  0.214290D-03 -0.615248D-03  0.137091D-01  0.464124D-02
     24  0.406204D-03  0.375639D-03 -0.621303D-03  0.243894D-01  0.195712D-01
               21            22            23            24 
     21  0.247099D+00
     22 -0.213527D-01  0.243892D+00
     23  0.331981D-02  0.188354D+00  0.204065D+00
     24  0.998916D-02  0.122468D+00  0.161927D+00  0.143121D+00
 FormGI is forming the generalized inverse of G from B-inverse, IUseBI=4.
 Force constants in internal coordinates: 
                1             2             3             4             5 
      1  0.259066D+00
      2  0.168884D-01  0.598238D+00
      3 -0.727560D-02  0.991961D-01  0.241539D+00
      4  0.539858D-04  0.398441D-02 -0.441587D-02  0.519750D+00
      5  0.222732D-01  0.254481D-02  0.562726D-02 -0.721718D-03  0.440512D+00
      6  0.206440D-01 -0.914828D-03  0.632912D-02 -0.314528D-04  0.556881D-01
      7  0.224089D-01  0.263199D-02  0.552810D-02 -0.724755D-03  0.569041D-01
      8  0.900256D-01  0.911997D-01 -0.547746D-02 -0.239405D-02  0.148708D-01
      9  0.258721D-02  0.216622D-01  0.524505D-01  0.374833D-02  0.125614D-02
     10  0.133324D-01  0.130027D-01  0.493671D-02 -0.101395D-02  0.229840D-01
     11  0.293739D-01 -0.174813D-01 -0.118382D-02  0.279644D-03 -0.367319D-01
     12  0.141665D-01  0.133757D-01  0.486245D-02 -0.952150D-03 -0.258983D-01
     13 -0.239372D-01 -0.339157D-02 -0.245494D-02  0.546230D-03  0.297194D-01
     14 -0.107791D-01 -0.178543D-02 -0.423861D-02  0.666932D-03  0.266886D-01
     15 -0.244663D-01 -0.334137D-02 -0.233703D-02  0.536873D-03 -0.126408D-01
     16  0.919326D-02  0.840919D-01  0.655425D-01  0.107128D-01  0.486823D-02
     17  0.111591D-02  0.615138D-02  0.846847D-04 -0.164562D-03 -0.219773D-02
     18  0.692465D-04  0.000000D+00 -0.870818D-04 -0.496985D-04  0.296509D-01
     19 -0.883024D-03 -0.585397D-02 -0.159271D-03  0.100816D-03 -0.321594D-01
     20  0.303401D-04  0.194978D-03 -0.936454D-04 -0.462507D-04 -0.973868D-02
     21 -0.239123D-04 -0.565970D-04 -0.738341D-04 -0.150471D-03  0.282933D-03
                6             7             8             9            10 
      6  0.416543D+00
      7  0.558232D-01  0.442303D+00
      8 -0.149293D-01  0.153772D-01  0.364745D+00
      9  0.183934D-02  0.125321D-02  0.641005D-02  0.233233D+00
     10 -0.367935D-01 -0.261082D-01  0.121717D-01  0.172260D-02  0.180061D+00
     11  0.136117D-01 -0.369247D-01  0.138767D-01 -0.207973D-02 -0.141293D-01
     12 -0.370626D-01  0.231811D-01  0.125494D-01  0.176947D-02  0.165599D-01
     13  0.348321D-01 -0.125170D-01 -0.150563D-01 -0.444832D-03 -0.904813D-01
     14 -0.112672D-01  0.264723D-01 -0.985013D-02 -0.528796D-03 -0.698858D-01
     15  0.353721D-01  0.298634D-01 -0.153027D-01 -0.426391D-03 -0.293146D-01
     16  0.642695D-02  0.492997D-02  0.220306D-01  0.517656D-01  0.396906D-02
     17 -0.262952D-01  0.320070D-01  0.104222D-02  0.604640D-03  0.659548D-02
     18 -0.170433D-03 -0.296144D-01  0.215015D-03 -0.445791D-04  0.187513D-01
     19  0.265003D-01  0.240646D-02 -0.566643D-03 -0.639841D-03 -0.163428D-01
     20  0.257183D-03  0.920376D-02  0.458239D-04 -0.105253D-04 -0.202471D-01
     21 -0.362955D-04 -0.196797D-03 -0.649382D-04 -0.661070D-04  0.184451D-02
               11            12            13            14            15 
     11  0.217005D+00
     12 -0.154703D-01  0.181928D+00
     13 -0.825800D-01 -0.295340D-01  0.179591D+00
     14 -0.329997D-01 -0.698011D-01  0.121803D-01  0.166687D+00
     15 -0.832725D-01 -0.908540D-01  0.158662D-01  0.121170D-01  0.180230D+00
     16 -0.706911D-03  0.446236D-02 -0.265090D-02 -0.271221D-02 -0.263875D-02
     17 -0.273291D-01  0.168523D-01 -0.543765D-01  0.609006D-01  0.423251D-02
     18  0.573073D-03 -0.193318D-01  0.541043D-01  0.181683D-03 -0.541447D-01
     19  0.274172D-01 -0.685209D-02 -0.447579D-02 -0.609313D-01  0.541661D-01
     20  0.548722D-03  0.194821D-01 -0.859609D-04  0.173290D-03  0.108285D-03
     21 -0.697125D-04 -0.175977D-02  0.218683D-03 -0.148993D-04 -0.215708D-03
               16            17            18            19            20 
     16  0.378215D+00
     17  0.730579D-03  0.564259D-01
     18 -0.126679D-03 -0.279832D-01  0.576709D-01
     19 -0.581063D-03 -0.279213D-01 -0.279254D-01  0.563468D-01
     20 -0.532770D-04  0.782910D-02 -0.764742D-02  0.807419D-02  0.104756D+00
     21  0.626970D-04 -0.631943D-03  0.104013D-02 -0.663350D-03 -0.512259D-02
               21 
     21  0.545136D-02
 Leave Link  716 at Sun May 25 05:03:34 2025, MaxMem=  3758096384 cpu:               0.1 elap:               0.0
 (Enter /apps/easybuild-2022/easybuild/software/Compiler/NVHPC/22.11-CUDA-11.7.0/Gaussian/g16c01-CUDA-11.7.0/g16/l103.exe)

 GradGradGradGradGradGradGradGradGradGradGradGradGradGradGradGradGradGrad
 Berny optimization.
 Red2BG is reusing G-inverse.
 Internal  Forces:  Max     0.000000435 RMS     0.000000147
 Search for a local minimum.
 Step number   1 out of a maximum of    2
 All quantities printed in internal units (Hartrees-Bohrs-Radians)
 Second derivative matrix not updated -- analytic derivatives used.
 ITU=  0
     Eigenvalues ---    0.00012   0.00517   0.09199   0.15159   0.17277
     Eigenvalues ---    0.18502   0.19701   0.23508   0.24385   0.24411
     Eigenvalues ---    0.32382   0.37656   0.40045   0.41654   0.44617
     Eigenvalues ---    0.52044   0.57231   0.69728
 Angle between quadratic step and forces=  79.90 degrees.
 Linear search not attempted -- first point.
 Iteration  1 RMS(Cart)=  0.00026012 RMS(Int)=  0.00000005
 Iteration  2 RMS(Cart)=  0.00000006 RMS(Int)=  0.00000000
 ITry= 1 IFail=0 DXMaxC= 5.47D-04 DCOld= 1.00D+10 DXMaxT= 3.00D-01 DXLimC= 3.00D+00 Rises=F
 Variable       Old X    -DE/DX   Delta X   Delta X   Delta X     New X
                                 (Linear)    (Quad)   (Total)
    R1        2.91517  -0.00000   0.00000   0.00000   0.00000   2.91517
    R2        2.36425  -0.00000   0.00000   0.00000   0.00000   2.36425
    R3        2.72366  -0.00000   0.00000  -0.00000  -0.00000   2.72366
    R4        1.82968  -0.00000   0.00000  -0.00000  -0.00000   1.82968
    R5        2.51249  -0.00000   0.00000  -0.00001  -0.00001   2.51248
    R6        2.52410  -0.00000   0.00000  -0.00000  -0.00000   2.52410
    R7        2.51153   0.00000   0.00000   0.00001   0.00001   2.51154
    A1        1.83598  -0.00000   0.00000  -0.00000  -0.00000   1.83598
    A2        1.73761  -0.00000   0.00000  -0.00000  -0.00000   1.73761
    A3        1.88173  -0.00000   0.00000   0.00003   0.00003   1.88176
    A4        2.03423  -0.00000   0.00000   0.00000   0.00000   2.03423
    A5        1.88476   0.00000   0.00000  -0.00003  -0.00003   1.88472
    A6        1.87848   0.00000   0.00000  -0.00001  -0.00001   1.87848
    A7        1.90405   0.00000   0.00000   0.00000   0.00000   1.90405
    A8        1.87794   0.00000   0.00000   0.00000   0.00000   1.87794
    A9        1.94781   0.00000   0.00000   0.00000   0.00000   1.94781
    D1       -2.09332  -0.00000   0.00000  -0.00052  -0.00052  -2.09383
    D2        0.01990  -0.00000   0.00000  -0.00050  -0.00050   0.01940
    D3        2.13476  -0.00000   0.00000  -0.00052  -0.00052   2.13424
    D4        3.13911  -0.00000   0.00000   0.00005   0.00005   3.13916
    D5       -3.14123  -0.00000   0.00000  -0.00003  -0.00003  -3.14126
         Item               Value     Threshold  Converged?
 Maximum Force            0.000000     0.000450     YES
 RMS     Force            0.000000     0.000300     YES
 Maximum Displacement     0.000547     0.001800     YES
 RMS     Displacement     0.000260     0.001200     YES
 Predicted change in Energy=-5.236335D-11
 Optimization completed.
    -- Stationary point found.
                           ----------------------------
                           !   Optimized Parameters   !
                           ! (Angstroms and Degrees)  !
 --------------------------                            --------------------------
 ! Name  Definition              Value          Derivative Info.                !
 --------------------------------------------------------------------------------
 ! R1    R(1,3)                  1.5426         -DE/DX =    0.0                 !
 ! R2    R(1,7)                  1.2511         -DE/DX =    0.0                 !
 ! R3    R(2,7)                  1.4413         -DE/DX =    0.0                 !
 ! R4    R(2,8)                  0.9682         -DE/DX =    0.0                 !
 ! R5    R(3,4)                  1.3296         -DE/DX =    0.0                 !
 ! R6    R(3,5)                  1.3357         -DE/DX =    0.0                 !
 ! R7    R(3,6)                  1.329          -DE/DX =    0.0                 !
 ! A1    A(3,1,7)              105.1938         -DE/DX =    0.0                 !
 ! A2    A(7,2,8)               99.5579         -DE/DX =    0.0                 !
 ! A3    A(1,3,4)              107.8149         -DE/DX =    0.0                 !
 ! A4    A(1,3,5)              116.5527         -DE/DX =    0.0                 !
 ! A5    A(1,3,6)              107.9887         -DE/DX =    0.0                 !
 ! A6    A(4,3,5)              107.6292         -DE/DX =    0.0                 !
 ! A7    A(4,3,6)              109.0943         -DE/DX =    0.0                 !
 ! A8    A(5,3,6)              107.598          -DE/DX =    0.0                 !
 ! A9    A(1,7,2)              111.6011         -DE/DX =    0.0                 !
 ! D1    D(7,1,3,4)           -119.9382         -DE/DX =    0.0                 !
 ! D2    D(7,1,3,5)              1.14           -DE/DX =    0.0                 !
 ! D3    D(7,1,3,6)            122.3127         -DE/DX =    0.0                 !
 ! D4    D(3,1,7,2)            179.8576         -DE/DX =    0.0                 !
 ! D5    D(8,2,7,1)           -179.9792         -DE/DX =    0.0                 !
 --------------------------------------------------------------------------------
 GradGradGradGradGradGradGradGradGradGradGradGradGradGradGradGradGradGrad

 Leave Link  103 at Sun May 25 05:03:34 2025, MaxMem=  3758096384 cpu:               0.0 elap:               0.0
 (Enter /apps/easybuild-2022/easybuild/software/Compiler/NVHPC/22.11-CUDA-11.7.0/Gaussian/g16c01-CUDA-11.7.0/g16/l9999.exe)

 ----------------------------------------------------------------------

 Electric dipole moment (input orientation):
 (Debye = 10**-18 statcoulomb cm , SI units = C m)
                  (au)            (Debye)         (10**-30 SI)
   Tot        0.125120D+01      0.318024D+01      0.106082D+02
   x         -0.105311D+01     -0.267673D+01     -0.892863D+01
   y         -0.610802D+00     -0.155250D+01     -0.517859D+01
   z         -0.288784D+00     -0.734016D+00     -0.244841D+01

 Dipole polarizability, Alpha (input orientation).
 (esu units = cm**3 , SI units = C**2 m**2 J**-1)
 Alpha(0;0):
               (au)            (10**-24 esu)      (10**-40 SI)
   iso        0.382402D+02      0.566662D+01      0.630496D+01
   aniso      0.245915D+02      0.364409D+01      0.405459D+01
   xx         0.526975D+02      0.780896D+01      0.868864D+01
   yx         0.437162D+01      0.647808D+00      0.720783D+00
   yy         0.306113D+02      0.453612D+01      0.504712D+01
   zx        -0.500828D+01     -0.742151D+00     -0.825755D+00
   zy         0.683420D+00      0.101272D+00      0.112681D+00
   zz         0.314119D+02      0.465477D+01      0.517913D+01

 ----------------------------------------------------------------------

 Dipole orientation:
     6         -1.91301160         -0.33574507          0.07472194
     8         -3.92199679         -0.66095418          3.76355251
     6          0.72841664          0.10714932         -1.07633042
     9          0.61605094          2.18764430         -2.48043264
     9          2.63657151          0.38613837          0.55222839
     9          1.26982452         -1.85169254         -2.55199880
     8         -1.58673269         -0.27639625          2.41559975
     1         -3.30225100         -0.55362171          5.48172665

 Electric dipole moment (dipole orientation):
 (Debye = 10**-18 statcoulomb cm , SI units = C m)
                  (au)            (Debye)         (10**-30 SI)
   Tot        0.125120D+01      0.318024D+01      0.106082D+02
   x          0.000000D+00      0.000000D+00      0.000000D+00
   y          0.000000D+00      0.000000D+00      0.000000D+00
   z          0.125120D+01      0.318024D+01      0.106082D+02

 Dipole polarizability, Alpha (dipole orientation).
 (esu units = cm**3 , SI units = C**2 m**2 J**-1)
 Alpha(0;0):
               (au)            (10**-24 esu)      (10**-40 SI)
   iso        0.382402D+02      0.566662D+01      0.630496D+01
   aniso      0.245915D+02      0.364409D+01      0.405459D+01
   xx         0.378805D+02      0.561331D+01      0.624565D+01
   yx         0.153900D+01      0.228056D+00      0.253747D+00
   yy         0.287394D+02      0.425874D+01      0.473849D+01
   zx        -0.101356D+02     -0.150195D+01     -0.167114D+01
   zy        -0.163329D+01     -0.242029D+00     -0.269294D+00
   zz         0.481008D+02      0.712780D+01      0.793075D+01

 ----------------------------------------------------------------------
 Unable to Open any file for archive entry.
 1\1\GINC-SPARTAN-BM163\Freq\RM062X\def2TZVPP\C2H1F3O2\AKHALILOV\25-May
 -2025\0\\#P Geom=AllCheck Guess=TCheck SCRF=Check GenChk RM062X/def2TZ
 VPP Freq\\Gaussian input prepared by ASE\\0,1\C,-0.522249128,0.4619104
 829,0.7561880218\O,-2.6739005898,0.0026503315,1.1164286063\C,0.6619217
 221,0.1036456727,-0.1652943345\F,1.6295979222,-0.4015661332,0.59369750
 27\F,0.4144199422,-0.7731949074,-1.1420140517\F,1.0947351618,1.2250813
 744,-0.7322273997\O,-1.4811002397,-0.2257704661,0.3402891876\H,-3.2810
 137908,-0.5964863549,0.6582714674\\Version=ES64L-G16RevC.01\HF=-526.64
 75443\RMSD=1.612e-09\RMSF=2.154e-06\ZeroPoint=0.0366571\Thermal=0.0434
 961\ETot=-526.6040482\HTot=-526.603104\GTot=-526.6438919\Dipole=-1.053
 1085,-0.6108018,-0.2887842\DipoleDeriv=-0.0323371,0.1308845,0.0557152,
 0.0346744,-0.0717027,0.2272773,-0.0571378,0.1894888,-0.0283463,-0.8967
 261,-0.1443986,0.0551115,0.0681405,-0.2035804,0.1529285,0.3098149,0.24
 26768,-0.1973763,1.732991,0.0551699,0.0624844,0.0322345,1.6960588,-0.0
 642054,0.0344095,-0.0740093,1.6430664,-0.7919241,0.1598351,-0.2371855,
 0.2160542,-0.3727163,0.1289262,-0.1843953,0.1044087,-0.4773505,-0.4038
 374,-0.0193485,0.0184364,0.0359873,-0.5759922,-0.3544072,0.0860444,-0.
 3308933,-0.7451012,-0.4931821,-0.2214765,0.139887,-0.1916487,-0.709667
 8,0.2009928,0.1855471,0.2592994,-0.4382862,0.5480902,0.0363171,-0.1093
 599,-0.2403727,-0.0692728,-0.2054818,-0.4388258,-0.3223899,-0.0110077,
 0.3369256,0.003017,0.0149109,0.0449305,0.3068735,-0.0860303,0.0645429,
 -0.068581,0.2544018\Polar=52.6974981,4.3716242,30.6112814,-5.0082846,0
 .6834199,31.4119204\PG=Unknown\NImag=0\\0.54184568,0.17894699,0.238978
 60,0.00850175,0.14172266,0.22150966,-0.09880587,-0.02704968,0.00297484
 ,0.39441453,-0.02481651,0.00487775,0.03449067,0.19306881,0.26226004,0.
 00561440,0.03536078,0.02449855,0.07033286,0.21270662,0.23974627,-0.107
 69512,0.01096759,0.03985722,0.01433338,-0.00706627,-0.00781707,0.59349
 425,0.03931415,-0.05421515,-0.02824638,-0.00843171,0.00602933,-0.00866
 128,0.00690702,0.55022659,0.07370853,-0.01608464,-0.09436652,-0.009027
 50,-0.00920608,0.00912146,-0.01427772,0.00162497,0.55223473,-0.0297633
 7,0.01358615,-0.02298661,-0.00509777,-0.00483652,0.00412770,-0.2305539
 5,0.07993332,-0.08506650,0.26387958,0.01732919,-0.00024327,0.00836008,
 0.00189626,0.00126141,-0.00035495,0.06957686,-0.10831496,0.04034585,-0
 .10118389,0.13158762,0.00141521,-0.00495262,0.00793724,-0.00054988,0.0
 0007688,0.00026512,-0.08547287,0.03923211,-0.12896602,0.15576276,-0.07
 464858,0.19623127,0.00114503,0.01246085,0.01753058,0.00027323,0.000509
 26,0.00001410,-0.08228730,-0.01238166,-0.01082061,-0.01557747,-0.01924
 199,-0.05308981,0.09255143,0.00014400,-0.00994716,-0.02048742,0.004164
 68,0.00021297,-0.00014933,-0.00920865,-0.16209553,-0.10601170,-0.00958
 805,0.01675385,-0.00653175,0.04651024,0.22696602,0.00259002,-0.0256967
 6,-0.02571384,0.00446023,0.00131270,-0.00121730,-0.00715142,-0.1045040
 3,-0.19780191,-0.04005423,-0.01751011,-0.05190243,0.05203481,0.1595577
 5,0.25614808,-0.00677542,-0.02738405,0.01355696,-0.00562286,0.00193741
 ,-0.00150105,-0.11956710,-0.07751203,0.05733917,0.02098748,0.02743565,
 -0.02085470,0.00348049,-0.02579729,-0.00521547,0.10811189,-0.00943040,
 -0.00679621,0.00335678,-0.00354249,0.00075773,-0.00042172,-0.07616379,
 -0.21879675,0.08728316,0.01490174,-0.04060320,0.04252309,-0.03195723,-
 0.07344280,-0.01037109,0.10315472,0.33943860,0.01528037,0.02550391,-0.
 00873131,0.00412912,-0.00029428,0.00103306,0.04722479,0.08452574,-0.13
 104222,-0.01147630,0.04535157,-0.02311974,-0.01171182,-0.02771964,0.01
 888841,-0.04847951,-0.12825099,0.14656290,-0.28549189,-0.16025578,-0.0
 6396381,-0.09331242,0.00310165,0.03545958,-0.06613656,-0.02667428,-0.0
 1210168,-0.00399117,0.00407457,0.00290561,-0.00000171,-0.00679072,-0.0
 0702933,-0.00057836,0.00306685,0.00494263,0.47167223,-0.20179514,-0.17
 170726,-0.13802320,0.04298267,-0.06596094,-0.07471458,0.00560332,-0.01
 505839,0.00177843,0.00669132,-0.00007072,0.00421286,0.00411285,0.00194
 164,-0.00273734,-0.00268450,-0.00077167,0.00149894,0.16976859,0.246986
 09,-0.11353814,-0.15534210,-0.12172430,0.08298571,-0.05790123,-0.12265
 160,0.02678037,0.01551920,-0.01163067,-0.00141022,-0.00114875,-0.00025
 876,0.00638900,0.00163422,0.00214703,0.00474839,0.00550513,-0.00296980
 ,0.01539761,0.18841373,0.24709895,-0.01445903,-0.00127207,0.00452908,-
 0.20618223,-0.16189783,-0.10623053,-0.00158761,-0.00115481,0.00024631,
 0.00011666,0.00011336,-0.00011632,0.00041630,0.00056579,0.00036540,-0.
 00003613,-0.00002939,0.00009073,-0.02216013,-0.02467911,-0.02135273,0.
 24389217,0.00030772,-0.00094729,-0.00117317,-0.20308854,-0.20943829,-0
 .16376554,-0.00061608,0.00222485,0.00027001,0.00049594,-0.00037074,0.0
 0008801,-0.00001232,-0.00038898,-0.00005113,0.00085010,0.00021429,-0.0
 0061525,0.01370912,0.00464124,0.00331981,0.18835406,0.20406492,0.00642
 786,-0.00051124,-0.00340949,-0.15530540,-0.18118528,-0.15079555,0.0008
 5670,0.00050967,0.00245115,0.00110342,-0.00039511,-0.00018667,-0.00034
 625,-0.00029212,-0.00054803,0.00040620,0.00037564,-0.00062130,0.024389
 40,0.01957117,0.00998916,0.12246807,0.16192727,0.14312074\\-0.00000152
 ,0.00000024,-0.00000037,-0.00000142,-0.00000300,-0.00000311,0.00000024
 ,0.00000193,0.00000163,0.00000013,0.00000368,0.00000318,0.00000313,0.0
 0000098,0.00000150,-0.00000086,0.00000222,0.00000182,0.00000005,-0.000
 00163,-0.00000109,0.00000026,-0.00000442,-0.00000356\\\@
 The archive entry for this job was punched.


 What some people mistake for the high cost
 of living is really the cost of living high.
                              -- Doug Larson
 Job cpu time:       0 days  0 hours  8 minutes 36.5 seconds.
 Elapsed time:       0 days  0 hours  1 minutes  6.1 seconds.
 File lengths (MBytes):  RWF=     48 Int=      0 D2E=      0 Chk=      5 Scr=      1
 Normal termination of Gaussian 16 at Sun May 25 05:03:34 2025.
done
