 Entering Gaussian System, Link 0=g16
 Initial command:
 /apps/easybuild-2022/easybuild/software/Compiler/NVHPC/22.11-CUDA-11.7.0/Gaussian/g16c01-CUDA-11.7.0/g16/l1.exe "/tmp/Gau-299187.inp" -scrdir="/tmp/"
 Entering Link 1 = /apps/easybuild-2022/easybuild/software/Compiler/NVHPC/22.11-CUDA-11.7.0/Gaussian/g16c01-CUDA-11.7.0/g16/l1.exe PID=    299188.
  
 Copyright (c) 1988-2019, Gaussian, Inc.  All Rights Reserved.
  
 This is part of the Gaussian(R) 16 program.  It is based on
 the Gaussian(R) 09 system (copyright 2009, Gaussian, Inc.),
 the Gaussian(R) 03 system (copyright 2003, Gaussian, Inc.),
 the Gaussian(R) 98 system (copyright 1998, Gaussian, Inc.),
 the Gaussian(R) 94 system (copyright 1995, Gaussian, Inc.),
 the Gaussian 92(TM) system (copyright 1992, Gaussian, Inc.),
 the Gaussian 90(TM) system (copyright 1990, Gaussian, Inc.),
 the Gaussian 88(TM) system (copyright 1988, Gaussian, Inc.),
 the Gaussian 86(TM) system (copyright 1986, Carnegie Mellon
 University), and the Gaussian 82(TM) system (copyright 1983,
 Carnegie Mellon University). Gaussian is a federally registered
 trademark of Gaussian, Inc.
  
 This software contains proprietary and confidential information,
 including trade secrets, belonging to Gaussian, Inc.
  
 This software is provided under written license and may be
 used, copied, transmitted, or stored only in accord with that
 written license.
  
 The following legend is applicable only to US Government
 contracts under FAR:
  
                    RESTRICTED RIGHTS LEGEND
  
 Use, reproduction and disclosure by the US Government is
 subject to restrictions as set forth in subparagraphs (a)
 and (c) of the Commercial Computer Software - Restricted
 Rights clause in FAR 52.227-19.
  
 Gaussian, Inc.
 340 Quinnipiac St., Bldg. 40, Wallingford CT 06492
  
  
 ---------------------------------------------------------------
 Warning -- This program may not be used in any manner that
 competes with the business of Gaussian, Inc. or will provide
 assistance to any competitor of Gaussian, Inc.  The licensee
 of this program is prohibited from giving any competitor of
 Gaussian, Inc. access to this program.  By using this program,
 the user acknowledges that Gaussian, Inc. is engaged in the
 business of creating and licensing software in the field of
 computational chemistry and represents and warrants to the
 licensee that it is not a competitor of Gaussian, Inc. and that
 it will not use this program in any manner prohibited above.
 ---------------------------------------------------------------
  

 Cite this work as:
 Gaussian 16, Revision C.01,
 M. J. Frisch, G. W. Trucks, H. B. Schlegel, G. E. Scuseria, 
 M. A. Robb, J. R. Cheeseman, G. Scalmani, V. Barone, 
 G. A. Petersson, H. Nakatsuji, X. Li, M. Caricato, A. V. Marenich, 
 J. Bloino, B. G. Janesko, R. Gomperts, B. Mennucci, H. P. Hratchian, 
 J. V. Ortiz, A. F. Izmaylov, J. L. Sonnenberg, D. Williams-Young, 
 F. Ding, F. Lipparini, F. Egidi, J. Goings, B. Peng, A. Petrone, 
 T. Henderson, D. Ranasinghe, V. G. Zakrzewski, J. Gao, N. Rega, 
 G. Zheng, W. Liang, M. Hada, M. Ehara, K. Toyota, R. Fukuda, 
 J. Hasegawa, M. Ishida, T. Nakajima, Y. Honda, O. Kitao, H. Nakai, 
 T. Vreven, K. Throssell, J. A. Montgomery, Jr., J. E. Peralta, 
 F. Ogliaro, M. J. Bearpark, J. J. Heyd, E. N. Brothers, K. N. Kudin, 
 V. N. Staroverov, T. A. Keith, R. Kobayashi, J. Normand, 
 K. Raghavachari, A. P. Rendell, J. C. Burant, S. S. Iyengar, 
 J. Tomasi, M. Cossi, J. M. Millam, M. Klene, C. Adamo, R. Cammi, 
 J. W. Ochterski, R. L. Martin, K. Morokuma, O. Farkas, 
 J. B. Foresman, and D. J. Fox, Gaussian, Inc., Wallingford CT, 2019.
 
 ******************************************
 Gaussian 16:  ES64L-G16RevC.01  3-Jul-2019
                25-May-2025 
 ******************************************
 %mem=28GB
 %chk=1141903082400600000001_r12_insertion_R_4_3_5_IRC_F
 %nprocshared=8
 Will use up to    8 processors via shared memory.
 ----------------------------------------------------------------------
 #P M062X/Def2TZVPP Symm(None) scf(xqc) pop(None) geom(AllCheck,NoKeepC
 onstants) guess(Read) irc(RCFC,forward,MaxPoints=100,StepSize=2)
 ----------------------------------------------------------------------
 1/10=5,18=10,22=1,26=3,29=20007,38=1,39=2,42=100,44=3,172=1/1,23;
 2/12=2,15=3,29=1,40=1/2;
 3/5=44,7=202,11=2,14=-4,25=1,30=1,71=2,74=-55,116=-2,140=1/1,2,3;
 4/5=1/1;
 5/5=2,8=3,13=1,38=6/2,8;
 8/6=4,10=90,11=11/1;
 11/6=1,8=1,9=11,15=111,16=1,31=1/1,2,10;
 10/6=1,13=1,31=1/2;
 7/10=1,25=1,30=1/1,2,3,16;
 1/18=10,22=1,26=3,39=2,42=100,44=3/23(2);
 2/15=3,29=1/2;
 99/5=20/99;
 2/15=3,29=1/2;
 3/5=44,7=202,11=2,14=-2,25=1,30=1,71=2,74=-55,140=1/1,2,3;
 4/5=5,16=3,69=1/1;
 5/5=2,8=3,13=1,38=5/2,8;
 8/6=4,10=90,11=11/1;
 11/6=1,8=1,9=11,15=111,16=1,31=1/1,2,10;
 10/6=1,13=1,31=1/2;
 7/10=1,25=1,30=1/1,2,3,16;
 1/18=10,22=1,26=3,39=2,42=100,44=3/23(-8);
 2/15=3,29=1/2;
 99/5=20,9=1/99;
 Leave Link    1 at Sun May 25 04:04:17 2025, MaxMem=  3758096384 cpu:               0.1 elap:               0.1
 (Enter /apps/easybuild-2022/easybuild/software/Compiler/NVHPC/22.11-CUDA-11.7.0/Gaussian/g16c01-CUDA-11.7.0/g16/l101.exe)
 Structure from the checkpoint file:  "1141903082400600000001_r12_insertion_R_4_3_5_IRC_F.chk"
 ------------------------------
 Gaussian input prepared by ASE
 ------------------------------
 Charge =  0 Multiplicity = 1
 Redundant internal coordinates found in file.  (old form).
 C,0,1.815614535,-0.1585838522,0.2308076995
 O,0,2.5496659793,-1.0381717759,0.5519237083
 C,0,0.344260571,-0.4328313624,0.0408111889
 F,0,-0.4731549746,0.4213998291,-0.2875645186
 F,0,-1.9090267454,1.9180845201,-0.8665075417
 F,0,-0.0794767327,-1.6071189325,0.226803702
 O,0,2.0638736476,1.1102007896,-0.0089672039
 H,0,3.0078687199,1.2912997842,0.1116059655
 Recover connectivity data from disk.
 ITRead=  0  0  0  0  0  0  0  0
 MicOpt= -1 -1 -1 -1 -1 -1 -1 -1
 NAtoms=      8 NQM=        8 NQMF=       0 NMMI=      0 NMMIF=      0
                NMic=       0 NMicF=      0.
                    Isotopes and Nuclear Properties:
 (Nuclear quadrupole moments (NQMom) in fm**2, nuclear magnetic moments (NMagM)
  in nuclear magnetons)

  Atom         1           2           3           4           5           6           7           8
 IAtWgt=          12          16          12          19          19          19          16           1
 AtmWgt=  12.0000000  15.9949146  12.0000000  18.9984032  18.9984032  18.9984032  15.9949146   1.0078250
 NucSpn=           0           0           0           1           1           1           0           1
 AtZEff=   3.6000000   5.6000000   3.6000000   6.7500000   6.7500000   6.7500000   5.6000000   1.0000000
 NQMom=    0.0000000   0.0000000   0.0000000   0.0000000   0.0000000   0.0000000   0.0000000   0.0000000
 NMagM=    0.0000000   0.0000000   0.0000000   2.6288670   2.6288670   2.6288670   0.0000000   2.7928460
 AtZNuc=   6.0000000   8.0000000   6.0000000   9.0000000   9.0000000   9.0000000   8.0000000   1.0000000
 Leave Link  101 at Sun May 25 04:04:17 2025, MaxMem=  3758096384 cpu:               0.3 elap:               0.2
 (Enter /apps/easybuild-2022/easybuild/software/Compiler/NVHPC/22.11-CUDA-11.7.0/Gaussian/g16c01-CUDA-11.7.0/g16/l123.exe)
 IRC-IRC-IRC-IRC-IRC-IRC-IRC-IRC-IRC-IRC-IRC-IRC-IRC-IRC-IRC-IRC-IRC-IRC
 ------------------------------------------------------------------------
 INPUT DATA FOR L123
 ------------------------------------------------------------------------
 GENERAL PARAMETERS:
 Rxn path following direction = Forward
 Maximum points per path      = 100
 Step size                    =   0.020 bohr
 Integration scheme           = HPC                                 
    Redo corrector integration= Yes                                 
    DWI Weight Power          =  2
    DWI will use Hessian update vectors when possible.
    Max correction cycles     =  20
 Initial Hessian              = ReadFC from chk
 Hessian evaluation           = All updating
 Hessian updating method      = Bofill                              
 ------------------------------------------------------------------------
          ******** Start new reaction path calculation ********
 RCFC Option Requested - Data Read From Chk File:
 "1141903082400600000001_r12_insertion_R_4_3_5_IRC_F.chk"
   Energy From Chk =   -526.6057384

 Current Structure is TS -> form Hessian eigenvectors.
                            Recovering Hessian eigenvectors from chk file.
 WARNING: TS HAS MORE THAN 1 IMAGINARY FREQUENCY!
 Supplied step size of   0.0200 bohr.
    Integration on MW PES will use step size of   0.0866 sqrt(amu)*bohr.
 Point Number:   0          Path Number:   1
 Calculating another point on the path.
 Point Number  1 in FORWARD path direction.
 Using LQA Reaction Path Following.
 IRC-IRC-IRC-IRC-IRC-IRC-IRC-IRC-IRC-IRC-IRC-IRC-IRC-IRC-IRC-IRC-IRC-IRC
 Leave Link  123 at Sun May 25 04:04:17 2025, MaxMem=  3758096384 cpu:               0.1 elap:               0.0
 (Enter /apps/easybuild-2022/easybuild/software/Compiler/NVHPC/22.11-CUDA-11.7.0/Gaussian/g16c01-CUDA-11.7.0/g16/l202.exe)
                          Input orientation:                          
 ---------------------------------------------------------------------
 Center     Atomic      Atomic             Coordinates (Angstroms)
 Number     Number       Type             X           Y           Z
 ---------------------------------------------------------------------
      1          6           0        1.324279   -0.239524    0.281330
      2          8           0        2.058573   -1.119424    0.601033
      3          6           0       -0.146762   -0.514187    0.089462
      4          9           0       -0.962700    0.338147   -0.247502
      5          9           0       -2.400787    1.837681   -0.813652
      6          9           0       -0.570986   -1.687843    0.278317
      7          8           0        1.572703    1.029034    0.040532
      8          1           0        2.516866    1.209920    0.160117
 ---------------------------------------------------------------------
                    Distance matrix (angstroms):
                    1          2          3          4          5
     1  C    0.000000
     2  O    1.189798   0.000000
     3  C    1.508713   2.343399   0.000000
     4  F    2.417363   3.460147   1.227099   0.000000
     5  F    4.403396   5.534591   3.380463   2.153421   0.000000
     6  F    2.385303   2.709580   1.262182   2.129451   4.119453
     7  O    1.314891   2.272906   2.310949   2.643589   4.143932
     8  H    1.880916   2.414598   3.173712   3.610197   5.052289
                    6          7          8
     6  F    0.000000
     7  O    3.468914   0.000000
     8  H    4.236252   0.968743   0.000000
 Symmetry turned off by external request.
 Stoichiometry    C2HF3O2
 Rotational constants (GHZ):           4.2483369           1.5120353           1.1151499
 Leave Link  202 at Sun May 25 04:04:17 2025, MaxMem=  3758096384 cpu:               0.1 elap:               0.0
 (Enter /apps/easybuild-2022/easybuild/software/Compiler/NVHPC/22.11-CUDA-11.7.0/Gaussian/g16c01-CUDA-11.7.0/g16/l301.exe)
 Standard basis: def2TZVPP (5D, 7F)
 Ernie: Thresh=  0.10000D-02 Tol=  0.10000D-05 Strict=F.
   231 basis functions,   374 primitive gaussians,   267 cartesian basis functions
    28 alpha electrons       28 beta electrons
       nuclear repulsion energy       303.8782243193 Hartrees.
 IExCor= 4336 DFT=T Ex+Corr=M062X ExCW=0 ScaHFX=  0.540000
 ScaDFX=  1.000000  1.000000  1.000000  1.000000 ScalE2=  1.000000  1.000000
 IRadAn=      5 IRanWt=     -1 IRanGd=            0 ICorTp=0 IEmpDi=  4
 NAtoms=    8 NActive=    8 NUniq=    8 SFac= 1.00D+00 NAtFMM=   60 NAOKFM=F Big=F
 Integral buffers will be    131072 words long.
 Raffenetti 2 integral format.
 Two-electron integral symmetry is turned off.
 Leave Link  301 at Sun May 25 04:04:17 2025, MaxMem=  3758096384 cpu:               0.1 elap:               0.0
 (Enter /apps/easybuild-2022/easybuild/software/Compiler/NVHPC/22.11-CUDA-11.7.0/Gaussian/g16c01-CUDA-11.7.0/g16/l302.exe)
 NPDir=0 NMtPBC=     1 NCelOv=     1 NCel=       1 NClECP=     1 NCelD=      1
         NCelK=      1 NCelE2=     1 NClLst=     1 CellRange=     0.0.
 One-electron integrals computed using PRISM.
   1 Symmetry operations used in ECPInt.
 ECPInt:  NShTT=    3486 NPrTT=   11183 LenC2=    3291 LenP2D=    8220.
 LDataN:  DoStor=T MaxTD1= 6 Len=  172
 NBasis=   231 RedAO= T EigKep=  4.00D-04  NBF=   231
 NBsUse=   231 1.00D-06 EigRej= -1.00D+00 NBFU=   231
 Precomputing XC quadrature grid using
 IXCGrd= 4 IRadAn=           5 IRanWt=          -1 IRanGd=           0 AccXCQ= 0.00D+00.
 Generated NRdTot=       0 NPtTot=           0 NUsed=           0 NTot=          32
 NSgBfM=   264   264   264   264   264 MxSgAt=     8 MxSgA2=     8.
 Leave Link  302 at Sun May 25 04:04:17 2025, MaxMem=  3758096384 cpu:               0.7 elap:               0.1
 (Enter /apps/easybuild-2022/easybuild/software/Compiler/NVHPC/22.11-CUDA-11.7.0/Gaussian/g16c01-CUDA-11.7.0/g16/l303.exe)
 DipDrv:  MaxL=1.
 Leave Link  303 at Sun May 25 04:04:17 2025, MaxMem=  3758096384 cpu:               0.1 elap:               0.0
 (Enter /apps/easybuild-2022/easybuild/software/Compiler/NVHPC/22.11-CUDA-11.7.0/Gaussian/g16c01-CUDA-11.7.0/g16/l401.exe)
 Initial guess from the checkpoint file:  "1141903082400600000001_r12_insertion_R_4_3_5_IRC_F.chk"
 B after Tr=    -0.927943   -0.153676    0.092192
         Rot=    1.000000   -0.000001    0.000005   -0.000001 Ang=  -0.00 deg.
 Guess basis will be translated and rotated to current coordinates.
 JPrj=2 DoOrth=T DoCkMO=T.
 Leave Link  401 at Sun May 25 04:04:17 2025, MaxMem=  3758096384 cpu:               0.3 elap:               0.1
 (Enter /apps/easybuild-2022/easybuild/software/Compiler/NVHPC/22.11-CUDA-11.7.0/Gaussian/g16c01-CUDA-11.7.0/g16/l502.exe)
 Keep R1 ints in memory in canonical form, NReq=368651263.
 FoFCou: FMM=F IPFlag=           0 FMFlag=           0 FMFlg1=           0
         NFxFlg=           0 DoJE=F BraDBF=F KetDBF=F FulRan=T
         wScrn=  0.000000 ICntrl=       600 IOpCl=  0 I1Cent=           0 NGrid=           0
         NMat0=    1 NMatS0=  26796 NMatT0=    0 NMatD0=    1 NMtDS0=    0 NMtDT0=    0
 Symmetry not used in FoFCou.
 Two-electron integral symmetry not used.
 Closed shell SCF:
 Using DIIS extrapolation, IDIIS=  1040.
 NGot=  3758096384 LenX=  3398923547 LenY=  3398851817
 Requested convergence on RMS density matrix=1.00D-08 within  32 cycles.
 Requested convergence on MAX density matrix=1.00D-06.
 Requested convergence on             energy=1.00D-06.
 No special actions if energy rises.

 Cycle   1  Pass 1  IDiag  1:
 E= -526.605688869447    
 DIIS: error= 2.82D-04 at cycle   1 NSaved=   1.
 NSaved= 1 IEnMin= 1 EnMin= -526.605688869447     IErMin= 1 ErrMin= 2.82D-04
 ErrMax= 2.82D-04  0.00D+00 EMaxC= 1.00D-01 BMatC= 3.09D-05 BMatP= 3.09D-05
 IDIUse=3 WtCom= 9.97D-01 WtEn= 2.82D-03
 Coeff-Com:  0.100D+01
 Coeff-En:   0.100D+01
 Coeff:      0.100D+01
 Gap=     0.098 Goal=   None    Shift=    0.000
 RMSDP=3.90D-05 MaxDP=1.91D-03              OVMax= 2.05D-03

 Cycle   2  Pass 1  IDiag  1:
 E= -526.605729823030     Delta-E=       -0.000040953584 Rises=F Damp=F
 DIIS: error= 6.61D-05 at cycle   2 NSaved=   2.
 NSaved= 2 IEnMin= 2 EnMin= -526.605729823030     IErMin= 2 ErrMin= 6.61D-05
 ErrMax= 6.61D-05  0.00D+00 EMaxC= 1.00D-01 BMatC= 1.17D-06 BMatP= 3.09D-05
 IDIUse=1 WtCom= 1.00D+00 WtEn= 0.00D+00
 Coeff-Com: -0.146D+00 0.115D+01
 Coeff:     -0.146D+00 0.115D+01
 Gap=     0.095 Goal=   None    Shift=    0.000
 RMSDP=1.03D-05 MaxDP=2.91D-04 DE=-4.10D-05 OVMax= 2.10D-03

 Cycle   3  Pass 1  IDiag  1:
 E= -526.605733965718     Delta-E=       -0.000004142688 Rises=F Damp=F
 DIIS: error= 2.63D-05 at cycle   3 NSaved=   3.
 NSaved= 3 IEnMin= 3 EnMin= -526.605733965718     IErMin= 3 ErrMin= 2.63D-05
 ErrMax= 2.63D-05  0.00D+00 EMaxC= 1.00D-01 BMatC= 1.12D-07 BMatP= 1.17D-06
 IDIUse=1 WtCom= 1.00D+00 WtEn= 0.00D+00
 Coeff-Com: -0.924D-02-0.148D-01 0.102D+01
 Coeff:     -0.924D-02-0.148D-01 0.102D+01
 Gap=     0.095 Goal=   None    Shift=    0.000
 RMSDP=7.08D-06 MaxDP=2.39D-04 DE=-4.14D-06 OVMax= 1.80D-03

 Cycle   4  Pass 1  IDiag  1:
 E= -526.605735644566     Delta-E=       -0.000001678847 Rises=F Damp=F
 DIIS: error= 2.67D-05 at cycle   4 NSaved=   4.
 NSaved= 4 IEnMin= 4 EnMin= -526.605735644566     IErMin= 3 ErrMin= 2.63D-05
 ErrMax= 2.67D-05  0.00D+00 EMaxC= 1.00D-01 BMatC= 1.01D-07 BMatP= 1.12D-07
 IDIUse=1 WtCom= 1.00D+00 WtEn= 0.00D+00
 Coeff-Com:  0.980D-02-0.113D+00 0.451D+00 0.652D+00
 Coeff:      0.980D-02-0.113D+00 0.451D+00 0.652D+00
 Gap=     0.095 Goal=   None    Shift=    0.000
 RMSDP=4.83D-06 MaxDP=1.54D-04 DE=-1.68D-06 OVMax= 1.23D-03

 Cycle   5  Pass 1  IDiag  1:
 E= -526.605736663059     Delta-E=       -0.000001018494 Rises=F Damp=F
 DIIS: error= 3.28D-05 at cycle   5 NSaved=   5.
 NSaved= 5 IEnMin= 5 EnMin= -526.605736663059     IErMin= 3 ErrMin= 2.63D-05
 ErrMax= 3.28D-05  0.00D+00 EMaxC= 1.00D-01 BMatC= 1.20D-07 BMatP= 1.01D-07
 IDIUse=1 WtCom= 1.00D+00 WtEn= 0.00D+00
 Coeff-Com:  0.139D-01-0.121D+00 0.203D+00 0.584D+00 0.320D+00
 Coeff:      0.139D-01-0.121D+00 0.203D+00 0.584D+00 0.320D+00
 Gap=     0.095 Goal=   None    Shift=    0.000
 RMSDP=3.20D-06 MaxDP=1.09D-04 DE=-1.02D-06 OVMax= 7.97D-04

 Cycle   6  Pass 1  IDiag  1:
 E= -526.605737352648     Delta-E=       -0.000000689589 Rises=F Damp=F
 DIIS: error= 2.48D-05 at cycle   6 NSaved=   6.
 NSaved= 6 IEnMin= 6 EnMin= -526.605737352648     IErMin= 6 ErrMin= 2.48D-05
 ErrMax= 2.48D-05  0.00D+00 EMaxC= 1.00D-01 BMatC= 7.17D-08 BMatP= 1.01D-07
 IDIUse=1 WtCom= 1.00D+00 WtEn= 0.00D+00
 Coeff-Com:  0.672D-02-0.139D-01-0.257D+00-0.690D+00 0.200D+00 0.175D+01
 Coeff:      0.672D-02-0.139D-01-0.257D+00-0.690D+00 0.200D+00 0.175D+01
 Gap=     0.095 Goal=   None    Shift=    0.000
 RMSDP=1.39D-05 MaxDP=4.71D-04 DE=-6.90D-07 OVMax= 3.63D-03

 Cycle   7  Pass 1  IDiag  1:
 E= -526.605740053651     Delta-E=       -0.000002701003 Rises=F Damp=F
 DIIS: error= 2.14D-05 at cycle   7 NSaved=   7.
 NSaved= 7 IEnMin= 7 EnMin= -526.605740053651     IErMin= 7 ErrMin= 2.14D-05
 ErrMax= 2.14D-05  0.00D+00 EMaxC= 1.00D-01 BMatC= 6.08D-08 BMatP= 7.17D-08
 IDIUse=1 WtCom= 1.00D+00 WtEn= 0.00D+00
 Coeff-Com: -0.157D-01 0.202D+00-0.498D+00-0.255D+01-0.815D+00 0.272D+01
 Coeff-Com:  0.195D+01
 Coeff:     -0.157D-01 0.202D+00-0.498D+00-0.255D+01-0.815D+00 0.272D+01
 Coeff:      0.195D+01
 Gap=     0.095 Goal=   None    Shift=    0.000
 RMSDP=4.13D-05 MaxDP=1.41D-03 DE=-2.70D-06 OVMax= 1.08D-02

 Cycle   8  Pass 1  IDiag  1:
 E= -526.605745563970     Delta-E=       -0.000005510319 Rises=F Damp=F
 DIIS: error= 3.20D-05 at cycle   8 NSaved=   8.
 NSaved= 8 IEnMin= 8 EnMin= -526.605745563970     IErMin= 7 ErrMin= 2.14D-05
 ErrMax= 3.20D-05  0.00D+00 EMaxC= 1.00D-01 BMatC= 6.36D-08 BMatP= 6.08D-08
 IDIUse=1 WtCom= 1.00D+00 WtEn= 0.00D+00
 Coeff-Com: -0.637D-02 0.426D-01 0.169D+00-0.118D+00-0.128D+01 0.468D+00
 Coeff-Com:  0.484D+00 0.124D+01
 Coeff:     -0.637D-02 0.426D-01 0.169D+00-0.118D+00-0.128D+01 0.468D+00
 Coeff:      0.484D+00 0.124D+01
 Gap=     0.095 Goal=   None    Shift=    0.000
 RMSDP=2.28D-05 MaxDP=7.88D-04 DE=-5.51D-06 OVMax= 5.96D-03

 Cycle   9  Pass 1  IDiag  1:
 E= -526.605747125429     Delta-E=       -0.000001561459 Rises=F Damp=F
 DIIS: error= 5.80D-06 at cycle   9 NSaved=   9.
 NSaved= 9 IEnMin= 9 EnMin= -526.605747125429     IErMin= 9 ErrMin= 5.80D-06
 ErrMax= 5.80D-06  0.00D+00 EMaxC= 1.00D-01 BMatC= 7.00D-09 BMatP= 6.08D-08
 IDIUse=1 WtCom= 1.00D+00 WtEn= 0.00D+00
 Coeff-Com:  0.977D-03-0.272D-01 0.131D+00 0.235D+00 0.856D-01-0.533D+00
 Coeff-Com: -0.112D+00 0.734D-01 0.115D+01
 Coeff:      0.977D-03-0.272D-01 0.131D+00 0.235D+00 0.856D-01-0.533D+00
 Coeff:     -0.112D+00 0.734D-01 0.115D+01
 Gap=     0.095 Goal=   None    Shift=    0.000
 RMSDP=1.10D-05 MaxDP=3.81D-04 DE=-1.56D-06 OVMax= 2.88D-03

 Cycle  10  Pass 1  IDiag  1:
 E= -526.605747445965     Delta-E=       -0.000000320536 Rises=F Damp=F
 DIIS: error= 1.65D-05 at cycle  10 NSaved=  10.
 NSaved=10 IEnMin=10 EnMin= -526.605747445965     IErMin= 9 ErrMin= 5.80D-06
 ErrMax= 1.65D-05  0.00D+00 EMaxC= 1.00D-01 BMatC= 1.31D-08 BMatP= 7.00D-09
 IDIUse=1 WtCom= 1.00D+00 WtEn= 0.00D+00
 Coeff-Com:  0.844D-03-0.951D-02-0.210D-02-0.129D+00 0.597D+00-0.461D+00
 Coeff-Com: -0.736D-03-0.305D+00 0.440D+00 0.870D+00
 Coeff:      0.844D-03-0.951D-02-0.210D-02-0.129D+00 0.597D+00-0.461D+00
 Coeff:     -0.736D-03-0.305D+00 0.440D+00 0.870D+00
 Gap=     0.095 Goal=   None    Shift=    0.000
 RMSDP=5.38D-06 MaxDP=1.84D-04 DE=-3.21D-07 OVMax= 1.40D-03

 Cycle  11  Pass 1  IDiag  1:
 E= -526.605747515812     Delta-E=       -0.000000069847 Rises=F Damp=F
 DIIS: error= 6.61D-06 at cycle  11 NSaved=  11.
 NSaved=11 IEnMin=11 EnMin= -526.605747515812     IErMin= 9 ErrMin= 5.80D-06
 ErrMax= 6.61D-06  0.00D+00 EMaxC= 1.00D-01 BMatC= 2.61D-09 BMatP= 7.00D-09
 IDIUse=1 WtCom= 1.00D+00 WtEn= 0.00D+00
 Coeff-Com: -0.679D-03 0.128D-01-0.386D-01-0.235D+00 0.264D+00-0.428D-01
 Coeff-Com:  0.111D+00-0.780D-01-0.346D+00 0.467D+00 0.885D+00
 Coeff:     -0.679D-03 0.128D-01-0.386D-01-0.235D+00 0.264D+00-0.428D-01
 Coeff:      0.111D+00-0.780D-01-0.346D+00 0.467D+00 0.885D+00
 Gap=     0.095 Goal=   None    Shift=    0.000
 RMSDP=2.36D-06 MaxDP=7.97D-05 DE=-6.98D-08 OVMax= 6.14D-04

 Cycle  12  Pass 1  IDiag  1:
 E= -526.605747525214     Delta-E=       -0.000000009402 Rises=F Damp=F
 DIIS: error= 7.55D-07 at cycle  12 NSaved=  12.
 NSaved=12 IEnMin=12 EnMin= -526.605747525214     IErMin=12 ErrMin= 7.55D-07
 ErrMax= 7.55D-07  0.00D+00 EMaxC= 1.00D-01 BMatC= 1.80D-10 BMatP= 2.61D-09
 IDIUse=1 WtCom= 1.00D+00 WtEn= 0.00D+00
 Coeff-Com: -0.521D-03 0.854D-02-0.194D-01-0.110D+00 0.469D-01 0.532D-01
 Coeff-Com:  0.609D-01 0.813D-02-0.255D+00 0.124D+00 0.460D+00 0.624D+00
 Coeff:     -0.521D-03 0.854D-02-0.194D-01-0.110D+00 0.469D-01 0.532D-01
 Coeff:      0.609D-01 0.813D-02-0.255D+00 0.124D+00 0.460D+00 0.624D+00
 Gap=     0.095 Goal=   None    Shift=    0.000
 RMSDP=2.42D-07 MaxDP=8.90D-06 DE=-9.40D-09 OVMax= 5.93D-05

 Cycle  13  Pass 1  IDiag  1:
 E= -526.605747525510     Delta-E=       -0.000000000296 Rises=F Damp=F
 DIIS: error= 4.32D-07 at cycle  13 NSaved=  13.
 NSaved=13 IEnMin=13 EnMin= -526.605747525510     IErMin=13 ErrMin= 4.32D-07
 ErrMax= 4.32D-07  0.00D+00 EMaxC= 1.00D-01 BMatC= 2.61D-11 BMatP= 1.80D-10
 IDIUse=1 WtCom= 1.00D+00 WtEn= 0.00D+00
 Coeff-Com: -0.107D-03 0.136D-02-0.163D-02-0.738D-02-0.194D-01 0.259D-01
 Coeff-Com:  0.612D-02 0.177D-01-0.497D-01-0.291D-01 0.382D-01 0.244D+00
 Coeff-Com:  0.775D+00
 Coeff:     -0.107D-03 0.136D-02-0.163D-02-0.738D-02-0.194D-01 0.259D-01
 Coeff:      0.612D-02 0.177D-01-0.497D-01-0.291D-01 0.382D-01 0.244D+00
 Coeff:      0.775D+00
 Gap=     0.095 Goal=   None    Shift=    0.000
 RMSDP=5.29D-08 MaxDP=1.88D-06 DE=-2.96D-10 OVMax= 1.10D-05

 Cycle  14  Pass 1  IDiag  1:
 E= -526.605747525567     Delta-E=       -0.000000000057 Rises=F Damp=F
 DIIS: error= 5.41D-07 at cycle  14 NSaved=  14.
 NSaved=14 IEnMin=14 EnMin= -526.605747525567     IErMin=13 ErrMin= 4.32D-07
 ErrMax= 5.41D-07  0.00D+00 EMaxC= 1.00D-01 BMatC= 1.46D-11 BMatP= 2.61D-11
 IDIUse=1 WtCom= 1.00D+00 WtEn= 0.00D+00
 Coeff-Com:  0.542D-04-0.105D-02 0.327D-02 0.127D-01 0.530D-03-0.139D-01
 Coeff-Com: -0.789D-02 0.419D-02 0.268D-01-0.217D-01-0.483D-01-0.450D-01
 Coeff-Com:  0.878D-01 0.100D+01
 Coeff:      0.542D-04-0.105D-02 0.327D-02 0.127D-01 0.530D-03-0.139D-01
 Coeff:     -0.789D-02 0.419D-02 0.268D-01-0.217D-01-0.483D-01-0.450D-01
 Coeff:      0.878D-01 0.100D+01
 Gap=     0.095 Goal=   None    Shift=    0.000
 RMSDP=4.90D-08 MaxDP=1.80D-06 DE=-5.66D-11 OVMax= 1.21D-05

 Cycle  15  Pass 1  IDiag  1:
 E= -526.605747525667     Delta-E=       -0.000000000100 Rises=F Damp=F
 DIIS: error= 2.48D-07 at cycle  15 NSaved=  15.
 NSaved=15 IEnMin=15 EnMin= -526.605747525667     IErMin=15 ErrMin= 2.48D-07
 ErrMax= 2.48D-07  0.00D+00 EMaxC= 1.00D-01 BMatC= 2.92D-12 BMatP= 1.46D-11
 IDIUse=1 WtCom= 1.00D+00 WtEn= 0.00D+00
 Coeff-Com: -0.620D-05 0.365D-03-0.192D-02-0.857D-02 0.609D-02 0.326D-02
 Coeff-Com:  0.443D-02-0.107D-01-0.216D-02 0.283D-01 0.218D-01-0.531D-01
 Coeff-Com: -0.334D+00-0.718D+00 0.206D+01
 Coeff:     -0.620D-05 0.365D-03-0.192D-02-0.857D-02 0.609D-02 0.326D-02
 Coeff:      0.443D-02-0.107D-01-0.216D-02 0.283D-01 0.218D-01-0.531D-01
 Coeff:     -0.334D+00-0.718D+00 0.206D+01
 Gap=     0.095 Goal=   None    Shift=    0.000
 RMSDP=9.31D-08 MaxDP=3.32D-06 DE=-1.00D-10 OVMax= 2.44D-05

 Cycle  16  Pass 1  IDiag  1:
 E= -526.605747525773     Delta-E=       -0.000000000106 Rises=F Damp=F
 DIIS: error= 2.25D-07 at cycle  16 NSaved=  16.
 NSaved=16 IEnMin=16 EnMin= -526.605747525773     IErMin=16 ErrMin= 2.25D-07
 ErrMax= 2.25D-07  0.00D+00 EMaxC= 1.00D-01 BMatC= 4.15D-12 BMatP= 2.92D-12
 IDIUse=1 WtCom= 1.00D+00 WtEn= 0.00D+00
 Coeff-Com: -0.586D-04 0.143D-02-0.532D-02-0.192D-01-0.278D-02 0.253D-01
 Coeff-Com:  0.117D-01-0.142D-01-0.333D-01 0.437D-01 0.691D-01 0.269D-01
 Coeff-Com: -0.292D+00-0.174D+01 0.152D+01 0.141D+01
 Coeff:     -0.586D-04 0.143D-02-0.532D-02-0.192D-01-0.278D-02 0.253D-01
 Coeff:      0.117D-01-0.142D-01-0.333D-01 0.437D-01 0.691D-01 0.269D-01
 Coeff:     -0.292D+00-0.174D+01 0.152D+01 0.141D+01
 Gap=     0.095 Goal=   None    Shift=    0.000
 RMSDP=1.46D-07 MaxDP=5.19D-06 DE=-1.06D-10 OVMax= 3.82D-05

 Cycle  17  Pass 1  IDiag  1:
 E= -526.605747525894     Delta-E=       -0.000000000120 Rises=F Damp=F
 DIIS: error= 1.08D-07 at cycle  17 NSaved=  17.
 NSaved=17 IEnMin=17 EnMin= -526.605747525894     IErMin=17 ErrMin= 1.08D-07
 ErrMax= 1.08D-07  0.00D+00 EMaxC= 1.00D-01 BMatC= 7.27D-13 BMatP= 2.92D-12
 IDIUse=1 WtCom= 1.00D+00 WtEn= 0.00D+00
 Coeff-Com: -0.205D-04 0.304D-03-0.631D-03-0.170D-02-0.416D-02 0.575D-02
 Coeff-Com:  0.216D-02 0.211D-02-0.112D-01-0.406D-02 0.119D-01 0.461D-01
 Coeff-Com:  0.129D+00-0.851D-01-0.103D+01 0.515D+00 0.143D+01
 Coeff:     -0.205D-04 0.304D-03-0.631D-03-0.170D-02-0.416D-02 0.575D-02
 Coeff:      0.216D-02 0.211D-02-0.112D-01-0.406D-02 0.119D-01 0.461D-01
 Coeff:      0.129D+00-0.851D-01-0.103D+01 0.515D+00 0.143D+01
 Gap=     0.095 Goal=   None    Shift=    0.000
 RMSDP=1.42D-07 MaxDP=5.29D-06 DE=-1.20D-10 OVMax= 3.71D-05

 Cycle  18  Pass 1  IDiag  1:
 E= -526.605747525960     Delta-E=       -0.000000000066 Rises=F Damp=F
 DIIS: error= 1.37D-07 at cycle  18 NSaved=  18.
 NSaved=18 IEnMin=18 EnMin= -526.605747525960     IErMin=17 ErrMin= 1.08D-07
 ErrMax= 1.37D-07  0.00D+00 EMaxC= 1.00D-01 BMatC= 9.64D-13 BMatP= 7.27D-13
 IDIUse=1 WtCom= 1.00D+00 WtEn= 0.00D+00
 Coeff-Com:  0.343D-05-0.234D-03 0.124D-02 0.357D-02 0.141D-02-0.717D-02
 Coeff-Com: -0.157D-02 0.473D-02 0.616D-02-0.102D-01-0.143D-01-0.479D-02
 Coeff-Com:  0.600D-01 0.354D+00-0.433D+00-0.211D+00 0.184D+00 0.107D+01
 Coeff:      0.343D-05-0.234D-03 0.124D-02 0.357D-02 0.141D-02-0.717D-02
 Coeff:     -0.157D-02 0.473D-02 0.616D-02-0.102D-01-0.143D-01-0.479D-02
 Coeff:      0.600D-01 0.354D+00-0.433D+00-0.211D+00 0.184D+00 0.107D+01
 Gap=     0.095 Goal=   None    Shift=    0.000
 RMSDP=3.30D-08 MaxDP=1.21D-06 DE=-6.64D-11 OVMax= 8.50D-06

 Cycle  19  Pass 1  IDiag  1:
 E= -526.605747525948     Delta-E=        0.000000000012 Rises=F Damp=F
 DIIS: error= 5.89D-08 at cycle  19 NSaved=  19.
 NSaved=19 IEnMin=18 EnMin= -526.605747525960     IErMin=19 ErrMin= 5.89D-08
 ErrMax= 5.89D-08  0.00D+00 EMaxC= 1.00D-01 BMatC= 1.85D-13 BMatP= 7.27D-13
 IDIUse=1 WtCom= 1.00D+00 WtEn= 0.00D+00
 Coeff-Com:  0.426D-05-0.696D-04 0.945D-04 0.794D-03 0.288D-03-0.712D-03
 Coeff-Com: -0.809D-03 0.809D-04 0.164D-02-0.347D-03-0.274D-02-0.489D-02
 Coeff-Com: -0.581D-02 0.662D-01 0.103D+00-0.127D+00-0.216D+00 0.187D+00
 Coeff-Com:  0.100D+01
 Coeff:      0.426D-05-0.696D-04 0.945D-04 0.794D-03 0.288D-03-0.712D-03
 Coeff:     -0.809D-03 0.809D-04 0.164D-02-0.347D-03-0.274D-02-0.489D-02
 Coeff:     -0.581D-02 0.662D-01 0.103D+00-0.127D+00-0.216D+00 0.187D+00
 Coeff:      0.100D+01
 Gap=     0.095 Goal=   None    Shift=    0.000
 RMSDP=6.49D-09 MaxDP=2.08D-07 DE= 1.21D-11 OVMax= 1.56D-06

 SCF Done:  E(RM062X) =  -526.605747526     A.U. after   19 cycles
            NFock= 19  Conv=0.65D-08     -V/T= 2.0035
 KE= 5.247636634834D+02 PE=-1.854396940039D+03 EE= 4.991493047108D+02
 Leave Link  502 at Sun May 25 04:04:30 2025, MaxMem=  3758096384 cpu:              62.9 elap:              12.3
 (Enter /apps/easybuild-2022/easybuild/software/Compiler/NVHPC/22.11-CUDA-11.7.0/Gaussian/g16c01-CUDA-11.7.0/g16/l508.exe)
 QCSCF skips out because SCF is already converged.
 Leave Link  508 at Sun May 25 04:04:30 2025, MaxMem=  3758096384 cpu:               0.0 elap:               0.0
 (Enter /apps/easybuild-2022/easybuild/software/Compiler/NVHPC/22.11-CUDA-11.7.0/Gaussian/g16c01-CUDA-11.7.0/g16/l801.exe)
 DoSCS=F DFT=T ScalE2(SS,OS)=  1.000000  1.000000
 Range of M.O.s used for correlation:     1   231
 NBasis=   231 NAE=    28 NBE=    28 NFC=     0 NFV=     0
 NROrb=    231 NOA=    28 NOB=    28 NVA=   203 NVB=   203

 **** Warning!!: The largest alpha MO coefficient is  0.18637533D+02


 **** Warning!!: The smallest alpha delta epsilon is  0.95320238D-01

 Leave Link  801 at Sun May 25 04:04:30 2025, MaxMem=  3758096384 cpu:               0.1 elap:               0.0
 (Enter /apps/easybuild-2022/easybuild/software/Compiler/NVHPC/22.11-CUDA-11.7.0/Gaussian/g16c01-CUDA-11.7.0/g16/l1101.exe)
 Leave Link 1101 at Sun May 25 04:04:30 2025, MaxMem=  3758096384 cpu:               0.1 elap:               0.0
 (Enter /apps/easybuild-2022/easybuild/software/Compiler/NVHPC/22.11-CUDA-11.7.0/Gaussian/g16c01-CUDA-11.7.0/g16/l1102.exe)
 Symmetrizing basis deriv contribution to polar:
 IMax=3 JMax=2 DiffMx= 0.00D+00
 Leave Link 1102 at Sun May 25 04:04:30 2025, MaxMem=  3758096384 cpu:               0.0 elap:               0.0
 (Enter /apps/easybuild-2022/easybuild/software/Compiler/NVHPC/22.11-CUDA-11.7.0/Gaussian/g16c01-CUDA-11.7.0/g16/l1110.exe)
 Leave Link 1110 at Sun May 25 04:04:30 2025, MaxMem=  3758096384 cpu:               0.1 elap:               0.0
 (Enter /apps/easybuild-2022/easybuild/software/Compiler/NVHPC/22.11-CUDA-11.7.0/Gaussian/g16c01-CUDA-11.7.0/g16/l1002.exe)
 Minotr:  Closed shell wavefunction.
 Leave Link 1002 at Sun May 25 04:04:30 2025, MaxMem=  3758096384 cpu:               0.1 elap:               0.0
 (Enter /apps/easybuild-2022/easybuild/software/Compiler/NVHPC/22.11-CUDA-11.7.0/Gaussian/g16c01-CUDA-11.7.0/g16/l701.exe)
 ... and contract with generalized density number  0.
 Compute integral first derivatives.
   1 Symmetry operations used in ECPInt.
 ECPInt:  NShTT=    3486 NPrTT=   11183 LenC2=    3291 LenP2D=    8220.
 LDataN:  DoStor=T MaxTD1= 7 Len=  274
 Leave Link  701 at Sun May 25 04:04:30 2025, MaxMem=  3758096384 cpu:               0.8 elap:               0.2
 (Enter /apps/easybuild-2022/easybuild/software/Compiler/NVHPC/22.11-CUDA-11.7.0/Gaussian/g16c01-CUDA-11.7.0/g16/l702.exe)
 L702 exits ... SP integral derivatives will be done elsewhere.
 Leave Link  702 at Sun May 25 04:04:30 2025, MaxMem=  3758096384 cpu:               0.1 elap:               0.0
 (Enter /apps/easybuild-2022/easybuild/software/Compiler/NVHPC/22.11-CUDA-11.7.0/Gaussian/g16c01-CUDA-11.7.0/g16/l703.exe)
 Integral derivatives from FoFJK, PRISM(SPDF).
 Compute integral first derivatives, UseDBF=F ICtDFT=           0.
 Calling FoFJK, ICntrl=      2127 FMM=F ISym2X=0 I1Cent= 0 IOpClX= 0 NMat=1 NMatS=1 NMatT=0.
 FoFJK:  IHMeth= 1 ICntrl=    2127 DoSepK=F KAlg= 0 I1Cent=           0 FoldK=F
 IRaf=         0 NMat=       1 IRICut=       1 DoRegI=T DoRafI=F ISym2E= 0 IDoP0=0 IntGTp=1.
 FoFCou: FMM=F IPFlag=           0 FMFlag=      100000 FMFlg1=         800
         NFxFlg=           0 DoJE=F BraDBF=F KetDBF=F FulRan=T
         wScrn=  0.000000 ICntrl=      2127 IOpCl=  0 I1Cent=           0 NGrid=           0
         NMat0=    1 NMatS0=      1 NMatT0=    0 NMatD0=    1 NMtDS0=    0 NMtDT0=    0
 Symmetry not used in FoFCou.
 Leave Link  703 at Sun May 25 04:04:33 2025, MaxMem=  3758096384 cpu:              19.7 elap:               2.6
 (Enter /apps/easybuild-2022/easybuild/software/Compiler/NVHPC/22.11-CUDA-11.7.0/Gaussian/g16c01-CUDA-11.7.0/g16/l716.exe)
 Dipole        = 3.16442340D+00-1.84140510D+00 9.43871701D-01
 Polarizability= 0.00000000D+00 0.00000000D+00 0.00000000D+00
                 0.00000000D+00 0.00000000D+00 0.00000000D+00
 -------------------------------------------------------------------
 Center     Atomic                   Forces (Hartrees/Bohr)
 Number     Number              X              Y              Z
 -------------------------------------------------------------------
      1        6          -0.000038162    0.000030481    0.000148178
      2        8          -0.000004647    0.000007971    0.000029136
      3        6           0.000169288    0.000113854   -0.000168032
      4        9          -0.000069407   -0.000414826   -0.000862029
      5        9           0.000018391    0.000159164    0.000435043
      6        9          -0.000066032    0.000081706    0.000342996
      7        8          -0.000008395    0.000021814    0.000074972
      8        1          -0.000001036   -0.000000165   -0.000000265
 -------------------------------------------------------------------
 Cartesian Forces:  Max     0.000862029 RMS     0.000238477
 Leave Link  716 at Sun May 25 04:04:33 2025, MaxMem=  3758096384 cpu:               0.1 elap:               0.0
 (Enter /apps/easybuild-2022/easybuild/software/Compiler/NVHPC/22.11-CUDA-11.7.0/Gaussian/g16c01-CUDA-11.7.0/g16/l123.exe)
 IRC-IRC-IRC-IRC-IRC-IRC-IRC-IRC-IRC-IRC-IRC-IRC-IRC-IRC-IRC-IRC-IRC-IRC
 Pt  1 Step number   1 out of a maximum of  20
 Using modified Bulirsch-Stoer corrector integration.
   Using distance weighted interpolants to fit PES.
 PreDWI: IReCr0= 2 IReCr1= 1 IReCr2= 1 IReCr3= 1
 Modified Bulirsch-Stoer Extrapolation Cycles:
    EPS =    0.000010000000000
    Cycle     1 NS=    48
      PEZero:  N= 2 I= 1 D=  2.26D-04 Err=  2.23D-02
    Cycle     2 NS=    64 Truncation Error =  0.022303607
      PEZero:  N= 3 I= 2 D=  2.26D-04 Err=  4.74D-03
      PEZero:  N= 3 I= 1 D=  4.51D-04 Err=  1.52D-02
    Cycle     3 NS=    96 Truncation Error =  0.004744890
      PEZero:  N= 4 I= 3 D=  1.13D-04 Err=  3.05D-04
      PEZero:  N= 4 I= 2 D=  3.38D-04 Err=  4.34D-03
    Cycle     4 NS=   128 Truncation Error =  0.000305016
      PEZero:  N= 5 I= 4 D=  1.13D-04 Err=  2.03D-04
      PEZero:  N= 5 I= 3 D=  2.26D-04 Err=  4.25D-07
      PEZero:  N= 5 I= 2 D=  4.51D-04 Err=  2.37D-03
    Cycle     5 NS=   192 Truncation Error =  0.000000425
 BS completed in    5 cycles and     528 integration steps.
 Maximum DWI energy   std dev =  0.000000036 at pt    37
 Maximum DWI gradient std dev =  0.018753042 at pt     5
 SUMMARY OF CORRECTOR INTEGRATION:
   Predictor End Point Energy =  -526.605748
   Old End Point Energy       =  -526.605748
   Corrected End Point Energy =  -526.605748
   Predictor End-Start Dist.  =     0.086630
   Old End-Start Dist.        =     0.086630
   New End-Start Dist.        =     0.084864
   New End-Old End Dist.      =     0.014147
 CORRECTOR INTEGRATION CONVERGENCE:
   Recorrection delta-x convergence threshold:    0.010000
   Delta-x Convergence NOT Met
 IRC-IRC-IRC-IRC-IRC-IRC-IRC-IRC-IRC-IRC-IRC-IRC-IRC-IRC-IRC-IRC-IRC-IRC
 Leave Link  123 at Sun May 25 04:04:33 2025, MaxMem=  3758096384 cpu:               0.2 elap:               0.1
 (Enter /apps/easybuild-2022/easybuild/software/Compiler/NVHPC/22.11-CUDA-11.7.0/Gaussian/g16c01-CUDA-11.7.0/g16/l202.exe)
                          Input orientation:                          
 ---------------------------------------------------------------------
 Center     Atomic      Atomic             Coordinates (Angstroms)
 Number     Number       Type             X           Y           Z
 ---------------------------------------------------------------------
      1          6           0        1.324302   -0.239361    0.281111
      2          8           0        2.058470   -1.119292    0.601057
      3          6           0       -0.146656   -0.514224    0.088838
      4          9           0       -0.963730    0.337386   -0.247118
      5          9           0       -2.400180    1.838158   -0.813769
      6          9           0       -0.570601   -1.687909    0.278499
      7          8           0        1.572754    1.029207    0.040582
      8          1           0        2.516862    1.210146    0.160523
 ---------------------------------------------------------------------
                    Distance matrix (angstroms):
                    1          2          3          4          5
     1  C    0.000000
     2  O    1.189809   0.000000
     3  C    1.508721   2.343301   0.000000
     4  F    2.418007   3.460492   1.227076   0.000000
     5  F    4.403023   5.534239   3.380350   2.153322   0.000000
     6  F    2.385153   2.709129   1.262234   2.129001   4.119897
     7  O    1.314856   2.272905   2.311034   2.644833   4.143491
     8  H    1.880907   2.414637   3.173787   3.611427   5.051826
                    6          7          8
     6  F    0.000000
     7  O    3.468903   0.000000
     8  H    4.236162   0.968744   0.000000
 Symmetry turned off by external request.
 Stoichiometry    C2HF3O2
 Rotational constants (GHZ):           4.2475463           1.5121426           1.1151532
 Leave Link  202 at Sun May 25 04:04:33 2025, MaxMem=  3758096384 cpu:               0.1 elap:               0.0
 (Enter /apps/easybuild-2022/easybuild/software/Compiler/NVHPC/22.11-CUDA-11.7.0/Gaussian/g16c01-CUDA-11.7.0/g16/l301.exe)
 Standard basis: def2TZVPP (5D, 7F)
 Ernie: Thresh=  0.10000D-02 Tol=  0.10000D-05 Strict=F.
   231 basis functions,   374 primitive gaussians,   267 cartesian basis functions
    28 alpha electrons       28 beta electrons
       nuclear repulsion energy       303.8760390063 Hartrees.
 IExCor= 4336 DFT=T Ex+Corr=M062X ExCW=0 ScaHFX=  0.540000
 ScaDFX=  1.000000  1.000000  1.000000  1.000000 ScalE2=  1.000000  1.000000
 IRadAn=      5 IRanWt=     -1 IRanGd=            0 ICorTp=0 IEmpDi=  4
 NAtoms=    8 NActive=    8 NUniq=    8 SFac= 1.00D+00 NAtFMM=   60 NAOKFM=F Big=F
 Integral buffers will be    131072 words long.
 Raffenetti 2 integral format.
 Two-electron integral symmetry is turned off.
 Leave Link  301 at Sun May 25 04:04:33 2025, MaxMem=  3758096384 cpu:               0.1 elap:               0.0
 (Enter /apps/easybuild-2022/easybuild/software/Compiler/NVHPC/22.11-CUDA-11.7.0/Gaussian/g16c01-CUDA-11.7.0/g16/l302.exe)
 NPDir=0 NMtPBC=     1 NCelOv=     1 NCel=       1 NClECP=     1 NCelD=      1
         NCelK=      1 NCelE2=     1 NClLst=     1 CellRange=     0.0.
 One-electron integrals computed using PRISM.
   1 Symmetry operations used in ECPInt.
 ECPInt:  NShTT=    3486 NPrTT=   11183 LenC2=    3291 LenP2D=    8220.
 LDataN:  DoStor=T MaxTD1= 6 Len=  172
 NBasis=   231 RedAO= T EigKep=  4.00D-04  NBF=   231
 NBsUse=   231 1.00D-06 EigRej= -1.00D+00 NBFU=   231
 Precomputing XC quadrature grid using
 IXCGrd= 4 IRadAn=           5 IRanWt=          -1 IRanGd=           0 AccXCQ= 0.00D+00.
 Generated NRdTot=       0 NPtTot=           0 NUsed=           0 NTot=          32
 NSgBfM=   264   264   264   264   264 MxSgAt=     8 MxSgA2=     8.
 Leave Link  302 at Sun May 25 04:04:33 2025, MaxMem=  3758096384 cpu:               0.7 elap:               0.2
 (Enter /apps/easybuild-2022/easybuild/software/Compiler/NVHPC/22.11-CUDA-11.7.0/Gaussian/g16c01-CUDA-11.7.0/g16/l303.exe)
 DipDrv:  MaxL=1.
 Leave Link  303 at Sun May 25 04:04:33 2025, MaxMem=  3758096384 cpu:               0.1 elap:               0.0
 (Enter /apps/easybuild-2022/easybuild/software/Compiler/NVHPC/22.11-CUDA-11.7.0/Gaussian/g16c01-CUDA-11.7.0/g16/l401.exe)
 Initial guess from the checkpoint file:  "1141903082400600000001_r12_insertion_R_4_3_5_IRC_F.chk"
 B after Tr=     0.000001    0.000009   -0.000002
         Rot=    1.000000   -0.000005    0.000004   -0.000003 Ang=  -0.00 deg.
 Guess basis will be translated and rotated to current coordinates.
 JPrj=2 DoOrth=T DoCkMO=T.
 Generating alternative initial guess.
 ExpMin= 9.52D-02 ExpMax= 3.55D+04 ExpMxC= 1.21D+03 IAcc=3 IRadAn=         5 AccDes= 0.00D+00
 Harris functional with IExCor= 1009 and IRadAn=       5 diagonalized for initial guess.
 HarFok:  IExCor= 1009 AccDes= 0.00D+00 IRadAn=         5 IDoV= 1 UseB2=F ITyADJ=14
 ICtDFT=  3500011 ScaDFX=  1.000000  1.000000  1.000000  1.000000
 FoFCou: FMM=F IPFlag=           0 FMFlag=      100000 FMFlg1=           0
         NFxFlg=           0 DoJE=T BraDBF=F KetDBF=T FulRan=T
         wScrn=  0.000000 ICntrl=       500 IOpCl=  0 I1Cent=   200000004 NGrid=           0
         NMat0=    1 NMatS0=      1 NMatT0=    0 NMatD0=    1 NMtDS0=    0 NMtDT0=    0
 Symmetry not used in FoFCou.
 Harris En= -526.502701015772    
 Leave Link  401 at Sun May 25 04:04:34 2025, MaxMem=  3758096384 cpu:               2.0 elap:               0.4
 (Enter /apps/easybuild-2022/easybuild/software/Compiler/NVHPC/22.11-CUDA-11.7.0/Gaussian/g16c01-CUDA-11.7.0/g16/l502.exe)
 Keep R1 ints in memory in canonical form, NReq=368651263.
 FoFCou: FMM=F IPFlag=           0 FMFlag=           0 FMFlg1=           0
         NFxFlg=           0 DoJE=F BraDBF=F KetDBF=F FulRan=T
         wScrn=  0.000000 ICntrl=       600 IOpCl=  0 I1Cent=           0 NGrid=           0
         NMat0=    1 NMatS0=  26796 NMatT0=    0 NMatD0=    1 NMtDS0=    0 NMtDT0=    0
 Symmetry not used in FoFCou.
 Two-electron integral symmetry not used.
 Closed shell SCF:
 Using DIIS extrapolation, IDIIS=  1040.
 NGot=  3758096384 LenX=  3398923547 LenY=  3398851817
 Requested convergence on RMS density matrix=1.00D-08 within  32 cycles.
 Requested convergence on MAX density matrix=1.00D-06.
 Requested convergence on             energy=1.00D-06.
 No special actions if energy rises.
 Integral accuracy reduced to 1.0D-05 until final iterations.

 Cycle   1  Pass 0  IDiag  1:
 E= -526.605746720514    
 DIIS: error= 5.94D-05 at cycle   1 NSaved=   1.
 NSaved= 1 IEnMin= 1 EnMin= -526.605746720514     IErMin= 1 ErrMin= 5.94D-05
 ErrMax= 5.94D-05  0.00D+00 EMaxC= 1.00D-01 BMatC= 1.74D-06 BMatP= 1.74D-06
 IDIUse=1 WtCom= 1.00D+00 WtEn= 0.00D+00
 Coeff-Com:  0.100D+01
 Coeff:      0.100D+01
 Gap=     0.906 Goal=   None    Shift=    0.000
 RMSDP=1.17D-05 MaxDP=2.63D-04              OVMax= 2.60D-04

 Cycle   2  Pass 0  IDiag  1:
 E= -526.605748520152     Delta-E=       -0.000001799638 Rises=F Damp=F
 DIIS: error= 3.70D-05 at cycle   2 NSaved=   2.
 NSaved= 2 IEnMin= 2 EnMin= -526.605748520152     IErMin= 2 ErrMin= 3.70D-05
 ErrMax= 3.70D-05  0.00D+00 EMaxC= 1.00D-01 BMatC= 8.51D-08 BMatP= 1.74D-06
 IDIUse=1 WtCom= 1.00D+00 WtEn= 0.00D+00
 Coeff-Com: -0.668D-01 0.107D+01
 Coeff:     -0.668D-01 0.107D+01
 Gap=     0.095 Goal=   None    Shift=    0.000
 RMSDP=4.11D-06 MaxDP=2.06D-04 DE=-1.80D-06 OVMax= 9.53D-04

 Initial convergence to 1.0D-05 achieved.  Increase integral accuracy.
 Cycle   3  Pass 1  IDiag  1:
 E= -526.605746658541     Delta-E=        0.000001861611 Rises=F Damp=F
 DIIS: error= 1.10D-04 at cycle   1 NSaved=   1.
 NSaved= 1 IEnMin= 1 EnMin= -526.605746658541     IErMin= 1 ErrMin= 1.10D-04
 ErrMax= 1.10D-04  0.00D+00 EMaxC= 1.00D-01 BMatC= 1.08D-06 BMatP= 1.08D-06
 IDIUse=3 WtCom= 9.99D-01 WtEn= 1.10D-03
 Coeff-Com:  0.100D+01
 Coeff-En:   0.100D+01
 Coeff:      0.100D+01
 Gap=     0.095 Goal=   None    Shift=    0.000
 RMSDP=4.11D-06 MaxDP=2.06D-04 DE= 1.86D-06 OVMax= 3.59D-03

 Cycle   4  Pass 1  IDiag  1:
 E= -526.605737907914     Delta-E=        0.000008750627 Rises=F Damp=F
 DIIS: error= 5.06D-04 at cycle   2 NSaved=   2.
 NSaved= 2 IEnMin= 1 EnMin= -526.605746658541     IErMin= 1 ErrMin= 1.10D-04
 ErrMax= 5.06D-04  0.00D+00 EMaxC= 1.00D-01 BMatC= 1.12D-05 BMatP= 1.08D-06
 IDIUse=3 WtCom= 3.08D-01 WtEn= 6.92D-01
 Coeff-Com:  0.790D+00 0.210D+00
 Coeff-En:   0.862D+00 0.138D+00
 Coeff:      0.840D+00 0.160D+00
 Gap=     0.095 Goal=   None    Shift=    0.000
 RMSDP=8.90D-06 MaxDP=4.37D-04 DE= 8.75D-06 OVMax= 2.21D-03

 Cycle   5  Pass 1  IDiag  1:
 E= -526.605747309686     Delta-E=       -0.000009401772 Rises=F Damp=F
 DIIS: error= 1.00D-04 at cycle   3 NSaved=   3.
 NSaved= 3 IEnMin= 3 EnMin= -526.605747309686     IErMin= 3 ErrMin= 1.00D-04
 ErrMax= 1.00D-04  0.00D+00 EMaxC= 1.00D-01 BMatC= 4.25D-07 BMatP= 1.08D-06
 IDIUse=3 WtCom= 9.99D-01 WtEn= 1.00D-03
 Coeff-Com: -0.469D-01-0.265D+00 0.131D+01
 Coeff-En:   0.270D+00 0.000D+00 0.730D+00
 Coeff:     -0.465D-01-0.264D+00 0.131D+01
 Gap=     0.095 Goal=   None    Shift=    0.000
 RMSDP=1.91D-06 MaxDP=7.31D-05 DE=-9.40D-06 OVMax= 3.74D-04

 Cycle   6  Pass 1  IDiag  1:
 E= -526.605747659957     Delta-E=       -0.000000350271 Rises=F Damp=F
 DIIS: error= 1.67D-05 at cycle   4 NSaved=   4.
 NSaved= 4 IEnMin= 4 EnMin= -526.605747659957     IErMin= 4 ErrMin= 1.67D-05
 ErrMax= 1.67D-05  0.00D+00 EMaxC= 1.00D-01 BMatC= 1.21D-08 BMatP= 4.25D-07
 IDIUse=1 WtCom= 1.00D+00 WtEn= 0.00D+00
 Coeff-Com: -0.187D-01-0.870D-01 0.298D+00 0.807D+00
 Coeff:     -0.187D-01-0.870D-01 0.298D+00 0.807D+00
 Gap=     0.095 Goal=   None    Shift=    0.000
 RMSDP=3.64D-07 MaxDP=8.87D-06 DE=-3.50D-07 OVMax= 6.00D-05

 Cycle   7  Pass 1  IDiag  1:
 E= -526.605747669307     Delta-E=       -0.000000009350 Rises=F Damp=F
 DIIS: error= 7.91D-06 at cycle   5 NSaved=   5.
 NSaved= 5 IEnMin= 5 EnMin= -526.605747669307     IErMin= 5 ErrMin= 7.91D-06
 ErrMax= 7.91D-06  0.00D+00 EMaxC= 1.00D-01 BMatC= 3.38D-09 BMatP= 1.21D-08
 IDIUse=1 WtCom= 1.00D+00 WtEn= 0.00D+00
 Coeff-Com: -0.820D-03-0.883D-02-0.762D-01 0.479D+00 0.607D+00
 Coeff:     -0.820D-03-0.883D-02-0.762D-01 0.479D+00 0.607D+00
 Gap=     0.095 Goal=   None    Shift=    0.000
 RMSDP=2.53D-07 MaxDP=7.74D-06 DE=-9.35D-09 OVMax= 5.24D-05

 Cycle   8  Pass 1  IDiag  1:
 E= -526.605747673365     Delta-E=       -0.000000004058 Rises=F Damp=F
 DIIS: error= 2.47D-06 at cycle   6 NSaved=   6.
 NSaved= 6 IEnMin= 6 EnMin= -526.605747673365     IErMin= 6 ErrMin= 2.47D-06
 ErrMax= 2.47D-06  0.00D+00 EMaxC= 1.00D-01 BMatC= 4.47D-10 BMatP= 3.38D-09
 IDIUse=1 WtCom= 1.00D+00 WtEn= 0.00D+00
 Coeff-Com:  0.147D-02 0.324D-02-0.671D-01 0.103D+00 0.239D+00 0.720D+00
 Coeff:      0.147D-02 0.324D-02-0.671D-01 0.103D+00 0.239D+00 0.720D+00
 Gap=     0.095 Goal=   None    Shift=    0.000
 RMSDP=2.09D-07 MaxDP=7.64D-06 DE=-4.06D-09 OVMax= 5.15D-05

 Cycle   9  Pass 1  IDiag  1:
 E= -526.605747675316     Delta-E=       -0.000000001952 Rises=F Damp=F
 DIIS: error= 9.21D-07 at cycle   7 NSaved=   7.
 NSaved= 7 IEnMin= 7 EnMin= -526.605747675316     IErMin= 7 ErrMin= 9.21D-07
 ErrMax= 9.21D-07  0.00D+00 EMaxC= 1.00D-01 BMatC= 1.32D-10 BMatP= 4.47D-10
 IDIUse=1 WtCom= 1.00D+00 WtEn= 0.00D+00
 Coeff-Com: -0.343D-03-0.137D-02 0.113D-01-0.657D-01-0.707D-01 0.233D+00
 Coeff-Com:  0.894D+00
 Coeff:     -0.343D-03-0.137D-02 0.113D-01-0.657D-01-0.707D-01 0.233D+00
 Coeff:      0.894D+00
 Gap=     0.095 Goal=   None    Shift=    0.000
 RMSDP=2.43D-07 MaxDP=9.29D-06 DE=-1.95D-09 OVMax= 6.25D-05

 Cycle  10  Pass 1  IDiag  1:
 E= -526.605747677268     Delta-E=       -0.000000001952 Rises=F Damp=F
 DIIS: error= 8.75D-07 at cycle   8 NSaved=   8.
 NSaved= 8 IEnMin= 8 EnMin= -526.605747677268     IErMin= 8 ErrMin= 8.75D-07
 ErrMax= 8.75D-07  0.00D+00 EMaxC= 1.00D-01 BMatC= 9.80D-11 BMatP= 1.32D-10
 IDIUse=1 WtCom= 1.00D+00 WtEn= 0.00D+00
 Coeff-Com: -0.314D-02-0.982D-02 0.845D-01-0.516D-01-0.209D+00-0.692D+00
 Coeff-Com:  0.205D+00 0.168D+01
 Coeff:     -0.314D-02-0.982D-02 0.845D-01-0.516D-01-0.209D+00-0.692D+00
 Coeff:      0.205D+00 0.168D+01
 Gap=     0.095 Goal=   None    Shift=    0.000
 RMSDP=5.43D-07 MaxDP=2.08D-05 DE=-1.95D-09 OVMax= 1.41D-04

 Cycle  11  Pass 1  IDiag  1:
 E= -526.605747681148     Delta-E=       -0.000000003880 Rises=F Damp=F
 DIIS: error= 7.46D-07 at cycle   9 NSaved=   9.
 NSaved= 9 IEnMin= 9 EnMin= -526.605747681148     IErMin= 9 ErrMin= 7.46D-07
 ErrMax= 7.46D-07  0.00D+00 EMaxC= 1.00D-01 BMatC= 7.21D-11 BMatP= 9.80D-11
 IDIUse=1 WtCom= 1.00D+00 WtEn= 0.00D+00
 Coeff-Com: -0.390D-02-0.108D-01 0.633D-01 0.101D+00-0.260D-01-0.925D+00
 Coeff-Com: -0.154D+01 0.105D+01 0.229D+01
 Coeff:     -0.390D-02-0.108D-01 0.633D-01 0.101D+00-0.260D-01-0.925D+00
 Coeff:     -0.154D+01 0.105D+01 0.229D+01
 Gap=     0.095 Goal=   None    Shift=    0.000
 RMSDP=1.46D-06 MaxDP=5.53D-05 DE=-3.88D-09 OVMax= 3.78D-04

 Cycle  12  Pass 1  IDiag  1:
 E= -526.605747688411     Delta-E=       -0.000000007262 Rises=F Damp=F
 DIIS: error= 5.59D-07 at cycle  10 NSaved=  10.
 NSaved=10 IEnMin=10 EnMin= -526.605747688411     IErMin=10 ErrMin= 5.59D-07
 ErrMax= 5.59D-07  0.00D+00 EMaxC= 1.00D-01 BMatC= 3.91D-11 BMatP= 7.21D-11
 IDIUse=1 WtCom= 1.00D+00 WtEn= 0.00D+00
 Coeff-Com:  0.198D-03 0.281D-02-0.325D-01 0.998D-01 0.159D+00 0.112D+00
 Coeff-Com: -0.855D+00-0.705D+00 0.904D+00 0.131D+01
 Coeff:      0.198D-03 0.281D-02-0.325D-01 0.998D-01 0.159D+00 0.112D+00
 Coeff:     -0.855D+00-0.705D+00 0.904D+00 0.131D+01
 Gap=     0.095 Goal=   None    Shift=    0.000
 RMSDP=1.15D-06 MaxDP=4.34D-05 DE=-7.26D-09 OVMax= 2.99D-04

 Cycle  13  Pass 1  IDiag  1:
 E= -526.605747690891     Delta-E=       -0.000000002480 Rises=F Damp=F
 DIIS: error= 4.25D-07 at cycle  11 NSaved=  11.
 NSaved=11 IEnMin=11 EnMin= -526.605747690891     IErMin=11 ErrMin= 4.25D-07
 ErrMax= 4.25D-07  0.00D+00 EMaxC= 1.00D-01 BMatC= 1.48D-11 BMatP= 3.91D-11
 IDIUse=1 WtCom= 1.00D+00 WtEn= 0.00D+00
 Coeff-Com:  0.903D-03 0.393D-02-0.312D-01 0.438D-01 0.105D+00 0.255D+00
 Coeff-Com: -0.147D+00-0.581D+00-0.285D-01 0.640D+00 0.740D+00
 Coeff:      0.903D-03 0.393D-02-0.312D-01 0.438D-01 0.105D+00 0.255D+00
 Coeff:     -0.147D+00-0.581D+00-0.285D-01 0.640D+00 0.740D+00
 Gap=     0.095 Goal=   None    Shift=    0.000
 RMSDP=3.02D-07 MaxDP=1.11D-05 DE=-2.48D-09 OVMax= 7.84D-05

 Cycle  14  Pass 1  IDiag  1:
 E= -526.605747691053     Delta-E=       -0.000000000163 Rises=F Damp=F
 DIIS: error= 7.19D-08 at cycle  12 NSaved=  12.
 NSaved=12 IEnMin=12 EnMin= -526.605747691053     IErMin=12 ErrMin= 7.19D-08
 ErrMax= 7.19D-08  0.00D+00 EMaxC= 1.00D-01 BMatC= 9.26D-13 BMatP= 1.48D-11
 IDIUse=1 WtCom= 1.00D+00 WtEn= 0.00D+00
 Coeff-Com:  0.108D-03 0.302D-03 0.277D-03-0.868D-02-0.843D-02 0.135D-01
 Coeff-Com:  0.125D+00 0.531D-01-0.188D+00-0.147D+00 0.183D+00 0.976D+00
 Coeff:      0.108D-03 0.302D-03 0.277D-03-0.868D-02-0.843D-02 0.135D-01
 Coeff:      0.125D+00 0.531D-01-0.188D+00-0.147D+00 0.183D+00 0.976D+00
 Gap=     0.095 Goal=   None    Shift=    0.000
 RMSDP=7.94D-08 MaxDP=2.68D-06 DE=-1.63D-10 OVMax= 2.07D-05

 Cycle  15  Pass 1  IDiag  1:
 E= -526.605747691076     Delta-E=       -0.000000000022 Rises=F Damp=F
 DIIS: error= 7.21D-08 at cycle  13 NSaved=  13.
 NSaved=13 IEnMin=13 EnMin= -526.605747691076     IErMin=12 ErrMin= 7.19D-08
 ErrMax= 7.21D-08  0.00D+00 EMaxC= 1.00D-01 BMatC= 4.77D-13 BMatP= 9.26D-13
 IDIUse=1 WtCom= 1.00D+00 WtEn= 0.00D+00
 Coeff-Com: -0.143D-03-0.735D-03 0.542D-02-0.839D-02-0.195D-01-0.442D-01
 Coeff-Com:  0.458D-01 0.108D+00-0.275D-01-0.126D+00-0.803D-01 0.149D+00
 Coeff-Com:  0.100D+01
 Coeff:     -0.143D-03-0.735D-03 0.542D-02-0.839D-02-0.195D-01-0.442D-01
 Coeff:      0.458D-01 0.108D+00-0.275D-01-0.126D+00-0.803D-01 0.149D+00
 Coeff:      0.100D+01
 Gap=     0.095 Goal=   None    Shift=    0.000
 RMSDP=1.96D-08 MaxDP=9.00D-07 DE=-2.21D-11 OVMax= 4.24D-06

 Cycle  16  Pass 1  IDiag  1:
 E= -526.605747691083     Delta-E=       -0.000000000008 Rises=F Damp=F
 DIIS: error= 6.38D-08 at cycle  14 NSaved=  14.
 NSaved=14 IEnMin=14 EnMin= -526.605747691083     IErMin=14 ErrMin= 6.38D-08
 ErrMax= 6.38D-08  0.00D+00 EMaxC= 1.00D-01 BMatC= 2.24D-13 BMatP= 4.77D-13
 IDIUse=1 WtCom= 1.00D+00 WtEn= 0.00D+00
 Coeff-Com: -0.448D-04-0.230D-03 0.434D-03 0.224D-02 0.301D-03-0.762D-02
 Coeff-Com: -0.357D-01-0.150D-01 0.641D-01 0.477D-01-0.708D-01-0.386D+00
 Coeff-Com: -0.284D-01 0.143D+01
 Coeff:     -0.448D-04-0.230D-03 0.434D-03 0.224D-02 0.301D-03-0.762D-02
 Coeff:     -0.357D-01-0.150D-01 0.641D-01 0.477D-01-0.708D-01-0.386D+00
 Coeff:     -0.284D-01 0.143D+01
 Gap=     0.095 Goal=   None    Shift=    0.000
 RMSDP=1.96D-08 MaxDP=8.72D-07 DE=-7.73D-12 OVMax= 4.75D-06

 Cycle  17  Pass 1  IDiag  1:
 E= -526.605747691095     Delta-E=       -0.000000000011 Rises=F Damp=F
 DIIS: error= 5.21D-08 at cycle  15 NSaved=  15.
 NSaved=15 IEnMin=15 EnMin= -526.605747691095     IErMin=15 ErrMin= 5.21D-08
 ErrMax= 5.21D-08  0.00D+00 EMaxC= 1.00D-01 BMatC= 1.32D-13 BMatP= 2.24D-13
 IDIUse=1 WtCom= 1.00D+00 WtEn= 0.00D+00
 Coeff-Com:  0.914D-04 0.479D-03-0.340D-02 0.503D-02 0.120D-01 0.264D-01
 Coeff-Com: -0.287D-01-0.609D-01 0.152D-01 0.758D-01 0.475D-01-0.105D+00
 Coeff-Com: -0.603D+00 0.596D-01 0.156D+01
 Coeff:      0.914D-04 0.479D-03-0.340D-02 0.503D-02 0.120D-01 0.264D-01
 Coeff:     -0.287D-01-0.609D-01 0.152D-01 0.758D-01 0.475D-01-0.105D+00
 Coeff:     -0.603D+00 0.596D-01 0.156D+01
 Gap=     0.095 Goal=   None    Shift=    0.000
 RMSDP=2.35D-08 MaxDP=9.31D-07 DE=-1.14D-11 OVMax= 6.11D-06

 Cycle  18  Pass 1  IDiag  1:
 E= -526.605747691089     Delta-E=        0.000000000006 Rises=F Damp=F
 DIIS: error= 3.78D-08 at cycle  16 NSaved=  16.
 NSaved=16 IEnMin=15 EnMin= -526.605747691095     IErMin=16 ErrMin= 3.78D-08
 ErrMax= 3.78D-08  0.00D+00 EMaxC= 1.00D-01 BMatC= 1.02D-13 BMatP= 1.32D-13
 IDIUse=1 WtCom= 1.00D+00 WtEn= 0.00D+00
 Coeff-Com:  0.766D-04 0.480D-03-0.180D-02 0.113D-03 0.572D-02 0.174D-01
 Coeff-Com:  0.195D-01-0.466D-02-0.566D-01-0.242D-01 0.880D-01 0.388D+00
 Coeff-Com: -0.207D+00-0.164D+01 0.719D+00 0.170D+01
 Coeff:      0.766D-04 0.480D-03-0.180D-02 0.113D-03 0.572D-02 0.174D-01
 Coeff:      0.195D-01-0.466D-02-0.566D-01-0.242D-01 0.880D-01 0.388D+00
 Coeff:     -0.207D+00-0.164D+01 0.719D+00 0.170D+01
 Gap=     0.095 Goal=   None    Shift=    0.000
 RMSDP=3.73D-08 MaxDP=1.50D-06 DE= 5.68D-12 OVMax= 9.66D-06

 Cycle  19  Pass 1  IDiag  1:
 E= -526.605747691112     Delta-E=       -0.000000000023 Rises=F Damp=F
 DIIS: error= 1.58D-08 at cycle  17 NSaved=  17.
 NSaved=17 IEnMin=17 EnMin= -526.605747691112     IErMin=17 ErrMin= 1.58D-08
 ErrMax= 1.58D-08  0.00D+00 EMaxC= 1.00D-01 BMatC= 3.26D-14 BMatP= 1.02D-13
 IDIUse=1 WtCom= 1.00D+00 WtEn= 0.00D+00
 Large coefficients: NSaved= 17 BigCof=    0.00 CofMax=   10.00 Det=-7.84D-15
 Inversion failed.  Reducing to 16 matrices.
 Large coefficients: NSaved= 16 BigCof=    0.00 CofMax=   10.00 Det=-8.46D-15
 Inversion failed.  Reducing to 15 matrices.
 Coeff-Com:  0.653D-03-0.178D-02-0.274D-02-0.510D-02 0.165D-01 0.206D-01
 Coeff-Com: -0.195D-01-0.412D-01 0.328D-03 0.178D+00 0.265D+00-0.589D+00
 Coeff-Com: -0.667D+00 0.625D+00 0.122D+01
 Coeff:      0.653D-03-0.178D-02-0.274D-02-0.510D-02 0.165D-01 0.206D-01
 Coeff:     -0.195D-01-0.412D-01 0.328D-03 0.178D+00 0.265D+00-0.589D+00
 Coeff:     -0.667D+00 0.625D+00 0.122D+01
 Gap=     0.095 Goal=   None    Shift=    0.000
 RMSDP=2.57D-08 MaxDP=1.11D-06 DE=-2.32D-11 OVMax= 6.43D-06

 Cycle  20  Pass 1  IDiag  1:
 E= -526.605747691114     Delta-E=       -0.000000000002 Rises=F Damp=F
 DIIS: error= 4.86D-09 at cycle  18 NSaved=  16.
 NSaved=16 IEnMin=16 EnMin= -526.605747691114     IErMin=16 ErrMin= 4.86D-09
 ErrMax= 4.86D-09  0.00D+00 EMaxC= 1.00D-01 BMatC= 1.65D-15 BMatP= 3.26D-14
 IDIUse=1 WtCom= 1.00D+00 WtEn= 0.00D+00
 Large coefficients: NSaved= 16 BigCof=    0.00 CofMax=   10.00 Det=-3.92D-15
 Inversion failed.  Reducing to 15 matrices.
 Coeff-Com: -0.331D-03-0.693D-03-0.673D-03-0.600D-04-0.429D-03 0.341D-02
 Coeff-Com: -0.105D-02-0.579D-02-0.748D-02 0.561D-01 0.597D-01-0.183D+00
 Coeff-Com: -0.588D-01 0.216D+00 0.923D+00
 Coeff:     -0.331D-03-0.693D-03-0.673D-03-0.600D-04-0.429D-03 0.341D-02
 Coeff:     -0.105D-02-0.579D-02-0.748D-02 0.561D-01 0.597D-01-0.183D+00
 Coeff:     -0.588D-01 0.216D+00 0.923D+00
 Gap=     0.095 Goal=   None    Shift=    0.000
 RMSDP=3.43D-09 MaxDP=1.63D-07 DE=-2.27D-12 OVMax= 7.00D-07

 SCF Done:  E(RM062X) =  -526.605747691     A.U. after   20 cycles
            NFock= 20  Conv=0.34D-08     -V/T= 2.0035
 KE= 5.247637618431D+02 PE=-1.854393031397D+03 EE= 4.991474828562D+02
 Leave Link  502 at Sun May 25 04:04:46 2025, MaxMem=  3758096384 cpu:              63.8 elap:              12.4
 (Enter /apps/easybuild-2022/easybuild/software/Compiler/NVHPC/22.11-CUDA-11.7.0/Gaussian/g16c01-CUDA-11.7.0/g16/l508.exe)
 QCSCF skips out because SCF is already converged.
 Leave Link  508 at Sun May 25 04:04:46 2025, MaxMem=  3758096384 cpu:               0.1 elap:               0.0
 (Enter /apps/easybuild-2022/easybuild/software/Compiler/NVHPC/22.11-CUDA-11.7.0/Gaussian/g16c01-CUDA-11.7.0/g16/l801.exe)
 DoSCS=F DFT=T ScalE2(SS,OS)=  1.000000  1.000000
 Range of M.O.s used for correlation:     1   231
 NBasis=   231 NAE=    28 NBE=    28 NFC=     0 NFV=     0
 NROrb=    231 NOA=    28 NOB=    28 NVA=   203 NVB=   203

 **** Warning!!: The largest alpha MO coefficient is  0.18639971D+02


 **** Warning!!: The smallest alpha delta epsilon is  0.95319675D-01

 Leave Link  801 at Sun May 25 04:04:46 2025, MaxMem=  3758096384 cpu:               0.0 elap:               0.0
 (Enter /apps/easybuild-2022/easybuild/software/Compiler/NVHPC/22.11-CUDA-11.7.0/Gaussian/g16c01-CUDA-11.7.0/g16/l1101.exe)
 Leave Link 1101 at Sun May 25 04:04:46 2025, MaxMem=  3758096384 cpu:               0.1 elap:               0.0
 (Enter /apps/easybuild-2022/easybuild/software/Compiler/NVHPC/22.11-CUDA-11.7.0/Gaussian/g16c01-CUDA-11.7.0/g16/l1102.exe)
 Symmetrizing basis deriv contribution to polar:
 IMax=3 JMax=2 DiffMx= 0.00D+00
 Leave Link 1102 at Sun May 25 04:04:46 2025, MaxMem=  3758096384 cpu:               0.1 elap:               0.0
 (Enter /apps/easybuild-2022/easybuild/software/Compiler/NVHPC/22.11-CUDA-11.7.0/Gaussian/g16c01-CUDA-11.7.0/g16/l1110.exe)
 Leave Link 1110 at Sun May 25 04:04:46 2025, MaxMem=  3758096384 cpu:               0.1 elap:               0.0
 (Enter /apps/easybuild-2022/easybuild/software/Compiler/NVHPC/22.11-CUDA-11.7.0/Gaussian/g16c01-CUDA-11.7.0/g16/l1002.exe)
 Minotr:  Closed shell wavefunction.
 Leave Link 1002 at Sun May 25 04:04:46 2025, MaxMem=  3758096384 cpu:               0.1 elap:               0.0
 (Enter /apps/easybuild-2022/easybuild/software/Compiler/NVHPC/22.11-CUDA-11.7.0/Gaussian/g16c01-CUDA-11.7.0/g16/l701.exe)
 ... and contract with generalized density number  0.
 Compute integral first derivatives.
   1 Symmetry operations used in ECPInt.
 ECPInt:  NShTT=    3486 NPrTT=   11183 LenC2=    3291 LenP2D=    8220.
 LDataN:  DoStor=T MaxTD1= 7 Len=  274
 Leave Link  701 at Sun May 25 04:04:46 2025, MaxMem=  3758096384 cpu:               0.9 elap:               0.2
 (Enter /apps/easybuild-2022/easybuild/software/Compiler/NVHPC/22.11-CUDA-11.7.0/Gaussian/g16c01-CUDA-11.7.0/g16/l702.exe)
 L702 exits ... SP integral derivatives will be done elsewhere.
 Leave Link  702 at Sun May 25 04:04:46 2025, MaxMem=  3758096384 cpu:               0.1 elap:               0.0
 (Enter /apps/easybuild-2022/easybuild/software/Compiler/NVHPC/22.11-CUDA-11.7.0/Gaussian/g16c01-CUDA-11.7.0/g16/l703.exe)
 Integral derivatives from FoFJK, PRISM(SPDF).
 Compute integral first derivatives, UseDBF=F ICtDFT=           0.
 Calling FoFJK, ICntrl=      2127 FMM=F ISym2X=0 I1Cent= 0 IOpClX= 0 NMat=1 NMatS=1 NMatT=0.
 FoFJK:  IHMeth= 1 ICntrl=    2127 DoSepK=F KAlg= 0 I1Cent=           0 FoldK=F
 IRaf=         0 NMat=       1 IRICut=       1 DoRegI=T DoRafI=F ISym2E= 0 IDoP0=0 IntGTp=1.
 FoFCou: FMM=F IPFlag=           0 FMFlag=      100000 FMFlg1=         800
         NFxFlg=           0 DoJE=F BraDBF=F KetDBF=F FulRan=T
         wScrn=  0.000000 ICntrl=      2127 IOpCl=  0 I1Cent=           0 NGrid=           0
         NMat0=    1 NMatS0=      1 NMatT0=    0 NMatD0=    1 NMtDS0=    0 NMtDT0=    0
 Symmetry not used in FoFCou.
 Leave Link  703 at Sun May 25 04:04:49 2025, MaxMem=  3758096384 cpu:              18.0 elap:               2.3
 (Enter /apps/easybuild-2022/easybuild/software/Compiler/NVHPC/22.11-CUDA-11.7.0/Gaussian/g16c01-CUDA-11.7.0/g16/l716.exe)
 Dipole        = 3.16424033D+00-1.84156739D+00 9.43515566D-01
 Polarizability= 0.00000000D+00 0.00000000D+00 0.00000000D+00
                 0.00000000D+00 0.00000000D+00 0.00000000D+00
 -------------------------------------------------------------------
 Center     Atomic                   Forces (Hartrees/Bohr)
 Number     Number              X              Y              Z
 -------------------------------------------------------------------
      1        6          -0.000028736    0.000040513    0.000089786
      2        8          -0.000023814    0.000030839    0.000025971
      3        6          -0.000005072   -0.000020208   -0.000027848
      4        9           0.000045362   -0.000277765   -0.000867715
      5        9           0.000014923    0.000163545    0.000409819
      6        9           0.000014616    0.000024308    0.000305049
      7        8          -0.000017081    0.000037582    0.000063114
      8        1          -0.000000198    0.000001185    0.000001825
 -------------------------------------------------------------------
 Cartesian Forces:  Max     0.000867715 RMS     0.000217997
 Leave Link  716 at Sun May 25 04:04:49 2025, MaxMem=  3758096384 cpu:               0.1 elap:               0.0
 (Enter /apps/easybuild-2022/easybuild/software/Compiler/NVHPC/22.11-CUDA-11.7.0/Gaussian/g16c01-CUDA-11.7.0/g16/l123.exe)
 IRC-IRC-IRC-IRC-IRC-IRC-IRC-IRC-IRC-IRC-IRC-IRC-IRC-IRC-IRC-IRC-IRC-IRC
 Error in corrector energy =          -0.0000000041
 Magnitude of corrector gradient =     0.0010671563
 Magnitude of analytic gradient =      0.0010679628
 Magnitude of difference =             0.0000094770
 Angle between gradients (degrees)=    0.5068
 Pt  1 Step number   2 out of a maximum of  20
 Using modified Bulirsch-Stoer corrector integration.
   Using distance weighted interpolants to fit PES.
 PreDWI: IReCr0= 2 IReCr1= 1 IReCr2= 1 IReCr3= 1
 Modified Bulirsch-Stoer Extrapolation Cycles:
    EPS =    0.000010000000000
    Cycle     1 NS=    48
      PEZero:  N= 2 I= 1 D=  2.26D-04 Err=  2.20D-02
    Cycle     2 NS=    64 Truncation Error =  0.022047770
      PEZero:  N= 3 I= 2 D=  2.26D-04 Err=  4.34D-03
      PEZero:  N= 3 I= 1 D=  4.51D-04 Err=  1.55D-02
    Cycle     3 NS=    96 Truncation Error =  0.004340988
      PEZero:  N= 4 I= 3 D=  1.13D-04 Err=  3.05D-04
      PEZero:  N= 4 I= 2 D=  3.38D-04 Err=  3.93D-03
    Cycle     4 NS=   128 Truncation Error =  0.000305177
      PEZero:  N= 5 I= 4 D=  1.13D-04 Err=  2.03D-04
      PEZero:  N= 5 I= 3 D=  2.26D-04 Err=  4.24D-07
      PEZero:  N= 5 I= 2 D=  4.51D-04 Err=  2.17D-03
    Cycle     5 NS=   192 Truncation Error =  0.000000424
 BS completed in    5 cycles and     528 integration steps.
 Maximum DWI energy   std dev =  0.000000033 at pt    27
 Maximum DWI gradient std dev =  0.016614436 at pt    13
 SUMMARY OF CORRECTOR INTEGRATION:
   Predictor End Point Energy =  -526.605748
   Old End Point Energy       =  -526.605748
   Corrected End Point Energy =  -526.605748
   Predictor End-Start Dist.  =     0.086630
   Old End-Start Dist.        =     0.084864
   New End-Start Dist.        =     0.084874
   New End-Old End Dist.      =     0.000108
 CORRECTOR INTEGRATION CONVERGENCE:
   Recorrection delta-x convergence threshold:    0.010000
   Delta-x Convergence Met
 Point Number:   1          Path Number:   1
                    CURRENT STRUCTURE
                Cartesian Coordinates (Ang):                
 ---------------------------------------------------------------------
 Center     Atomic                     Coordinates (Angstroms)
 Number     Number                        X           Y           Z
 ---------------------------------------------------------------------
      1          6                    1.324304   -0.239365    0.281108
      2          8                    2.058473   -1.119294    0.601056
      3          6                   -0.146654   -0.514226    0.088837
      4          9                   -0.963726    0.337392   -0.247120
      5          9                   -2.400185    1.838156   -0.813768
      6          9                   -0.570604   -1.687905    0.278503
      7          8                    1.572754    1.029204    0.040581
      8          1                    2.516861    1.210146    0.160524
 ---------------------------------------------------------------------
   CHANGE IN THE REACTION COORDINATE =    0.08487
   NET REACTION COORDINATE UP TO THIS POINT =    0.08487
  # OF POINTS ALONG THE PATH =   1
  # OF STEPS =   2

 Calculating another point on the path.
 Point Number  2 in FORWARD path direction.
 Using LQA Reaction Path Following.
   LQA: T_Est iteration completed in    3 iterations.
 IRC-IRC-IRC-IRC-IRC-IRC-IRC-IRC-IRC-IRC-IRC-IRC-IRC-IRC-IRC-IRC-IRC-IRC
 Leave Link  123 at Sun May 25 04:04:49 2025, MaxMem=  3758096384 cpu:               0.2 elap:               0.1
 (Enter /apps/easybuild-2022/easybuild/software/Compiler/NVHPC/22.11-CUDA-11.7.0/Gaussian/g16c01-CUDA-11.7.0/g16/l202.exe)
                          Input orientation:                          
 ---------------------------------------------------------------------
 Center     Atomic      Atomic             Coordinates (Angstroms)
 Number     Number       Type             X           Y           Z
 ---------------------------------------------------------------------
      1          6           0        1.323875   -0.238810    0.282680
      2          8           0        2.058279   -1.119019    0.601343
      3          6           0       -0.146734   -0.514398    0.088582
      4          9           0       -0.962798    0.334947   -0.255730
      5          9           0       -2.400305    1.839509   -0.809708
      6          9           0       -0.570704   -1.687580    0.281391
      7          8           0        1.572496    1.029546    0.041282
      8          1           0        2.516734    1.210283    0.160517
 ---------------------------------------------------------------------
                    Distance matrix (angstroms):
                    1          2          3          4          5
     1  C    0.000000
     2  O    1.189817   0.000000
     3  C    1.508746   2.343198   0.000000
     4  F    2.418254   3.460563   1.227150   0.000000
     5  F    4.402526   5.533799   3.380294   2.153375   0.000000
     6  F    2.385029   2.708723   1.262252   2.129050   4.120473
     7  O    1.314843   2.272880   2.311224   2.645449   4.142871
     8  H    1.880879   2.414571   3.173919   3.612011   5.051192
                    6          7          8
     6  F    0.000000
     7  O    3.468967   0.000000
     8  H    4.236094   0.968746   0.000000
 Symmetry turned off by external request.
 Stoichiometry    C2HF3O2
 Rotational constants (GHZ):           4.2463484           1.5123274           1.1151979
 Leave Link  202 at Sun May 25 04:04:49 2025, MaxMem=  3758096384 cpu:               0.1 elap:               0.0
 (Enter /apps/easybuild-2022/easybuild/software/Compiler/NVHPC/22.11-CUDA-11.7.0/Gaussian/g16c01-CUDA-11.7.0/g16/l301.exe)
 Standard basis: def2TZVPP (5D, 7F)
 Ernie: Thresh=  0.10000D-02 Tol=  0.10000D-05 Strict=F.
   231 basis functions,   374 primitive gaussians,   267 cartesian basis functions
    28 alpha electrons       28 beta electrons
       nuclear repulsion energy       303.8719433663 Hartrees.
 IExCor= 4336 DFT=T Ex+Corr=M062X ExCW=0 ScaHFX=  0.540000
 ScaDFX=  1.000000  1.000000  1.000000  1.000000 ScalE2=  1.000000  1.000000
 IRadAn=      5 IRanWt=     -1 IRanGd=            0 ICorTp=0 IEmpDi=  4
 NAtoms=    8 NActive=    8 NUniq=    8 SFac= 1.00D+00 NAtFMM=   60 NAOKFM=F Big=F
 Integral buffers will be    131072 words long.
 Raffenetti 2 integral format.
 Two-electron integral symmetry is turned off.
 Leave Link  301 at Sun May 25 04:04:49 2025, MaxMem=  3758096384 cpu:               0.1 elap:               0.0
 (Enter /apps/easybuild-2022/easybuild/software/Compiler/NVHPC/22.11-CUDA-11.7.0/Gaussian/g16c01-CUDA-11.7.0/g16/l302.exe)
 NPDir=0 NMtPBC=     1 NCelOv=     1 NCel=       1 NClECP=     1 NCelD=      1
         NCelK=      1 NCelE2=     1 NClLst=     1 CellRange=     0.0.
 One-electron integrals computed using PRISM.
   1 Symmetry operations used in ECPInt.
 ECPInt:  NShTT=    3486 NPrTT=   11183 LenC2=    3291 LenP2D=    8220.
 LDataN:  DoStor=T MaxTD1= 6 Len=  172
 NBasis=   231 RedAO= T EigKep=  4.00D-04  NBF=   231
 NBsUse=   231 1.00D-06 EigRej= -1.00D+00 NBFU=   231
 Precomputing XC quadrature grid using
 IXCGrd= 4 IRadAn=           5 IRanWt=          -1 IRanGd=           0 AccXCQ= 0.00D+00.
 Generated NRdTot=       0 NPtTot=           0 NUsed=           0 NTot=          32
 NSgBfM=   264   264   264   264   264 MxSgAt=     8 MxSgA2=     8.
 Leave Link  302 at Sun May 25 04:04:49 2025, MaxMem=  3758096384 cpu:               0.8 elap:               0.2
 (Enter /apps/easybuild-2022/easybuild/software/Compiler/NVHPC/22.11-CUDA-11.7.0/Gaussian/g16c01-CUDA-11.7.0/g16/l303.exe)
 DipDrv:  MaxL=1.
 Leave Link  303 at Sun May 25 04:04:49 2025, MaxMem=  3758096384 cpu:               0.1 elap:               0.0
 (Enter /apps/easybuild-2022/easybuild/software/Compiler/NVHPC/22.11-CUDA-11.7.0/Gaussian/g16c01-CUDA-11.7.0/g16/l401.exe)
 Initial guess from the checkpoint file:  "1141903082400600000001_r12_insertion_R_4_3_5_IRC_F.chk"
 B after Tr=    -0.000014    0.000014    0.000026
         Rot=    1.000000   -0.000006    0.000007   -0.000005 Ang=  -0.00 deg.
 Guess basis will be translated and rotated to current coordinates.
 JPrj=2 DoOrth=T DoCkMO=T.
 Generating alternative initial guess.
 ExpMin= 9.52D-02 ExpMax= 3.55D+04 ExpMxC= 1.21D+03 IAcc=3 IRadAn=         5 AccDes= 0.00D+00
 Harris functional with IExCor= 1009 and IRadAn=       5 diagonalized for initial guess.
 HarFok:  IExCor= 1009 AccDes= 0.00D+00 IRadAn=         5 IDoV= 1 UseB2=F ITyADJ=14
 ICtDFT=  3500011 ScaDFX=  1.000000  1.000000  1.000000  1.000000
 FoFCou: FMM=F IPFlag=           0 FMFlag=      100000 FMFlg1=           0
         NFxFlg=           0 DoJE=T BraDBF=F KetDBF=T FulRan=T
         wScrn=  0.000000 ICntrl=       500 IOpCl=  0 I1Cent=   200000004 NGrid=           0
         NMat0=    1 NMatS0=      1 NMatT0=    0 NMatD0=    1 NMtDS0=    0 NMtDT0=    0
 Symmetry not used in FoFCou.
 Harris En= -526.502710804541    
 Leave Link  401 at Sun May 25 04:04:50 2025, MaxMem=  3758096384 cpu:               2.0 elap:               0.3
 (Enter /apps/easybuild-2022/easybuild/software/Compiler/NVHPC/22.11-CUDA-11.7.0/Gaussian/g16c01-CUDA-11.7.0/g16/l502.exe)
 Keep R1 ints in memory in canonical form, NReq=368651263.
 FoFCou: FMM=F IPFlag=           0 FMFlag=           0 FMFlg1=           0
         NFxFlg=           0 DoJE=F BraDBF=F KetDBF=F FulRan=T
         wScrn=  0.000000 ICntrl=       600 IOpCl=  0 I1Cent=           0 NGrid=           0
         NMat0=    1 NMatS0=  26796 NMatT0=    0 NMatD0=    1 NMtDS0=    0 NMtDT0=    0
 Symmetry not used in FoFCou.
 Two-electron integral symmetry not used.
 Closed shell SCF:
 Using DIIS extrapolation, IDIIS=  1040.
 NGot=  3758096384 LenX=  3398923547 LenY=  3398851817
 Requested convergence on RMS density matrix=1.00D-08 within  32 cycles.
 Requested convergence on MAX density matrix=1.00D-06.
 Requested convergence on             energy=1.00D-06.
 No special actions if energy rises.
 Integral accuracy reduced to 1.0D-05 until final iterations.

 Cycle   1  Pass 0  IDiag  1:
 E= -526.605721980387    
 DIIS: error= 2.83D-04 at cycle   1 NSaved=   1.
 NSaved= 1 IEnMin= 1 EnMin= -526.605721980387     IErMin= 1 ErrMin= 2.83D-04
 ErrMax= 2.83D-04  0.00D+00 EMaxC= 1.00D-01 BMatC= 3.04D-05 BMatP= 3.04D-05
 IDIUse=3 WtCom= 9.97D-01 WtEn= 2.83D-03
 Coeff-Com:  0.100D+01
 Coeff-En:   0.100D+01
 Coeff:      0.100D+01
 Gap=     0.906 Goal=   None    Shift=    0.000
 RMSDP=3.94D-05 MaxDP=1.85D-03              OVMax= 2.01D-03

 Cycle   2  Pass 0  IDiag  1:
 E= -526.605761821327     Delta-E=       -0.000039840941 Rises=F Damp=F
 DIIS: error= 6.16D-05 at cycle   2 NSaved=   2.
 NSaved= 2 IEnMin= 2 EnMin= -526.605761821327     IErMin= 2 ErrMin= 6.16D-05
 ErrMax= 6.16D-05  0.00D+00 EMaxC= 1.00D-01 BMatC= 1.19D-06 BMatP= 3.04D-05
 IDIUse=1 WtCom= 1.00D+00 WtEn= 0.00D+00
 Coeff-Com: -0.141D+00 0.114D+01
 Coeff:     -0.141D+00 0.114D+01
 Gap=     0.096 Goal=   None    Shift=    0.000
 RMSDP=1.10D-05 MaxDP=3.08D-04 DE=-3.98D-05 OVMax= 2.03D-03

 Cycle   3  Pass 0  IDiag  1:
 E= -526.605764651693     Delta-E=       -0.000002830365 Rises=F Damp=F
 DIIS: error= 1.80D-04 at cycle   3 NSaved=   3.
 NSaved= 3 IEnMin= 3 EnMin= -526.605764651693     IErMin= 2 ErrMin= 6.16D-05
 ErrMax= 1.80D-04  0.00D+00 EMaxC= 1.00D-01 BMatC= 1.45D-06 BMatP= 1.19D-06
 IDIUse=3 WtCom= 4.27D-01 WtEn= 5.73D-01
 Coeff-Com: -0.100D+00 0.734D+00 0.366D+00
 Coeff-En:   0.000D+00 0.000D+00 0.100D+01
 Coeff:     -0.428D-01 0.314D+00 0.729D+00
 Gap=     0.095 Goal=   None    Shift=    0.000
 RMSDP=1.47D-05 MaxDP=7.38D-04 DE=-2.83D-06 OVMax= 3.42D-03

 Cycle   4  Pass 0  IDiag  1:
 E= -526.605758715113     Delta-E=        0.000005936579 Rises=F Damp=F
 DIIS: error= 4.58D-04 at cycle   4 NSaved=   4.
 NSaved= 4 IEnMin= 3 EnMin= -526.605764651693     IErMin= 2 ErrMin= 6.16D-05
 ErrMax= 4.58D-04  0.00D+00 EMaxC= 1.00D-01 BMatC= 9.38D-06 BMatP= 1.19D-06
 IDIUse=3 WtCom= 3.19D-01 WtEn= 6.81D-01
 Coeff-Com: -0.450D-02-0.418D-01 0.755D+00 0.291D+00
 Coeff-En:   0.000D+00 0.000D+00 0.746D+00 0.254D+00
 Coeff:     -0.143D-02-0.133D-01 0.749D+00 0.265D+00
 Gap=     0.095 Goal=   None    Shift=    0.000
 RMSDP=9.95D-06 MaxDP=4.35D-04 DE= 5.94D-06 OVMax= 2.36D-03

 Initial convergence to 1.0D-05 achieved.  Increase integral accuracy.
 Cycle   5  Pass 1  IDiag  1:
 E= -526.605769412072     Delta-E=       -0.000010696958 Rises=F Damp=F
 DIIS: error= 6.75D-05 at cycle   1 NSaved=   1.
 NSaved= 1 IEnMin= 1 EnMin= -526.605769412072     IErMin= 1 ErrMin= 6.75D-05
 ErrMax= 6.75D-05  0.00D+00 EMaxC= 1.00D-01 BMatC= 6.42D-07 BMatP= 6.42D-07
 IDIUse=1 WtCom= 1.00D+00 WtEn= 0.00D+00
 Coeff-Com:  0.100D+01
 Coeff:      0.100D+01
 Gap=     0.095 Goal=   None    Shift=    0.000
 RMSDP=9.95D-06 MaxDP=4.35D-04 DE=-1.07D-05 OVMax= 1.58D-03

 Cycle   6  Pass 1  IDiag  1:
 E= -526.605770402295     Delta-E=       -0.000000990223 Rises=F Damp=F
 DIIS: error= 1.44D-04 at cycle   2 NSaved=   2.
 NSaved= 2 IEnMin= 2 EnMin= -526.605770402295     IErMin= 1 ErrMin= 6.75D-05
 ErrMax= 1.44D-04  0.00D+00 EMaxC= 1.00D-01 BMatC= 9.72D-07 BMatP= 6.42D-07
 IDIUse=3 WtCom= 4.55D-01 WtEn= 5.45D-01
 Coeff-Com:  0.583D+00 0.417D+00
 Coeff-En:   0.000D+00 0.100D+01
 Coeff:      0.265D+00 0.735D+00
 Gap=     0.095 Goal=   None    Shift=    0.000
 RMSDP=1.25D-05 MaxDP=6.45D-04 DE=-9.90D-07 OVMax= 2.94D-03

 Cycle   7  Pass 1  IDiag  1:
 E= -526.605766229662     Delta-E=        0.000004172633 Rises=F Damp=F
 DIIS: error= 3.94D-04 at cycle   3 NSaved=   3.
 NSaved= 3 IEnMin= 2 EnMin= -526.605770402295     IErMin= 1 ErrMin= 6.75D-05
 ErrMax= 3.94D-04  0.00D+00 EMaxC= 1.00D-01 BMatC= 6.81D-06 BMatP= 6.42D-07
 IDIUse=3 WtCom= 3.35D-01 WtEn= 6.65D-01
 Coeff-Com: -0.237D-01 0.749D+00 0.275D+00
 Coeff-En:   0.000D+00 0.746D+00 0.254D+00
 Coeff:     -0.795D-02 0.747D+00 0.261D+00
 Gap=     0.095 Goal=   None    Shift=    0.000
 RMSDP=8.41D-06 MaxDP=3.60D-04 DE= 4.17D-06 OVMax= 1.97D-03

 Cycle   8  Pass 1  IDiag  1:
 E= -526.605772575279     Delta-E=       -0.000006345617 Rises=F Damp=F
 DIIS: error= 3.07D-05 at cycle   4 NSaved=   4.
 NSaved= 4 IEnMin= 4 EnMin= -526.605772575279     IErMin= 4 ErrMin= 3.07D-05
 ErrMax= 3.07D-05  0.00D+00 EMaxC= 1.00D-01 BMatC= 9.70D-08 BMatP= 6.42D-07
 IDIUse=1 WtCom= 1.00D+00 WtEn= 0.00D+00
 Coeff-Com: -0.400D-01 0.264D+00 0.521D-01 0.724D+00
 Coeff:     -0.400D-01 0.264D+00 0.521D-01 0.724D+00
 Gap=     0.095 Goal=   None    Shift=    0.000
 RMSDP=4.02D-06 MaxDP=1.38D-04 DE=-6.35D-06 OVMax= 1.04D-03

 Cycle   9  Pass 1  IDiag  1:
 E= -526.605773351013     Delta-E=       -0.000000775734 Rises=F Damp=F
 DIIS: error= 2.18D-05 at cycle   5 NSaved=   5.
 NSaved= 5 IEnMin= 5 EnMin= -526.605773351013     IErMin= 5 ErrMin= 2.18D-05
 ErrMax= 2.18D-05  0.00D+00 EMaxC= 1.00D-01 BMatC= 6.15D-08 BMatP= 9.70D-08
 IDIUse=1 WtCom= 1.00D+00 WtEn= 0.00D+00
 Coeff-Com:  0.306D-01-0.639D+00-0.299D+00 0.877D-01 0.182D+01
 Coeff:      0.306D-01-0.639D+00-0.299D+00 0.877D-01 0.182D+01
 Gap=     0.095 Goal=   None    Shift=    0.000
 RMSDP=1.26D-05 MaxDP=4.37D-04 DE=-7.76D-07 OVMax= 3.30D-03

 Cycle  10  Pass 1  IDiag  1:
 E= -526.605775515722     Delta-E=       -0.000002164710 Rises=F Damp=F
 DIIS: error= 1.81D-05 at cycle   6 NSaved=   6.
 NSaved= 6 IEnMin= 6 EnMin= -526.605775515722     IErMin= 6 ErrMin= 1.81D-05
 ErrMax= 1.81D-05  0.00D+00 EMaxC= 1.00D-01 BMatC= 3.93D-08 BMatP= 6.15D-08
 IDIUse=1 WtCom= 1.00D+00 WtEn= 0.00D+00
 Coeff-Com:  0.687D-01-0.715D+00-0.222D+00-0.922D+00 0.798D+00 0.199D+01
 Coeff:      0.687D-01-0.715D+00-0.222D+00-0.922D+00 0.798D+00 0.199D+01
 Gap=     0.095 Goal=   None    Shift=    0.000
 RMSDP=2.71D-05 MaxDP=9.40D-04 DE=-2.16D-06 OVMax= 7.08D-03

 Cycle  11  Pass 1  IDiag  1:
 E= -526.605778957289     Delta-E=       -0.000003441567 Rises=F Damp=F
 DIIS: error= 1.53D-05 at cycle   7 NSaved=   7.
 NSaved= 7 IEnMin= 7 EnMin= -526.605778957289     IErMin= 7 ErrMin= 1.53D-05
 ErrMax= 1.53D-05  0.00D+00 EMaxC= 1.00D-01 BMatC= 3.19D-08 BMatP= 3.93D-08
 IDIUse=1 WtCom= 1.00D+00 WtEn= 0.00D+00
 Coeff-Com:  0.216D-01 0.271D-01 0.129D+00-0.751D+00-0.878D+00 0.140D+01
 Coeff-Com:  0.105D+01
 Coeff:      0.216D-01 0.271D-01 0.129D+00-0.751D+00-0.878D+00 0.140D+01
 Coeff:      0.105D+01
 Gap=     0.095 Goal=   None    Shift=    0.000
 RMSDP=2.26D-05 MaxDP=7.86D-04 DE=-3.44D-06 OVMax= 5.91D-03

 Cycle  12  Pass 1  IDiag  1:
 E= -526.605780609590     Delta-E=       -0.000001652301 Rises=F Damp=F
 DIIS: error= 9.25D-06 at cycle   8 NSaved=   8.
 NSaved= 8 IEnMin= 8 EnMin= -526.605780609590     IErMin= 8 ErrMin= 9.25D-06
 ErrMax= 9.25D-06  0.00D+00 EMaxC= 1.00D-01 BMatC= 1.31D-08 BMatP= 3.19D-08
 IDIUse=1 WtCom= 1.00D+00 WtEn= 0.00D+00
 Coeff-Com: -0.311D-01 0.512D+00 0.272D+00-0.107D-01-0.120D+01-0.164D+00
 Coeff-Com:  0.695D+00 0.926D+00
 Coeff:     -0.311D-01 0.512D+00 0.272D+00-0.107D-01-0.120D+01-0.164D+00
 Coeff:      0.695D+00 0.926D+00
 Gap=     0.095 Goal=   None    Shift=    0.000
 RMSDP=1.46D-05 MaxDP=5.11D-04 DE=-1.65D-06 OVMax= 3.82D-03

 Cycle  13  Pass 1  IDiag  1:
 E= -526.605781084252     Delta-E=       -0.000000474662 Rises=F Damp=F
 DIIS: error= 1.03D-05 at cycle   9 NSaved=   9.
 NSaved= 9 IEnMin= 9 EnMin= -526.605781084252     IErMin= 8 ErrMin= 9.25D-06
 ErrMax= 1.03D-05  0.00D+00 EMaxC= 1.00D-01 BMatC= 5.81D-09 BMatP= 1.31D-08
 IDIUse=1 WtCom= 1.00D+00 WtEn= 0.00D+00
 Coeff-Com: -0.125D-01 0.719D-01 0.294D-01 0.201D+00 0.983D-01-0.380D+00
 Coeff-Com: -0.341D+00-0.189D-01 0.135D+01
 Coeff:     -0.125D-01 0.719D-01 0.294D-01 0.201D+00 0.983D-01-0.380D+00
 Coeff:     -0.341D+00-0.189D-01 0.135D+01
 Gap=     0.095 Goal=   None    Shift=    0.000
 RMSDP=6.12D-06 MaxDP=2.14D-04 DE=-4.75D-07 OVMax= 1.60D-03

 Cycle  14  Pass 1  IDiag  1:
 E= -526.605781136020     Delta-E=       -0.000000051768 Rises=F Damp=F
 DIIS: error= 1.48D-05 at cycle  10 NSaved=  10.
 NSaved=10 IEnMin=10 EnMin= -526.605781136020     IErMin= 8 ErrMin= 9.25D-06
 ErrMax= 1.48D-05  0.00D+00 EMaxC= 1.00D-01 BMatC= 1.07D-08 BMatP= 5.81D-09
 IDIUse=1 WtCom= 1.00D+00 WtEn= 0.00D+00
 Coeff-Com:  0.141D-03-0.401D-01 0.431D-02 0.339D-01 0.186D+00-0.736D-01
 Coeff-Com: -0.269D+00-0.197D+00 0.753D+00 0.603D+00
 Coeff:      0.141D-03-0.401D-01 0.431D-02 0.339D-01 0.186D+00-0.736D-01
 Coeff:     -0.269D+00-0.197D+00 0.753D+00 0.603D+00
 Gap=     0.095 Goal=   None    Shift=    0.000
 RMSDP=1.33D-06 MaxDP=4.36D-05 DE=-5.18D-08 OVMax= 3.37D-04

 Cycle  15  Pass 1  IDiag  1:
 E= -526.605781147141     Delta-E=       -0.000000011121 Rises=F Damp=F
 DIIS: error= 3.19D-06 at cycle  11 NSaved=  11.
[...]
 ErrMax= 6.93D-06  0.00D+00 EMaxC= 1.00D-01 BMatC= 8.25D-09 BMatP= 4.41D-08
 IDIUse=1 WtCom= 1.00D+00 WtEn= 0.00D+00
 Coeff-Com:  0.193D-01-0.439D+00-0.297D+00-0.643D-01 0.178D+01
 Coeff:      0.193D-01-0.439D+00-0.297D+00-0.643D-01 0.178D+01
 Gap=     0.138 Goal=   None    Shift=    0.000
 RMSDP=3.25D-06 MaxDP=9.51D-05 DE=-9.24D-08 OVMax= 7.92D-04

 Cycle  10  Pass 1  IDiag  1:
 E= -526.628009365578     Delta-E=       -0.000000154170 Rises=F Damp=F
 DIIS: error= 3.70D-06 at cycle   6 NSaved=   6.
 NSaved= 6 IEnMin= 6 EnMin= -526.628009365578     IErMin= 6 ErrMin= 3.70D-06
 ErrMax= 3.70D-06  0.00D+00 EMaxC= 1.00D-01 BMatC= 4.30D-09 BMatP= 8.25D-09
 IDIUse=1 WtCom= 1.00D+00 WtEn= 0.00D+00
 Coeff-Com:  0.302D-01-0.420D+00-0.313D+00-0.216D+00 0.119D+01 0.732D+00
 Coeff:      0.302D-01-0.420D+00-0.313D+00-0.216D+00 0.119D+01 0.732D+00
 Gap=     0.138 Goal=   None    Shift=    0.000
 RMSDP=1.85D-06 MaxDP=5.39D-05 DE=-1.54D-07 OVMax= 4.49D-04

 Cycle  11  Pass 1  IDiag  1:
 E= -526.628009406666     Delta-E=       -0.000000041089 Rises=F Damp=F
 DIIS: error= 1.44D-06 at cycle   7 NSaved=   7.
 NSaved= 7 IEnMin= 7 EnMin= -526.628009406666     IErMin= 7 ErrMin= 1.44D-06
 ErrMax= 1.44D-06  0.00D+00 EMaxC= 1.00D-01 BMatC= 6.98D-10 BMatP= 4.30D-09
 IDIUse=1 WtCom= 1.00D+00 WtEn= 0.00D+00
 Coeff-Com:  0.261D-02 0.970D-02 0.752D-02-0.596D-01-0.250D+00 0.288D+00
 Coeff-Com:  0.100D+01
 Coeff:      0.261D-02 0.970D-02 0.752D-02-0.596D-01-0.250D+00 0.288D+00
 Coeff:      0.100D+01
 Gap=     0.138 Goal=   None    Shift=    0.000
 RMSDP=9.88D-07 MaxDP=2.86D-05 DE=-4.11D-08 OVMax= 2.41D-04

 Cycle  12  Pass 1  IDiag  1:
 E= -526.628009413785     Delta-E=       -0.000000007119 Rises=F Damp=F
 DIIS: error= 7.89D-07 at cycle   8 NSaved=   8.
 NSaved= 8 IEnMin= 8 EnMin= -526.628009413785     IErMin= 8 ErrMin= 7.89D-07
 ErrMax= 7.89D-07  0.00D+00 EMaxC= 1.00D-01 BMatC= 1.60D-10 BMatP= 6.98D-10
 IDIUse=1 WtCom= 1.00D+00 WtEn= 0.00D+00
 Coeff-Com: -0.221D-02 0.511D-01 0.454D-01-0.152D-01-0.246D+00 0.501D-01
 Coeff-Com:  0.450D+00 0.667D+00
 Coeff:     -0.221D-02 0.511D-01 0.454D-01-0.152D-01-0.246D+00 0.501D-01
 Coeff:      0.450D+00 0.667D+00
 Gap=     0.138 Goal=   None    Shift=    0.000
 RMSDP=1.68D-07 MaxDP=4.99D-06 DE=-7.12D-09 OVMax= 4.05D-05

 Cycle  13  Pass 1  IDiag  1:
 E= -526.628009414104     Delta-E=       -0.000000000319 Rises=F Damp=F
 DIIS: error= 4.71D-07 at cycle   9 NSaved=   9.
 NSaved= 9 IEnMin= 9 EnMin= -526.628009414104     IErMin= 9 ErrMin= 4.71D-07
 ErrMax= 4.71D-07  0.00D+00 EMaxC= 1.00D-01 BMatC= 1.84D-11 BMatP= 1.60D-10
 IDIUse=1 WtCom= 1.00D+00 WtEn= 0.00D+00
 Coeff-Com: -0.121D-02 0.197D-01 0.205D-01-0.329D-02-0.693D-01-0.117D-01
 Coeff-Com:  0.691D-01 0.247D+00 0.729D+00
 Coeff:     -0.121D-02 0.197D-01 0.205D-01-0.329D-02-0.693D-01-0.117D-01
 Coeff:      0.691D-01 0.247D+00 0.729D+00
 Gap=     0.138 Goal=   None    Shift=    0.000
 RMSDP=2.33D-08 MaxDP=6.45D-07 DE=-3.19D-10 OVMax= 3.71D-06

 Cycle  14  Pass 1  IDiag  1:
 E= -526.628009414111     Delta-E=       -0.000000000007 Rises=F Damp=F
 DIIS: error= 1.43D-07 at cycle  10 NSaved=  10.
 NSaved=10 IEnMin=10 EnMin= -526.628009414111     IErMin=10 ErrMin= 1.43D-07
 ErrMax= 1.43D-07  0.00D+00 EMaxC= 1.00D-01 BMatC= 2.51D-12 BMatP= 1.84D-11
 IDIUse=1 WtCom= 1.00D+00 WtEn= 0.00D+00
 Coeff-Com: -0.149D-03-0.721D-03 0.142D-02-0.705D-04 0.128D-01-0.113D-01
 Coeff-Com: -0.448D-01-0.337D-01 0.253D+00 0.824D+00
 Coeff:     -0.149D-03-0.721D-03 0.142D-02-0.705D-04 0.128D-01-0.113D-01
 Coeff:     -0.448D-01-0.337D-01 0.253D+00 0.824D+00
 Gap=     0.138 Goal=   None    Shift=    0.000
 RMSDP=1.07D-08 MaxDP=3.32D-07 DE=-6.82D-12 OVMax= 1.45D-06

 Cycle  15  Pass 1  IDiag  1:
 E= -526.628009414128     Delta-E=       -0.000000000017 Rises=F Damp=F
 DIIS: error= 5.19D-08 at cycle  11 NSaved=  11.
 NSaved=11 IEnMin=11 EnMin= -526.628009414128     IErMin=11 ErrMin= 5.19D-08
 ErrMax= 5.19D-08  0.00D+00 EMaxC= 1.00D-01 BMatC= 3.02D-13 BMatP= 2.51D-12
 IDIUse=1 WtCom= 1.00D+00 WtEn= 0.00D+00
 Coeff-Com:  0.136D-03-0.283D-02-0.196D-02-0.405D-03 0.116D-01 0.428D-03
 Coeff-Com: -0.162D-01-0.448D-01-0.415D-01 0.180D+00 0.916D+00
 Coeff:      0.136D-03-0.283D-02-0.196D-02-0.405D-03 0.116D-01 0.428D-03
 Coeff:     -0.162D-01-0.448D-01-0.415D-01 0.180D+00 0.916D+00
 Gap=     0.138 Goal=   None    Shift=    0.000
 RMSDP=4.12D-09 MaxDP=1.92D-07 DE=-1.69D-11 OVMax= 3.50D-07

 SCF Done:  E(RM062X) =  -526.628009414     A.U. after   15 cycles
            NFock= 15  Conv=0.41D-08     -V/T= 2.0036
 KE= 5.247315546936D+02 PE=-1.868275030301D+03 EE= 5.061955242534D+02
 Leave Link  502 at Sun May 25 04:26:28 2025, MaxMem=  3758096384 cpu:              46.7 elap:               9.4
 (Enter /apps/easybuild-2022/easybuild/software/Compiler/NVHPC/22.11-CUDA-11.7.0/Gaussian/g16c01-CUDA-11.7.0/g16/l508.exe)
 QCSCF skips out because SCF is already converged.
 Leave Link  508 at Sun May 25 04:26:29 2025, MaxMem=  3758096384 cpu:               0.0 elap:               0.0
 (Enter /apps/easybuild-2022/easybuild/software/Compiler/NVHPC/22.11-CUDA-11.7.0/Gaussian/g16c01-CUDA-11.7.0/g16/l801.exe)
 DoSCS=F DFT=T ScalE2(SS,OS)=  1.000000  1.000000
 Range of M.O.s used for correlation:     1   231
 NBasis=   231 NAE=    28 NBE=    28 NFC=     0 NFV=     0
 NROrb=    231 NOA=    28 NOB=    28 NVA=   203 NVB=   203

 **** Warning!!: The largest alpha MO coefficient is  0.17533277D+02

 Leave Link  801 at Sun May 25 04:26:29 2025, MaxMem=  3758096384 cpu:               0.1 elap:               0.0
 (Enter /apps/easybuild-2022/easybuild/software/Compiler/NVHPC/22.11-CUDA-11.7.0/Gaussian/g16c01-CUDA-11.7.0/g16/l1101.exe)
 Leave Link 1101 at Sun May 25 04:26:29 2025, MaxMem=  3758096384 cpu:               0.1 elap:               0.0
 (Enter /apps/easybuild-2022/easybuild/software/Compiler/NVHPC/22.11-CUDA-11.7.0/Gaussian/g16c01-CUDA-11.7.0/g16/l1102.exe)
 Symmetrizing basis deriv contribution to polar:
 IMax=3 JMax=2 DiffMx= 0.00D+00
 Leave Link 1102 at Sun May 25 04:26:29 2025, MaxMem=  3758096384 cpu:               0.1 elap:               0.0
 (Enter /apps/easybuild-2022/easybuild/software/Compiler/NVHPC/22.11-CUDA-11.7.0/Gaussian/g16c01-CUDA-11.7.0/g16/l1110.exe)
 Leave Link 1110 at Sun May 25 04:26:29 2025, MaxMem=  3758096384 cpu:               0.1 elap:               0.0
 (Enter /apps/easybuild-2022/easybuild/software/Compiler/NVHPC/22.11-CUDA-11.7.0/Gaussian/g16c01-CUDA-11.7.0/g16/l1002.exe)
 Minotr:  Closed shell wavefunction.
 Leave Link 1002 at Sun May 25 04:26:29 2025, MaxMem=  3758096384 cpu:               0.1 elap:               0.0
 (Enter /apps/easybuild-2022/easybuild/software/Compiler/NVHPC/22.11-CUDA-11.7.0/Gaussian/g16c01-CUDA-11.7.0/g16/l701.exe)
 ... and contract with generalized density number  0.
 Compute integral first derivatives.
   1 Symmetry operations used in ECPInt.
 ECPInt:  NShTT=    3486 NPrTT=   11183 LenC2=    3328 LenP2D=    8330.
 LDataN:  DoStor=T MaxTD1= 7 Len=  274
 Leave Link  701 at Sun May 25 04:26:29 2025, MaxMem=  3758096384 cpu:               0.7 elap:               0.1
 (Enter /apps/easybuild-2022/easybuild/software/Compiler/NVHPC/22.11-CUDA-11.7.0/Gaussian/g16c01-CUDA-11.7.0/g16/l702.exe)
 L702 exits ... SP integral derivatives will be done elsewhere.
 Leave Link  702 at Sun May 25 04:26:29 2025, MaxMem=  3758096384 cpu:               0.0 elap:               0.0
 (Enter /apps/easybuild-2022/easybuild/software/Compiler/NVHPC/22.11-CUDA-11.7.0/Gaussian/g16c01-CUDA-11.7.0/g16/l703.exe)
 Integral derivatives from FoFJK, PRISM(SPDF).
 Compute integral first derivatives, UseDBF=F ICtDFT=           0.
 Calling FoFJK, ICntrl=      2127 FMM=F ISym2X=0 I1Cent= 0 IOpClX= 0 NMat=1 NMatS=1 NMatT=0.
 FoFJK:  IHMeth= 1 ICntrl=    2127 DoSepK=F KAlg= 0 I1Cent=           0 FoldK=F
 IRaf=         0 NMat=       1 IRICut=       1 DoRegI=T DoRafI=F ISym2E= 0 IDoP0=0 IntGTp=1.
 FoFCou: FMM=F IPFlag=           0 FMFlag=      100000 FMFlg1=         800
         NFxFlg=           0 DoJE=F BraDBF=F KetDBF=F FulRan=T
         wScrn=  0.000000 ICntrl=      2127 IOpCl=  0 I1Cent=           0 NGrid=           0
         NMat0=    1 NMatS0=      1 NMatT0=    0 NMatD0=    1 NMtDS0=    0 NMtDT0=    0
 Symmetry not used in FoFCou.
 Leave Link  703 at Sun May 25 04:26:32 2025, MaxMem=  3758096384 cpu:              20.9 elap:               2.7
 (Enter /apps/easybuild-2022/easybuild/software/Compiler/NVHPC/22.11-CUDA-11.7.0/Gaussian/g16c01-CUDA-11.7.0/g16/l716.exe)
 Dipole        = 2.74007280D+00-1.45682186D+00 1.02683446D-01
 Polarizability= 0.00000000D+00 0.00000000D+00 0.00000000D+00
                 0.00000000D+00 0.00000000D+00 0.00000000D+00
 -------------------------------------------------------------------
 Center     Atomic                   Forces (Hartrees/Bohr)
 Number     Number              X              Y              Z
 -------------------------------------------------------------------
      1        6          -0.000753060    0.000835810    0.000078171
      2        8          -0.001545487    0.001138936    0.001702329
      3        6          -0.001077994    0.001522469   -0.002173960
      4        9           0.002242052   -0.002502541   -0.004151716
      5        9           0.004023371   -0.003539675    0.005133793
      6        9          -0.002309820    0.002007670    0.000395043
      7        8          -0.000606346    0.000495129   -0.000993614
      8        1           0.000027284    0.000042201    0.000009954
 -------------------------------------------------------------------
 Cartesian Forces:  Max     0.005133793 RMS     0.002148499
 Leave Link  716 at Sun May 25 04:26:32 2025, MaxMem=  3758096384 cpu:               0.1 elap:               0.0
 (Enter /apps/easybuild-2022/easybuild/software/Compiler/NVHPC/22.11-CUDA-11.7.0/Gaussian/g16c01-CUDA-11.7.0/g16/l123.exe)
 IRC-IRC-IRC-IRC-IRC-IRC-IRC-IRC-IRC-IRC-IRC-IRC-IRC-IRC-IRC-IRC-IRC-IRC
 Pt100 Step number   1 out of a maximum of  20
 Using modified Bulirsch-Stoer corrector integration.
   Using distance weighted interpolants to fit PES.
 PreDWI: IReCr0= 2 IReCr1= 1 IReCr2= 1 IReCr3= 1
 Modified Bulirsch-Stoer Extrapolation Cycles:
    EPS =    0.000010000000000
    Cycle     1 NS=    48
      PEZero:  N= 2 I= 1 D=  4.51D-04 Err=  6.46D-05
    Cycle     2 NS=    64 Truncation Error =  0.000064606
      PEZero:  N= 3 I= 2 D=  4.51D-04 Err=  4.30D-05
      PEZero:  N= 3 I= 1 D=  9.02D-04 Err=  9.96D-08
    Cycle     3 NS=    96 Truncation Error =  0.000000100
 BS completed in    3 cycles and     208 integration steps.
 Maximum DWI energy   std dev =  0.000001331 at pt    26
 Maximum DWI gradient std dev =  0.091766593 at pt    29
 SUMMARY OF CORRECTOR INTEGRATION:
   Predictor End Point Energy =  -526.628009
   Old End Point Energy       =  -526.628009
   Corrected End Point Energy =  -526.628013
   Predictor End-Start Dist.  =     0.086600
   Old End-Start Dist.        =     0.086600
   New End-Start Dist.        =     0.086424
   New End-Old End Dist.      =     0.007309
 CORRECTOR INTEGRATION CONVERGENCE:
   Recorrection delta-x convergence threshold:    0.010000
   Delta-x Convergence Met
 Point Number: 100          Path Number:   1
                    CURRENT STRUCTURE
                Cartesian Coordinates (Ang):                
 ---------------------------------------------------------------------
 Center     Atomic                     Coordinates (Angstroms)
 Number     Number                        X           Y           Z
 ---------------------------------------------------------------------
      1          6                    1.238758   -0.161682    0.304618
      2          8                    1.932457   -1.028412    0.734658
      3          6                   -0.188319   -0.472836   -0.076195
      4          9                   -0.823498    0.158270   -0.909897
      5          9                   -2.148191    1.616290   -0.324714
      6          9                   -0.736988   -1.491967    0.433276
      7          8                    1.529602    1.089262    0.030377
      8          1                    2.458216    1.263044    0.244590
 ---------------------------------------------------------------------
   CHANGE IN THE REACTION COORDINATE =    0.08642
   NET REACTION COORDINATE UP TO THIS POINT =    8.65905
  # OF POINTS ALONG THE PATH = 100
  # OF STEPS =   1

 Maximum number of steps reached.
 Calculation of FORWARD path complete.
 Reaction path calculation complete.
 
 Energies reported relative to the TS energy of        -526.605738
 --------------------------------------------------------------------------
    Summary of reaction path following
 --------------------------------------------------------------------------
                        Energy    RxCoord
   1                    0.00000   0.00000
   2                   -0.00001   0.08487
   3                   -0.00004   0.17139
   4                   -0.00010   0.25798
   5                   -0.00018   0.34459
   6                   -0.00028   0.43120
   7                   -0.00040   0.51780
   8                   -0.00054   0.60441
   9                   -0.00069   0.69102
  10                   -0.00086   0.77763
  11                   -0.00104   0.86424
  12                   -0.00123   0.95085
  13                   -0.00143   1.03746
  14                   -0.00164   1.12408
  15                   -0.00185   1.21069
  16                   -0.00208   1.29730
  17                   -0.00230   1.38391
  18                   -0.00254   1.47052
  19                   -0.00278   1.55713
  20                   -0.00302   1.64374
  21                   -0.00327   1.73035
  22                   -0.00352   1.81697
  23                   -0.00377   1.90358
  24                   -0.00403   1.99019
  25                   -0.00429   2.07680
  26                   -0.00455   2.16341
  27                   -0.00481   2.25002
  28                   -0.00507   2.33663
  29                   -0.00534   2.42325
  30                   -0.00560   2.50986
  31                   -0.00587   2.59647
  32                   -0.00614   2.68308
  33                   -0.00640   2.76969
  34                   -0.00667   2.85631
  35                   -0.00694   2.94292
  36                   -0.00720   3.02953
  37                   -0.00747   3.11614
  38                   -0.00774   3.20275
  39                   -0.00800   3.28937
  40                   -0.00827   3.37598
  41                   -0.00853   3.46259
  42                   -0.00880   3.54920
  43                   -0.00906   3.63582
  44                   -0.00932   3.72243
  45                   -0.00958   3.80904
  46                   -0.00985   3.89565
  47                   -0.01010   3.98226
  48                   -0.01036   4.06888
  49                   -0.01062   4.15549
  50                   -0.01087   4.24210
  51                   -0.01113   4.32871
  52                   -0.01138   4.41533
  53                   -0.01163   4.50194
  54                   -0.01188   4.58855
  55                   -0.01213   4.67517
  56                   -0.01238   4.76178
  57                   -0.01263   4.84839
  58                   -0.01287   4.93500
  59                   -0.01312   5.02162
  60                   -0.01336   5.10823
  61                   -0.01360   5.19484
  62                   -0.01384   5.28146
  63                   -0.01407   5.36807
  64                   -0.01431   5.45468
  65                   -0.01455   5.54129
  66                   -0.01478   5.62791
  67                   -0.01501   5.71452
  68                   -0.01524   5.80113
  69                   -0.01547   5.88775
  70                   -0.01570   5.97436
  71                   -0.01593   6.06097
  72                   -0.01615   6.14759
  73                   -0.01638   6.23420
  74                   -0.01660   6.32081
  75                   -0.01682   6.40742
  76                   -0.01704   6.49404
  77                   -0.01726   6.58065
  78                   -0.01748   6.66726
  79                   -0.01769   6.75388
  80                   -0.01791   6.84049
  81                   -0.01812   6.92710
  82                   -0.01834   7.01372
  83                   -0.01855   7.10033
  84                   -0.01876   7.18694
  85                   -0.01897   7.27356
  86                   -0.01918   7.36017
  87                   -0.01939   7.44678
  88                   -0.01959   7.53339
  89                   -0.01980   7.62001
  90                   -0.02001   7.70662
  91                   -0.02021   7.79323
  92                   -0.02042   7.87985
  93                   -0.02062   7.96646
  94                   -0.02083   8.05307
  95                   -0.02103   8.13969
  96                   -0.02124   8.22630
  97                   -0.02144   8.31291
  98                   -0.02165   8.39951
  99                   -0.02186   8.48609
 100                   -0.02207   8.57262
 101                   -0.02227   8.65905
 --------------------------------------------------------------------------
 
 Total number of points:                  100
 Total number of gradient calculations:   101
 Total number of Hessian calculations:      0
 IRC-IRC-IRC-IRC-IRC-IRC-IRC-IRC-IRC-IRC-IRC-IRC-IRC-IRC-IRC-IRC-IRC-IRC
 Leave Link  123 at Sun May 25 04:26:32 2025, MaxMem=  3758096384 cpu:               0.1 elap:               0.0
 (Enter /apps/easybuild-2022/easybuild/software/Compiler/NVHPC/22.11-CUDA-11.7.0/Gaussian/g16c01-CUDA-11.7.0/g16/l202.exe)
                          Input orientation:                          
 ---------------------------------------------------------------------
 Center     Atomic      Atomic             Coordinates (Angstroms)
 Number     Number       Type             X           Y           Z
 ---------------------------------------------------------------------
      1          6           0        1.238754   -0.161729    0.304688
      2          8           0        1.932489   -1.028434    0.734572
      3          6           0       -0.188258   -0.473001   -0.075262
      4          9           0       -0.823637    0.158359   -0.910274
      5          9           0       -2.148211    1.616321   -0.324748
      6          9           0       -0.736883   -1.491924    0.433136
      7          8           0        1.529606    1.089243    0.030375
      8          1           0        2.458186    1.263000    0.244400
 ---------------------------------------------------------------------
                    Distance matrix (angstroms):
                    1          2          3          4          5
     1  C    0.000000
     2  O    1.190482   0.000000
     3  C    1.509178   2.337072   0.000000
     4  F    2.414963   3.422020   1.224567   0.000000
     5  F    3.876749   4.976846   2.875574   2.054992   0.000000
     6  F    2.385176   2.726029   1.263986   2.129720   3.496773
     7  O    1.313305   2.267766   2.324397   2.699836   3.732327
     8  H    1.876300   2.401520   3.181124   3.650187   4.654854
                    6          7          8
     6  F    0.000000
     7  O    3.458556   0.000000
     8  H    4.222996   0.968638   0.000000
 Symmetry turned off by external request.
 Stoichiometry    C2HF3O2
 Rotational constants (GHZ):           3.9670347           1.7817024           1.3192695
 Leave Link  202 at Sun May 25 04:26:32 2025, MaxMem=  3758096384 cpu:               0.0 elap:               0.0
 (Enter /apps/easybuild-2022/easybuild/software/Compiler/NVHPC/22.11-CUDA-11.7.0/Gaussian/g16c01-CUDA-11.7.0/g16/l9999.exe)

 This type of calculation cannot be archived.


 When cryptography is outlawed, bayl bhgynjf jvyy unir cevinpl.
 Job cpu time:       0 days  2 hours  0 minutes 18.6 seconds.
 Elapsed time:       0 days  0 hours 22 minutes  3.6 seconds.
 File lengths (MBytes):  RWF=     30 Int=      0 D2E=      0 Chk=      6 Scr=      1
 Normal termination of Gaussian 16 at Sun May 25 04:26:32 2025.
done
