 Entering Gaussian System, Link 0=g16
 Initial command:
 /apps/easybuild-2022/easybuild/software/Compiler/NVHPC/22.11-CUDA-11.7.0/Gaussian/g16c01-CUDA-11.7.0/g16/l1.exe "/tmp/Gau-114656.inp" -scrdir="/tmp/"
 Entering Link 1 = /apps/easybuild-2022/easybuild/software/Compiler/NVHPC/22.11-CUDA-11.7.0/Gaussian/g16c01-CUDA-11.7.0/g16/l1.exe PID=    114657.
  
 Copyright (c) 1988-2019, Gaussian, Inc.  All Rights Reserved.
  
 This is part of the Gaussian(R) 16 program.  It is based on
 the Gaussian(R) 09 system (copyright 2009, Gaussian, Inc.),
 the Gaussian(R) 03 system (copyright 2003, Gaussian, Inc.),
 the Gaussian(R) 98 system (copyright 1998, Gaussian, Inc.),
 the Gaussian(R) 94 system (copyright 1995, Gaussian, Inc.),
 the Gaussian 92(TM) system (copyright 1992, Gaussian, Inc.),
 the Gaussian 90(TM) system (copyright 1990, Gaussian, Inc.),
 the Gaussian 88(TM) system (copyright 1988, Gaussian, Inc.),
 the Gaussian 86(TM) system (copyright 1986, Carnegie Mellon
 University), and the Gaussian 82(TM) system (copyright 1983,
 Carnegie Mellon University). Gaussian is a federally registered
 trademark of Gaussian, Inc.
  
 This software contains proprietary and confidential information,
 including trade secrets, belonging to Gaussian, Inc.
  
 This software is provided under written license and may be
 used, copied, transmitted, or stored only in accord with that
 written license.
  
 The following legend is applicable only to US Government
 contracts under FAR:
  
                    RESTRICTED RIGHTS LEGEND
  
 Use, reproduction and disclosure by the US Government is
 subject to restrictions as set forth in subparagraphs (a)
 and (c) of the Commercial Computer Software - Restricted
 Rights clause in FAR 52.227-19.
  
 Gaussian, Inc.
 340 Quinnipiac St., Bldg. 40, Wallingford CT 06492
  
  
 ---------------------------------------------------------------
 Warning -- This program may not be used in any manner that
 competes with the business of Gaussian, Inc. or will provide
 assistance to any competitor of Gaussian, Inc.  The licensee
 of this program is prohibited from giving any competitor of
 Gaussian, Inc. access to this program.  By using this program,
 the user acknowledges that Gaussian, Inc. is engaged in the
 business of creating and licensing software in the field of
 computational chemistry and represents and warrants to the
 licensee that it is not a competitor of Gaussian, Inc. and that
 it will not use this program in any manner prohibited above.
 ---------------------------------------------------------------
  

 Cite this work as:
 Gaussian 16, Revision C.01,
 M. J. Frisch, G. W. Trucks, H. B. Schlegel, G. E. Scuseria, 
 M. A. Robb, J. R. Cheeseman, G. Scalmani, V. Barone, 
 G. A. Petersson, H. Nakatsuji, X. Li, M. Caricato, A. V. Marenich, 
 J. Bloino, B. G. Janesko, R. Gomperts, B. Mennucci, H. P. Hratchian, 
 J. V. Ortiz, A. F. Izmaylov, J. L. Sonnenberg, D. Williams-Young, 
 F. Ding, F. Lipparini, F. Egidi, J. Goings, B. Peng, A. Petrone, 
 T. Henderson, D. Ranasinghe, V. G. Zakrzewski, J. Gao, N. Rega, 
 G. Zheng, W. Liang, M. Hada, M. Ehara, K. Toyota, R. Fukuda, 
 J. Hasegawa, M. Ishida, T. Nakajima, Y. Honda, O. Kitao, H. Nakai, 
 T. Vreven, K. Throssell, J. A. Montgomery, Jr., J. E. Peralta, 
 F. Ogliaro, M. J. Bearpark, J. J. Heyd, E. N. Brothers, K. N. Kudin, 
 V. N. Staroverov, T. A. Keith, R. Kobayashi, J. Normand, 
 K. Raghavachari, A. P. Rendell, J. C. Burant, S. S. Iyengar, 
 J. Tomasi, M. Cossi, J. M. Millam, M. Klene, C. Adamo, R. Cammi, 
 J. W. Ochterski, R. L. Martin, K. Morokuma, O. Farkas, 
 J. B. Foresman, and D. J. Fox, Gaussian, Inc., Wallingford CT, 2019.
 
 ******************************************
 Gaussian 16:  ES64L-G16RevC.01  3-Jul-2019
                25-May-2025 
 ******************************************
 %mem=28GB
 %chk=1141903082400600000001_r13_insertion_ROR_4_3_1_7_IRC_F_prod
 %nprocshared=8
 Will use up to    8 processors via shared memory.
 -----------------------------------------------------------------
 #P M062X/Def2TZVPP Symm(None) scf(xqc) pop(None) freq opt(CalcFC)
 -----------------------------------------------------------------
 1/10=4,18=20,19=15,26=3,38=1/1,3;
 2/9=110,12=2,15=3,17=6,18=5,40=1/2;
 3/5=44,7=202,11=2,25=1,30=1,71=2,74=-55,140=1/1,2,3;
 4//1;
 5/5=2,8=3,13=1,38=5/2,8;
 8/6=4,10=90,11=11/1;
 11/6=1,8=1,9=11,15=111,16=1,31=1/1,2,10;
 10/6=1,13=1,31=1/2;
 7/10=1,25=1,30=1/1,2,3,16;
 1/10=4,18=20,19=15,26=3/3(2);
 2/9=110,15=3/2;
 99//99;
 2/9=110,15=3/2;
 3/5=44,7=202,11=2,25=1,30=1,71=1,74=-55/1,2,3;
 4/5=5,16=3,69=1/1;
 5/5=2,8=3,13=1,38=5/2,8;
 7/30=1/1,2,3,16;
 1/18=20,19=15,26=3/3(-5);
 2/9=110,15=3/2;
 99/9=1/99;
 Leave Link    1 at Sun May 25 05:10:28 2025, MaxMem=  3758096384 cpu:               0.0 elap:               0.0
 (Enter /apps/easybuild-2022/easybuild/software/Compiler/NVHPC/22.11-CUDA-11.7.0/Gaussian/g16c01-CUDA-11.7.0/g16/l101.exe)
 ------------------------------
 Gaussian input prepared by ASE
 ------------------------------
 Symbolic Z-matrix:
 Charge =  0 Multiplicity = 1
 C                     2.34198   0.4952   -0.44192 
 O                     3.26225   1.11165  -0.60084 
 C                    -0.50648  -0.12433   0.09396 
 F                    -2.4975   -0.33822   0.47827 
 F                    -0.56089  -0.84036  -0.99426 
 F                    -0.15376  -0.89887   1.0817 
 O                    -0.66616   1.04065   0.15809 
 H                    -2.50474   0.58728   0.50571 
 
 Add virtual bond connecting atoms F4         and C3         Dist= 3.85D+00.
 Add virtual bond connecting atoms H8         and O7         Dist= 3.64D+00.
 Add virtual bond connecting atoms C3         and C1         Dist= 5.60D+00.
 Add virtual bond connecting atoms O7         and C1         Dist= 5.89D+00.
 ITRead=  0  0  0  0  0  0  0  0
 MicOpt= -1 -1 -1 -1 -1 -1 -1 -1
 NAtoms=      8 NQM=        8 NQMF=       0 NMMI=      0 NMMIF=      0
                NMic=       0 NMicF=      0.
                    Isotopes and Nuclear Properties:
 (Nuclear quadrupole moments (NQMom) in fm**2, nuclear magnetic moments (NMagM)
  in nuclear magnetons)

  Atom         1           2           3           4           5           6           7           8
 IAtWgt=          12          16          12          19          19          19          16           1
 AtmWgt=  12.0000000  15.9949146  12.0000000  18.9984032  18.9984032  18.9984032  15.9949146   1.0078250
 NucSpn=           0           0           0           1           1           1           0           1
 AtZEff=  -0.0000000  -0.0000000  -0.0000000  -0.0000000  -0.0000000  -0.0000000  -0.0000000  -0.0000000
 NQMom=    0.0000000   0.0000000   0.0000000   0.0000000   0.0000000   0.0000000   0.0000000   0.0000000
 NMagM=    0.0000000   0.0000000   0.0000000   2.6288670   2.6288670   2.6288670   0.0000000   2.7928460
 AtZNuc=   6.0000000   8.0000000   6.0000000   9.0000000   9.0000000   9.0000000   8.0000000   1.0000000
 Leave Link  101 at Sun May 25 05:10:28 2025, MaxMem=  3758096384 cpu:               0.2 elap:               0.2
 (Enter /apps/easybuild-2022/easybuild/software/Compiler/NVHPC/22.11-CUDA-11.7.0/Gaussian/g16c01-CUDA-11.7.0/g16/l103.exe)

 GradGradGradGradGradGradGradGradGradGradGradGradGradGradGradGradGradGrad
 Berny optimization.
 Initialization pass.
                           ----------------------------
                           !    Initial Parameters    !
                           ! (Angstroms and Degrees)  !
 --------------------------                            --------------------------
 ! Name  Definition              Value          Derivative Info.                !
 --------------------------------------------------------------------------------
 ! R1    R(1,2)                  1.119          calculate D2E/DX2 analytically  !
 ! R2    R(1,3)                  2.9639         calculate D2E/DX2 analytically  !
 ! R3    R(1,7)                  3.1155         calculate D2E/DX2 analytically  !
 ! R4    R(3,4)                  2.039          calculate D2E/DX2 analytically  !
 ! R5    R(3,5)                  1.3038         calculate D2E/DX2 analytically  !
 ! R6    R(3,6)                  1.3038         calculate D2E/DX2 analytically  !
 ! R7    R(3,7)                  1.1776         calculate D2E/DX2 analytically  !
 ! R8    R(4,8)                  0.9259         calculate D2E/DX2 analytically  !
 ! R9    R(7,8)                  1.9253         calculate D2E/DX2 analytically  !
 ! A1    A(2,1,3)              158.6223         calculate D2E/DX2 analytically  !
 ! A2    A(2,1,7)              136.4657         calculate D2E/DX2 analytically  !
 ! A3    A(1,3,5)               90.2286         calculate D2E/DX2 analytically  !
 ! A4    A(1,3,6)               90.0659         calculate D2E/DX2 analytically  !
 ! A5    A(4,3,5)               93.38           calculate D2E/DX2 analytically  !
 ! A6    A(4,3,6)               93.3857         calculate D2E/DX2 analytically  !
 ! A7    A(4,3,7)               87.7712         calculate D2E/DX2 analytically  !
 ! A8    A(5,3,6)              108.5028         calculate D2E/DX2 analytically  !
 ! A9    A(5,3,7)              125.6683         calculate D2E/DX2 analytically  !
 ! A10   A(6,3,7)              125.6691         calculate D2E/DX2 analytically  !
 ! A11   A(3,4,8)               84.7427         calculate D2E/DX2 analytically  !
 ! A12   A(1,7,8)              156.2903         calculate D2E/DX2 analytically  !
 ! A13   A(3,7,8)               84.6272         calculate D2E/DX2 analytically  !
 ! A14   A(4,8,7)              102.8589         calculate D2E/DX2 analytically  !
 ! A15   L(1,3,4,5,-1)         183.6086         calculate D2E/DX2 analytically  !
 ! A16   L(1,3,4,5,-2)         184.8581         calculate D2E/DX2 analytically  !
 ! D1    D(2,1,3,5)            126.07           calculate D2E/DX2 analytically  !
 ! D2    D(2,1,3,6)           -125.4268         calculate D2E/DX2 analytically  !
 ! D3    D(2,1,7,8)           -179.5899         calculate D2E/DX2 analytically  !
 ! D4    D(5,3,4,8)           -125.6058         calculate D2E/DX2 analytically  !
 ! D5    D(6,3,4,8)            125.613          calculate D2E/DX2 analytically  !
 ! D6    D(7,3,4,8)              0.0032         calculate D2E/DX2 analytically  !
 ! D7    D(4,3,7,8)             -0.0016         calculate D2E/DX2 analytically  !
 ! D8    D(5,3,7,8)             92.56           calculate D2E/DX2 analytically  !
 ! D9    D(6,3,7,8)            -92.5702         calculate D2E/DX2 analytically  !
 ! D10   D(3,4,8,7)             -0.002          calculate D2E/DX2 analytically  !
 ! D11   D(1,7,8,4)             -0.2217         calculate D2E/DX2 analytically  !
 ! D12   D(3,7,8,4)              0.0035         calculate D2E/DX2 analytically  !
 --------------------------------------------------------------------------------
 Trust Radius=3.00D-01 FncErr=1.00D-07 GrdErr=1.00D-06 EigMax=2.50D+02 EigMin=1.00D-04
 Number of steps in this run=     47 maximum allowed number of steps=    100.
 GradGradGradGradGradGradGradGradGradGradGradGradGradGradGradGradGradGrad

 Leave Link  103 at Sun May 25 05:10:28 2025, MaxMem=  3758096384 cpu:               0.0 elap:               0.0
 (Enter /apps/easybuild-2022/easybuild/software/Compiler/NVHPC/22.11-CUDA-11.7.0/Gaussian/g16c01-CUDA-11.7.0/g16/l202.exe)
                          Input orientation:                          
 ---------------------------------------------------------------------
 Center     Atomic      Atomic             Coordinates (Angstroms)
 Number     Number       Type             X           Y           Z
 ---------------------------------------------------------------------
      1          6           0        2.341979    0.495198   -0.441920
      2          8           0        3.262245    1.111647   -0.600837
      3          6           0       -0.506484   -0.124325    0.093960
      4          9           0       -2.497498   -0.338217    0.478269
      5          9           0       -0.560889   -0.840363   -0.994264
      6          9           0       -0.153763   -0.898865    1.081704
      7          8           0       -0.666158    1.040645    0.158088
      8          1           0       -2.504738    0.587278    0.505712
 ---------------------------------------------------------------------
                    Distance matrix (angstroms):
                    1          2          3          4          5
     1  C    0.000000
     2  O    1.118997   0.000000
     3  C    2.963902   4.026622   0.000000
     4  F    4.996185   6.036656   2.039014   0.000000
     5  F    3.242753   4.310624   1.303803   2.484141   0.000000
     6  F    3.239378   4.306067   1.303826   2.484261   2.116322
     7  O    3.115511   4.001669   1.177609   2.314645   2.208436
     8  H    4.939347   5.895550   2.160772   0.925930   2.840182
                    6          7          8
     6  F    0.000000
     7  O    2.208464   0.000000
     8  H    2.840329   1.925295   0.000000
 Symmetry turned off by external request.
 Stoichiometry    C2HF3O2
 Rotational constants (GHZ):           5.5712299           1.1106218           1.0970677
 Leave Link  202 at Sun May 25 05:10:28 2025, MaxMem=  3758096384 cpu:               0.0 elap:               0.0
 (Enter /apps/easybuild-2022/easybuild/software/Compiler/NVHPC/22.11-CUDA-11.7.0/Gaussian/g16c01-CUDA-11.7.0/g16/l301.exe)
 Standard basis: def2TZVPP (5D, 7F)
 Ernie: Thresh=  0.10000D-02 Tol=  0.10000D-05 Strict=F.
   231 basis functions,   374 primitive gaussians,   267 cartesian basis functions
    28 alpha electrons       28 beta electrons
       nuclear repulsion energy       298.0744688314 Hartrees.
 IExCor= 4336 DFT=T Ex+Corr=M062X ExCW=0 ScaHFX=  0.540000
 ScaDFX=  1.000000  1.000000  1.000000  1.000000 ScalE2=  1.000000  1.000000
 IRadAn=      5 IRanWt=     -1 IRanGd=            0 ICorTp=0 IEmpDi=  4
 NAtoms=    8 NActive=    8 NUniq=    8 SFac= 1.00D+00 NAtFMM=   60 NAOKFM=F Big=F
 Integral buffers will be    131072 words long.
 Raffenetti 2 integral format.
 Two-electron integral symmetry is turned off.
 Leave Link  301 at Sun May 25 05:10:28 2025, MaxMem=  3758096384 cpu:               0.0 elap:               0.0
 (Enter /apps/easybuild-2022/easybuild/software/Compiler/NVHPC/22.11-CUDA-11.7.0/Gaussian/g16c01-CUDA-11.7.0/g16/l302.exe)
 NPDir=0 NMtPBC=     1 NCelOv=     1 NCel=       1 NClECP=     1 NCelD=      1
         NCelK=      1 NCelE2=     1 NClLst=     1 CellRange=     0.0.
 One-electron integrals computed using PRISM.
   1 Symmetry operations used in ECPInt.
 ECPInt:  NShTT=    3486 NPrTT=   11183 LenC2=    3256 LenP2D=    8037.
 LDataN:  DoStor=T MaxTD1= 6 Len=  172
 NBasis=   231 RedAO= T EigKep=  9.87D-04  NBF=   231
 NBsUse=   231 1.00D-06 EigRej= -1.00D+00 NBFU=   231
 Precomputing XC quadrature grid using
 IXCGrd= 4 IRadAn=           5 IRanWt=          -1 IRanGd=           0 AccXCQ= 0.00D+00.
 Generated NRdTot=       0 NPtTot=           0 NUsed=           0 NTot=          32
 NSgBfM=   263   263   263   263   263 MxSgAt=     8 MxSgA2=     8.
 Leave Link  302 at Sun May 25 05:10:28 2025, MaxMem=  3758096384 cpu:               0.4 elap:               0.1
 (Enter /apps/easybuild-2022/easybuild/software/Compiler/NVHPC/22.11-CUDA-11.7.0/Gaussian/g16c01-CUDA-11.7.0/g16/l303.exe)
 DipDrv:  MaxL=1.
 Leave Link  303 at Sun May 25 05:10:28 2025, MaxMem=  3758096384 cpu:               0.1 elap:               0.0
 (Enter /apps/easybuild-2022/easybuild/software/Compiler/NVHPC/22.11-CUDA-11.7.0/Gaussian/g16c01-CUDA-11.7.0/g16/l401.exe)
 ExpMin= 9.52D-02 ExpMax= 3.55D+04 ExpMxC= 1.21D+03 IAcc=3 IRadAn=         5 AccDes= 0.00D+00
 Harris functional with IExCor= 1009 and IRadAn=       5 diagonalized for initial guess.
 HarFok:  IExCor= 1009 AccDes= 0.00D+00 IRadAn=         5 IDoV= 1 UseB2=F ITyADJ=14
 ICtDFT=  3500011 ScaDFX=  1.000000  1.000000  1.000000  1.000000
 FoFCou: FMM=F IPFlag=           0 FMFlag=      100000 FMFlg1=           0
         NFxFlg=           0 DoJE=T BraDBF=F KetDBF=T FulRan=T
         wScrn=  0.000000 ICntrl=       500 IOpCl=  0 I1Cent=   200000004 NGrid=           0
         NMat0=    1 NMatS0=      1 NMatT0=    0 NMatD0=    1 NMtDS0=    0 NMtDT0=    0
 Symmetry not used in FoFCou.
 Harris En= -526.502722871297    
 JPrj=0 DoOrth=F DoCkMO=F.
 Leave Link  401 at Sun May 25 05:10:29 2025, MaxMem=  3758096384 cpu:               1.7 elap:               0.3
 (Enter /apps/easybuild-2022/easybuild/software/Compiler/NVHPC/22.11-CUDA-11.7.0/Gaussian/g16c01-CUDA-11.7.0/g16/l502.exe)
 Keep R1 ints in memory in canonical form, NReq=368651295.
 FoFCou: FMM=F IPFlag=           0 FMFlag=           0 FMFlg1=           0
         NFxFlg=           0 DoJE=F BraDBF=F KetDBF=F FulRan=T
         wScrn=  0.000000 ICntrl=       600 IOpCl=  0 I1Cent=           0 NGrid=           0
         NMat0=    1 NMatS0=  26796 NMatT0=    0 NMatD0=    1 NMtDS0=    0 NMtDT0=    0
 Symmetry not used in FoFCou.
 Two-electron integral symmetry not used.
 Closed shell SCF:
 Using DIIS extrapolation, IDIIS=  1040.
 NGot=  3758096384 LenX=  3398923515 LenY=  3398851785
 Requested convergence on RMS density matrix=1.00D-08 within  32 cycles.
 Requested convergence on MAX density matrix=1.00D-06.
 Requested convergence on             energy=1.00D-06.
 No special actions if energy rises.
 Integral accuracy reduced to 1.0D-05 until final iterations.

 Cycle   1  Pass 0  IDiag  1:
 E= -526.675147447978    
 DIIS: error= 2.93D-02 at cycle   1 NSaved=   1.
 NSaved= 1 IEnMin= 1 EnMin= -526.675147447978     IErMin= 1 ErrMin= 2.93D-02
 ErrMax= 2.93D-02  0.00D+00 EMaxC= 1.00D-01 BMatC= 2.78D-01 BMatP= 2.78D-01
 IDIUse=3 WtCom= 7.07D-01 WtEn= 2.93D-01
 Coeff-Com:  0.100D+01
 Coeff-En:   0.100D+01
 Coeff:      0.100D+01
 Gap=     0.492 Goal=   None    Shift=    0.000
 GapD=    0.492 DampG=2.000 DampE=0.500 DampFc=1.0000 IDamp=-1.
 RMSDP=2.02D-03 MaxDP=1.00D-01              OVMax= 2.32D-01

 Cycle   2  Pass 0  IDiag  1:
 E= -526.574847275000     Delta-E=        0.100300172979 Rises=F Damp=F
 DIIS: error= 3.19D-02 at cycle   2 NSaved=   2.
 NSaved= 2 IEnMin= 1 EnMin= -526.675147447978     IErMin= 1 ErrMin= 2.93D-02
 ErrMax= 3.19D-02  0.00D+00 EMaxC= 1.00D-01 BMatC= 3.78D-01 BMatP= 2.78D-01
 IDIUse=2 WtCom= 0.00D+00 WtEn= 1.00D+00
 Coeff-En:   0.624D+00 0.376D+00
 Coeff:      0.624D+00 0.376D+00
 Gap=     0.455 Goal=   None    Shift=    0.000
 RMSDP=1.04D-03 MaxDP=4.97D-02 DE= 1.00D-01 OVMax= 9.49D-02

 Cycle   3  Pass 0  IDiag  1:
 E= -526.813365123141     Delta-E=       -0.238517848141 Rises=F Damp=F
 DIIS: error= 4.67D-03 at cycle   3 NSaved=   3.
 NSaved= 3 IEnMin= 3 EnMin= -526.813365123141     IErMin= 3 ErrMin= 4.67D-03
 ErrMax= 4.67D-03  0.00D+00 EMaxC= 1.00D-01 BMatC= 5.44D-03 BMatP= 2.78D-01
 IDIUse=3 WtCom= 9.53D-01 WtEn= 4.67D-02
 Coeff-Com:  0.104D+00 0.265D-01 0.869D+00
 Coeff-En:   0.000D+00 0.000D+00 0.100D+01
 Coeff:      0.992D-01 0.253D-01 0.875D+00
 Gap=     0.452 Goal=   None    Shift=    0.000
 RMSDP=2.28D-04 MaxDP=8.59D-03 DE=-2.39D-01 OVMax= 1.50D-02

 Cycle   4  Pass 0  IDiag  1:
 E= -526.814740300561     Delta-E=       -0.001375177421 Rises=F Damp=F
 DIIS: error= 4.06D-03 at cycle   4 NSaved=   4.
 NSaved= 4 IEnMin= 4 EnMin= -526.814740300561     IErMin= 4 ErrMin= 4.06D-03
 ErrMax= 4.06D-03  0.00D+00 EMaxC= 1.00D-01 BMatC= 2.83D-03 BMatP= 5.44D-03
 IDIUse=3 WtCom= 9.59D-01 WtEn= 4.06D-02
 Coeff-Com:  0.180D-02-0.326D-01 0.469D+00 0.561D+00
 Coeff-En:   0.000D+00 0.000D+00 0.322D+00 0.678D+00
 Coeff:      0.173D-02-0.313D-01 0.463D+00 0.566D+00
 Gap=     0.456 Goal=   None    Shift=    0.000
 RMSDP=8.96D-05 MaxDP=3.66D-03 DE=-1.38D-03 OVMax= 7.66D-03

 Cycle   5  Pass 0  IDiag  1:
 E= -526.816314798295     Delta-E=       -0.001574497734 Rises=F Damp=F
 DIIS: error= 7.04D-04 at cycle   5 NSaved=   5.
 NSaved= 5 IEnMin= 5 EnMin= -526.816314798295     IErMin= 5 ErrMin= 7.04D-04
 ErrMax= 7.04D-04  0.00D+00 EMaxC= 1.00D-01 BMatC= 5.23D-05 BMatP= 2.83D-03
 IDIUse=3 WtCom= 9.93D-01 WtEn= 7.04D-03
 Coeff-Com: -0.246D-02-0.147D-01 0.159D+00 0.217D+00 0.642D+00
 Coeff-En:   0.000D+00 0.000D+00 0.000D+00 0.000D+00 0.100D+01
 Coeff:     -0.244D-02-0.146D-01 0.157D+00 0.216D+00 0.644D+00
 Gap=     0.457 Goal=   None    Shift=    0.000
 RMSDP=1.67D-05 MaxDP=9.48D-04 DE=-1.57D-03 OVMax= 1.90D-03

 Cycle   6  Pass 0  IDiag  1:
 E= -526.816344312576     Delta-E=       -0.000029514281 Rises=F Damp=F
 DIIS: error= 4.20D-04 at cycle   6 NSaved=   6.
 NSaved= 6 IEnMin= 6 EnMin= -526.816344312576     IErMin= 6 ErrMin= 4.20D-04
 ErrMax= 4.20D-04  0.00D+00 EMaxC= 1.00D-01 BMatC= 1.01D-05 BMatP= 5.23D-05
 IDIUse=3 WtCom= 9.96D-01 WtEn= 4.20D-03
 Coeff-Com: -0.126D-02-0.554D-02 0.441D-01 0.599D-01 0.324D+00 0.579D+00
 Coeff-En:   0.000D+00 0.000D+00 0.000D+00 0.000D+00 0.330D-01 0.967D+00
 Coeff:     -0.125D-02-0.551D-02 0.439D-01 0.597D-01 0.323D+00 0.580D+00
 Gap=     0.457 Goal=   None    Shift=    0.000
 RMSDP=7.18D-06 MaxDP=3.25D-04 DE=-2.95D-05 OVMax= 9.02D-04

 Initial convergence to 1.0D-05 achieved.  Increase integral accuracy.
 Cycle   7  Pass 1  IDiag  1:
 E= -526.816371809407     Delta-E=       -0.000027496831 Rises=F Damp=F
 DIIS: error= 9.99D-05 at cycle   1 NSaved=   1.
 NSaved= 1 IEnMin= 1 EnMin= -526.816371809407     IErMin= 1 ErrMin= 9.99D-05
 ErrMax= 9.99D-05  0.00D+00 EMaxC= 1.00D-01 BMatC= 1.46D-06 BMatP= 1.46D-06
 IDIUse=1 WtCom= 1.00D+00 WtEn= 0.00D+00
 Coeff-Com:  0.100D+01
 Coeff:      0.100D+01
 Gap=     0.457 Goal=   None    Shift=    0.000
 RMSDP=7.18D-06 MaxDP=3.25D-04 DE=-2.75D-05 OVMax= 5.57D-04

 Cycle   8  Pass 1  IDiag  1:
 E= -526.816371602944     Delta-E=        0.000000206463 Rises=F Damp=F
 DIIS: error= 1.43D-04 at cycle   2 NSaved=   2.
 NSaved= 2 IEnMin= 1 EnMin= -526.816371809407     IErMin= 1 ErrMin= 9.99D-05
 ErrMax= 1.43D-04  0.00D+00 EMaxC= 1.00D-01 BMatC= 2.18D-06 BMatP= 1.46D-06
 IDIUse=3 WtCom= 4.56D-01 WtEn= 5.44D-01
 Coeff-Com:  0.556D+00 0.444D+00
 Coeff-En:   0.545D+00 0.455D+00
 Coeff:      0.550D+00 0.450D+00
 Gap=     0.457 Goal=   None    Shift=    0.000
 RMSDP=2.97D-06 MaxDP=1.41D-04 DE= 2.06D-07 OVMax= 2.94D-04

 Cycle   9  Pass 1  IDiag  1:
 E= -526.816373031879     Delta-E=       -0.000001428936 Rises=F Damp=F
 DIIS: error= 2.45D-05 at cycle   3 NSaved=   3.
 NSaved= 3 IEnMin= 3 EnMin= -526.816373031879     IErMin= 3 ErrMin= 2.45D-05
 ErrMax= 2.45D-05  0.00D+00 EMaxC= 1.00D-01 BMatC= 6.48D-08 BMatP= 1.46D-06
 IDIUse=1 WtCom= 1.00D+00 WtEn= 0.00D+00
 Coeff-Com:  0.304D-02 0.129D+00 0.868D+00
 Coeff:      0.304D-02 0.129D+00 0.868D+00
 Gap=     0.457 Goal=   None    Shift=    0.000
 RMSDP=8.13D-07 MaxDP=3.10D-05 DE=-1.43D-06 OVMax= 6.91D-05

 Cycle  10  Pass 1  IDiag  1:
 E= -526.816373084057     Delta-E=       -0.000000052178 Rises=F Damp=F
 DIIS: error= 9.18D-06 at cycle   4 NSaved=   4.
 NSaved= 4 IEnMin= 4 EnMin= -526.816373084057     IErMin= 4 ErrMin= 9.18D-06
 ErrMax= 9.18D-06  0.00D+00 EMaxC= 1.00D-01 BMatC= 1.38D-08 BMatP= 6.48D-08
 IDIUse=1 WtCom= 1.00D+00 WtEn= 0.00D+00
 Coeff-Com: -0.567D-01 0.245D-01 0.421D+00 0.611D+00
 Coeff:     -0.567D-01 0.245D-01 0.421D+00 0.611D+00
 Gap=     0.457 Goal=   None    Shift=    0.000
 RMSDP=3.12D-07 MaxDP=1.25D-05 DE=-5.22D-08 OVMax= 3.13D-05

 Cycle  11  Pass 1  IDiag  1:
 E= -526.816373093898     Delta-E=       -0.000000009841 Rises=F Damp=F
 DIIS: error= 5.34D-06 at cycle   5 NSaved=   5.
 NSaved= 5 IEnMin= 5 EnMin= -526.816373093898     IErMin= 5 ErrMin= 5.34D-06
 ErrMax= 5.34D-06  0.00D+00 EMaxC= 1.00D-01 BMatC= 1.65D-09 BMatP= 1.38D-08
 IDIUse=1 WtCom= 1.00D+00 WtEn= 0.00D+00
 Coeff-Com: -0.228D-01-0.430D-02 0.391D-01 0.260D+00 0.728D+00
 Coeff:     -0.228D-01-0.430D-02 0.391D-01 0.260D+00 0.728D+00
 Gap=     0.457 Goal=   None    Shift=    0.000
 RMSDP=1.44D-07 MaxDP=6.38D-06 DE=-9.84D-09 OVMax= 1.87D-05

 Cycle  12  Pass 1  IDiag  1:
 E= -526.816373095506     Delta-E=       -0.000000001608 Rises=F Damp=F
 DIIS: error= 1.24D-06 at cycle   6 NSaved=   6.
 NSaved= 6 IEnMin= 6 EnMin= -526.816373095506     IErMin= 6 ErrMin= 1.24D-06
 ErrMax= 1.24D-06  0.00D+00 EMaxC= 1.00D-01 BMatC= 3.08D-10 BMatP= 1.65D-09
 IDIUse=1 WtCom= 1.00D+00 WtEn= 0.00D+00
 Coeff-Com:  0.176D-02-0.551D-02-0.704D-01-0.254D-01 0.313D+00 0.787D+00
 Coeff:      0.176D-02-0.551D-02-0.704D-01-0.254D-01 0.313D+00 0.787D+00
 Gap=     0.457 Goal=   None    Shift=    0.000
 RMSDP=6.24D-08 MaxDP=2.61D-06 DE=-1.61D-09 OVMax= 7.32D-06

 Cycle  13  Pass 1  IDiag  1:
 E= -526.816373095772     Delta-E=       -0.000000000266 Rises=F Damp=F
 DIIS: error= 3.56D-07 at cycle   7 NSaved=   7.
 NSaved= 7 IEnMin= 7 EnMin= -526.816373095772     IErMin= 7 ErrMin= 3.56D-07
 ErrMax= 3.56D-07  0.00D+00 EMaxC= 1.00D-01 BMatC= 3.28D-11 BMatP= 3.08D-10
 IDIUse=1 WtCom= 1.00D+00 WtEn= 0.00D+00
 Coeff-Com:  0.295D-02-0.221D-02-0.385D-01-0.344D-01 0.949D-01 0.375D+00
 Coeff-Com:  0.603D+00
 Coeff:      0.295D-02-0.221D-02-0.385D-01-0.344D-01 0.949D-01 0.375D+00
 Coeff:      0.603D+00
 Gap=     0.457 Goal=   None    Shift=    0.000
 RMSDP=1.35D-08 MaxDP=7.01D-07 DE=-2.66D-10 OVMax= 1.39D-06

 Cycle  14  Pass 1  IDiag  1:
 E= -526.816373095785     Delta-E=       -0.000000000013 Rises=F Damp=F
 DIIS: error= 4.03D-08 at cycle   8 NSaved=   8.
 NSaved= 8 IEnMin= 8 EnMin= -526.816373095785     IErMin= 8 ErrMin= 4.03D-08
 ErrMax= 4.03D-08  0.00D+00 EMaxC= 1.00D-01 BMatC= 4.95D-13 BMatP= 3.28D-11
 IDIUse=1 WtCom= 1.00D+00 WtEn= 0.00D+00
 Coeff-Com:  0.169D-03 0.193D-03 0.401D-03-0.525D-03-0.892D-02-0.177D-01
 Coeff-Com:  0.626D-01 0.964D+00
 Coeff:      0.169D-03 0.193D-03 0.401D-03-0.525D-03-0.892D-02-0.177D-01
 Coeff:      0.626D-01 0.964D+00
 Gap=     0.457 Goal=   None    Shift=    0.000
 RMSDP=3.13D-09 MaxDP=8.93D-08 DE=-1.32D-11 OVMax= 1.65D-07

 SCF Done:  E(RM062X) =  -526.816373096     A.U. after   14 cycles
            NFock= 14  Conv=0.31D-08     -V/T= 2.0033
 KE= 5.250930398230D+02 PE=-1.844963495268D+03 EE= 4.949796135177D+02
 Leave Link  502 at Sun May 25 05:10:36 2025, MaxMem=  3758096384 cpu:              38.7 elap:               7.8
 (Enter /apps/easybuild-2022/easybuild/software/Compiler/NVHPC/22.11-CUDA-11.7.0/Gaussian/g16c01-CUDA-11.7.0/g16/l508.exe)
 QCSCF skips out because SCF is already converged.
 Leave Link  508 at Sun May 25 05:10:36 2025, MaxMem=  3758096384 cpu:               0.0 elap:               0.0
 (Enter /apps/easybuild-2022/easybuild/software/Compiler/NVHPC/22.11-CUDA-11.7.0/Gaussian/g16c01-CUDA-11.7.0/g16/l801.exe)
 DoSCS=F DFT=T ScalE2(SS,OS)=  1.000000  1.000000
 Range of M.O.s used for correlation:     1   231
 NBasis=   231 NAE=    28 NBE=    28 NFC=     0 NFV=     0
 NROrb=    231 NOA=    28 NOB=    28 NVA=   203 NVB=   203

 **** Warning!!: The largest alpha MO coefficient is  0.10450567D+02

 Leave Link  801 at Sun May 25 05:10:36 2025, MaxMem=  3758096384 cpu:               0.0 elap:               0.0
 (Enter /apps/easybuild-2022/easybuild/software/Compiler/NVHPC/22.11-CUDA-11.7.0/Gaussian/g16c01-CUDA-11.7.0/g16/l1101.exe)
 Using compressed storage, NAtomX=     8.
 Will process      9 centers per pass.
   1 Symmetry operations used in ECPInt.
 ECPInt:  NShTT=    3486 NPrTT=   11183 LenC2=    3256 LenP2D=    8037.
 LDataN:  DoStor=T MaxTD1= 7 Len=  274
 Leave Link 1101 at Sun May 25 05:10:37 2025, MaxMem=  3758096384 cpu:               0.6 elap:               0.1
 (Enter /apps/easybuild-2022/easybuild/software/Compiler/NVHPC/22.11-CUDA-11.7.0/Gaussian/g16c01-CUDA-11.7.0/g16/l1102.exe)
 Symmetrizing basis deriv contribution to polar:
 IMax=3 JMax=2 DiffMx= 0.00D+00
 Leave Link 1102 at Sun May 25 05:10:37 2025, MaxMem=  3758096384 cpu:               0.0 elap:               0.0
 (Enter /apps/easybuild-2022/easybuild/software/Compiler/NVHPC/22.11-CUDA-11.7.0/Gaussian/g16c01-CUDA-11.7.0/g16/l1110.exe)
 Forming Gx(P) for the SCF density, NAtomX=     8.
 Integral derivatives from FoFJK, PRISM(SPDF).
 Do as many integral derivatives as possible in FoFJK.
 G2DrvN: MDV=    3758095408.
 G2DrvN: will do     9 centers at a time, making    1 passes.
 Calling FoFCou, ICntrl=  3107 FMM=F I1Cent=   0 AccDes= 0.00D+00.
 FoFJK:  IHMeth= 1 ICntrl=    3107 DoSepK=F KAlg= 0 I1Cent=           0 FoldK=F
 IRaf=         0 NMat=       1 IRICut=       1 DoRegI=T DoRafI=F ISym2E= 0 IDoP0=0 IntGTp=1.
 FoFCou: FMM=F IPFlag=           0 FMFlag=      100000 FMFlg1=           0
         NFxFlg=           0 DoJE=F BraDBF=F KetDBF=F FulRan=T
         wScrn=  0.000000 ICntrl=      3107 IOpCl=  0 I1Cent=           0 NGrid=           0
         NMat0=    1 NMatS0=      1 NMatT0=    0 NMatD0=    1 NMtDS0=    0 NMtDT0=    0
 Symmetry not used in FoFCou.
 End of G2Drv F.D. properties file   721 does not exist.
 End of G2Drv F.D. properties file   722 does not exist.
 End of G2Drv F.D. properties file   788 does not exist.
 Leave Link 1110 at Sun May 25 05:10:48 2025, MaxMem=  3758096384 cpu:              88.0 elap:              11.1
 (Enter /apps/easybuild-2022/easybuild/software/Compiler/NVHPC/22.11-CUDA-11.7.0/Gaussian/g16c01-CUDA-11.7.0/g16/l1002.exe)
 Minotr:  Closed shell wavefunction.
          IDoAtm=11111111
          Direct CPHF calculation.
          Differentiating once with respect to nuclear coordinates.
          Requested convergence is 1.0D-08 RMS, and 1.0D-07 maximum.
          Secondary convergence is 1.0D-12 RMS, and 1.0D-12 maximum.
          NewPWx=T KeepS1=F KeepF1=F KeepIn=T MapXYZ=F SortEE=F KeepMc=T.
         2406 words used for storage of precomputed grid.
 Keep R1 ints in memory in canonical form, NReq=368655270.
 FoFCou: FMM=F IPFlag=           0 FMFlag=           0 FMFlg1=           0
         NFxFlg=           0 DoJE=F BraDBF=F KetDBF=F FulRan=T
         wScrn=  0.000000 ICntrl=       600 IOpCl=  0 I1Cent=           0 NGrid=           0
         NMat0=    1 NMatS0=  26796 NMatT0=    0 NMatD0=    1 NMtDS0=    0 NMtDT0=    0
 Symmetry not used in FoFCou.
 Two-electron integral symmetry not used.
          MDV=    3758096384 using IRadAn=       1.
          Solving linear equations simultaneously, MaxMat=       0.
          There are    27 degrees of freedom in the 1st order CPHF.  IDoFFX=6 NUNeed=     0.
     21 vectors produced by pass  0 Test12= 2.11D-14 3.70D-09 XBig12= 1.80D-01 1.81D-01.
 AX will form    21 AO Fock derivatives at one time.
     21 vectors produced by pass  1 Test12= 2.11D-14 3.70D-09 XBig12= 1.13D-02 3.93D-02.
     21 vectors produced by pass  2 Test12= 2.11D-14 3.70D-09 XBig12= 9.45D-04 7.63D-03.
     21 vectors produced by pass  3 Test12= 2.11D-14 3.70D-09 XBig12= 2.10D-05 1.37D-03.
     21 vectors produced by pass  4 Test12= 2.11D-14 3.70D-09 XBig12= 1.93D-07 8.27D-05.
     21 vectors produced by pass  5 Test12= 2.11D-14 3.70D-09 XBig12= 1.62D-09 1.01D-05.
     21 vectors produced by pass  6 Test12= 2.11D-14 3.70D-09 XBig12= 1.27D-11 8.94D-07.
     10 vectors produced by pass  7 Test12= 2.11D-14 3.70D-09 XBig12= 6.98D-14 5.14D-08.
      1 vectors produced by pass  8 Test12= 2.11D-14 3.70D-09 XBig12= 3.25D-16 3.95D-09.
 InvSVY:  IOpt=1 It=  1 EMax= 1.11D-15
 Solved reduced A of dimension   158 with    21 vectors.
 End of Minotr F.D. properties file   721 does not exist.
 End of Minotr F.D. properties file   722 does not exist.
 End of Minotr F.D. properties file   788 does not exist.
 Leave Link 1002 at Sun May 25 05:11:02 2025, MaxMem=  3758096384 cpu:             109.8 elap:              14.2
 (Enter /apps/easybuild-2022/easybuild/software/Compiler/NVHPC/22.11-CUDA-11.7.0/Gaussian/g16c01-CUDA-11.7.0/g16/l701.exe)
 ... and contract with generalized density number  0.
 Compute integral second derivatives.
   1 Symmetry operations used in ECPInt.
 ECPInt:  NShTT=    3486 NPrTT=   11183 LenC2=    3256 LenP2D=    8037.
 LDataN:  DoStor=T MaxTD1= 8 Len=  415
 Leave Link  701 at Sun May 25 05:11:02 2025, MaxMem=  3758096384 cpu:               0.6 elap:               0.1
 (Enter /apps/easybuild-2022/easybuild/software/Compiler/NVHPC/22.11-CUDA-11.7.0/Gaussian/g16c01-CUDA-11.7.0/g16/l702.exe)
 L702 exits ... SP integral derivatives will be done elsewhere.
 Leave Link  702 at Sun May 25 05:11:02 2025, MaxMem=  3758096384 cpu:               0.0 elap:               0.0
 (Enter /apps/easybuild-2022/easybuild/software/Compiler/NVHPC/22.11-CUDA-11.7.0/Gaussian/g16c01-CUDA-11.7.0/g16/l703.exe)
 Integral derivatives from FoFJK, PRISM(SPDF).
 Compute integral second derivatives, UseDBF=F ICtDFT=           0.
 Calling FoFJK, ICntrl=    100127 FMM=F ISym2X=0 I1Cent= 0 IOpClX= 0 NMat=1 NMatS=1 NMatT=0.
 FoFJK:  IHMeth= 1 ICntrl=  100127 DoSepK=F KAlg= 0 I1Cent=           0 FoldK=F
 IRaf=         0 NMat=       1 IRICut=       1 DoRegI=T DoRafI=F ISym2E= 0 IDoP0=0 IntGTp=1.
 FoFCou: FMM=F IPFlag=           0 FMFlag=      100000 FMFlg1=         800
         NFxFlg=           0 DoJE=F BraDBF=F KetDBF=F FulRan=T
         wScrn=  0.000000 ICntrl=    100127 IOpCl=  0 I1Cent=           0 NGrid=           0
         NMat0=    1 NMatS0=      1 NMatT0=    0 NMatD0=    1 NMtDS0=    0 NMtDT0=    0
 Symmetry not used in FoFCou.
 Leave Link  703 at Sun May 25 05:11:29 2025, MaxMem=  3758096384 cpu:             211.0 elap:              26.6
 (Enter /apps/easybuild-2022/easybuild/software/Compiler/NVHPC/22.11-CUDA-11.7.0/Gaussian/g16c01-CUDA-11.7.0/g16/l716.exe)
 Dipole        =-4.38839654D-02 1.61226797D-01 1.32813979D-02
 Polarizability= 0.00000000D+00 0.00000000D+00 0.00000000D+00
                 0.00000000D+00 0.00000000D+00 0.00000000D+00
 -------------------------------------------------------------------
 Center     Atomic                   Forces (Hartrees/Bohr)
 Number     Number              X              Y              Z
 -------------------------------------------------------------------
      1        6           0.000855553   -0.000649134   -0.000183875
      2        8           0.000246678    0.000306946   -0.000042627
      3        6           0.019041071    0.005044995   -0.003590523
      4        9          -0.038915177   -0.010806071    0.007329507
      5        9           0.002983141    0.001740442    0.000430247
      6        9           0.002610141    0.001779392   -0.001433694
      7        8           0.017123045    0.003234160   -0.003261525
      8        1          -0.003944451   -0.000650731    0.000752490
 -------------------------------------------------------------------
 Cartesian Forces:  Max     0.038915177 RMS     0.010087382
 Force constants in Cartesian coordinates: 
                1             2             3             4             5 
      1  0.927610D+00
      2  0.615280D+00  0.417397D+00
      3 -0.160025D+00 -0.106083D+00  0.301386D-01
      4 -0.920175D+00 -0.615587D+00  0.158878D+00  0.919180D+00
      5 -0.615266D+00 -0.414693D+00  0.106134D+00  0.615505D+00  0.413357D+00
      6  0.158878D+00  0.106189D+00 -0.286124D-01 -0.158806D+00 -0.106195D+00
      7 -0.705758D-02 -0.270835D-02  0.278897D-03  0.538269D-02  0.363461D-02
      8  0.990832D-03 -0.597477D-02 -0.210768D-03 -0.150274D-02  0.352692D-02
      9  0.397763D-03  0.508245D-03 -0.512718D-02 -0.511464D-03 -0.697605D-03
     10  0.700998D-03  0.143389D-02 -0.688105D-04 -0.110787D-02 -0.128572D-02
     11 -0.977888D-04  0.519967D-03  0.317032D-04 -0.127271D-03 -0.377155D-03
     12 -0.121433D-03 -0.269859D-03  0.113665D-03  0.200537D-03  0.243589D-03
     13  0.631262D-04 -0.717727D-03 -0.123172D-02 -0.940108D-03 -0.368814D-03
     14 -0.159627D-03  0.383859D-03  0.357784D-03  0.311362D-03 -0.360301D-03
     15  0.206021D-03  0.171463D-03  0.146318D-02  0.359310D-03 -0.615586D-04
     16  0.709194D-03 -0.779302D-03  0.147088D-02 -0.124473D-02 -0.276662D-03
     17 -0.259537D-03  0.427264D-03 -0.347481D-03  0.453131D-03 -0.382646D-03
     18  0.783097D-04  0.610947D-04  0.927537D-03 -0.231315D-03  0.211412D-03
     19 -0.136058D-02  0.400900D-02  0.637435D-03 -0.182879D-02 -0.277072D-02
     20 -0.623788D-03  0.193371D-02  0.142810D-03  0.103263D-02 -0.105208D-02
     21  0.490952D-03 -0.760891D-03  0.113348D-02  0.251241D-03  0.529899D-03
     22 -0.490563D-03 -0.929870D-03  0.603267D-04  0.733322D-03  0.828546D-03
     23  0.136566D-03  0.601767D-05 -0.250665D-04 -0.848930D-04 -0.190830D-04
     24  0.956831D-04  0.183739D-03 -0.368451D-04 -0.140718D-03 -0.164282D-03
                6             7             8             9            10 
      6  0.279769D-01
      7 -0.336103D-03  0.260819D+00
      8  0.305818D-03 -0.150599D+00  0.116267D+01
      9  0.305853D-02  0.642073D-01  0.449664D-01  0.598886D+00
     10  0.160282D-03 -0.621228D-03 -0.141742D-01 -0.212185D-02  0.777311D-01
     11  0.153057D-04 -0.148975D-01 -0.311046D-01  0.234011D-02  0.258199D-01
     12 -0.979715D-04 -0.212147D-02  0.219596D-02 -0.922535D-02 -0.140315D-01
     13  0.509398D-03 -0.691731D-01 -0.419405D-02 -0.130718D-01 -0.110091D-01
     14 -0.366473D-03 -0.854668D-02 -0.160917D+00 -0.117954D+00  0.493800D-02
     15 -0.994220D-03 -0.185884D-01 -0.108476D+00 -0.255524D+00  0.109187D-01
     16 -0.426631D-03 -0.837548D-01  0.393651D-01 -0.533388D-01 -0.174228D-01
     17  0.245770D-03  0.386345D-01 -0.173614D+00  0.116755D+00  0.519762D-02
     18 -0.660086D-03 -0.480192D-01  0.106362D+00 -0.228293D+00 -0.454437D-02
     19  0.131063D-03 -0.970501D-01  0.101253D+00  0.436953D-03 -0.418098D-01
     20 -0.208880D-03  0.119503D+00 -0.810770D+00 -0.432122D-01 -0.262391D-01
     21 -0.721876D-03  0.960396D-03 -0.397289D-01 -0.110717D+00  0.923383D-02
     22 -0.110136D-03 -0.854502D-02  0.288619D-01  0.400192D-02 -0.646129D-02
     23  0.147231D-04  0.149795D-01  0.161797D-01 -0.270610D-02  0.430959D-02
     24  0.511728D-04  0.361862D-02 -0.541432D-02  0.694170D-02  0.453734D-03
               11            12            13            14            15 
     11  0.605188D+00
     12  0.119163D-01  0.575011D-02
     13  0.779213D-02  0.111791D-01  0.434075D-01
     14  0.467651D-02 -0.447750D-03 -0.250606D-02  0.203941D+00
     15 -0.212320D-02 -0.260789D-02  0.236672D-01  0.168657D+00  0.362309D+00
     16  0.849941D-02 -0.464375D-02  0.159616D-01  0.344640D-02 -0.199593D-01
     17  0.469292D-02 -0.137094D-02 -0.559370D-03  0.196234D-01 -0.749370D-02
     18 -0.908864D-03  0.380828D-02 -0.252986D-01  0.137003D-01 -0.950023D-01
     19 -0.304258D-01  0.910990D-02  0.239158D-01  0.710473D-02  0.606422D-02
     20  0.379594D-02  0.499422D-02  0.278909D-02 -0.646558D-01 -0.500043D-01
     21  0.581711D-02  0.740280D-02  0.452367D-02 -0.638122D-01 -0.844950D-02
     22  0.343683D-02  0.428616D-03 -0.222573D-02 -0.458811D-02 -0.266780D-02
     23 -0.587392D+00 -0.172615D-01 -0.223519D-02 -0.269135D-02 -0.669509D-03
     24 -0.170884D-01 -0.514365D-02 -0.277306D-03 -0.134267D-03 -0.119454D-02
               16            17            18            19            20 
     16  0.706994D-01
     17 -0.696953D-01  0.222553D+00
     18  0.893533D-01 -0.162370D+00  0.316250D+00
     19  0.161688D-01  0.305778D-01 -0.137307D-01  0.100456D+00
     20  0.212836D-01 -0.704958D-01  0.415328D-01 -0.106225D+00  0.954532D+00
     21 -0.125930D-01  0.527532D-01  0.516275D-02 -0.166196D-02  0.448084D-01
     22 -0.111671D-02 -0.434885D-02  0.239260D-02  0.150808D-02 -0.115209D-01
     23 -0.184325D-02 -0.280393D-02  0.141163D-02 -0.352277D-02 -0.132879D-01
     24  0.137338D-03  0.182805D-02 -0.219305D-02 -0.986906D-03  0.194703D-02
               21            22            23            24 
     21  0.108889D+00
     22 -0.120508D-02  0.165979D-01
     23  0.393319D-03 -0.117395D-01  0.590008D+00
     24 -0.269994D-02 -0.290045D-02  0.188425D-01  0.427515D-02
 FormGI is forming the generalized inverse of G from B-inverse, IUseBI=4.
 Force constants in internal coordinates: 
                1             2             3             4             5 
      1  0.135913D+01
      2 -0.177599D-02  0.766470D-02
      3  0.107104D-02 -0.460288D-02  0.874370D-02
      4  0.129840D-02  0.111385D-02 -0.129876D-02  0.413206D-01
      5 -0.346612D-03 -0.356724D-02  0.464486D-02  0.786651D-02  0.470132D+00
      6 -0.363203D-03 -0.366364D-02  0.470124D-02  0.782163D-02  0.616711D-01
      7  0.171409D-03 -0.234941D-01  0.385898D-01  0.563792D-02  0.677817D-01
      8 -0.994719D-04  0.627511D-03 -0.223307D-02  0.253320D-01  0.967423D-02
      9 -0.664660D-03  0.315472D-02 -0.254929D-02  0.156856D-01  0.409020D-05
     10 -0.268986D-03 -0.150687D-02  0.195366D-02  0.776459D-04  0.532756D-02
     11 -0.260572D-03  0.252930D-02 -0.451411D-02 -0.991053D-03 -0.660842D-02
     12  0.325426D-03 -0.249959D-02  0.462782D-02 -0.689065D-02  0.737324D-02
     13  0.317545D-03 -0.264683D-02  0.464581D-02 -0.691348D-02  0.119276D-02
     14 -0.679742D-03 -0.123768D-02  0.128831D-02  0.706554D-02  0.876833D-02
     15 -0.676091D-03 -0.116136D-02  0.129073D-02  0.704752D-02 -0.928006D-03
     16 -0.656784D-03  0.841492D-02 -0.104339D-01  0.165334D-02 -0.951667D-02
     17  0.144357D-03  0.122446D-02 -0.173285D-02 -0.214015D-03  0.237025D-01
     18  0.822957D-05 -0.828544D-03  0.118180D-02 -0.475270D-03  0.128220D-01
     19  0.992983D-05 -0.968862D-03  0.129260D-02 -0.542772D-03 -0.363552D-01
     20 -0.313435D-03 -0.835571D-02  0.104022D-01 -0.139666D-01  0.533302D-02
     21 -0.692469D-03  0.388712D-02 -0.713384D-02  0.456822D-02 -0.117180D-01
     22  0.559269D-03 -0.218954D-02 -0.255931D-03  0.369407D-02 -0.612773D-02
     23  0.410950D-03  0.213033D-02  0.287595D-03  0.861921D-02  0.103108D-01
     24 -0.354316D-03 -0.373727D-02  0.591613D-02  0.174883D-03  0.161416D-01
     25 -0.489913D-03 -0.516582D-02  0.809355D-02  0.247672D-03  0.790363D-02
     26 -0.103877D-03 -0.611315D-03  0.854651D-03  0.128494D-03 -0.103695D-01
     27  0.427693D-04  0.594638D-03 -0.845101D-03 -0.134824D-03  0.133576D-01
     28 -0.129101D-04  0.603319D-04 -0.453738D-04  0.427473D-04 -0.432788D-02
     29  0.149188D-04  0.487494D-03 -0.740366D-03  0.473547D-03 -0.416327D-02
     30 -0.182746D-04 -0.545250D-03  0.788531D-03 -0.476179D-03 -0.286351D-01
     31 -0.245453D-05  0.411441D-04 -0.308189D-04  0.320888D-04  0.820631D-02
     32  0.117947D-05 -0.197620D-04  0.148134D-04 -0.156671D-04 -0.394757D-02
     33 -0.130632D-02  0.449347D-02 -0.588555D-02  0.986973D-02 -0.628675D-04
     34  0.130421D-02 -0.462797D-02  0.591302D-02 -0.987942D-02  0.376991D-02
     35  0.152716D-05 -0.254180D-04  0.186939D-04 -0.201258D-04 -0.514577D-02
     36 -0.340492D-05 -0.363794D-04  0.179097D-04 -0.217948D-04  0.141749D-02
     37 -0.263381D-05  0.446498D-04 -0.333982D-04  0.352562D-04  0.890983D-02
                6             7             8             9            10 
      6  0.470373D+00
      7  0.677116D-01  0.692478D+00
      8  0.968672D-02  0.134233D+00  0.497354D+00
      9  0.240605D-04  0.271236D-01 -0.799235D-02  0.185651D-01
     10  0.532613D-02  0.628020D-01  0.122024D-01  0.272042D-02  0.698023D-02
     11 -0.654321D-02 -0.592157D-01 -0.119351D-01 -0.223888D-02 -0.416543D-02
     12  0.151379D-02  0.442016D-01  0.868172D-03 -0.736650D-03  0.444623D-02
     13  0.702643D-02  0.438032D-01  0.104437D-02 -0.791095D-03  0.443336D-02
     14 -0.784051D-03  0.394239D-01 -0.227910D-01  0.345562D-02  0.350772D-02
     15  0.861745D-02  0.394918D-01 -0.227534D-01  0.346343D-02  0.348900D-02
     16 -0.946081D-02 -0.667938D-01  0.591118D-01  0.200046D-02 -0.571143D-02
     17  0.233583D-01 -0.234682D-01 -0.427155D-02 -0.659496D-04 -0.174643D-02
     18 -0.359174D-01  0.115501D-01  0.121983D-02 -0.345208D-03  0.853262D-03
     19  0.127249D-01  0.119101D-01  0.127580D-02 -0.299507D-03  0.872488D-03
     20  0.530430D-02  0.788781D-01 -0.386614D-01 -0.336090D-02  0.711237D-02
     21 -0.117935D-01 -0.129365D+00  0.347829D-01 -0.956904D-02 -0.111454D-01
     22 -0.616217D-02 -0.819099D-01  0.375962D-01 -0.112393D-01 -0.776745D-02
     23  0.103192D-01  0.698257D-01 -0.580466D-01  0.125997D-01  0.636651D-02
     24  0.729735D-03  0.836255D-01 -0.219228D-01  0.271896D-02  0.795395D-02
     25  0.189087D-01  0.114048D+00 -0.308385D-01  0.375495D-02  0.108895D-01
     26 -0.132874D-01  0.118104D-01  0.214975D-02  0.397412D-04  0.833379D-03
     27  0.101073D-01 -0.113443D-01 -0.211484D-02 -0.317184D-04 -0.881386D-03
     28  0.472265D-02 -0.755703D-03 -0.467354D-04 -0.183217D-04 -0.986953D-04
     29  0.285420D-01 -0.860133D-02 -0.402168D-02  0.273790D-03 -0.599269D-03
     30  0.441748D-02  0.847404D-02  0.403090D-02 -0.230994D-03  0.578652D-03
     31 -0.785774D-02 -0.241101D-03 -0.261352D-04 -0.171875D-05 -0.197681D-04
     32  0.377954D-02  0.113686D-03  0.498257D-05  0.106915D-05  0.930206D-05
     33 -0.372027D-02  0.690825D-03  0.143086D-01  0.569080D-02  0.227770D-03
     34  0.388231D-04 -0.544793D-03 -0.143455D-01 -0.569802D-02 -0.185996D-03
     35  0.492495D-02  0.139923D-03  0.145586D-04  0.000000D+00  0.113765D-04
     36 -0.168794D-02  0.107857D-03 -0.554473D-04  0.348134D-05  0.765676D-05
     37 -0.853076D-02 -0.260393D-03 -0.289433D-04 -0.170232D-05 -0.213463D-04
               11            12            13            14            15 
     11  0.620647D-02
     12 -0.323881D-02  0.199597D-01
     13 -0.316818D-02  0.111167D-01  0.197136D-01
     14 -0.349899D-02 -0.139693D-01 -0.809084D-02  0.284554D-01
     15 -0.350862D-02 -0.803971D-02 -0.138244D-01  0.142883D-01  0.283816D-01
     16  0.575346D-02 -0.425659D-02 -0.418694D-02 -0.129149D-01 -0.128936D-01
     17  0.236888D-02 -0.208688D-02 -0.279130D-02 -0.280713D-02 -0.353077D-02
     18 -0.120423D-02  0.833156D-02 -0.388268D-02  0.896722D-02 -0.794526D-02
     19 -0.114900D-02 -0.416490D-02  0.874263D-02 -0.828003D-02  0.936219D-02
     20 -0.651590D-02  0.678749D-02  0.672333D-02  0.955660D-02  0.954547D-02
     21  0.116475D-01 -0.117586D-01 -0.117336D-01 -0.572540D-02 -0.570983D-02
     22  0.684870D-02 -0.737431D-02 -0.729136D-02 -0.344051D-02 -0.347072D-02
     23 -0.608626D-02  0.484332D-02  0.475506D-02  0.679852D-02  0.681916D-02
     24 -0.673780D-02  0.599046D-02  0.302582D-02  0.144861D-01  0.624862D-02
     25 -0.911196D-02  0.494583D-02  0.686924D-02  0.113473D-01  0.173049D-01
     26 -0.124021D-02  0.130115D-02  0.107333D-02  0.153361D-02  0.174245D-02
     27  0.110590D-02 -0.683853D-03 -0.159916D-02 -0.134629D-02 -0.187231D-02
     28  0.422733D-04 -0.181945D-02  0.173154D-02 -0.145175D-03  0.428825D-04
     29  0.933500D-03 -0.693994D-02  0.267837D-02 -0.341119D-02  0.374570D-02
     30 -0.869178D-03 -0.302559D-02  0.729262D-02 -0.411805D-02  0.377329D-02
     31  0.424439D-05  0.129354D-02 -0.135350D-02  0.483499D-02 -0.487043D-02
     32 -0.183926D-05 -0.622270D-03  0.651002D-03 -0.232538D-02  0.234311D-02
     33 -0.177036D-03 -0.209252D-01 -0.122825D-01  0.233835D-01  0.107445D-01
     34  0.185627D-03  0.122968D-01  0.207281D-01 -0.107129D-01 -0.232885D-01
     35 -0.169923D-05 -0.811675D-03  0.847786D-03 -0.303174D-02  0.305269D-02
     36 -0.145319D-04  0.266724D-03 -0.276448D-03  0.925838D-03 -0.888417D-03
     37  0.448234D-05  0.140442D-02 -0.146944D-02  0.524950D-02 -0.528759D-02
               16            17            18            19            20 
     16  0.279317D-01
     17  0.187773D-02  0.761248D-01
     18 -0.122045D-02 -0.372439D-01  0.622688D-01
     19 -0.118001D-02 -0.388186D-01 -0.248683D-01  0.638400D-01
     20 -0.246875D-01 -0.162223D-02  0.118352D-02  0.118568D-02  0.288359D-01
     21  0.153496D-01  0.530247D-02 -0.280954D-02 -0.300579D-02 -0.165612D-01
     22  0.520348D-02  0.332578D-02 -0.157425D-02 -0.169728D-02 -0.609245D-02
     23 -0.844767D-02 -0.358132D-02  0.161017D-02  0.169267D-02  0.194407D-02
     24 -0.171715D-01 -0.489400D-02  0.172988D-01 -0.124449D-01  0.163441D-01
     25 -0.237095D-01 -0.135427D-02 -0.100729D-01  0.113516D-01  0.225680D-01
     26 -0.948939D-03 -0.382276D-01  0.204270D-01  0.177626D-01  0.813300D-03
     27  0.898740D-03  0.378799D-01 -0.168139D-01 -0.210269D-01 -0.760781D-03
     28  0.641326D-04  0.630992D-03 -0.761060D-02  0.697956D-02 -0.834238D-04
     29 -0.980140D-04  0.378832D-01 -0.465325D-01  0.850440D-02 -0.395984D-04
     30  0.144749D-03 -0.381098D-01 -0.918205D-02  0.474338D-01  0.143501D-04
     31  0.192227D-05  0.673489D-03  0.157412D-01 -0.164143D-01 -0.125700D-04
     32 -0.175248D-05 -0.323883D-03 -0.757183D-02  0.789555D-02  0.653393D-05
     33  0.412820D-02 -0.217843D-02  0.216508D-02 -0.297202D-02 -0.593187D-02
     34 -0.415797D-02  0.241408D-02  0.291497D-02 -0.235150D-02  0.595892D-02
     35  0.000000D+00 -0.421818D-03 -0.986850D-02  0.102901D-01  0.661088D-05
     36 -0.137201D-04 -0.325783D-03  0.344321D-02 -0.311796D-02  0.193186D-04
     37  0.185870D-05  0.731125D-03  0.170901D-01 -0.178208D-01 -0.136466D-04
               21            22            23            24            25 
     21  0.372518D-01
     22  0.286440D-01  0.270656D-01
     23 -0.274323D-01 -0.261766D-01  0.326802D-01
     24 -0.174840D-01 -0.108148D-01  0.116418D-01  0.204766D-01
     25 -0.238142D-01 -0.146962D-01  0.158380D-01  0.162932D-01  0.309503D-01
     26 -0.265515D-02 -0.166953D-02  0.180517D-02  0.283476D-02  0.428387D-03
     27  0.256354D-02  0.160402D-02 -0.174202D-02 -0.203014D-02 -0.881757D-03
     28  0.197676D-03  0.126488D-03 -0.107073D-03 -0.196462D-02  0.127081D-02
     29  0.218071D-02  0.138168D-02 -0.124350D-02 -0.103511D-01  0.677650D-02
     30 -0.220519D-02 -0.139077D-02  0.123228D-02 -0.714364D-02  0.577309D-02
     31  0.853728D-04  0.568049D-04 -0.466057D-04  0.612853D-02 -0.443889D-02
     32 -0.415629D-04 -0.279075D-04  0.233418D-04 -0.294765D-02  0.213560D-02
     33  0.393131D-02 -0.522766D-03  0.232628D-02  0.245830D-02 -0.820535D-03
     34 -0.403492D-02  0.503386D-03 -0.230450D-02  0.158388D-02 -0.209570D-02
     35 -0.513554D-04 -0.342134D-04  0.279768D-04 -0.384341D-02  0.278091D-02
     36 -0.588464D-04 -0.302007D-04  0.245071D-04  0.119256D-02 -0.856754D-03
     37  0.923165D-04  0.613764D-04 -0.500754D-04  0.665392D-02 -0.481894D-02
               26            27            28            29            30 
     26  0.194868D-01
     27 -0.187330D-01  0.191383D-01
     28 -0.869719D-03 -0.235405D-03  0.197824D-02
     29 -0.203525D-01  0.175258D-01  0.570952D-02  0.377975D-01
     30  0.178012D-01 -0.202833D-01  0.508374D-02 -0.307738D-03  0.380267D-01
     31  0.594586D-04  0.730036D-03 -0.191077D-02 -0.880213D-02 -0.947650D-02
     32 -0.286401D-04 -0.351123D-03  0.919118D-03  0.423406D-02  0.455831D-02
     33  0.103913D-02 -0.124903D-02  0.838499D-03  0.283530D-03 -0.344102D-03
     34 -0.137331D-02  0.116731D-02  0.867542D-03 -0.248945D-03  0.130469D-03
     35 -0.374761D-04 -0.457475D-03  0.119790D-02  0.551830D-02  0.594078D-02
     36  0.406070D-03  0.796932D-04 -0.618032D-03 -0.197244D-02 -0.164813D-02
     37  0.645923D-04  0.792557D-03 -0.207451D-02 -0.955642D-02 -0.102885D-01
               31            32            33            34            35 
     31  0.693984D-02
     32 -0.333820D-02  0.160574D-02
     33  0.250692D-02 -0.120604D-02  0.305214D-01
     34  0.254469D-02 -0.122388D-02 -0.174108D-01  0.304071D-01
     35 -0.435066D-02  0.209275D-02 -0.157160D-02 -0.159532D-02  0.272747D-02
     36  0.147105D-02 -0.707603D-03  0.398627D-03  0.374745D-03 -0.922220D-03
     37  0.753452D-02 -0.362425D-02  0.272182D-02  0.276268D-02 -0.472347D-02
               36            37 
     36  0.659271D-03
     37  0.159711D-02  0.818017D-02
 Leave Link  716 at Sun May 25 05:11:29 2025, MaxMem=  3758096384 cpu:               0.0 elap:               0.0
 (Enter /apps/easybuild-2022/easybuild/software/Compiler/NVHPC/22.11-CUDA-11.7.0/Gaussian/g16c01-CUDA-11.7.0/g16/l103.exe)

 GradGradGradGradGradGradGradGradGradGradGradGradGradGradGradGradGradGrad
 Berny optimization.
 Red2BG is reusing G-inverse.
 Internal  Forces:  Max     0.029839127 RMS     0.006057346
 Search for a local minimum.
 Step number   1 out of a maximum of   47
 All quantities printed in internal units (Hartrees-Bohrs-Radians)
 RMS Force = .60573D-02 SwitMx=.10000D-02 MixMth= 1
 Mixed Optimization -- RFO/linear search
 Second derivative matrix not updated -- analytic derivatives used.
 ITU=  0
     Eigenvalues ---    0.00012   0.00079   0.00082   0.00370   0.00394
     Eigenvalues ---    0.00743   0.00932   0.03288   0.03699   0.06785
     Eigenvalues ---    0.11319   0.13917   0.17804   0.42418   0.50210
     Eigenvalues ---    0.53352   0.86717   1.35914
 RFO step:  Lambda=-1.76000959D-02 EMin= 1.19028892D-04
 Linear search not attempted -- first point.
 Maximum step size (   0.300) exceeded in Quadratic search.
    -- Step size scaled by   0.586
 Iteration  1 RMS(Cart)=  0.03689253 RMS(Int)=  0.00789625
 Iteration  2 RMS(Cart)=  0.00693495 RMS(Int)=  0.00011689
 Iteration  3 RMS(Cart)=  0.00001919 RMS(Int)=  0.00011437
 Iteration  4 RMS(Cart)=  0.00000000 RMS(Int)=  0.00011437
 ITry= 1 IFail=0 DXMaxC= 1.86D-01 DCOld= 1.00D+10 DXMaxT= 3.00D-01 DXLimC= 3.00D+00 Rises=F
 Variable       Old X    -DE/DX   Delta X   Delta X   Delta X     New X
                                 (Linear)    (Quad)   (Total)
    R1        2.11460   0.00038   0.00000  -0.00013  -0.00013   2.11446
    R2        5.60096   0.00117   0.00000  -0.00886  -0.00884   5.59212
    R3        5.88746  -0.00023   0.00000   0.03653   0.03652   5.92398
    R4        3.85318   0.02984   0.00000   0.25390   0.25382   4.10700
    R5        2.46383  -0.00144   0.00000  -0.00512  -0.00512   2.45871
    R6        2.46387  -0.00144   0.00000  -0.00510  -0.00510   2.45877
    R7        2.22536  -0.00234   0.00000  -0.00605  -0.00624   2.21912
    R8        1.74975   0.00459   0.00000  -0.00164  -0.00145   1.74830
    R9        3.63828   0.01512   0.00000   0.13981   0.13991   3.77819
    A1        2.76848  -0.00034   0.00000   0.00278   0.00272   2.77121
    A2        2.38178   0.00009   0.00000   0.00581   0.00587   2.38764
    A3        1.57479  -0.00239   0.00000   0.00192   0.00192   1.57670
    A4        1.57195  -0.00238   0.00000   0.00256   0.00256   1.57451
    A5        1.62979   0.00151   0.00000  -0.00595  -0.00586   1.62393
    A6        1.62989   0.00150   0.00000  -0.00601  -0.00592   1.62397
    A7        1.53190   0.00174   0.00000  -0.01581  -0.01610   1.51580
    A8        1.89373   0.00040   0.00000   0.00226   0.00215   1.89588
    A9        2.19333  -0.00040   0.00000   0.00002  -0.00017   2.19316
   A10        2.19334  -0.00040   0.00000   0.00006  -0.00013   2.19321
   A11        1.47904  -0.01000   0.00000  -0.04492  -0.04475   1.43429
   A12        2.72778   0.00094   0.00000   0.00150   0.00131   2.72909
   A13        1.47702   0.00025   0.00000   0.02054   0.02039   1.49741
   A14        1.79523   0.00802   0.00000   0.04019   0.04046   1.83569
   A15        3.20457  -0.00088   0.00000  -0.00403  -0.00394   3.20063
   A16        3.22638  -0.00117   0.00000  -0.00484  -0.00472   3.22166
    D1        2.20034  -0.00020   0.00000  -0.00112  -0.00107   2.19926
    D2       -2.18911   0.00019   0.00000   0.00115   0.00110  -2.18801
    D3       -3.13444   0.00001   0.00000  -0.00061  -0.00062  -3.13505
    D4       -2.19223   0.00033   0.00000   0.00042   0.00040  -2.19184
    D5        2.19236  -0.00032   0.00000  -0.00086  -0.00084   2.19152
    D6        0.00006   0.00000   0.00000  -0.00024  -0.00024  -0.00018
    D7       -0.00003  -0.00000   0.00000   0.00012   0.00011   0.00008
    D8        1.61548   0.00310   0.00000  -0.01854  -0.01863   1.59685
    D9       -1.61565  -0.00309   0.00000   0.01885   0.01893  -1.59672
   D10       -0.00004  -0.00000   0.00000   0.00015   0.00015   0.00011
   D11       -0.00387  -0.00000   0.00000   0.00034   0.00033  -0.00354
   D12        0.00006   0.00001   0.00000  -0.00026  -0.00027  -0.00021
         Item               Value     Threshold  Converged?
 Maximum Force            0.029839     0.000450     NO 
 RMS     Force            0.006057     0.000300     NO 
 Maximum Displacement     0.186223     0.001800     NO 
 RMS     Displacement     0.042988     0.001200     NO 
 Predicted change in Energy=-8.087882D-03
 Lowest energy point so far.  Saving SCF results.
 GradGradGradGradGradGradGradGradGradGradGradGradGradGradGradGradGradGrad

 Leave Link  103 at Sun May 25 05:11:29 2025, MaxMem=  3758096384 cpu:               0.0 elap:               0.0
 (Enter /apps/easybuild-2022/easybuild/software/Compiler/NVHPC/22.11-CUDA-11.7.0/Gaussian/g16c01-CUDA-11.7.0/g16/l202.exe)
                          Input orientation:                          
 ---------------------------------------------------------------------
 Center     Atomic      Atomic             Coordinates (Angstroms)
 Number     Number       Type             X           Y           Z
 ---------------------------------------------------------------------
      1          6           0        2.371617    0.493173   -0.447896
      2          8           0        3.295513    1.103783   -0.607791
      3          6           0       -0.474337   -0.115308    0.088108
      4          9           0       -2.596043   -0.348992    0.496911
      5          9           0       -0.534064   -0.829746   -0.997641
      6          9           0       -0.128068   -0.888372    1.075730
      7          8           0       -0.654921    1.043031    0.156178
      8          1           0       -2.565003    0.575429    0.517113
 ---------------------------------------------------------------------
                    Distance matrix (angstroms):
                    1          2          3          4          5
     1  C    0.000000
     2  O    1.118926   0.000000
     3  C    2.959223   4.022713   0.000000
     4  F    5.126358   6.167767   2.173330   0.000000
     5  F    3.239647   4.307688   1.301092   2.591634   0.000000
     6  F    3.237055   4.303932   1.301126   2.591692   2.113561
     7  O    3.134834   4.024086   1.174306   2.412837   2.202998
     8  H    5.030728   5.990844   2.243223   0.925162   2.897190
                    6          7          8
     6  F    0.000000
     7  O    2.203059   0.000000
     8  H    2.897140   1.999334   0.000000
 Symmetry turned off by external request.
 Stoichiometry    C2HF3O2
 Rotational constants (GHZ):           5.5867021           1.0787676           1.0660415
 Leave Link  202 at Sun May 25 05:11:29 2025, MaxMem=  3758096384 cpu:               0.0 elap:               0.0
 (Enter /apps/easybuild-2022/easybuild/software/Compiler/NVHPC/22.11-CUDA-11.7.0/Gaussian/g16c01-CUDA-11.7.0/g16/l301.exe)
 Standard basis: def2TZVPP (5D, 7F)
 Ernie: Thresh=  0.10000D-02 Tol=  0.10000D-05 Strict=F.
   231 basis functions,   374 primitive gaussians,   267 cartesian basis functions
    28 alpha electrons       28 beta electrons
       nuclear repulsion energy       294.8167663314 Hartrees.
 IExCor= 4336 DFT=T Ex+Corr=M062X ExCW=0 ScaHFX=  0.540000
 ScaDFX=  1.000000  1.000000  1.000000  1.000000 ScalE2=  1.000000  1.000000
 IRadAn=      5 IRanWt=     -1 IRanGd=            0 ICorTp=0 IEmpDi=  4
 NAtoms=    8 NActive=    8 NUniq=    8 SFac= 1.00D+00 NAtFMM=   60 NAOKFM=F Big=F
 Integral buffers will be    131072 words long.
 Raffenetti 2 integral format.
 Two-electron integral symmetry is turned off.
 Leave Link  301 at Sun May 25 05:11:29 2025, MaxMem=  3758096384 cpu:               0.0 elap:               0.0
 (Enter /apps/easybuild-2022/easybuild/software/Compiler/NVHPC/22.11-CUDA-11.7.0/Gaussian/g16c01-CUDA-11.7.0/g16/l302.exe)
 NPDir=0 NMtPBC=     1 NCelOv=     1 NCel=       1 NClECP=     1 NCelD=      1
         NCelK=      1 NCelE2=     1 NClLst=     1 CellRange=     0.0.
 One-electron integrals computed using PRISM.
   1 Symmetry operations used in ECPInt.
 ECPInt:  NShTT=    3486 NPrTT=   11183 LenC2=    3249 LenP2D=    8011.
 LDataN:  DoStor=T MaxTD1= 6 Len=  172
 NBasis=   231 RedAO= T EigKep=  9.86D-04  NBF=   231
 NBsUse=   231 1.00D-06 EigRej= -1.00D+00 NBFU=   231
 Precomputing XC quadrature grid using
 IXCGrd= 4 IRadAn=           5 IRanWt=          -1 IRanGd=           0 AccXCQ= 0.00D+00.
 Generated NRdTot=       0 NPtTot=           0 NUsed=           0 NTot=          32
 NSgBfM=   263   263   263   263   263 MxSgAt=     8 MxSgA2=     8.
 Leave Link  302 at Sun May 25 05:11:29 2025, MaxMem=  3758096384 cpu:               0.4 elap:               0.1
 (Enter /apps/easybuild-2022/easybuild/software/Compiler/NVHPC/22.11-CUDA-11.7.0/Gaussian/g16c01-CUDA-11.7.0/g16/l303.exe)
 DipDrv:  MaxL=1.
 Leave Link  303 at Sun May 25 05:11:29 2025, MaxMem=  3758096384 cpu:               0.1 elap:               0.0
 (Enter /apps/easybuild-2022/easybuild/software/Compiler/NVHPC/22.11-CUDA-11.7.0/Gaussian/g16c01-CUDA-11.7.0/g16/l401.exe)
 Initial guess from the checkpoint file:  "1141903082400600000001_r13_insertion_ROR_4_3_1_7_IRC_F_prod.chk"
 B after Tr=     0.008441    0.002696   -0.001567
         Rot=    1.000000    0.000159   -0.000018    0.000798 Ang=   0.09 deg.
 Guess basis will be translated and rotated to current coordinates.
 JPrj=2 DoOrth=T DoCkMO=T.
 Generating alternative initial guess.
 ExpMin= 9.52D-02 ExpMax= 3.55D+04 ExpMxC= 1.21D+03 IAcc=3 IRadAn=         5 AccDes= 0.00D+00
 Harris functional with IExCor= 1009 and IRadAn=       5 diagonalized for initial guess.
 HarFok:  IExCor= 1009 AccDes= 0.00D+00 IRadAn=         5 IDoV= 1 UseB2=F ITyADJ=14
 ICtDFT=  3500011 ScaDFX=  1.000000  1.000000  1.000000  1.000000
 FoFCou: FMM=F IPFlag=           0 FMFlag=      100000 FMFlg1=           0
         NFxFlg=           0 DoJE=T BraDBF=F KetDBF=T FulRan=T
         wScrn=  0.000000 ICntrl=       500 IOpCl=  0 I1Cent=   200000004 NGrid=           0
         NMat0=    1 NMatS0=      1 NMatT0=    0 NMatD0=    1 NMtDS0=    0 NMtDT0=    0
 Symmetry not used in FoFCou.
 Harris En= -526.510183929618    
 Leave Link  401 at Sun May 25 05:11:29 2025, MaxMem=  3758096384 cpu:               1.9 elap:               0.3
 (Enter /apps/easybuild-2022/easybuild/software/Compiler/NVHPC/22.11-CUDA-11.7.0/Gaussian/g16c01-CUDA-11.7.0/g16/l502.exe)
 Keep R1 ints in memory in canonical form, NReq=368651295.
 FoFCou: FMM=F IPFlag=           0 FMFlag=           0 FMFlg1=           0
         NFxFlg=           0 DoJE=F BraDBF=F KetDBF=F FulRan=T
         wScrn=  0.000000 ICntrl=       600 IOpCl=  0 I1Cent=           0 NGrid=           0
         NMat0=    1 NMatS0=  26796 NMatT0=    0 NMatD0=    1 NMtDS0=    0 NMtDT0=    0
 Symmetry not used in FoFCou.
 Two-electron integral symmetry not used.
 Closed shell SCF:
 Using DIIS extrapolation, IDIIS=  1040.
 NGot=  3758096384 LenX=  3398923515 LenY=  3398851785
 Requested convergence on RMS density matrix=1.00D-08 within  32 cycles.
 Requested convergence on MAX density matrix=1.00D-06.
 Requested convergence on             energy=1.00D-06.
 No special actions if energy rises.
 Integral accuracy reduced to 1.0D-05 until final iterations.

 Cycle   1  Pass 0  IDiag  1:
 E= -526.823109802122    
 DIIS: error= 1.49D-03 at cycle   1 NSaved=   1.
 NSaved= 1 IEnMin= 1 EnMin= -526.823109802122     IErMin= 1 ErrMin= 1.49D-03
 ErrMax= 1.49D-03  0.00D+00 EMaxC= 1.00D-01 BMatC= 1.06D-03 BMatP= 1.06D-03
 IDIUse=3 WtCom= 9.85D-01 WtEn= 1.49D-02
 Coeff-Com:  0.100D+01
 Coeff-En:   0.100D+01
 Coeff:      0.100D+01
 Gap=     1.015 Goal=   None    Shift=    0.000
 GapD=    1.015 DampG=2.000 DampE=1.000 DampFc=2.0000 IDamp=-1.
 RMSDP=1.44D-04 MaxDP=5.38D-03              OVMax= 1.79D-02

 Cycle   2  Pass 0  IDiag  1:
 E= -526.824540941550     Delta-E=       -0.001431139428 Rises=F Damp=F
 DIIS: error= 4.64D-04 at cycle   2 NSaved=   2.
 NSaved= 2 IEnMin= 2 EnMin= -526.824540941550     IErMin= 2 ErrMin= 4.64D-04
 ErrMax= 4.64D-04  0.00D+00 EMaxC= 1.00D-01 BMatC= 4.49D-05 BMatP= 1.06D-03
 IDIUse=3 WtCom= 9.95D-01 WtEn= 4.64D-03
 Coeff-Com: -0.657D-01 0.107D+01
 Coeff-En:   0.000D+00 0.100D+01
 Coeff:     -0.654D-01 0.107D+01
 Gap=     0.459 Goal=   None    Shift=    0.000
 RMSDP=3.82D-05 MaxDP=1.47D-03 DE=-1.43D-03 OVMax= 5.12D-03

 Cycle   3  Pass 0  IDiag  1:
 E= -526.824614006854     Delta-E=       -0.000073065304 Rises=F Damp=F
 DIIS: error= 1.87D-04 at cycle   3 NSaved=   3.
 NSaved= 3 IEnMin= 3 EnMin= -526.824614006854     IErMin= 3 ErrMin= 1.87D-04
 ErrMax= 1.87D-04  0.00D+00 EMaxC= 1.00D-01 BMatC= 1.42D-05 BMatP= 4.49D-05
 IDIUse=3 WtCom= 9.98D-01 WtEn= 1.87D-03
 Coeff-Com: -0.472D-01 0.348D+00 0.700D+00
 Coeff-En:   0.000D+00 0.000D+00 0.100D+01
 Coeff:     -0.471D-01 0.347D+00 0.700D+00
 Gap=     0.458 Goal=   None    Shift=    0.000
 RMSDP=1.23D-05 MaxDP=4.84D-04 DE=-7.31D-05 OVMax= 1.52D-03

 Cycle   4  Pass 0  IDiag  1:
 E= -526.824622755102     Delta-E=       -0.000008748248 Rises=F Damp=F
 DIIS: error= 1.46D-04 at cycle   4 NSaved=   4.
 NSaved= 4 IEnMin= 4 EnMin= -526.824622755102     IErMin= 4 ErrMin= 1.46D-04
 ErrMax= 1.46D-04  0.00D+00 EMaxC= 1.00D-01 BMatC= 5.43D-06 BMatP= 1.42D-05
 IDIUse=3 WtCom= 9.99D-01 WtEn= 1.46D-03
 Coeff-Com: -0.137D-01 0.655D-04 0.382D+00 0.632D+00
 Coeff-En:   0.000D+00 0.000D+00 0.109D+00 0.891D+00
 Coeff:     -0.137D-01 0.654D-04 0.382D+00 0.632D+00
 Gap=     0.459 Goal=   None    Shift=    0.000
 RMSDP=5.60D-06 MaxDP=2.40D-04 DE=-8.75D-06 OVMax= 5.56D-04

 Initial convergence to 1.0D-05 achieved.  Increase integral accuracy.
 Cycle   5  Pass 1  IDiag  1:
 E= -526.824642552519     Delta-E=       -0.000019797417 Rises=F Damp=F
 DIIS: error= 4.27D-05 at cycle   1 NSaved=   1.
 NSaved= 1 IEnMin= 1 EnMin= -526.824642552519     IErMin= 1 ErrMin= 4.27D-05
 ErrMax= 4.27D-05  0.00D+00 EMaxC= 1.00D-01 BMatC= 5.63D-07 BMatP= 5.63D-07
 IDIUse=1 WtCom= 1.00D+00 WtEn= 0.00D+00
 Coeff-Com:  0.100D+01
 Coeff:      0.100D+01
 Gap=     0.458 Goal=   None    Shift=    0.000
 RMSDP=5.60D-06 MaxDP=2.40D-04 DE=-1.98D-05 OVMax= 2.52D-04

 Cycle   6  Pass 1  IDiag  1:
 E= -526.824642712168     Delta-E=       -0.000000159649 Rises=F Damp=F
 DIIS: error= 7.18D-05 at cycle   2 NSaved=   2.
 NSaved= 2 IEnMin= 2 EnMin= -526.824642712168     IErMin= 1 ErrMin= 4.27D-05
 ErrMax= 7.18D-05  0.00D+00 EMaxC= 1.00D-01 BMatC= 4.98D-07 BMatP= 5.63D-07
 IDIUse=1 WtCom= 1.00D+00 WtEn= 0.00D+00
 Coeff-Com:  0.480D+00 0.520D+00
 Coeff:      0.480D+00 0.520D+00
 Gap=     0.458 Goal=   None    Shift=    0.000
 RMSDP=1.55D-06 MaxDP=7.00D-05 DE=-1.60D-07 OVMax= 1.75D-04

 Cycle   7  Pass 1  IDiag  1:
 E= -526.824642994523     Delta-E=       -0.000000282355 Rises=F Damp=F
 DIIS: error= 2.82D-05 at cycle   3 NSaved=   3.
 NSaved= 3 IEnMin= 3 EnMin= -526.824642994523     IErMin= 3 ErrMin= 2.82D-05
 ErrMax= 2.82D-05  0.00D+00 EMaxC= 1.00D-01 BMatC= 5.34D-08 BMatP= 4.98D-07
 IDIUse=1 WtCom= 1.00D+00 WtEn= 0.00D+00
 Coeff-Com: -0.642D-02 0.231D+00 0.776D+00
 Coeff:     -0.642D-02 0.231D+00 0.776D+00
 Gap=     0.458 Goal=   None    Shift=    0.000
 RMSDP=6.54D-07 MaxDP=2.52D-05 DE=-2.82D-07 OVMax= 6.54D-05

 Cycle   8  Pass 1  IDiag  1:
 E= -526.824643033004     Delta-E=       -0.000000038481 Rises=F Damp=F
 DIIS: error= 8.38D-06 at cycle   4 NSaved=   4.
 NSaved= 4 IEnMin= 4 EnMin= -526.824643033004     IErMin= 4 ErrMin= 8.38D-06
 ErrMax= 8.38D-06  0.00D+00 EMaxC= 1.00D-01 BMatC= 6.61D-09 BMatP= 5.34D-08
 IDIUse=1 WtCom= 1.00D+00 WtEn= 0.00D+00
 Coeff-Com: -0.357D-01 0.693D-01 0.379D+00 0.588D+00
 Coeff:     -0.357D-01 0.693D-01 0.379D+00 0.588D+00
 Gap=     0.458 Goal=   None    Shift=    0.000
 RMSDP=1.86D-07 MaxDP=6.75D-06 DE=-3.85D-08 OVMax= 1.70D-05

 Cycle   9  Pass 1  IDiag  1:
 E= -526.824643037402     Delta-E=       -0.000000004398 Rises=F Damp=F
 DIIS: error= 1.31D-06 at cycle   5 NSaved=   5.
 NSaved= 5 IEnMin= 5 EnMin= -526.824643037402     IErMin= 5 ErrMin= 1.31D-06
 ErrMax= 1.31D-06  0.00D+00 EMaxC= 1.00D-01 BMatC= 5.03D-10 BMatP= 6.61D-09
 IDIUse=1 WtCom= 1.00D+00 WtEn= 0.00D+00
 Coeff-Com: -0.135D-01-0.656D-02 0.478D-01 0.208D+00 0.764D+00
 Coeff:     -0.135D-01-0.656D-02 0.478D-01 0.208D+00 0.764D+00
 Gap=     0.458 Goal=   None    Shift=    0.000
 RMSDP=7.71D-08 MaxDP=2.50D-06 DE=-4.40D-09 OVMax= 6.21D-06

 Cycle  10  Pass 1  IDiag  1:
 E= -526.824643037827     Delta-E=       -0.000000000425 Rises=F Damp=F
 DIIS: error= 7.32D-07 at cycle   6 NSaved=   6.
 NSaved= 6 IEnMin= 6 EnMin= -526.824643037827     IErMin= 6 ErrMin= 7.32D-07
 ErrMax= 7.32D-07  0.00D+00 EMaxC= 1.00D-01 BMatC= 9.58D-11 BMatP= 5.03D-10
 IDIUse=1 WtCom= 1.00D+00 WtEn= 0.00D+00
 Coeff-Com:  0.179D-02-0.171D-01-0.544D-01-0.326D-01 0.332D+00 0.771D+00
 Coeff:      0.179D-02-0.171D-01-0.544D-01-0.326D-01 0.332D+00 0.771D+00
 Gap=     0.458 Goal=   None    Shift=    0.000
 RMSDP=3.65D-08 MaxDP=1.48D-06 DE=-4.25D-10 OVMax= 5.04D-06

 Cycle  11  Pass 1  IDiag  1:
 E= -526.824643037912     Delta-E=       -0.000000000084 Rises=F Damp=F
 DIIS: error= 2.82D-07 at cycle   7 NSaved=   7.
 NSaved= 7 IEnMin= 7 EnMin= -526.824643037912     IErMin= 7 ErrMin= 2.82D-07
 ErrMax= 2.82D-07  0.00D+00 EMaxC= 1.00D-01 BMatC= 1.74D-11 BMatP= 9.58D-11
 IDIUse=1 WtCom= 1.00D+00 WtEn= 0.00D+00
 Coeff-Com:  0.213D-02-0.833D-02-0.322D-01-0.350D-01 0.101D+00 0.411D+00
 Coeff-Com:  0.561D+00
 Coeff:      0.213D-02-0.833D-02-0.322D-01-0.350D-01 0.101D+00 0.411D+00
 Coeff:      0.561D+00
 Gap=     0.458 Goal=   None    Shift=    0.000
 RMSDP=9.28D-09 MaxDP=4.56D-07 DE=-8.45D-11 OVMax= 9.62D-07

 SCF Done:  E(RM062X) =  -526.824643038     A.U. after   11 cycles
            NFock= 11  Conv=0.93D-08     -V/T= 2.0034
 KE= 5.250586331835D+02 PE=-1.838396109312D+03 EE= 4.916960667591D+02
 Leave Link  502 at Sun May 25 05:11:36 2025, MaxMem=  3758096384 cpu:              33.5 elap:               6.6
 (Enter /apps/easybuild-2022/easybuild/software/Compiler/NVHPC/22.11-CUDA-11.7.0/Gaussian/g16c01-CUDA-11.7.0/g16/l508.exe)
 QCSCF skips out because SCF is already converged.
 Leave Link  508 at Sun May 25 05:11:36 2025, MaxMem=  3758096384 cpu:               0.0 elap:               0.0
 (Enter /apps/easybuild-2022/easybuild/software/Compiler/NVHPC/22.11-CUDA-11.7.0/Gaussian/g16c01-CUDA-11.7.0/g16/l701.exe)
 ... and contract with generalized density number  0.
 Compute integral first derivatives.
   1 Symmetry operations used in ECPInt.
 ECPInt:  NShTT=    3486 NPrTT=   11183 LenC2=    3249 LenP2D=    8011.
 LDataN:  DoStor=T MaxTD1= 7 Len=  274
 Leave Link  701 at Sun May 25 05:11:36 2025, MaxMem=  3758096384 cpu:               0.4 elap:               0.1
 (Enter /apps/easybuild-2022/easybuild/software/Compiler/NVHPC/22.11-CUDA-11.7.0/Gaussian/g16c01-CUDA-11.7.0/g16/l702.exe)
 L702 exits ... SP integral derivatives will be done elsewhere.
 Leave Link  702 at Sun May 25 05:11:36 2025, MaxMem=  3758096384 cpu:               0.0 elap:               0.0
 (Enter /apps/easybuild-2022/easybuild/software/Compiler/NVHPC/22.11-CUDA-11.7.0/Gaussian/g16c01-CUDA-11.7.0/g16/l703.exe)
 Integral derivatives from FoFJK, PRISM(SPDF).
 Compute integral first derivatives, UseDBF=F ICtDFT=           0.
 Calling FoFJK, ICntrl=      2127 FMM=F ISym2X=0 I1Cent= 0 IOpClX= 0 NMat=1 NMatS=1 NMatT=0.
 FoFJK:  IHMeth= 1 ICntrl=    2127 DoSepK=F KAlg= 0 I1Cent=           0 FoldK=F
 IRaf=         0 NMat=       1 IRICut=       1 DoRegI=T DoRafI=F ISym2E= 0 IDoP0=0 IntGTp=1.
 FoFCou: FMM=F IPFlag=           0 FMFlag=      100000 FMFlg1=         800
         NFxFlg=           0 DoJE=F BraDBF=F KetDBF=F FulRan=T
         wScrn=  0.000000 ICntrl=      2127 IOpCl=  0 I1Cent=           0 NGrid=           0
         NMat0=    1 NMatS0=      1 NMatT0=    0 NMatD0=    1 NMtDS0=    0 NMtDT0=    0
 Symmetry not used in FoFCou.
 Leave Link  703 at Sun May 25 05:11:38 2025, MaxMem=  3758096384 cpu:              18.9 elap:               2.4
 (Enter /apps/easybuild-2022/easybuild/software/Compiler/NVHPC/22.11-CUDA-11.7.0/Gaussian/g16c01-CUDA-11.7.0/g16/l716.exe)
 Dipole        = 7.64067343D-02 1.85043599D-01-9.47612519D-03
 -------------------------------------------------------------------
 Center     Atomic                   Forces (Hartrees/Bohr)
 Number     Number              X              Y              Z
 -------------------------------------------------------------------
      1        6           0.000763043   -0.000373571   -0.000157092
      2        8           0.000159460    0.000100341   -0.000030834
      3        6           0.012482953    0.002008200   -0.002390516
      4        9          -0.023945293   -0.005791715    0.004526994
      5        9           0.001756667    0.000446376   -0.000563189
      6        9           0.001831248    0.000421924   -0.000123586
      7        8           0.009912749    0.004157554   -0.001814510
      8        1          -0.002960827   -0.000969108    0.000552733
 -------------------------------------------------------------------
 Cartesian Forces:  Max     0.023945293 RMS     0.006224179
 Leave Link  716 at Sun May 25 05:11:38 2025, MaxMem=  3758096384 cpu:               0.0 elap:               0.0
 (Enter /apps/easybuild-2022/easybuild/software/Compiler/NVHPC/22.11-CUDA-11.7.0/Gaussian/g16c01-CUDA-11.7.0/g16/l103.exe)

 GradGradGradGradGradGradGradGradGradGradGradGradGradGradGradGradGradGrad
 Berny optimization.
 Using GEDIIS/GDIIS optimizer.
 FormGI is forming the generalized inverse of G from B-inverse, IUseBI=4.
 Internal  Forces:  Max     0.018542887 RMS     0.003723203
 Search for a local minimum.
 Step number   2 out of a maximum of   47
 All quantities printed in internal units (Hartrees-Bohrs-Radians)
 RMS Force = .37232D-02 SwitMx=.10000D-02 MixMth= 1
 Mixed Optimization -- RFO/linear search
 Update second derivatives using D2CorX and points    1    2
 DE= -8.27D-03 DEPred=-8.09D-03 R= 1.02D+00
 TightC=F SS=  1.41D+00  RLast= 3.01D-01 DXNew= 5.0454D-01 9.0347D-01
 Trust test= 1.02D+00 RLast= 3.01D-01 DXMaxT set to 5.05D-01
 ITU=  1  0
 Use linear search instead of GDIIS.
 Linear search step of   0.600 exceeds DXMaxT=   0.505 but not scaled.
 Quartic linear search produced a step of  2.00000.
 Iteration  1 RMS(Cart)=  0.04622239 RMS(Int)=  0.04937362
 Iteration  2 RMS(Cart)=  0.03604302 RMS(Int)=  0.00901581
 Iteration  3 RMS(Cart)=  0.00810187 RMS(Int)=  0.00063899
 Iteration  4 RMS(Cart)=  0.00002658 RMS(Int)=  0.00063826
 Iteration  5 RMS(Cart)=  0.00000001 RMS(Int)=  0.00063826
 ITry= 1 IFail=0 DXMaxC= 3.72D-01 DCOld= 1.00D+10 DXMaxT= 5.05D-01 DXLimC= 3.00D+00 Rises=F
 Variable       Old X    -DE/DX   Delta X   Delta X   Delta X     New X
                                 (Linear)    (Quad)   (Total)
    R1        2.11446   0.00019  -0.00027   0.00000  -0.00027   2.11419
    R2        5.59212   0.00056  -0.01768   0.00000  -0.01757   5.57455
    R3        5.92398   0.00033   0.07303   0.00000   0.07296   5.99693
    R4        4.10700   0.01854   0.50764   0.00000   0.50707   4.61407
    R5        2.45871   0.00014  -0.01025   0.00000  -0.01025   2.44846
    R6        2.45877   0.00014  -0.01021   0.00000  -0.01021   2.44857
    R7        2.21912   0.00039  -0.01248   0.00000  -0.01337   2.20574
    R8        1.74830   0.00271  -0.00290   0.00000  -0.00193   1.74637
    R9        3.77819   0.00965   0.27983   0.00000   0.28050   4.05869
    A1        2.77121   0.00003   0.00545   0.00000   0.00514   2.77634
    A2        2.38764  -0.00002   0.01174   0.00000   0.01205   2.39969
    A3        1.57670  -0.00135   0.00383   0.00000   0.00379   1.58049
    A4        1.57451  -0.00134   0.00513   0.00000   0.00509   1.57960
    A5        1.62393   0.00110  -0.01171   0.00000  -0.01116   1.61277
    A6        1.62397   0.00109  -0.01184   0.00000  -0.01131   1.61266
    A7        1.51580   0.00057  -0.03219   0.00000  -0.03389   1.48191
    A8        1.89588   0.00019   0.00429   0.00000   0.00364   1.89952
    A9        2.19316  -0.00016  -0.00034   0.00000  -0.00150   2.19166
   A10        2.19321  -0.00016  -0.00026   0.00000  -0.00141   2.19180
   A11        1.43429  -0.00553  -0.08950   0.00000  -0.08862   1.34567
   A12        2.72909   0.00011   0.00261   0.00000   0.00163   2.73072
   A13        1.49741   0.00000   0.04077   0.00000   0.04007   1.53748
   A14        1.83569   0.00495   0.08092   0.00000   0.08243   1.91812
   A15        3.20063  -0.00025  -0.00788   0.00000  -0.00737   3.19326
   A16        3.22166  -0.00033  -0.00945   0.00000  -0.00884   3.21282
    D1        2.19926  -0.00009  -0.00214   0.00000  -0.00183   2.19743
    D2       -2.18801   0.00009   0.00220   0.00000   0.00190  -2.18611
    D3       -3.13505  -0.00000  -0.00123   0.00000  -0.00126  -3.13631
    D4       -2.19184   0.00018   0.00079   0.00000   0.00065  -2.19119
    D5        2.19152  -0.00018  -0.00167   0.00000  -0.00151   2.19001
    D6       -0.00018   0.00000  -0.00048   0.00000  -0.00048  -0.00067
    D7        0.00008  -0.00000   0.00022   0.00000   0.00020   0.00028
    D8        1.59685   0.00176  -0.03725   0.00000  -0.03772   1.55913
    D9       -1.59672  -0.00175   0.03786   0.00000   0.03830  -1.55842
   D10        0.00011  -0.00000   0.00029   0.00000   0.00027   0.00038
   D11       -0.00354   0.00000   0.00067   0.00000   0.00066  -0.00288
   D12       -0.00021   0.00000  -0.00053   0.00000  -0.00058  -0.00078
         Item               Value     Threshold  Converged?
 Maximum Force            0.018543     0.000450     NO 
 RMS     Force            0.003723     0.000300     NO 
 Maximum Displacement     0.371977     0.001800     NO 
 RMS     Displacement     0.085994     0.001200     NO 
 Predicted change in Energy=-5.037270D-03
 Lowest energy point so far.  Saving SCF results.
 GradGradGradGradGradGradGradGradGradGradGradGradGradGradGradGradGradGrad

 Leave Link  103 at Sun May 25 05:11:38 2025, MaxMem=  3758096384 cpu:               0.0 elap:               0.0
 (Enter /apps/easybuild-2022/easybuild/software/Compiler/NVHPC/22.11-CUDA-11.7.0/Gaussian/g16c01-CUDA-11.7.0/g16/l202.exe)
                          Input orientation:                          
 ---------------------------------------------------------------------
 Center     Atomic      Atomic             Coordinates (Angstroms)
 Number     Number       Type             X           Y           Z
 ---------------------------------------------------------------------
      1          6           0        2.430924    0.489414   -0.459857
      2          8           0        3.361923    1.088353   -0.621687
      3          6           0       -0.410063   -0.096398    0.076487
      4          9           0       -2.792885   -0.369267    0.534099
      5          9           0       -0.480397   -0.807859   -1.004086
      6          9           0       -0.076711   -0.866749    1.063574
      7          8           0       -0.632584    1.046908    0.152391
      8          1           0       -2.685513    0.548597    0.539791
 ---------------------------------------------------------------------
                    Distance matrix (angstroms):
                    1          2          3          4          5
     1  C    0.000000
     2  O    1.118784   0.000000
     3  C    2.949924   4.014843   0.000000
     4  F    5.386414   6.429787   2.441660   0.000000
     5  F    3.233402   4.301776   1.295670   2.811757   0.000000
     6  F    3.232376   4.299620   1.295725   2.811660   2.107522
     7  O    3.173440   4.069029   1.167230   2.611160   2.191064
     8  H    5.213514   6.181573   2.410050   0.924141   3.014310
                    6          7          8
     6  F    0.000000
     7  O    2.191194   0.000000
     8  H    3.013867   2.147769   0.000000
 Symmetry turned off by external request.
 Stoichiometry    C2HF3O2
 Rotational constants (GHZ):           5.6289961           1.0168524           1.0059287
 Leave Link  202 at Sun May 25 05:11:38 2025, MaxMem=  3758096384 cpu:               0.0 elap:               0.0
 (Enter /apps/easybuild-2022/easybuild/software/Compiler/NVHPC/22.11-CUDA-11.7.0/Gaussian/g16c01-CUDA-11.7.0/g16/l301.exe)
 Standard basis: def2TZVPP (5D, 7F)
 Ernie: Thresh=  0.10000D-02 Tol=  0.10000D-05 Strict=F.
   231 basis functions,   374 primitive gaussians,   267 cartesian basis functions
    28 alpha electrons       28 beta electrons
       nuclear repulsion energy       289.1082455190 Hartrees.
 IExCor= 4336 DFT=T Ex+Corr=M062X ExCW=0 ScaHFX=  0.540000
 ScaDFX=  1.000000  1.000000  1.000000  1.000000 ScalE2=  1.000000  1.000000
 IRadAn=      5 IRanWt=     -1 IRanGd=            0 ICorTp=0 IEmpDi=  4
[...]
     36  0.107984D-03 -0.106049D-03  0.740141D-02 -0.729610D-02 -0.213575D-03
     37 -0.333560D-04  0.323033D-03  0.187289D-01 -0.190519D-01  0.440640D-04
               21            22            23            24            25 
     21  0.220516D-01
     22  0.187105D-01  0.190259D-01
     23 -0.140086D-01 -0.131706D-01  0.175530D-01
     24 -0.155129D-01 -0.139515D-01  0.998339D-02  0.165339D-01
     25 -0.217010D-01 -0.195391D-01  0.141210D-01  0.171750D-01  0.283959D-01
     26 -0.291259D-02 -0.232482D-02  0.128530D-02  0.270786D-02  0.254022D-02
     27  0.287197D-02  0.227520D-02 -0.128051D-02 -0.283898D-02 -0.235135D-02
     28  0.866714D-04  0.120382D-03  0.117343D-04  0.276372D-03 -0.434517D-03
     29  0.113891D-02  0.638472D-03 -0.308003D-04 -0.831584D-02  0.487607D-02
     30 -0.114289D-02 -0.628498D-03  0.734386D-04 -0.590491D-02  0.538937D-02
     31 -0.785359D-04 -0.648276D-04  0.477818D-04  0.383636D-02 -0.265207D-02
     32  0.194724D-04  0.203359D-04  0.202321D-04 -0.147927D-02  0.104478D-02
     33 -0.117559D-02 -0.641429D-02  0.845897D-03  0.415808D-03  0.239061D-02
     34  0.131965D-02  0.643700D-02 -0.838812D-03 -0.201741D-02 -0.121268D-02
     35  0.121853D-03  0.107981D-03 -0.609382D-04 -0.221640D-02  0.140636D-02
     36  0.250630D-03  0.211671D-03 -0.112284D-03  0.148492D-02 -0.145667D-02
     37 -0.120939D-03 -0.101567D-03  0.743854D-04  0.480387D-02 -0.328566D-02
               26            27            28            29            30 
     26  0.194837D-01
     27 -0.193247D-01  0.193434D-01
     28 -0.388344D-03  0.117965D-03  0.672584D-03
     29 -0.191326D-01  0.190963D-01  0.355449D-03  0.397312D-01
     30  0.191993D-01 -0.191039D-01 -0.131354D-03  0.160202D-02  0.398537D-01
     31 -0.216951D-03  0.470139D-04  0.392941D-03 -0.956571D-02 -0.985643D-02
     32  0.828202D-04 -0.169431D-04 -0.152224D-03  0.371697D-02  0.382405D-02
     33 -0.831518D-03  0.111779D-02 -0.574615D-03  0.341862D-02  0.104502D-04
     34  0.113139D-02 -0.835590D-03 -0.629935D-03 -0.944958D-04  0.333682D-02
     35  0.109964D-03 -0.147077D-04 -0.220198D-03  0.538115D-02  0.553416D-02
     36  0.945194D-04  0.426815D-05 -0.210224D-03 -0.479595D-02 -0.467069D-02
     37 -0.267279D-03  0.552864D-04  0.490186D-03 -0.119376D-01 -0.122972D-01
               31            32            33            34            35 
     31  0.520887D-02
     32 -0.202236D-02  0.785353D-03
     33 -0.815929D-03  0.305009D-03  0.234891D-01
     34 -0.830012D-03  0.334072D-03 -0.207644D-01  0.236928D-01
     35 -0.292766D-02  0.113671D-02  0.445760D-03  0.479492D-03  0.164584D-02
     36  0.244875D-02 -0.950690D-03  0.775501D-04  0.228440D-03 -0.137520D-02
     37  0.649967D-02 -0.252351D-02 -0.101715D-02 -0.103669D-02 -0.365325D-02
               36            37 
     36  0.148925D-02
     37  0.305527D-02  0.811037D-02
 Leave Link  716 at Sun May 25 05:14:44 2025, MaxMem=  3758096384 cpu:               0.0 elap:               0.0
 (Enter /apps/easybuild-2022/easybuild/software/Compiler/NVHPC/22.11-CUDA-11.7.0/Gaussian/g16c01-CUDA-11.7.0/g16/l103.exe)

 GradGradGradGradGradGradGradGradGradGradGradGradGradGradGradGradGradGrad
 Berny optimization.
 Red2BG is reusing G-inverse.
 Internal  Forces:  Max     0.000018312 RMS     0.000003803
 Search for a local minimum.
 Step number   1 out of a maximum of    2
 All quantities printed in internal units (Hartrees-Bohrs-Radians)
 Second derivative matrix not updated -- analytic derivatives used.
 ITU=  0
     Eigenvalues ---    0.00003   0.00016   0.00062   0.00131   0.00213
     Eigenvalues ---    0.00275   0.00454   0.00730   0.00798   0.01501
     Eigenvalues ---    0.08652   0.14193   0.18000   0.43566   0.52332
     Eigenvalues ---    0.55651   0.92263   1.36293
 Angle between quadratic step and forces=  86.46 degrees.
 Linear search not attempted -- first point.
 Iteration  1 RMS(Cart)=  0.00051756 RMS(Int)=  0.00000285
 Iteration  2 RMS(Cart)=  0.00000039 RMS(Int)=  0.00000029
 ITry= 1 IFail=0 DXMaxC= 1.41D-03 DCOld= 1.00D+10 DXMaxT= 3.00D-01 DXLimC= 3.00D+00 Rises=F
 Variable       Old X    -DE/DX   Delta X   Delta X   Delta X     New X
                                 (Linear)    (Quad)   (Total)
    R1        2.11402   0.00000   0.00000  -0.00000  -0.00000   2.11401
    R2        5.64649   0.00000   0.00000  -0.00007  -0.00007   5.64642
    R3        6.30342  -0.00000   0.00000  -0.00050  -0.00050   6.30292
    R4        5.15944  -0.00000   0.00000   0.00033   0.00033   5.15977
    R5        2.46026  -0.00000   0.00000  -0.00002  -0.00002   2.46024
    R6        2.46027  -0.00000   0.00000  -0.00001  -0.00001   2.46026
    R7        2.21475  -0.00002   0.00000  -0.00001  -0.00001   2.21474
    R8        1.74345   0.00001   0.00000   0.00002   0.00002   1.74348
    R9        4.27940  -0.00000   0.00000  -0.00173  -0.00173   4.27768
    A1        3.01629  -0.00000   0.00000  -0.00039  -0.00039   3.01590
    A2        2.65989   0.00000   0.00000  -0.00042  -0.00042   2.65948
    A3        1.50551   0.00000   0.00000   0.00024   0.00024   1.50575
    A4        1.50422  -0.00000   0.00000   0.00005   0.00005   1.50427
    A5        1.66433  -0.00000   0.00000  -0.00002  -0.00002   1.66431
    A6        1.67107  -0.00000   0.00000   0.00039   0.00039   1.67146
    A7        1.39936   0.00000   0.00000  -0.00035  -0.00035   1.39901
    A8        1.89503   0.00000   0.00000   0.00001   0.00001   1.89504
    A9        2.19408   0.00000   0.00000   0.00001   0.00001   2.19409
   A10        2.19406  -0.00000   0.00000  -0.00002  -0.00002   2.19404
   A11        1.25936  -0.00000   0.00000  -0.00081  -0.00081   1.25855
   A12        2.71612   0.00000   0.00000   0.00041   0.00041   2.71654
   A13        1.61978   0.00000   0.00000   0.00024   0.00024   1.62002
   A14        2.00468  -0.00000   0.00000   0.00092   0.00092   2.00560
   A15        3.16984  -0.00000   0.00000   0.00022   0.00022   3.17006
   A16        3.18720  -0.00000   0.00000   0.00054   0.00054   3.18774
    D1        2.20971  -0.00000   0.00000   0.00396   0.00396   2.21367
    D2       -2.17237   0.00000   0.00000   0.00395   0.00395  -2.16843
    D3        3.13604  -0.00000   0.00000   0.00066   0.00066   3.13671
    D4       -2.18550  -0.00000   0.00000   0.00007   0.00007  -2.18544
    D5        2.18949  -0.00000   0.00000   0.00000   0.00000   2.18949
    D6        0.00249   0.00000   0.00000   0.00008   0.00008   0.00256
    D7       -0.00097  -0.00000   0.00000  -0.00003  -0.00003  -0.00100
    D8        1.56210  -0.00000   0.00000  -0.00030  -0.00030   1.56180
    D9       -1.57242   0.00000   0.00000  -0.00027  -0.00027  -1.57269
   D10       -0.00140  -0.00000   0.00000  -0.00004  -0.00004  -0.00144
   D11        0.01251   0.00000   0.00000   0.00046   0.00046   0.01298
   D12        0.00310   0.00000   0.00000   0.00010   0.00010   0.00320
         Item               Value     Threshold  Converged?
 Maximum Force            0.000018     0.000450     YES
 RMS     Force            0.000004     0.000300     YES
 Maximum Displacement     0.001411     0.001800     YES
 RMS     Displacement     0.000518     0.001200     YES
 Predicted change in Energy=-4.409991D-09
 Optimization completed.
    -- Stationary point found.
                           ----------------------------
                           !   Optimized Parameters   !
                           ! (Angstroms and Degrees)  !
 --------------------------                            --------------------------
 ! Name  Definition              Value          Derivative Info.                !
 --------------------------------------------------------------------------------
 ! R1    R(1,2)                  1.1187         -DE/DX =    0.0                 !
 ! R2    R(1,3)                  2.988          -DE/DX =    0.0                 !
 ! R3    R(1,7)                  3.3356         -DE/DX =    0.0                 !
 ! R4    R(3,4)                  2.7303         -DE/DX =    0.0                 !
 ! R5    R(3,5)                  1.3019         -DE/DX =    0.0                 !
 ! R6    R(3,6)                  1.3019         -DE/DX =    0.0                 !
 ! R7    R(3,7)                  1.172          -DE/DX =    0.0                 !
 ! R8    R(4,8)                  0.9226         -DE/DX =    0.0                 !
 ! R9    R(7,8)                  2.2646         -DE/DX =    0.0                 !
 ! A1    A(2,1,3)              172.8204         -DE/DX =    0.0                 !
 ! A2    A(2,1,7)              152.4005         -DE/DX =    0.0                 !
 ! A3    A(1,3,5)               86.2594         -DE/DX =    0.0                 !
 ! A4    A(1,3,6)               86.1857         -DE/DX =    0.0                 !
 ! A5    A(4,3,5)               95.359          -DE/DX =    0.0                 !
 ! A6    A(4,3,6)               95.7453         -DE/DX =    0.0                 !
 ! A7    A(4,3,7)               80.1773         -DE/DX =    0.0                 !
 ! A8    A(5,3,6)              108.5772         -DE/DX =    0.0                 !
 ! A9    A(5,3,7)              125.7117         -DE/DX =    0.0                 !
 ! A10   A(6,3,7)              125.7101         -DE/DX =    0.0                 !
 ! A11   A(3,4,8)               72.156          -DE/DX =    0.0                 !
 ! A12   A(1,7,8)              155.6224         -DE/DX =    0.0                 !
 ! A13   A(3,7,8)               92.8068         -DE/DX =    0.0                 !
 ! A14   A(4,8,7)              114.8597         -DE/DX =    0.0                 !
 ! A15   L(1,3,4,5,-1)         181.6183         -DE/DX =    0.0                 !
 ! A16   L(1,3,4,5,-2)         182.6129         -DE/DX =    0.0                 !
 ! D1    D(2,1,3,5)            126.6073         -DE/DX =    0.0                 !
 ! D2    D(2,1,3,6)           -124.4678         -DE/DX =    0.0                 !
 ! D3    D(2,1,7,8)            179.6821         -DE/DX =    0.0                 !
 ! D4    D(5,3,4,8)           -125.2202         -DE/DX =    0.0                 !
 ! D5    D(6,3,4,8)            125.4483         -DE/DX =    0.0                 !
 ! D6    D(7,3,4,8)              0.1425         -DE/DX =    0.0                 !
 ! D7    D(4,3,7,8)             -0.0553         -DE/DX =    0.0                 !
 ! D8    D(5,3,7,8)             89.5017         -DE/DX =    0.0                 !
 ! D9    D(6,3,7,8)            -90.0933         -DE/DX =    0.0                 !
 ! D10   D(3,4,8,7)             -0.0801         -DE/DX =    0.0                 !
 ! D11   D(1,7,8,4)              0.7169         -DE/DX =    0.0                 !
 ! D12   D(3,7,8,4)              0.1778         -DE/DX =    0.0                 !
 --------------------------------------------------------------------------------
 GradGradGradGradGradGradGradGradGradGradGradGradGradGradGradGradGradGrad

 Leave Link  103 at Sun May 25 05:14:44 2025, MaxMem=  3758096384 cpu:               0.0 elap:               0.0
 (Enter /apps/easybuild-2022/easybuild/software/Compiler/NVHPC/22.11-CUDA-11.7.0/Gaussian/g16c01-CUDA-11.7.0/g16/l9999.exe)

 ----------------------------------------------------------------------

 Electric dipole moment (input orientation):
 (Debye = 10**-18 statcoulomb cm , SI units = C m)
                  (au)            (Debye)         (10**-30 SI)
   Tot        0.472591D+00      0.120121D+01      0.400679D+01
   x          0.395069D+00      0.100417D+01      0.334954D+01
   y          0.249401D+00      0.633914D+00      0.211451D+01
   z         -0.711430D-01     -0.180827D+00     -0.603175D+00

 Dipole polarizability, Alpha (input orientation).
 (esu units = cm**3 , SI units = C**2 m**2 J**-1)
 Alpha(0;0):
               (au)            (10**-24 esu)      (10**-40 SI)
   iso        0.320466D+02      0.474882D+01      0.528378D+01
   aniso      0.586145D+01      0.868577D+00      0.966422D+00
   xx         0.344985D+02      0.511215D+01      0.568804D+01
   yx        -0.424563D-01     -0.629137D-02     -0.700009D-02
   yy         0.331587D+02      0.491362D+01      0.546713D+01
   zx        -0.120586D+01     -0.178690D+00     -0.198819D+00
   zy         0.145073D+00      0.214975D-01      0.239192D-01
   zz         0.284826D+02      0.422069D+01      0.469615D+01

 ----------------------------------------------------------------------

 Dipole orientation:
     6          0.69980597          1.47638891          4.64097809
     8          0.90951021          1.90812168          6.69978685
     6         -0.13480181         -0.29587895         -0.65480910
     9         -1.02123224         -2.13975206         -5.39128215
     9         -1.35494343          1.81290088         -0.99709651
     9          2.26513921          0.12250007         -0.99854739
     8         -1.04562938         -2.24697080         -0.13638096
     1         -1.57648154         -3.32814888         -4.24278500

 Electric dipole moment (dipole orientation):
 (Debye = 10**-18 statcoulomb cm , SI units = C m)
                  (au)            (Debye)         (10**-30 SI)
   Tot        0.472591D+00      0.120121D+01      0.400679D+01
   x          0.000000D+00      0.000000D+00      0.000000D+00
   y          0.000000D+00      0.000000D+00      0.000000D+00
   z          0.472591D+00      0.120121D+01      0.400679D+01

 Dipole polarizability, Alpha (dipole orientation).
 (esu units = cm**3 , SI units = C**2 m**2 J**-1)
 Alpha(0;0):
               (au)            (10**-24 esu)      (10**-40 SI)
   iso        0.320466D+02      0.474882D+01      0.528378D+01
   aniso      0.586145D+01      0.868577D+00      0.966422D+00
   xx         0.292257D+02      0.433080D+01      0.481866D+01
   yx         0.208423D+01      0.308851D+00      0.343643D+00
   yy         0.326822D+02      0.484300D+01      0.538856D+01
   zx         0.333936D+00      0.494842D-01      0.550586D-01
   zy         0.654029D+00      0.969171D-01      0.107835D+00
   zz         0.342320D+02      0.507267D+01      0.564410D+01

 ----------------------------------------------------------------------
 Unable to Open any file for archive entry.
 1\1\GINC-SPARTAN-BM163\Freq\RM062X\def2TZVPP\C2H1F3O2\AKHALILOV\25-May
 -2025\0\\#P Geom=AllCheck Guess=TCheck SCRF=Check GenChk RM062X/def2TZ
 VPP Freq\\Gaussian input prepared by ASE\\0,1\C,2.4980071835,0.5619025
 889,-0.4724325155\O,3.5399395427,0.9211406219,-0.6642396498\C,-0.37771
 25237,-0.0368394234,0.0751584071\F,-3.0313020902,-0.4401504455,0.57526
 53339\F,-0.3547311703,-0.7306480503,-1.0262381996\F,0.0537182773,-0.78
 76076356,1.047373964\O,-0.733496147,1.0753054733,0.1758021384\H,-2.879
 7290723,0.4698948708,0.5700225215\\Version=ES64L-G16RevC.01\HF=-526.83
 38358\RMSD=1.712e-09\RMSF=7.535e-06\ZeroPoint=0.0320636\Thermal=0.0423
 484\ETot=-526.7914874\HTot=-526.7905432\GTot=-526.8416112\Dipole=0.395
 0693,0.2494009,-0.071143\DipoleDeriv=0.719527,0.2252851,-0.1264223,0.2
 531315,0.1199171,-0.0467764,-0.1252134,-0.0412232,0.0590431,-0.7539422
 ,-0.2388102,0.1389535,-0.2669707,-0.0891942,0.0493184,0.1375247,0.0436
 74,-0.0290678,1.1231208,-0.4106363,0.1512284,-0.4914496,2.0744583,0.10
 08799,0.1501334,0.0843478,1.9202358,-0.5451844,-0.0127351,0.0313078,-0
 .033982,-0.35685,0.0073646,0.0306351,0.0031912,-0.387119,-0.193611,0.0
 521993,-0.0044575,0.0762393,-0.5294598,-0.3460528,0.0265227,-0.3813688
 ,-0.7709139,-0.2820899,0.1995633,-0.1807581,0.2103272,-0.5673084,0.299
 5224,-0.2113983,0.3416316,-0.6472013,-0.6255473,0.2073228,0.0249506,0.
 2322661,-1.0071598,-0.0594567,0.025192,-0.0537276,-0.5324675,0.5577271
 ,-0.0221887,-0.0348024,0.0204382,0.3555969,-0.0047996,-0.0333962,0.003
 4752,0.3874906\Polar=34.4985204,-0.0424563,33.1587194,-1.2058592,0.145
 0726,28.4826476\PG=Unknown\NImag=0\\1.18964069,0.40828389,0.14541138,-
 0.21822964,-0.07516642,0.04427165,-1.18387386,-0.40735233,0.21747557,1
 .18250765,-0.40743649,-0.14272979,0.07497048,0.40725185,0.14167218,0.2
 1748240,0.07495782,-0.04201114,-0.21738574,-0.07493793,0.04114827,-0.0
 0616783,0.00025557,0.00005288,0.00600151,0.00107190,-0.00048806,0.3432
 7237,0.00131856,-0.00566638,-0.00027804,-0.00061701,0.00335080,0.00012
 677,-0.29286723,1.13214151,0.00014041,-0.00006489,-0.00556355,-0.00056
 598,-0.00020997,0.00328524,0.04619136,0.07192056,0.61112704,0.00047798
 ,0.00036045,-0.00007285,-0.00073695,-0.00034538,0.00012465,0.00300625,
 -0.00672818,-0.00184833,0.02617536,0.00005107,0.00014326,-0.00000690,-
 0.00012133,-0.00010725,0.00002133,-0.00007210,-0.01097598,-0.00013417,
 0.10326437,0.59766274,-0.00008219,-0.00006659,0.00006007,0.00013151,0.
 00006476,-0.00006225,-0.00171523,0.00111709,-0.00538093,-0.00172284,-0
 .00413372,0.00333640,-0.00015590,-0.00135294,-0.00166371,-0.00115167,0
 .00005432,0.00070229,-0.07324336,0.00753002,0.00248888,-0.00035141,0.0
 0053821,0.00092357,0.03511878,-0.00045734,0.00041398,0.00015332,0.0000
 9004,-0.00045805,-0.00026677,0.00621541,-0.15779407,-0.12208801,0.0009
 9328,0.00210476,0.00088082,-0.02480753,0.19760235,-0.00001898,0.000411
 38,0.00162944,0.00029052,-0.00027531,-0.00107016,0.00146478,-0.1134042
 7,-0.26929752,0.00106855,0.00135170,0.00136713,0.00888699,0.17373527,0
 .37626725,0.00048007,-0.00161333,0.00211929,-0.00152643,0.00018710,-0.
 00053692,-0.10190422,0.05290842,-0.06685027,-0.00072816,0.00001802,-0.
 00005106,0.01682814,0.00285727,-0.02031345,0.07640300,-0.00058247,0.00
 037100,0.00006345,0.00019081,-0.00048757,0.00022807,0.05487910,-0.1702
 7377,0.11495634,0.00066764,0.00223603,-0.00115746,-0.00104275,0.020107
 44,-0.00713786,-0.09316595,0.21586802,0.00047649,0.00017299,0.00069266
 ,-0.00009237,0.00025195,-0.00070312,-0.06578524,0.10643562,-0.22822860
 ,-0.00021291,-0.00142605,0.00167074,-0.02592536,0.01346844,-0.09584400
 ,0.10694494,-0.15881680,0.31715658,0.00016451,0.00183926,0.00022814,-0
 .00199718,-0.00115924,0.00023385,-0.16334917,0.22508047,0.01770305,-0.
 00910976,-0.00577770,0.00204033,0.02294427,0.01802007,0.01128663,0.009
 45530,0.04174993,-0.01720503,0.13745699,-0.00120453,0.00208739,0.00026
 931,0.00059887,-0.00125431,-0.00013664,0.22849253,-0.79783105,-0.06406
 558,-0.00067562,0.00366957,0.00019393,0.01919768,-0.06012575,-0.053187
 66,0.03837291,-0.06584830,0.03852836,-0.27978235,0.92391695,0.00012826
 ,-0.00032515,0.00097305,0.00029067,0.00020887,-0.00064555,0.01783969,-
 0.06343067,-0.11027254,0.00217093,0.00115469,0.00191593,0.01514330,-0.
 06550028,-0.01219338,-0.02114890,0.05043968,0.00694412,-0.01299470,0.0
 7754463,0.11514413,-0.00056565,-0.00042058,0.00009032,0.00077693,0.000
 37594,-0.00013248,-0.00761554,0.01337496,0.00274089,-0.01873332,-0.097
 90054,0.00047592,0.00001115,-0.00291119,-0.00266505,0.00099230,-0.0026
 9631,0.00179948,0.00443504,-0.00499947,-0.00142926,0.02069910,0.000027
 30,-0.00003084,-0.00000520,-0.00004089,0.00001399,0.00000736,0.0020248
 3,0.00704894,-0.00031429,-0.09753655,-0.59473312,0.00310116,-0.0001170
 2,-0.00185066,-0.00149324,0.00043557,-0.00197284,0.00138549,0.00002956
 ,-0.00461450,-0.00009178,0.09517719,0.59613904,0.00010324,0.00008085,-
 0.00005217,-0.00014418,-0.00007284,0.00005871,0.00243982,-0.00248706,0
 .00433085,0.00049280,0.00317311,-0.00290709,-0.00055596,-0.00038279,-0
 .00085875,-0.00016363,0.00142459,-0.00168838,-0.00129226,0.00085365,-0
 .00186576,-0.00087983,-0.00258951,0.00298259\\0.00000021,-0.00000085,0
 .00000143,-0.00000009,-0.00000141,-0.00000189,0.00000593,-0.00001874,0
 .00000022,0.00000181,0.00001136,0.00000082,0.00000384,-0.00000635,0.00
 000468,0.00000188,0.00000401,0.00000589,-0.00000661,0.00002140,-0.0000
 0676,-0.00000697,-0.00000942,-0.00000439\\\@
 The archive entry for this job was punched.


 ONLY THE DAY DAWNS TO WHICH YOU ARE AWAKE.

                                 -- THOREAU
 Job cpu time:       0 days  0 hours  6 minutes 38.6 seconds.
 Elapsed time:       0 days  0 hours  0 minutes 51.2 seconds.
 File lengths (MBytes):  RWF=     48 Int=      0 D2E=      0 Chk=      5 Scr=      1
 Normal termination of Gaussian 16 at Sun May 25 05:14:44 2025.
