 Entering Gaussian System, Link 0=g16
 Initial command:
 /apps/easybuild-2022/easybuild/software/Compiler/NVHPC/22.11-CUDA-11.7.0/Gaussian/g16c01-CUDA-11.7.0/g16/l1.exe "/tmp/Gau-284358.inp" -scrdir="/tmp/"
 Entering Link 1 = /apps/easybuild-2022/easybuild/software/Compiler/NVHPC/22.11-CUDA-11.7.0/Gaussian/g16c01-CUDA-11.7.0/g16/l1.exe PID=    284359.
  
 Copyright (c) 1988-2019, Gaussian, Inc.  All Rights Reserved.
  
 This is part of the Gaussian(R) 16 program.  It is based on
 the Gaussian(R) 09 system (copyright 2009, Gaussian, Inc.),
 the Gaussian(R) 03 system (copyright 2003, Gaussian, Inc.),
 the Gaussian(R) 98 system (copyright 1998, Gaussian, Inc.),
 the Gaussian(R) 94 system (copyright 1995, Gaussian, Inc.),
 the Gaussian 92(TM) system (copyright 1992, Gaussian, Inc.),
 the Gaussian 90(TM) system (copyright 1990, Gaussian, Inc.),
 the Gaussian 88(TM) system (copyright 1988, Gaussian, Inc.),
 the Gaussian 86(TM) system (copyright 1986, Carnegie Mellon
 University), and the Gaussian 82(TM) system (copyright 1983,
 Carnegie Mellon University). Gaussian is a federally registered
 trademark of Gaussian, Inc.
  
 This software contains proprietary and confidential information,
 including trade secrets, belonging to Gaussian, Inc.
  
 This software is provided under written license and may be
 used, copied, transmitted, or stored only in accord with that
 written license.
  
 The following legend is applicable only to US Government
 contracts under FAR:
  
                    RESTRICTED RIGHTS LEGEND
  
 Use, reproduction and disclosure by the US Government is
 subject to restrictions as set forth in subparagraphs (a)
 and (c) of the Commercial Computer Software - Restricted
 Rights clause in FAR 52.227-19.
  
 Gaussian, Inc.
 340 Quinnipiac St., Bldg. 40, Wallingford CT 06492
  
  
 ---------------------------------------------------------------
 Warning -- This program may not be used in any manner that
 competes with the business of Gaussian, Inc. or will provide
 assistance to any competitor of Gaussian, Inc.  The licensee
 of this program is prohibited from giving any competitor of
 Gaussian, Inc. access to this program.  By using this program,
 the user acknowledges that Gaussian, Inc. is engaged in the
 business of creating and licensing software in the field of
 computational chemistry and represents and warrants to the
 licensee that it is not a competitor of Gaussian, Inc. and that
 it will not use this program in any manner prohibited above.
 ---------------------------------------------------------------
  

 Cite this work as:
 Gaussian 16, Revision C.01,
 M. J. Frisch, G. W. Trucks, H. B. Schlegel, G. E. Scuseria, 
 M. A. Robb, J. R. Cheeseman, G. Scalmani, V. Barone, 
 G. A. Petersson, H. Nakatsuji, X. Li, M. Caricato, A. V. Marenich, 
 J. Bloino, B. G. Janesko, R. Gomperts, B. Mennucci, H. P. Hratchian, 
 J. V. Ortiz, A. F. Izmaylov, J. L. Sonnenberg, D. Williams-Young, 
 F. Ding, F. Lipparini, F. Egidi, J. Goings, B. Peng, A. Petrone, 
 T. Henderson, D. Ranasinghe, V. G. Zakrzewski, J. Gao, N. Rega, 
 G. Zheng, W. Liang, M. Hada, M. Ehara, K. Toyota, R. Fukuda, 
 J. Hasegawa, M. Ishida, T. Nakajima, Y. Honda, O. Kitao, H. Nakai, 
 T. Vreven, K. Throssell, J. A. Montgomery, Jr., J. E. Peralta, 
 F. Ogliaro, M. J. Bearpark, J. J. Heyd, E. N. Brothers, K. N. Kudin, 
 V. N. Staroverov, T. A. Keith, R. Kobayashi, J. Normand, 
 K. Raghavachari, A. P. Rendell, J. C. Burant, S. S. Iyengar, 
 J. Tomasi, M. Cossi, J. M. Millam, M. Klene, C. Adamo, R. Cammi, 
 J. W. Ochterski, R. L. Martin, K. Morokuma, O. Farkas, 
 J. B. Foresman, and D. J. Fox, Gaussian, Inc., Wallingford CT, 2019.
 
 ******************************************
 Gaussian 16:  ES64L-G16RevC.01  3-Jul-2019
                25-May-2025 
 ******************************************
 %mem=28GB
 %chk=1141903082400600000001_intra_H_migration_suprafacial_2_8_IRC_F_prod
 %nprocshared=8
 Will use up to    8 processors via shared memory.
 -----------------------------------------------------------------
 #P M062X/Def2TZVPP Symm(None) scf(xqc) pop(None) freq opt(CalcFC)
 -----------------------------------------------------------------
 1/10=4,18=20,19=15,26=3,38=1/1,3;
 2/9=110,12=2,15=3,17=6,18=5,40=1/2;
 3/5=44,7=202,11=2,25=1,30=1,71=2,74=-55,140=1/1,2,3;
 4//1;
 5/5=2,8=3,13=1,38=5/2,8;
 8/6=4,10=90,11=11/1;
 11/6=1,8=1,9=11,15=111,16=1,31=1/1,2,10;
 10/6=1,13=1,31=1/2;
 7/10=1,25=1,30=1/1,2,3,16;
 1/10=4,18=20,19=15,26=3/3(2);
 2/9=110,15=3/2;
 99//99;
 2/9=110,15=3/2;
 3/5=44,7=202,11=2,25=1,30=1,71=1,74=-55/1,2,3;
 4/5=5,16=3,69=1/1;
 5/5=2,8=3,13=1,38=5/2,8;
 7/30=1/1,2,3,16;
 1/18=20,19=15,26=3/3(-5);
 2/9=110,15=3/2;
 99/9=1/99;
 Leave Link    1 at Sun May 25 04:08:20 2025, MaxMem=  3758096384 cpu:               0.0 elap:               0.0
 (Enter /apps/easybuild-2022/easybuild/software/Compiler/NVHPC/22.11-CUDA-11.7.0/Gaussian/g16c01-CUDA-11.7.0/g16/l101.exe)
 ------------------------------
 Gaussian input prepared by ASE
 ------------------------------
 Symbolic Z-matrix:
 Charge =  0 Multiplicity = 1
 C                    -0.13065   0.56398  -0.81065 
 O                    -0.83622  -0.01081  -1.77399 
 C                     0.07922  -0.28481   0.48531 
 F                     1.20087  -0.99423   0.36685 
 F                     0.21015   0.53002   1.52069 
 F                    -0.91886  -1.12286   0.73251 
 O                     0.3427    1.6466   -0.93653 
 H                    -0.83715   0.62746  -2.50311 
 
 ITRead=  0  0  0  0  0  0  0  0
 MicOpt= -1 -1 -1 -1 -1 -1 -1 -1
 NAtoms=      8 NQM=        8 NQMF=       0 NMMI=      0 NMMIF=      0
                NMic=       0 NMicF=      0.
                    Isotopes and Nuclear Properties:
 (Nuclear quadrupole moments (NQMom) in fm**2, nuclear magnetic moments (NMagM)
  in nuclear magnetons)

  Atom         1           2           3           4           5           6           7           8
 IAtWgt=          12          16          12          19          19          19          16           1
 AtmWgt=  12.0000000  15.9949146  12.0000000  18.9984032  18.9984032  18.9984032  15.9949146   1.0078250
 NucSpn=           0           0           0           1           1           1           0           1
 AtZEff=  -0.0000000  -0.0000000  -0.0000000  -0.0000000  -0.0000000  -0.0000000  -0.0000000  -0.0000000
 NQMom=    0.0000000   0.0000000   0.0000000   0.0000000   0.0000000   0.0000000   0.0000000   0.0000000
 NMagM=    0.0000000   0.0000000   0.0000000   2.6288670   2.6288670   2.6288670   0.0000000   2.7928460
 AtZNuc=   6.0000000   8.0000000   6.0000000   9.0000000   9.0000000   9.0000000   8.0000000   1.0000000
 Leave Link  101 at Sun May 25 04:08:20 2025, MaxMem=  3758096384 cpu:               0.2 elap:               0.2
 (Enter /apps/easybuild-2022/easybuild/software/Compiler/NVHPC/22.11-CUDA-11.7.0/Gaussian/g16c01-CUDA-11.7.0/g16/l103.exe)

 GradGradGradGradGradGradGradGradGradGradGradGradGradGradGradGradGradGrad
 Berny optimization.
 Initialization pass.
                           ----------------------------
                           !    Initial Parameters    !
                           ! (Angstroms and Degrees)  !
 --------------------------                            --------------------------
 ! Name  Definition              Value          Derivative Info.                !
 --------------------------------------------------------------------------------
 ! R1    R(1,2)                  1.3252         calculate D2E/DX2 analytically  !
 ! R2    R(1,3)                  1.5633         calculate D2E/DX2 analytically  !
 ! R3    R(1,7)                  1.1883         calculate D2E/DX2 analytically  !
 ! R4    R(2,8)                  0.969          calculate D2E/DX2 analytically  !
 ! R5    R(3,4)                  1.3324         calculate D2E/DX2 analytically  !
 ! R6    R(3,5)                  1.324          calculate D2E/DX2 analytically  !
 ! R7    R(3,6)                  1.3265         calculate D2E/DX2 analytically  !
 ! A1    A(2,1,3)              116.0135         calculate D2E/DX2 analytically  !
 ! A2    A(2,1,7)              122.0223         calculate D2E/DX2 analytically  !
 ! A3    A(3,1,7)              121.9386         calculate D2E/DX2 analytically  !
 ! A4    A(1,2,8)              105.1753         calculate D2E/DX2 analytically  !
 ! A5    A(1,3,4)              109.1707         calculate D2E/DX2 analytically  !
 ! A6    A(1,3,5)              109.1107         calculate D2E/DX2 analytically  !
 ! A7    A(1,3,6)              113.3593         calculate D2E/DX2 analytically  !
 ! A8    A(4,3,5)              108.2961         calculate D2E/DX2 analytically  !
 ! A9    A(4,3,6)              108.2748         calculate D2E/DX2 analytically  !
 ! A10   A(5,3,6)              108.5102         calculate D2E/DX2 analytically  !
 ! D1    D(3,1,2,8)           -177.7429         calculate D2E/DX2 analytically  !
 ! D2    D(7,1,2,8)              0.4506         calculate D2E/DX2 analytically  !
 ! D3    D(2,1,3,4)             90.5815         calculate D2E/DX2 analytically  !
 ! D4    D(2,1,3,5)           -151.2409         calculate D2E/DX2 analytically  !
 ! D5    D(2,1,3,6)            -30.2009         calculate D2E/DX2 analytically  !
 ! D6    D(7,1,3,4)            -87.6137         calculate D2E/DX2 analytically  !
 ! D7    D(7,1,3,5)             30.564          calculate D2E/DX2 analytically  !
 ! D8    D(7,1,3,6)            151.6039         calculate D2E/DX2 analytically  !
 --------------------------------------------------------------------------------
 Trust Radius=3.00D-01 FncErr=1.00D-07 GrdErr=1.00D-06 EigMax=2.50D+02 EigMin=1.00D-04
 Number of steps in this run=     35 maximum allowed number of steps=    100.
 GradGradGradGradGradGradGradGradGradGradGradGradGradGradGradGradGradGrad

 Leave Link  103 at Sun May 25 04:08:20 2025, MaxMem=  3758096384 cpu:               0.0 elap:               0.0
 (Enter /apps/easybuild-2022/easybuild/software/Compiler/NVHPC/22.11-CUDA-11.7.0/Gaussian/g16c01-CUDA-11.7.0/g16/l202.exe)
                          Input orientation:                          
 ---------------------------------------------------------------------
 Center     Atomic      Atomic             Coordinates (Angstroms)
 Number     Number       Type             X           Y           Z
 ---------------------------------------------------------------------
      1          6           0       -0.130645    0.563982   -0.810649
      2          8           0       -0.836224   -0.010810   -1.773989
      3          6           0        0.079220   -0.284806    0.485306
      4          9           0        1.200872   -0.994234    0.366853
      5          9           0        0.210154    0.530018    1.520692
      6          9           0       -0.918860   -1.122859    0.732511
      7          8           0        0.342695    1.646599   -0.936527
      8          1           0       -0.837145    0.627463   -2.503107
 ---------------------------------------------------------------------
                    Distance matrix (angstroms):
                    1          2          3          4          5
     1  C    0.000000
     2  O    1.325236   0.000000
     3  C    1.563325   2.453064   0.000000
     4  F    2.363786   3.114496   1.332450   0.000000
     5  F    2.356363   3.498903   1.324049   2.153186   0.000000
     6  F    2.418276   2.743360   1.326502   2.154881   2.151256
     7  O    1.188257   2.199590   2.412748   3.067453   2.702267
     8  H    1.835098   0.969023   3.256159   3.875575   4.159001
                    6          7          8
     6  F    0.000000
     7  O    3.470894   0.000000
     8  H    3.679610   2.210166   0.000000
 Symmetry turned off by external request.
 Stoichiometry    C2HF3O2
 Rotational constants (GHZ):           3.9639755           2.4109021           2.0300926
 Leave Link  202 at Sun May 25 04:08:20 2025, MaxMem=  3758096384 cpu:               0.0 elap:               0.0
 (Enter /apps/easybuild-2022/easybuild/software/Compiler/NVHPC/22.11-CUDA-11.7.0/Gaussian/g16c01-CUDA-11.7.0/g16/l301.exe)
 Standard basis: def2TZVPP (5D, 7F)
 Ernie: Thresh=  0.10000D-02 Tol=  0.10000D-05 Strict=F.
   231 basis functions,   374 primitive gaussians,   267 cartesian basis functions
    28 alpha electrons       28 beta electrons
       nuclear repulsion energy       336.5000870581 Hartrees.
 IExCor= 4336 DFT=T Ex+Corr=M062X ExCW=0 ScaHFX=  0.540000
 ScaDFX=  1.000000  1.000000  1.000000  1.000000 ScalE2=  1.000000  1.000000
 IRadAn=      5 IRanWt=     -1 IRanGd=            0 ICorTp=0 IEmpDi=  4
 NAtoms=    8 NActive=    8 NUniq=    8 SFac= 1.00D+00 NAtFMM=   60 NAOKFM=F Big=F
 Integral buffers will be    131072 words long.
 Raffenetti 2 integral format.
 Two-electron integral symmetry is turned off.
 Leave Link  301 at Sun May 25 04:08:20 2025, MaxMem=  3758096384 cpu:               0.0 elap:               0.0
 (Enter /apps/easybuild-2022/easybuild/software/Compiler/NVHPC/22.11-CUDA-11.7.0/Gaussian/g16c01-CUDA-11.7.0/g16/l302.exe)
 NPDir=0 NMtPBC=     1 NCelOv=     1 NCel=       1 NClECP=     1 NCelD=      1
         NCelK=      1 NCelE2=     1 NClLst=     1 CellRange=     0.0.
 One-electron integrals computed using PRISM.
   1 Symmetry operations used in ECPInt.
 ECPInt:  NShTT=    3486 NPrTT=   11183 LenC2=    3398 LenP2D=    8678.
 LDataN:  DoStor=T MaxTD1= 6 Len=  172
 NBasis=   231 RedAO= T EigKep=  5.96D-04  NBF=   231
 NBsUse=   231 1.00D-06 EigRej= -1.00D+00 NBFU=   231
 Precomputing XC quadrature grid using
 IXCGrd= 4 IRadAn=           5 IRanWt=          -1 IRanGd=           0 AccXCQ= 0.00D+00.
 Generated NRdTot=       0 NPtTot=           0 NUsed=           0 NTot=          32
 NSgBfM=   266   266   266   266   266 MxSgAt=     8 MxSgA2=     8.
 Leave Link  302 at Sun May 25 04:08:20 2025, MaxMem=  3758096384 cpu:               0.4 elap:               0.1
 (Enter /apps/easybuild-2022/easybuild/software/Compiler/NVHPC/22.11-CUDA-11.7.0/Gaussian/g16c01-CUDA-11.7.0/g16/l303.exe)
 DipDrv:  MaxL=1.
 Leave Link  303 at Sun May 25 04:08:20 2025, MaxMem=  3758096384 cpu:               0.1 elap:               0.0
 (Enter /apps/easybuild-2022/easybuild/software/Compiler/NVHPC/22.11-CUDA-11.7.0/Gaussian/g16c01-CUDA-11.7.0/g16/l401.exe)
 ExpMin= 9.52D-02 ExpMax= 3.55D+04 ExpMxC= 1.21D+03 IAcc=3 IRadAn=         5 AccDes= 0.00D+00
 Harris functional with IExCor= 1009 and IRadAn=       5 diagonalized for initial guess.
 HarFok:  IExCor= 1009 AccDes= 0.00D+00 IRadAn=         5 IDoV= 1 UseB2=F ITyADJ=14
 ICtDFT=  3500011 ScaDFX=  1.000000  1.000000  1.000000  1.000000
 FoFCou: FMM=F IPFlag=           0 FMFlag=      100000 FMFlg1=           0
         NFxFlg=           0 DoJE=T BraDBF=F KetDBF=T FulRan=T
         wScrn=  0.000000 ICntrl=       500 IOpCl=  0 I1Cent=   200000004 NGrid=           0
         NMat0=    1 NMatS0=      1 NMatT0=    0 NMatD0=    1 NMtDS0=    0 NMtDT0=    0
 Symmetry not used in FoFCou.
 Harris En= -526.547382543775    
 JPrj=0 DoOrth=F DoCkMO=F.
 Leave Link  401 at Sun May 25 04:08:20 2025, MaxMem=  3758096384 cpu:               2.0 elap:               0.3
 (Enter /apps/easybuild-2022/easybuild/software/Compiler/NVHPC/22.11-CUDA-11.7.0/Gaussian/g16c01-CUDA-11.7.0/g16/l502.exe)
 Keep R1 ints in memory in canonical form, NReq=368651279.
 FoFCou: FMM=F IPFlag=           0 FMFlag=           0 FMFlg1=           0
         NFxFlg=           0 DoJE=F BraDBF=F KetDBF=F FulRan=T
         wScrn=  0.000000 ICntrl=       600 IOpCl=  0 I1Cent=           0 NGrid=           0
         NMat0=    1 NMatS0=  26796 NMatT0=    0 NMatD0=    1 NMtDS0=    0 NMtDT0=    0
 Symmetry not used in FoFCou.
 Two-electron integral symmetry not used.
 Closed shell SCF:
 Using DIIS extrapolation, IDIIS=  1040.
 NGot=  3758096384 LenX=  3398923531 LenY=  3398851801
 Requested convergence on RMS density matrix=1.00D-08 within  32 cycles.
 Requested convergence on MAX density matrix=1.00D-06.
 Requested convergence on             energy=1.00D-06.
 No special actions if energy rises.
 Integral accuracy reduced to 1.0D-05 until final iterations.

 Cycle   1  Pass 0  IDiag  1:
 E= -526.701306528364    
 DIIS: error= 2.56D-02 at cycle   1 NSaved=   1.
 NSaved= 1 IEnMin= 1 EnMin= -526.701306528364     IErMin= 1 ErrMin= 2.56D-02
 ErrMax= 2.56D-02  0.00D+00 EMaxC= 1.00D-01 BMatC= 2.85D-01 BMatP= 2.85D-01
 IDIUse=3 WtCom= 7.44D-01 WtEn= 2.56D-01
 Coeff-Com:  0.100D+01
 Coeff-En:   0.100D+01
 Coeff:      0.100D+01
 Gap=     0.362 Goal=   None    Shift=    0.000
 GapD=    0.362 DampG=1.000 DampE=0.500 DampFc=0.5000 IDamp=-1.
 Damping current iteration by 5.00D-01
 RMSDP=2.31D-03 MaxDP=8.84D-02              OVMax= 2.03D-01

 Cycle   2  Pass 0  IDiag  1:
 E= -526.758216489034     Delta-E=       -0.056909960670 Rises=F Damp=T
 DIIS: error= 7.61D-03 at cycle   2 NSaved=   2.
 NSaved= 2 IEnMin= 2 EnMin= -526.758216489034     IErMin= 2 ErrMin= 7.61D-03
 ErrMax= 7.61D-03  0.00D+00 EMaxC= 1.00D-01 BMatC= 2.99D-02 BMatP= 2.85D-01
 IDIUse=3 WtCom= 9.24D-01 WtEn= 7.61D-02
 Coeff-Com:  0.679D-01 0.932D+00
 Coeff-En:   0.216D+00 0.784D+00
 Coeff:      0.791D-01 0.921D+00
 Gap=     0.416 Goal=   None    Shift=    0.000
 RMSDP=6.55D-04 MaxDP=1.80D-02 DE=-5.69D-02 OVMax= 1.18D-01

 Cycle   3  Pass 0  IDiag  1:
 E= -526.842708012936     Delta-E=       -0.084491523902 Rises=F Damp=F
 DIIS: error= 8.39D-03 at cycle   3 NSaved=   3.
 NSaved= 3 IEnMin= 3 EnMin= -526.842708012936     IErMin= 2 ErrMin= 7.61D-03
 ErrMax= 8.39D-03  0.00D+00 EMaxC= 1.00D-01 BMatC= 9.75D-03 BMatP= 2.99D-02
 IDIUse=3 WtCom= 9.16D-01 WtEn= 8.39D-02
 Coeff-Com: -0.610D-01 0.326D+00 0.735D+00
 Coeff-En:   0.000D+00 0.000D+00 0.100D+01
 Coeff:     -0.559D-01 0.299D+00 0.757D+00
 Gap=     0.394 Goal=   None    Shift=    0.000
 RMSDP=3.31D-04 MaxDP=1.40D-02 DE=-8.45D-02 OVMax= 4.95D-02

 Cycle   4  Pass 0  IDiag  1:
 E= -526.846995664579     Delta-E=       -0.004287651643 Rises=F Damp=F
 DIIS: error= 4.44D-03 at cycle   4 NSaved=   4.
 NSaved= 4 IEnMin= 4 EnMin= -526.846995664579     IErMin= 4 ErrMin= 4.44D-03
 ErrMax= 4.44D-03  0.00D+00 EMaxC= 1.00D-01 BMatC= 4.22D-03 BMatP= 9.75D-03
 IDIUse=3 WtCom= 9.56D-01 WtEn= 4.44D-02
 Coeff-Com: -0.377D-01 0.748D-01 0.447D+00 0.516D+00
 Coeff-En:   0.000D+00 0.000D+00 0.292D+00 0.708D+00
 Coeff:     -0.361D-01 0.715D-01 0.440D+00 0.524D+00
 Gap=     0.401 Goal=   None    Shift=    0.000
 RMSDP=1.36D-04 MaxDP=5.71D-03 DE=-4.29D-03 OVMax= 1.78D-02

 Cycle   5  Pass 0  IDiag  1:
 E= -526.849734607110     Delta-E=       -0.002738942531 Rises=F Damp=F
 DIIS: error= 4.38D-04 at cycle   5 NSaved=   5.
 NSaved= 5 IEnMin= 5 EnMin= -526.849734607110     IErMin= 5 ErrMin= 4.38D-04
 ErrMax= 4.38D-04  0.00D+00 EMaxC= 1.00D-01 BMatC= 5.87D-05 BMatP= 4.22D-03
 IDIUse=3 WtCom= 9.96D-01 WtEn= 4.38D-03
 Coeff-Com: -0.108D-01 0.150D-01 0.144D+00 0.205D+00 0.646D+00
 Coeff-En:   0.000D+00 0.000D+00 0.000D+00 0.000D+00 0.100D+01
 Coeff:     -0.107D-01 0.149D-01 0.144D+00 0.204D+00 0.648D+00
 Gap=     0.402 Goal=   None    Shift=    0.000
 RMSDP=2.21D-05 MaxDP=8.22D-04 DE=-2.74D-03 OVMax= 2.52D-03

 Cycle   6  Pass 0  IDiag  1:
 E= -526.849781459268     Delta-E=       -0.000046852158 Rises=F Damp=F
 DIIS: error= 9.22D-05 at cycle   6 NSaved=   6.
 NSaved= 6 IEnMin= 6 EnMin= -526.849781459268     IErMin= 6 ErrMin= 9.22D-05
 ErrMax= 9.22D-05  0.00D+00 EMaxC= 1.00D-01 BMatC= 2.73D-06 BMatP= 5.87D-05
 IDIUse=1 WtCom= 1.00D+00 WtEn= 0.00D+00
 Coeff-Com:  0.101D-02-0.317D-02-0.105D-01-0.132D-01 0.125D+00 0.901D+00
 Coeff:      0.101D-02-0.317D-02-0.105D-01-0.132D-01 0.125D+00 0.901D+00
 Gap=     0.402 Goal=   None    Shift=    0.000
 RMSDP=8.26D-06 MaxDP=2.18D-04 DE=-4.69D-05 OVMax= 6.73D-04

 Initial convergence to 1.0D-05 achieved.  Increase integral accuracy.
 Cycle   7  Pass 1  IDiag  1:
 E= -526.849800672063     Delta-E=       -0.000019212795 Rises=F Damp=F
 DIIS: error= 2.68D-05 at cycle   1 NSaved=   1.
 NSaved= 1 IEnMin= 1 EnMin= -526.849800672063     IErMin= 1 ErrMin= 2.68D-05
 ErrMax= 2.68D-05  0.00D+00 EMaxC= 1.00D-01 BMatC= 6.58D-07 BMatP= 6.58D-07
 IDIUse=1 WtCom= 1.00D+00 WtEn= 0.00D+00
 Coeff-Com:  0.100D+01
 Coeff:      0.100D+01
 Gap=     0.402 Goal=   None    Shift=    0.000
 RMSDP=8.26D-06 MaxDP=2.18D-04 DE=-1.92D-05 OVMax= 2.76D-04

 Cycle   8  Pass 1  IDiag  1:
 E= -526.849801168432     Delta-E=       -0.000000496370 Rises=F Damp=F
 DIIS: error= 3.53D-05 at cycle   2 NSaved=   2.
 NSaved= 2 IEnMin= 2 EnMin= -526.849801168432     IErMin= 1 ErrMin= 2.68D-05
 ErrMax= 3.53D-05  0.00D+00 EMaxC= 1.00D-01 BMatC= 1.59D-07 BMatP= 6.58D-07
 IDIUse=1 WtCom= 1.00D+00 WtEn= 0.00D+00
 Coeff-Com:  0.250D+00 0.750D+00
 Coeff:      0.250D+00 0.750D+00
 Gap=     0.402 Goal=   None    Shift=    0.000
 RMSDP=1.65D-06 MaxDP=7.17D-05 DE=-4.96D-07 OVMax= 2.51D-04

 Cycle   9  Pass 1  IDiag  1:
 E= -526.849801237028     Delta-E=       -0.000000068595 Rises=F Damp=F
 DIIS: error= 2.06D-05 at cycle   3 NSaved=   3.
 NSaved= 3 IEnMin= 3 EnMin= -526.849801237028     IErMin= 3 ErrMin= 2.06D-05
 ErrMax= 2.06D-05  0.00D+00 EMaxC= 1.00D-01 BMatC= 1.09D-07 BMatP= 1.59D-07
 IDIUse=1 WtCom= 1.00D+00 WtEn= 0.00D+00
 Coeff-Com: -0.216D-01 0.449D+00 0.572D+00
 Coeff:     -0.216D-01 0.449D+00 0.572D+00
 Gap=     0.402 Goal=   None    Shift=    0.000
 RMSDP=8.40D-07 MaxDP=3.69D-05 DE=-6.86D-08 OVMax= 8.49D-05

 Cycle  10  Pass 1  IDiag  1:
 E= -526.849801309413     Delta-E=       -0.000000072385 Rises=F Damp=F
 DIIS: error= 5.92D-06 at cycle   4 NSaved=   4.
 NSaved= 4 IEnMin= 4 EnMin= -526.849801309413     IErMin= 4 ErrMin= 5.92D-06
 ErrMax= 5.92D-06  0.00D+00 EMaxC= 1.00D-01 BMatC= 4.79D-09 BMatP= 1.09D-07
 IDIUse=1 WtCom= 1.00D+00 WtEn= 0.00D+00
 Coeff-Com: -0.310D-01 0.141D+00 0.230D+00 0.660D+00
 Coeff:     -0.310D-01 0.141D+00 0.230D+00 0.660D+00
 Gap=     0.402 Goal=   None    Shift=    0.000
 RMSDP=2.36D-07 MaxDP=9.21D-06 DE=-7.24D-08 OVMax= 3.93D-05

 Cycle  11  Pass 1  IDiag  1:
 E= -526.849801314034     Delta-E=       -0.000000004621 Rises=F Damp=F
 DIIS: error= 1.04D-06 at cycle   5 NSaved=   5.
 NSaved= 5 IEnMin= 5 EnMin= -526.849801314034     IErMin= 5 ErrMin= 1.04D-06
 ErrMax= 1.04D-06  0.00D+00 EMaxC= 1.00D-01 BMatC= 6.61D-10 BMatP= 4.79D-09
 IDIUse=1 WtCom= 1.00D+00 WtEn= 0.00D+00
 Coeff-Com: -0.209D-02-0.404D-01-0.754D-01 0.148D+00 0.970D+00
 Coeff:     -0.209D-02-0.404D-01-0.754D-01 0.148D+00 0.970D+00
 Gap=     0.402 Goal=   None    Shift=    0.000
 RMSDP=1.37D-07 MaxDP=3.65D-06 DE=-4.62D-09 OVMax= 1.41D-05

 Cycle  12  Pass 1  IDiag  1:
 E= -526.849801314847     Delta-E=       -0.000000000813 Rises=F Damp=F
 DIIS: error= 5.53D-07 at cycle   6 NSaved=   6.
 NSaved= 6 IEnMin= 6 EnMin= -526.849801314847     IErMin= 6 ErrMin= 5.53D-07
 ErrMax= 5.53D-07  0.00D+00 EMaxC= 1.00D-01 BMatC= 1.17D-10 BMatP= 6.61D-10
 IDIUse=1 WtCom= 1.00D+00 WtEn= 0.00D+00
 Coeff-Com:  0.294D-02-0.360D-01-0.689D-01 0.425D-03 0.463D+00 0.638D+00
 Coeff:      0.294D-02-0.360D-01-0.689D-01 0.425D-03 0.463D+00 0.638D+00
 Gap=     0.402 Goal=   None    Shift=    0.000
 RMSDP=3.59D-08 MaxDP=1.08D-06 DE=-8.13D-10 OVMax= 4.07D-06

 Cycle  13  Pass 1  IDiag  1:
 E= -526.849801314925     Delta-E=       -0.000000000077 Rises=F Damp=F
 DIIS: error= 8.46D-08 at cycle   7 NSaved=   7.
 NSaved= 7 IEnMin= 7 EnMin= -526.849801314925     IErMin= 7 ErrMin= 8.46D-08
 ErrMax= 8.46D-08  0.00D+00 EMaxC= 1.00D-01 BMatC= 3.63D-12 BMatP= 1.17D-10
 IDIUse=1 WtCom= 1.00D+00 WtEn= 0.00D+00
 Coeff-Com:  0.913D-03-0.574D-02-0.128D-01-0.972D-02 0.358D-01 0.152D+00
 Coeff-Com:  0.840D+00
 Coeff:      0.913D-03-0.574D-02-0.128D-01-0.972D-02 0.358D-01 0.152D+00
 Coeff:      0.840D+00
 Gap=     0.402 Goal=   None    Shift=    0.000
 RMSDP=9.45D-09 MaxDP=1.79D-07 DE=-7.73D-11 OVMax= 8.86D-07

 SCF Done:  E(RM062X) =  -526.849801315     A.U. after   13 cycles
            NFock= 13  Conv=0.95D-08     -V/T= 2.0037
 KE= 5.249045857287D+02 PE=-1.921084157700D+03 EE= 5.328296835983D+02
 Leave Link  502 at Sun May 25 04:08:28 2025, MaxMem=  3758096384 cpu:              40.7 elap:               7.9
 (Enter /apps/easybuild-2022/easybuild/software/Compiler/NVHPC/22.11-CUDA-11.7.0/Gaussian/g16c01-CUDA-11.7.0/g16/l508.exe)
 QCSCF skips out because SCF is already converged.
 Leave Link  508 at Sun May 25 04:08:28 2025, MaxMem=  3758096384 cpu:               0.0 elap:               0.0
 (Enter /apps/easybuild-2022/easybuild/software/Compiler/NVHPC/22.11-CUDA-11.7.0/Gaussian/g16c01-CUDA-11.7.0/g16/l801.exe)
 DoSCS=F DFT=T ScalE2(SS,OS)=  1.000000  1.000000
 Range of M.O.s used for correlation:     1   231
 NBasis=   231 NAE=    28 NBE=    28 NFC=     0 NFV=     0
 NROrb=    231 NOA=    28 NOB=    28 NVA=   203 NVB=   203

 **** Warning!!: The largest alpha MO coefficient is  0.12248373D+02

 Leave Link  801 at Sun May 25 04:08:28 2025, MaxMem=  3758096384 cpu:               0.0 elap:               0.0
 (Enter /apps/easybuild-2022/easybuild/software/Compiler/NVHPC/22.11-CUDA-11.7.0/Gaussian/g16c01-CUDA-11.7.0/g16/l1101.exe)
 Using compressed storage, NAtomX=     8.
 Will process      9 centers per pass.
   1 Symmetry operations used in ECPInt.
 ECPInt:  NShTT=    3486 NPrTT=   11183 LenC2=    3398 LenP2D=    8678.
 LDataN:  DoStor=T MaxTD1= 7 Len=  274
 Leave Link 1101 at Sun May 25 04:08:28 2025, MaxMem=  3758096384 cpu:               0.5 elap:               0.1
 (Enter /apps/easybuild-2022/easybuild/software/Compiler/NVHPC/22.11-CUDA-11.7.0/Gaussian/g16c01-CUDA-11.7.0/g16/l1102.exe)
 Symmetrizing basis deriv contribution to polar:
 IMax=3 JMax=2 DiffMx= 0.00D+00
 Leave Link 1102 at Sun May 25 04:08:28 2025, MaxMem=  3758096384 cpu:               0.0 elap:               0.0
 (Enter /apps/easybuild-2022/easybuild/software/Compiler/NVHPC/22.11-CUDA-11.7.0/Gaussian/g16c01-CUDA-11.7.0/g16/l1110.exe)
 Forming Gx(P) for the SCF density, NAtomX=     8.
 Integral derivatives from FoFJK, PRISM(SPDF).
 Do as many integral derivatives as possible in FoFJK.
 G2DrvN: MDV=    3758095424.
 G2DrvN: will do     9 centers at a time, making    1 passes.
 Calling FoFCou, ICntrl=  3107 FMM=F I1Cent=   0 AccDes= 0.00D+00.
 FoFJK:  IHMeth= 1 ICntrl=    3107 DoSepK=F KAlg= 0 I1Cent=           0 FoldK=F
 IRaf=         0 NMat=       1 IRICut=       1 DoRegI=T DoRafI=F ISym2E= 0 IDoP0=0 IntGTp=1.
 FoFCou: FMM=F IPFlag=           0 FMFlag=      100000 FMFlg1=           0
         NFxFlg=           0 DoJE=F BraDBF=F KetDBF=F FulRan=T
         wScrn=  0.000000 ICntrl=      3107 IOpCl=  0 I1Cent=           0 NGrid=           0
         NMat0=    1 NMatS0=      1 NMatT0=    0 NMatD0=    1 NMtDS0=    0 NMtDT0=    0
 Symmetry not used in FoFCou.
 End of G2Drv F.D. properties file   721 does not exist.
 End of G2Drv F.D. properties file   722 does not exist.
 End of G2Drv F.D. properties file   788 does not exist.
 Leave Link 1110 at Sun May 25 04:08:42 2025, MaxMem=  3758096384 cpu:             107.8 elap:              13.6
 (Enter /apps/easybuild-2022/easybuild/software/Compiler/NVHPC/22.11-CUDA-11.7.0/Gaussian/g16c01-CUDA-11.7.0/g16/l1002.exe)
 Minotr:  Closed shell wavefunction.
          IDoAtm=11111111
          Direct CPHF calculation.
          Differentiating once with respect to nuclear coordinates.
          Requested convergence is 1.0D-08 RMS, and 1.0D-07 maximum.
          Secondary convergence is 1.0D-12 RMS, and 1.0D-12 maximum.
          NewPWx=T KeepS1=F KeepF1=F KeepIn=T MapXYZ=F SortEE=F KeepMc=T.
         2392 words used for storage of precomputed grid.
 Keep R1 ints in memory in canonical form, NReq=368655240.
 FoFCou: FMM=F IPFlag=           0 FMFlag=           0 FMFlg1=           0
         NFxFlg=           0 DoJE=F BraDBF=F KetDBF=F FulRan=T
         wScrn=  0.000000 ICntrl=       600 IOpCl=  0 I1Cent=           0 NGrid=           0
         NMat0=    1 NMatS0=  26796 NMatT0=    0 NMatD0=    1 NMtDS0=    0 NMtDT0=    0
 Symmetry not used in FoFCou.
 Two-electron integral symmetry not used.
          MDV=    3758096384 using IRadAn=       1.
          Solving linear equations simultaneously, MaxMat=       0.
          There are    27 degrees of freedom in the 1st order CPHF.  IDoFFX=6 NUNeed=     0.
     21 vectors produced by pass  0 Test12= 2.11D-14 3.70D-09 XBig12= 1.23D-01 7.34D-02.
 AX will form    21 AO Fock derivatives at one time.
     21 vectors produced by pass  1 Test12= 2.11D-14 3.70D-09 XBig12= 1.50D-02 6.85D-02.
     21 vectors produced by pass  2 Test12= 2.11D-14 3.70D-09 XBig12= 8.92D-04 5.68D-03.
     21 vectors produced by pass  3 Test12= 2.11D-14 3.70D-09 XBig12= 1.47D-05 6.27D-04.
     21 vectors produced by pass  4 Test12= 2.11D-14 3.70D-09 XBig12= 1.61D-07 6.86D-05.
     21 vectors produced by pass  5 Test12= 2.11D-14 3.70D-09 XBig12= 1.44D-09 7.96D-06.
     21 vectors produced by pass  6 Test12= 2.11D-14 3.70D-09 XBig12= 9.62D-12 5.62D-07.
     10 vectors produced by pass  7 Test12= 2.11D-14 3.70D-09 XBig12= 6.11D-14 3.56D-08.
 InvSVY:  IOpt=1 It=  1 EMax= 8.88D-16
 Solved reduced A of dimension   157 with    21 vectors.
 End of Minotr F.D. properties file   721 does not exist.
 End of Minotr F.D. properties file   722 does not exist.
 End of Minotr F.D. properties file   788 does not exist.
 Leave Link 1002 at Sun May 25 04:09:00 2025, MaxMem=  3758096384 cpu:             138.4 elap:              17.6
 (Enter /apps/easybuild-2022/easybuild/software/Compiler/NVHPC/22.11-CUDA-11.7.0/Gaussian/g16c01-CUDA-11.7.0/g16/l701.exe)
 ... and contract with generalized density number  0.
 Compute integral second derivatives.
   1 Symmetry operations used in ECPInt.
 ECPInt:  NShTT=    3486 NPrTT=   11183 LenC2=    3398 LenP2D=    8678.
 LDataN:  DoStor=T MaxTD1= 8 Len=  415
 Leave Link  701 at Sun May 25 04:09:00 2025, MaxMem=  3758096384 cpu:               0.6 elap:               0.1
 (Enter /apps/easybuild-2022/easybuild/software/Compiler/NVHPC/22.11-CUDA-11.7.0/Gaussian/g16c01-CUDA-11.7.0/g16/l702.exe)
 L702 exits ... SP integral derivatives will be done elsewhere.
 Leave Link  702 at Sun May 25 04:09:00 2025, MaxMem=  3758096384 cpu:               0.0 elap:               0.0
 (Enter /apps/easybuild-2022/easybuild/software/Compiler/NVHPC/22.11-CUDA-11.7.0/Gaussian/g16c01-CUDA-11.7.0/g16/l703.exe)
 Integral derivatives from FoFJK, PRISM(SPDF).
 Compute integral second derivatives, UseDBF=F ICtDFT=           0.
 Calling FoFJK, ICntrl=    100127 FMM=F ISym2X=0 I1Cent= 0 IOpClX= 0 NMat=1 NMatS=1 NMatT=0.
 FoFJK:  IHMeth= 1 ICntrl=  100127 DoSepK=F KAlg= 0 I1Cent=           0 FoldK=F
 IRaf=         0 NMat=       1 IRICut=       1 DoRegI=T DoRafI=F ISym2E= 0 IDoP0=0 IntGTp=1.
 FoFCou: FMM=F IPFlag=           0 FMFlag=      100000 FMFlg1=         800
         NFxFlg=           0 DoJE=F BraDBF=F KetDBF=F FulRan=T
         wScrn=  0.000000 ICntrl=    100127 IOpCl=  0 I1Cent=           0 NGrid=           0
         NMat0=    1 NMatS0=      1 NMatT0=    0 NMatD0=    1 NMtDS0=    0 NMtDT0=    0
 Symmetry not used in FoFCou.
 Leave Link  703 at Sun May 25 04:09:37 2025, MaxMem=  3758096384 cpu:             293.6 elap:              37.0
 (Enter /apps/easybuild-2022/easybuild/software/Compiler/NVHPC/22.11-CUDA-11.7.0/Gaussian/g16c01-CUDA-11.7.0/g16/l716.exe)
 Dipole        =-3.99101448D-01-8.43510182D-02-7.18693258D-01
 Polarizability= 0.00000000D+00 0.00000000D+00 0.00000000D+00
                 0.00000000D+00 0.00000000D+00 0.00000000D+00
 -------------------------------------------------------------------
 Center     Atomic                   Forces (Hartrees/Bohr)
 Number     Number              X              Y              Z
 -------------------------------------------------------------------
      1        6           0.000614011    0.004615927   -0.003686613
      2        8          -0.003143019   -0.012158517    0.005952006
      3        6          -0.000792853    0.001954195   -0.003633203
      4        9          -0.001562892    0.000949071   -0.002031819
      5        9          -0.000567659   -0.000606053   -0.002529568
      6        9          -0.000321008    0.001896775   -0.003826574
      7        8           0.007196533    0.005946663    0.010368703
      8        1          -0.001423112   -0.002598061   -0.000612931
 -------------------------------------------------------------------
 Cartesian Forces:  Max     0.012158517 RMS     0.004485041
 Force constants in Cartesian coordinates: 
                1             2             3             4             5 
      1  0.430321D+00
      2  0.302001D+00  0.942742D+00
      3  0.118103D+00 -0.944289D-01  0.593433D+00
      4 -0.141048D+00 -0.655753D-01 -0.981287D-01  0.174575D+00
      5 -0.560188D-01 -0.147323D+00 -0.365245D-01  0.137562D+00  0.436184D+00
      6 -0.109491D+00 -0.589699D-01 -0.247731D+00  0.152011D+00 -0.132880D+00
      7 -0.705201D-01  0.210135D-01 -0.135243D-01  0.402994D-03  0.280639D-02
      8  0.211461D-01 -0.828120D-01  0.559143D-01 -0.112051D-01  0.797732D-02
      9 -0.122437D-01  0.504394D-01 -0.157367D+00 -0.459858D-02  0.826286D-02
     10 -0.220628D-01  0.127732D-01  0.981191D-02  0.289505D-03  0.759449D-03
     11  0.305197D-01 -0.111977D-01 -0.722144D-02  0.965769D-03 -0.954287D-03
     12 -0.230176D-01  0.129585D-01  0.121978D-01  0.527234D-03 -0.248625D-03
     13  0.673512D-02 -0.923921D-02 -0.629390D-02  0.806411D-04  0.137749D-02
     14 -0.330699D-02 -0.332980D-02  0.191974D-02  0.154210D-02  0.191737D-02
     15 -0.791626D-02 -0.376725D-01 -0.354526D-01 -0.127913D-02  0.791638D-02
     16 -0.944299D-02 -0.106851D-01 -0.604935D-02  0.325660D-02  0.223071D-02
     17 -0.319998D-01 -0.116797D-01 -0.523981D-02  0.462699D-02  0.152431D-02
     18  0.246464D-01  0.149547D-01  0.816135D-02 -0.195863D-02 -0.127270D-03
     19 -0.195108D+00 -0.268444D+00  0.266412D-01 -0.119347D-01 -0.665447D-01
     20 -0.264150D+00 -0.708782D+00  0.997989D-01 -0.629851D-01 -0.524514D-01
     21  0.215110D-01  0.893661D-01 -0.126559D+00 -0.343468D-01 -0.549560D-01
     22  0.112644D-02  0.181558D-01 -0.305599D-01 -0.256214D-01 -0.221723D-01
     23  0.180838D-02  0.223826D-01 -0.142183D-01 -0.493104D-02 -0.246874D+00
     24 -0.115918D-01  0.233526D-01 -0.466831D-01 -0.122262D-01  0.208557D+00
                6             7             8             9            10 
      6  0.541182D+00
      7 -0.162457D-01  0.556901D+00
      8 -0.241342D-01  0.215131D-01  0.589683D+00
      9 -0.971509D-02  0.126522D-01 -0.700087D-02  0.596669D+00
     10 -0.526613D-02 -0.229619D+00  0.109962D+00 -0.776071D-02  0.330873D+00
     11  0.724916D-02  0.109336D+00 -0.154352D+00  0.834690D-02 -0.157469D+00
     12 -0.242791D-02 -0.102300D-01  0.108439D-01 -0.823709D-01 -0.290240D-01
     13 -0.113045D-02 -0.784825D-01 -0.147049D-01 -0.281792D-01 -0.197439D-02
     14  0.129539D-02 -0.156916D-01 -0.147894D+00 -0.108067D+00  0.274776D-01
     15 -0.109317D-01 -0.217542D-01 -0.977479D-01 -0.253818D+00  0.247125D-01
     16  0.286901D-02 -0.190195D+00 -0.111265D+00  0.461343D-01 -0.826393D-01
     17  0.467977D-02 -0.110069D+00 -0.183263D+00  0.527536D-01  0.105185D-02
     18 -0.274672D-02  0.416010D-01  0.455542D-01 -0.103695D+00  0.147296D-01
     19 -0.304372D-01  0.955632D-02 -0.108735D-01 -0.285858D-02  0.481004D-02
     20 -0.461407D-01 -0.253938D-01 -0.287372D-01 -0.425495D-02  0.568606D-02
     21  0.170568D-01  0.108357D-01  0.187325D-01  0.110634D-01 -0.679826D-02
     22  0.769076D-02  0.195663D-02 -0.457252D-02 -0.314578D-02  0.322654D-03
     23  0.248901D+00 -0.351475D-02 -0.601491D-03 -0.480260D-03 -0.241061D-03
     24 -0.284687D+00 -0.333486D-02 -0.216191D-02 -0.766540D-03 -0.404894D-03
               11            12            13            14            15 
     11  0.178876D+00
     12  0.221320D-01  0.743195D-01
     13  0.362370D-01  0.375814D-01  0.861789D-01
     14 -0.362849D-01 -0.435163D-01  0.252218D-01  0.225553D+00
     15 -0.348641D-01 -0.953446D-02  0.268129D-01  0.181134D+00  0.301046D+00
     16 -0.156746D-01  0.199960D-01 -0.122402D-01 -0.376996D-01 -0.184629D-01
     17  0.241628D-01 -0.435119D-02 -0.421805D-01 -0.458420D-01 -0.225728D-01
     18 -0.106786D-02  0.116692D-01 -0.293061D-01 -0.359883D-01  0.818024D-02
     19 -0.360973D-02  0.313932D-02  0.148954D-03  0.223412D-02 -0.623129D-03
     20 -0.731296D-03  0.270316D-02  0.308018D-02  0.588596D-02  0.502407D-02
     21  0.470023D-02 -0.369158D-02  0.544802D-03  0.350024D-02  0.131518D-02
     22 -0.305388D-03  0.102755D-02 -0.446455D-03  0.222674D-03 -0.148981D-02
     23  0.482180D-03 -0.521451D-03  0.208148D-03 -0.497655D-05 -0.121683D-02
     24  0.725133D-03 -0.161640D-03 -0.294597D-04 -0.277794D-03 -0.804238D-03
               16            17            18            19            20 
     16  0.289879D+00
     17  0.175430D+00  0.223244D+00
     18 -0.498192D-01 -0.336369D-01  0.849654D-01
     19  0.123605D-02  0.269995D-02 -0.500217D-03  0.194762D+00
     20 -0.237472D-02 -0.791421D-02  0.102111D-01  0.345567D+00  0.801025D+00
     21  0.519526D-02  0.889759D-02 -0.774958D-02 -0.276908D-02 -0.704314D-01
     22  0.146271D-03  0.440556D-03  0.607072D-03 -0.347080D-02  0.570100D-03
     23  0.385028D-04 -0.232442D-03  0.100206D-03 -0.102923D-02 -0.829468D-02
     24  0.136796D-03 -0.530327D-03  0.121517D-02  0.740766D-02  0.308980D-02
               21            22            23            24 
     21  0.101620D+00
     22  0.582733D-02  0.259867D-01
     23  0.190767D-03  0.766105D-02  0.233143D+00
     24  0.694537D-02  0.200427D-01 -0.232755D+00  0.324942D+00
 FormGI is forming the generalized inverse of G from B-inverse, IUseBI=4.
 Force constants in internal coordinates: 
                1             2             3             4             5 
      1  0.474295D+00
      2  0.119644D-01  0.243366D+00
      3  0.102108D+00  0.280594D-01  0.961647D+00
      4  0.124984D-01 -0.158444D-02 -0.903370D-02  0.515841D+00
      5  0.605817D-02  0.198651D-01  0.759827D-02  0.261843D-03  0.433342D+00
      6  0.406151D-02  0.182984D-01  0.716418D-02 -0.212301D-04  0.575425D-01
      7  0.802966D-02  0.157188D-01  0.800565D-02 -0.242939D-03  0.569370D-01
      8  0.617394D-02  0.122650D-01 -0.539777D-01  0.582346D-02  0.480049D-02
      9  0.363194D-01 -0.230191D-01  0.519752D-01 -0.103603D-01 -0.837766D-02
     10 -0.424925D-01  0.107106D-01  0.200577D-02  0.453975D-02  0.344687D-02
     11  0.455714D-01  0.201910D-02  0.559304D-02  0.294069D-01  0.866140D-03
     12  0.328713D-02  0.777141D-02  0.377904D-02  0.618387D-05  0.157315D-01
     13  0.111159D-01  0.275630D-01 -0.874292D-02 -0.458833D-04 -0.270903D-01
     14 -0.167364D-02  0.948585D-02  0.182246D-01 -0.138285D-02 -0.301168D-01
     15 -0.418531D-02 -0.146396D-01 -0.406397D-02  0.243010D-03  0.241149D-01
     16 -0.416992D-02 -0.129292D-01 -0.585393D-02  0.410196D-03  0.233647D-01
     17 -0.471852D-02 -0.188731D-01 -0.421278D-02  0.838054D-03 -0.329536D-02
     18  0.421426D-04  0.135130D-02  0.200614D-03 -0.377967D-04  0.292002D-02
     19 -0.751999D-03  0.486408D-04  0.236805D-03  0.165721D-03 -0.160266D-02
     20 -0.215175D-02 -0.349482D-02  0.559824D-02 -0.321172D-03 -0.218208D-02
     21  0.114893D-02 -0.673458D-03 -0.218814D-02 -0.509273D-04  0.203215D-01
     22  0.193801D-02  0.118978D-02 -0.168642D-02  0.669741D-04 -0.231945D-01
     23 -0.290878D-02 -0.152932D-02  0.457719D-02 -0.231154D-03  0.256928D-02
     24  0.391898D-03  0.129204D-02 -0.320918D-02  0.390904D-04  0.250728D-01
     25  0.118098D-02  0.315528D-02 -0.270746D-02  0.156992D-03 -0.184431D-01
                6             7             8             9            10 
      6  0.451928D+00
      7  0.573598D-01  0.444868D+00
      8  0.170030D-01 -0.810037D-02  0.137122D+00
      9 -0.538534D-02 -0.905857D-02 -0.994142D-01  0.204789D+00
     10 -0.115584D-01  0.172202D-01 -0.376788D-01 -0.105401D+00  0.143095D+00
     11  0.298733D-02 -0.377871D-03  0.242869D-01 -0.272359D-01  0.295753D-02
     12 -0.274727D-01 -0.303212D-01  0.178607D-02 -0.273455D-02  0.714341D-03
     13  0.124985D-01 -0.318654D-01  0.147717D-01 -0.863936D-02 -0.605663D-02
     14 -0.316532D-01  0.986573D-02 -0.795009D-02 -0.920353D-02  0.172637D-01
     15  0.249030D-01 -0.274799D-02 -0.453528D-02  0.621068D-02 -0.163544D-02
     16 -0.202959D-02  0.266491D-01 -0.109896D-02  0.681879D-02 -0.569206D-02
     17  0.264714D-01  0.286404D-01 -0.311818D-02  0.839590D-02 -0.529778D-02
     18 -0.113180D-02 -0.163347D-02  0.744441D-04  0.138481D-02 -0.176618D-02
     19  0.769867D-03  0.852165D-03  0.646457D-03 -0.182454D-02  0.151496D-02
     20 -0.216007D-01  0.207542D-01 -0.481548D-02  0.130888D-02  0.381916D-02
     21 -0.212665D-03 -0.186102D-01 -0.686349D-03  0.220907D-02 -0.125368D-02
     22  0.214402D-01  0.177811D-02  0.580117D-03  0.650735D-03 -0.860357D-03
     23 -0.236216D-01  0.187876D-01 -0.416793D-02 -0.159097D-02  0.542906D-02
     24 -0.223352D-02 -0.205767D-01 -0.387950D-04 -0.690774D-03  0.356215D-03
     25  0.194193D-01 -0.188480D-03  0.122767D-02 -0.224911D-02  0.749537D-03
               11            12            13            14            15 
     11  0.181250D+00
     12 -0.178818D-05  0.168690D+00
     13  0.506435D-02  0.743054D-02  0.196017D+00
     14 -0.451264D-02  0.595322D-02 -0.872276D-02  0.175303D+00
     15 -0.809665D-03 -0.804228D-01 -0.874775D-01 -0.151116D-01  0.134366D+00
     16  0.487807D-03 -0.912125D-01 -0.170409D-01 -0.837343D-01  0.285803D-01
     17 -0.159567D-03 -0.169640D-01 -0.972599D-01 -0.814583D-01  0.299439D-01
     18 -0.951966D-04  0.651393D-02 -0.261576D-02 -0.262620D-02 -0.927381D-03
     19  0.318177D-03 -0.173551D-02 -0.311660D-04  0.158372D-02  0.441720D-03
     20 -0.140915D-02 -0.287619D-02 -0.100693D-01  0.121805D-01 -0.310553D-01
     21  0.550086D-03  0.210041D-02  0.235661D-02 -0.766738D-02  0.337746D-01
     22  0.957516D-03 -0.102936D-01  0.121516D-01 -0.135689D-02 -0.395745D-03
     23 -0.122730D-02  0.543364D-02 -0.126002D-01  0.849494D-02 -0.325776D-01
     24  0.731930D-03  0.104102D-01 -0.174341D-03 -0.113530D-01  0.322523D-01
     25  0.113936D-02 -0.198381D-02  0.962063D-02 -0.504247D-02 -0.191812D-02
               16            17            18            19            20 
     16  0.139747D+00
     17  0.298204D-01  0.142237D+00
     18 -0.809383D-03  0.484168D-03  0.148487D-01
     19  0.564414D-04 -0.335358D-03  0.397643D-02  0.159027D-01
     20  0.292337D-01  0.615375D-03 -0.506184D-02  0.603952D-02  0.346941D-01
     21  0.100089D-02 -0.294868D-01 -0.392462D-02  0.554913D-02 -0.102914D-01
     22 -0.287214D-01  0.285683D-01 -0.691548D-02  0.615113D-02 -0.858987D-02
     23  0.281225D-01  0.116463D-02  0.573852D-02 -0.581019D-02  0.236521D-01
     24 -0.110336D-03 -0.289376D-01  0.687574D-02 -0.630058D-02 -0.213334D-01
     25 -0.298326D-01  0.291175D-01  0.388488D-02 -0.569858D-02 -0.196319D-01
               21            22            23            24            25 
     21  0.330530D-01
     22 -0.798261D-02  0.362246D-01
     23 -0.198247D-01 -0.216743D-01  0.353283D-01
     24  0.235198D-01 -0.210670D-01 -0.814848D-02  0.367047D-01
     25 -0.175159D-01  0.231402D-01 -0.999812D-02 -0.788212D-02  0.327740D-01
 Leave Link  716 at Sun May 25 04:09:37 2025, MaxMem=  3758096384 cpu:               0.0 elap:               0.0
 (Enter /apps/easybuild-2022/easybuild/software/Compiler/NVHPC/22.11-CUDA-11.7.0/Gaussian/g16c01-CUDA-11.7.0/g16/l103.exe)

 GradGradGradGradGradGradGradGradGradGradGradGradGradGradGradGradGradGrad
 Berny optimization.
 Red2BG is reusing G-inverse.
 Internal  Forces:  Max     0.023626284 RMS     0.007316756
 Search for a local minimum.
 Step number   1 out of a maximum of   35
 All quantities printed in internal units (Hartrees-Bohrs-Radians)
 RMS Force = .73168D-02 SwitMx=.10000D-02 MixMth= 1
 Mixed Optimization -- RFO/linear search
 Second derivative matrix not updated -- analytic derivatives used.
 ITU=  0
     Eigenvalues ---    0.00004   0.01912   0.04366   0.11752   0.13581
     Eigenvalues ---    0.15345   0.17006   0.21469   0.22086   0.24291
     Eigenvalues ---    0.29507   0.38796   0.40198   0.41587   0.46859
     Eigenvalues ---    0.52413   0.58261   0.99311
 RFO step:  Lambda=-4.83279410D-03 EMin= 4.21938700D-05
 Linear search not attempted -- first point.
 Iteration  1 RMS(Cart)=  0.07807791 RMS(Int)=  0.00330298
 Iteration  2 RMS(Cart)=  0.00389617 RMS(Int)=  0.00008939
 Iteration  3 RMS(Cart)=  0.00000847 RMS(Int)=  0.00008901
 Iteration  4 RMS(Cart)=  0.00000000 RMS(Int)=  0.00008901
 ITry= 1 IFail=0 DXMaxC= 2.09D-01 DCOld= 1.00D+10 DXMaxT= 3.00D-01 DXLimC= 3.00D+00 Rises=F
 Variable       Old X    -DE/DX   Delta X   Delta X   Delta X     New X
                                 (Linear)    (Quad)   (Total)
    R1        2.50433   0.00495   0.00000   0.00340   0.00340   2.50773
    R2        2.95426  -0.01268   0.00000  -0.04071  -0.04071   2.91354
    R3        2.24548   0.00719   0.00000  -0.00058  -0.00058   2.24490
    R4        1.83119  -0.00125   0.00000  -0.00312  -0.00312   1.82807
    R5        2.51797  -0.00164   0.00000   0.00062   0.00062   2.51858
    R6        2.50209  -0.00241   0.00000  -0.00517  -0.00517   2.49692
    R7        2.50672  -0.00167   0.00000   0.00032   0.00032   2.50704
    A1        2.02482  -0.02043   0.00000  -0.09656  -0.09656   1.92826
    A2        2.12969   0.02363   0.00000   0.07694   0.07694   2.20663
    A3        2.12823  -0.00320   0.00000   0.01952   0.01952   2.14775
    A4        1.83565   0.00504   0.00000   0.04955   0.04955   1.88520
    A5        1.90539  -0.00210   0.00000  -0.00371  -0.00388   1.90151
    A6        1.90434   0.00020   0.00000   0.01970   0.01973   1.92407
    A7        1.97849  -0.00648   0.00000  -0.02920  -0.02925   1.94924
    A8        1.89012   0.00243   0.00000   0.00593   0.00586   1.89599
    A9        1.88975   0.00307   0.00000   0.00196   0.00172   1.89147
   A10        1.89386   0.00329   0.00000   0.00658   0.00671   1.90057
    D1       -3.10220   0.00025   0.00000   0.01113   0.01122  -3.09098
    D2        0.00786  -0.00004   0.00000   0.00771   0.00762   0.01548
    D3        1.58095  -0.00118   0.00000  -0.06578  -0.06568   1.51527
    D4       -2.63965   0.00065   0.00000  -0.04935  -0.04924  -2.68889
    D5       -0.52711   0.00068   0.00000  -0.04632  -0.04644  -0.57354
    D6       -1.52915  -0.00142   0.00000  -0.06350  -0.06346  -1.59260
    D7        0.53344   0.00041   0.00000  -0.04707  -0.04702   0.48642
    D8        2.64599   0.00044   0.00000  -0.04403  -0.04421   2.60177
         Item               Value     Threshold  Converged?
 Maximum Force            0.023626     0.000450     NO 
 RMS     Force            0.007317     0.000300     NO 
 Maximum Displacement     0.209382     0.001800     NO 
 RMS     Displacement     0.079238     0.001200     NO 
 Predicted change in Energy=-2.509185D-03
 Lowest energy point so far.  Saving SCF results.
 GradGradGradGradGradGradGradGradGradGradGradGradGradGradGradGradGradGrad

 Leave Link  103 at Sun May 25 04:09:37 2025, MaxMem=  3758096384 cpu:               0.0 elap:               0.0
 (Enter /apps/easybuild-2022/easybuild/software/Compiler/NVHPC/22.11-CUDA-11.7.0/Gaussian/g16c01-CUDA-11.7.0/g16/l202.exe)
                          Input orientation:                          
 ---------------------------------------------------------------------
 Center     Atomic      Atomic             Coordinates (Angstroms)
 Number     Number       Type             X           Y           Z
 ---------------------------------------------------------------------
      1          6           0       -0.111663    0.614004   -0.788545
      2          8           0       -0.795616   -0.045481   -1.714996
      3          6           0        0.079401   -0.261312    0.466206
      4          9           0        1.173679   -1.006273    0.311672
      5          9           0        0.234282    0.499684    1.535208
      6          9           0       -0.953468   -1.070788    0.661091
      7          8           0        0.338148    1.708857   -0.889490
      8          1           0       -0.854696    0.516663   -2.500055
 ---------------------------------------------------------------------
                    Distance matrix (angstroms):
                    1          2          3          4          5
     1  C    0.000000
     2  O    1.327036   0.000000
     3  C    1.541780   2.360060   0.000000
     4  F    2.342622   2.984733   1.332776   0.000000
     5  F    2.352142   3.452784   1.321312   2.155786   0.000000
     6  F    2.376679   2.592675   1.326669   2.156620   2.154346
     7  O    1.187949   2.246014   2.405499   3.084288   2.711466
     8  H    1.868379   0.967374   3.205696   3.786746   4.179654
                    6          7          8
     6  F    0.000000
     7  O    3.434967   0.000000
     8  H    3.538729   2.331978   0.000000
 Symmetry turned off by external request.
 Stoichiometry    C2HF3O2
 Rotational constants (GHZ):           3.8983323           2.5140983           2.0855025
 Leave Link  202 at Sun May 25 04:09:37 2025, MaxMem=  3758096384 cpu:               0.0 elap:               0.0
 (Enter /apps/easybuild-2022/easybuild/software/Compiler/NVHPC/22.11-CUDA-11.7.0/Gaussian/g16c01-CUDA-11.7.0/g16/l301.exe)
 Standard basis: def2TZVPP (5D, 7F)
 Ernie: Thresh=  0.10000D-02 Tol=  0.10000D-05 Strict=F.
   231 basis functions,   374 primitive gaussians,   267 cartesian basis functions
    28 alpha electrons       28 beta electrons
       nuclear repulsion energy       338.5276703939 Hartrees.
 IExCor= 4336 DFT=T Ex+Corr=M062X ExCW=0 ScaHFX=  0.540000
 ScaDFX=  1.000000  1.000000  1.000000  1.000000 ScalE2=  1.000000  1.000000
 IRadAn=      5 IRanWt=     -1 IRanGd=            0 ICorTp=0 IEmpDi=  4
 NAtoms=    8 NActive=    8 NUniq=    8 SFac= 1.00D+00 NAtFMM=   60 NAOKFM=F Big=F
 Integral buffers will be    131072 words long.
 Raffenetti 2 integral format.
 Two-electron integral symmetry is turned off.
 Leave Link  301 at Sun May 25 04:09:37 2025, MaxMem=  3758096384 cpu:               0.0 elap:               0.0
 (Enter /apps/easybuild-2022/easybuild/software/Compiler/NVHPC/22.11-CUDA-11.7.0/Gaussian/g16c01-CUDA-11.7.0/g16/l302.exe)
 NPDir=0 NMtPBC=     1 NCelOv=     1 NCel=       1 NClECP=     1 NCelD=      1
         NCelK=      1 NCelE2=     1 NClLst=     1 CellRange=     0.0.
 One-electron integrals computed using PRISM.
   1 Symmetry operations used in ECPInt.
 ECPInt:  NShTT=    3486 NPrTT=   11183 LenC2=    3403 LenP2D=    8716.
 LDataN:  DoStor=T MaxTD1= 6 Len=  172
 NBasis=   231 RedAO= T EigKep=  5.45D-04  NBF=   231
 NBsUse=   231 1.00D-06 EigRej= -1.00D+00 NBFU=   231
 Precomputing XC quadrature grid using
 IXCGrd= 4 IRadAn=           5 IRanWt=          -1 IRanGd=           0 AccXCQ= 0.00D+00.
 Generated NRdTot=       0 NPtTot=           0 NUsed=           0 NTot=          32
 NSgBfM=   266   266   266   266   266 MxSgAt=     8 MxSgA2=     8.
 Leave Link  302 at Sun May 25 04:09:37 2025, MaxMem=  3758096384 cpu:               0.5 elap:               0.1
 (Enter /apps/easybuild-2022/easybuild/software/Compiler/NVHPC/22.11-CUDA-11.7.0/Gaussian/g16c01-CUDA-11.7.0/g16/l303.exe)
 DipDrv:  MaxL=1.
 Leave Link  303 at Sun May 25 04:09:37 2025, MaxMem=  3758096384 cpu:               0.1 elap:               0.0
 (Enter /apps/easybuild-2022/easybuild/software/Compiler/NVHPC/22.11-CUDA-11.7.0/Gaussian/g16c01-CUDA-11.7.0/g16/l401.exe)
 Initial guess from the checkpoint file:  "1141903082400600000001_intra_H_migration_suprafacial_2_8_IRC_F_prod.chk"
 B after Tr=     0.001192    0.019980   -0.005295
         Rot=    0.999960   -0.007996    0.000446    0.004105 Ang=  -1.03 deg.
 Guess basis will be translated and rotated to current coordinates.
 JPrj=2 DoOrth=T DoCkMO=T.
 Generating alternative initial guess.
 ExpMin= 9.52D-02 ExpMax= 3.55D+04 ExpMxC= 1.21D+03 IAcc=3 IRadAn=         5 AccDes= 0.00D+00
 Harris functional with IExCor= 1009 and IRadAn=       5 diagonalized for initial guess.
 HarFok:  IExCor= 1009 AccDes= 0.00D+00 IRadAn=         5 IDoV= 1 UseB2=F ITyADJ=14
 ICtDFT=  3500011 ScaDFX=  1.000000  1.000000  1.000000  1.000000
 FoFCou: FMM=F IPFlag=           0 FMFlag=      100000 FMFlg1=           0
         NFxFlg=           0 DoJE=T BraDBF=F KetDBF=T FulRan=T
         wScrn=  0.000000 ICntrl=       500 IOpCl=  0 I1Cent=   200000004 NGrid=           0
         NMat0=    1 NMatS0=      1 NMatT0=    0 NMatD0=    1 NMtDS0=    0 NMtDT0=    0
 Symmetry not used in FoFCou.
 Harris En= -526.546970581871    
 Leave Link  401 at Sun May 25 04:09:37 2025, MaxMem=  3758096384 cpu:               2.1 elap:               0.3
 (Enter /apps/easybuild-2022/easybuild/software/Compiler/NVHPC/22.11-CUDA-11.7.0/Gaussian/g16c01-CUDA-11.7.0/g16/l502.exe)
 Keep R1 ints in memory in canonical form, NReq=368651279.
 FoFCou: FMM=F IPFlag=           0 FMFlag=           0 FMFlg1=           0
         NFxFlg=           0 DoJE=F BraDBF=F KetDBF=F FulRan=T
         wScrn=  0.000000 ICntrl=       600 IOpCl=  0 I1Cent=           0 NGrid=           0
         NMat0=    1 NMatS0=  26796 NMatT0=    0 NMatD0=    1 NMtDS0=    0 NMtDT0=    0
 Symmetry not used in FoFCou.
 Two-electron integral symmetry not used.
 Closed shell SCF:
 Using DIIS extrapolation, IDIIS=  1040.
 NGot=  3758096384 LenX=  3398923531 LenY=  3398851801
 Requested convergence on RMS density matrix=1.00D-08 within  32 cycles.
 Requested convergence on MAX density matrix=1.00D-06.
 Requested convergence on             energy=1.00D-06.
 No special actions if energy rises.
 Integral accuracy reduced to 1.0D-05 until final iterations.

 Cycle   1  Pass 0  IDiag  1:
 E= -526.845043532970    
 DIIS: error= 3.90D-03 at cycle   1 NSaved=   1.
 NSaved= 1 IEnMin= 1 EnMin= -526.845043532970     IErMin= 1 ErrMin= 3.90D-03
 ErrMax= 3.90D-03  0.00D+00 EMaxC= 1.00D-01 BMatC= 6.17D-03 BMatP= 6.17D-03
 IDIUse=3 WtCom= 9.61D-01 WtEn= 3.90D-02
 Coeff-Com:  0.100D+01
 Coeff-En:   0.100D+01
 Coeff:      0.100D+01
 Gap=     1.095 Goal=   None    Shift=    0.000
 GapD=    1.095 DampG=2.000 DampE=1.000 DampFc=2.0000 IDamp=-1.
 RMSDP=3.15D-04 MaxDP=9.46D-03              OVMax= 1.71D-02

 Cycle   2  Pass 0  IDiag  1:
 E= -526.851904007729     Delta-E=       -0.006860474759 Rises=F Damp=F
 DIIS: error= 7.29D-04 at cycle   2 NSaved=   2.
 NSaved= 2 IEnMin= 2 EnMin= -526.851904007729     IErMin= 2 ErrMin= 7.29D-04
 ErrMax= 7.29D-04  0.00D+00 EMaxC= 1.00D-01 BMatC= 2.23D-04 BMatP= 6.17D-03
 IDIUse=3 WtCom= 9.93D-01 WtEn= 7.29D-03
 Coeff-Com: -0.107D+00 0.111D+01
 Coeff-En:   0.000D+00 0.100D+01
 Coeff:     -0.106D+00 0.111D+01
 Gap=     0.404 Goal=   None    Shift=    0.000
 RMSDP=8.33D-05 MaxDP=2.22D-03 DE=-6.86D-03 OVMax= 5.62D-03

 Cycle   3  Pass 0  IDiag  1:
 E= -526.852129471710     Delta-E=       -0.000225463981 Rises=F Damp=F
 DIIS: error= 5.87D-04 at cycle   3 NSaved=   3.
 NSaved= 3 IEnMin= 3 EnMin= -526.852129471710     IErMin= 3 ErrMin= 5.87D-04
 ErrMax= 5.87D-04  0.00D+00 EMaxC= 1.00D-01 BMatC= 1.73D-04 BMatP= 2.23D-04
 IDIUse=3 WtCom= 9.94D-01 WtEn= 5.87D-03
 Coeff-Com: -0.786D-01 0.573D+00 0.505D+00
 Coeff-En:   0.000D+00 0.000D+00 0.100D+01
 Coeff:     -0.781D-01 0.570D+00 0.508D+00
 Gap=     0.405 Goal=   None    Shift=    0.000
 RMSDP=3.12D-05 MaxDP=1.40D-03 DE=-2.25D-04 OVMax= 3.76D-03

 Cycle   4  Pass 0  IDiag  1:
 E= -526.852241807269     Delta-E=       -0.000112335559 Rises=F Damp=F
 DIIS: error= 1.94D-04 at cycle   4 NSaved=   4.
 NSaved= 4 IEnMin= 4 EnMin= -526.852241807269     IErMin= 4 ErrMin= 1.94D-04
 ErrMax= 1.94D-04  0.00D+00 EMaxC= 1.00D-01 BMatC= 8.30D-06 BMatP= 1.73D-04
 IDIUse=3 WtCom= 9.98D-01 WtEn= 1.94D-03
 Coeff-Com: -0.956D-02 0.148D-01 0.165D+00 0.830D+00
 Coeff-En:   0.000D+00 0.000D+00 0.000D+00 0.100D+01
 Coeff:     -0.955D-02 0.148D-01 0.165D+00 0.830D+00
 Gap=     0.404 Goal=   None    Shift=    0.000
 RMSDP=1.07D-05 MaxDP=4.72D-04 DE=-1.12D-04 OVMax= 1.22D-03

 Cycle   5  Pass 0  IDiag  1:
 E= -526.852247584425     Delta-E=       -0.000005777156 Rises=F Damp=F
 DIIS: error= 9.35D-05 at cycle   5 NSaved=   5.
 NSaved= 5 IEnMin= 5 EnMin= -526.852247584425     IErMin= 5 ErrMin= 9.35D-05
 ErrMax= 9.35D-05  0.00D+00 EMaxC= 1.00D-01 BMatC= 2.63D-06 BMatP= 8.30D-06
 IDIUse=1 WtCom= 1.00D+00 WtEn= 0.00D+00
 Coeff-Com:  0.197D-02-0.467D-01 0.440D-01 0.471D+00 0.530D+00
 Coeff:      0.197D-02-0.467D-01 0.440D-01 0.471D+00 0.530D+00
 Gap=     0.405 Goal=   None    Shift=    0.000
 RMSDP=3.79D-06 MaxDP=1.54D-04 DE=-5.78D-06 OVMax= 3.31D-04

 Initial convergence to 1.0D-05 achieved.  Increase integral accuracy.
 Cycle   6  Pass 1  IDiag  1:
 E= -526.852232957693     Delta-E=        0.000014626732 Rises=F Damp=F
 DIIS: error= 3.64D-05 at cycle   1 NSaved=   1.
 NSaved= 1 IEnMin= 1 EnMin= -526.852232957693     IErMin= 1 ErrMin= 3.64D-05
 ErrMax= 3.64D-05  0.00D+00 EMaxC= 1.00D-01 BMatC= 5.74D-07 BMatP= 5.74D-07
 IDIUse=1 WtCom= 1.00D+00 WtEn= 0.00D+00
 Coeff-Com:  0.100D+01
 Coeff:      0.100D+01
 Gap=     0.405 Goal=   None    Shift=    0.000
 RMSDP=3.79D-06 MaxDP=1.54D-04 DE= 1.46D-05 OVMax= 2.10D-04

 Cycle   7  Pass 1  IDiag  1:
 E= -526.852233351216     Delta-E=       -0.000000393523 Rises=F Damp=F
 DIIS: error= 1.50D-05 at cycle   2 NSaved=   2.
 NSaved= 2 IEnMin= 2 EnMin= -526.852233351216     IErMin= 2 ErrMin= 1.50D-05
 ErrMax= 1.50D-05  0.00D+00 EMaxC= 1.00D-01 BMatC= 8.67D-08 BMatP= 5.74D-07
 IDIUse=1 WtCom= 1.00D+00 WtEn= 0.00D+00
 Coeff-Com:  0.163D+00 0.837D+00
 Coeff:      0.163D+00 0.837D+00
 Gap=     0.405 Goal=   None    Shift=    0.000
 RMSDP=1.31D-06 MaxDP=6.55D-05 DE=-3.94D-07 OVMax= 1.16D-04

 Cycle   8  Pass 1  IDiag  1:
 E= -526.852233368846     Delta-E=       -0.000000017631 Rises=F Damp=F
 DIIS: error= 1.83D-05 at cycle   3 NSaved=   3.
 NSaved= 3 IEnMin= 3 EnMin= -526.852233368846     IErMin= 2 ErrMin= 1.50D-05
 ErrMax= 1.83D-05  0.00D+00 EMaxC= 1.00D-01 BMatC= 7.71D-08 BMatP= 8.67D-08
 IDIUse=1 WtCom= 1.00D+00 WtEn= 0.00D+00
 Coeff-Com: -0.308D-01 0.489D+00 0.541D+00
 Coeff:     -0.308D-01 0.489D+00 0.541D+00
 Gap=     0.405 Goal=   None    Shift=    0.000
 RMSDP=6.69D-07 MaxDP=3.79D-05 DE=-1.76D-08 OVMax= 7.95D-05

 Cycle   9  Pass 1  IDiag  1:
 E= -526.852233419993     Delta-E=       -0.000000051147 Rises=F Damp=F
 DIIS: error= 2.85D-06 at cycle   4 NSaved=   4.
 NSaved= 4 IEnMin= 4 EnMin= -526.852233419993     IErMin= 4 ErrMin= 2.85D-06
 ErrMax= 2.85D-06  0.00D+00 EMaxC= 1.00D-01 BMatC= 2.82D-09 BMatP= 7.71D-08
 IDIUse=1 WtCom= 1.00D+00 WtEn= 0.00D+00
 Coeff-Com: -0.213D-01 0.168D+00 0.241D+00 0.613D+00
 Coeff:     -0.213D-01 0.168D+00 0.241D+00 0.613D+00
 Gap=     0.405 Goal=   None    Shift=    0.000
 RMSDP=1.64D-07 MaxDP=6.50D-06 DE=-5.11D-08 OVMax= 2.21D-05

 Cycle  10  Pass 1  IDiag  1:
 E= -526.852233422724     Delta-E=       -0.000000002731 Rises=F Damp=F
 DIIS: error= 1.09D-06 at cycle   5 NSaved=   5.
 NSaved= 5 IEnMin= 5 EnMin= -526.852233422724     IErMin= 5 ErrMin= 1.09D-06
 ErrMax= 1.09D-06  0.00D+00 EMaxC= 1.00D-01 BMatC= 3.69D-10 BMatP= 2.82D-09
 IDIUse=1 WtCom= 1.00D+00 WtEn= 0.00D+00
 Coeff-Com: -0.172D-03-0.549D-01-0.420D-01 0.191D+00 0.906D+00
 Coeff:     -0.172D-03-0.549D-01-0.420D-01 0.191D+00 0.906D+00
 Gap=     0.405 Goal=   None    Shift=    0.000
 RMSDP=1.18D-07 MaxDP=4.05D-06 DE=-2.73D-09 OVMax= 2.18D-05

 Cycle  11  Pass 1  IDiag  1:
 E= -526.852233423485     Delta-E=       -0.000000000761 Rises=F Damp=F
 DIIS: error= 4.39D-07 at cycle   6 NSaved=   6.
 NSaved= 6 IEnMin= 6 EnMin= -526.852233423485     IErMin= 6 ErrMin= 4.39D-07
 ErrMax= 4.39D-07  0.00D+00 EMaxC= 1.00D-01 BMatC= 8.96D-11 BMatP= 3.69D-10
 IDIUse=1 WtCom= 1.00D+00 WtEn= 0.00D+00
 Coeff-Com:  0.371D-02-0.550D-01-0.648D-01-0.385D-01 0.392D+00 0.762D+00
 Coeff:      0.371D-02-0.550D-01-0.648D-01-0.385D-01 0.392D+00 0.762D+00
 Gap=     0.405 Goal=   None    Shift=    0.000
 RMSDP=5.45D-08 MaxDP=1.68D-06 DE=-7.61D-10 OVMax= 1.05D-05

 Cycle  12  Pass 1  IDiag  1:
 E= -526.852233423647     Delta-E=       -0.000000000162 Rises=F Damp=F
 DIIS: error= 1.40D-07 at cycle   7 NSaved=   7.
 NSaved= 7 IEnMin= 7 EnMin= -526.852233423647     IErMin= 7 ErrMin= 1.40D-07
 ErrMax= 1.40D-07  0.00D+00 EMaxC= 1.00D-01 BMatC= 4.22D-12 BMatP= 8.96D-11
 IDIUse=1 WtCom= 1.00D+00 WtEn= 0.00D+00
 Coeff-Com:  0.214D-03 0.313D-02 0.166D-02-0.206D-01-0.907D-01 0.429D-01
 Coeff-Com:  0.106D+01
 Coeff:      0.214D-03 0.313D-02 0.166D-02-0.206D-01-0.907D-01 0.429D-01
 Coeff:      0.106D+01
 Gap=     0.405 Goal=   None    Shift=    0.000
 RMSDP=1.99D-08 MaxDP=6.70D-07 DE=-1.62D-10 OVMax= 4.19D-06

 Cycle  13  Pass 1  IDiag  1:
 E= -526.852233423682     Delta-E=       -0.000000000035 Rises=F Damp=F
 DIIS: error= 4.90D-08 at cycle   8 NSaved=   8.
 NSaved= 8 IEnMin= 8 EnMin= -526.852233423682     IErMin= 8 ErrMin= 4.90D-08
 ErrMax= 4.90D-08  0.00D+00 EMaxC= 1.00D-01 BMatC= 7.53D-13 BMatP= 4.22D-12
 IDIUse=1 WtCom= 1.00D+00 WtEn= 0.00D+00
 Coeff-Com: -0.236D-03 0.627D-02 0.659D-02-0.408D-02-0.686D-01-0.533D-01
 Coeff-Com:  0.349D+00 0.764D+00
 Coeff:     -0.236D-03 0.627D-02 0.659D-02-0.408D-02-0.686D-01-0.533D-01
 Coeff:      0.349D+00 0.764D+00
 Gap=     0.405 Goal=   None    Shift=    0.000
 RMSDP=4.88D-09 MaxDP=1.44D-07 DE=-3.46D-11 OVMax= 9.08D-07

 SCF Done:  E(RM062X) =  -526.852233424     A.U. after   13 cycles
            NFock= 13  Conv=0.49D-08     -V/T= 2.0036
 KE= 5.249436971173D+02 PE=-1.925218317598D+03 EE= 5.348947166631D+02
 Leave Link  502 at Sun May 25 04:09:45 2025, MaxMem=  3758096384 cpu:              41.8 elap:               8.0
 (Enter /apps/easybuild-2022/easybuild/software/Compiler/NVHPC/22.11-CUDA-11.7.0/Gaussian/g16c01-CUDA-11.7.0/g16/l508.exe)
 QCSCF skips out because SCF is already converged.
 Leave Link  508 at Sun May 25 04:09:45 2025, MaxMem=  3758096384 cpu:               0.0 elap:               0.0
 (Enter /apps/easybuild-2022/easybuild/software/Compiler/NVHPC/22.11-CUDA-11.7.0/Gaussian/g16c01-CUDA-11.7.0/g16/l701.exe)
 ... and contract with generalized density number  0.
 Compute integral first derivatives.
   1 Symmetry operations used in ECPInt.
 ECPInt:  NShTT=    3486 NPrTT=   11183 LenC2=    3403 LenP2D=    8716.
 LDataN:  DoStor=T MaxTD1= 7 Len=  274
 Leave Link  701 at Sun May 25 04:09:45 2025, MaxMem=  3758096384 cpu:               0.4 elap:               0.1
 (Enter /apps/easybuild-2022/easybuild/software/Compiler/NVHPC/22.11-CUDA-11.7.0/Gaussian/g16c01-CUDA-11.7.0/g16/l702.exe)
 L702 exits ... SP integral derivatives will be done elsewhere.
 Leave Link  702 at Sun May 25 04:09:45 2025, MaxMem=  3758096384 cpu:               0.0 elap:               0.0
 (Enter /apps/easybuild-2022/easybuild/software/Compiler/NVHPC/22.11-CUDA-11.7.0/Gaussian/g16c01-CUDA-11.7.0/g16/l703.exe)
 Integral derivatives from FoFJK, PRISM(SPDF).
 Compute integral first derivatives, UseDBF=F ICtDFT=           0.
 Calling FoFJK, ICntrl=      2127 FMM=F ISym2X=0 I1Cent= 0 IOpClX= 0 NMat=1 NMatS=1 NMatT=0.
 FoFJK:  IHMeth= 1 ICntrl=    2127 DoSepK=F KAlg= 0 I1Cent=           0 FoldK=F
 IRaf=         0 NMat=       1 IRICut=       1 DoRegI=T DoRafI=F ISym2E= 0 IDoP0=0 IntGTp=1.
 FoFCou: FMM=F IPFlag=           0 FMFlag=      100000 FMFlg1=         800
         NFxFlg=           0 DoJE=F BraDBF=F KetDBF=F FulRan=T
         wScrn=  0.000000 ICntrl=      2127 IOpCl=  0 I1Cent=           0 NGrid=           0
         NMat0=    1 NMatS0=      1 NMatT0=    0 NMatD0=    1 NMtDS0=    0 NMtDT0=    0
 Symmetry not used in FoFCou.
 Leave Link  703 at Sun May 25 04:09:49 2025, MaxMem=  3758096384 cpu:              24.8 elap:               3.2
 (Enter /apps/easybuild-2022/easybuild/software/Compiler/NVHPC/22.11-CUDA-11.7.0/Gaussian/g16c01-CUDA-11.7.0/g16/l716.exe)
 Dipole        =-4.13616090D-01-9.27235457D-02-7.89982052D-01
 -------------------------------------------------------------------
 Center     Atomic                   Forces (Hartrees/Bohr)
 Number     Number              X              Y              Z
 -------------------------------------------------------------------
      1        6          -0.000232159    0.000042278   -0.001088039
      2        8          -0.000433344   -0.000470195   -0.001544901
      3        6           0.000320566   -0.000277050    0.001009718
      4        9          -0.000166331   -0.000120411   -0.000137119
      5        9           0.000174573    0.000002614    0.000076293
      6        9           0.000008474    0.000071531    0.000709510
      7        8           0.000422530    0.001024380    0.001159862
      8        1          -0.000094310   -0.000273146   -0.000185323
 -------------------------------------------------------------------
 Cartesian Forces:  Max     0.001544901 RMS     0.000596204
 Leave Link  716 at Sun May 25 04:09:49 2025, MaxMem=  3758096384 cpu:               0.0 elap:               0.0
 (Enter /apps/easybuild-2022/easybuild/software/Compiler/NVHPC/22.11-CUDA-11.7.0/Gaussian/g16c01-CUDA-11.7.0/g16/l103.exe)

 GradGradGradGradGradGradGradGradGradGradGradGradGradGradGradGradGradGrad
 Berny optimization.
 Using GEDIIS/GDIIS optimizer.
 FormGI is forming the generalized inverse of G from B-inverse, IUseBI=4.
 Internal  Forces:  Max     0.001877355 RMS     0.000770531
 Search for a local minimum.
 Step number   2 out of a maximum of   35
 All quantities printed in internal units (Hartrees-Bohrs-Radians)
 RMS Force = .77053D-03 SwitMx=.10000D-02 MixMth= 2
 Mixed Optimization -- En-DIIS/RFO-DIIS
 Update second derivatives using D2CorX and points    1    2
 DE= -2.43D-03 DEPred=-2.51D-03 R= 9.69D-01
 TightC=F SS=  1.41D+00  RLast= 1.96D-01 DXNew= 5.0454D-01 5.8787D-01
 Trust test= 9.69D-01 RLast= 1.96D-01 DXMaxT set to 5.05D-01
 ITU=  1  0
 Use linear search instead of GDIIS.
     Eigenvalues ---    0.00004   0.01911   0.04363   0.11747   0.13727
     Eigenvalues ---    0.15629   0.17524   0.21535   0.22313   0.24257
     Eigenvalues ---    0.29249   0.39072   0.40183   0.41568   0.46569
     Eigenvalues ---    0.52455   0.58255   0.98655
 RFO step:  Lambda=-7.46001836D-04 EMin= 4.19805743D-05
 Quartic linear search produced a step of -0.01135.
 Iteration  1 RMS(Cart)=  0.10651830 RMS(Int)=  0.09031848
 Iteration  2 RMS(Cart)=  0.09864254 RMS(Int)=  0.00425706
 Iteration  3 RMS(Cart)=  0.00503173 RMS(Int)=  0.00000958
 Iteration  4 RMS(Cart)=  0.00001104 RMS(Int)=  0.00000653
 Iteration  5 RMS(Cart)=  0.00000000 RMS(Int)=  0.00000653
 ITry= 1 IFail=0 DXMaxC= 5.19D-01 DCOld= 1.00D+10 DXMaxT= 5.05D-01 DXLimC= 3.00D+00 Rises=F
 Variable       Old X    -DE/DX   Delta X   Delta X   Delta X     New X
                                 (Linear)    (Quad)   (Total)
    R1        2.50773   0.00185  -0.00004   0.00346   0.00342   2.51116
    R2        2.91354   0.00157   0.00046   0.00431   0.00478   2.91832
    R3        2.24490   0.00101   0.00001   0.00000   0.00001   2.24491
    R4        1.82807  -0.00000   0.00004  -0.00068  -0.00065   1.82743
    R5        2.51858  -0.00005  -0.00001   0.00331   0.00331   2.52189
    R6        2.49692   0.00008   0.00006  -0.00720  -0.00714   2.48977
    R7        2.50704   0.00005  -0.00000   0.00287   0.00287   2.50991
    A1        1.92826   0.00117   0.00110  -0.01522  -0.01413   1.91413
    A2        2.20663   0.00070  -0.00087   0.00556   0.00467   2.21130
    A3        2.14775  -0.00188  -0.00022   0.00942   0.00919   2.15694
    A4        1.88520   0.00061  -0.00056   0.00751   0.00694   1.89215
    A5        1.90151  -0.00023   0.00004   0.00240   0.00244   1.90395
    A6        1.92407  -0.00012  -0.00022   0.00448   0.00425   1.92833
    A7        1.94924   0.00103   0.00033  -0.00756  -0.00723   1.94201
    A8        1.89599   0.00001  -0.00007   0.00241   0.00233   1.89832
    A9        1.89147  -0.00022  -0.00002  -0.00260  -0.00262   1.88885
   A10        1.90057  -0.00049  -0.00008   0.00098   0.00091   1.90147
    D1       -3.09098   0.00015  -0.00013   0.01321   0.01308  -3.07791
    D2        0.01548   0.00001  -0.00009   0.00578   0.00570   0.02118
    D3        1.51527  -0.00023   0.00075  -0.39169  -0.39095   1.12432
    D4       -2.68889  -0.00043   0.00056  -0.38458  -0.38402  -3.07291
    D5       -0.57354  -0.00045   0.00053  -0.38533  -0.38481  -0.95835
    D6       -1.59260  -0.00015   0.00072  -0.38448  -0.38377  -1.97637
    D7        0.48642  -0.00035   0.00053  -0.37738  -0.37683   0.10959
    D8        2.60177  -0.00037   0.00050  -0.37813  -0.37763   2.22415
         Item               Value     Threshold  Converged?
 Maximum Force            0.001877     0.000450     NO 
 RMS     Force            0.000771     0.000300     NO 
 Maximum Displacement     0.519307     0.001800     NO 
 RMS     Displacement     0.203039     0.001200     NO 
 Predicted change in Energy=-6.931217D-04
 Lowest energy point so far.  Saving SCF results.
 GradGradGradGradGradGradGradGradGradGradGradGradGradGradGradGradGradGrad

 Leave Link  103 at Sun May 25 04:09:49 2025, MaxMem=  3758096384 cpu:               0.0 elap:               0.0
 (Enter /apps/easybuild-2022/easybuild/software/Compiler/NVHPC/22.11-CUDA-11.7.0/Gaussian/g16c01-CUDA-11.7.0/g16/l202.exe)
                          Input orientation:                          
 ---------------------------------------------------------------------
 Center     Atomic      Atomic             Coordinates (Angstroms)
 Number     Number       Type             X           Y           Z
 ---------------------------------------------------------------------
      1          6           0       -0.169602    0.638943   -0.764673
      2          8           0       -0.617812   -0.101780   -1.772775
      3          6           0        0.073833   -0.256128    0.470022
      4          9           0        1.047792   -1.125574    0.193566
      5          9           0        0.438540    0.474149    1.504224
      6          9           0       -1.017220   -0.942586    0.790118
      7          8           0        0.063342    1.803596   -0.788200
      8          1           0       -0.708806    0.464733   -2.551193
 ---------------------------------------------------------------------
                    Distance matrix (angstroms):
                    1          2          3          4          5
     1  C    0.000000
     2  O    1.328846   0.000000
     3  C    1.544307   2.352091   0.000000
     4  F    2.348147   2.772885   1.334526   0.000000
     5  F    2.354758   3.490887   1.317531   2.155951   0.000000
     6  F    2.374251   2.726702   1.328188   2.157229   2.153212
     7  O    1.187953   2.250292   2.413648   3.242383   2.676455
     8  H    1.874231   0.967032   3.203108   3.626074   4.214604
                    6          7          8
     6  F    0.000000
     7  O    3.346673   0.000000
     8  H    3.638685   2.344549   0.000000
 Symmetry turned off by external request.
 Stoichiometry    C2HF3O2
 Rotational constants (GHZ):           3.8943355           2.5153221           2.0856335
 Leave Link  202 at Sun May 25 04:09:49 2025, MaxMem=  3758096384 cpu:               0.0 elap:               0.0
 (Enter /apps/easybuild-2022/easybuild/software/Compiler/NVHPC/22.11-CUDA-11.7.0/Gaussian/g16c01-CUDA-11.7.0/g16/l301.exe)
 Standard basis: def2TZVPP (5D, 7F)
 Ernie: Thresh=  0.10000D-02 Tol=  0.10000D-05 Strict=F.
   231 basis functions,   374 primitive gaussians,   267 cartesian basis functions
    28 alpha electrons       28 beta electrons
       nuclear repulsion energy       338.4394165452 Hartrees.
 IExCor= 4336 DFT=T Ex+Corr=M062X ExCW=0 ScaHFX=  0.540000
 ScaDFX=  1.000000  1.000000  1.000000  1.000000 ScalE2=  1.000000  1.000000
 IRadAn=      5 IRanWt=     -1 IRanGd=            0 ICorTp=0 IEmpDi=  4
 NAtoms=    8 NActive=    8 NUniq=    8 SFac= 1.00D+00 NAtFMM=   60 NAOKFM=F Big=F
 Integral buffers will be    131072 words long.
 Raffenetti 2 integral format.
 Two-electron integral symmetry is turned off.
 Leave Link  301 at Sun May 25 04:09:49 2025, MaxMem=  3758096384 cpu:               0.0 elap:               0.0
 (Enter /apps/easybuild-2022/easybuild/software/Compiler/NVHPC/22.11-CUDA-11.7.0/Gaussian/g16c01-CUDA-11.7.0/g16/l302.exe)
 NPDir=0 NMtPBC=     1 NCelOv=     1 NCel=       1 NClECP=     1 NCelD=      1
         NCelK=      1 NCelE2=     1 NClLst=     1 CellRange=     0.0.
 One-electron integrals computed using PRISM.
   1 Symmetry operations used in ECPInt.
 ECPInt:  NShTT=    3486 NPrTT=   11183 LenC2=    3405 LenP2D=    8712.
 LDataN:  DoStor=T MaxTD1= 6 Len=  172
 NBasis=   231 RedAO= T EigKep=  5.58D-04  NBF=   231
 NBsUse=   231 1.00D-06 EigRej= -1.00D+00 NBFU=   231
 Precomputing XC quadrature grid using
 IXCGrd= 4 IRadAn=           5 IRanWt=          -1 IRanGd=           0 AccXCQ= 0.00D+00.
 Generated NRdTot=       0 NPtTot=           0 NUsed=           0 NTot=          32
 NSgBfM=   266   266   266   266   266 MxSgAt=     8 MxSgA2=     8.
 Leave Link  302 at Sun May 25 04:09:49 2025, MaxMem=  3758096384 cpu:               0.4 elap:               0.1
 (Enter /apps/easybuild-2022/easybuild/software/Compiler/NVHPC/22.11-CUDA-11.7.0/Gaussian/g16c01-CUDA-11.7.0/g16/l303.exe)
 DipDrv:  MaxL=1.
 Leave Link  303 at Sun May 25 04:09:49 2025, MaxMem=  3758096384 cpu:               0.1 elap:               0.0
 (Enter /apps/easybuild-2022/easybuild/software/Compiler/NVHPC/22.11-CUDA-11.7.0/Gaussian/g16c01-CUDA-11.7.0/g16/l401.exe)
 Initial guess from the checkpoint file:  "1141903082400600000001_intra_H_migration_suprafacial_2_8_IRC_F_prod.chk"
 B after Tr=    -0.027164    0.008704    0.008283
         Rot=    0.999790   -0.003544   -0.018779    0.007409 Ang=  -2.35 deg.
 Guess basis will be translated and rotated to current coordinates.
 JPrj=2 DoOrth=T DoCkMO=T.
 Generating alternative initial guess.
 ExpMin= 9.52D-02 ExpMax= 3.55D+04 ExpMxC= 1.21D+03 IAcc=3 IRadAn=         5 AccDes= 0.00D+00
 Harris functional with IExCor= 1009 and IRadAn=       5 diagonalized for initial guess.
 HarFok:  IExCor= 1009 AccDes= 0.00D+00 IRadAn=         5 IDoV= 1 UseB2=F ITyADJ=14
 ICtDFT=  3500011 ScaDFX=  1.000000  1.000000  1.000000  1.000000
 FoFCou: FMM=F IPFlag=           0 FMFlag=      100000 FMFlg1=           0
         NFxFlg=           0 DoJE=T BraDBF=F KetDBF=T FulRan=T
         wScrn=  0.000000 ICntrl=       500 IOpCl=  0 I1Cent=   200000004 NGrid=           0
         NMat0=    1 NMatS0=      1 NMatT0=    0 NMatD0=    1 NMtDS0=    0 NMtDT0=    0
 Symmetry not used in FoFCou.
 Harris En= -526.547071679511    
 Leave Link  401 at Sun May 25 04:09:49 2025, MaxMem=  3758096384 cpu:               2.0 elap:               0.3
 (Enter /apps/easybuild-2022/easybuild/software/Compiler/NVHPC/22.11-CUDA-11.7.0/Gaussian/g16c01-CUDA-11.7.0/g16/l502.exe)
 Keep R1 ints in memory in canonical form, NReq=368651279.
 FoFCou: FMM=F IPFlag=           0 FMFlag=           0 FMFlg1=           0
         NFxFlg=           0 DoJE=F BraDBF=F KetDBF=F FulRan=T
         wScrn=  0.000000 ICntrl=       600 IOpCl=  0 I1Cent=           0 NGrid=           0
         NMat0=    1 NMatS0=  26796 NMatT0=    0 NMatD0=    1 NMtDS0=    0 NMtDT0=    0
 Symmetry not used in FoFCou.
 Two-electron integral symmetry not used.
 Closed shell SCF:
 Using DIIS extrapolation, IDIIS=  1040.
 NGot=  3758096384 LenX=  3398923531 LenY=  3398851801
 Requested convergence on RMS density matrix=1.00D-08 within  32 cycles.
 Requested convergence on MAX density matrix=1.00D-06.
 Requested convergence on             energy=1.00D-06.
 No special actions if energy rises.
 Integral accuracy reduced to 1.0D-05 until final iterations.

 Cycle   1  Pass 0  IDiag  1:
 E= -526.771218858649    
 DIIS: error= 1.33D-02 at cycle   1 NSaved=   1.
 NSaved= 1 IEnMin= 1 EnMin= -526.771218858649     IErMin= 1 ErrMin= 1.33D-02
 ErrMax= 1.33D-02  0.00D+00 EMaxC= 1.00D-01 BMatC= 5.93D-02 BMatP= 5.93D-02
 IDIUse=3 WtCom= 8.67D-01 WtEn= 1.33D-01
 Coeff-Com:  0.100D+01
 Coeff-En:   0.100D+01
 Coeff:      0.100D+01
 Recover alternate guess density for next cycle.
 RMSDP=1.88D-03 MaxDP=3.75D-02              OVMax= 0.00D+00

 Cycle   2  Pass 0  IDiag  1:
 E= -526.709579754606     Delta-E=        0.061639104043 Rises=F Damp=F
 Switch densities from cycles 1 and 2 for lowest energy.
 DIIS: error= 2.51D-02 at cycle   2 NSaved=   2.
 NSaved= 2 IEnMin= 1 EnMin= -526.771218858649     IErMin= 1 ErrMin= 1.33D-02
 ErrMax= 2.51D-02  0.00D+00 EMaxC= 1.00D+00 BMatC= 2.77D-01 BMatP= 5.93D-02
 IDIUse=1 WtCom= 1.00D+00 WtEn= 0.00D+00
 Coeff-Com:  0.846D+00 0.154D+00
 Coeff:      0.846D+00 0.154D+00
 Gap=     0.401 Goal=   None    Shift=    0.000
 RMSDP=1.04D-03 MaxDP=2.60D-02 DE= 6.16D-02 OVMax= 1.08D-01

 Cycle   3  Pass 0  IDiag  1:
 E= -526.842348459678     Delta-E=       -0.132768705072 Rises=F Damp=F
 DIIS: error= 4.94D-03 at cycle   3 NSaved=   3.
 NSaved= 3 IEnMin= 3 EnMin= -526.842348459678     IErMin= 3 ErrMin= 4.94D-03
 ErrMax= 4.94D-03  0.00D+00 EMaxC= 1.00D+00 BMatC= 1.31D-02 BMatP= 5.93D-02
 IDIUse=1 WtCom= 1.00D+00 WtEn= 0.00D+00
 Coeff-Com: -0.350D-01 0.162D+00 0.873D+00
 Coeff:     -0.350D-01 0.162D+00 0.873D+00
 Gap=     0.410 Goal=   None    Shift=    0.000
 RMSDP=3.21D-04 MaxDP=1.14D-02 DE=-1.33D-01 OVMax= 2.33D-02

 Cycle   4  Pass 0  IDiag  1:
 E= -526.851526153885     Delta-E=       -0.009177694207 Rises=F Damp=F
 DIIS: error= 2.34D-03 at cycle   4 NSaved=   4.
 NSaved= 4 IEnMin= 4 EnMin= -526.851526153885     IErMin= 4 ErrMin= 2.34D-03
 ErrMax= 2.34D-03  0.00D+00 EMaxC= 1.00D+00 BMatC= 1.41D-03 BMatP= 1.31D-02
 IDIUse=1 WtCom= 1.00D+00 WtEn= 0.00D+00
 Coeff-Com: -0.439D-01 0.119D-01 0.271D+00 0.761D+00
 Coeff:     -0.439D-01 0.119D-01 0.271D+00 0.761D+00
 Gap=     0.403 Goal=   None    Shift=    0.000
 RMSDP=1.07D-04 MaxDP=5.01D-03 DE=-9.18D-03 OVMax= 1.12D-02

 Cycle   5  Pass 0  IDiag  1:
 E= -526.852482934432     Delta-E=       -0.000956780547 Rises=F Damp=F
 DIIS: error= 7.89D-04 at cycle   5 NSaved=   5.
 NSaved= 5 IEnMin= 5 EnMin= -526.852482934432     IErMin= 5 ErrMin= 7.89D-04
 ErrMax= 7.89D-04  0.00D+00 EMaxC= 1.00D+00 BMatC= 1.78D-04 BMatP= 1.41D-03
 IDIUse=1 WtCom= 1.00D+00 WtEn= 0.00D+00
 Coeff-Com: -0.172D-01-0.398D-02 0.683D-01 0.365D+00 0.588D+00
 Coeff:     -0.172D-01-0.398D-02 0.683D-01 0.365D+00 0.588D+00
 Gap=     0.405 Goal=   None    Shift=    0.000
 RMSDP=3.46D-05 MaxDP=1.13D-03 DE=-9.57D-04 OVMax= 3.70D-03

 Cycle   6  Pass 0  IDiag  1:
 E= -526.852610607611     Delta-E=       -0.000127673180 Rises=F Damp=F
 DIIS: error= 2.48D-04 at cycle   6 NSaved=   6.
 NSaved= 6 IEnMin= 6 EnMin= -526.852610607611     IErMin= 6 ErrMin= 2.48D-04
 ErrMax= 2.48D-04  0.00D+00 EMaxC= 1.00D+00 BMatC= 1.77D-05 BMatP= 1.78D-04
 IDIUse=1 WtCom= 1.00D+00 WtEn= 0.00D+00
 Coeff-Com: -0.242D-02-0.286D-02-0.365D-02 0.750D-01 0.259D+00 0.675D+00
 Coeff:     -0.242D-02-0.286D-02-0.365D-02 0.750D-01 0.259D+00 0.675D+00
 Gap=     0.405 Goal=   None    Shift=    0.000
 RMSDP=1.33D-05 MaxDP=6.35D-04 DE=-1.28D-04 OVMax= 1.62D-03

 Cycle   7  Pass 0  IDiag  1:
 E= -526.852626715420     Delta-E=       -0.000016107809 Rises=F Damp=F
 DIIS: error= 6.45D-05 at cycle   7 NSaved=   7.
 NSaved= 7 IEnMin= 7 EnMin= -526.852626715420     IErMin= 7 ErrMin= 6.45D-05
 ErrMax= 6.45D-05  0.00D+00 EMaxC= 1.00D+00 BMatC= 2.31D-06 BMatP= 1.77D-05
 IDIUse=1 WtCom= 1.00D+00 WtEn= 0.00D+00
 Coeff-Com:  0.186D-02 0.211D-03-0.151D-01-0.447D-01-0.304D-01 0.245D+00
 Coeff-Com:  0.843D+00
 Coeff:      0.186D-02 0.211D-03-0.151D-01-0.447D-01-0.304D-01 0.245D+00
 Coeff:      0.843D+00
 Gap=     0.405 Goal=   None    Shift=    0.000
 RMSDP=7.33D-06 MaxDP=2.46D-04 DE=-1.61D-05 OVMax= 1.05D-03

 Initial convergence to 1.0D-05 achieved.  Increase integral accuracy.
 Cycle   8  Pass 1  IDiag  1:
 E= -526.852650124620     Delta-E=       -0.000023409200 Rises=F Damp=F
 DIIS: error= 4.25D-05 at cycle   1 NSaved=   1.
 NSaved= 1 IEnMin= 1 EnMin= -526.852650124620     IErMin= 1 ErrMin= 4.25D-05
 ErrMax= 4.25D-05  0.00D+00 EMaxC= 1.00D+00 BMatC= 5.86D-07 BMatP= 5.86D-07
 IDIUse=1 WtCom= 1.00D+00 WtEn= 0.00D+00
 Coeff-Com:  0.100D+01
 Coeff:      0.100D+01
 Gap=     0.405 Goal=   None    Shift=    0.000
 RMSDP=7.33D-06 MaxDP=2.46D-04 DE=-2.34D-05 OVMax= 3.43D-04

 Cycle   9  Pass 1  IDiag  1:
 E= -526.852650638456     Delta-E=       -0.000000513835 Rises=F Damp=F
 DIIS: error= 1.18D-05 at cycle   2 NSaved=   2.
[...]
     13  0.137870D-01  0.272962D-01 -0.110277D-01  0.320986D-03 -0.304326D-01
     14  0.945208D-05  0.100482D-01  0.124244D-01 -0.109775D-02 -0.284382D-01
     15 -0.488832D-02 -0.184134D-01 -0.403846D-02  0.753204D-03  0.240530D-01
     16 -0.443617D-02 -0.122164D-01 -0.621221D-02  0.452846D-03  0.224187D-01
     17 -0.488692D-02 -0.183064D-01 -0.403968D-02  0.750079D-03 -0.358589D-02
     18  0.441966D-04 -0.316381D-04 -0.130758D-04  0.110778D-04  0.293656D-02
     19  0.214056D-04 -0.270638D-05 -0.180336D-04  0.459633D-05 -0.162691D-02
     20 -0.279294D-02 -0.114830D-02  0.404620D-02 -0.422340D-03 -0.277709D-02
     21 -0.411572D-04  0.118597D-04  0.237077D-04 -0.583329D-05  0.187653D-01
     22  0.273194D-02  0.120973D-02 -0.409212D-02  0.427803D-03 -0.235256D-01
     23 -0.274612D-02 -0.119287D-02  0.406306D-02 -0.421906D-03  0.159817D-02
     24  0.566409D-05 -0.327076D-04  0.405636D-04 -0.539928D-05  0.231405D-01
     25  0.277876D-02  0.116516D-02 -0.407526D-02  0.428237D-03 -0.191503D-01
                6             7             8             9            10 
      6  0.464464D+00
      7  0.572373D-01  0.438329D+00
      8  0.199865D-01 -0.350686D-02  0.155309D+00
      9 -0.493552D-02 -0.893857D-02 -0.980266D-01  0.185914D+00
     10 -0.150510D-01  0.124426D-01 -0.572821D-01 -0.878870D-01  0.145169D+00
     11  0.303933D-02  0.221829D-03  0.260206D-01 -0.288508D-01  0.283020D-02
     12 -0.303603D-01 -0.283615D-01 -0.318213D-02 -0.661487D-02  0.980106D-02
     13  0.129987D-01 -0.305223D-01  0.169526D-01 -0.936472D-02 -0.758785D-02
     14 -0.301530D-01  0.171408D-01 -0.329269D-02 -0.647354D-02  0.976213D-02
     15  0.256248D-01 -0.360269D-02 -0.536906D-02  0.819396D-02 -0.282549D-02
     16 -0.235742D-02  0.224597D-01 -0.218377D-03  0.681063D-02 -0.659224D-02
     17  0.253783D-01  0.242722D-01 -0.527157D-02  0.811696D-02 -0.284480D-02
     18  0.283696D-04 -0.297201D-02  0.609517D-04 -0.846404D-04  0.318373D-04
     19 -0.123419D-05  0.163974D-02  0.484268D-04  0.493481D-05 -0.610570D-04
     20 -0.206659D-01  0.235548D-01 -0.216031D-02  0.594611D-04  0.209212D-02
     21  0.568605D-04 -0.188431D-01  0.103587D-04 -0.215617D-04  0.437004D-05
     22  0.205964D-01  0.280266D-02  0.221274D-02 -0.930545D-04 -0.212839D-02
     23 -0.206335D-01  0.191139D-01 -0.217097D-02  0.100085D-03  0.207739D-02
     24  0.893412D-04 -0.232840D-01  0.000000D+00  0.190619D-04 -0.103635D-04
     25  0.206289D-01 -0.163823D-02  0.220207D-02 -0.524309D-04 -0.214313D-02
               11            12            13            14            15 
     11  0.167058D+00
     12 -0.259819D-02  0.179104D+00
     13  0.591238D-02 -0.500224D-02  0.202843D+00
     14 -0.264595D-02  0.117810D-01 -0.463455D-02  0.178805D+00
     15 -0.474755D-03 -0.868352D-01 -0.914198D-01 -0.170435D-01  0.140256D+00
     16  0.256257D-03 -0.871944D-01 -0.167060D-01 -0.872835D-01  0.298813D-01
     17 -0.504329D-03 -0.169884D-01 -0.914507D-01 -0.867464D-01  0.308950D-01
     18 -0.161069D-03  0.465635D-02  0.202825D-04 -0.468815D-02 -0.501991D-03
     19 -0.113970D-03 -0.204660D-02 -0.126741D-04  0.207243D-02  0.470393D-03
     20 -0.149479D-02  0.129439D-02 -0.134136D-01  0.113780D-01 -0.293454D-01
     21  0.444095D-04  0.529813D-02  0.141163D-04 -0.524342D-02  0.305881D-01
     22  0.150999D-02 -0.114819D-01  0.134066D-01 -0.118819D-02 -0.601430D-03
     23 -0.155510D-02  0.772773D-02 -0.133832D-01  0.487467D-02 -0.302746D-01
     24 -0.159073D-04  0.117315D-01  0.445150D-04 -0.117467D-01  0.296589D-01
     25  0.144967D-02 -0.504858D-02  0.134370D-01 -0.769151D-02 -0.153063D-02
               16            17            18            19            20 
     16  0.137089D+00
     17  0.298274D-01  0.140238D+00
     18  0.123402D-04  0.499976D-03  0.158090D-01
     19  0.000000D+00 -0.483804D-03  0.236108D-02  0.150611D-01
     20  0.296929D-01  0.635734D-03 -0.798314D-02  0.642176D-02  0.370216D-01
     21 -0.948998D-05 -0.306708D-01 -0.559566D-02  0.568106D-02 -0.732713D-02
     22 -0.297472D-01  0.293930D-01 -0.797578D-02  0.640372D-02 -0.782771D-02
     23  0.297104D-01  0.158613D-02  0.493851D-02 -0.578134D-02  0.231795D-01
     24  0.800143D-05 -0.297204D-01  0.732599D-02 -0.652205D-02 -0.211693D-01
     25 -0.297298D-01  0.303434D-01  0.494587D-02 -0.579939D-02 -0.216699D-01
               21            22            23            24            25 
     21  0.341946D-01
     22 -0.734719D-02  0.370821D-01
     23 -0.181626D-01 -0.216437D-01  0.334791D-01
     24  0.233591D-01 -0.211632D-01 -0.786307D-02  0.366653D-01
     25 -0.181827D-01  0.232661D-01 -0.113441D-01 -0.785699D-02  0.335918D-01
 Leave Link  716 at Sun May 25 04:12:03 2025, MaxMem=  3758096384 cpu:               0.1 elap:               0.0
 (Enter /apps/easybuild-2022/easybuild/software/Compiler/NVHPC/22.11-CUDA-11.7.0/Gaussian/g16c01-CUDA-11.7.0/g16/l103.exe)

 GradGradGradGradGradGradGradGradGradGradGradGradGradGradGradGradGradGrad
 Berny optimization.
 Red2BG is reusing G-inverse.
 Internal  Forces:  Max     0.000003877 RMS     0.000001399
 Search for a local minimum.
 Step number   1 out of a maximum of    2
 All quantities printed in internal units (Hartrees-Bohrs-Radians)
 Second derivative matrix not updated -- analytic derivatives used.
 ITU=  0
     Eigenvalues ---    0.00088   0.01781   0.04784   0.11999   0.13826
     Eigenvalues ---    0.14796   0.18632   0.22150   0.23192   0.24861
     Eigenvalues ---    0.28967   0.39682   0.40333   0.42187   0.46443
     Eigenvalues ---    0.52877   0.58439   0.97926
 Angle between quadratic step and forces=  82.39 degrees.
 Linear search not attempted -- first point.
 Iteration  1 RMS(Cart)=  0.00004993 RMS(Int)=  0.00000000
 Iteration  2 RMS(Cart)=  0.00000000 RMS(Int)=  0.00000000
 ITry= 1 IFail=0 DXMaxC= 1.49D-04 DCOld= 1.00D+10 DXMaxT= 3.00D-01 DXLimC= 3.00D+00 Rises=F
 Variable       Old X    -DE/DX   Delta X   Delta X   Delta X     New X
                                 (Linear)    (Quad)   (Total)
    R1        2.51108  -0.00000   0.00000  -0.00000  -0.00000   2.51107
    R2        2.91760  -0.00000   0.00000  -0.00001  -0.00001   2.91758
    R3        2.24496  -0.00000   0.00000  -0.00000  -0.00000   2.24496
    R4        1.82752   0.00000   0.00000   0.00000   0.00000   1.82752
    R5        2.51430  -0.00000   0.00000  -0.00001  -0.00001   2.51430
    R6        2.49320   0.00000   0.00000   0.00000   0.00000   2.49321
    R7        2.51461  -0.00000   0.00000   0.00000   0.00000   2.51461
    A1        1.91709  -0.00000   0.00000  -0.00001  -0.00001   1.91708
    A2        2.21146  -0.00000   0.00000  -0.00001  -0.00001   2.21145
    A3        2.15464   0.00000   0.00000   0.00001   0.00001   2.15466
    A4        1.89247  -0.00000   0.00000  -0.00001  -0.00001   1.89247
    A5        1.92460   0.00000   0.00000   0.00001   0.00001   1.92462
    A6        1.92577   0.00000   0.00000   0.00000   0.00000   1.92578
    A7        1.92379  -0.00000   0.00000  -0.00002  -0.00002   1.92377
    A8        1.89904   0.00000   0.00000   0.00000   0.00000   1.89904
    A9        1.89098   0.00000   0.00000   0.00000   0.00000   1.89098
   A10        1.89897   0.00000   0.00000   0.00000   0.00000   1.89897
    D1        3.13991  -0.00000   0.00000  -0.00004  -0.00004   3.13987
    D2       -0.00101  -0.00000   0.00000  -0.00002  -0.00002  -0.00103
    D3        1.03751  -0.00000   0.00000  -0.00009  -0.00009   1.03742
    D4        3.13588   0.00000   0.00000  -0.00008  -0.00008   3.13579
    D5       -1.04956   0.00000   0.00000  -0.00009  -0.00009  -1.04965
    D6       -2.10472  -0.00000   0.00000  -0.00011  -0.00011  -2.10484
    D7       -0.00636  -0.00000   0.00000  -0.00010  -0.00010  -0.00646
    D8        2.09139  -0.00000   0.00000  -0.00011  -0.00011   2.09127
         Item               Value     Threshold  Converged?
 Maximum Force            0.000004     0.000450     YES
 RMS     Force            0.000001     0.000300     YES
 Maximum Displacement     0.000149     0.001800     YES
 RMS     Displacement     0.000050     0.001200     YES
 Predicted change in Energy=-1.164111D-10
 Optimization completed.
    -- Stationary point found.
                           ----------------------------
                           !   Optimized Parameters   !
                           ! (Angstroms and Degrees)  !
 --------------------------                            --------------------------
 ! Name  Definition              Value          Derivative Info.                !
 --------------------------------------------------------------------------------
 ! R1    R(1,2)                  1.3288         -DE/DX =    0.0                 !
 ! R2    R(1,3)                  1.5439         -DE/DX =    0.0                 !
 ! R3    R(1,7)                  1.188          -DE/DX =    0.0                 !
 ! R4    R(2,8)                  0.9671         -DE/DX =    0.0                 !
 ! R5    R(3,4)                  1.3305         -DE/DX =    0.0                 !
 ! R6    R(3,5)                  1.3193         -DE/DX =    0.0                 !
 ! R7    R(3,6)                  1.3307         -DE/DX =    0.0                 !
 ! A1    A(2,1,3)              109.8409         -DE/DX =    0.0                 !
 ! A2    A(2,1,7)              126.707          -DE/DX =    0.0                 !
 ! A3    A(3,1,7)              123.452          -DE/DX =    0.0                 !
 ! A4    A(1,2,8)              108.4307         -DE/DX =    0.0                 !
 ! A5    A(1,3,4)              110.2717         -DE/DX =    0.0                 !
 ! A6    A(1,3,5)              110.3388         -DE/DX =    0.0                 !
 ! A7    A(1,3,6)              110.2251         -DE/DX =    0.0                 !
 ! A8    A(4,3,5)              108.8072         -DE/DX =    0.0                 !
 ! A9    A(4,3,6)              108.3451         -DE/DX =    0.0                 !
 ! A10   A(5,3,6)              108.8028         -DE/DX =    0.0                 !
 ! D1    D(3,1,2,8)            179.9036         -DE/DX =    0.0                 !
 ! D2    D(7,1,2,8)             -0.058          -DE/DX =    0.0                 !
 ! D3    D(2,1,3,4)             59.4451         -DE/DX =    0.0                 !
 ! D4    D(2,1,3,5)            179.6725         -DE/DX =    0.0                 !
 ! D5    D(2,1,3,6)            -60.1355         -DE/DX =    0.0                 !
 ! D6    D(7,1,3,4)           -120.5918         -DE/DX =    0.0                 !
 ! D7    D(7,1,3,5)             -0.3644         -DE/DX =    0.0                 !
 ! D8    D(7,1,3,6)            119.8276         -DE/DX =    0.0                 !
 --------------------------------------------------------------------------------
 GradGradGradGradGradGradGradGradGradGradGradGradGradGradGradGradGradGrad

 Leave Link  103 at Sun May 25 04:12:03 2025, MaxMem=  3758096384 cpu:               0.0 elap:               0.0
 (Enter /apps/easybuild-2022/easybuild/software/Compiler/NVHPC/22.11-CUDA-11.7.0/Gaussian/g16c01-CUDA-11.7.0/g16/l9999.exe)

 ----------------------------------------------------------------------

 Electric dipole moment (input orientation):
 (Debye = 10**-18 statcoulomb cm , SI units = C m)
                  (au)            (Debye)         (10**-30 SI)
   Tot        0.882746D+00      0.224372D+01      0.748423D+01
   x         -0.258330D+00     -0.656610D+00     -0.219021D+01
   y         -0.115133D+00     -0.292639D+00     -0.976139D+00
   z         -0.836212D+00     -0.212544D+01     -0.708970D+01

 Dipole polarizability, Alpha (input orientation).
 (esu units = cm**3 , SI units = C**2 m**2 J**-1)
 Alpha(0;0):
               (au)            (10**-24 esu)      (10**-40 SI)
   iso        0.317363D+02      0.470283D+01      0.523261D+01
   aniso      0.956528D+01      0.141743D+01      0.157710D+01
   xx         0.262839D+02      0.389487D+01      0.433363D+01
   yx         0.127547D+01      0.189005D+00      0.210297D+00
   yy         0.354806D+02      0.525768D+01      0.584996D+01
   zx         0.235153D+01      0.348461D+00      0.387715D+00
   zy         0.927574D-01      0.137452D-01      0.152936D-01
   zz         0.334444D+02      0.495595D+01      0.551424D+01

 ----------------------------------------------------------------------

 Dipole orientation:
     6          0.10446531         -1.38536771          1.30761820
     8         -0.00950705         -0.25440367          3.54668884
     6         -0.09540698          0.60347532         -0.81768659
     9          1.77828553          2.26961076         -0.63062959
     9          0.02910877         -0.49881119         -3.05051552
     9         -2.27664607          1.84283939         -0.64616561
     8          0.32472122         -3.58662724          0.92581974
     1          0.11603061         -1.53268553          4.84672000

 Electric dipole moment (dipole orientation):
 (Debye = 10**-18 statcoulomb cm , SI units = C m)
                  (au)            (Debye)         (10**-30 SI)
   Tot        0.882746D+00      0.224372D+01      0.748423D+01
   x          0.000000D+00      0.000000D+00      0.000000D+00
   y          0.000000D+00      0.000000D+00      0.000000D+00
   z          0.882746D+00      0.224372D+01      0.748423D+01

 Dipole polarizability, Alpha (dipole orientation).
 (esu units = cm**3 , SI units = C**2 m**2 J**-1)
 Alpha(0;0):
               (au)            (10**-24 esu)      (10**-40 SI)
   iso        0.317363D+02      0.470283D+01      0.523261D+01
   aniso      0.956528D+01      0.141743D+01      0.157710D+01
   xx         0.255381D+02      0.378436D+01      0.421067D+01
   yx        -0.997438D+00     -0.147805D+00     -0.164455D+00
   yy         0.353809D+02      0.524290D+01      0.583352D+01
   zx        -0.661347D-01     -0.980015D-02     -0.109041D-01
   zy         0.623161D+00      0.923430D-01      0.102745D+00
   zz         0.342899D+02      0.508124D+01      0.565364D+01

 ----------------------------------------------------------------------
 Unable to Open any file for archive entry.
 1\1\GINC-SPARTAN-BM187\Freq\RM062X\def2TZVPP\C2H1F3O2\AKHALILOV\25-May
 -2025\0\\#P Geom=AllCheck Guess=TCheck SCRF=Check GenChk RM062X/def2TZ
 VPP Freq\\Gaussian input prepared by ASE\\0,1\C,-0.1640183434,0.635367
 4545,-0.7672784202\O,-0.5566902286,-0.1112398765,-1.793976036\C,0.0846
 199358,-0.2591305986,0.4663169332\F,1.0208429991,-1.1654542782,0.19738
 19796\F,0.4819566289,0.4718936495,1.4902322232\F,-1.0325850903,-0.8984
 581967,0.8036633077\O,-0.0162965837,1.8141145523,-0.7619264004\H,-0.70
 77623178,0.4682602938,-2.5533235871\\Version=ES64L-G16RevC.01\HF=-526.
 8527707\RMSD=1.981e-09\RMSF=1.761e-06\ZeroPoint=0.0399818\Thermal=0.04
 61324\ETot=-526.8066383\HTot=-526.8056941\GTot=-526.8439219\Dipole=-0.
 2583301,-0.115133,-0.8362118\DipoleDeriv=0.3771598,0.2607976,0.3340089
 ,0.2615412,1.5366414,0.3460502,0.3340183,0.3437496,1.2441734,-0.427083
 ,-0.1799136,-0.2459298,-0.1142817,-0.6271229,-0.2659372,-0.2737561,-0.
 4904565,-1.0616355,1.7216962,0.0012749,-0.0416433,0.0175601,1.543674,0
 .1457435,-0.0500496,0.0901892,1.5249511,-0.6048567,0.3163192,0.0751407
 ,0.3308888,-0.6283158,-0.0414478,0.0455155,0.0058358,-0.3652432,-0.344
 066,-0.0965964,-0.1629865,-0.079633,-0.4501843,-0.197329,-0.169764,-0.
 2529396,-0.7472425,-0.7181506,-0.2303273,0.1203833,-0.2661731,-0.47720
 79,0.1325881,0.1599959,0.1569708,-0.4027519,-0.3586112,-0.0655913,-0.0
 931595,-0.1413107,-1.1253486,-0.1420581,-0.0612756,0.1146849,-0.581997
 2,0.3539114,-0.0059631,0.0141862,-0.0085916,0.2278641,0.0223902,0.0153
 155,0.0319658,0.3897457\Polar=26.2838763,1.2754698,35.480569,2.3515293
 ,0.0927574,33.444434\PG=Unknown\NImag=0\\0.27786763,0.10447114,1.09313
 403,0.10864731,-0.00749067,0.60860514,-0.08947115,-0.03771582,-0.06586
 095,0.08855177,-0.03217216,-0.17412842,-0.06428861,0.02517077,0.453181
 51,-0.06813180,-0.08306949,-0.26366905,0.15580823,-0.08839510,0.608914
 79,-0.07737180,0.01754356,-0.01620310,0.00284183,0.00245703,-0.0131968
 8,0.54833884,0.02079253,-0.08659290,0.07623685,-0.00923809,0.00512637,
 -0.03109692,0.00541710,0.60319152,-0.01767160,0.06520686,-0.16309951,-
 0.00815471,0.00885761,-0.02537838,0.02633717,-0.00636962,0.63241555,-0
 .01155179,0.01721878,0.01329631,0.00058262,-0.00128724,-0.00443122,-0.
 18486161,0.11672598,0.00879881,0.25710225,0.02984594,-0.02041149,-0.01
 997209,-0.00024906,0.00222438,0.00755305,0.12138128,-0.20148031,-0.005
 88226,-0.17208790,0.24445301,-0.01569670,0.01115070,0.01180312,-0.0003
 5373,0.00112369,-0.00126795,0.01007757,-0.01115209,-0.08462499,-0.0508
 5003,0.05536825,0.08889728,0.00366859,-0.01200733,-0.01186732,-0.00020
 996,0.00250666,-0.00333714,-0.09897626,-0.03307013,-0.06647658,0.01392
 670,0.02107894,0.02610876,0.11714919,-0.00029875,-0.00268270,0.0037999
 0,0.00102173,0.00185713,0.00291123,-0.03772460,-0.13715219,-0.10091417
 ,0.01236899,-0.04317629,-0.05211871,0.06506198,0.20140250,-0.01694334,
 -0.03586480,-0.03304747,-0.00270095,0.00789595,-0.01211180,-0.06454732
 ,-0.08511458,-0.25629881,0.01505667,-0.04171557,-0.01902041,0.08775576
 ,0.16830977,0.30641555,-0.01441170,-0.00987236,-0.00248084,0.00355399,
 0.00157411,0.00344552,-0.21247986,-0.09609996,0.06305800,-0.07618193,0
 .00399436,0.02796541,-0.03485759,-0.04261626,-0.01956001,0.33179968,-0
 .03514587,-0.00849289,0.00148445,0.00385136,0.00127285,0.00521712,-0.0
 9737233,-0.14469471,0.05236700,0.02015815,0.02415459,-0.01004549,-0.04
 516764,-0.02659506,-0.01571939,0.14732673,0.15991532,0.03208652,0.0131
 2746,0.00259266,-0.00212949,0.00033990,-0.00328144,0.06042309,0.046073
 83,-0.11327039,0.02451657,-0.00485531,0.00673823,-0.03333196,-0.026215
 80,0.01319327,-0.07763819,-0.03817434,0.09816035,-0.08901043,-0.088439
 97,-0.00824086,0.02218071,-0.03076108,-0.01313685,0.01854070,-0.002362
 74,-0.00341837,0.00079666,-0.00294588,0.00224764,-0.00034202,0.0021328
 3,0.00140207,0.00230167,0.00524329,-0.00394000,0.04998543,-0.08342442,
 -0.82562551,0.03277820,-0.02853464,-0.06744631,-0.05639704,-0.01006167
 ,-0.03603284,-0.01075045,0.00692018,-0.00610664,0.00558068,0.00205125,
 0.00606792,0.00395422,-0.00440117,-0.00562267,0.00959210,0.11641276,0.
 94070125,-0.01035317,0.01564469,-0.11770100,-0.01407366,-0.06389667,0.
 00874250,-0.00017433,0.01578036,0.01268768,-0.00679437,0.00910107,-0.0
 0346366,0.00141206,0.00423600,0.00199483,0.00505391,0.00504718,-0.0052
 6562,0.02062690,0.01162088,0.09516933,0.00028065,0.00880201,-0.0172905
 5,-0.02802980,0.03251190,-0.05701986,0.00396816,-0.00216470,-0.0024727
 2,0.00018709,-0.00101768,0.00050108,-0.00035865,0.00005407,-0.00046287
 ,0.00027575,0.00110632,0.00001345,-0.00445273,0.00103772,0.00430266,0.
 02812954,-0.00406842,0.02479989,-0.02254803,0.04569374,-0.22208750,0.2
 4327715,-0.00164037,-0.00236494,-0.00251498,-0.00001694,0.00034277,0.0
 0009296,-0.00045374,0.00027868,-0.00174560,0.00009455,0.00006257,0.000
 11216,0.00072080,-0.00593519,0.00246649,-0.04032964,0.20490374,-0.0119
 3722,0.02129526,-0.04548389,-0.06253473,0.19836323,-0.31194866,-0.0027
 1620,-0.00435784,-0.00243115,0.00040726,0.00040285,0.00093837,-0.00026
 358,-0.00000822,-0.00112515,0.00015620,-0.00017653,0.00113293,0.004459
 46,0.00362140,0.00783595,0.07242880,-0.21914015,0.35108160\\0.00000036
 ,0.00000129,-0.00000252,0.00000010,-0.00000057,-0.00000314,-0.00000157
 ,0.00000065,0.00000354,-0.00000127,-0.00000221,0.00000134,-0.00000160,
 -0.00000052,0.00000039,-0.00000227,0.00000093,0.00000028,0.00000349,0.
 00000086,0.00000116,0.00000278,-0.00000043,-0.00000105\\\@
 The archive entry for this job was punched.


 AND ALL THIS SCIENCE I DON'T UNDERSTAND
 IT'S JUST MY JOB FIVE DAYS A WEEK

                           -- ELTON JOHN, "ROCKET MAN"
 Job cpu time:       0 days  0 hours  9 minutes  3.9 seconds.
 Elapsed time:       0 days  0 hours  1 minutes  9.5 seconds.
 File lengths (MBytes):  RWF=     48 Int=      0 D2E=      0 Chk=      5 Scr=      1
 Normal termination of Gaussian 16 at Sun May 25 04:12:03 2025.
done
