 Entering Gaussian System, Link 0=g16
 Initial command:
 /apps/easybuild-2022/easybuild/software/Compiler/NVHPC/22.11-CUDA-11.7.0/Gaussian/g16c01-CUDA-11.7.0/g16/l1.exe "/tmp/Gau-115562.inp" -scrdir="/tmp/"
 Entering Link 1 = /apps/easybuild-2022/easybuild/software/Compiler/NVHPC/22.11-CUDA-11.7.0/Gaussian/g16c01-CUDA-11.7.0/g16/l1.exe PID=    115563.
  
 Copyright (c) 1988-2019, Gaussian, Inc.  All Rights Reserved.
  
 This is part of the Gaussian(R) 16 program.  It is based on
 the Gaussian(R) 09 system (copyright 2009, Gaussian, Inc.),
 the Gaussian(R) 03 system (copyright 2003, Gaussian, Inc.),
 the Gaussian(R) 98 system (copyright 1998, Gaussian, Inc.),
 the Gaussian(R) 94 system (copyright 1995, Gaussian, Inc.),
 the Gaussian 92(TM) system (copyright 1992, Gaussian, Inc.),
 the Gaussian 90(TM) system (copyright 1990, Gaussian, Inc.),
 the Gaussian 88(TM) system (copyright 1988, Gaussian, Inc.),
 the Gaussian 86(TM) system (copyright 1986, Carnegie Mellon
 University), and the Gaussian 82(TM) system (copyright 1983,
 Carnegie Mellon University). Gaussian is a federally registered
 trademark of Gaussian, Inc.
  
 This software contains proprietary and confidential information,
 including trade secrets, belonging to Gaussian, Inc.
  
 This software is provided under written license and may be
 used, copied, transmitted, or stored only in accord with that
 written license.
  
 The following legend is applicable only to US Government
 contracts under FAR:
  
                    RESTRICTED RIGHTS LEGEND
  
 Use, reproduction and disclosure by the US Government is
 subject to restrictions as set forth in subparagraphs (a)
 and (c) of the Commercial Computer Software - Restricted
 Rights clause in FAR 52.227-19.
  
 Gaussian, Inc.
 340 Quinnipiac St., Bldg. 40, Wallingford CT 06492
  
  
 ---------------------------------------------------------------
 Warning -- This program may not be used in any manner that
 competes with the business of Gaussian, Inc. or will provide
 assistance to any competitor of Gaussian, Inc.  The licensee
 of this program is prohibited from giving any competitor of
 Gaussian, Inc. access to this program.  By using this program,
 the user acknowledges that Gaussian, Inc. is engaged in the
 business of creating and licensing software in the field of
 computational chemistry and represents and warrants to the
 licensee that it is not a competitor of Gaussian, Inc. and that
 it will not use this program in any manner prohibited above.
 ---------------------------------------------------------------
  

 Cite this work as:
 Gaussian 16, Revision C.01,
 M. J. Frisch, G. W. Trucks, H. B. Schlegel, G. E. Scuseria, 
 M. A. Robb, J. R. Cheeseman, G. Scalmani, V. Barone, 
 G. A. Petersson, H. Nakatsuji, X. Li, M. Caricato, A. V. Marenich, 
 J. Bloino, B. G. Janesko, R. Gomperts, B. Mennucci, H. P. Hratchian, 
 J. V. Ortiz, A. F. Izmaylov, J. L. Sonnenberg, D. Williams-Young, 
 F. Ding, F. Lipparini, F. Egidi, J. Goings, B. Peng, A. Petrone, 
 T. Henderson, D. Ranasinghe, V. G. Zakrzewski, J. Gao, N. Rega, 
 G. Zheng, W. Liang, M. Hada, M. Ehara, K. Toyota, R. Fukuda, 
 J. Hasegawa, M. Ishida, T. Nakajima, Y. Honda, O. Kitao, H. Nakai, 
 T. Vreven, K. Throssell, J. A. Montgomery, Jr., J. E. Peralta, 
 F. Ogliaro, M. J. Bearpark, J. J. Heyd, E. N. Brothers, K. N. Kudin, 
 V. N. Staroverov, T. A. Keith, R. Kobayashi, J. Normand, 
 K. Raghavachari, A. P. Rendell, J. C. Burant, S. S. Iyengar, 
 J. Tomasi, M. Cossi, J. M. Millam, M. Klene, C. Adamo, R. Cammi, 
 J. W. Ochterski, R. L. Martin, K. Morokuma, O. Farkas, 
 J. B. Foresman, and D. J. Fox, Gaussian, Inc., Wallingford CT, 2019.
 
 ******************************************
 Gaussian 16:  ES64L-G16RevC.01  3-Jul-2019
                25-May-2025 
 ******************************************
 %mem=28GB
 %chk=1141903082400600000001_r12_insertion_R_4_3_6
 %nprocshared=8
 Will use up to    8 processors via shared memory.
 ----------------------------------------------------------------------
 #P M062X/Def2TZVPP Symm(None) scf(xqc) pop(None) opt(NoFreeze,TS,CalcA
 ll,NoEigentest,MaxCycle=999,Cartesian)
 ----------------------------------------------------------------------
 1/5=1,6=999,10=4,11=1,18=10,26=3,29=2000,38=1/1,3;
 2/12=2,15=3,17=6,18=5,29=2,40=1/2;
 3/5=44,7=202,11=2,25=1,30=1,71=2,74=-55,140=1/1,2,3;
 4//1;
 5/5=2,8=3,13=1,38=5/2,8;
 8/6=4,10=90,11=11/1;
 11/6=1,8=1,9=11,15=111,16=1,31=1/1,2,10;
 10/6=1,31=1/2;
 7/7=1,10=1,25=1,30=1/1,2,3,16;
 1/5=1,6=999,10=4,11=1,18=10,26=3/3(3);
 2/15=3,29=1/2;
 7/7=1,8=1,9=1,25=1,30=1,44=-1/16;
 99/12=1/99;
 2/15=3,29=1/2;
 3/5=44,7=202,11=2,25=1,30=1,71=2,74=-55,140=1/1,2,3;
 4/5=5,16=3,69=1/1;
 5/5=2,8=3,13=1,38=5/2,8;
 8/6=4,10=90,11=11/1;
 11/6=1,8=1,9=11,15=111,16=1,31=1/1,2,10;
 10/6=1,31=1/2;
 7/7=1,10=1,25=1,30=1/1,2,3,16;
 1/5=1,6=999,10=4,11=1,18=10,26=3/3(-8);
 2/15=3,29=1/2;
 7/7=1,8=1,9=1,25=1,30=1,44=-1/16;
 99/12=1/99;
 Leave Link    1 at Sun May 25 05:34:42 2025, MaxMem=  3758096384 cpu:               0.0 elap:               0.0
 (Enter /apps/easybuild-2022/easybuild/software/Compiler/NVHPC/22.11-CUDA-11.7.0/Gaussian/g16c01-CUDA-11.7.0/g16/l101.exe)
 ------------------------------
 Gaussian input prepared by ASE
 ------------------------------
 Symbolic Z-matrix:
 Charge =  0 Multiplicity = 1
 C                     1.66381   0.29125   0.1855 
 O                     2.13002  -0.69612   0.65116 
 C                     0.17791   0.46741   0.09829 
 F                    -0.56481  -0.34128   0.64131 
 F                    -0.34867   1.17864  -0.82058 
 F                    -1.25954  -1.96254  -0.18687 
 O                     2.28218   1.3541   -0.30946 
 H                     3.23871   1.21282  -0.26045 
 
 ITRead=  0  0  0  0  0  0  0  0
 MicOpt= -1 -1 -1 -1 -1 -1 -1 -1
 NAtoms=      8 NQM=        8 NQMF=       0 NMMI=      0 NMMIF=      0
                NMic=       0 NMicF=      0.
                    Isotopes and Nuclear Properties:
 (Nuclear quadrupole moments (NQMom) in fm**2, nuclear magnetic moments (NMagM)
  in nuclear magnetons)

  Atom         1           2           3           4           5           6           7           8
 IAtWgt=          12          16          12          19          19          19          16           1
 AtmWgt=  12.0000000  15.9949146  12.0000000  18.9984032  18.9984032  18.9984032  15.9949146   1.0078250
 NucSpn=           0           0           0           1           1           1           0           1
 AtZEff=  -0.0000000  -0.0000000  -0.0000000  -0.0000000  -0.0000000  -0.0000000  -0.0000000  -0.0000000
 NQMom=    0.0000000   0.0000000   0.0000000   0.0000000   0.0000000   0.0000000   0.0000000   0.0000000
 NMagM=    0.0000000   0.0000000   0.0000000   2.6288670   2.6288670   2.6288670   0.0000000   2.7928460
 AtZNuc=   6.0000000   8.0000000   6.0000000   9.0000000   9.0000000   9.0000000   8.0000000   1.0000000
 Leave Link  101 at Sun May 25 05:34:42 2025, MaxMem=  3758096384 cpu:               0.1 elap:               0.1
 (Enter /apps/easybuild-2022/easybuild/software/Compiler/NVHPC/22.11-CUDA-11.7.0/Gaussian/g16c01-CUDA-11.7.0/g16/l103.exe)

 GradGradGradGradGradGradGradGradGradGradGradGradGradGradGradGradGradGrad
 Berny optimization.
 Initialization pass.
 No Z-matrix variables, so optimization will use Cartesian coordinates.
 Trust Radius=3.00D-01 FncErr=1.00D-07 GrdErr=1.00D-06 EigMax=2.50D+02 EigMin=1.00D-04
 Number of steps in this run=    100 maximum allowed number of steps=    100.
 Search for a saddle point of order  1.
 GradGradGradGradGradGradGradGradGradGradGradGradGradGradGradGradGradGrad

 Leave Link  103 at Sun May 25 05:34:42 2025, MaxMem=  3758096384 cpu:               0.0 elap:               0.0
 (Enter /apps/easybuild-2022/easybuild/software/Compiler/NVHPC/22.11-CUDA-11.7.0/Gaussian/g16c01-CUDA-11.7.0/g16/l202.exe)
 ---------------------------------------------------------------------------------------------------
                            Z-MATRIX (ANGSTROMS AND DEGREES)
   CD    Cent   Atom    N1       Length/X        N2       Alpha/Y        N3        Beta/Z          J
 ---------------------------------------------------------------------------------------------------
      1      1  C        0   1.663809          0.291247          0.185499
      2      2  O        0   2.130021         -0.696119          0.651163
      3      3  C        0   0.177912          0.467413          0.098291
      4      4  F        0  -0.564812         -0.341276          0.641312
      5      5  F        0  -0.348667          1.178635         -0.820578
      6      6  F        0  -1.259535         -1.962538         -0.186866
      7      7  O        0   2.282181          1.354097         -0.309464
      8      8  H        0   3.238709          1.212818         -0.260449
 ---------------------------------------------------------------------------------------------------
                         Z-Matrix orientation:                         
 ---------------------------------------------------------------------
 Center     Atomic      Atomic             Coordinates (Angstroms)
 Number     Number       Type             X           Y           Z
 ---------------------------------------------------------------------
      1          6           0        1.663809    0.291247    0.185499
      2          8           0        2.130021   -0.696119    0.651163
      3          6           0        0.177912    0.467413    0.098291
      4          9           0       -0.564812   -0.341276    0.641312
      5          9           0       -0.348667    1.178635   -0.820578
      6          9           0       -1.259535   -1.962538   -0.186866
      7          8           0        2.282181    1.354097   -0.309464
      8          1           0        3.238709    1.212818   -0.260449
 ---------------------------------------------------------------------
                    Distance matrix (angstroms):
                    1          2          3          4          5
     1  C    0.000000
     2  O    1.187050   0.000000
     3  C    1.498843   2.338847   0.000000
     4  F    2.361060   2.718112   1.224944   0.000000
     5  F    2.418617   3.438694   1.275713   2.119899   0.000000
     6  F    3.710006   3.714189   2.837645   1.948592   3.331402
     7  O    1.325527   2.269216   2.319573   3.447265   2.685775
     8  H    1.878423   2.388361   3.170615   4.206561   3.631003
                    6          7          8
     6  F    0.000000
     7  O    4.853746   0.000000
     8  H    5.506587   0.968147   0.000000
 Symmetry turned off by external request.
 Stoichiometry    C2HF3O2
 Rotational constants (GHZ):           4.1522668           1.8005327           1.3637617
 Leave Link  202 at Sun May 25 05:34:42 2025, MaxMem=  3758096384 cpu:               0.0 elap:               0.0
 (Enter /apps/easybuild-2022/easybuild/software/Compiler/NVHPC/22.11-CUDA-11.7.0/Gaussian/g16c01-CUDA-11.7.0/g16/l301.exe)
 Standard basis: def2TZVPP (5D, 7F)
 Ernie: Thresh=  0.10000D-02 Tol=  0.10000D-05 Strict=F.
   231 basis functions,   374 primitive gaussians,   267 cartesian basis functions
    28 alpha electrons       28 beta electrons
       nuclear repulsion energy       313.0966122338 Hartrees.
 IExCor= 4336 DFT=T Ex+Corr=M062X ExCW=0 ScaHFX=  0.540000
 ScaDFX=  1.000000  1.000000  1.000000  1.000000 ScalE2=  1.000000  1.000000
 IRadAn=      5 IRanWt=     -1 IRanGd=            0 ICorTp=0 IEmpDi=  4
 NAtoms=    8 NActive=    8 NUniq=    8 SFac= 1.00D+00 NAtFMM=   60 NAOKFM=F Big=F
 Integral buffers will be    131072 words long.
 Raffenetti 2 integral format.
 Two-electron integral symmetry is turned off.
 Leave Link  301 at Sun May 25 05:34:42 2025, MaxMem=  3758096384 cpu:               0.0 elap:               0.0
 (Enter /apps/easybuild-2022/easybuild/software/Compiler/NVHPC/22.11-CUDA-11.7.0/Gaussian/g16c01-CUDA-11.7.0/g16/l302.exe)
 NPDir=0 NMtPBC=     1 NCelOv=     1 NCel=       1 NClECP=     1 NCelD=      1
         NCelK=      1 NCelE2=     1 NClLst=     1 CellRange=     0.0.
 One-electron integrals computed using PRISM.
   1 Symmetry operations used in ECPInt.
 ECPInt:  NShTT=    3486 NPrTT=   11183 LenC2=    3330 LenP2D=    8351.
 LDataN:  DoStor=T MaxTD1= 6 Len=  172
 NBasis=   231 RedAO= T EigKep=  4.05D-04  NBF=   231
 NBsUse=   231 1.00D-06 EigRej= -1.00D+00 NBFU=   231
 Precomputing XC quadrature grid using
 IXCGrd= 4 IRadAn=           5 IRanWt=          -1 IRanGd=           0 AccXCQ= 0.00D+00.
 Generated NRdTot=       0 NPtTot=           0 NUsed=           0 NTot=          32
 NSgBfM=   265   264   265   265   265 MxSgAt=     8 MxSgA2=     8.
 Leave Link  302 at Sun May 25 05:34:42 2025, MaxMem=  3758096384 cpu:               0.5 elap:               0.1
 (Enter /apps/easybuild-2022/easybuild/software/Compiler/NVHPC/22.11-CUDA-11.7.0/Gaussian/g16c01-CUDA-11.7.0/g16/l303.exe)
 DipDrv:  MaxL=1.
 Leave Link  303 at Sun May 25 05:34:42 2025, MaxMem=  3758096384 cpu:               0.1 elap:               0.0
 (Enter /apps/easybuild-2022/easybuild/software/Compiler/NVHPC/22.11-CUDA-11.7.0/Gaussian/g16c01-CUDA-11.7.0/g16/l401.exe)
 ExpMin= 9.52D-02 ExpMax= 3.55D+04 ExpMxC= 1.21D+03 IAcc=3 IRadAn=         5 AccDes= 0.00D+00
 Harris functional with IExCor= 1009 and IRadAn=       5 diagonalized for initial guess.
 HarFok:  IExCor= 1009 AccDes= 0.00D+00 IRadAn=         5 IDoV= 1 UseB2=F ITyADJ=14
 ICtDFT=  3500011 ScaDFX=  1.000000  1.000000  1.000000  1.000000
 FoFCou: FMM=F IPFlag=           0 FMFlag=      100000 FMFlg1=           0
         NFxFlg=           0 DoJE=T BraDBF=F KetDBF=T FulRan=T
         wScrn=  0.000000 ICntrl=       500 IOpCl=  0 I1Cent=   200000004 NGrid=           0
         NMat0=    1 NMatS0=      1 NMatT0=    0 NMatD0=    1 NMtDS0=    0 NMtDT0=    0
 Symmetry not used in FoFCou.
 Harris En= -526.482190978572    
 JPrj=0 DoOrth=F DoCkMO=F.
 Leave Link  401 at Sun May 25 05:34:42 2025, MaxMem=  3758096384 cpu:               1.7 elap:               0.2
 (Enter /apps/easybuild-2022/easybuild/software/Compiler/NVHPC/22.11-CUDA-11.7.0/Gaussian/g16c01-CUDA-11.7.0/g16/l502.exe)
 Keep R1 ints in memory in canonical form, NReq=368651263.
 FoFCou: FMM=F IPFlag=           0 FMFlag=           0 FMFlg1=           0
         NFxFlg=           0 DoJE=F BraDBF=F KetDBF=F FulRan=T
         wScrn=  0.000000 ICntrl=       600 IOpCl=  0 I1Cent=           0 NGrid=           0
         NMat0=    1 NMatS0=  26796 NMatT0=    0 NMatD0=    1 NMtDS0=    0 NMtDT0=    0
 Symmetry not used in FoFCou.
 Two-electron integral symmetry not used.
 Closed shell SCF:
 Using DIIS extrapolation, IDIIS=  1040.
 NGot=  3758096384 LenX=  3398923547 LenY=  3398851817
 Requested convergence on RMS density matrix=1.00D-08 within  32 cycles.
 Requested convergence on MAX density matrix=1.00D-06.
 Requested convergence on             energy=1.00D-06.
 No special actions if energy rises.
 Integral accuracy reduced to 1.0D-05 until final iterations.

 Cycle   1  Pass 0  IDiag  1:
 E= -526.311233807640    
 DIIS: error= 5.38D-02 at cycle   1 NSaved=   1.
 NSaved= 1 IEnMin= 1 EnMin= -526.311233807640     IErMin= 1 ErrMin= 5.38D-02
 ErrMax= 5.38D-02  0.00D+00 EMaxC= 1.00D-01 BMatC= 4.40D-01 BMatP= 4.40D-01
 IDIUse=3 WtCom= 4.62D-01 WtEn= 5.38D-01
 Coeff-Com:  0.100D+01
 Coeff-En:   0.100D+01
 Coeff:      0.100D+01
 Gap=    -0.007 Goal=   None    Shift=    0.000
 GapD=   -0.007 DampG=0.250 DampE=0.500 DampFc=0.2500 IDamp=-1.
 Damping current iteration by 2.50D-01
 RMSDP=3.20D-02 MaxDP=2.13D+00              OVMax= 9.61D-01

 Cycle   2  Pass 0  IDiag  1:
 E= -525.822519289719     Delta-E=        0.488714517921 Rises=F Damp=T
 DIIS: error= 2.39D-02 at cycle   2 NSaved=   2.
 NSaved= 2 IEnMin= 1 EnMin= -526.311233807640     IErMin= 2 ErrMin= 2.39D-02
 ErrMax= 2.39D-02  0.00D+00 EMaxC= 1.00D-01 BMatC= 1.50D-01 BMatP= 4.40D-01
 IDIUse=3 WtCom= 7.61D-01 WtEn= 2.39D-01
 Coeff-Com:  0.237D+00 0.763D+00
 Coeff-En:   0.801D+00 0.199D+00
 Coeff:      0.372D+00 0.628D+00
 Gap=    -0.360 Goal=   None    Shift=    0.000
 RMSDP=8.04D-03 MaxDP=5.31D-01 DE= 4.89D-01 OVMax= 9.72D-01

 Cycle   3  Pass 0  IDiag  1:
 E= -526.386926174326     Delta-E=       -0.564406884607 Rises=F Damp=F
 DIIS: error= 4.73D-02 at cycle   3 NSaved=   3.
 NSaved= 3 IEnMin= 3 EnMin= -526.386926174326     IErMin= 2 ErrMin= 2.39D-02
 ErrMax= 4.73D-02  0.00D+00 EMaxC= 1.00D-01 BMatC= 2.77D-01 BMatP= 1.50D-01
 IDIUse=2 WtCom= 0.00D+00 WtEn= 1.00D+00
 EnCoef did     2 forward-backward iterations
 Coeff-En:   0.250D+00 0.130D+00 0.620D+00
 Coeff:      0.250D+00 0.130D+00 0.620D+00
 Gap=     0.308 Goal=   None    Shift=    0.000
 RMSDP=5.22D-03 MaxDP=2.52D-01 DE=-5.64D-01 OVMax= 9.52D-01

 Cycle   4  Pass 0  IDiag  1:
 E= -525.274124947284     Delta-E=        1.112801227043 Rises=F Damp=F
 DIIS: error= 1.34D-01 at cycle   4 NSaved=   4.
 NSaved= 4 IEnMin= 3 EnMin= -526.386926174326     IErMin= 2 ErrMin= 2.39D-02
 ErrMax= 1.34D-01  0.00D+00 EMaxC= 1.00D-01 BMatC= 1.23D+00 BMatP= 1.50D-01
 IDIUse=2 WtCom= 0.00D+00 WtEn= 1.00D+00
 EnCoef did     3 forward-backward iterations
 Coeff-En:   0.256D+00 0.000D+00 0.537D+00 0.207D+00
 Coeff:      0.256D+00 0.000D+00 0.537D+00 0.207D+00
 Gap=     0.090 Goal=   None    Shift=    0.000
 RMSDP=3.81D-03 MaxDP=2.13D-01 DE= 1.11D+00 OVMax= 7.44D-01

 Cycle   5  Pass 0  IDiag  1:
 E= -526.599403713104     Delta-E=       -1.325278765821 Rises=F Damp=F
 DIIS: error= 1.99D-02 at cycle   5 NSaved=   5.
 NSaved= 5 IEnMin= 5 EnMin= -526.599403713104     IErMin= 5 ErrMin= 1.99D-02
 ErrMax= 1.99D-02  0.00D+00 EMaxC= 1.00D-01 BMatC= 3.82D-02 BMatP= 1.50D-01
 IDIUse=3 WtCom= 8.01D-01 WtEn= 1.99D-01
 Coeff-Com:  0.125D-01 0.749D-01 0.233D+00-0.345D-01 0.714D+00
 Coeff-En:   0.000D+00 0.000D+00 0.653D-01 0.000D+00 0.935D+00
 Coeff:      0.101D-01 0.600D-01 0.200D+00-0.277D-01 0.758D+00
 Gap=     0.150 Goal=   None    Shift=    0.000
 RMSDP=8.07D-04 MaxDP=3.03D-02 DE=-1.33D+00 OVMax= 1.59D-01

 Cycle   6  Pass 0  IDiag  1:
 E= -526.614858010857     Delta-E=       -0.015454297752 Rises=F Damp=F
 DIIS: error= 1.07D-02 at cycle   6 NSaved=   6.
 NSaved= 6 IEnMin= 6 EnMin= -526.614858010857     IErMin= 6 ErrMin= 1.07D-02
 ErrMax= 1.07D-02  0.00D+00 EMaxC= 1.00D-01 BMatC= 1.03D-02 BMatP= 3.82D-02
 IDIUse=3 WtCom= 8.93D-01 WtEn= 1.07D-01
 Coeff-Com: -0.417D-01 0.455D-01 0.403D-01-0.115D-01 0.344D+00 0.624D+00
 Coeff-En:   0.000D+00 0.000D+00 0.000D+00 0.000D+00 0.314D+00 0.686D+00
 Coeff:     -0.372D-01 0.406D-01 0.359D-01-0.103D-01 0.340D+00 0.631D+00
 Gap=     0.147 Goal=   None    Shift=    0.000
 RMSDP=3.06D-04 MaxDP=1.01D-02 DE=-1.55D-02 OVMax= 5.92D-02

 Cycle   7  Pass 0  IDiag  1:
 E= -526.623609024890     Delta-E=       -0.008751014033 Rises=F Damp=F
 DIIS: error= 1.45D-03 at cycle   7 NSaved=   7.
 NSaved= 7 IEnMin= 7 EnMin= -526.623609024890     IErMin= 7 ErrMin= 1.45D-03
 ErrMax= 1.45D-03  0.00D+00 EMaxC= 1.00D-01 BMatC= 4.64D-04 BMatP= 1.03D-02
 IDIUse=3 WtCom= 9.85D-01 WtEn= 1.45D-02
 Coeff-Com: -0.252D-01 0.251D-01 0.347D-02-0.423D-02 0.153D+00 0.336D+00
 Coeff-Com:  0.512D+00
 Coeff-En:   0.000D+00 0.000D+00 0.000D+00 0.000D+00 0.000D+00 0.000D+00
 Coeff-En:   0.100D+01
 Coeff:     -0.248D-01 0.248D-01 0.342D-02-0.417D-02 0.151D+00 0.331D+00
 Coeff:      0.519D+00
 Gap=     0.149 Goal=   None    Shift=    0.000
 RMSDP=5.24D-05 MaxDP=1.45D-03 DE=-8.75D-03 OVMax= 7.18D-03

 Cycle   8  Pass 0  IDiag  1:
 E= -526.623989585220     Delta-E=       -0.000380560330 Rises=F Damp=F
 DIIS: error= 5.46D-04 at cycle   8 NSaved=   8.
 NSaved= 8 IEnMin= 8 EnMin= -526.623989585220     IErMin= 8 ErrMin= 5.46D-04
 ErrMax= 5.46D-04  0.00D+00 EMaxC= 1.00D-01 BMatC= 7.09D-05 BMatP= 4.64D-04
 IDIUse=3 WtCom= 9.95D-01 WtEn= 5.46D-03
 Coeff-Com:  0.308D-02 0.117D-02 0.135D-02-0.207D-02-0.192D-01-0.144D+00
 Coeff-Com: -0.151D+00 0.131D+01
 Coeff-En:   0.000D+00 0.000D+00 0.000D+00 0.000D+00 0.000D+00 0.000D+00
 Coeff-En:   0.000D+00 0.100D+01
 Coeff:      0.306D-02 0.116D-02 0.135D-02-0.206D-02-0.191D-01-0.143D+00
 Coeff:     -0.150D+00 0.131D+01
 Gap=     0.148 Goal=   None    Shift=    0.000
 RMSDP=9.48D-05 MaxDP=2.98D-03 DE=-3.81D-04 OVMax= 2.09D-02

 Cycle   9  Pass 0  IDiag  1:
 E= -526.624069271136     Delta-E=       -0.000079685916 Rises=F Damp=F
 DIIS: error= 1.26D-03 at cycle   9 NSaved=   9.
 NSaved= 9 IEnMin= 9 EnMin= -526.624069271136     IErMin= 8 ErrMin= 5.46D-04
 ErrMax= 1.26D-03  0.00D+00 EMaxC= 1.00D-01 BMatC= 1.39D-04 BMatP= 7.09D-05
 IDIUse=3 WtCom= 9.95D-01 WtEn= 5.46D-03
 Coeff-Com:  0.338D-02-0.311D-02-0.106D-03-0.320D-02-0.356D-02-0.251D-01
 Coeff-Com: -0.655D-01 0.525D+00 0.572D+00
 Coeff-En:   0.000D+00 0.000D+00 0.000D+00 0.000D+00 0.000D+00 0.000D+00
 Coeff-En:   0.000D+00 0.346D+00 0.654D+00
 Coeff:      0.336D-02-0.309D-02-0.105D-03-0.319D-02-0.354D-02-0.250D-01
 Coeff:     -0.652D-01 0.524D+00 0.572D+00
 Gap=     0.149 Goal=   None    Shift=    0.000
 RMSDP=1.71D-05 MaxDP=5.29D-04 DE=-7.97D-05 OVMax= 3.10D-03

 Failed to achieve initial convergence to 1.0D-08 in 10 cycles.
 Switch to full accuracy anyway.
 Cycle  10  Pass 1  IDiag  1:
 E= -526.624000791894     Delta-E=        0.000068479242 Rises=F Damp=F
 DIIS: error= 1.52D-03 at cycle   1 NSaved=   1.
 NSaved= 1 IEnMin= 1 EnMin= -526.624000791894     IErMin= 1 ErrMin= 1.52D-03
 ErrMax= 1.52D-03  0.00D+00 EMaxC= 1.00D-01 BMatC= 1.77D-04 BMatP= 1.77D-04
 IDIUse=3 WtCom= 9.85D-01 WtEn= 1.52D-02
 Coeff-Com:  0.100D+01
 Coeff-En:   0.100D+01
 Coeff:      0.100D+01
 Gap=     0.158 Goal=   None    Shift=    0.000
 RMSDP=1.71D-05 MaxDP=5.29D-04 DE= 6.85D-05 OVMax= 3.45D-02

 Cycle  11  Pass 1  IDiag  1:
 E= -526.622848639829     Delta-E=        0.001152152064 Rises=F Damp=F
 DIIS: error= 4.47D-03 at cycle   2 NSaved=   2.
 NSaved= 2 IEnMin= 1 EnMin= -526.624000791894     IErMin= 1 ErrMin= 1.52D-03
 ErrMax= 4.47D-03  0.00D+00 EMaxC= 1.00D-01 BMatC= 1.63D-03 BMatP= 1.77D-04
 IDIUse=3 WtCom= 1.30D-01 WtEn= 8.70D-01
 Coeff-Com:  0.753D+00 0.247D+00
 Coeff-En:   0.831D+00 0.169D+00
 Coeff:      0.821D+00 0.179D+00
 Gap=     0.153 Goal=   None    Shift=    0.000
 RMSDP=9.07D-05 MaxDP=3.36D-03 DE= 1.15D-03 OVMax= 1.85D-02

 Cycle  12  Pass 1  IDiag  1:
 E= -526.624038699696     Delta-E=       -0.001190059867 Rises=F Damp=F
 DIIS: error= 1.29D-03 at cycle   3 NSaved=   3.
 NSaved= 3 IEnMin= 3 EnMin= -526.624038699696     IErMin= 3 ErrMin= 1.29D-03
 ErrMax= 1.29D-03  0.00D+00 EMaxC= 1.00D-01 BMatC= 1.37D-04 BMatP= 1.77D-04
 IDIUse=3 WtCom= 9.87D-01 WtEn= 1.29D-02
 Coeff-Com:  0.291D+00-0.155D+00 0.864D+00
 Coeff-En:   0.450D+00 0.000D+00 0.550D+00
 Coeff:      0.293D+00-0.153D+00 0.860D+00
 Gap=     0.151 Goal=   None    Shift=    0.000
 RMSDP=3.87D-05 MaxDP=1.47D-03 DE=-1.19D-03 OVMax= 8.05D-03

 Cycle  13  Pass 1  IDiag  1:
 E= -526.624151070770     Delta-E=       -0.000112371074 Rises=F Damp=F
 DIIS: error= 5.16D-05 at cycle   4 NSaved=   4.
 NSaved= 4 IEnMin= 4 EnMin= -526.624151070770     IErMin= 4 ErrMin= 5.16D-05
 ErrMax= 5.16D-05  0.00D+00 EMaxC= 1.00D-01 BMatC= 4.26D-07 BMatP= 1.37D-04
 IDIUse=1 WtCom= 1.00D+00 WtEn= 0.00D+00
 Coeff-Com: -0.242D-01-0.124D+00 0.420D+00 0.728D+00
 Coeff:     -0.242D-01-0.124D+00 0.420D+00 0.728D+00
 Gap=     0.151 Goal=   None    Shift=    0.000
 RMSDP=4.55D-06 MaxDP=9.91D-05 DE=-1.12D-04 OVMax= 9.54D-04

 Cycle  14  Pass 1  IDiag  1:
 E= -526.624151939976     Delta-E=       -0.000000869206 Rises=F Damp=F
 DIIS: error= 5.25D-05 at cycle   5 NSaved=   5.
 NSaved= 5 IEnMin= 5 EnMin= -526.624151939976     IErMin= 4 ErrMin= 5.16D-05
 ErrMax= 5.25D-05  0.00D+00 EMaxC= 1.00D-01 BMatC= 2.79D-07 BMatP= 4.26D-07
 IDIUse=1 WtCom= 1.00D+00 WtEn= 0.00D+00
 Coeff-Com: -0.900D-01 0.125D-01-0.104D+00 0.267D+00 0.914D+00
 Coeff:     -0.900D-01 0.125D-01-0.104D+00 0.267D+00 0.914D+00
 Gap=     0.151 Goal=   None    Shift=    0.000
 RMSDP=4.43D-06 MaxDP=1.20D-04 DE=-8.69D-07 OVMax= 9.90D-04

 Cycle  15  Pass 1  IDiag  1:
 E= -526.624152672659     Delta-E=       -0.000000732683 Rises=F Damp=F
 DIIS: error= 1.41D-05 at cycle   6 NSaved=   6.
 NSaved= 6 IEnMin= 6 EnMin= -526.624152672659     IErMin= 6 ErrMin= 1.41D-05
 ErrMax= 1.41D-05  0.00D+00 EMaxC= 1.00D-01 BMatC= 4.58D-08 BMatP= 2.79D-07
 IDIUse=1 WtCom= 1.00D+00 WtEn= 0.00D+00
 Coeff-Com: -0.437D-01 0.535D-01-0.213D+00-0.123D+00 0.464D+00 0.862D+00
 Coeff:     -0.437D-01 0.535D-01-0.213D+00-0.123D+00 0.464D+00 0.862D+00
 Gap=     0.151 Goal=   None    Shift=    0.000
 RMSDP=3.50D-06 MaxDP=9.65D-05 DE=-7.33D-07 OVMax= 8.29D-04

 Cycle  16  Pass 1  IDiag  1:
 E= -526.624152963357     Delta-E=       -0.000000290699 Rises=F Damp=F
 DIIS: error= 9.29D-06 at cycle   7 NSaved=   7.
 NSaved= 7 IEnMin= 7 EnMin= -526.624152963357     IErMin= 7 ErrMin= 9.29D-06
 ErrMax= 9.29D-06  0.00D+00 EMaxC= 1.00D-01 BMatC= 1.83D-08 BMatP= 4.58D-08
 IDIUse=1 WtCom= 1.00D+00 WtEn= 0.00D+00
 Coeff-Com:  0.260D-01 0.519D-02-0.833D-02-0.132D+00-0.222D+00 0.192D+00
 Coeff-Com:  0.114D+01
 Coeff:      0.260D-01 0.519D-02-0.833D-02-0.132D+00-0.222D+00 0.192D+00
 Coeff:      0.114D+01
 Gap=     0.151 Goal=   None    Shift=    0.000
 RMSDP=2.72D-06 MaxDP=7.58D-05 DE=-2.91D-07 OVMax= 6.26D-04

 Cycle  17  Pass 1  IDiag  1:
 E= -526.624153073930     Delta-E=       -0.000000110573 Rises=F Damp=F
 DIIS: error= 8.68D-06 at cycle   8 NSaved=   8.
 NSaved= 8 IEnMin= 8 EnMin= -526.624153073930     IErMin= 8 ErrMin= 8.68D-06
 ErrMax= 8.68D-06  0.00D+00 EMaxC= 1.00D-01 BMatC= 7.19D-09 BMatP= 1.83D-08
 IDIUse=1 WtCom= 1.00D+00 WtEn= 0.00D+00
 Coeff-Com:  0.206D-01-0.120D-01 0.477D-01-0.537D-02-0.170D+00-0.201D+00
 Coeff-Com:  0.271D+00 0.105D+01
 Coeff:      0.206D-01-0.120D-01 0.477D-01-0.537D-02-0.170D+00-0.201D+00
 Coeff:      0.271D+00 0.105D+01
 Gap=     0.151 Goal=   None    Shift=    0.000
 RMSDP=1.45D-06 MaxDP=5.56D-05 DE=-1.11D-07 OVMax= 3.10D-04

 Cycle  18  Pass 1  IDiag  1:
 E= -526.624153096898     Delta-E=       -0.000000022968 Rises=F Damp=F
 DIIS: error= 2.09D-06 at cycle   9 NSaved=   9.
 NSaved= 9 IEnMin= 9 EnMin= -526.624153096898     IErMin= 9 ErrMin= 2.09D-06
 ErrMax= 2.09D-06  0.00D+00 EMaxC= 1.00D-01 BMatC= 7.21D-10 BMatP= 7.19D-09
 IDIUse=1 WtCom= 1.00D+00 WtEn= 0.00D+00
 Coeff-Com:  0.157D-02-0.270D-02 0.911D-02 0.200D-01 0.628D-02-0.810D-01
 Coeff-Com: -0.168D+00 0.310D+00 0.905D+00
 Coeff:      0.157D-02-0.270D-02 0.911D-02 0.200D-01 0.628D-02-0.810D-01
 Coeff:     -0.168D+00 0.310D+00 0.905D+00
 Gap=     0.151 Goal=   None    Shift=    0.000
 RMSDP=3.91D-07 MaxDP=1.54D-05 DE=-2.30D-08 OVMax= 7.97D-05

 Cycle  19  Pass 1  IDiag  1:
 E= -526.624153098651     Delta-E=       -0.000000001753 Rises=F Damp=F
 DIIS: error= 3.27D-07 at cycle  10 NSaved=  10.
 NSaved=10 IEnMin=10 EnMin= -526.624153098651     IErMin=10 ErrMin= 3.27D-07
 ErrMax= 3.27D-07  0.00D+00 EMaxC= 1.00D-01 BMatC= 7.61D-11 BMatP= 7.21D-10
 IDIUse=1 WtCom= 1.00D+00 WtEn= 0.00D+00
 Coeff-Com: -0.131D-02-0.128D-03-0.367D-03 0.993D-02 0.200D-01-0.176D-01
 Coeff-Com: -0.109D+00 0.432D-01 0.422D+00 0.634D+00
 Coeff:     -0.131D-02-0.128D-03-0.367D-03 0.993D-02 0.200D-01-0.176D-01
 Coeff:     -0.109D+00 0.432D-01 0.422D+00 0.634D+00
 Gap=     0.151 Goal=   None    Shift=    0.000
 RMSDP=6.44D-08 MaxDP=2.17D-06 DE=-1.75D-09 OVMax= 1.18D-05

 Cycle  20  Pass 1  IDiag  1:
 E= -526.624153098783     Delta-E=       -0.000000000132 Rises=F Damp=F
 DIIS: error= 1.63D-07 at cycle  11 NSaved=  11.
 NSaved=11 IEnMin=11 EnMin= -526.624153098783     IErMin=11 ErrMin= 1.63D-07
 ErrMax= 1.63D-07  0.00D+00 EMaxC= 1.00D-01 BMatC= 9.36D-12 BMatP= 7.61D-11
 IDIUse=1 WtCom= 1.00D+00 WtEn= 0.00D+00
 Coeff-Com: -0.566D-03 0.485D-03-0.165D-02-0.146D-02 0.215D-02 0.134D-01
 Coeff-Com:  0.131D-01-0.568D-01-0.115D+00 0.150D+00 0.996D+00
 Coeff:     -0.566D-03 0.485D-03-0.165D-02-0.146D-02 0.215D-02 0.134D-01
 Coeff:      0.131D-01-0.568D-01-0.115D+00 0.150D+00 0.996D+00
 Gap=     0.151 Goal=   None    Shift=    0.000
 RMSDP=2.60D-08 MaxDP=7.64D-07 DE=-1.32D-10 OVMax= 5.54D-06

 Cycle  21  Pass 1  IDiag  1:
 E= -526.624153098800     Delta-E=       -0.000000000017 Rises=F Damp=F
 DIIS: error= 1.38D-07 at cycle  12 NSaved=  12.
 NSaved=12 IEnMin=12 EnMin= -526.624153098800     IErMin=12 ErrMin= 1.38D-07
 ErrMax= 1.38D-07  0.00D+00 EMaxC= 1.00D-01 BMatC= 3.42D-12 BMatP= 9.36D-12
 IDIUse=1 WtCom= 1.00D+00 WtEn= 0.00D+00
 Coeff-Com:  0.452D-04 0.178D-03-0.433D-03-0.208D-02-0.366D-02 0.653D-02
 Coeff-Com:  0.243D-01-0.226D-01-0.107D+00-0.598D-01 0.297D+00 0.867D+00
 Coeff:      0.452D-04 0.178D-03-0.433D-03-0.208D-02-0.366D-02 0.653D-02
 Coeff:      0.243D-01-0.226D-01-0.107D+00-0.598D-01 0.297D+00 0.867D+00
 Gap=     0.151 Goal=   None    Shift=    0.000
 RMSDP=1.17D-08 MaxDP=2.78D-07 DE=-1.69D-11 OVMax= 1.91D-06

 Cycle  22  Pass 1  IDiag  1:
 E= -526.624153098827     Delta-E=       -0.000000000028 Rises=F Damp=F
 DIIS: error= 4.96D-08 at cycle  13 NSaved=  13.
 NSaved=13 IEnMin=13 EnMin= -526.624153098827     IErMin=13 ErrMin= 4.96D-08
 ErrMax= 4.96D-08  0.00D+00 EMaxC= 1.00D-01 BMatC= 3.72D-13 BMatP= 3.42D-12
 IDIUse=1 WtCom= 1.00D+00 WtEn= 0.00D+00
 Coeff-Com:  0.859D-04-0.866D-05 0.104D-03-0.573D-03-0.195D-02 0.709D-03
 Coeff-Com:  0.859D-02-0.114D-02-0.303D-01-0.531D-01-0.327D-01 0.372D+00
 Coeff-Com:  0.738D+00
 Coeff:      0.859D-04-0.866D-05 0.104D-03-0.573D-03-0.195D-02 0.709D-03
 Coeff:      0.859D-02-0.114D-02-0.303D-01-0.531D-01-0.327D-01 0.372D+00
 Coeff:      0.738D+00
 Gap=     0.151 Goal=   None    Shift=    0.000
 RMSDP=3.88D-09 MaxDP=9.66D-08 DE=-2.75D-11 OVMax= 6.76D-07

 SCF Done:  E(RM062X) =  -526.624153099     A.U. after   22 cycles
            NFock= 22  Conv=0.39D-08     -V/T= 2.0035
 KE= 5.247798034846D+02 PE=-1.873320795786D+03 EE= 5.088202269688D+02
 Leave Link  502 at Sun May 25 05:34:54 2025, MaxMem=  3758096384 cpu:              56.2 elap:              11.8
 (Enter /apps/easybuild-2022/easybuild/software/Compiler/NVHPC/22.11-CUDA-11.7.0/Gaussian/g16c01-CUDA-11.7.0/g16/l508.exe)
 QCSCF skips out because SCF is already converged.
 Leave Link  508 at Sun May 25 05:34:54 2025, MaxMem=  3758096384 cpu:               0.0 elap:               0.0
 (Enter /apps/easybuild-2022/easybuild/software/Compiler/NVHPC/22.11-CUDA-11.7.0/Gaussian/g16c01-CUDA-11.7.0/g16/l801.exe)
 DoSCS=F DFT=T ScalE2(SS,OS)=  1.000000  1.000000
 Range of M.O.s used for correlation:     1   231
 NBasis=   231 NAE=    28 NBE=    28 NFC=     0 NFV=     0
 NROrb=    231 NOA=    28 NOB=    28 NVA=   203 NVB=   203

 **** Warning!!: The largest alpha MO coefficient is  0.17345144D+02

 Leave Link  801 at Sun May 25 05:34:54 2025, MaxMem=  3758096384 cpu:               0.0 elap:               0.0
 (Enter /apps/easybuild-2022/easybuild/software/Compiler/NVHPC/22.11-CUDA-11.7.0/Gaussian/g16c01-CUDA-11.7.0/g16/l1101.exe)
 Using compressed storage, NAtomX=     8.
 Will process      9 centers per pass.
   1 Symmetry operations used in ECPInt.
 ECPInt:  NShTT=    3486 NPrTT=   11183 LenC2=    3330 LenP2D=    8351.
 LDataN:  DoStor=T MaxTD1= 7 Len=  274
 Leave Link 1101 at Sun May 25 05:34:54 2025, MaxMem=  3758096384 cpu:               0.5 elap:               0.1
 (Enter /apps/easybuild-2022/easybuild/software/Compiler/NVHPC/22.11-CUDA-11.7.0/Gaussian/g16c01-CUDA-11.7.0/g16/l1102.exe)
 Symmetrizing basis deriv contribution to polar:
 IMax=3 JMax=2 DiffMx= 0.00D+00
 Leave Link 1102 at Sun May 25 05:34:54 2025, MaxMem=  3758096384 cpu:               0.1 elap:               0.0
 (Enter /apps/easybuild-2022/easybuild/software/Compiler/NVHPC/22.11-CUDA-11.7.0/Gaussian/g16c01-CUDA-11.7.0/g16/l1110.exe)
 Forming Gx(P) for the SCF density, NAtomX=     8.
 Integral derivatives from FoFJK, PRISM(SPDF).
 Do as many integral derivatives as possible in FoFJK.
 G2DrvN: MDV=    3758095440.
 G2DrvN: will do     9 centers at a time, making    1 passes.
 Calling FoFCou, ICntrl=  3107 FMM=F I1Cent=   0 AccDes= 0.00D+00.
 FoFJK:  IHMeth= 1 ICntrl=    3107 DoSepK=F KAlg= 0 I1Cent=           0 FoldK=F
 IRaf=         0 NMat=       1 IRICut=       1 DoRegI=T DoRafI=F ISym2E= 0 IDoP0=0 IntGTp=1.
 FoFCou: FMM=F IPFlag=           0 FMFlag=      100000 FMFlg1=           0
         NFxFlg=           0 DoJE=F BraDBF=F KetDBF=F FulRan=T
         wScrn=  0.000000 ICntrl=      3107 IOpCl=  0 I1Cent=           0 NGrid=           0
         NMat0=    1 NMatS0=      1 NMatT0=    0 NMatD0=    1 NMtDS0=    0 NMtDT0=    0
 Symmetry not used in FoFCou.
 End of G2Drv F.D. properties file   721 does not exist.
 End of G2Drv F.D. properties file   722 does not exist.
 End of G2Drv F.D. properties file   788 does not exist.
 Leave Link 1110 at Sun May 25 05:35:05 2025, MaxMem=  3758096384 cpu:              85.2 elap:              10.8
 (Enter /apps/easybuild-2022/easybuild/software/Compiler/NVHPC/22.11-CUDA-11.7.0/Gaussian/g16c01-CUDA-11.7.0/g16/l1002.exe)
 Minotr:  Closed shell wavefunction.
          IDoAtm=11111111
          Direct CPHF calculation.
          Differentiating once with respect to electric field.
                with respect to dipole field.
          Differentiating once with respect to nuclear coordinates.
          Requested convergence is 1.0D-08 RMS, and 1.0D-07 maximum.
          Secondary convergence is 1.0D-12 RMS, and 1.0D-12 maximum.
          NewPWx=T KeepS1=F KeepF1=F KeepIn=T MapXYZ=F SortEE=F KeepMc=T.
         2392 words used for storage of precomputed grid.
 Keep R1 ints in memory in canonical form, NReq=368655224.
 FoFCou: FMM=F IPFlag=           0 FMFlag=           0 FMFlg1=           0
         NFxFlg=           0 DoJE=F BraDBF=F KetDBF=F FulRan=T
         wScrn=  0.000000 ICntrl=       600 IOpCl=  0 I1Cent=           0 NGrid=           0
         NMat0=    1 NMatS0=  26796 NMatT0=    0 NMatD0=    1 NMtDS0=    0 NMtDT0=    0
 Symmetry not used in FoFCou.
 Two-electron integral symmetry not used.
          MDV=    3758096384 using IRadAn=       1.
          Solving linear equations simultaneously, MaxMat=       0.
          There are    27 degrees of freedom in the 1st order CPHF.  IDoFFX=6 NUNeed=     3.
     24 vectors produced by pass  0 Test12= 2.11D-14 3.70D-09 XBig12= 8.44D+01 8.48D+00.
 AX will form    24 AO Fock derivatives at one time.
     24 vectors produced by pass  1 Test12= 2.11D-14 3.70D-09 XBig12= 3.00D+01 1.54D+00.
     24 vectors produced by pass  2 Test12= 2.11D-14 3.70D-09 XBig12= 1.34D+00 2.33D-01.
     24 vectors produced by pass  3 Test12= 2.11D-14 3.70D-09 XBig12= 2.98D-02 3.44D-02.
     24 vectors produced by pass  4 Test12= 2.11D-14 3.70D-09 XBig12= 2.68D-04 2.53D-03.
     24 vectors produced by pass  5 Test12= 2.11D-14 3.70D-09 XBig12= 2.07D-06 1.58D-04.
     24 vectors produced by pass  6 Test12= 2.11D-14 3.70D-09 XBig12= 1.72D-08 2.00D-05.
     11 vectors produced by pass  7 Test12= 2.11D-14 3.70D-09 XBig12= 9.79D-11 1.43D-06.
      3 vectors produced by pass  8 Test12= 2.11D-14 3.70D-09 XBig12= 3.92D-13 8.16D-08.
      2 vectors produced by pass  9 Test12= 2.11D-14 3.70D-09 XBig12= 1.86D-15 5.05D-09.
 InvSVY:  IOpt=1 It=  1 EMax= 8.88D-15
 Solved reduced A of dimension   184 with    27 vectors.
 FullF1:  Do perturbations      1 to       3.
 Isotropic polarizability for W=    0.000000       52.92 Bohr**3.
 End of Minotr F.D. properties file   721 does not exist.
 End of Minotr F.D. properties file   722 does not exist.
 End of Minotr F.D. properties file   788 does not exist.
 Leave Link 1002 at Sun May 25 05:35:22 2025, MaxMem=  3758096384 cpu:             133.6 elap:              17.0
 (Enter /apps/easybuild-2022/easybuild/software/Compiler/NVHPC/22.11-CUDA-11.7.0/Gaussian/g16c01-CUDA-11.7.0/g16/l701.exe)
 ... and contract with generalized density number  0.
 Compute integral second derivatives.
   1 Symmetry operations used in ECPInt.
 ECPInt:  NShTT=    3486 NPrTT=   11183 LenC2=    3330 LenP2D=    8351.
 LDataN:  DoStor=T MaxTD1= 8 Len=  415
 Leave Link  701 at Sun May 25 05:35:22 2025, MaxMem=  3758096384 cpu:               0.6 elap:               0.1
 (Enter /apps/easybuild-2022/easybuild/software/Compiler/NVHPC/22.11-CUDA-11.7.0/Gaussian/g16c01-CUDA-11.7.0/g16/l702.exe)
 L702 exits ... SP integral derivatives will be done elsewhere.
 Leave Link  702 at Sun May 25 05:35:22 2025, MaxMem=  3758096384 cpu:               0.0 elap:               0.0
 (Enter /apps/easybuild-2022/easybuild/software/Compiler/NVHPC/22.11-CUDA-11.7.0/Gaussian/g16c01-CUDA-11.7.0/g16/l703.exe)
 Integral derivatives from FoFJK, PRISM(SPDF).
 Compute integral second derivatives, UseDBF=F ICtDFT=           0.
 Calling FoFJK, ICntrl=    100127 FMM=F ISym2X=0 I1Cent= 0 IOpClX= 0 NMat=1 NMatS=1 NMatT=0.
 FoFJK:  IHMeth= 1 ICntrl=  100127 DoSepK=F KAlg= 0 I1Cent=           0 FoldK=F
 IRaf=         0 NMat=       1 IRICut=       1 DoRegI=T DoRafI=F ISym2E= 0 IDoP0=0 IntGTp=1.
 FoFCou: FMM=F IPFlag=           0 FMFlag=      100000 FMFlg1=         800
         NFxFlg=           0 DoJE=F BraDBF=F KetDBF=F FulRan=T
         wScrn=  0.000000 ICntrl=    100127 IOpCl=  0 I1Cent=           0 NGrid=           0
         NMat0=    1 NMatS0=      1 NMatT0=    0 NMatD0=    1 NMtDS0=    0 NMtDT0=    0
 Symmetry not used in FoFCou.
 Leave Link  703 at Sun May 25 05:35:49 2025, MaxMem=  3758096384 cpu:             210.4 elap:              26.5
 (Enter /apps/easybuild-2022/easybuild/software/Compiler/NVHPC/22.11-CUDA-11.7.0/Gaussian/g16c01-CUDA-11.7.0/g16/l716.exe)
 Dipole        = 2.14558587D+00 2.86888733D+00 1.82108096D-01
 Polarizability= 6.10269269D+01 2.99071774D+01 7.07141055D+01
                 5.95050908D+00 1.20023665D-01 2.70064905D+01
 -------------------------------------------------------------------
 Center     Atomic                   Forces (Hartrees/Bohr)
 Number     Number              X              Y              Z
 -------------------------------------------------------------------
      1        6           0.004797922   -0.000796557    0.001618550
      2        8          -0.000758726    0.002757967    0.000588606
      3        6          -0.005568727   -0.013078245   -0.017596669
      4        9          -0.002262315    0.012821917    0.018622795
      5        9           0.002283498    0.003555035    0.005722413
      6        9           0.001686877   -0.004933478   -0.008032005
      7        8          -0.000321456   -0.000355850   -0.000916586
      8        1           0.000142927    0.000029211   -0.000007104
 -------------------------------------------------------------------
 Cartesian Forces:  Max     0.018622795 RMS     0.007089349
 Force constants in Cartesian coordinates: 
                1             2             3             4             5 
      1  0.637187D+00
      2 -0.106267D+00  0.867270D+00
      3  0.550250D-01 -0.339137D+00  0.357577D+00
      4 -0.224072D+00  0.242399D+00 -0.109192D+00  0.222276D+00
      5  0.222834D+00 -0.580037D+00  0.241304D+00 -0.275341D+00  0.674466D+00
      6 -0.103818D+00  0.243107D+00 -0.187259D+00  0.128173D+00 -0.303023D+00
      7 -0.172750D+00 -0.112934D-01  0.171138D-01 -0.332485D-01  0.458721D-01
      8  0.758299D-02 -0.457509D-01 -0.363695D-02  0.375785D-01 -0.228456D-01
      9 -0.283597D-01 -0.197901D-01 -0.714729D-01 -0.130136D-01  0.182822D-01
     10 -0.331567D-01 -0.354342D-01  0.160011D-01  0.732209D-02 -0.441333D-02
     11 -0.246958D-01 -0.515317D-02 -0.505292D-02  0.101285D-01 -0.263963D-02
     12  0.118275D-01  0.115149D-01  0.678491D-02 -0.319755D-02 -0.850831D-03
     13  0.324966D-02  0.207134D-01 -0.318357D-01 -0.114378D-01  0.387118D-02
     14  0.783014D-02 -0.454021D-02  0.162151D-01  0.747830D-03  0.335413D-02
     15  0.482831D-02  0.167023D-01 -0.855658D-02 -0.472345D-02 -0.906091D-03
     16  0.377528D-02  0.310011D-02 -0.875566D-03 -0.934749D-03 -0.877031D-03
     17  0.105625D-01  0.311950D-02  0.571603D-02 -0.490266D-02  0.161692D-02
     18  0.582411D-02  0.147628D-02  0.191004D-02 -0.244235D-02  0.808523D-03
     19 -0.182271D+00 -0.106944D+00  0.506090D-01  0.366048D-01  0.126060D-02
     20 -0.702475D-01 -0.242020D+00  0.856757D-01 -0.169319D-01 -0.729376D-01
     21  0.321269D-01  0.870482D-01 -0.103239D+00  0.783104D-02  0.463908D-01
     22 -0.319632D-01 -0.627363D-02  0.315471D-02  0.349027D-02  0.679329D-02
     23 -0.475992D-01  0.711158D-02 -0.108336D-02  0.632184D-02 -0.977178D-03
     24  0.225462D-01 -0.920709D-03  0.425603D-02 -0.343447D-02 -0.200502D-02
                6             7             8             9            10 
      6  0.173569D+00
      7 -0.229747D-01  0.709998D+00
      8  0.186036D-01  0.977872D-01  0.507142D+00
      9  0.131608D-01 -0.777339D-02 -0.358092D+00  0.471357D+00
     10  0.230575D-02 -0.295962D+00 -0.193565D+00  0.166626D+00  0.318865D+00
     11  0.134997D-02 -0.197171D+00 -0.261291D+00  0.196441D+00  0.251921D+00
     12 -0.209079D-02  0.145892D+00  0.157344D+00 -0.162780D+00 -0.165290D+00
     13  0.599891D-03 -0.168936D+00  0.930850D-01 -0.129083D+00  0.234429D-01
     14 -0.252210D-02  0.881856D-01 -0.166362D+00  0.157337D+00  0.160977D-02
     15  0.650878D-03 -0.128182D+00  0.176667D+00 -0.248756D+00 -0.132918D-01
     16 -0.105752D-03 -0.236592D-02 -0.495391D-03 -0.934951D-02 -0.101076D-01
     17 -0.201653D-02 -0.950388D-02 -0.606733D-03 -0.116274D-01 -0.202847D-01
     18 -0.665173D-03 -0.101196D-01 -0.129029D-02 -0.709781D-02 -0.682141D-02
     19 -0.986677D-03 -0.369108D-01 -0.401621D-01  0.200402D-01 -0.974003D-02
     20  0.463616D-01 -0.110994D-01 -0.635024D-02  0.132567D-01  0.203597D-02
     21  0.668518D-02  0.560090D-02  0.679902D-02  0.240471D-02 -0.601451D-03
     22 -0.319282D-02  0.175021D-03 -0.181147D-02  0.912560D-03 -0.664238D-03
     23 -0.185977D-02 -0.277713D-02 -0.393620D-02  0.419269D-02 -0.186988D-02
     24 -0.405085D-02  0.442826D-03  0.360555D-02  0.318399D-02  0.107186D-02
               11            12            13            14            15 
     11  0.353520D+00
     12 -0.201017D+00  0.218602D+00
     13 -0.232101D-01  0.184504D-01  0.154597D+00
     14 -0.347392D-01  0.621125D-01 -0.978324D-01  0.205382D+00
     15  0.321802D-01 -0.449965D-01  0.136153D+00 -0.225953D+00  0.289768D+00
     16 -0.206362D-01 -0.828017D-02  0.228678D-02 -0.149937D-02  0.647777D-02
     17 -0.532772D-01 -0.276151D-01  0.496485D-02 -0.537586D-02  0.718182D-02
     18 -0.247761D-01 -0.172457D-01  0.341811D-02 -0.440937D-02  0.881419D-02
     19  0.464550D-02  0.497904D-03 -0.401074D-02  0.517702D-03 -0.129452D-02
     20  0.343202D-02 -0.171317D-02 -0.212116D-02  0.197044D-02 -0.561273D-02
     21 -0.942692D-04  0.178727D-02  0.225398D-02 -0.197939D-02  0.308619D-02
     22 -0.981890D-03  0.100631D-03  0.808649D-03  0.440667D-03  0.327194D-04
     23  0.147716D-03  0.224841D-03  0.529241D-03  0.310526D-03 -0.260220D-03
     24  0.969078D-03 -0.617883D-04  0.438119D-04 -0.801186D-03 -0.956892D-05
               16            17            18            19            20 
     16  0.813590D-02
     17  0.212299D-01  0.551937D-01
     18  0.115359D-01  0.291175D-01  0.142837D-01
     19 -0.120692D-02 -0.258200D-02 -0.165782D-02  0.683576D+00
     20 -0.104439D-02 -0.645417D-03 -0.881612D-03  0.428259D-01  0.368532D+00
     21  0.616494D-03 -0.324924D-03  0.316673D-03 -0.292966D-01 -0.152956D+00
     22  0.417229D-03  0.515961D-03  0.263049D-03 -0.486042D+00  0.565825D-01
     23  0.222406D-03 -0.248985D-04 -0.448630D-04  0.100438D+00 -0.519806D-01
     24 -0.192117D-04 -0.431375D-03 -0.315873D-03 -0.379114D-01  0.158693D-01
               21            22            23            24 
     21  0.109955D+00
     22 -0.185312D-01  0.513778D+00
     23  0.151163D-01 -0.552655D-01  0.493491D-01
     24 -0.209953D-01  0.172603D-01 -0.162857D-01  0.179933D-01
 Leave Link  716 at Sun May 25 05:35:49 2025, MaxMem=  3758096384 cpu:               0.0 elap:               0.0
 (Enter /apps/easybuild-2022/easybuild/software/Compiler/NVHPC/22.11-CUDA-11.7.0/Gaussian/g16c01-CUDA-11.7.0/g16/l103.exe)

 GradGradGradGradGradGradGradGradGradGradGradGradGradGradGradGradGradGrad
 Berny optimization.
 Search for a saddle point.
 Step number   1 out of a maximum of  100
 All quantities printed in internal units (Hartrees-Bohrs-Radians)
 Swapping is turned off.
 Second derivative matrix not updated -- analytic derivatives used.
 ITU=  0
     Eigenvalues ---   -0.00035   0.00086   0.00521   0.01794   0.02518
     Eigenvalues ---    0.05644   0.08020   0.10352   0.14986   0.18199
     Eigenvalues ---    0.27622   0.31239   0.49673   0.76268   1.05094
     Eigenvalues ---    1.12949   1.42979   1.82371
 Eigenvectors required to have negative eigenvalues:
                          X6        Z6        Z8        Z7        Z2
   1                    0.42129  -0.40562  -0.36707  -0.30447   0.28723
                          Z4        Y8        Y6        Y7        Z3
   1                    0.26712  -0.26643   0.25585  -0.21893   0.14511
 RFO step:  Lambda0=7.038844229D-03 Lambda=-9.34648213D-03.
 Linear search not attempted -- option 19 set.
 Maximum step size (   0.300) exceeded in Quadratic search.
    -- Step size scaled by   0.279
 B after Tr=    -0.003330   -0.001892    0.000628
         Rot=    0.999994    0.001394   -0.002749    0.001836 Ang=   0.41 deg.
 Variable       Old X    -DE/DX   Delta X   Delta X   Delta X     New X
                                 (Linear)    (Quad)   (Total)
    X1        3.14414   0.00480   0.00000   0.02262   0.02296   3.16711
    Y1        0.55038  -0.00080   0.00000  -0.00661  -0.01927   0.53111
    Z1        0.35054   0.00162   0.00000  -0.03203  -0.05032   0.30022
    X2        4.02516  -0.00076   0.00000   0.03797   0.03590   4.06105
    Y2       -1.31547   0.00276   0.00000  -0.02643  -0.04010  -1.35557
    Z2        1.23052   0.00059   0.00000  -0.09193  -0.10989   1.12063
    X3        0.33620  -0.00557   0.00000   0.01851   0.01888   0.35508
    Y3        0.88328  -0.01308   0.00000  -0.04218  -0.04507   0.83821
    Z3        0.18574  -0.01760   0.00000  -0.07341  -0.07709   0.10865
    X4       -1.06734  -0.00226   0.00000   0.00516   0.00618  -1.06116
    Y4       -0.64492   0.01282   0.00000   0.01749   0.02285  -0.62207
    Z4        1.21190   0.01862   0.00000  -0.00898  -0.00078   1.21112
    X5       -0.65889   0.00228   0.00000   0.02368   0.01971  -0.63917
    Y5        2.22730   0.00356   0.00000  -0.01011  -0.01412   2.21318
    Z5       -1.55067   0.00572   0.00000  -0.04500  -0.04706  -1.59773
    X6       -2.38018   0.00169   0.00000  -0.10533  -0.12379  -2.50396
    Y6       -3.70866  -0.00493   0.00000  -0.03908  -0.03252  -3.74118
    Z6       -0.35313  -0.00803   0.00000   0.08945   0.11422  -0.23890
    X7        4.31270  -0.00032   0.00000   0.00441   0.00789   4.32059
    Y7        2.55887  -0.00036   0.00000   0.06374   0.04457   2.60344
    Z7       -0.58480  -0.00092   0.00000   0.09340   0.06299  -0.52182
    X8        6.12027   0.00014   0.00000   0.00883   0.01227   6.13254
    Y8        2.29189   0.00003   0.00000   0.10908   0.08365   2.37555
    Z8       -0.49218  -0.00001   0.00000   0.14768   0.10793  -0.38425
         Item               Value     Threshold  Converged?
 Maximum Force            0.018623     0.000450     NO 
 RMS     Force            0.007089     0.000300     NO 
 Maximum Displacement     0.123786     0.001800     NO 
 RMS     Displacement     0.059280     0.001200     NO 
 Predicted change in Energy=-3.700918D-04
 Lowest energy point so far.  Saving SCF results.
 GradGradGradGradGradGradGradGradGradGradGradGradGradGradGradGradGradGrad

 Leave Link  103 at Sun May 25 05:35:49 2025, MaxMem=  3758096384 cpu:               0.0 elap:               0.0
 (Enter /apps/easybuild-2022/easybuild/software/Compiler/NVHPC/22.11-CUDA-11.7.0/Gaussian/g16c01-CUDA-11.7.0/g16/l202.exe)
                          Input orientation:                          
 ---------------------------------------------------------------------
 Center     Atomic      Atomic             Coordinates (Angstroms)
 Number     Number       Type             X           Y           Z
 ---------------------------------------------------------------------
      1          6           0        1.675961    0.281050    0.158870
      2          8           0        2.149018   -0.717337    0.593013
      3          6           0        0.187900    0.443563    0.057497
      4          9           0       -0.561544   -0.329184    0.640899
      5          9           0       -0.338237    1.171163   -0.845481
      6          9           0       -1.325040   -1.979748   -0.126421
      7          8           0        2.286357    1.377683   -0.276134
      8          1           0        3.245202    1.257086   -0.203335
 ---------------------------------------------------------------------
                    Distance matrix (angstroms):
                    1          2          3          4          5
     1  C    0.000000
     2  O    1.187029   0.000000
     3  C    1.500337   2.341035   0.000000
     4  F    2.368790   2.738631   1.224403   0.000000
     5  F    2.420334   3.438333   1.273417   2.123731   0.000000
     6  F    3.768103   3.765680   2.862734   1.973846   3.379211
     7  O    1.328313   2.272309   2.321080   3.444544   2.693566
     8  H    1.883177   2.394605   3.174421   4.209548   3.641534
                    6          7          8
     6  F    0.000000
     7  O    4.933249   0.000000
     8  H    5.600903   0.969137   0.000000
 Symmetry turned off by external request.
 Stoichiometry    C2HF3O2
 Rotational constants (GHZ):           4.1942971           1.7614949           1.3360300
 Leave Link  202 at Sun May 25 05:35:49 2025, MaxMem=  3758096384 cpu:               0.0 elap:               0.0
 (Enter /apps/easybuild-2022/easybuild/software/Compiler/NVHPC/22.11-CUDA-11.7.0/Gaussian/g16c01-CUDA-11.7.0/g16/l301.exe)
 Standard basis: def2TZVPP (5D, 7F)
 Ernie: Thresh=  0.10000D-02 Tol=  0.10000D-05 Strict=F.
   231 basis functions,   374 primitive gaussians,   267 cartesian basis functions
    28 alpha electrons       28 beta electrons
       nuclear repulsion energy       311.8657565724 Hartrees.
 IExCor= 4336 DFT=T Ex+Corr=M062X ExCW=0 ScaHFX=  0.540000
 ScaDFX=  1.000000  1.000000  1.000000  1.000000 ScalE2=  1.000000  1.000000
 IRadAn=      5 IRanWt=     -1 IRanGd=            0 ICorTp=0 IEmpDi=  4
 NAtoms=    8 NActive=    8 NUniq=    8 SFac= 1.00D+00 NAtFMM=   60 NAOKFM=F Big=F
 Integral buffers will be    131072 words long.
 Raffenetti 2 integral format.
 Two-electron integral symmetry is turned off.
 Leave Link  301 at Sun May 25 05:35:49 2025, MaxMem=  3758096384 cpu:               0.0 elap:               0.0
 (Enter /apps/easybuild-2022/easybuild/software/Compiler/NVHPC/22.11-CUDA-11.7.0/Gaussian/g16c01-CUDA-11.7.0/g16/l302.exe)
 NPDir=0 NMtPBC=     1 NCelOv=     1 NCel=       1 NClECP=     1 NCelD=      1
         NCelK=      1 NCelE2=     1 NClLst=     1 CellRange=     0.0.
 One-electron integrals computed using PRISM.
   1 Symmetry operations used in ECPInt.
 ECPInt:  NShTT=    3486 NPrTT=   11183 LenC2=    3324 LenP2D=    8333.
 LDataN:  DoStor=T MaxTD1= 6 Len=  172
 NBasis=   231 RedAO= T EigKep=  4.07D-04  NBF=   231
 NBsUse=   231 1.00D-06 EigRej= -1.00D+00 NBFU=   231
 Precomputing XC quadrature grid using
 IXCGrd= 4 IRadAn=           5 IRanWt=          -1 IRanGd=           0 AccXCQ= 0.00D+00.
 Generated NRdTot=       0 NPtTot=           0 NUsed=           0 NTot=          32
 NSgBfM=   265   265   265   265   265 MxSgAt=     8 MxSgA2=     8.
 Leave Link  302 at Sun May 25 05:35:49 2025, MaxMem=  3758096384 cpu:               0.4 elap:               0.1
 (Enter /apps/easybuild-2022/easybuild/software/Compiler/NVHPC/22.11-CUDA-11.7.0/Gaussian/g16c01-CUDA-11.7.0/g16/l303.exe)
 DipDrv:  MaxL=1.
 Leave Link  303 at Sun May 25 05:35:49 2025, MaxMem=  3758096384 cpu:               0.1 elap:               0.0
 (Enter /apps/easybuild-2022/easybuild/software/Compiler/NVHPC/22.11-CUDA-11.7.0/Gaussian/g16c01-CUDA-11.7.0/g16/l401.exe)
 Initial guess from the checkpoint file:  "1141903082400600000001_r12_insertion_R_4_3_6.chk"
 B after Tr=    -0.005152   -0.002856    0.001031
         Rot=    0.999984    0.002228   -0.004274    0.002881 Ang=   0.64 deg.
 Guess basis will be translated and rotated to current coordinates.
 JPrj=2 DoOrth=T DoCkMO=T.
 Generating alternative initial guess.
 ExpMin= 9.52D-02 ExpMax= 3.55D+04 ExpMxC= 1.21D+03 IAcc=3 IRadAn=         5 AccDes= 0.00D+00
 Harris functional with IExCor= 1009 and IRadAn=       5 diagonalized for initial guess.
 HarFok:  IExCor= 1009 AccDes= 0.00D+00 IRadAn=         5 IDoV= 1 UseB2=F ITyADJ=14
 ICtDFT=  3500011 ScaDFX=  1.000000  1.000000  1.000000  1.000000
 FoFCou: FMM=F IPFlag=           0 FMFlag=      100000 FMFlg1=           0
         NFxFlg=           0 DoJE=T BraDBF=F KetDBF=T FulRan=T
         wScrn=  0.000000 ICntrl=       500 IOpCl=  0 I1Cent=   200000004 NGrid=           0
         NMat0=    1 NMatS0=      1 NMatT0=    0 NMatD0=    1 NMtDS0=    0 NMtDT0=    0
 Symmetry not used in FoFCou.
 Harris En= -526.486520031918    
 Leave Link  401 at Sun May 25 05:35:49 2025, MaxMem=  3758096384 cpu:               1.7 elap:               0.3
 (Enter /apps/easybuild-2022/easybuild/software/Compiler/NVHPC/22.11-CUDA-11.7.0/Gaussian/g16c01-CUDA-11.7.0/g16/l502.exe)
 Keep R1 ints in memory in canonical form, NReq=368651263.
 FoFCou: FMM=F IPFlag=           0 FMFlag=           0 FMFlg1=           0
         NFxFlg=           0 DoJE=F BraDBF=F KetDBF=F FulRan=T
         wScrn=  0.000000 ICntrl=       600 IOpCl=  0 I1Cent=           0 NGrid=           0
         NMat0=    1 NMatS0=  26796 NMatT0=    0 NMatD0=    1 NMtDS0=    0 NMtDT0=    0
 Symmetry not used in FoFCou.
 Two-electron integral symmetry not used.
 Closed shell SCF:
 Using DIIS extrapolation, IDIIS=  1040.
 NGot=  3758096384 LenX=  3398923547 LenY=  3398851817
 Requested convergence on RMS density matrix=1.00D-08 within  32 cycles.
 Requested convergence on MAX density matrix=1.00D-06.
 Requested convergence on             energy=1.00D-06.
 No special actions if energy rises.
 Integral accuracy reduced to 1.0D-05 until final iterations.

 Cycle   1  Pass 0  IDiag  1:
 E= -526.620603656407    
 DIIS: error= 3.21D-03 at cycle   1 NSaved=   1.
 NSaved= 1 IEnMin= 1 EnMin= -526.620603656407     IErMin= 1 ErrMin= 3.21D-03
 ErrMax= 3.21D-03  0.00D+00 EMaxC= 1.00D-01 BMatC= 2.79D-03 BMatP= 2.79D-03
 IDIUse=3 WtCom= 9.68D-01 WtEn= 3.21D-02
 Coeff-Com:  0.100D+01
 Coeff-En:   0.100D+01
 Coeff:      0.100D+01
 Gap=     0.944 Goal=   None    Shift=    0.000
 GapD=    0.944 DampG=2.000 DampE=1.000 DampFc=2.0000 IDamp=-1.
 RMSDP=3.07D-04 MaxDP=1.17D-02              OVMax= 1.58D-02

 Cycle   2  Pass 0  IDiag  1:
 E= -526.624282021080     Delta-E=       -0.003678364673 Rises=F Damp=F
 DIIS: error= 6.04D-04 at cycle   2 NSaved=   2.
 NSaved= 2 IEnMin= 2 EnMin= -526.624282021080     IErMin= 2 ErrMin= 6.04D-04
 ErrMax= 6.04D-04  0.00D+00 EMaxC= 1.00D-01 BMatC= 1.02D-04 BMatP= 2.79D-03
 IDIUse=3 WtCom= 9.94D-01 WtEn= 6.04D-03
 Coeff-Com: -0.139D+00 0.114D+01
 Coeff-En:   0.000D+00 0.100D+01
 Coeff:     -0.139D+00 0.114D+01
 Gap=     0.145 Goal=   None    Shift=    0.000
 RMSDP=8.52D-05 MaxDP=2.41D-03 DE=-3.68D-03 OVMax= 9.25D-03

 Cycle   3  Pass 0  IDiag  1:
 E= -526.624407007318     Delta-E=       -0.000124986238 Rises=F Damp=F
 DIIS: error= 1.11D-03 at cycle   3 NSaved=   3.
 NSaved= 3 IEnMin= 3 EnMin= -526.624407007318     IErMin= 2 ErrMin= 6.04D-04
 ErrMax= 1.11D-03  0.00D+00 EMaxC= 1.00D-01 BMatC= 1.36D-04 BMatP= 1.02D-04
 IDIUse=3 WtCom= 2.31D-01 WtEn= 7.69D-01
 Coeff-Com: -0.993D-01 0.733D+00 0.367D+00
 Coeff-En:   0.000D+00 0.000D+00 0.100D+01
 Coeff:     -0.229D-01 0.169D+00 0.854D+00
 Gap=     0.152 Goal=   None    Shift=    0.000
 RMSDP=1.23D-04 MaxDP=4.45D-03 DE=-1.25D-04 OVMax= 2.43D-02

 Cycle   4  Pass 0  IDiag  1:
 E= -526.623936448195     Delta-E=        0.000470559122 Rises=F Damp=F
 DIIS: error= 2.93D-03 at cycle   4 NSaved=   4.
 NSaved= 4 IEnMin= 3 EnMin= -526.624407007318     IErMin= 2 ErrMin= 6.04D-04
 ErrMax= 2.93D-03  0.00D+00 EMaxC= 1.00D-01 BMatC= 7.40D-04 BMatP= 1.02D-04
 IDIUse=3 WtCom= 1.56D-01 WtEn= 8.44D-01
 Coeff-Com: -0.243D-01 0.951D-01 0.661D+00 0.268D+00
 Coeff-En:   0.000D+00 0.000D+00 0.765D+00 0.235D+00
 Coeff:     -0.379D-02 0.148D-01 0.749D+00 0.240D+00
 Gap=     0.148 Goal=   None    Shift=    0.000
 RMSDP=6.96D-05 MaxDP=2.52D-03 DE= 4.71D-04 OVMax= 1.39D-02

 Cycle   5  Pass 0  IDiag  1:
 E= -526.624499591695     Delta-E=       -0.000563143500 Rises=F Damp=F
 DIIS: error= 5.22D-04 at cycle   5 NSaved=   5.
 NSaved= 5 IEnMin= 5 EnMin= -526.624499591695     IErMin= 5 ErrMin= 5.22D-04
 ErrMax= 5.22D-04  0.00D+00 EMaxC= 1.00D-01 BMatC= 3.61D-05 BMatP= 1.02D-04
 IDIUse=3 WtCom= 9.95D-01 WtEn= 5.22D-03
 Coeff-Com:  0.647D-02-0.102D+00 0.397D+00 0.403D-01 0.658D+00
 Coeff-En:   0.000D+00 0.000D+00 0.235D+00 0.000D+00 0.765D+00
 Coeff:      0.644D-02-0.101D+00 0.396D+00 0.401D-01 0.658D+00
 Gap=     0.147 Goal=   None    Shift=    0.000
 RMSDP=1.83D-05 MaxDP=6.33D-04 DE=-5.63D-04 OVMax= 3.23D-03

 Cycle   6  Pass 0  IDiag  1:
 E= -526.624529620948     Delta-E=       -0.000030029253 Rises=F Damp=F
 DIIS: error= 2.88D-05 at cycle   6 NSaved=   6.
 NSaved= 6 IEnMin= 6 EnMin= -526.624529620948     IErMin= 6 ErrMin= 2.88D-05
 ErrMax= 2.88D-05  0.00D+00 EMaxC= 1.00D-01 BMatC= 4.08D-07 BMatP= 3.61D-05
 IDIUse=1 WtCom= 1.00D+00 WtEn= 0.00D+00
 Coeff-Com:  0.529D-02-0.505D-01 0.702D-01-0.232D-01 0.261D+00 0.737D+00
 Coeff:      0.529D-02-0.505D-01 0.702D-01-0.232D-01 0.261D+00 0.737D+00
 Gap=     0.147 Goal=   None    Shift=    0.000
 RMSDP=4.22D-06 MaxDP=1.02D-04 DE=-3.00D-05 OVMax= 6.70D-04

 Initial convergence to 1.0D-05 achieved.  Increase integral accuracy.
 Cycle   7  Pass 1  IDiag  1:
 E= -526.624503879235     Delta-E=        0.000025741713 Rises=F Damp=F
 DIIS: error= 4.59D-05 at cycle   1 NSaved=   1.
 NSaved= 1 IEnMin= 1 EnMin= -526.624503879235     IErMin= 1 ErrMin= 4.59D-05
 ErrMax= 4.59D-05  0.00D+00 EMaxC= 1.00D-01 BMatC= 6.04D-07 BMatP= 6.04D-07
 IDIUse=1 WtCom= 1.00D+00 WtEn= 0.00D+00
 Coeff-Com:  0.100D+01
 Coeff:      0.100D+01
 Gap=     0.147 Goal=   None    Shift=    0.000
 RMSDP=4.22D-06 MaxDP=1.02D-04 DE= 2.57D-05 OVMax= 5.71D-04

 Cycle   8  Pass 1  IDiag  1:
 E= -526.624504523536     Delta-E=       -0.000000644301 Rises=F Damp=F
 DIIS: error= 2.48D-05 at cycle   2 NSaved=   2.
 NSaved= 2 IEnMin= 2 EnMin= -526.624504523536     IErMin= 2 ErrMin= 2.48D-05
 ErrMax= 2.48D-05  0.00D+00 EMaxC= 1.00D-01 BMatC= 2.61D-07 BMatP= 6.04D-07
 IDIUse=1 WtCom= 1.00D+00 WtEn= 0.00D+00
 Coeff-Com:  0.340D+00 0.660D+00
 Coeff:      0.340D+00 0.660D+00
 Gap=     0.147 Goal=   None    Shift=    0.000
 RMSDP=2.80D-06 MaxDP=8.10D-05 DE=-6.44D-07 OVMax= 3.66D-04

 Cycle   9  Pass 1  IDiag  1:
 E= -526.624504655534     Delta-E=       -0.000000131998 Rises=F Damp=F
 DIIS: error= 3.83D-05 at cycle   3 NSaved=   3.
 NSaved= 3 IEnMin= 3 EnMin= -526.624504655534     IErMin= 2 ErrMin= 2.48D-05
 ErrMax= 3.83D-05  0.00D+00 EMaxC= 1.00D-01 BMatC= 2.15D-07 BMatP= 2.61D-07
 IDIUse=1 WtCom= 1.00D+00 WtEn= 0.00D+00
 Coeff-Com: -0.258D-01 0.477D+00 0.549D+00
 Coeff:     -0.258D-01 0.477D+00 0.549D+00
 Gap=     0.147 Goal=   None    Shift=    0.000
 RMSDP=2.18D-06 MaxDP=6.38D-05 DE=-1.32D-07 OVMax= 3.86D-04

 Cycle  10  Pass 1  IDiag  1:
 E= -526.624504822178     Delta-E=       -0.000000166644 Rises=F Damp=F
 DIIS: error= 2.91D-05 at cycle   4 NSaved=   4.
 NSaved= 4 IEnMin= 4 EnMin= -526.624504822178     IErMin= 2 ErrMin= 2.48D-05
 ErrMax= 2.91D-05  0.00D+00 EMaxC= 1.00D-01 BMatC= 8.15D-08 BMatP= 2.15D-07
 IDIUse=1 WtCom= 1.00D+00 WtEn= 0.00D+00
 Coeff-Com: -0.516D-01 0.294D+00 0.428D+00 0.330D+00
 Coeff:     -0.516D-01 0.294D+00 0.428D+00 0.330D+00
 Gap=     0.147 Goal=   None    Shift=    0.000
 RMSDP=1.13D-06 MaxDP=4.64D-05 DE=-1.67D-07 OVMax= 1.90D-04

 Cycle  11  Pass 1  IDiag  1:
 E= -526.624504906962     Delta-E=       -0.000000084783 Rises=F Damp=F
 DIIS: error= 4.88D-06 at cycle   5 NSaved=   5.
 NSaved= 5 IEnMin= 5 EnMin= -526.624504906962     IErMin= 5 ErrMin= 4.88D-06
 ErrMax= 4.88D-06  0.00D+00 EMaxC= 1.00D-01 BMatC= 6.00D-09 BMatP= 8.15D-08
 IDIUse=1 WtCom= 1.00D+00 WtEn= 0.00D+00
 Coeff-Com: -0.147D-01-0.809D-01-0.558D-01 0.889D-01 0.106D+01
 Coeff:     -0.147D-01-0.809D-01-0.558D-01 0.889D-01 0.106D+01
 Gap=     0.147 Goal=   None    Shift=    0.000
 RMSDP=1.24D-06 MaxDP=3.12D-05 DE=-8.48D-08 OVMax= 2.85D-04

 Cycle  12  Pass 1  IDiag  1:
 E= -526.624504956149     Delta-E=       -0.000000049187 Rises=F Damp=F
 DIIS: error= 3.28D-06 at cycle   6 NSaved=   6.
 NSaved= 6 IEnMin= 6 EnMin= -526.624504956149     IErMin= 6 ErrMin= 3.28D-06
 ErrMax= 3.28D-06  0.00D+00 EMaxC= 1.00D-01 BMatC= 3.65D-09 BMatP= 6.00D-09
 IDIUse=1 WtCom= 1.00D+00 WtEn= 0.00D+00
 Coeff-Com:  0.154D-01-0.202D+00-0.260D+00-0.105D+00 0.716D+00 0.835D+00
 Coeff:      0.154D-01-0.202D+00-0.260D+00-0.105D+00 0.716D+00 0.835D+00
 Gap=     0.147 Goal=   None    Shift=    0.000
 RMSDP=1.18D-06 MaxDP=2.86D-05 DE=-4.92D-08 OVMax= 2.74D-04

 Cycle  13  Pass 1  IDiag  1:
 E= -526.624504983256     Delta-E=       -0.000000027107 Rises=F Damp=F
 DIIS: error= 2.04D-06 at cycle   7 NSaved=   7.
 NSaved= 7 IEnMin= 7 EnMin= -526.624504983256     IErMin= 7 ErrMin= 2.04D-06
 ErrMax= 2.04D-06  0.00D+00 EMaxC= 1.00D-01 BMatC= 6.08D-10 BMatP= 3.65D-09
 IDIUse=1 WtCom= 1.00D+00 WtEn= 0.00D+00
 Coeff-Com:  0.147D-02 0.458D-01 0.339D-01 0.212D-01-0.415D+00-0.529D-01
 Coeff-Com:  0.137D+01
 Coeff:      0.147D-02 0.458D-01 0.339D-01 0.212D-01-0.415D+00-0.529D-01
 Coeff:      0.137D+01
 Gap=     0.147 Goal=   None    Shift=    0.000
 RMSDP=7.63D-07 MaxDP=2.01D-05 DE=-2.71D-08 OVMax= 1.83D-04

 Cycle  14  Pass 1  IDiag  1:
 E= -526.624504991100     Delta-E=       -0.000000007844 Rises=F Damp=F
 DIIS: error= 6.11D-07 at cycle   8 NSaved=   8.
 NSaved= 8 IEnMin= 8 EnMin= -526.624504991100     IErMin= 8 ErrMin= 6.11D-07
 ErrMax= 6.11D-07  0.00D+00 EMaxC= 1.00D-01 BMatC= 1.46D-10 BMatP= 6.08D-10
 IDIUse=1 WtCom= 1.00D+00 WtEn= 0.00D+00
 Coeff-Com: -0.372D-02 0.597D-01 0.740D-01 0.253D-01-0.278D+00-0.191D+00
 Coeff-Com:  0.406D+00 0.908D+00
 Coeff:     -0.372D-02 0.597D-01 0.740D-01 0.253D-01-0.278D+00-0.191D+00
 Coeff:      0.406D+00 0.908D+00
 Gap=     0.147 Goal=   None    Shift=    0.000
 RMSDP=2.51D-07 MaxDP=6.51D-06 DE=-7.84D-09 OVMax= 5.91D-05

 Cycle  15  Pass 1  IDiag  1:
 E= -526.624504992211     Delta-E=       -0.000000001111 Rises=F Damp=F
 DIIS: error= 3.90D-07 at cycle   9 NSaved=   9.
 NSaved= 9 IEnMin= 9 EnMin= -526.624504992211     IErMin= 9 ErrMin= 3.90D-07
 ErrMax= 3.90D-07  0.00D+00 EMaxC= 1.00D-01 BMatC= 6.27D-11 BMatP= 1.46D-10
 IDIUse=1 WtCom= 1.00D+00 WtEn= 0.00D+00
 Coeff-Com: -0.169D-02 0.121D-01 0.254D-01-0.278D-02 0.911D-02-0.723D-01
 Coeff-Com: -0.276D+00 0.463D+00 0.843D+00
 Coeff:     -0.169D-02 0.121D-01 0.254D-01-0.278D-02 0.911D-02-0.723D-01
 Coeff:     -0.276D+00 0.463D+00 0.843D+00
 Gap=     0.147 Goal=   None    Shift=    0.000
 RMSDP=1.46D-07 MaxDP=3.49D-06 DE=-1.11D-09 OVMax= 3.35D-05

 Cycle  16  Pass 1  IDiag  1:
 E= -526.624504992507     Delta-E=       -0.000000000297 Rises=F Damp=F
 DIIS: error= 8.10D-08 at cycle  10 NSaved=  10.
 NSaved=10 IEnMin=10 EnMin= -526.624504992507     IErMin=10 ErrMin= 8.10D-08
 ErrMax= 8.10D-08  0.00D+00 EMaxC= 1.00D-01 BMatC= 4.21D-12 BMatP= 6.27D-11
 IDIUse=1 WtCom= 1.00D+00 WtEn= 0.00D+00
 Coeff-Com:  0.540D-04-0.741D-02-0.678D-02-0.482D-02 0.505D-01 0.179D-01
 Coeff-Com: -0.135D+00-0.827D-01 0.177D+00 0.992D+00
 Coeff:      0.540D-04-0.741D-02-0.678D-02-0.482D-02 0.505D-01 0.179D-01
 Coeff:     -0.135D+00-0.827D-01 0.177D+00 0.992D+00
 Gap=     0.147 Goal=   None    Shift=    0.000
 RMSDP=5.05D-08 MaxDP=1.26D-06 DE=-2.97D-10 OVMax= 1.13D-05

 Cycle  17  Pass 1  IDiag  1:
 E= -526.624504992554     Delta-E=       -0.000000000046 Rises=F Damp=F
 DIIS: error= 3.29D-08 at cycle  11 NSaved=  11.
 NSaved=11 IEnMin=11 EnMin= -526.624504992554     IErMin=11 ErrMin= 3.29D-08
 ErrMax= 3.29D-08  0.00D+00 EMaxC= 1.00D-01 BMatC= 6.14D-13 BMatP= 4.21D-12
 IDIUse=1 WtCom= 1.00D+00 WtEn= 0.00D+00
 Coeff-Com:  0.211D-03-0.383D-02-0.508D-02-0.108D-02 0.175D-01 0.131D-01
 Coeff-Com: -0.258D-01-0.723D-01-0.700D-02 0.334D+00 0.750D+00
 Coeff:      0.211D-03-0.383D-02-0.508D-02-0.108D-02 0.175D-01 0.131D-01
 Coeff:     -0.258D-01-0.723D-01-0.700D-02 0.334D+00 0.750D+00
 Gap=     0.147 Goal=   None    Shift=    0.000
 RMSDP=8.80D-09 MaxDP=2.27D-07 DE=-4.63D-11 OVMax= 1.86D-06

 SCF Done:  E(RM062X) =  -526.624504993     A.U. after   17 cycles
            NFock= 17  Conv=0.88D-08     -V/T= 2.0036
 KE= 5.247553769240D+02 PE=-1.870777619151D+03 EE= 5.075319806624D+02
 Leave Link  502 at Sun May 25 05:35:59 2025, MaxMem=  3758096384 cpu:              45.3 elap:               9.4
 (Enter /apps/easybuild-2022/easybuild/software/Compiler/NVHPC/22.11-CUDA-11.7.0/Gaussian/g16c01-CUDA-11.7.0/g16/l508.exe)
 QCSCF skips out because SCF is already converged.
 Leave Link  508 at Sun May 25 05:35:59 2025, MaxMem=  3758096384 cpu:               0.0 elap:               0.0
 (Enter /apps/easybuild-2022/easybuild/software/Compiler/NVHPC/22.11-CUDA-11.7.0/Gaussian/g16c01-CUDA-11.7.0/g16/l801.exe)
 DoSCS=F DFT=T ScalE2(SS,OS)=  1.000000  1.000000
 Range of M.O.s used for correlation:     1   231
 NBasis=   231 NAE=    28 NBE=    28 NFC=     0 NFV=     0
 NROrb=    231 NOA=    28 NOB=    28 NVA=   203 NVB=   203

 **** Warning!!: The largest alpha MO coefficient is  0.17680561D+02

 Leave Link  801 at Sun May 25 05:35:59 2025, MaxMem=  3758096384 cpu:               0.0 elap:               0.0
 (Enter /apps/easybuild-2022/easybuild/software/Compiler/NVHPC/22.11-CUDA-11.7.0/Gaussian/g16c01-CUDA-11.7.0/g16/l1101.exe)
 Using compressed storage, NAtomX=     8.
 Will process      9 centers per pass.
   1 Symmetry operations used in ECPInt.
 ECPInt:  NShTT=    3486 NPrTT=   11183 LenC2=    3324 LenP2D=    8333.
 LDataN:  DoStor=T MaxTD1= 7 Len=  274
 Leave Link 1101 at Sun May 25 05:35:59 2025, MaxMem=  3758096384 cpu:               0.5 elap:               0.1
 (Enter /apps/easybuild-2022/easybuild/software/Compiler/NVHPC/22.11-CUDA-11.7.0/Gaussian/g16c01-CUDA-11.7.0/g16/l1102.exe)
 Symmetrizing basis deriv contribution to polar:
 IMax=3 JMax=2 DiffMx= 0.00D+00
 Leave Link 1102 at Sun May 25 05:35:59 2025, MaxMem=  3758096384 cpu:               0.0 elap:               0.0
 (Enter /apps/easybuild-2022/easybuild/software/Compiler/NVHPC/22.11-CUDA-11.7.0/Gaussian/g16c01-CUDA-11.7.0/g16/l1110.exe)
 Forming Gx(P) for the SCF density, NAtomX=     8.
 Integral derivatives from FoFJK, PRISM(SPDF).
 Do as many integral derivatives as possible in FoFJK.
 G2DrvN: MDV=    3758095440.
 G2DrvN: will do     9 centers at a time, making    1 passes.
 Calling FoFCou, ICntrl=  3107 FMM=F I1Cent=   0 AccDes= 0.00D+00.
 FoFJK:  IHMeth= 1 ICntrl=    3107 DoSepK=F KAlg= 0 I1Cent=           0 FoldK=F
 IRaf=         0 NMat=       1 IRICut=       1 DoRegI=T DoRafI=F ISym2E= 0 IDoP0=0 IntGTp=1.
 FoFCou: FMM=F IPFlag=           0 FMFlag=      100000 FMFlg1=           0
         NFxFlg=           0 DoJE=F BraDBF=F KetDBF=F FulRan=T
         wScrn=  0.000000 ICntrl=      3107 IOpCl=  0 I1Cent=           0 NGrid=           0
         NMat0=    1 NMatS0=      1 NMatT0=    0 NMatD0=    1 NMtDS0=    0 NMtDT0=    0
 Symmetry not used in FoFCou.
 End of G2Drv F.D. properties file   721 does not exist.
 End of G2Drv F.D. properties file   722 does not exist.
 End of G2Drv F.D. properties file   788 does not exist.
 Leave Link 1110 at Sun May 25 05:36:09 2025, MaxMem=  3758096384 cpu:              83.0 elap:              10.5
 (Enter /apps/easybuild-2022/easybuild/software/Compiler/NVHPC/22.11-CUDA-11.7.0/Gaussian/g16c01-CUDA-11.7.0/g16/l1002.exe)
 Minotr:  Closed shell wavefunction.
          IDoAtm=11111111
          Direct CPHF calculation.
          Differentiating once with respect to electric field.
                with respect to dipole field.
          Differentiating once with respect to nuclear coordinates.
          Requested convergence is 1.0D-08 RMS, and 1.0D-07 maximum.
          Secondary convergence is 1.0D-12 RMS, and 1.0D-12 maximum.
          NewPWx=T KeepS1=F KeepF1=F KeepIn=T MapXYZ=F SortEE=F KeepMc=T.
         2392 words used for storage of precomputed grid.
 Keep R1 ints in memory in canonical form, NReq=368655224.
 FoFCou: FMM=F IPFlag=           0 FMFlag=           0 FMFlg1=           0
         NFxFlg=           0 DoJE=F BraDBF=F KetDBF=F FulRan=T
         wScrn=  0.000000 ICntrl=       600 IOpCl=  0 I1Cent=           0 NGrid=           0
         NMat0=    1 NMatS0=  26796 NMatT0=    0 NMatD0=    1 NMtDS0=    0 NMtDT0=    0
 Symmetry not used in FoFCou.
 Two-electron integral symmetry not used.
          MDV=    3758096384 using IRadAn=       1.
          Solving linear equations simultaneously, MaxMat=       0.
          There are    27 degrees of freedom in the 1st order CPHF.  IDoFFX=6 NUNeed=     3.
     24 vectors produced by pass  0 Test12= 2.11D-14 3.70D-09 XBig12= 9.33D+01 8.99D+00.
 AX will form    24 AO Fock derivatives at one time.
     24 vectors produced by pass  1 Test12= 2.11D-14 3.70D-09 XBig12= 3.36D+01 1.53D+00.
     24 vectors produced by pass  2 Test12= 2.11D-14 3.70D-09 XBig12= 1.43D+00 2.38D-01.
     24 vectors produced by pass  3 Test12= 2.11D-14 3.70D-09 XBig12= 3.17D-02 3.50D-02.
     24 vectors produced by pass  4 Test12= 2.11D-14 3.70D-09 XBig12= 2.80D-04 2.27D-03.
     24 vectors produced by pass  5 Test12= 2.11D-14 3.70D-09 XBig12= 2.22D-06 2.16D-04.
     24 vectors produced by pass  6 Test12= 2.11D-14 3.70D-09 XBig12= 1.97D-08 2.37D-05.
     10 vectors produced by pass  7 Test12= 2.11D-14 3.70D-09 XBig12= 1.14D-10 1.53D-06.
      3 vectors produced by pass  8 Test12= 2.11D-14 3.70D-09 XBig12= 4.70D-13 8.28D-08.
      1 vectors produced by pass  9 Test12= 2.11D-14 3.70D-09 XBig12= 2.19D-15 5.23D-09.
 InvSVY:  IOpt=1 It=  1 EMax= 3.11D-15
 Solved reduced A of dimension   182 with    27 vectors.
 FullF1:  Do perturbations      1 to       3.
 Isotropic polarizability for W=    0.000000       53.65 Bohr**3.
 End of Minotr F.D. properties file   721 does not exist.
 End of Minotr F.D. properties file   722 does not exist.
 End of Minotr F.D. properties file   788 does not exist.
 Leave Link 1002 at Sun May 25 05:36:26 2025, MaxMem=  3758096384 cpu:             129.3 elap:              16.7
 (Enter /apps/easybuild-2022/easybuild/software/Compiler/NVHPC/22.11-CUDA-11.7.0/Gaussian/g16c01-CUDA-11.7.0/g16/l701.exe)
 ... and contract with generalized density number  0.
 Compute integral second derivatives.
   1 Symmetry operations used in ECPInt.
 ECPInt:  NShTT=    3486 NPrTT=   11183 LenC2=    3324 LenP2D=    8333.
 LDataN:  DoStor=T MaxTD1= 8 Len=  415
 Leave Link  701 at Sun May 25 05:36:26 2025, MaxMem=  3758096384 cpu:               0.5 elap:               0.1
 (Enter /apps/easybuild-2022/easybuild/software/Compiler/NVHPC/22.11-CUDA-11.7.0/Gaussian/g16c01-CUDA-11.7.0/g16/l702.exe)
 L702 exits ... SP integral derivatives will be done elsewhere.
 Leave Link  702 at Sun May 25 05:36:26 2025, MaxMem=  3758096384 cpu:               0.0 elap:               0.0
 (Enter /apps/easybuild-2022/easybuild/software/Compiler/NVHPC/22.11-CUDA-11.7.0/Gaussian/g16c01-CUDA-11.7.0/g16/l703.exe)
 Integral derivatives from FoFJK, PRISM(SPDF).
 Compute integral second derivatives, UseDBF=F ICtDFT=           0.
 Calling FoFJK, ICntrl=    100127 FMM=F ISym2X=0 I1Cent= 0 IOpClX= 0 NMat=1 NMatS=1 NMatT=0.
 FoFJK:  IHMeth= 1 ICntrl=  100127 DoSepK=F KAlg= 0 I1Cent=           0 FoldK=F
 IRaf=         0 NMat=       1 IRICut=       1 DoRegI=T DoRafI=F ISym2E= 0 IDoP0=0 IntGTp=1.
 FoFCou: FMM=F IPFlag=           0 FMFlag=      100000 FMFlg1=         800
         NFxFlg=           0 DoJE=F BraDBF=F KetDBF=F FulRan=T
         wScrn=  0.000000 ICntrl=    100127 IOpCl=  0 I1Cent=           0 NGrid=           0
         NMat0=    1 NMatS0=      1 NMatT0=    0 NMatD0=    1 NMtDS0=    0 NMtDT0=    0
 Symmetry not used in FoFCou.
 Leave Link  703 at Sun May 25 05:36:53 2025, MaxMem=  3758096384 cpu:             210.1 elap:              26.5
 (Enter /apps/easybuild-2022/easybuild/software/Compiler/NVHPC/22.11-CUDA-11.7.0/Gaussian/g16c01-CUDA-11.7.0/g16/l716.exe)
 Dipole        = 2.25772005D+00 2.94472307D+00 1.20707519D-01
 Polarizability= 6.34969341D+01 3.15857026D+01 7.12292794D+01
                 4.99511891D+00-1.19322904D+00 2.62172314D+01
 -------------------------------------------------------------------
 Center     Atomic                   Forces (Hartrees/Bohr)
 Number     Number              X              Y              Z
 -------------------------------------------------------------------
      1        6           0.004659472   -0.000468092    0.001073027
      2        8          -0.000811768    0.003192692    0.000448364
      3        6          -0.004631767   -0.009928743   -0.012496402
      4        9          -0.001219436    0.010231530    0.014138213
      5        9           0.001506839    0.002084204    0.004246853
      6        9           0.002227527   -0.002631726   -0.006693361
      7        8          -0.000863826   -0.002201915   -0.000503792
      8        1          -0.000867041   -0.000277951   -0.000212901
 -------------------------------------------------------------------
 Cartesian Forces:  Max     0.014138213 RMS     0.005417756
 Force constants in Cartesian coordinates: 
                1             2             3             4             5 
      1  0.633217D+00
      2 -0.110404D+00  0.883552D+00
      3  0.618329D-01 -0.316431D+00  0.333814D+00
      4 -0.227568D+00  0.248185D+00 -0.104235D+00  0.225871D+00
      5  0.227834D+00 -0.591260D+00  0.227614D+00 -0.282210D+00  0.688947D+00
      6 -0.991963D-01  0.229805D+00 -0.172276D+00  0.122739D+00 -0.284909D+00
      7 -0.171742D+00 -0.147572D-01  0.129384D-01 -0.331311D-01  0.463863D-01
      8  0.811776D-02 -0.461591D-01 -0.215093D-02  0.382442D-01 -0.225994D-01
      9 -0.265983D-01 -0.205963D-01 -0.725097D-01 -0.122590D-01  0.177607D-01
     10 -0.315925D-01 -0.335500D-01  0.181978D-01  0.732399D-02 -0.422045D-02
     11 -0.237351D-01 -0.324568D-02 -0.403799D-02  0.921545D-02 -0.273570D-02
     12  0.116358D-01  0.121612D-01  0.614384D-02 -0.356541D-02 -0.918194D-03
     13  0.401410D-02  0.218879D-01 -0.305836D-01 -0.115951D-01  0.374091D-02
     14  0.684100D-02 -0.478391D-02  0.154775D-01  0.781203D-03  0.322990D-02
     15  0.431576D-02  0.173758D-01 -0.729547D-02 -0.473979D-02 -0.862419D-03
     16  0.360122D-02  0.318681D-02 -0.757695D-03 -0.985944D-03 -0.963241D-03
     17  0.955009D-02  0.310513D-02  0.517214D-02 -0.458420D-02  0.139171D-02
     18  0.499432D-02  0.130933D-02  0.160125D-02 -0.213392D-02  0.702393D-03
     19 -0.179006D+00 -0.107559D+00  0.406389D-01  0.367129D-01  0.245635D-02
     20 -0.692951D-01 -0.247397D+00  0.769353D-01 -0.162893D-01 -0.763728D-01
     21  0.236001D-01  0.764974D-01 -0.939398D-01  0.707469D-02  0.424638D-01
     22 -0.309227D-01 -0.699042D-02  0.196843D-02  0.337225D-02  0.697631D-02
     23 -0.489093D-01  0.618922D-02 -0.257815D-02  0.665769D-02 -0.600753D-03
     24  0.194157D-01 -0.120698D-03  0.446188D-02 -0.288034D-02 -0.185110D-02
                6             7             8             9            10 
      6  0.154239D+00
      7 -0.219301D-01  0.715056D+00
      8  0.176102D-01  0.866848D-01  0.500284D+00
      9  0.135326D-01 -0.175920D-01 -0.364305D+00  0.483321D+00
     10  0.161467D-02 -0.300736D+00 -0.188119D+00  0.178325D+00  0.323564D+00
     11  0.120544D-02 -0.189384D+00 -0.246120D+00  0.197861D+00  0.245250D+00
     12 -0.191681D-02  0.157949D+00  0.161912D+00 -0.179195D+00 -0.178239D+00
     13  0.500363D-03 -0.170985D+00  0.977158D-01 -0.130334D+00  0.231265D-01
     14 -0.232296D-02  0.931486D-01 -0.174064D+00  0.163390D+00  0.214738D-02
     15  0.480053D-03 -0.127537D+00  0.178977D+00 -0.246088D+00 -0.132401D-01
     16 -0.766560D-04 -0.222858D-02  0.409715D-03 -0.916308D-02 -0.114140D-01
     17 -0.183283D-02 -0.773602D-02  0.814523D-03 -0.106904D-01 -0.213274D-01
     18 -0.539187D-03 -0.896359D-02 -0.571556D-03 -0.632047D-02 -0.662580D-02
     19 -0.106306D-02 -0.364116D-01 -0.412718D-01  0.169904D-01 -0.959250D-02
     20  0.419395D-01 -0.116542D-01 -0.776758D-02  0.128207D-01  0.179960D-02
     21  0.107210D-01  0.463832D-02  0.522585D-02  0.369762D-02 -0.870601D-03
     22 -0.258793D-02  0.178419D-03 -0.178133D-02  0.631263D-03 -0.679221D-03
     23 -0.149531D-02 -0.268818D-02 -0.438802D-02  0.375924D-02 -0.197956D-02
     24 -0.424044D-02  0.497560D-03  0.330305D-02  0.356292D-02  0.838407D-03
               11            12            13            14            15 
     11  0.331571D+00
     12 -0.208058D+00  0.232087D+00
     13 -0.236038D-01  0.191462D-01  0.156311D+00
     14 -0.320990D-01  0.596950D-01 -0.102386D+00  0.210505D+00
     15  0.332664D-01 -0.448044D-01  0.135866D+00 -0.229514D+00  0.287184D+00
     16 -0.212177D-01 -0.757866D-02  0.239542D-02 -0.178022D-02  0.638574D-02
     17 -0.506594D-01 -0.231878D-01  0.461797D-02 -0.540085D-02  0.666390D-02
     18 -0.211297D-01 -0.139997D-01  0.319209D-02 -0.414645D-02  0.789602D-02
     19  0.454792D-02  0.576933D-03 -0.404523D-02  0.766289D-03 -0.113176D-02
     20  0.323348D-02 -0.191491D-02 -0.247577D-02  0.217978D-02 -0.566836D-02
     21  0.118969D-03  0.177974D-02  0.212268D-02 -0.182294D-02  0.271975D-02
     22 -0.107213D-02  0.754390D-04  0.777938D-03  0.481274D-03  0.810592D-04
     23  0.556984D-04  0.310986D-03  0.502513D-03  0.433151D-03 -0.237670D-03
     24  0.774065D-03 -0.945138D-04  0.896751D-04 -0.756068D-03 -0.918178D-04
               16            17            18            19            20 
     16  0.948478D-02
     17  0.212617D-01  0.513397D-01
     18  0.106752D-01  0.246560D-01  0.114090D-01
     19 -0.126517D-02 -0.229942D-02 -0.138549D-02  0.677862D+00
     20 -0.111565D-02 -0.624987D-03 -0.810578D-03  0.529217D-01  0.376853D+00
     21  0.519568D-03 -0.406199D-03  0.216061D-03 -0.641705D-02 -0.138353D+00
     22  0.412248D-03  0.517289D-03  0.247220D-03 -0.484254D+00  0.461087D-01
     23  0.218613D-03  0.341695D-04 -0.941665D-05  0.904379D-01 -0.501041D-01
     24 -0.439628D-05 -0.374816D-03 -0.263019D-03 -0.482089D-01  0.150517D-01
               21            22            23            24 
     21  0.964783D-01
     22 -0.306678D-01  0.511115D+00
     23  0.162764D-01 -0.442397D-01  0.483806D-01
     24 -0.216727D-01  0.302523D-01 -0.160261D-01  0.183377D-01
 Leave Link  716 at Sun May 25 05:36:53 2025, MaxMem=  3758096384 cpu:               0.0 elap:               0.0
 (Enter /apps/easybuild-2022/easybuild/software/Compiler/NVHPC/22.11-CUDA-11.7.0/Gaussian/g16c01-CUDA-11.7.0/g16/l103.exe)

 GradGradGradGradGradGradGradGradGradGradGradGradGradGradGradGradGradGrad
 Berny optimization.
 Search for a saddle point.
 Step number   2 out of a maximum of  100
 All quantities printed in internal units (Hartrees-Bohrs-Radians)
 Swapping is turned off.
 Second derivative matrix not updated -- analytic derivatives used.
 ITU=  0  0
     Eigenvalues ---    0.00011   0.00143   0.00488   0.01811   0.02518
     Eigenvalues ---    0.05633   0.07484   0.10292   0.14157   0.18220
     Eigenvalues ---    0.27615   0.31136   0.49377   0.75134   1.05602
     Eigenvalues ---    1.12585   1.43964   1.82011
 Eigenvectors required to have negative eigenvalues:
                          Z6        X6        Z8        Z7        Z2
   1                    0.42954  -0.39314   0.37763   0.30779  -0.29408
                          Z4        Y6        Y8        Y7        Z3
   1                   -0.29042  -0.25674   0.23451   0.19712  -0.14798
 Eigenvalue     1 is   1.13D-04 should be less than     0.000000 Eigenvector:
                          Z6        X6        Z8        Z7        Z2
   1                    0.42954  -0.39314   0.37763   0.30779  -0.29408
                          Z4        Y6        Y8        Y7        Z3
   1                   -0.29042  -0.25674   0.23451   0.19712  -0.14798
 RFO step:  Lambda0=7.714774520D-03 Lambda=-6.35022605D-03.
 Linear search not attempted -- option 19 set.
[...]
  Atom  AN      X      Y      Z        X      Y      Z        X      Y      Z
     1   6    -0.15  -0.12  -0.00    -0.21  -0.11  -0.02    -0.36  -0.14  -0.05
     2   8     0.06  -0.13  -0.00     0.04   0.01   0.00     0.02   0.04   0.00
     3   6    -0.03   0.04  -0.00    -0.17   0.06  -0.08     0.50  -0.16   0.24
     4   9     0.03   0.01  -0.02     0.05   0.02  -0.03    -0.08  -0.01   0.04
     5   9     0.01  -0.02   0.02     0.05  -0.05   0.08    -0.12   0.10  -0.17
     6   9    -0.00  -0.00  -0.00    -0.00  -0.00   0.00    -0.00  -0.01  -0.00
     7   8     0.04   0.26   0.01     0.12   0.01   0.01     0.10   0.04   0.02
     8   1    -0.07  -0.93  -0.03     0.19   0.91   0.01     0.14   0.64   0.03
                     16                     17                     18
                      A                      A                      A
 Frequencies --   1619.7848              1895.1349              3773.9553
 Red. masses --     13.4540                12.2017                 1.0647
 Frc consts  --     20.7977                25.8196                 8.9342
 IR Inten    --    157.9565               204.1446               225.5304
  Atom  AN      X      Y      Z        X      Y      Z        X      Y      Z
     1   6     0.05   0.01  -0.05    -0.30   0.73  -0.03    -0.00  -0.00  -0.00
     2   8    -0.00  -0.00   0.01     0.23  -0.48   0.02    -0.00   0.00   0.00
     3   6    -0.42  -0.41   0.66     0.01  -0.02   0.00     0.00   0.00   0.00
     4   9     0.28   0.18  -0.27    -0.00   0.01   0.00    -0.00  -0.00  -0.00
     5   9    -0.05   0.08  -0.14     0.00   0.00   0.00     0.00   0.00   0.00
     6   9    -0.01  -0.01  -0.00     0.00  -0.00  -0.00     0.00   0.00   0.00
     7   8     0.01   0.00   0.01    -0.01  -0.09  -0.00    -0.06   0.01  -0.01
     8   1     0.01   0.02   0.03     0.02   0.29   0.03     0.98  -0.09   0.15

 -------------------
 - Thermochemistry -
 -------------------
 Temperature   298.150 Kelvin.  Pressure   1.00000 Atm.
 Atom     1 has atomic number  6 and mass  12.00000
 Atom     2 has atomic number  8 and mass  15.99491
 Atom     3 has atomic number  6 and mass  12.00000
 Atom     4 has atomic number  9 and mass  18.99840
 Atom     5 has atomic number  9 and mass  18.99840
 Atom     6 has atomic number  9 and mass  18.99840
 Atom     7 has atomic number  8 and mass  15.99491
 Atom     8 has atomic number  1 and mass   1.00783
 Molecular mass:   113.99286 amu.
 Principal axes and moments of inertia in atomic units:
                           1         2         3
     Eigenvalues --   460.854711027.413811325.81206
           X            0.83046  -0.54419  -0.11911
           Y            0.54914   0.76373   0.33937
           Z           -0.09371  -0.34724   0.93308
 This molecule is an asymmetric top.
 Rotational symmetry number  1.
 Warning -- assumption of classical behavior for rotation
           may cause significant error
 Rotational temperatures (Kelvin)      0.18794     0.08430     0.06533
 Rotational constants (GHZ):           3.91607     1.75659     1.36123
    1 imaginary frequencies ignored.
 Zero-point vibrational energy      95794.6 (Joules/Mol)
                                   22.89547 (Kcal/Mol)
 Warning -- explicit consideration of   8 degrees of freedom as
           vibrations may cause significant error
 Vibrational temperatures:     48.46   110.41   308.41   381.92   544.03
          (Kelvin)            579.21   813.19   890.58   925.75  1125.72
                             1168.65  1677.03  1889.47  2093.02  2330.51
                             2726.68  5429.88
 
 Zero-point correction=                           0.036486 (Hartree/Particle)
 Thermal correction to Energy=                    0.043276
 Thermal correction to Enthalpy=                  0.044220
 Thermal correction to Gibbs Free Energy=         0.003799
 Sum of electronic and zero-point Energies=           -526.583589
 Sum of electronic and thermal Energies=              -526.576799
 Sum of electronic and thermal Enthalpies=            -526.575855
 Sum of electronic and thermal Free Energies=         -526.616276
 
                     E (Thermal)             CV                S
                      KCal/Mol        Cal/Mol-Kelvin    Cal/Mol-Kelvin
 Total                   27.156             21.321             85.073
 Electronic               0.000              0.000              0.000
 Translational            0.889              2.981             40.108
 Rotational               0.889              2.981             27.931
 Vibrational             25.379             15.359             17.033
 Vibration     1          0.594              1.983              5.600
 Vibration     2          0.599              1.965              3.973
 Vibration     3          0.644              1.819              2.006
 Vibration     4          0.671              1.736              1.626
 Vibration     5          0.748              1.517              1.047
 Vibration     6          0.768              1.465              0.953
 Vibration     7          0.921              1.107              0.514
 Vibration     8          0.979              0.992              0.418
                       Q            Log10(Q)             Ln(Q)
 Total Bot       0.178799D-01         -1.747634         -4.024077
 Total V=0       0.108358D+16         15.034860         34.619044
 Vib (Bot)       0.131781D-14        -14.880146        -34.262803
 Vib (Bot)    1  0.614608D+01          0.788598          1.815815
 Vib (Bot)    2  0.268495D+01          0.428936          0.987661
 Vib (Bot)    3  0.924947D+00         -0.033883         -0.078019
 Vib (Bot)    4  0.729746D+00         -0.136828         -0.315059
 Vib (Bot)    5  0.478797D+00         -0.319849         -0.736479
 Vib (Bot)    6  0.441909D+00         -0.354667         -0.816650
 Vib (Bot)    7  0.273598D+00         -0.562887         -1.296096
 Vib (Bot)    8  0.236511D+00         -0.626148         -1.441759
 Vib (V=0)       0.798635D+02          1.902348          4.380319
 Vib (V=0)    1  0.666639D+01          0.823890          1.897078
 Vib (V=0)    2  0.323111D+01          0.509351          1.172825
 Vib (V=0)    3  0.155144D+01          0.190735          0.439184
 Vib (V=0)    4  0.138461D+01          0.141326          0.325416
 Vib (V=0)    5  0.119228D+01          0.076377          0.175864
 Vib (V=0)    6  0.116730D+01          0.067181          0.154690
 Vib (V=0)    7  0.106996D+01          0.029368          0.067622
 Vib (V=0)    8  0.105312D+01          0.022476          0.051754
 Electronic      0.100000D+01          0.000000          0.000000
 Translational   0.478377D+08          7.679770         17.683325
 Rotational      0.283623D+06          5.452741         12.555401
 
                                                    Gaussian input prepared by AS
 E
                                                             IR Spectrum
 
     3                                                               1        1     1   1    1                                       
     7                                                               8        6     4   3    1           87    665     43   22       
     7                                                               9        2     5   1    6           18    416     07   61    73 
     4                                                               5        0     5   3    6           22    395     38   54    74 
 
     X                                                               X        X     X   X    X           XX    XXX     XX   XX    XX 
     X                                                               X        X     X   X    X                 XXX     XX            
     X                                                               X        X     X   X    X                 X X                   
     X                                                               X        X     X   X    X                 X X                   
     X                                                               X        X     X        X                                       
     X                                                               X        X     X        X                                       
     X                                                               X              X        X                                       
     X                                                                              X        X                                       
                                                                                    X        X                                       
                                                                                    X        X                                       
                                                                                    X        X                                       
                                                                                    X        X                                       
                                                                                    X        X                                       
                                                                                    X                                                
                                                                                    X                                                
                                                                                    X                                                
                                                                                    X                                                
                                                                                    X                                                
                                                                                    X                                                
                                                                                    X                                                
 
 -------------------------------------------------------------------
 Center     Atomic                   Forces (Hartrees/Bohr)
 Number     Number              X              Y              Z
 -------------------------------------------------------------------
      1        6           0.003883102   -0.004468155    0.001593548
      2        8          -0.003287640    0.008942701    0.001422571
      3        6          -0.006345477   -0.004112098    0.001585044
      4        9           0.004720096    0.008448904   -0.002561272
      5        9           0.000507683   -0.004775464    0.005674673
      6        9           0.003228815    0.002046880   -0.004896835
      7        8          -0.002309133   -0.005712619   -0.001011264
      8        1          -0.000397447   -0.000370150   -0.001806465
 -------------------------------------------------------------------
 Cartesian Forces:  Max     0.008942701 RMS     0.004216547
 Force constants in Cartesian coordinates: 
                1             2             3             4             5 
      1  0.619674D+00
      2 -0.150623D+00  0.992855D+00
      3  0.385349D-01 -0.260760D-01  0.220817D+00
      4 -0.241459D+00  0.286972D+00 -0.833019D-02  0.231303D+00
      5  0.264459D+00 -0.691687D+00  0.177177D-01 -0.319354D+00  0.809041D+00
      6 -0.995125D-02  0.222297D-01 -0.765183D-01  0.134179D-01 -0.190225D-01
      7 -0.168039D+00 -0.170265D-01 -0.503433D-02 -0.244521D-01  0.426415D-01
      8  0.983463D-02 -0.489925D-01  0.103803D-01  0.406853D-01 -0.225144D-01
      9 -0.239408D-01 -0.112497D-01 -0.782925D-01  0.352645D-02  0.275575D-02
     10 -0.200368D-01 -0.208521D-01  0.289213D-01  0.342978D-02 -0.109447D-02
     11 -0.215619D-01  0.122731D-01 -0.316101D-02  0.594540D-02 -0.692141D-02
     12  0.120715D-01  0.107922D-01  0.403503D-02 -0.477982D-02  0.179934D-03
     13  0.826424D-02  0.186694D-01 -0.312723D-01 -0.993920D-02  0.318178D-02
     14  0.620956D-02  0.116179D-02  0.125737D-01 -0.132707D-02  0.225301D-02
     15  0.294151D-02  0.174304D-01 -0.693843D-02 -0.513889D-02 -0.418574D-03
     16  0.101856D-02  0.389660D-02 -0.102591D-02 -0.534956D-03 -0.236783D-02
     17  0.105855D-01  0.106476D-02  0.319866D-02 -0.556882D-02  0.268986D-02
     18  0.284572D-02 -0.889485D-03  0.228967D-03 -0.115679D-02  0.130362D-02
     19 -0.171928D+00 -0.112478D+00 -0.177567D-01  0.388725D-01  0.497234D-02
     20 -0.670564D-01 -0.272730D+00 -0.685864D-02 -0.150191D-01 -0.927866D-01
     21 -0.180108D-01 -0.145573D-01 -0.661723D-01  0.134471D-02 -0.254560D-02
     22 -0.274947D-01 -0.855839D-02 -0.403675D-02  0.277940D-02  0.756139D-02
     23 -0.518474D-01  0.605539D-02 -0.777484D-02  0.766603D-02 -0.736601D-04
     24 -0.449067D-02  0.232021D-02  0.284029D-02  0.111664D-02  0.296386D-04
                6             7             8             9            10 
      6  0.331114D-01
      7 -0.725453D-02  0.715561D+00
      8  0.225962D-02  0.306611D-01  0.332356D+00
      9  0.197546D-01 -0.638743D-01 -0.308303D+00  0.613795D+00
     10 -0.263493D-02 -0.325378D+00 -0.121164D+00  0.232521D+00  0.335388D+00
     11  0.238031D-02 -0.116411D+00 -0.119448D+00  0.173459D+00  0.168427D+00
     12 -0.119958D-02  0.211903D+00  0.141464D+00 -0.267972D+00 -0.245214D+00
     13  0.373721D-02 -0.164497D+00  0.810179D-01 -0.137892D+00  0.246034D-01
     14 -0.231351D-02  0.742203D-01 -0.130318D+00  0.153736D+00 -0.163316D-02
     15  0.484815D-03 -0.127893D+00  0.163930D+00 -0.295252D+00 -0.866241D-02
     16  0.419804D-03  0.147060D-02  0.247368D-02 -0.722737D-02 -0.998800D-02
     17 -0.143686D-02 -0.291143D-02 -0.800056D-03 -0.150036D-01 -0.215298D-01
     18  0.157126D-03 -0.618081D-02 -0.387436D-02 -0.597897D-02 -0.146277D-02
     19  0.909610D-03 -0.331329D-01 -0.414485D-01 -0.241803D-02 -0.753385D-02
     20 -0.551438D-02 -0.764414D-02 -0.476623D-02  0.509107D-02 -0.649044D-03
     21  0.286493D-01 -0.210635D-02 -0.565394D-02  0.843847D-02 -0.227495D-02
     22  0.135619D-02 -0.153362D-02 -0.205997D-02 -0.694966D-03 -0.484674D-03
     23  0.141769D-02 -0.353008D-02 -0.551641D-02 -0.486386D-03 -0.150431D-02
     24 -0.443926D-02  0.440216D-03 -0.202085D-03  0.550735D-02 -0.119320D-02
               11            12            13            14            15 
     11  0.173045D+00
     12 -0.190122D+00  0.327018D+00
     13 -0.223425D-01  0.260825D-01  0.144249D+00
     14 -0.956285D-02  0.445183D-01 -0.805862D-01  0.139598D+00
     15  0.224700D-01 -0.594531D-01  0.135272D+00 -0.207021D+00  0.353883D+00
     16 -0.197436D-01 -0.104805D-02  0.138220D-02 -0.213857D-03  0.463422D-02
     17 -0.497250D-01 -0.579715D-02  0.399982D-02 -0.428536D-02  0.969280D-02
     18 -0.495173D-02 -0.266933D-02  0.213382D-02 -0.143074D-02  0.652980D-02
     19  0.687720D-02  0.102095D-02 -0.452059D-02  0.281950D-02 -0.139294D-02
     20  0.217471D-03 -0.156055D-02 -0.390797D-02  0.353656D-03 -0.609507D-02
     21  0.550997D-03  0.406558D-03  0.127910D-02  0.189998D-03  0.973372D-03
     22 -0.119086D-02 -0.355486D-04  0.457259D-03  0.510939D-03  0.239345D-03
     23  0.121539D-03  0.525255D-03 -0.322851D-04  0.799809D-03  0.118336D-04
     24 -0.626184D-03 -0.165637D-03  0.660055D-03 -0.253163D-03 -0.226858D-03
               16            17            18            19            20 
     16  0.753623D-02
     17  0.174902D-01  0.515456D-01
     18  0.434598D-02  0.976871D-02  0.174085D-02
     19 -0.126666D-02 -0.272558D-02 -0.586437D-03  0.651981D+00
     20 -0.173506D-02 -0.686481D-03  0.496553D-04  0.532088D-01  0.423930D+00
     21 -0.208117D-03 -0.608325D-03  0.371145D-04  0.900322D-01  0.104772D-01
     22  0.382024D-03  0.660093D-03  0.612930D-04 -0.472472D+00  0.428030D-01
     23  0.199800D-03  0.196674D-03  0.243270D-04  0.887744D-01 -0.535315D-01
     24  0.109448D-03  0.185740D-03 -0.455613D-04 -0.698087D-01  0.441073D-02
               21            22            23            24 
     21  0.531980D-01
     22 -0.700558D-01  0.498366D+00
     23  0.121470D-01 -0.397262D-01  0.519481D-01
     24 -0.255304D-01  0.731662D-01 -0.586489D-02  0.220601D-01
 Leave Link  716 at Sun May 25 07:26:29 2025, MaxMem=  3758096384 cpu:               0.0 elap:               0.0
 (Enter /apps/easybuild-2022/easybuild/software/Compiler/NVHPC/22.11-CUDA-11.7.0/Gaussian/g16c01-CUDA-11.7.0/g16/l9999.exe)

 ----------------------------------------------------------------------

 Electric dipole moment (input orientation):
 (Debye = 10**-18 statcoulomb cm , SI units = C m)
                  (au)            (Debye)         (10**-30 SI)
   Tot        0.404248D+01      0.102750D+02      0.342736D+02
   x          0.240158D+01      0.610421D+01      0.203614D+02
   y          0.324119D+01      0.823829D+01      0.274800D+02
   z         -0.262219D+00     -0.666495D+00     -0.222319D+01

 Dipole polarizability, Alpha (input orientation).
 (esu units = cm**3 , SI units = C**2 m**2 J**-1)
 Alpha(0;0):
               (au)            (10**-24 esu)      (10**-40 SI)
   iso        0.519250D+02      0.769449D+01      0.856127D+01
   aniso      0.648166D+02      0.960484D+01      0.106868D+02
   xx         0.583163D+02      0.864158D+01      0.961505D+01
   yx         0.280423D+02      0.415544D+01      0.462356D+01
   yy         0.713768D+02      0.105769D+02      0.117684D+02
   zx        -0.349202D+01     -0.517465D+00     -0.575757D+00
   zy        -0.763472D+01     -0.113135D+01     -0.125880D+01
   zz         0.260819D+02      0.386493D+01      0.430032D+01

 ----------------------------------------------------------------------

 Dipole orientation:
     6          1.76298949         -1.46924879          2.23828076
     8          3.34094156         -2.62382828          1.14468843
     6         -0.04968959          0.28371366          0.86178766
     9         -1.35419108         -0.45659906         -0.90807224
     9         -0.07735200          2.63739769          1.37166218
     9          0.07051930         -0.42899192         -4.47626316
     8          1.20152116         -1.44789032          4.69250125
     1          2.27010807         -2.65002492          5.57218475

 Electric dipole moment (dipole orientation):
 (Debye = 10**-18 statcoulomb cm , SI units = C m)
                  (au)            (Debye)         (10**-30 SI)
   Tot        0.404248D+01      0.102750D+02      0.342736D+02
   x          0.000000D+00      0.000000D+00      0.000000D+00
   y          0.000000D+00      0.000000D+00      0.000000D+00
   z          0.404248D+01      0.102750D+02      0.342736D+02

 Dipole polarizability, Alpha (dipole orientation).
 (esu units = cm**3 , SI units = C**2 m**2 J**-1)
 Alpha(0;0):
               (au)            (10**-24 esu)      (10**-40 SI)
   iso        0.519250D+02      0.769449D+01      0.856127D+01
   aniso      0.648166D+02      0.960484D+01      0.106868D+02
   xx         0.305050D+02      0.452037D+01      0.502959D+01
   yx        -0.571491D+01     -0.846862D+00     -0.942261D+00
   yy         0.309154D+02      0.458119D+01      0.509726D+01
   zx         0.369392D+01      0.547383D+00      0.609045D+00
   zy         0.196172D+01      0.290696D+00      0.323443D+00
   zz         0.943546D+02      0.139819D+02      0.155570D+02

 ----------------------------------------------------------------------


 Spring appears, and we are once more children.
                                  -- Anonymous
 Error termination request processed by link 9999.
 Error termination via Lnk1e in /apps/easybuild-2022/easybuild/software/Compiler/NVHPC/22.11-CUDA-11.7.0/Gaussian/g16c01-CUDA-11.7.0/g16/l9999.exe at Sun May 25 07:26:30 2025.
 Job cpu time:       0 days 13 hours 41 minutes 45.7 seconds.
 Elapsed time:       0 days  1 hours 51 minutes 27.8 seconds.
 File lengths (MBytes):  RWF=     51 Int=      0 D2E=      0 Chk=      5 Scr=      1
done
