 Entering Gaussian System, Link 0=g16
 Initial command:
 /apps/easybuild-2022/easybuild/software/Compiler/NVHPC/22.11-CUDA-11.7.0/Gaussian/g16c01-CUDA-11.7.0/g16/l1.exe "/tmp/Gau-250669.inp" -scrdir="/tmp/"
 Entering Link 1 = /apps/easybuild-2022/easybuild/software/Compiler/NVHPC/22.11-CUDA-11.7.0/Gaussian/g16c01-CUDA-11.7.0/g16/l1.exe PID=    250670.
  
 Copyright (c) 1988-2019, Gaussian, Inc.  All Rights Reserved.
  
 This is part of the Gaussian(R) 16 program.  It is based on
 the Gaussian(R) 09 system (copyright 2009, Gaussian, Inc.),
 the Gaussian(R) 03 system (copyright 2003, Gaussian, Inc.),
 the Gaussian(R) 98 system (copyright 1998, Gaussian, Inc.),
 the Gaussian(R) 94 system (copyright 1995, Gaussian, Inc.),
 the Gaussian 92(TM) system (copyright 1992, Gaussian, Inc.),
 the Gaussian 90(TM) system (copyright 1990, Gaussian, Inc.),
 the Gaussian 88(TM) system (copyright 1988, Gaussian, Inc.),
 the Gaussian 86(TM) system (copyright 1986, Carnegie Mellon
 University), and the Gaussian 82(TM) system (copyright 1983,
 Carnegie Mellon University). Gaussian is a federally registered
 trademark of Gaussian, Inc.
  
 This software contains proprietary and confidential information,
 including trade secrets, belonging to Gaussian, Inc.
  
 This software is provided under written license and may be
 used, copied, transmitted, or stored only in accord with that
 written license.
  
 The following legend is applicable only to US Government
 contracts under FAR:
  
                    RESTRICTED RIGHTS LEGEND
  
 Use, reproduction and disclosure by the US Government is
 subject to restrictions as set forth in subparagraphs (a)
 and (c) of the Commercial Computer Software - Restricted
 Rights clause in FAR 52.227-19.
  
 Gaussian, Inc.
 340 Quinnipiac St., Bldg. 40, Wallingford CT 06492
  
  
 ---------------------------------------------------------------
 Warning -- This program may not be used in any manner that
 competes with the business of Gaussian, Inc. or will provide
 assistance to any competitor of Gaussian, Inc.  The licensee
 of this program is prohibited from giving any competitor of
 Gaussian, Inc. access to this program.  By using this program,
 the user acknowledges that Gaussian, Inc. is engaged in the
 business of creating and licensing software in the field of
 computational chemistry and represents and warrants to the
 licensee that it is not a competitor of Gaussian, Inc. and that
 it will not use this program in any manner prohibited above.
 ---------------------------------------------------------------
  

 Cite this work as:
 Gaussian 16, Revision C.01,
 M. J. Frisch, G. W. Trucks, H. B. Schlegel, G. E. Scuseria, 
 M. A. Robb, J. R. Cheeseman, G. Scalmani, V. Barone, 
 G. A. Petersson, H. Nakatsuji, X. Li, M. Caricato, A. V. Marenich, 
 J. Bloino, B. G. Janesko, R. Gomperts, B. Mennucci, H. P. Hratchian, 
 J. V. Ortiz, A. F. Izmaylov, J. L. Sonnenberg, D. Williams-Young, 
 F. Ding, F. Lipparini, F. Egidi, J. Goings, B. Peng, A. Petrone, 
 T. Henderson, D. Ranasinghe, V. G. Zakrzewski, J. Gao, N. Rega, 
 G. Zheng, W. Liang, M. Hada, M. Ehara, K. Toyota, R. Fukuda, 
 J. Hasegawa, M. Ishida, T. Nakajima, Y. Honda, O. Kitao, H. Nakai, 
 T. Vreven, K. Throssell, J. A. Montgomery, Jr., J. E. Peralta, 
 F. Ogliaro, M. J. Bearpark, J. J. Heyd, E. N. Brothers, K. N. Kudin, 
 V. N. Staroverov, T. A. Keith, R. Kobayashi, J. Normand, 
 K. Raghavachari, A. P. Rendell, J. C. Burant, S. S. Iyengar, 
 J. Tomasi, M. Cossi, J. M. Millam, M. Klene, C. Adamo, R. Cammi, 
 J. W. Ochterski, R. L. Martin, K. Morokuma, O. Farkas, 
 J. B. Foresman, and D. J. Fox, Gaussian, Inc., Wallingford CT, 2019.
 
 ******************************************
 Gaussian 16:  ES64L-G16RevC.01  3-Jul-2019
                25-May-2025 
 ******************************************
 %mem=28GB
 %chk=1141903082400600000001_r12_insertion_R_2_1_3_IRC_R_prod
 %nprocshared=8
 Will use up to    8 processors via shared memory.
 -----------------------------------------------------------------
 #P M062X/Def2TZVPP Symm(None) scf(xqc) pop(None) freq opt(CalcFC)
 -----------------------------------------------------------------
 1/10=4,18=20,19=15,26=3,38=1/1,3;
 2/9=110,12=2,15=3,17=6,18=5,40=1/2;
 3/5=44,7=202,11=2,25=1,30=1,71=2,74=-55,140=1/1,2,3;
 4//1;
 5/5=2,8=3,13=1,38=5/2,8;
 8/6=4,10=90,11=11/1;
 11/6=1,8=1,9=11,15=111,16=1,31=1/1,2,10;
 10/6=1,13=1,31=1/2;
 7/10=1,25=1,30=1/1,2,3,16;
 1/10=4,18=20,19=15,26=3/3(2);
 2/9=110,15=3/2;
 99//99;
 2/9=110,15=3/2;
 3/5=44,7=202,11=2,25=1,30=1,71=1,74=-55/1,2,3;
 4/5=5,16=3,69=1/1;
 5/5=2,8=3,13=1,38=5/2,8;
 7/30=1/1,2,3,16;
 1/18=20,19=15,26=3/3(-5);
 2/9=110,15=3/2;
 99/9=1/99;
 Leave Link    1 at Sun May 25 04:16:40 2025, MaxMem=  3758096384 cpu:               0.1 elap:               0.1
 (Enter /apps/easybuild-2022/easybuild/software/Compiler/NVHPC/22.11-CUDA-11.7.0/Gaussian/g16c01-CUDA-11.7.0/g16/l101.exe)
 ------------------------------
 Gaussian input prepared by ASE
 ------------------------------
 Symbolic Z-matrix:
 Charge =  0 Multiplicity = 1
 C                     0.99198   0.20356  -0.02587 
 O                     1.49403  -0.42848  -0.89731 
 C                    -0.57174  -0.05879   0.04388 
 F                    -1.37046   0.85245   0.57834 
 F                    -0.97099  -0.23627  -1.20811 
 F                    -0.7498   -1.22203   0.67139 
 O                     1.69775   0.98301   0.80268 
 H                     2.61268   0.89621   0.50403 
 
 ITRead=  0  0  0  0  0  0  0  0
 MicOpt= -1 -1 -1 -1 -1 -1 -1 -1
 NAtoms=      8 NQM=        8 NQMF=       0 NMMI=      0 NMMIF=      0
                NMic=       0 NMicF=      0.
                    Isotopes and Nuclear Properties:
 (Nuclear quadrupole moments (NQMom) in fm**2, nuclear magnetic moments (NMagM)
  in nuclear magnetons)

  Atom         1           2           3           4           5           6           7           8
 IAtWgt=          12          16          12          19          19          19          16           1
 AtmWgt=  12.0000000  15.9949146  12.0000000  18.9984032  18.9984032  18.9984032  15.9949146   1.0078250
 NucSpn=           0           0           0           1           1           1           0           1
 AtZEff=  -0.0000000  -0.0000000  -0.0000000  -0.0000000  -0.0000000  -0.0000000  -0.0000000  -0.0000000
 NQMom=    0.0000000   0.0000000   0.0000000   0.0000000   0.0000000   0.0000000   0.0000000   0.0000000
 NMagM=    0.0000000   0.0000000   0.0000000   2.6288670   2.6288670   2.6288670   0.0000000   2.7928460
 AtZNuc=   6.0000000   8.0000000   6.0000000   9.0000000   9.0000000   9.0000000   8.0000000   1.0000000
 Leave Link  101 at Sun May 25 04:16:40 2025, MaxMem=  3758096384 cpu:               0.3 elap:               0.2
 (Enter /apps/easybuild-2022/easybuild/software/Compiler/NVHPC/22.11-CUDA-11.7.0/Gaussian/g16c01-CUDA-11.7.0/g16/l103.exe)

 GradGradGradGradGradGradGradGradGradGradGradGradGradGradGradGradGradGrad
 Berny optimization.
 Initialization pass.
                           ----------------------------
                           !    Initial Parameters    !
                           ! (Angstroms and Degrees)  !
 --------------------------                            --------------------------
 ! Name  Definition              Value          Derivative Info.                !
 --------------------------------------------------------------------------------
 ! R1    R(1,2)                  1.1878         calculate D2E/DX2 analytically  !
 ! R2    R(1,3)                  1.5871         calculate D2E/DX2 analytically  !
 ! R3    R(1,7)                  1.3387         calculate D2E/DX2 analytically  !
 ! R4    R(3,4)                  1.3244         calculate D2E/DX2 analytically  !
 ! R5    R(3,5)                  1.326          calculate D2E/DX2 analytically  !
 ! R6    R(3,6)                  1.3336         calculate D2E/DX2 analytically  !
 ! R7    R(7,8)                  0.9663         calculate D2E/DX2 analytically  !
 ! A1    A(2,1,3)              111.1443         calculate D2E/DX2 analytically  !
 ! A2    A(2,1,7)              122.7542         calculate D2E/DX2 analytically  !
 ! A3    A(3,1,7)              126.0495         calculate D2E/DX2 analytically  !
 ! A4    A(1,3,4)              119.8812         calculate D2E/DX2 analytically  !
 ! A5    A(1,3,5)              106.0982         calculate D2E/DX2 analytically  !
 ! A6    A(1,3,6)              107.2414         calculate D2E/DX2 analytically  !
 ! A7    A(4,3,5)              106.9501         calculate D2E/DX2 analytically  !
 ! A8    A(4,3,6)              109.2526         calculate D2E/DX2 analytically  !
 ! A9    A(5,3,6)              106.6968         calculate D2E/DX2 analytically  !
 ! A10   A(1,7,8)              104.8081         calculate D2E/DX2 analytically  !
 ! D1    D(2,1,3,4)           -155.758          calculate D2E/DX2 analytically  !
 ! D2    D(2,1,3,5)            -34.7079         calculate D2E/DX2 analytically  !
 ! D3    D(2,1,3,6)             79.0371         calculate D2E/DX2 analytically  !
 ! D4    D(7,1,3,4)             26.8209         calculate D2E/DX2 analytically  !
 ! D5    D(7,1,3,5)            147.871          calculate D2E/DX2 analytically  !
 ! D6    D(7,1,3,6)            -98.384          calculate D2E/DX2 analytically  !
 ! D7    D(2,1,7,8)              0.8379         calculate D2E/DX2 analytically  !
 ! D8    D(3,1,7,8)            177.9777         calculate D2E/DX2 analytically  !
 --------------------------------------------------------------------------------
 Trust Radius=3.00D-01 FncErr=1.00D-07 GrdErr=1.00D-06 EigMax=2.50D+02 EigMin=1.00D-04
 Number of steps in this run=     35 maximum allowed number of steps=    100.
 GradGradGradGradGradGradGradGradGradGradGradGradGradGradGradGradGradGrad

 Leave Link  103 at Sun May 25 04:16:40 2025, MaxMem=  3758096384 cpu:               0.1 elap:               0.0
 (Enter /apps/easybuild-2022/easybuild/software/Compiler/NVHPC/22.11-CUDA-11.7.0/Gaussian/g16c01-CUDA-11.7.0/g16/l202.exe)
                          Input orientation:                          
 ---------------------------------------------------------------------
 Center     Atomic      Atomic             Coordinates (Angstroms)
 Number     Number       Type             X           Y           Z
 ---------------------------------------------------------------------
      1          6           0        0.991975    0.203562   -0.025867
      2          8           0        1.494027   -0.428482   -0.897309
      3          6           0       -0.571741   -0.058786    0.043878
      4          9           0       -1.370457    0.852452    0.578344
      5          9           0       -0.970993   -0.236274   -1.208109
      6          9           0       -0.749796   -1.222026    0.671393
      7          8           0        1.697752    0.983007    0.802677
      8          1           0        2.612679    0.896209    0.504026
 ---------------------------------------------------------------------
                    Distance matrix (angstroms):
                    1          2          3          4          5
     1  C    0.000000
     2  O    1.187833   0.000000
     3  C    1.587104   2.299979   0.000000
     4  F    2.523334   3.467508   1.324370   0.000000
     5  F    2.333323   2.491960   1.326038   2.129862   0.000000
     6  F    2.356319   2.850488   1.333644   2.167334   2.133814
     7  O    1.338709   2.218954   2.609925   3.079168   3.556980
     8  H    1.840442   2.229334   3.356230   3.984070   4.129967
                    6          7          8
     6  F    0.000000
     7  O    3.296953   0.000000
     8  H    3.977583   0.966342   0.000000
 Symmetry turned off by external request.
 Stoichiometry    C2HF3O2
 Rotational constants (GHZ):           4.0446300           2.3318935           1.9904702
 Leave Link  202 at Sun May 25 04:16:40 2025, MaxMem=  3758096384 cpu:               0.1 elap:               0.0
 (Enter /apps/easybuild-2022/easybuild/software/Compiler/NVHPC/22.11-CUDA-11.7.0/Gaussian/g16c01-CUDA-11.7.0/g16/l301.exe)
 Standard basis: def2TZVPP (5D, 7F)
 Ernie: Thresh=  0.10000D-02 Tol=  0.10000D-05 Strict=F.
   231 basis functions,   374 primitive gaussians,   267 cartesian basis functions
    28 alpha electrons       28 beta electrons
       nuclear repulsion energy       335.4233270535 Hartrees.
 IExCor= 4336 DFT=T Ex+Corr=M062X ExCW=0 ScaHFX=  0.540000
 ScaDFX=  1.000000  1.000000  1.000000  1.000000 ScalE2=  1.000000  1.000000
 IRadAn=      5 IRanWt=     -1 IRanGd=            0 ICorTp=0 IEmpDi=  4
 NAtoms=    8 NActive=    8 NUniq=    8 SFac= 1.00D+00 NAtFMM=   60 NAOKFM=F Big=F
 Integral buffers will be    131072 words long.
 Raffenetti 2 integral format.
 Two-electron integral symmetry is turned off.
 Leave Link  301 at Sun May 25 04:16:40 2025, MaxMem=  3758096384 cpu:               0.1 elap:               0.1
 (Enter /apps/easybuild-2022/easybuild/software/Compiler/NVHPC/22.11-CUDA-11.7.0/Gaussian/g16c01-CUDA-11.7.0/g16/l302.exe)
 NPDir=0 NMtPBC=     1 NCelOv=     1 NCel=       1 NClECP=     1 NCelD=      1
         NCelK=      1 NCelE2=     1 NClLst=     1 CellRange=     0.0.
 One-electron integrals computed using PRISM.
   1 Symmetry operations used in ECPInt.
 ECPInt:  NShTT=    3486 NPrTT=   11183 LenC2=    3391 LenP2D=    8624.
 LDataN:  DoStor=T MaxTD1= 6 Len=  172
 NBasis=   231 RedAO= T EigKep=  6.53D-04  NBF=   231
 NBsUse=   231 1.00D-06 EigRej= -1.00D+00 NBFU=   231
 Precomputing XC quadrature grid using
 IXCGrd= 4 IRadAn=           5 IRanWt=          -1 IRanGd=           0 AccXCQ= 0.00D+00.
 Generated NRdTot=       0 NPtTot=           0 NUsed=           0 NTot=          32
 NSgBfM=   265   265   265   265   265 MxSgAt=     8 MxSgA2=     8.
 Leave Link  302 at Sun May 25 04:16:40 2025, MaxMem=  3758096384 cpu:               0.7 elap:               0.2
 (Enter /apps/easybuild-2022/easybuild/software/Compiler/NVHPC/22.11-CUDA-11.7.0/Gaussian/g16c01-CUDA-11.7.0/g16/l303.exe)
 DipDrv:  MaxL=1.
 Leave Link  303 at Sun May 25 04:16:41 2025, MaxMem=  3758096384 cpu:               0.1 elap:               0.0
 (Enter /apps/easybuild-2022/easybuild/software/Compiler/NVHPC/22.11-CUDA-11.7.0/Gaussian/g16c01-CUDA-11.7.0/g16/l401.exe)
 ExpMin= 9.52D-02 ExpMax= 3.55D+04 ExpMxC= 1.21D+03 IAcc=3 IRadAn=         5 AccDes= 0.00D+00
 Harris functional with IExCor= 1009 and IRadAn=       5 diagonalized for initial guess.
 HarFok:  IExCor= 1009 AccDes= 0.00D+00 IRadAn=         5 IDoV= 1 UseB2=F ITyADJ=14
 ICtDFT=  3500011 ScaDFX=  1.000000  1.000000  1.000000  1.000000
 FoFCou: FMM=F IPFlag=           0 FMFlag=      100000 FMFlg1=           0
         NFxFlg=           0 DoJE=T BraDBF=F KetDBF=T FulRan=T
         wScrn=  0.000000 ICntrl=       500 IOpCl=  0 I1Cent=   200000004 NGrid=           0
         NMat0=    1 NMatS0=      1 NMatT0=    0 NMatD0=    1 NMtDS0=    0 NMtDT0=    0
 Symmetry not used in FoFCou.
 Harris En= -526.538274326460    
 JPrj=0 DoOrth=F DoCkMO=F.
 Leave Link  401 at Sun May 25 04:16:41 2025, MaxMem=  3758096384 cpu:               2.2 elap:               0.4
 (Enter /apps/easybuild-2022/easybuild/software/Compiler/NVHPC/22.11-CUDA-11.7.0/Gaussian/g16c01-CUDA-11.7.0/g16/l502.exe)
 Keep R1 ints in memory in canonical form, NReq=368651279.
 FoFCou: FMM=F IPFlag=           0 FMFlag=           0 FMFlg1=           0
         NFxFlg=           0 DoJE=F BraDBF=F KetDBF=F FulRan=T
         wScrn=  0.000000 ICntrl=       600 IOpCl=  0 I1Cent=           0 NGrid=           0
         NMat0=    1 NMatS0=  26796 NMatT0=    0 NMatD0=    1 NMtDS0=    0 NMtDT0=    0
 Symmetry not used in FoFCou.
 Two-electron integral symmetry not used.
 Closed shell SCF:
 Using DIIS extrapolation, IDIIS=  1040.
 NGot=  3758096384 LenX=  3398923531 LenY=  3398851801
 Requested convergence on RMS density matrix=1.00D-08 within  32 cycles.
 Requested convergence on MAX density matrix=1.00D-06.
 Requested convergence on             energy=1.00D-06.
 No special actions if energy rises.
 Integral accuracy reduced to 1.0D-05 until final iterations.

 Cycle   1  Pass 0  IDiag  1:
 E= -526.686182360455    
 DIIS: error= 2.55D-02 at cycle   1 NSaved=   1.
 NSaved= 1 IEnMin= 1 EnMin= -526.686182360455     IErMin= 1 ErrMin= 2.55D-02
 ErrMax= 2.55D-02  0.00D+00 EMaxC= 1.00D-01 BMatC= 2.90D-01 BMatP= 2.90D-01
 IDIUse=3 WtCom= 7.45D-01 WtEn= 2.55D-01
 Coeff-Com:  0.100D+01
 Coeff-En:   0.100D+01
 Coeff:      0.100D+01
 Gap=     0.356 Goal=   None    Shift=    0.000
 GapD=    0.356 DampG=1.000 DampE=0.500 DampFc=0.5000 IDamp=-1.
 Damping current iteration by 5.00D-01
 RMSDP=2.33D-03 MaxDP=8.60D-02              OVMax= 2.10D-01

 Cycle   2  Pass 0  IDiag  1:
 E= -526.743729976025     Delta-E=       -0.057547615570 Rises=F Damp=T
 DIIS: error= 7.50D-03 at cycle   2 NSaved=   2.
 NSaved= 2 IEnMin= 2 EnMin= -526.743729976025     IErMin= 2 ErrMin= 7.50D-03
 ErrMax= 7.50D-03  0.00D+00 EMaxC= 1.00D-01 BMatC= 3.04D-02 BMatP= 2.90D-01
 IDIUse=3 WtCom= 9.25D-01 WtEn= 7.50D-02
 Coeff-Com:  0.739D-01 0.926D+00
 Coeff-En:   0.224D+00 0.776D+00
 Coeff:      0.852D-01 0.915D+00
 Gap=     0.412 Goal=   None    Shift=    0.000
 RMSDP=6.59D-04 MaxDP=1.79D-02 DE=-5.75D-02 OVMax= 1.21D-01

 Cycle   3  Pass 0  IDiag  1:
 E= -526.831259885214     Delta-E=       -0.087529909189 Rises=F Damp=F
 DIIS: error= 8.01D-03 at cycle   3 NSaved=   3.
 NSaved= 3 IEnMin= 3 EnMin= -526.831259885214     IErMin= 2 ErrMin= 7.50D-03
 ErrMax= 8.01D-03  0.00D+00 EMaxC= 1.00D-01 BMatC= 9.59D-03 BMatP= 3.04D-02
 IDIUse=3 WtCom= 9.20D-01 WtEn= 8.01D-02
 Coeff-Com: -0.580D-01 0.320D+00 0.738D+00
 Coeff-En:   0.000D+00 0.000D+00 0.100D+01
 Coeff:     -0.534D-01 0.294D+00 0.759D+00
 Gap=     0.391 Goal=   None    Shift=    0.000
 RMSDP=3.26D-04 MaxDP=1.32D-02 DE=-8.75D-02 OVMax= 4.96D-02

 Cycle   4  Pass 0  IDiag  1:
 E= -526.835470958820     Delta-E=       -0.004211073606 Rises=F Damp=F
 DIIS: error= 4.30D-03 at cycle   4 NSaved=   4.
 NSaved= 4 IEnMin= 4 EnMin= -526.835470958820     IErMin= 4 ErrMin= 4.30D-03
 ErrMax= 4.30D-03  0.00D+00 EMaxC= 1.00D-01 BMatC= 4.23D-03 BMatP= 9.59D-03
 IDIUse=3 WtCom= 9.57D-01 WtEn= 4.30D-02
 Coeff-Com: -0.370D-01 0.733D-01 0.449D+00 0.514D+00
 Coeff-En:   0.000D+00 0.000D+00 0.294D+00 0.706D+00
 Coeff:     -0.355D-01 0.701D-01 0.443D+00 0.523D+00
 Gap=     0.398 Goal=   None    Shift=    0.000
 RMSDP=1.35D-04 MaxDP=5.55D-03 DE=-4.21D-03 OVMax= 1.74D-02

 Cycle   5  Pass 0  IDiag  1:
 E= -526.838219591762     Delta-E=       -0.002748632942 Rises=F Damp=F
 DIIS: error= 4.36D-04 at cycle   5 NSaved=   5.
 NSaved= 5 IEnMin= 5 EnMin= -526.838219591762     IErMin= 5 ErrMin= 4.36D-04
 ErrMax= 4.36D-04  0.00D+00 EMaxC= 1.00D-01 BMatC= 5.87D-05 BMatP= 4.23D-03
 IDIUse=3 WtCom= 9.96D-01 WtEn= 4.36D-03
 Coeff-Com: -0.105D-01 0.142D-01 0.143D+00 0.203D+00 0.650D+00
 Coeff-En:   0.000D+00 0.000D+00 0.000D+00 0.000D+00 0.100D+01
 Coeff:     -0.104D-01 0.142D-01 0.143D+00 0.202D+00 0.652D+00
 Gap=     0.399 Goal=   None    Shift=    0.000
 RMSDP=2.26D-05 MaxDP=8.34D-04 DE=-2.75D-03 OVMax= 2.58D-03

 Cycle   6  Pass 0  IDiag  1:
 E= -526.838267156951     Delta-E=       -0.000047565189 Rises=F Damp=F
 DIIS: error= 9.26D-05 at cycle   6 NSaved=   6.
 NSaved= 6 IEnMin= 6 EnMin= -526.838267156951     IErMin= 6 ErrMin= 9.26D-05
 ErrMax= 9.26D-05  0.00D+00 EMaxC= 1.00D-01 BMatC= 3.02D-06 BMatP= 5.87D-05
 IDIUse=1 WtCom= 1.00D+00 WtEn= 0.00D+00
 Coeff-Com:  0.113D-02-0.343D-02-0.118D-01-0.154D-01 0.127D+00 0.903D+00
 Coeff:      0.113D-02-0.343D-02-0.118D-01-0.154D-01 0.127D+00 0.903D+00
 Gap=     0.399 Goal=   None    Shift=    0.000
 RMSDP=8.51D-06 MaxDP=2.35D-04 DE=-4.76D-05 OVMax= 7.49D-04

 Initial convergence to 1.0D-05 achieved.  Increase integral accuracy.
 Cycle   7  Pass 1  IDiag  1:
 E= -526.838241871314     Delta-E=        0.000025285637 Rises=F Damp=F
 DIIS: error= 2.33D-05 at cycle   1 NSaved=   1.
 NSaved= 1 IEnMin= 1 EnMin= -526.838241871314     IErMin= 1 ErrMin= 2.33D-05
 ErrMax= 2.33D-05  0.00D+00 EMaxC= 1.00D-01 BMatC= 5.36D-07 BMatP= 5.36D-07
 IDIUse=1 WtCom= 1.00D+00 WtEn= 0.00D+00
 Coeff-Com:  0.100D+01
 Coeff:      0.100D+01
 Gap=     0.400 Goal=   None    Shift=    0.000
 RMSDP=8.51D-06 MaxDP=2.35D-04 DE= 2.53D-05 OVMax= 2.97D-04

 Cycle   8  Pass 1  IDiag  1:
 E= -526.838242274014     Delta-E=       -0.000000402700 Rises=F Damp=F
 DIIS: error= 3.40D-05 at cycle   2 NSaved=   2.
 NSaved= 2 IEnMin= 2 EnMin= -526.838242274014     IErMin= 1 ErrMin= 2.33D-05
 ErrMax= 3.40D-05  0.00D+00 EMaxC= 1.00D-01 BMatC= 1.97D-07 BMatP= 5.36D-07
 IDIUse=1 WtCom= 1.00D+00 WtEn= 0.00D+00
 Coeff-Com:  0.332D+00 0.668D+00
 Coeff:      0.332D+00 0.668D+00
 Gap=     0.400 Goal=   None    Shift=    0.000
 RMSDP=1.69D-06 MaxDP=6.22D-05 DE=-4.03D-07 OVMax= 2.28D-04

 Cycle   9  Pass 1  IDiag  1:
 E= -526.838242394842     Delta-E=       -0.000000120828 Rises=F Damp=F
 DIIS: error= 1.43D-05 at cycle   3 NSaved=   3.
 NSaved= 3 IEnMin= 3 EnMin= -526.838242394842     IErMin= 3 ErrMin= 1.43D-05
 ErrMax= 1.43D-05  0.00D+00 EMaxC= 1.00D-01 BMatC= 7.39D-08 BMatP= 1.97D-07
 IDIUse=1 WtCom= 1.00D+00 WtEn= 0.00D+00
 Coeff-Com: -0.962D-02 0.365D+00 0.645D+00
 Coeff:     -0.962D-02 0.365D+00 0.645D+00
 Gap=     0.400 Goal=   None    Shift=    0.000
 RMSDP=8.41D-07 MaxDP=3.49D-05 DE=-1.21D-07 OVMax= 8.41D-05

 Cycle  10  Pass 1  IDiag  1:
 E= -526.838242444449     Delta-E=       -0.000000049607 Rises=F Damp=F
 DIIS: error= 7.02D-06 at cycle   4 NSaved=   4.
 NSaved= 4 IEnMin= 4 EnMin= -526.838242444449     IErMin= 4 ErrMin= 7.02D-06
 ErrMax= 7.02D-06  0.00D+00 EMaxC= 1.00D-01 BMatC= 6.25D-09 BMatP= 7.39D-08
 IDIUse=1 WtCom= 1.00D+00 WtEn= 0.00D+00
 Coeff-Com: -0.386D-01 0.113D+00 0.285D+00 0.641D+00
 Coeff:     -0.386D-01 0.113D+00 0.285D+00 0.641D+00
 Gap=     0.400 Goal=   None    Shift=    0.000
 RMSDP=2.74D-07 MaxDP=1.02D-05 DE=-4.96D-08 OVMax= 4.72D-05

 Cycle  11  Pass 1  IDiag  1:
 E= -526.838242450416     Delta-E=       -0.000000005968 Rises=F Damp=F
 DIIS: error= 1.33D-06 at cycle   5 NSaved=   5.
 NSaved= 5 IEnMin= 5 EnMin= -526.838242450416     IErMin= 5 ErrMin= 1.33D-06
 ErrMax= 1.33D-06  0.00D+00 EMaxC= 1.00D-01 BMatC= 8.31D-10 BMatP= 6.25D-09
 IDIUse=1 WtCom= 1.00D+00 WtEn= 0.00D+00
 Coeff-Com: -0.789D-02-0.219D-01-0.560D-01 0.183D+00 0.903D+00
 Coeff:     -0.789D-02-0.219D-01-0.560D-01 0.183D+00 0.903D+00
 Gap=     0.400 Goal=   None    Shift=    0.000
 RMSDP=1.39D-07 MaxDP=4.31D-06 DE=-5.97D-09 OVMax= 1.48D-05

 Cycle  12  Pass 1  IDiag  1:
 E= -526.838242451303     Delta-E=       -0.000000000886 Rises=F Damp=F
 DIIS: error= 5.19D-07 at cycle   6 NSaved=   6.
 NSaved= 6 IEnMin= 6 EnMin= -526.838242451303     IErMin= 6 ErrMin= 5.19D-07
 ErrMax= 5.19D-07  0.00D+00 EMaxC= 1.00D-01 BMatC= 1.45D-10 BMatP= 8.31D-10
 IDIUse=1 WtCom= 1.00D+00 WtEn= 0.00D+00
 Coeff-Com:  0.289D-02-0.284D-01-0.799D-01-0.480D-02 0.426D+00 0.684D+00
 Coeff:      0.289D-02-0.284D-01-0.799D-01-0.480D-02 0.426D+00 0.684D+00
 Gap=     0.400 Goal=   None    Shift=    0.000
 RMSDP=4.52D-08 MaxDP=1.20D-06 DE=-8.86D-10 OVMax= 5.73D-06

 Cycle  13  Pass 1  IDiag  1:
 E= -526.838242451420     Delta-E=       -0.000000000117 Rises=F Damp=F
 DIIS: error= 7.31D-08 at cycle   7 NSaved=   7.
 NSaved= 7 IEnMin= 7 EnMin= -526.838242451420     IErMin= 7 ErrMin= 7.31D-08
 ErrMax= 7.31D-08  0.00D+00 EMaxC= 1.00D-01 BMatC= 3.20D-12 BMatP= 1.45D-10
 IDIUse=1 WtCom= 1.00D+00 WtEn= 0.00D+00
 Coeff-Com:  0.107D-02-0.592D-02-0.178D-01-0.830D-02 0.533D-01 0.171D+00
 Coeff-Com:  0.807D+00
 Coeff:      0.107D-02-0.592D-02-0.178D-01-0.830D-02 0.533D-01 0.171D+00
 Coeff:      0.807D+00
 Gap=     0.400 Goal=   None    Shift=    0.000
 RMSDP=9.99D-09 MaxDP=3.38D-07 DE=-1.17D-10 OVMax= 7.07D-07

 SCF Done:  E(RM062X) =  -526.838242451     A.U. after   13 cycles
            NFock= 13  Conv=0.10D-07     -V/T= 2.0038
 KE= 5.248581455528D+02 PE=-1.918985115316D+03 EE= 5.318654002587D+02
 Leave Link  502 at Sun May 25 04:16:50 2025, MaxMem=  3758096384 cpu:              45.8 elap:               9.3
 (Enter /apps/easybuild-2022/easybuild/software/Compiler/NVHPC/22.11-CUDA-11.7.0/Gaussian/g16c01-CUDA-11.7.0/g16/l508.exe)
 QCSCF skips out because SCF is already converged.
 Leave Link  508 at Sun May 25 04:16:50 2025, MaxMem=  3758096384 cpu:               0.0 elap:               0.0
 (Enter /apps/easybuild-2022/easybuild/software/Compiler/NVHPC/22.11-CUDA-11.7.0/Gaussian/g16c01-CUDA-11.7.0/g16/l801.exe)
 DoSCS=F DFT=T ScalE2(SS,OS)=  1.000000  1.000000
 Range of M.O.s used for correlation:     1   231
 NBasis=   231 NAE=    28 NBE=    28 NFC=     0 NFV=     0
 NROrb=    231 NOA=    28 NOB=    28 NVA=   203 NVB=   203

 **** Warning!!: The largest alpha MO coefficient is  0.12012391D+02

 Leave Link  801 at Sun May 25 04:16:50 2025, MaxMem=  3758096384 cpu:               0.1 elap:               0.0
 (Enter /apps/easybuild-2022/easybuild/software/Compiler/NVHPC/22.11-CUDA-11.7.0/Gaussian/g16c01-CUDA-11.7.0/g16/l1101.exe)
 Using compressed storage, NAtomX=     8.
 Will process      9 centers per pass.
   1 Symmetry operations used in ECPInt.
 ECPInt:  NShTT=    3486 NPrTT=   11183 LenC2=    3391 LenP2D=    8624.
 LDataN:  DoStor=T MaxTD1= 7 Len=  274
 Leave Link 1101 at Sun May 25 04:16:51 2025, MaxMem=  3758096384 cpu:               1.0 elap:               0.2
 (Enter /apps/easybuild-2022/easybuild/software/Compiler/NVHPC/22.11-CUDA-11.7.0/Gaussian/g16c01-CUDA-11.7.0/g16/l1102.exe)
 Symmetrizing basis deriv contribution to polar:
 IMax=3 JMax=2 DiffMx= 0.00D+00
 Leave Link 1102 at Sun May 25 04:16:51 2025, MaxMem=  3758096384 cpu:               0.1 elap:               0.0
 (Enter /apps/easybuild-2022/easybuild/software/Compiler/NVHPC/22.11-CUDA-11.7.0/Gaussian/g16c01-CUDA-11.7.0/g16/l1110.exe)
 Forming Gx(P) for the SCF density, NAtomX=     8.
 Integral derivatives from FoFJK, PRISM(SPDF).
 Do as many integral derivatives as possible in FoFJK.
 G2DrvN: MDV=    3758095424.
 G2DrvN: will do     9 centers at a time, making    1 passes.
 Calling FoFCou, ICntrl=  3107 FMM=F I1Cent=   0 AccDes= 0.00D+00.
 FoFJK:  IHMeth= 1 ICntrl=    3107 DoSepK=F KAlg= 0 I1Cent=           0 FoldK=F
 IRaf=         0 NMat=       1 IRICut=       1 DoRegI=T DoRafI=F ISym2E= 0 IDoP0=0 IntGTp=1.
 FoFCou: FMM=F IPFlag=           0 FMFlag=      100000 FMFlg1=           0
         NFxFlg=           0 DoJE=F BraDBF=F KetDBF=F FulRan=T
         wScrn=  0.000000 ICntrl=      3107 IOpCl=  0 I1Cent=           0 NGrid=           0
         NMat0=    1 NMatS0=      1 NMatT0=    0 NMatD0=    1 NMtDS0=    0 NMtDT0=    0
 Symmetry not used in FoFCou.
 End of G2Drv F.D. properties file   721 does not exist.
 End of G2Drv F.D. properties file   722 does not exist.
 End of G2Drv F.D. properties file   788 does not exist.
 Leave Link 1110 at Sun May 25 04:17:05 2025, MaxMem=  3758096384 cpu:             117.0 elap:              14.8
 (Enter /apps/easybuild-2022/easybuild/software/Compiler/NVHPC/22.11-CUDA-11.7.0/Gaussian/g16c01-CUDA-11.7.0/g16/l1002.exe)
 Minotr:  Closed shell wavefunction.
          IDoAtm=11111111
          Direct CPHF calculation.
          Differentiating once with respect to nuclear coordinates.
          Requested convergence is 1.0D-08 RMS, and 1.0D-07 maximum.
          Secondary convergence is 1.0D-12 RMS, and 1.0D-12 maximum.
          NewPWx=T KeepS1=F KeepF1=F KeepIn=T MapXYZ=F SortEE=F KeepMc=T.
         2392 words used for storage of precomputed grid.
 Keep R1 ints in memory in canonical form, NReq=368655240.
 FoFCou: FMM=F IPFlag=           0 FMFlag=           0 FMFlg1=           0
         NFxFlg=           0 DoJE=F BraDBF=F KetDBF=F FulRan=T
         wScrn=  0.000000 ICntrl=       600 IOpCl=  0 I1Cent=           0 NGrid=           0
         NMat0=    1 NMatS0=  26796 NMatT0=    0 NMatD0=    1 NMtDS0=    0 NMtDT0=    0
 Symmetry not used in FoFCou.
 Two-electron integral symmetry not used.
          MDV=    3758096384 using IRadAn=       1.
          Solving linear equations simultaneously, MaxMat=       0.
          There are    27 degrees of freedom in the 1st order CPHF.  IDoFFX=6 NUNeed=     0.
     21 vectors produced by pass  0 Test12= 2.11D-14 3.70D-09 XBig12= 1.12D-01 7.34D-02.
 AX will form    21 AO Fock derivatives at one time.
     21 vectors produced by pass  1 Test12= 2.11D-14 3.70D-09 XBig12= 1.92D-02 7.19D-02.
     21 vectors produced by pass  2 Test12= 2.11D-14 3.70D-09 XBig12= 8.06D-04 7.50D-03.
     21 vectors produced by pass  3 Test12= 2.11D-14 3.70D-09 XBig12= 1.52D-05 8.34D-04.
     21 vectors produced by pass  4 Test12= 2.11D-14 3.70D-09 XBig12= 2.40D-07 8.36D-05.
     21 vectors produced by pass  5 Test12= 2.11D-14 3.70D-09 XBig12= 2.07D-09 8.94D-06.
     21 vectors produced by pass  6 Test12= 2.11D-14 3.70D-09 XBig12= 1.23D-11 5.98D-07.
     11 vectors produced by pass  7 Test12= 2.11D-14 3.70D-09 XBig12= 6.71D-14 4.62D-08.
 InvSVY:  IOpt=1 It=  1 EMax= 1.55D-15
 Solved reduced A of dimension   158 with    21 vectors.
 End of Minotr F.D. properties file   721 does not exist.
 End of Minotr F.D. properties file   722 does not exist.
 End of Minotr F.D. properties file   788 does not exist.
 Leave Link 1002 at Sun May 25 04:17:25 2025, MaxMem=  3758096384 cpu:             156.0 elap:              20.0
 (Enter /apps/easybuild-2022/easybuild/software/Compiler/NVHPC/22.11-CUDA-11.7.0/Gaussian/g16c01-CUDA-11.7.0/g16/l701.exe)
 ... and contract with generalized density number  0.
 Compute integral second derivatives.
   1 Symmetry operations used in ECPInt.
 ECPInt:  NShTT=    3486 NPrTT=   11183 LenC2=    3391 LenP2D=    8624.
 LDataN:  DoStor=T MaxTD1= 8 Len=  415
 Leave Link  701 at Sun May 25 04:17:26 2025, MaxMem=  3758096384 cpu:               1.1 elap:               0.3
 (Enter /apps/easybuild-2022/easybuild/software/Compiler/NVHPC/22.11-CUDA-11.7.0/Gaussian/g16c01-CUDA-11.7.0/g16/l702.exe)
 L702 exits ... SP integral derivatives will be done elsewhere.
 Leave Link  702 at Sun May 25 04:17:26 2025, MaxMem=  3758096384 cpu:               0.1 elap:               0.0
 (Enter /apps/easybuild-2022/easybuild/software/Compiler/NVHPC/22.11-CUDA-11.7.0/Gaussian/g16c01-CUDA-11.7.0/g16/l703.exe)
 Integral derivatives from FoFJK, PRISM(SPDF).
 Compute integral second derivatives, UseDBF=F ICtDFT=           0.
 Calling FoFJK, ICntrl=    100127 FMM=F ISym2X=0 I1Cent= 0 IOpClX= 0 NMat=1 NMatS=1 NMatT=0.
 FoFJK:  IHMeth= 1 ICntrl=  100127 DoSepK=F KAlg= 0 I1Cent=           0 FoldK=F
 IRaf=         0 NMat=       1 IRICut=       1 DoRegI=T DoRafI=F ISym2E= 0 IDoP0=0 IntGTp=1.
 FoFCou: FMM=F IPFlag=           0 FMFlag=      100000 FMFlg1=         800
         NFxFlg=           0 DoJE=F BraDBF=F KetDBF=F FulRan=T
         wScrn=  0.000000 ICntrl=    100127 IOpCl=  0 I1Cent=           0 NGrid=           0
         NMat0=    1 NMatS0=      1 NMatT0=    0 NMatD0=    1 NMtDS0=    0 NMtDT0=    0
 Symmetry not used in FoFCou.
 Leave Link  703 at Sun May 25 04:18:02 2025, MaxMem=  3758096384 cpu:             283.4 elap:              35.8
 (Enter /apps/easybuild-2022/easybuild/software/Compiler/NVHPC/22.11-CUDA-11.7.0/Gaussian/g16c01-CUDA-11.7.0/g16/l716.exe)
 Dipole        = 6.75939115D-01 4.99230094D-01 3.98643756D-01
 Polarizability= 0.00000000D+00 0.00000000D+00 0.00000000D+00
                 0.00000000D+00 0.00000000D+00 0.00000000D+00
 -------------------------------------------------------------------
 Center     Atomic                   Forces (Hartrees/Bohr)
 Number     Number              X              Y              Z
 -------------------------------------------------------------------
      1        6          -0.000607610   -0.005451038   -0.007816848
      2        8           0.012030811   -0.003436525   -0.006005727
      3        6           0.002563789   -0.000110561   -0.001267388
      4        9           0.010877462    0.002034644    0.006649301
      5        9          -0.000285658    0.003766753   -0.000293722
      6        9           0.001265862    0.004960736    0.006204361
      7        8          -0.027816701   -0.002174232    0.001792682
      8        1           0.001972046    0.000410224    0.000737341
 -------------------------------------------------------------------
 Cartesian Forces:  Max     0.027816701 RMS     0.007427542
 Force constants in Cartesian coordinates: 
                1             2             3             4             5 
      1  0.667523D+00
      2 -0.477560D-01  0.515956D+00
      3 -0.154404D+00  0.365645D+00  0.708311D+00
      4 -0.265458D+00  0.161014D+00  0.234358D+00  0.268892D+00
      5  0.171541D+00 -0.283314D+00 -0.290530D+00 -0.180354D+00  0.303696D+00
      6  0.247990D+00 -0.288666D+00 -0.477482D+00 -0.263287D+00  0.378324D+00
      7 -0.155837D+00 -0.166455D-01 -0.527769D-02 -0.160273D-01  0.669505D-02
      8 -0.333054D-01 -0.632332D-01  0.175226D-01  0.302961D-01  0.136847D-02
      9 -0.147206D-01  0.145272D-01 -0.536705D-01  0.366629D-01 -0.183431D-01
     10  0.689133D-02  0.309809D-01  0.143612D-01 -0.181326D-01  0.143842D-02
     11 -0.719943D-03 -0.281051D-02 -0.658051D-02  0.326822D-02  0.787480D-03
     12  0.415769D-03 -0.903008D-02  0.150174D-02  0.293431D-02  0.128099D-02
     13 -0.188877D-01 -0.617352D-02 -0.369591D-01 -0.948949D-02 -0.393168D-02
     14 -0.926324D-03  0.396272D-02 -0.166505D-01  0.116609D-02  0.209011D-02
     15 -0.588988D-02 -0.986085D-02 -0.285692D-01  0.174342D-02  0.121150D-02
     16  0.626044D-03 -0.347547D-01  0.188631D-01 -0.437257D-02  0.300405D-02
     17  0.273381D-02 -0.286436D-01  0.141238D-01 -0.796400D-02  0.776658D-02
     18  0.448034D-02  0.123738D-01 -0.255952D-03  0.571570D-03 -0.108103D-03
     19 -0.193736D+00 -0.767725D-01 -0.682646D-01  0.402019D-01 -0.599459D-02
     20 -0.540562D-01 -0.145452D+00 -0.895488D-01 -0.127212D-01 -0.289981D-01
     21 -0.403341D-01 -0.848994D-01 -0.162878D+00 -0.176525D-01 -0.735247D-01
     22 -0.411217D-01 -0.989225D-02 -0.267608D-02  0.438638D-02  0.760253D-02
     23 -0.375106D-01  0.353542D-02  0.601875D-02  0.529570D-02 -0.339652D-02
     24 -0.375368D-01 -0.893511D-04  0.130430D-01  0.466959D-02  0.168995D-02
                6             7             8             9            10 
      6  0.542987D+00
      7  0.142480D-01  0.572748D+00
      8 -0.255298D-01 -0.215467D-01  0.555450D+00
      9 -0.177780D-01 -0.187480D-01  0.255493D-01  0.568118D+00
     10  0.880526D-02 -0.198601D+00  0.996479D-01  0.616523D-01  0.186073D+00
     11  0.720636D-03  0.101235D+00 -0.171829D+00 -0.605961D-01 -0.153047D+00
     12  0.178944D-03  0.639669D-01 -0.603435D-01 -0.111511D+00 -0.896078D-01
     13 -0.471063D-02 -0.116623D+00 -0.121690D-01 -0.760743D-01  0.163908D-01
     14  0.433393D-02 -0.208253D-01 -0.816679D-01 -0.365957D-01  0.436980D-02
     15  0.945183D-02 -0.834730D-01 -0.328275D-01 -0.268082D+00  0.120015D-01
     16 -0.101101D-02 -0.985793D-01 -0.531578D-01  0.293684D-01  0.116905D-01
     17  0.132773D-02 -0.527656D-01 -0.242320D+00  0.878767D-01  0.210663D-01
     18  0.253569D-02  0.236334D-01  0.825630D-01 -0.117935D+00 -0.458630D-02
     19 -0.903055D-02  0.120736D-01 -0.931866D-02 -0.177220D-01 -0.469570D-02
     20 -0.726514D-01  0.415674D-02  0.755484D-03 -0.762491D-02 -0.443691D-02
     21 -0.550391D-01  0.489029D-02 -0.291548D-02  0.108747D-02 -0.309162D-02
     22  0.699620D-02  0.845728D-03 -0.446341D-03 -0.418681D-03  0.384050D-03
     23  0.214146D-02 -0.304088D-03  0.147611D-02 -0.479346D-02 -0.192372D-04
     24 -0.485384D-02  0.760086D-03 -0.401863D-02 -0.228409D-03  0.465493D-03
               11            12            13            14            15 
     11  0.258014D+00
     12  0.110819D+00  0.151687D+00
     13  0.107203D-01  0.281348D-01  0.120749D+00
     14 -0.128542D-01 -0.527598D-01  0.594627D-02  0.911716D-01
     15 -0.439362D-01 -0.602770D-01  0.943977D-01  0.454320D-01  0.413316D+00
     16  0.350067D-01 -0.905746D-02  0.170945D-01  0.130873D-01 -0.119251D-01
     17 -0.735020D-01  0.746665D-02  0.752444D-02 -0.264454D-02  0.388843D-01
     18 -0.278986D-02  0.173719D-01 -0.450319D-02  0.549299D-01 -0.682141D-01
     19  0.331019D-02  0.306400D-02 -0.945361D-02 -0.255531D-02 -0.647185D-02
     20  0.226888D-02  0.213745D-02 -0.812089D-03  0.504190D-03  0.184019D-02
     21  0.213417D-02  0.119356D-02  0.698735D-03  0.126892D-02  0.336432D-02
     22  0.226350D-03  0.149511D-03  0.219187D-03 -0.262595D-03 -0.382764D-03
     23 -0.755216D-04  0.429303D-03 -0.110466D-02 -0.561970D-03 -0.743392D-03
     24  0.228728D-03 -0.144610D-03 -0.984010D-03  0.412834D-04 -0.990693D-03
               16            17            18            19            20 
     16  0.791955D-01
     17  0.364080D-01  0.339004D+00
     18 -0.240070D-01 -0.148545D+00  0.165931D+00
     19 -0.551626D-02 -0.656932D-02  0.422851D-02  0.610437D+00
     20 -0.276043D-03  0.280476D-03  0.108856D-02  0.382012D-01  0.200875D+00
     21 -0.130915D-02 -0.447192D-03  0.360661D-03 -0.708692D-01  0.190994D+00
     22 -0.138504D-03 -0.433602D-03  0.182716D-03 -0.449310D+00  0.299445D-01
     23  0.682514D-03  0.594351D-04  0.488138D-03  0.596990D-01 -0.302340D-01
     24 -0.921659D-03 -0.686474D-03  0.206617D-03  0.165066D+00 -0.262349D-01
               21            22            23            24 
     21  0.293147D+00
     22  0.127668D+00  0.484735D+00
     23 -0.326102D-01 -0.267385D-01  0.291971D-01
     24 -0.812365D-01 -0.131518D+00  0.290694D-01  0.742044D-01
 FormGI is forming the generalized inverse of G from B-inverse, IUseBI=4.
 Force constants in internal coordinates: 
                1             2             3             4             5 
      1  0.966057D+00
      2  0.345046D-01  0.224757D+00
      3  0.960360D-01  0.510898D-02  0.427819D+00
      4  0.945497D-02  0.134601D-01  0.864516D-02  0.446695D+00
      5  0.649270D-02  0.220555D-01  0.339099D-02  0.600565D-01  0.446666D+00
      6  0.701828D-02  0.214534D-01  0.588627D-02  0.544810D-01  0.605800D-01
      7 -0.857193D-02 -0.154964D-02  0.112451D-01  0.248171D-04 -0.186669D-03
      8  0.183933D-01  0.443503D-01 -0.340260D-01  0.156860D-01 -0.835233D-02
      9  0.399163D-01 -0.294239D-01  0.394417D-01 -0.107530D-01 -0.594574D-02
     10 -0.583090D-01 -0.150250D-01 -0.541221D-02 -0.488282D-02  0.144012D-01
     11  0.233052D-01 -0.102675D-01 -0.621779D-03  0.583151D-03 -0.350258D-01
     12 -0.117196D-01  0.540699D-01  0.904886D-02 -0.359377D-01  0.823552D-02
     13 -0.596786D-03  0.149033D-01  0.409490D-02 -0.317322D-01 -0.236539D-01
     14 -0.360205D-02 -0.276575D-01 -0.482631D-02  0.385034D-01  0.300581D-01
     15 -0.611455D-02 -0.134915D-01 -0.429483D-02  0.295475D-01  0.240678D-03
     16 -0.409998D-02 -0.178597D-01 -0.360459D-02 -0.262541D-02  0.285030D-01
     17  0.494919D-02  0.158986D-02  0.462333D-01 -0.960602D-04  0.310654D-02
     18  0.310858D-02 -0.805293D-02 -0.576585D-03 -0.250314D-02 -0.211247D-01
     19  0.429712D-02 -0.647377D-02  0.171440D-03  0.191534D-01  0.220060D-02
     20 -0.610939D-02  0.508987D-02  0.212779D-02 -0.149246D-01  0.278553D-01
     21  0.172253D-02 -0.504420D-02 -0.162123D-02 -0.353279D-02 -0.234290D-01
     22  0.291107D-02 -0.346504D-02 -0.873200D-03  0.181238D-01 -0.103774D-03
     23 -0.749544D-02  0.809860D-02  0.108315D-02 -0.159543D-01  0.255509D-01
     24 -0.324406D-03  0.426640D-03  0.958617D-04 -0.696260D-03 -0.122991D-02
     25  0.285528D-03 -0.110812D-02 -0.670581D-03  0.109463D-02  0.135597D-02
                6             7             8             9            10 
      6  0.429515D+00
      7  0.206868D-03  0.524992D+00
      8  0.121319D-02  0.512605D-02  0.179618D+00
      9 -0.837304D-02 -0.954977D-02 -0.133062D+00  0.201148D+00
     10  0.699464D-02  0.442832D-02 -0.466689D-01 -0.681166D-01  0.114963D+00
     11 -0.326908D-01 -0.188393D-03  0.152127D-01 -0.524826D-02 -0.980069D-02
     12 -0.239145D-01 -0.837734D-03  0.193992D-01 -0.187661D-01 -0.685627D-03
     13  0.155140D-01 -0.757175D-04 -0.348514D-02 -0.291038D-02  0.616253D-02
     14 -0.216393D-02  0.701163D-03 -0.197908D-01  0.132812D-01  0.653173D-02
     15  0.200258D-01  0.238776D-03 -0.761753D-02  0.706256D-02  0.572964D-03
     16  0.289138D-01  0.180196D-03 -0.509644D-02  0.757692D-02 -0.239834D-02
     17  0.142875D-02  0.290002D-01  0.356088D-02 -0.277045D-01  0.241667D-01
     18  0.167259D-01  0.363667D-05 -0.667203D-02  0.503998D-02  0.202851D-02
     19 -0.286901D-01  0.107345D-03 -0.642865D-02  0.341034D-02  0.351201D-02
     20  0.147583D-03 -0.111761D-03 -0.477504D-02  0.199085D-02  0.324182D-02
     21  0.210648D-01  0.145271D-03 -0.115269D-02  0.600484D-03  0.100886D-03
     22 -0.243511D-01  0.248979D-03 -0.909315D-03 -0.102916D-02  0.158439D-02
     23  0.448654D-02  0.298730D-04  0.744297D-03 -0.244865D-02  0.131420D-02
     24  0.186596D-02 -0.154059D-03 -0.976617D-03  0.204611D-02 -0.157718D-02
     25 -0.265453D-02  0.948317D-04  0.648648D-03 -0.206579D-02  0.184867D-02
               11            12            13            14            15 
     11  0.153310D+00
     12 -0.144394D-01  0.232513D+00
     13 -0.510843D-02  0.127084D-01  0.172057D+00
     14 -0.647834D-01 -0.129927D+00 -0.155409D-01  0.157007D+00
     15 -0.721165D-01 -0.187049D-01 -0.102417D+00  0.300603D-01  0.142881D+00
     16 -0.102356D-01 -0.883225D-01 -0.717585D-01  0.301146D-01  0.275840D-01
     17 -0.247549D-02  0.344715D-02  0.446950D-03 -0.499444D-03  0.123492D-03
     18  0.614485D-02 -0.154623D-01  0.506997D-02 -0.254854D-01  0.246883D-01
     19  0.118036D-01 -0.311868D-02 -0.851587D-02  0.309997D-01 -0.584870D-04
     20 -0.890564D-02  0.102543D-01 -0.668747D-02 -0.222668D-02 -0.235925D-01
     21  0.213583D-02 -0.137316D-01  0.109545D-01 -0.262934D-01  0.240835D-01
     22  0.779462D-02 -0.138796D-02 -0.263129D-02  0.301917D-01 -0.663324D-03
     23 -0.129146D-01  0.119850D-01 -0.802899D-03 -0.303466D-02 -0.241973D-01
     24 -0.162762D-02  0.126149D-02  0.111742D-02 -0.144498D-03  0.133431D-03
     25  0.328209D-02  0.319693D-03 -0.538394D-02 -0.575359D-04  0.430156D-03
               16            17            18            19            20 
     16  0.131987D+00
     17 -0.877114D-03  0.178708D+00
     18  0.349633D-02 -0.718876D-03  0.346311D-01
     19 -0.377133D-01 -0.167632D-03 -0.838791D-02  0.385865D-01
     20  0.392207D-01  0.640453D-03 -0.931560D-02 -0.972160D-02  0.367616D-01
     21  0.126793D-02 -0.463501D-03  0.247121D-01 -0.206657D-01 -0.206694D-01
     22 -0.399417D-01  0.877431D-04 -0.183069D-01  0.263087D-01 -0.210754D-01
     23  0.369923D-01  0.895828D-03 -0.192346D-01 -0.219994D-01  0.254078D-01
     24 -0.694125D-03 -0.632511D-03 -0.634947D-02 -0.658923D-02 -0.628807D-02
     25  0.143575D-02  0.434935D-04  0.436243D-02  0.679629D-02  0.615002D-02
               21            22            23            24            25 
     21  0.358752D-01
     22 -0.950268D-02  0.351129D-01
     23 -0.950633D-02 -0.122711D-01  0.351361D-01
     24  0.616282D-02  0.592306D-02  0.622422D-02  0.161848D-01
     25 -0.626153D-02 -0.382767D-02 -0.447394D-02  0.222073D-02  0.140845D-01
 Leave Link  716 at Sun May 25 04:18:02 2025, MaxMem=  3758096384 cpu:               0.1 elap:               0.0
 (Enter /apps/easybuild-2022/easybuild/software/Compiler/NVHPC/22.11-CUDA-11.7.0/Gaussian/g16c01-CUDA-11.7.0/g16/l103.exe)

 GradGradGradGradGradGradGradGradGradGradGradGradGradGradGradGradGradGrad
 Berny optimization.
 Red2BG is reusing G-inverse.
 Internal  Forces:  Max     0.045586223 RMS     0.013674354
 Search for a local minimum.
 Step number   1 out of a maximum of   35
 All quantities printed in internal units (Hartrees-Bohrs-Radians)
 RMS Force = .13674D-01 SwitMx=.10000D-02 MixMth= 1
 Mixed Optimization -- RFO/linear search
 Second derivative matrix not updated -- analytic derivatives used.
 ITU=  0
     Eigenvalues ---    0.00052   0.01708   0.04327   0.11497   0.13196
     Eigenvalues ---    0.14026   0.16603   0.20568   0.21402   0.25874
     Eigenvalues ---    0.29365   0.39670   0.40130   0.43366   0.44560
     Eigenvalues ---    0.53004   0.59046   0.99313
 RFO step:  Lambda=-2.59232395D-02 EMin= 5.15408880D-04
 Linear search not attempted -- first point.
 Maximum step size (   0.300) exceeded in Quadratic search.
    -- Step size scaled by   0.781
 Iteration  1 RMS(Cart)=  0.14594595 RMS(Int)=  0.01067179
 Iteration  2 RMS(Cart)=  0.01435215 RMS(Int)=  0.00061616
 Iteration  3 RMS(Cart)=  0.00005640 RMS(Int)=  0.00061541
 Iteration  4 RMS(Cart)=  0.00000003 RMS(Int)=  0.00061541
 ITry= 1 IFail=0 DXMaxC= 4.23D-01 DCOld= 1.00D+10 DXMaxT= 3.00D-01 DXLimC= 3.00D+00 Rises=F
 Variable       Old X    -DE/DX   Delta X   Delta X   Delta X     New X
                                 (Linear)    (Quad)   (Total)
    R1        2.24468   0.01132   0.00000   0.00100   0.00100   2.24567
    R2        2.99919  -0.01547   0.00000  -0.09059  -0.09059   2.90860
    R3        2.52979  -0.01308   0.00000  -0.02514  -0.02514   2.50465
    R4        2.50270  -0.00248   0.00000   0.00087   0.00087   2.50357
    R5        2.50585  -0.00014   0.00000  -0.00362  -0.00362   2.50223
    R6        2.52022  -0.00157   0.00000  -0.00081  -0.00081   2.51942
    R7        1.82612   0.00160   0.00000   0.00171   0.00171   1.82784
    A1        1.93983   0.03175   0.00000   0.13883   0.13883   2.07866
    A2        2.14246   0.01381   0.00000   0.06508   0.06507   2.20754
    A3        2.19998  -0.04559   0.00000  -0.20345  -0.20346   1.99652
    A4        2.09232  -0.02206   0.00000  -0.10195  -0.10219   1.99013
    A5        1.85176   0.00677   0.00000   0.04276   0.04257   1.89433
    A6        1.87172   0.00111   0.00000   0.02662   0.02523   1.89694
    A7        1.86663   0.00754   0.00000   0.02966   0.03049   1.89712
    A8        1.90682   0.00283   0.00000  -0.00449  -0.00577   1.90105
    A9        1.86221   0.00696   0.00000   0.02066   0.01923   1.88144
   A10        1.82925   0.00251   0.00000   0.04388   0.04388   1.87312
    D1       -2.71849  -0.00512   0.00000  -0.00569  -0.00488  -2.72337
    D2       -0.60577  -0.00437   0.00000   0.00057  -0.00037  -0.60613
    D3        1.37946   0.00723   0.00000   0.05608   0.05617   1.43563
    D4        0.46811  -0.00498   0.00000  -0.02003  -0.01920   0.44892
    D5        2.58084  -0.00422   0.00000  -0.01377  -0.01468   2.56615
    D6       -1.71712   0.00737   0.00000   0.04174   0.04185  -1.67527
    D7        0.01462  -0.00035   0.00000  -0.01181  -0.01184   0.00278
    D8        3.10630  -0.00034   0.00000   0.00469   0.00472   3.11102
         Item               Value     Threshold  Converged?
 Maximum Force            0.045586     0.000450     NO 
 RMS     Force            0.013674     0.000300     NO 
 Maximum Displacement     0.423314     0.001800     NO 
 RMS     Displacement     0.153450     0.001200     NO 
 Predicted change in Energy=-1.358069D-02
 Lowest energy point so far.  Saving SCF results.
 GradGradGradGradGradGradGradGradGradGradGradGradGradGradGradGradGradGrad

 Leave Link  103 at Sun May 25 04:18:02 2025, MaxMem=  3758096384 cpu:               0.1 elap:               0.0
 (Enter /apps/easybuild-2022/easybuild/software/Compiler/NVHPC/22.11-CUDA-11.7.0/Gaussian/g16c01-CUDA-11.7.0/g16/l202.exe)
                          Input orientation:                          
 ---------------------------------------------------------------------
 Center     Atomic      Atomic             Coordinates (Angstroms)
 Number     Number       Type             X           Y           Z
 ---------------------------------------------------------------------
      1          6           0        0.996323    0.126790   -0.122211
      2          8           0        1.578160   -0.453562   -0.980614
      3          6           0       -0.522588   -0.076225    0.021734
      4          9           0       -1.146449    0.926986    0.621357
      5          9           0       -1.041927   -0.238168   -1.185478
      6          9           0       -0.740369   -1.195511    0.712558
      7          8           0        1.529065    0.933613    0.784384
      8          1           0        2.481232    0.965739    0.617303
 ---------------------------------------------------------------------
                    Distance matrix (angstroms):
                    1          2          3          4          5
     1  C    0.000000
     2  O    1.188360   0.000000
     3  C    1.539163   2.358012   0.000000
     4  F    2.405135   3.449016   1.324833   0.000000
     5  F    2.327701   2.636895   1.324122   2.152478   0.000000
     6  F    2.336967   2.965282   1.333218   2.162917   2.147087
     7  O    1.325403   2.245414   2.410536   2.680484   3.444332
     8  H    1.858943   2.320192   3.234706   3.627890   4.136672
                    6          7          8
     6  F    0.000000
     7  O    3.112661   0.000000
     8  H    3.880565   0.967249   0.000000
 Symmetry turned off by external request.
 Stoichiometry    C2HF3O2
 Rotational constants (GHZ):           3.9086784           2.5043663           2.0797703
 Leave Link  202 at Sun May 25 04:18:02 2025, MaxMem=  3758096384 cpu:               0.1 elap:               0.0
 (Enter /apps/easybuild-2022/easybuild/software/Compiler/NVHPC/22.11-CUDA-11.7.0/Gaussian/g16c01-CUDA-11.7.0/g16/l301.exe)
 Standard basis: def2TZVPP (5D, 7F)
 Ernie: Thresh=  0.10000D-02 Tol=  0.10000D-05 Strict=F.
   231 basis functions,   374 primitive gaussians,   267 cartesian basis functions
    28 alpha electrons       28 beta electrons
       nuclear repulsion energy       338.4147086325 Hartrees.
 IExCor= 4336 DFT=T Ex+Corr=M062X ExCW=0 ScaHFX=  0.540000
 ScaDFX=  1.000000  1.000000  1.000000  1.000000 ScalE2=  1.000000  1.000000
 IRadAn=      5 IRanWt=     -1 IRanGd=            0 ICorTp=0 IEmpDi=  4
 NAtoms=    8 NActive=    8 NUniq=    8 SFac= 1.00D+00 NAtFMM=   60 NAOKFM=F Big=F
 Integral buffers will be    131072 words long.
 Raffenetti 2 integral format.
 Two-electron integral symmetry is turned off.
 Leave Link  301 at Sun May 25 04:18:02 2025, MaxMem=  3758096384 cpu:               0.1 elap:               0.0
 (Enter /apps/easybuild-2022/easybuild/software/Compiler/NVHPC/22.11-CUDA-11.7.0/Gaussian/g16c01-CUDA-11.7.0/g16/l302.exe)
 NPDir=0 NMtPBC=     1 NCelOv=     1 NCel=       1 NClECP=     1 NCelD=      1
         NCelK=      1 NCelE2=     1 NClLst=     1 CellRange=     0.0.
 One-electron integrals computed using PRISM.
   1 Symmetry operations used in ECPInt.
 ECPInt:  NShTT=    3486 NPrTT=   11183 LenC2=    3402 LenP2D=    8706.
 LDataN:  DoStor=T MaxTD1= 6 Len=  172
 NBasis=   231 RedAO= T EigKep=  5.29D-04  NBF=   231
 NBsUse=   231 1.00D-06 EigRej= -1.00D+00 NBFU=   231
 Precomputing XC quadrature grid using
 IXCGrd= 4 IRadAn=           5 IRanWt=          -1 IRanGd=           0 AccXCQ= 0.00D+00.
 Generated NRdTot=       0 NPtTot=           0 NUsed=           0 NTot=          32
 NSgBfM=   266   266   266   266   266 MxSgAt=     8 MxSgA2=     8.
 Leave Link  302 at Sun May 25 04:18:02 2025, MaxMem=  3758096384 cpu:               0.7 elap:               0.1
 (Enter /apps/easybuild-2022/easybuild/software/Compiler/NVHPC/22.11-CUDA-11.7.0/Gaussian/g16c01-CUDA-11.7.0/g16/l303.exe)
 DipDrv:  MaxL=1.
 Leave Link  303 at Sun May 25 04:18:02 2025, MaxMem=  3758096384 cpu:               0.1 elap:               0.0
 (Enter /apps/easybuild-2022/easybuild/software/Compiler/NVHPC/22.11-CUDA-11.7.0/Gaussian/g16c01-CUDA-11.7.0/g16/l401.exe)
 Initial guess from the checkpoint file:  "1141903082400600000001_r12_insertion_R_2_1_3_IRC_R_prod.chk"
 B after Tr=     0.032335   -0.004988   -0.012992
         Rot=    0.999899    0.002046   -0.010712    0.009123 Ang=   1.63 deg.
 Guess basis will be translated and rotated to current coordinates.
 JPrj=2 DoOrth=T DoCkMO=T.
 Generating alternative initial guess.
 ExpMin= 9.52D-02 ExpMax= 3.55D+04 ExpMxC= 1.21D+03 IAcc=3 IRadAn=         5 AccDes= 0.00D+00
 Harris functional with IExCor= 1009 and IRadAn=       5 diagonalized for initial guess.
 HarFok:  IExCor= 1009 AccDes= 0.00D+00 IRadAn=         5 IDoV= 1 UseB2=F ITyADJ=14
 ICtDFT=  3500011 ScaDFX=  1.000000  1.000000  1.000000  1.000000
 FoFCou: FMM=F IPFlag=           0 FMFlag=      100000 FMFlg1=           0
         NFxFlg=           0 DoJE=T BraDBF=F KetDBF=T FulRan=T
         wScrn=  0.000000 ICntrl=       500 IOpCl=  0 I1Cent=   200000004 NGrid=           0
         NMat0=    1 NMatS0=      1 NMatT0=    0 NMatD0=    1 NMtDS0=    0 NMtDT0=    0
 Symmetry not used in FoFCou.
 Harris En= -526.546487164462    
 Leave Link  401 at Sun May 25 04:18:03 2025, MaxMem=  3758096384 cpu:               2.8 elap:               0.6
 (Enter /apps/easybuild-2022/easybuild/software/Compiler/NVHPC/22.11-CUDA-11.7.0/Gaussian/g16c01-CUDA-11.7.0/g16/l502.exe)
 Keep R1 ints in memory in canonical form, NReq=368651279.
 FoFCou: FMM=F IPFlag=           0 FMFlag=           0 FMFlg1=           0
         NFxFlg=           0 DoJE=F BraDBF=F KetDBF=F FulRan=T
         wScrn=  0.000000 ICntrl=       600 IOpCl=  0 I1Cent=           0 NGrid=           0
         NMat0=    1 NMatS0=  26796 NMatT0=    0 NMatD0=    1 NMtDS0=    0 NMtDT0=    0
 Symmetry not used in FoFCou.
 Two-electron integral symmetry not used.
 Closed shell SCF:
 Using DIIS extrapolation, IDIIS=  1040.
 NGot=  3758096384 LenX=  3398923531 LenY=  3398851801
 Requested convergence on RMS density matrix=1.00D-08 within  32 cycles.
 Requested convergence on MAX density matrix=1.00D-06.
 Requested convergence on             energy=1.00D-06.
 No special actions if energy rises.
 Integral accuracy reduced to 1.0D-05 until final iterations.

 Cycle   1  Pass 0  IDiag  1:
 E= -526.817127670169    
 DIIS: error= 8.00D-03 at cycle   1 NSaved=   1.
 NSaved= 1 IEnMin= 1 EnMin= -526.817127670169     IErMin= 1 ErrMin= 8.00D-03
 ErrMax= 8.00D-03  0.00D+00 EMaxC= 1.00D-01 BMatC= 2.94D-02 BMatP= 2.94D-02
 IDIUse=3 WtCom= 9.20D-01 WtEn= 8.00D-02
 Coeff-Com:  0.100D+01
 Coeff-En:   0.100D+01
 Coeff:      0.100D+01
 Gap=     1.103 Goal=   None    Shift=    0.000
 GapD=    1.103 DampG=2.000 DampE=1.000 DampFc=2.0000 IDamp=-1.
 RMSDP=6.47D-04 MaxDP=1.45D-02              OVMax= 3.79D-02

 Cycle   2  Pass 0  IDiag  1:
 E= -526.849428347870     Delta-E=       -0.032300677701 Rises=F Damp=F
 DIIS: error= 1.78D-03 at cycle   2 NSaved=   2.
 NSaved= 2 IEnMin= 2 EnMin= -526.849428347870     IErMin= 2 ErrMin= 1.78D-03
 ErrMax= 1.78D-03  0.00D+00 EMaxC= 1.00D-01 BMatC= 1.34D-03 BMatP= 2.94D-02
 IDIUse=3 WtCom= 9.82D-01 WtEn= 1.78D-02
 Coeff-Com: -0.823D-01 0.108D+01
 Coeff-En:   0.000D+00 0.100D+01
 Coeff:     -0.808D-01 0.108D+01
 Gap=     0.404 Goal=   None    Shift=    0.000
 RMSDP=1.86D-04 MaxDP=4.22D-03 DE=-3.23D-02 OVMax= 1.11D-02

 Cycle   3  Pass 0  IDiag  1:
 E= -526.850334290514     Delta-E=       -0.000905942644 Rises=F Damp=F
 DIIS: error= 1.44D-03 at cycle   3 NSaved=   3.
 NSaved= 3 IEnMin= 3 EnMin= -526.850334290514     IErMin= 3 ErrMin= 1.44D-03
 ErrMax= 1.44D-03  0.00D+00 EMaxC= 1.00D-01 BMatC= 1.21D-03 BMatP= 1.34D-03
 IDIUse=3 WtCom= 9.86D-01 WtEn= 1.44D-02
 Coeff-Com: -0.788D-01 0.566D+00 0.513D+00
 Coeff-En:   0.000D+00 0.301D-01 0.970D+00
 Coeff:     -0.777D-01 0.558D+00 0.520D+00
 Gap=     0.405 Goal=   None    Shift=    0.000
 RMSDP=7.76D-05 MaxDP=3.38D-03 DE=-9.06D-04 OVMax= 7.95D-03

 Cycle   4  Pass 0  IDiag  1:
 E= -526.851096755641     Delta-E=       -0.000762465128 Rises=F Damp=F
 DIIS: error= 3.46D-04 at cycle   4 NSaved=   4.
 NSaved= 4 IEnMin= 4 EnMin= -526.851096755641     IErMin= 4 ErrMin= 3.46D-04
 ErrMax= 3.46D-04  0.00D+00 EMaxC= 1.00D-01 BMatC= 3.86D-05 BMatP= 1.21D-03
 IDIUse=3 WtCom= 9.97D-01 WtEn= 3.46D-03
 Coeff-Com: -0.176D-01 0.725D-01 0.166D+00 0.779D+00
 Coeff-En:   0.000D+00 0.000D+00 0.000D+00 0.100D+01
 Coeff:     -0.176D-01 0.723D-01 0.166D+00 0.780D+00
 Gap=     0.403 Goal=   None    Shift=    0.000
 RMSDP=2.27D-05 MaxDP=6.45D-04 DE=-7.62D-04 OVMax= 2.33D-03

 Cycle   5  Pass 0  IDiag  1:
 E= -526.851118318999     Delta-E=       -0.000021563357 Rises=F Damp=F
 DIIS: error= 2.26D-04 at cycle   5 NSaved=   5.
 NSaved= 5 IEnMin= 5 EnMin= -526.851118318999     IErMin= 5 ErrMin= 2.26D-04
 ErrMax= 2.26D-04  0.00D+00 EMaxC= 1.00D-01 BMatC= 1.20D-05 BMatP= 3.86D-05
 IDIUse=3 WtCom= 9.98D-01 WtEn= 2.26D-03
 Coeff-Com: -0.540D-03-0.255D-01 0.328D-01 0.430D+00 0.563D+00
 Coeff-En:   0.000D+00 0.000D+00 0.000D+00 0.124D+00 0.876D+00
 Coeff:     -0.538D-03-0.254D-01 0.327D-01 0.430D+00 0.564D+00
 Gap=     0.404 Goal=   None    Shift=    0.000
 RMSDP=8.17D-06 MaxDP=3.45D-04 DE=-2.16D-05 OVMax= 1.03D-03

 Initial convergence to 1.0D-05 achieved.  Increase integral accuracy.
 Cycle   6  Pass 1  IDiag  1:
 E= -526.851163270127     Delta-E=       -0.000044951129 Rises=F Damp=F
 DIIS: error= 4.79D-05 at cycle   1 NSaved=   1.
 NSaved= 1 IEnMin= 1 EnMin= -526.851163270127     IErMin= 1 ErrMin= 4.79D-05
 ErrMax= 4.79D-05  0.00D+00 EMaxC= 1.00D-01 BMatC= 1.08D-06 BMatP= 1.08D-06
 IDIUse=1 WtCom= 1.00D+00 WtEn= 0.00D+00
 Coeff-Com:  0.100D+01
 Coeff:      0.100D+01
 Gap=     0.404 Goal=   None    Shift=    0.000
 RMSDP=8.17D-06 MaxDP=3.45D-04 DE=-4.50D-05 OVMax= 4.76D-04

 Cycle   7  Pass 1  IDiag  1:
 E= -526.851163165097     Delta-E=        0.000000105030 Rises=F Damp=F
 DIIS: error= 7.79D-05 at cycle   2 NSaved=   2.
 NSaved= 2 IEnMin= 1 EnMin= -526.851163270127     IErMin= 1 ErrMin= 4.79D-05
 ErrMax= 7.79D-05  0.00D+00 EMaxC= 1.00D-01 BMatC= 1.32D-06 BMatP= 1.08D-06
 IDIUse=1 WtCom= 1.00D+00 WtEn= 0.00D+00
 Coeff-Com:  0.528D+00 0.472D+00
 Coeff:      0.528D+00 0.472D+00
 Gap=     0.404 Goal=   None    Shift=    0.000
 RMSDP=2.62D-06 MaxDP=1.38D-04 DE= 1.05D-07 OVMax= 3.57D-04

 Cycle   8  Pass 1  IDiag  1:
 E= -526.851163981621     Delta-E=       -0.000000816524 Rises=F Damp=F
 DIIS: error= 1.69D-05 at cycle   3 NSaved=   3.
 NSaved= 3 IEnMin= 3 EnMin= -526.851163981621     IErMin= 3 ErrMin= 1.69D-05
 ErrMax= 1.69D-05  0.00D+00 EMaxC= 1.00D-01 BMatC= 6.23D-08 BMatP= 1.08D-06
 IDIUse=1 WtCom= 1.00D+00 WtEn= 0.00D+00
 Coeff-Com:  0.575D-01 0.185D+00 0.758D+00
 Coeff:      0.575D-01 0.185D+00 0.758D+00
 Gap=     0.404 Goal=   None    Shift=    0.000
 RMSDP=9.85D-07 MaxDP=3.46D-05 DE=-8.17D-07 OVMax= 8.28D-05

 Cycle   9  Pass 1  IDiag  1:
 E= -526.851164023584     Delta-E=       -0.000000041963 Rises=F Damp=F
 DIIS: error= 4.60D-06 at cycle   4 NSaved=   4.
 NSaved= 4 IEnMin= 4 EnMin= -526.851164023584     IErMin= 4 ErrMin= 4.60D-06
 ErrMax= 4.60D-06  0.00D+00 EMaxC= 1.00D-01 BMatC= 7.87D-09 BMatP= 6.23D-08
 IDIUse=1 WtCom= 1.00D+00 WtEn= 0.00D+00
 Coeff-Com: -0.231D-01 0.409D-01 0.349D+00 0.633D+00
 Coeff:     -0.231D-01 0.409D-01 0.349D+00 0.633D+00
 Gap=     0.404 Goal=   None    Shift=    0.000
 RMSDP=2.72D-07 MaxDP=9.84D-06 DE=-4.20D-08 OVMax= 2.19D-05

 Cycle  10  Pass 1  IDiag  1:
 E= -526.851164029038     Delta-E=       -0.000000005454 Rises=F Damp=F
 DIIS: error= 1.17D-06 at cycle   5 NSaved=   5.
 NSaved= 5 IEnMin= 5 EnMin= -526.851164029038     IErMin= 5 ErrMin= 1.17D-06
 ErrMax= 1.17D-06  0.00D+00 EMaxC= 1.00D-01 BMatC= 5.42D-10 BMatP= 7.87D-09
 IDIUse=1 WtCom= 1.00D+00 WtEn= 0.00D+00
 Coeff-Com: -0.129D-01-0.280D-02 0.530D-01 0.233D+00 0.730D+00
 Coeff:     -0.129D-01-0.280D-02 0.530D-01 0.233D+00 0.730D+00
 Gap=     0.404 Goal=   None    Shift=    0.000
 RMSDP=9.60D-08 MaxDP=2.96D-06 DE=-5.45D-09 OVMax= 9.11D-06

 Cycle  11  Pass 1  IDiag  1:
 E= -526.851164029589     Delta-E=       -0.000000000551 Rises=F Damp=F
 DIIS: error= 4.07D-07 at cycle   6 NSaved=   6.
 NSaved= 6 IEnMin= 6 EnMin= -526.851164029589     IErMin= 6 ErrMin= 4.07D-07
 ErrMax= 4.07D-07  0.00D+00 EMaxC= 1.00D-01 BMatC= 5.58D-11 BMatP= 5.42D-10
 IDIUse=1 WtCom= 1.00D+00 WtEn= 0.00D+00
 Coeff-Com:  0.335D-03-0.766D-02-0.459D-01-0.474D-01 0.195D+00 0.905D+00
 Coeff:      0.335D-03-0.766D-02-0.459D-01-0.474D-01 0.195D+00 0.905D+00
 Gap=     0.404 Goal=   None    Shift=    0.000
 RMSDP=4.38D-08 MaxDP=9.85D-07 DE=-5.51D-10 OVMax= 6.61D-06

 Cycle  12  Pass 1  IDiag  1:
 E= -526.851164029699     Delta-E=       -0.000000000109 Rises=F Damp=F
 DIIS: error= 9.20D-08 at cycle   7 NSaved=   7.
 NSaved= 7 IEnMin= 7 EnMin= -526.851164029699     IErMin= 7 ErrMin= 9.20D-08
 ErrMax= 9.20D-08  0.00D+00 EMaxC= 1.00D-01 BMatC= 3.92D-12 BMatP= 5.58D-11
 IDIUse=1 WtCom= 1.00D+00 WtEn= 0.00D+00
 Coeff-Com:  0.111D-02-0.158D-02-0.148D-01-0.301D-01-0.734D-02 0.217D+00
 Coeff-Com:  0.836D+00
 Coeff:      0.111D-02-0.158D-02-0.148D-01-0.301D-01-0.734D-02 0.217D+00
 Coeff:      0.836D+00
 Gap=     0.404 Goal=   None    Shift=    0.000
 RMSDP=1.25D-08 MaxDP=3.38D-07 DE=-1.09D-10 OVMax= 2.37D-06

 Cycle  13  Pass 1  IDiag  1:
 E= -526.851164029699     Delta-E=       -0.000000000000 Rises=F Damp=F
 DIIS: error= 4.71D-08 at cycle   8 NSaved=   8.
 NSaved= 8 IEnMin= 8 EnMin= -526.851164029699     IErMin= 8 ErrMin= 4.71D-08
 ErrMax= 4.71D-08  0.00D+00 EMaxC= 1.00D-01 BMatC= 4.12D-13 BMatP= 3.92D-12
 IDIUse=1 WtCom= 1.00D+00 WtEn= 0.00D+00
 Coeff-Com: -0.110D-03 0.947D-03 0.594D-02 0.635D-02-0.212D-01-0.114D+00
 Coeff-Com: -0.349D-01 0.116D+01
 Coeff:     -0.110D-03 0.947D-03 0.594D-02 0.635D-02-0.212D-01-0.114D+00
 Coeff:     -0.349D-01 0.116D+01
 Gap=     0.404 Goal=   None    Shift=    0.000
 RMSDP=7.04D-09 MaxDP=1.97D-07 DE=-4.55D-13 OVMax= 1.43D-06

 SCF Done:  E(RM062X) =  -526.851164030     A.U. after   13 cycles
            NFock= 13  Conv=0.70D-08     -V/T= 2.0036
 KE= 5.249480656069D+02 PE=-1.925008657585D+03 EE= 5.347947193163D+02
 Leave Link  502 at Sun May 25 04:18:12 2025, MaxMem=  3758096384 cpu:              47.8 elap:               9.6
 (Enter /apps/easybuild-2022/easybuild/software/Compiler/NVHPC/22.11-CUDA-11.7.0/Gaussian/g16c01-CUDA-11.7.0/g16/l508.exe)
 QCSCF skips out because SCF is already converged.
 Leave Link  508 at Sun May 25 04:18:12 2025, MaxMem=  3758096384 cpu:               0.1 elap:               0.0
 (Enter /apps/easybuild-2022/easybuild/software/Compiler/NVHPC/22.11-CUDA-11.7.0/Gaussian/g16c01-CUDA-11.7.0/g16/l701.exe)
 ... and contract with generalized density number  0.
 Compute integral first derivatives.
   1 Symmetry operations used in ECPInt.
 ECPInt:  NShTT=    3486 NPrTT=   11183 LenC2=    3402 LenP2D=    8706.
 LDataN:  DoStor=T MaxTD1= 7 Len=  274
 Leave Link  701 at Sun May 25 04:18:12 2025, MaxMem=  3758096384 cpu:               0.6 elap:               0.1
 (Enter /apps/easybuild-2022/easybuild/software/Compiler/NVHPC/22.11-CUDA-11.7.0/Gaussian/g16c01-CUDA-11.7.0/g16/l702.exe)
 L702 exits ... SP integral derivatives will be done elsewhere.
 Leave Link  702 at Sun May 25 04:18:12 2025, MaxMem=  3758096384 cpu:               0.0 elap:               0.0
 (Enter /apps/easybuild-2022/easybuild/software/Compiler/NVHPC/22.11-CUDA-11.7.0/Gaussian/g16c01-CUDA-11.7.0/g16/l703.exe)
 Integral derivatives from FoFJK, PRISM(SPDF).
 Compute integral first derivatives, UseDBF=F ICtDFT=           0.
 Calling FoFJK, ICntrl=      2127 FMM=F ISym2X=0 I1Cent= 0 IOpClX= 0 NMat=1 NMatS=1 NMatT=0.
 FoFJK:  IHMeth= 1 ICntrl=    2127 DoSepK=F KAlg= 0 I1Cent=           0 FoldK=F
 IRaf=         0 NMat=       1 IRICut=       1 DoRegI=T DoRafI=F ISym2E= 0 IDoP0=0 IntGTp=1.
 FoFCou: FMM=F IPFlag=           0 FMFlag=      100000 FMFlg1=         800
         NFxFlg=           0 DoJE=F BraDBF=F KetDBF=F FulRan=T
         wScrn=  0.000000 ICntrl=      2127 IOpCl=  0 I1Cent=           0 NGrid=           0
         NMat0=    1 NMatS0=      1 NMatT0=    0 NMatD0=    1 NMtDS0=    0 NMtDT0=    0
 Symmetry not used in FoFCou.
 Leave Link  703 at Sun May 25 04:18:16 2025, MaxMem=  3758096384 cpu:              26.0 elap:               3.4
 (Enter /apps/easybuild-2022/easybuild/software/Compiler/NVHPC/22.11-CUDA-11.7.0/Gaussian/g16c01-CUDA-11.7.0/g16/l716.exe)
 Dipole        = 6.73622714D-01 5.12794913D-01 4.30998868D-01
 -------------------------------------------------------------------
 Center     Atomic                   Forces (Hartrees/Bohr)
 Number     Number              X              Y              Z
 -------------------------------------------------------------------
      1        6           0.000650542   -0.002420270   -0.003291237
      2        8           0.005296398    0.000247386   -0.001213829
      3        6          -0.003362943   -0.002226446   -0.001419987
      4        9           0.002245522    0.000093617    0.001413571
      5        9          -0.001702059    0.001665732   -0.000071502
      6        9           0.000145386    0.001957443    0.002783216
      7        8          -0.003912138    0.000330609    0.000939904
      8        1           0.000639291    0.000351929    0.000859864
 -------------------------------------------------------------------
 Cartesian Forces:  Max     0.005296398 RMS     0.002110262
 Leave Link  716 at Sun May 25 04:18:16 2025, MaxMem=  3758096384 cpu:               0.1 elap:               0.0
 (Enter /apps/easybuild-2022/easybuild/software/Compiler/NVHPC/22.11-CUDA-11.7.0/Gaussian/g16c01-CUDA-11.7.0/g16/l103.exe)

 GradGradGradGradGradGradGradGradGradGradGradGradGradGradGradGradGradGrad
 Berny optimization.
 Using GEDIIS/GDIIS optimizer.
 FormGI is forming the generalized inverse of G from B-inverse, IUseBI=4.
 Internal  Forces:  Max     0.010685336 RMS     0.003585082
 Search for a local minimum.
 Step number   2 out of a maximum of   35
 All quantities printed in internal units (Hartrees-Bohrs-Radians)
 RMS Force = .35851D-02 SwitMx=.10000D-02 MixMth= 1
 Mixed Optimization -- RFO/linear search
 Update second derivatives using D2CorX and points    1    2
 DE= -1.29D-02 DEPred=-1.36D-02 R= 9.51D-01
 TightC=F SS=  1.41D+00  RLast= 3.09D-01 DXNew= 5.0454D-01 9.2752D-01
 Trust test= 9.51D-01 RLast= 3.09D-01 DXMaxT set to 5.05D-01
 ITU=  1  0
 Use linear search instead of GDIIS.
     Eigenvalues ---    0.00052   0.01708   0.04341   0.11462   0.13986
     Eigenvalues ---    0.14579   0.17556   0.20116   0.21404   0.25715
     Eigenvalues ---    0.29383   0.39654   0.40520   0.43958   0.44661
     Eigenvalues ---    0.53022   0.59028   0.99091
 RFO step:  Lambda=-6.28534571D-04 EMin= 5.16099440D-04
 Quartic linear search produced a step of  0.23673.
 Iteration  1 RMS(Cart)=  0.10903771 RMS(Int)=  0.00611646
 Iteration  2 RMS(Cart)=  0.00740025 RMS(Int)=  0.00028522
 Iteration  3 RMS(Cart)=  0.00003080 RMS(Int)=  0.00028431
 Iteration  4 RMS(Cart)=  0.00000000 RMS(Int)=  0.00028431
 ITry= 1 IFail=0 DXMaxC= 2.26D-01 DCOld= 1.00D+10 DXMaxT= 5.05D-01 DXLimC= 3.00D+00 Rises=F
 Variable       Old X    -DE/DX   Delta X   Delta X   Delta X     New X
                                 (Linear)    (Quad)   (Total)
    R1        2.24567   0.00335   0.00024  -0.00057  -0.00034   2.24534
    R2        2.90860   0.00270  -0.02145   0.03036   0.00891   2.91751
    R3        2.50465   0.00033  -0.00595   0.00965   0.00370   2.50835
    R4        2.50357  -0.00035   0.00021   0.00093   0.00113   2.50470
    R5        2.50223   0.00053  -0.00086  -0.00776  -0.00862   2.49361
    R6        2.51942  -0.00023  -0.00019   0.00340   0.00321   2.52263
    R7        1.82784   0.00049   0.00041  -0.00024   0.00016   1.82800
    A1        2.07866   0.01014   0.03286   0.02385   0.05668   2.13534
    A2        2.20754   0.00054   0.01541  -0.00748   0.00791   2.21545
    A3        1.99652  -0.01069  -0.04817  -0.01683  -0.06502   1.93150
    A4        1.99013  -0.00558  -0.02419  -0.01238  -0.03669   1.95344
    A5        1.89433   0.00436   0.01008   0.01427   0.02427   1.91860
    A6        1.89694   0.00025   0.00597  -0.00274   0.00260   1.89954
    A7        1.89712   0.00026   0.00722   0.00066   0.00826   1.90537
    A8        1.90105  -0.00067  -0.00137  -0.00593  -0.00793   1.89312
    A9        1.88144   0.00177   0.00455   0.00725   0.01121   1.89264
   A10        1.87312   0.00174   0.01039   0.00361   0.01400   1.88712
    D1       -2.72337  -0.00146  -0.00116   0.16478   0.16398  -2.55939
    D2       -0.60613  -0.00167  -0.00009   0.16777   0.16723  -0.43890
    D3        1.43563   0.00297   0.01330   0.18275   0.19599   1.63161
    D4        0.44892  -0.00132  -0.00454   0.18013   0.17605   0.62496
    D5        2.56615  -0.00153  -0.00348   0.18312   0.17930   2.74545
    D6       -1.67527   0.00312   0.00991   0.19810   0.20805  -1.46722
    D7        0.00278  -0.00031  -0.00280  -0.01683  -0.01978  -0.01700
    D8        3.11102  -0.00029   0.00112  -0.03289  -0.03162   3.07940
         Item               Value     Threshold  Converged?
 Maximum Force            0.010685     0.000450     NO 
 RMS     Force            0.003585     0.000300     NO 
 Maximum Displacement     0.225656     0.001800     NO 
 RMS     Displacement     0.110702     0.001200     NO 
 Predicted change in Energy=-1.189923D-03
 Lowest energy point so far.  Saving SCF results.
 GradGradGradGradGradGradGradGradGradGradGradGradGradGradGradGradGradGrad

 Leave Link  103 at Sun May 25 04:18:16 2025, MaxMem=  3758096384 cpu:               0.1 elap:               0.0
 (Enter /apps/easybuild-2022/easybuild/software/Compiler/NVHPC/22.11-CUDA-11.7.0/Gaussian/g16c01-CUDA-11.7.0/g16/l202.exe)
                          Input orientation:                          
 ---------------------------------------------------------------------
 Center     Atomic      Atomic             Coordinates (Angstroms)
 Number     Number       Type             X           Y           Z
 ---------------------------------------------------------------------
      1          6           0        0.998662    0.135611   -0.178441
      2          8           0        1.601130   -0.334150   -1.088461
      3          6           0       -0.518645   -0.080835    0.007282
      4          9           0       -1.106177    0.975148    0.551779
      5          9           0       -1.082287   -0.337495   -1.157910
      6          9           0       -0.709235   -1.131032    0.809008
      7          8           0        1.496368    0.848654    0.824428
      8          1           0        2.453630    0.913762    0.701348
 ---------------------------------------------------------------------
                    Distance matrix (angstroms):
                    1          2          3          4          5
     1  C    0.000000
     2  O    1.188182   0.000000
     3  C    1.543879   2.399638   0.000000
     4  F    2.380839   3.425516   1.325433   0.000000
     5  F    2.348092   2.684317   1.319560   2.155607   0.000000
     6  F    2.344430   3.094058   1.334916   2.158639   2.153517
     7  O    1.327361   2.251475   2.364732   2.619844   3.462091
     8  H    1.869887   2.342532   3.210197   3.563476   4.186310
                    6          7          8
     6  F    0.000000
     7  O    2.963795   0.000000
     8  H    3.767822   0.967335   0.000000
 Symmetry turned off by external request.
 Stoichiometry    C2HF3O2
 Rotational constants (GHZ):           3.8910139           2.5181774           2.0861165
 Leave Link  202 at Sun May 25 04:18:16 2025, MaxMem=  3758096384 cpu:               0.1 elap:               0.0
 (Enter /apps/easybuild-2022/easybuild/software/Compiler/NVHPC/22.11-CUDA-11.7.0/Gaussian/g16c01-CUDA-11.7.0/g16/l301.exe)
 Standard basis: def2TZVPP (5D, 7F)
 Ernie: Thresh=  0.10000D-02 Tol=  0.10000D-05 Strict=F.
   231 basis functions,   374 primitive gaussians,   267 cartesian basis functions
    28 alpha electrons       28 beta electrons
       nuclear repulsion energy       338.4918494638 Hartrees.
 IExCor= 4336 DFT=T Ex+Corr=M062X ExCW=0 ScaHFX=  0.540000
 ScaDFX=  1.000000  1.000000  1.000000  1.000000 ScalE2=  1.000000  1.000000
 IRadAn=      5 IRanWt=     -1 IRanGd=            0 ICorTp=0 IEmpDi=  4
 NAtoms=    8 NActive=    8 NUniq=    8 SFac= 1.00D+00 NAtFMM=   60 NAOKFM=F Big=F
 Integral buffers will be    131072 words long.
 Raffenetti 2 integral format.
 Two-electron integral symmetry is turned off.
 Leave Link  301 at Sun May 25 04:18:16 2025, MaxMem=  3758096384 cpu:               0.1 elap:               0.1
 (Enter /apps/easybuild-2022/easybuild/software/Compiler/NVHPC/22.11-CUDA-11.7.0/Gaussian/g16c01-CUDA-11.7.0/g16/l302.exe)
 NPDir=0 NMtPBC=     1 NCelOv=     1 NCel=       1 NClECP=     1 NCelD=      1
         NCelK=      1 NCelE2=     1 NClLst=     1 CellRange=     0.0.
 One-electron integrals computed using PRISM.
   1 Symmetry operations used in ECPInt.
 ECPInt:  NShTT=    3486 NPrTT=   11183 LenC2=    3403 LenP2D=    8714.
 LDataN:  DoStor=T MaxTD1= 6 Len=  172
 NBasis=   231 RedAO= T EigKep=  5.55D-04  NBF=   231
 NBsUse=   231 1.00D-06 EigRej= -1.00D+00 NBFU=   231
 Precomputing XC quadrature grid using
 IXCGrd= 4 IRadAn=           5 IRanWt=          -1 IRanGd=           0 AccXCQ= 0.00D+00.
 Generated NRdTot=       0 NPtTot=           0 NUsed=           0 NTot=          32
 NSgBfM=   266   266   266   266   266 MxSgAt=     8 MxSgA2=     8.
 Leave Link  302 at Sun May 25 04:18:16 2025, MaxMem=  3758096384 cpu:               0.6 elap:               0.1
 (Enter /apps/easybuild-2022/easybuild/software/Compiler/NVHPC/22.11-CUDA-11.7.0/Gaussian/g16c01-CUDA-11.7.0/g16/l303.exe)
 DipDrv:  MaxL=1.
 Leave Link  303 at Sun May 25 04:18:16 2025, MaxMem=  3758096384 cpu:               0.1 elap:               0.1
 (Enter /apps/easybuild-2022/easybuild/software/Compiler/NVHPC/22.11-CUDA-11.7.0/Gaussian/g16c01-CUDA-11.7.0/g16/l401.exe)
 Initial guess from the checkpoint file:  "1141903082400600000001_r12_insertion_R_2_1_3_IRC_R_prod.chk"
 B after Tr=     0.007397    0.011601   -0.011251
         Rot=    0.999937    0.008249   -0.006522   -0.003803 Ang=   1.28 deg.
 Guess basis will be translated and rotated to current coordinates.
 JPrj=2 DoOrth=T DoCkMO=T.
 Generating alternative initial guess.
 ExpMin= 9.52D-02 ExpMax= 3.55D+04 ExpMxC= 1.21D+03 IAcc=3 IRadAn=         5 AccDes= 0.00D+00
 Harris functional with IExCor= 1009 and IRadAn=       5 diagonalized for initial guess.
 HarFok:  IExCor= 1009 AccDes= 0.00D+00 IRadAn=         5 IDoV= 1 UseB2=F ITyADJ=14
 ICtDFT=  3500011 ScaDFX=  1.000000  1.000000  1.000000  1.000000
 FoFCou: FMM=F IPFlag=           0 FMFlag=      100000 FMFlg1=           0
         NFxFlg=           0 DoJE=T BraDBF=F KetDBF=T FulRan=T
         wScrn=  0.000000 ICntrl=       500 IOpCl=  0 I1Cent=   200000004 NGrid=           0
         NMat0=    1 NMatS0=      1 NMatT0=    0 NMatD0=    1 NMtDS0=    0 NMtDT0=    0
 Symmetry not used in FoFCou.
 Harris En= -526.546884225734    
 Leave Link  401 at Sun May 25 04:18:17 2025, MaxMem=  3758096384 cpu:               2.2 elap:               0.4
 (Enter /apps/easybuild-2022/easybuild/software/Compiler/NVHPC/22.11-CUDA-11.7.0/Gaussian/g16c01-CUDA-11.7.0/g16/l502.exe)
 Keep R1 ints in memory in canonical form, NReq=368651279.
 FoFCou: FMM=F IPFlag=           0 FMFlag=           0 FMFlg1=           0
         NFxFlg=           0 DoJE=F BraDBF=F KetDBF=F FulRan=T
         wScrn=  0.000000 ICntrl=       600 IOpCl=  0 I1Cent=           0 NGrid=           0
         NMat0=    1 NMatS0=  26796 NMatT0=    0 NMatD0=    1 NMtDS0=    0 NMtDT0=    0
 Symmetry not used in FoFCou.
 Two-electron integral symmetry not used.
 Closed shell SCF:
 Using DIIS extrapolation, IDIIS=  1040.
 NGot=  3758096384 LenX=  3398923531 LenY=  3398851801
 Requested convergence on RMS density matrix=1.00D-08 within  32 cycles.
 Requested convergence on MAX density matrix=1.00D-06.
 Requested convergence on             energy=1.00D-06.
 No special actions if energy rises.
 Integral accuracy reduced to 1.0D-05 until final iterations.

 Cycle   1  Pass 0  IDiag  1:
 E= -526.829307918489    
 DIIS: error= 6.41D-03 at cycle   1 NSaved=   1.
 NSaved= 1 IEnMin= 1 EnMin= -526.829307918489     IErMin= 1 ErrMin= 6.41D-03
 ErrMax= 6.41D-03  0.00D+00 EMaxC= 1.00D-01 BMatC= 1.73D-02 BMatP= 1.73D-02
 IDIUse=3 WtCom= 9.36D-01 WtEn= 6.41D-02
 Coeff-Com:  0.100D+01
 Coeff-En:   0.100D+01
 Coeff:      0.100D+01
 Gap=     1.093 Goal=   None    Shift=    0.000
 GapD=    1.093 DampG=2.000 DampE=1.000 DampFc=2.0000 IDamp=-1.
 RMSDP=5.26D-04 MaxDP=1.36D-02              OVMax= 2.92D-02

 Cycle   2  Pass 0  IDiag  1:
 E= -526.851028038512     Delta-E=       -0.021720120024 Rises=F Damp=F
 DIIS: error= 1.34D-03 at cycle   2 NSaved=   2.
 NSaved= 2 IEnMin= 2 EnMin= -526.851028038512     IErMin= 2 ErrMin= 1.34D-03
 ErrMax= 1.34D-03  0.00D+00 EMaxC= 1.00D-01 BMatC= 6.43D-04 BMatP= 1.73D-02
 IDIUse=3 WtCom= 9.87D-01 WtEn= 1.34D-02
 Coeff-Com: -0.133D+00 0.113D+01
 Coeff-En:   0.000D+00 0.100D+01
 Coeff:     -0.131D+00 0.113D+01
 Gap=     0.404 Goal=   None    Shift=    0.000
 RMSDP=1.37D-04 MaxDP=3.45D-03 DE=-2.17D-02 OVMax= 1.06D-02

 Cycle   3  Pass 0  IDiag  1:
 E= -526.852061337574     Delta-E=       -0.001033299061 Rises=F Damp=F
 DIIS: error= 7.29D-04 at cycle   3 NSaved=   3.
 NSaved= 3 IEnMin= 3 EnMin= -526.852061337574     IErMin= 3 ErrMin= 7.29D-04
 ErrMax= 7.29D-04  0.00D+00 EMaxC= 1.00D-01 BMatC= 2.71D-04 BMatP= 6.43D-04
 IDIUse=3 WtCom= 9.93D-01 WtEn= 7.29D-03
 Coeff-Com: -0.766D-01 0.499D+00 0.578D+00
 Coeff-En:   0.000D+00 0.000D+00 0.100D+01
 Coeff:     -0.761D-01 0.495D+00 0.581D+00
 Gap=     0.405 Goal=   None    Shift=    0.000
 RMSDP=4.35D-05 MaxDP=2.14D-03 DE=-1.03D-03 OVMax= 4.99D-03

 Cycle   4  Pass 0  IDiag  1:
 E= -526.852236437608     Delta-E=       -0.000175100035 Rises=F Damp=F
 DIIS: error= 3.43D-04 at cycle   4 NSaved=   4.
 NSaved= 4 IEnMin= 4 EnMin= -526.852236437608     IErMin= 4 ErrMin= 3.43D-04
 ErrMax= 3.43D-04  0.00D+00 EMaxC= 1.00D-01 BMatC= 3.68D-05 BMatP= 2.71D-04
 IDIUse=3 WtCom= 9.97D-01 WtEn= 3.43D-03
 Coeff-Com: -0.225D-02-0.391D-01 0.247D+00 0.794D+00
 Coeff-En:   0.000D+00 0.000D+00 0.000D+00 0.100D+01
 Coeff:     -0.224D-02-0.390D-01 0.246D+00 0.795D+00
 Gap=     0.404 Goal=   None    Shift=    0.000
 RMSDP=2.02D-05 MaxDP=9.74D-04 DE=-1.75D-04 OVMax= 2.18D-03

 Cycle   5  Pass 0  IDiag  1:
 E= -526.852267702631     Delta-E=       -0.000031265023 Rises=F Damp=F
 DIIS: error= 1.46D-04 at cycle   5 NSaved=   5.
 NSaved= 5 IEnMin= 5 EnMin= -526.852267702631     IErMin= 5 ErrMin= 1.46D-04
 ErrMax= 1.46D-04  0.00D+00 EMaxC= 1.00D-01 BMatC= 5.69D-06 BMatP= 3.68D-05
 IDIUse=3 WtCom= 9.99D-01 WtEn= 1.46D-03
 Coeff-Com:  0.510D-02-0.622D-01 0.830D-01 0.417D+00 0.557D+00
 Coeff-En:   0.000D+00 0.000D+00 0.000D+00 0.000D+00 0.100D+01
 Coeff:      0.509D-02-0.621D-01 0.829D-01 0.416D+00 0.558D+00
 Gap=     0.405 Goal=   None    Shift=    0.000
 RMSDP=6.62D-06 MaxDP=3.30D-04 DE=-3.13D-05 OVMax= 6.99D-04

 Initial convergence to 1.0D-05 achieved.  Increase integral accuracy.
 Cycle   6  Pass 1  IDiag  1:
 E= -526.852307576042     Delta-E=       -0.000039873411 Rises=F Damp=F
 DIIS: error= 2.92D-05 at cycle   1 NSaved=   1.
 NSaved= 1 IEnMin= 1 EnMin= -526.852307576042     IErMin= 1 ErrMin= 2.92D-05
 ErrMax= 2.92D-05  0.00D+00 EMaxC= 1.00D-01 BMatC= 7.69D-07 BMatP= 7.69D-07
 IDIUse=1 WtCom= 1.00D+00 WtEn= 0.00D+00
 Coeff-Com:  0.100D+01
 Coeff:      0.100D+01
 Gap=     0.405 Goal=   None    Shift=    0.000
 RMSDP=6.62D-06 MaxDP=3.30D-04 DE=-3.99D-05 OVMax= 5.25D-04

 Cycle   7  Pass 1  IDiag  1:
 E= -526.852308070142     Delta-E=       -0.000000494100 Rises=F Damp=F
 DIIS: error= 4.95D-05 at cycle   2 NSaved=   2.
 NSaved= 2 IEnMin= 2 EnMin= -526.852308070142     IErMin= 1 ErrMin= 2.92D-05
 ErrMax= 4.95D-05  0.00D+00 EMaxC= 1.00D-01 BMatC= 6.99D-07 BMatP= 7.69D-07
 IDIUse=1 WtCom= 1.00D+00 WtEn= 0.00D+00
 Coeff-Com:  0.485D+00 0.515D+00
 Coeff:      0.485D+00 0.515D+00
 Gap=     0.405 Goal=   None    Shift=    0.000
 RMSDP=2.19D-06 MaxDP=1.06D-04 DE=-4.94D-07 OVMax= 2.42D-04

 Cycle   8  Pass 1  IDiag  1:
 E= -526.852308536838     Delta-E=       -0.000000466696 Rises=F Damp=F
 DIIS: error= 1.70D-05 at cycle   3 NSaved=   3.
 NSaved= 3 IEnMin= 3 EnMin= -526.852308536838     IErMin= 3 ErrMin= 1.70D-05
 ErrMax= 1.70D-05  0.00D+00 EMaxC= 1.00D-01 BMatC= 7.20D-08 BMatP= 6.99D-07
 IDIUse=1 WtCom= 1.00D+00 WtEn= 0.00D+00
 Coeff-Com: -0.541D-01 0.202D+00 0.852D+00
 Coeff:     -0.541D-01 0.202D+00 0.852D+00
 Gap=     0.405 Goal=   None    Shift=    0.000
 RMSDP=1.20D-06 MaxDP=5.97D-05 DE=-4.67D-07 OVMax= 1.86D-04

 Cycle   9  Pass 1  IDiag  1:
 E= -526.852308628576     Delta-E=       -0.000000091738 Rises=F Damp=F
[...]
     12 -0.107938D-01  0.272276D-01  0.138412D-01 -0.303247D-01  0.133038D-01
     13  0.124211D-01  0.100963D-01 -0.786973D-05 -0.282246D-01 -0.302024D-01
     14 -0.408684D-02 -0.183799D-01 -0.487782D-02  0.241940D-01  0.254274D-01
     15 -0.620120D-02 -0.122347D-01 -0.443090D-02  0.224535D-01 -0.235740D-02
     16 -0.406932D-02 -0.183646D-01 -0.492337D-02 -0.362324D-02  0.253734D-01
     17  0.386360D-02  0.300231D-02  0.405636D-01  0.243079D-03  0.314352D-02
     18  0.406917D-02 -0.115400D-02 -0.277106D-02  0.162968D-02 -0.206865D-01
     19  0.349637D-04  0.203585D-04  0.636246D-05  0.231427D-01 -0.607130D-04
     20 -0.397459D-02  0.115663D-02  0.276895D-02 -0.190371D-01  0.206435D-01
     21  0.402722D-02 -0.116058D-02 -0.274775D-02 -0.286754D-02 -0.207466D-01
     22 -0.698733D-05  0.137769D-04  0.296698D-04  0.186454D-01 -0.120728D-03
     23 -0.401654D-02  0.115004D-02  0.279225D-02 -0.235343D-01  0.205835D-01
     24 -0.151724D-04  0.103805D-04  0.642447D-05 -0.163413D-02  0.159085D-04
     25  0.315270D-04  0.129512D-04 -0.114670D-04  0.304297D-02  0.793859D-04
                6             7             8             9            10 
      6  0.438887D+00
      7 -0.114458D-03  0.522777D+00
      8  0.124689D-01  0.328728D-02  0.145586D+00
      9 -0.891793D-02 -0.915328D-02 -0.880445D-01  0.185990D+00
     10 -0.355025D-02  0.586600D-02 -0.575414D-01 -0.979450D-01  0.155486D+00
     11 -0.284455D-01 -0.111178D-02  0.966872D-02 -0.652638D-02 -0.314334D-02
     12 -0.304928D-01  0.350800D-03 -0.730745D-02 -0.949793D-02  0.168054D-01
     13  0.172872D-01 -0.112520D-02  0.950727D-02 -0.649271D-02 -0.301356D-02
     14 -0.359301D-02  0.739854D-03 -0.280135D-02  0.820168D-02 -0.540019D-02
     15  0.224661D-01  0.445707D-03 -0.651053D-02  0.681708D-02 -0.306545D-03
     16  0.241376D-01  0.748696D-03 -0.284122D-02  0.816834D-02 -0.532726D-02
     17  0.244525D-03  0.273598D-01  0.276612D-02 -0.289575D-01  0.261914D-01
     18  0.191865D-01 -0.435467D-03  0.203528D-02  0.636868D-04 -0.210056D-02
     19 -0.231817D-01 -0.440336D-05  0.748472D-04 -0.266601D-04 -0.502492D-04
     20 -0.159774D-02  0.429004D-03 -0.204007D-02 -0.141403D-03  0.217989D-02
     21  0.235942D-01 -0.427466D-03  0.201870D-02  0.871386D-04 -0.210370D-02
     22 -0.187740D-01  0.359795D-05  0.582679D-04 -0.320823D-05 -0.533935D-04
     23  0.280996D-02  0.437006D-03 -0.205665D-02 -0.117951D-03  0.217674D-02
     24  0.162570D-02 -0.246462D-04  0.138517D-04  0.149339D-04 -0.268910D-04
     25 -0.296316D-02 -0.344505D-04  0.450162D-05  0.228823D-04 -0.293687D-04
               11            12            13            14            15 
     11  0.179243D+00
     12 -0.485290D-02  0.203068D+00
     13  0.118963D-01 -0.506484D-02  0.179161D+00
     14 -0.870123D-01 -0.913559D-01 -0.170049D-01  0.140327D+00
     15 -0.873829D-01 -0.165996D-01 -0.872510D-01  0.298572D-01  0.137126D+00
     16 -0.170111D-01 -0.915650D-01 -0.868586D-01  0.309439D-01  0.298538D-01
     17 -0.267343D-02  0.589028D-02 -0.255756D-02 -0.461213D-03  0.259645D-03
     18  0.779771D-02 -0.134907D-01  0.504005D-02 -0.303943D-01  0.297208D-01
     19  0.116923D-01  0.105054D-03 -0.117300D-01  0.296322D-01 -0.229422D-05
     20 -0.495171D-02  0.133742D-01 -0.779791D-02 -0.151578D-02 -0.296737D-01
     21  0.132200D-02 -0.134437D-01  0.115187D-01 -0.295188D-01  0.297198D-01
     22  0.521654D-02  0.152084D-03 -0.525133D-02  0.305076D-01 -0.335548D-05
     23 -0.114274D-01  0.134212D-01 -0.131927D-02 -0.640304D-03 -0.296748D-01
     24 -0.201409D-02  0.619877D-05  0.200943D-02  0.490207D-03 -0.771293D-05
     25  0.472232D-02 -0.431089D-04 -0.473371D-02 -0.419453D-03 -0.506621D-05
               16            17            18            19            20 
     16  0.140384D+00
     17 -0.512264D-03  0.166767D+00
     18  0.155379D-02 -0.148623D-02  0.336163D-01
     19 -0.296922D-01  0.331776D-05 -0.787439D-02  0.366100D-01
     20  0.303335D-01  0.150563D-02 -0.113677D-01 -0.784925D-02  0.335017D-01
     21  0.627014D-03 -0.151194D-02  0.233250D-01 -0.212127D-01 -0.216587D-01
     22 -0.306190D-01 -0.223932D-04 -0.181658D-01  0.232717D-01 -0.181403D-01
     23  0.294067D-01  0.147992D-02 -0.216591D-01 -0.211876D-01  0.232106D-01
     24 -0.484351D-03  0.528356D-04 -0.584443D-02 -0.652622D-02 -0.583164D-02
     25  0.481310D-03  0.757407D-04  0.486397D-02  0.735291D-02  0.487682D-02
               21            22            23            24            25 
     21  0.371490D-01
     22 -0.738872D-02  0.340487D-01
     23 -0.783472D-02 -0.736324D-02  0.370350D-01
     24  0.641036D-02  0.572857D-02  0.642315D-02  0.149267D-01
     25 -0.797435D-02 -0.548541D-02 -0.796150D-02  0.217502D-02  0.155339D-01
 Leave Link  716 at Sun May 25 04:21:00 2025, MaxMem=  3758096384 cpu:               0.1 elap:               0.0
 (Enter /apps/easybuild-2022/easybuild/software/Compiler/NVHPC/22.11-CUDA-11.7.0/Gaussian/g16c01-CUDA-11.7.0/g16/l103.exe)

 GradGradGradGradGradGradGradGradGradGradGradGradGradGradGradGradGradGrad
 Berny optimization.
 Red2BG is reusing G-inverse.
 Internal  Forces:  Max     0.000040361 RMS     0.000012175
 Search for a local minimum.
 Step number   1 out of a maximum of    2
 All quantities printed in internal units (Hartrees-Bohrs-Radians)
 Second derivative matrix not updated -- analytic derivatives used.
 ITU=  0
     Eigenvalues ---    0.00083   0.01743   0.04776   0.11994   0.13843
     Eigenvalues ---    0.14760   0.18709   0.22176   0.23229   0.24874
     Eigenvalues ---    0.28994   0.39714   0.40288   0.42196   0.46453
     Eigenvalues ---    0.52925   0.58439   0.97896
 Angle between quadratic step and forces=  82.33 degrees.
 Linear search not attempted -- first point.
 Iteration  1 RMS(Cart)=  0.00060974 RMS(Int)=  0.00000019
 Iteration  2 RMS(Cart)=  0.00000020 RMS(Int)=  0.00000000
 ITry= 1 IFail=0 DXMaxC= 1.70D-03 DCOld= 1.00D+10 DXMaxT= 3.00D-01 DXLimC= 3.00D+00 Rises=F
 Variable       Old X    -DE/DX   Delta X   Delta X   Delta X     New X
                                 (Linear)    (Quad)   (Total)
    R1        2.24497  -0.00000   0.00000   0.00001   0.00001   2.24498
    R2        2.91753   0.00001   0.00000   0.00003   0.00003   2.91756
    R3        2.51110   0.00001   0.00000  -0.00001  -0.00001   2.51109
    R4        2.51448  -0.00001   0.00000  -0.00004  -0.00004   2.51444
    R5        2.49317   0.00001   0.00000   0.00000   0.00000   2.49318
    R6        2.51449  -0.00001   0.00000   0.00001   0.00001   2.51450
    R7        1.82752   0.00000   0.00000   0.00001   0.00001   1.82753
    A1        2.15484  -0.00004   0.00000  -0.00020  -0.00020   2.15464
    A2        2.21140   0.00000   0.00000   0.00001   0.00001   2.21141
    A3        1.91694   0.00004   0.00000   0.00019   0.00019   1.91713
    A4        1.92409  -0.00001   0.00000   0.00007   0.00007   1.92415
    A5        1.92572  -0.00000   0.00000  -0.00003  -0.00003   1.92569
    A6        1.92429   0.00001   0.00000  -0.00005  -0.00005   1.92424
    A7        1.89902   0.00001   0.00000   0.00004   0.00004   1.89906
    A8        1.89092  -0.00000   0.00000  -0.00001  -0.00001   1.89091
    A9        1.89912  -0.00000   0.00000  -0.00002  -0.00002   1.89910
   A10        1.89244  -0.00000   0.00000  -0.00004  -0.00004   1.89241
    D1       -2.09855  -0.00000   0.00000  -0.00128  -0.00128  -2.09983
    D2       -0.00058   0.00000   0.00000  -0.00120  -0.00120  -0.00179
    D3        2.09764  -0.00000   0.00000  -0.00128  -0.00128   2.09637
    D4        1.04288  -0.00000   0.00000  -0.00114  -0.00114   1.04174
    D5        3.14085   0.00000   0.00000  -0.00107  -0.00107   3.13979
    D6       -1.04411   0.00000   0.00000  -0.00114  -0.00114  -1.04525
    D7        0.00037   0.00000   0.00000  -0.00007  -0.00007   0.00030
    D8       -3.14105  -0.00000   0.00000  -0.00021  -0.00021  -3.14127
         Item               Value     Threshold  Converged?
 Maximum Force            0.000040     0.000450     YES
 RMS     Force            0.000012     0.000300     YES
 Maximum Displacement     0.001701     0.001800     YES
 RMS     Displacement     0.000610     0.001200     YES
 Predicted change in Energy=-1.191109D-08
 Optimization completed.
    -- Stationary point found.
                           ----------------------------
                           !   Optimized Parameters   !
                           ! (Angstroms and Degrees)  !
 --------------------------                            --------------------------
 ! Name  Definition              Value          Derivative Info.                !
 --------------------------------------------------------------------------------
 ! R1    R(1,2)                  1.188          -DE/DX =    0.0                 !
 ! R2    R(1,3)                  1.5439         -DE/DX =    0.0                 !
 ! R3    R(1,7)                  1.3288         -DE/DX =    0.0                 !
 ! R4    R(3,4)                  1.3306         -DE/DX =    0.0                 !
 ! R5    R(3,5)                  1.3193         -DE/DX =    0.0                 !
 ! R6    R(3,6)                  1.3306         -DE/DX =    0.0                 !
 ! R7    R(7,8)                  0.9671         -DE/DX =    0.0                 !
 ! A1    A(2,1,3)              123.4634         -DE/DX =    0.0                 !
 ! A2    A(2,1,7)              126.7041         -DE/DX =    0.0                 !
 ! A3    A(3,1,7)              109.8324         -DE/DX =    0.0                 !
 ! A4    A(1,3,4)              110.242          -DE/DX =    0.0                 !
 ! A5    A(1,3,5)              110.3358         -DE/DX =    0.0                 !
 ! A6    A(1,3,6)              110.2539         -DE/DX =    0.0                 !
 ! A7    A(4,3,5)              108.8059         -DE/DX =    0.0                 !
 ! A8    A(4,3,6)              108.3418         -DE/DX =    0.0                 !
 ! A9    A(5,3,6)              108.8114         -DE/DX =    0.0                 !
 ! A10   A(1,7,8)              108.4291         -DE/DX =    0.0                 !
 ! D1    D(2,1,3,4)           -120.2381         -DE/DX =    0.0                 !
 ! D2    D(2,1,3,5)             -0.0333         -DE/DX =    0.0                 !
 ! D3    D(2,1,3,6)            120.186          -DE/DX =    0.0                 !
 ! D4    D(7,1,3,4)             59.7529         -DE/DX =    0.0                 !
 ! D5    D(7,1,3,5)            179.9577         -DE/DX =    0.0                 !
 ! D6    D(7,1,3,6)            -59.823          -DE/DX =    0.0                 !
 ! D7    D(2,1,7,8)              0.0215         -DE/DX =    0.0                 !
 ! D8    D(3,1,7,8)           -179.9691         -DE/DX =    0.0                 !
 --------------------------------------------------------------------------------
 GradGradGradGradGradGradGradGradGradGradGradGradGradGradGradGradGradGrad

 Leave Link  103 at Sun May 25 04:21:00 2025, MaxMem=  3758096384 cpu:               0.1 elap:               0.0
 (Enter /apps/easybuild-2022/easybuild/software/Compiler/NVHPC/22.11-CUDA-11.7.0/Gaussian/g16c01-CUDA-11.7.0/g16/l9999.exe)

 ----------------------------------------------------------------------

 Electric dipole moment (input orientation):
 (Debye = 10**-18 statcoulomb cm , SI units = C m)
                  (au)            (Debye)         (10**-30 SI)
   Tot        0.882511D+00      0.224312D+01      0.748224D+01
   x          0.675121D+00      0.171599D+01      0.572392D+01
   y          0.296453D+00      0.753508D+00      0.251343D+01
   z          0.484926D+00      0.123256D+01      0.411137D+01

 Dipole polarizability, Alpha (input orientation).
 (esu units = cm**3 , SI units = C**2 m**2 J**-1)
 Alpha(0;0):
               (au)            (10**-24 esu)      (10**-40 SI)
   iso        0.317384D+02      0.470314D+01      0.523295D+01
   aniso      0.955824D+01      0.141639D+01      0.157594D+01
   xx         0.337904D+02      0.500722D+01      0.557129D+01
   yx         0.154082D+01      0.228326D+00      0.254047D+00
   yy         0.266060D+02      0.394260D+01      0.438673D+01
   zx        -0.923032D+00     -0.136779D+00     -0.152187D+00
   zy         0.268457D+01      0.397812D+00      0.442625D+00
   zz         0.348187D+02      0.515959D+01      0.574082D+01

 ----------------------------------------------------------------------

 Dipole orientation:
     6          1.40824501          0.12276062          1.32787257
     8          3.61631614          0.25980166          0.94638557
     6         -0.58689487         -0.00035540         -0.79726879
     9         -2.17170279          1.94342373         -0.61637621
     9          0.52007016          0.07029342         -3.03010360
     9         -1.91826303         -2.12601117         -0.61923224
     8          0.27353722          0.05212323          3.56685780
     1          1.55538613          0.13217207          4.86696857

 Electric dipole moment (dipole orientation):
 (Debye = 10**-18 statcoulomb cm , SI units = C m)
                  (au)            (Debye)         (10**-30 SI)
   Tot        0.882511D+00      0.224312D+01      0.748224D+01
   x          0.000000D+00      0.000000D+00      0.000000D+00
   y          0.000000D+00      0.000000D+00      0.000000D+00
   z          0.882511D+00      0.224312D+01      0.748224D+01

 Dipole polarizability, Alpha (dipole orientation).
 (esu units = cm**3 , SI units = C**2 m**2 J**-1)
 Alpha(0;0):
               (au)            (10**-24 esu)      (10**-40 SI)
   iso        0.317384D+02      0.470314D+01      0.523295D+01
   aniso      0.955824D+01      0.141639D+01      0.157594D+01
   xx         0.354366D+02      0.525116D+01      0.584270D+01
   yx         0.621682D+00      0.921238D-01      0.102502D+00
   yy         0.254814D+02      0.377595D+01      0.420131D+01
   zx        -0.615328D+00     -0.911822D-01     -0.101454D+00
   zy        -0.343111D-01     -0.508439D-02     -0.565714D-02
   zz         0.342971D+02      0.508231D+01      0.565483D+01

 ----------------------------------------------------------------------
 Unable to Open any file for archive entry.
 1\1\GINC-SPARTAN-BM163\Freq\RM062X\def2TZVPP\C2H1F3O2\AKHALILOV\25-May
 -2025\0\\#P Geom=AllCheck Guess=TCheck SCRF=Check GenChk RM062X/def2TZ
 VPP Freq\\Gaussian input prepared by ASE\\0,1\C,0.9905284275,0.1726834
 751,-0.2057976185\O,1.5512116083,-0.0216790355,-1.2349578148\C,-0.5159
 912462,-0.0903900546,0.0058251082\F,-1.1352500483,1.0345479782,0.35445
 90693\F,-1.0615526841,-0.5497883482,-1.1041069374\F,-0.6958000174,-0.9
 84828257,0.9744177082\O,1.5294426596,0.635615468,0.9171516321\H,2.4708
 573005,0.793500774,0.7620418528\\Version=ES64L-G16RevC.01\HF=-526.8527
 682\RMSD=9.578e-10\RMSF=1.086e-05\ZeroPoint=0.0399667\Thermal=0.046123
 1\ETot=-526.8066451\HTot=-526.8057009\GTot=-526.8439575\Dipole=0.67512
 13,0.2964527,0.4849255\DipoleDeriv=1.0166912,0.1831395,0.0498615,0.182
 704,0.4287413,0.4615804,0.0490834,0.461617,1.7127166,-0.6938379,0.0265
 344,0.347824,-0.0504281,-0.3746329,-0.1311812,0.0976422,-0.1859239,-0.
 9972684,1.4323827,-0.0557796,0.0318171,-0.0395161,1.7185583,-0.0220414
 ,0.0865779,-0.0098638,1.6402121,-0.5482695,0.275851,0.1118871,0.223309
 1,-0.7234172,-0.1253645,0.090714,-0.13812,-0.3260406,-0.4887195,-0.126
 8034,-0.2664056,-0.1096298,-0.3634395,-0.182713,-0.2122408,-0.170986,-
 0.6904255,-0.4070714,-0.1084651,0.1233366,-0.0774265,-0.5780937,0.3151
 02,0.0753236,0.3129212,-0.6129917,-0.6403236,-0.2164217,-0.4843686,-0.
 1479772,-0.4621691,-0.3149555,-0.2638762,-0.2670623,-1.0138535,0.32914
 79,0.0219449,0.0860479,0.0189646,0.3544528,-0.0004268,0.076776,-0.0025
 822,0.2876511\Polar=33.7904262,1.5408176,26.6059709,-0.9230318,2.68456
 61,34.8186685\PG=Unknown\NImag=0\\0.72422547,0.04182642,0.29670987,-0.
 21215555,0.17687518,0.95878676,-0.30060245,0.04340630,0.30094789,0.279
 60200,0.04854874,-0.09768694,-0.10604593,-0.05238560,0.06236725,0.3177
 4485,-0.10237965,-0.63383921,-0.34787975,0.14380632,0.74375433,-0.2046
 7882,-0.02757542,0.00217285,-0.00060934,-0.00175295,0.00876055,0.63134
 061,-0.02414401,-0.07721717,0.00938724,0.00627080,0.01782363,-0.010964
 17,0.02258779,0.55093551,0.01307288,0.01180421,-0.04572388,0.03477077,
 -0.00530048,-0.02207697,0.00782607,0.02057960,0.60249437,-0.00681519,0
 .04569904,0.01243882,-0.01151631,-0.00579201,0.00673413,-0.16490163,0.
 10179457,0.03292586,0.14866067,0.00271355,-0.01483286,-0.00895154,0.00
 640801,0.00235372,-0.00142209,0.10400073,-0.21403890,-0.04828698,-0.14
 328307,0.33523042,0.00284230,-0.01492088,0.00131881,0.00158443,0.00268
 128,0.00050300,0.03923420,-0.05046138,-0.09131898,-0.04129238,0.081274
 54,0.10586700,-0.01217228,-0.01692729,-0.04030426,-0.00062779,0.000237
 11,0.00042324,-0.15033076,-0.04411096,-0.09000607,0.02178702,0.0043894
 1,0.01107611,0.14029147,-0.00492010,0.00208830,-0.01811271,0.00027609,
 -0.00005137,0.00295629,-0.04883210,-0.10676830,-0.06877557,-0.00701601
 ,-0.03961690,-0.05526966,0.05316624,0.12862807,-0.00118096,-0.00960201
 ,-0.02173132,0.00064944,0.00301007,0.00835312,-0.10563990,-0.07225465,
 -0.23574961,0.00095644,-0.04659432,-0.03043748,0.13210393,0.11254558,0
 .35619167,0.00849693,-0.02644246,0.02761886,-0.01000584,0.00339177,0.0
 0309500,-0.10254114,-0.04561679,0.04197427,0.01642216,0.02343505,-0.01
 558799,0.01450756,0.01194355,-0.02149661,0.07663043,0.00353859,-0.0100
 7333,0.02158448,-0.00907575,0.00081466,0.00288114,-0.04432363,-0.17596
 284,0.10696260,0.01300707,-0.07324145,0.03334940,0.00689054,0.01643060
 ,0.01338568,0.03272148,0.24148088,-0.00495222,0.01835268,-0.01870804,0
 .00731146,-0.00143142,0.00058134,0.04709325,0.11172152,-0.19248585,-0.
 00969079,0.02088006,0.01153608,-0.01109069,0.02645551,-0.07907382,-0.0
 3351854,-0.17531131,0.27223022,-0.18000912,-0.05059282,-0.08337027,0.0
 4171084,0.00365076,0.00337937,-0.00879271,-0.01498809,-0.03787696,-0.0
 0456268,0.00222283,0.00188087,-0.01339184,-0.00459485,-0.00519865,-0.0
 0407021,-0.00314443,0.00430640,0.64407443,-0.04492422,-0.09825672,-0.0
 7453815,0.00134450,0.01838215,-0.03819342,-0.00286850,0.00165785,-0.01
 337404,-0.00396368,0.00382064,0.00236544,-0.00310540,-0.00030544,-0.00
 028960,-0.00037394,0.00035696,-0.00004606,0.13454982,0.10375636,-0.064
 95221,-0.07051555,-0.24891106,-0.00399152,-0.03979187,-0.09672154,0.00
 141515,-0.00478220,-0.01021624,-0.00267290,0.00294081,0.00231693,-0.00
 030120,0.00077073,0.00318944,-0.00224114,-0.00304252,0.00520082,0.0085
 0489,0.11364520,0.40298949,-0.02844455,-0.00939377,-0.00734835,0.00204
 889,0.00410219,0.00774260,0.00051378,-0.00179332,-0.00268681,0.0009259
 6,0.00011350,0.00026246,-0.00006338,-0.00002282,-0.00019369,0.00056011
 ,0.00038613,0.00054113,-0.47495872,-0.08065858,0.06423892,0.49941791,-
 0.02263896,-0.00073116,-0.00019858,0.00375566,-0.00400311,0.00331559,-
 0.00123591,0.00357022,-0.00360934,-0.00044591,0.00032532,0.00098127,-0
 .00053965,-0.00040497,-0.00020075,0.00094133,0.00019451,-0.00062099,-0
 .06710322,-0.02941180,0.00077540,0.08726667,0.03046098,-0.05041911,-0.
 00961398,0.00880794,0.00660728,0.00307204,-0.00055406,-0.00086218,-0.0
 0322597,-0.00492282,0.00060081,0.00015953,0.00021463,-0.00190107,-0.00
 057016,-0.00074199,0.00015615,0.00019054,0.00071926,0.10837437,0.01043
 063,-0.05784784,-0.06255626,-0.00044261,0.05432489\\-0.00001124,-0.000
 01658,-0.00002966,0.00001577,0.00000889,0.00000665,0.00001924,0.000000
 69,0.00001450,-0.00001201,0.00000777,-0.00000275,0.00000119,0.00000209
 ,0.00000647,0.00000403,-0.00000576,0.00000739,-0.00001390,-0.00000153,
 -0.00000302,-0.00000309,0.00000442,0.00000042\\\@
 The archive entry for this job was punched.


 Everything starts as somebody's daydream.
                           -- Larry Niven
 Job cpu time:       0 days  0 hours 10 minutes  2.8 seconds.
 Elapsed time:       0 days  0 hours  1 minutes 19.1 seconds.
 File lengths (MBytes):  RWF=     48 Int=      0 D2E=      0 Chk=      5 Scr=      1
 Normal termination of Gaussian 16 at Sun May 25 04:21:00 2025.
done
