 Entering Gaussian System, Link 0=g16
 Initial command:
 /apps/easybuild-2022/easybuild/software/Compiler/NVHPC/22.11-CUDA-11.7.0/Gaussian/g16c01-CUDA-11.7.0/g16/l1.exe "/tmp/Gau-58629.inp" -scrdir="/tmp/"
 Entering Link 1 = /apps/easybuild-2022/easybuild/software/Compiler/NVHPC/22.11-CUDA-11.7.0/Gaussian/g16c01-CUDA-11.7.0/g16/l1.exe PID=     58669.
  
 Copyright (c) 1988-2019, Gaussian, Inc.  All Rights Reserved.
  
 This is part of the Gaussian(R) 16 program.  It is based on
 the Gaussian(R) 09 system (copyright 2009, Gaussian, Inc.),
 the Gaussian(R) 03 system (copyright 2003, Gaussian, Inc.),
 the Gaussian(R) 98 system (copyright 1998, Gaussian, Inc.),
 the Gaussian(R) 94 system (copyright 1995, Gaussian, Inc.),
 the Gaussian 92(TM) system (copyright 1992, Gaussian, Inc.),
 the Gaussian 90(TM) system (copyright 1990, Gaussian, Inc.),
 the Gaussian 88(TM) system (copyright 1988, Gaussian, Inc.),
 the Gaussian 86(TM) system (copyright 1986, Carnegie Mellon
 University), and the Gaussian 82(TM) system (copyright 1983,
 Carnegie Mellon University). Gaussian is a federally registered
 trademark of Gaussian, Inc.
  
 This software contains proprietary and confidential information,
 including trade secrets, belonging to Gaussian, Inc.
  
 This software is provided under written license and may be
 used, copied, transmitted, or stored only in accord with that
 written license.
  
 The following legend is applicable only to US Government
 contracts under FAR:
  
                    RESTRICTED RIGHTS LEGEND
  
 Use, reproduction and disclosure by the US Government is
 subject to restrictions as set forth in subparagraphs (a)
 and (c) of the Commercial Computer Software - Restricted
 Rights clause in FAR 52.227-19.
  
 Gaussian, Inc.
 340 Quinnipiac St., Bldg. 40, Wallingford CT 06492
  
  
 ---------------------------------------------------------------
 Warning -- This program may not be used in any manner that
 competes with the business of Gaussian, Inc. or will provide
 assistance to any competitor of Gaussian, Inc.  The licensee
 of this program is prohibited from giving any competitor of
 Gaussian, Inc. access to this program.  By using this program,
 the user acknowledges that Gaussian, Inc. is engaged in the
 business of creating and licensing software in the field of
 computational chemistry and represents and warrants to the
 licensee that it is not a competitor of Gaussian, Inc. and that
 it will not use this program in any manner prohibited above.
 ---------------------------------------------------------------
  

 Cite this work as:
 Gaussian 16, Revision C.01,
 M. J. Frisch, G. W. Trucks, H. B. Schlegel, G. E. Scuseria, 
 M. A. Robb, J. R. Cheeseman, G. Scalmani, V. Barone, 
 G. A. Petersson, H. Nakatsuji, X. Li, M. Caricato, A. V. Marenich, 
 J. Bloino, B. G. Janesko, R. Gomperts, B. Mennucci, H. P. Hratchian, 
 J. V. Ortiz, A. F. Izmaylov, J. L. Sonnenberg, D. Williams-Young, 
 F. Ding, F. Lipparini, F. Egidi, J. Goings, B. Peng, A. Petrone, 
 T. Henderson, D. Ranasinghe, V. G. Zakrzewski, J. Gao, N. Rega, 
 G. Zheng, W. Liang, M. Hada, M. Ehara, K. Toyota, R. Fukuda, 
 J. Hasegawa, M. Ishida, T. Nakajima, Y. Honda, O. Kitao, H. Nakai, 
 T. Vreven, K. Throssell, J. A. Montgomery, Jr., J. E. Peralta, 
 F. Ogliaro, M. J. Bearpark, J. J. Heyd, E. N. Brothers, K. N. Kudin, 
 V. N. Staroverov, T. A. Keith, R. Kobayashi, J. Normand, 
 K. Raghavachari, A. P. Rendell, J. C. Burant, S. S. Iyengar, 
 J. Tomasi, M. Cossi, J. M. Millam, M. Klene, C. Adamo, R. Cammi, 
 J. W. Ochterski, R. L. Martin, K. Morokuma, O. Farkas, 
 J. B. Foresman, and D. J. Fox, Gaussian, Inc., Wallingford CT, 2019.
 
 ******************************************
 Gaussian 16:  ES64L-G16RevC.01  3-Jul-2019
                25-May-2025 
 ******************************************
 %mem=28GB
 %chk=1141903082400600000001_intra_H_migration_suprafacial_2_8_IRC_F
 %nprocshared=8
 Will use up to    8 processors via shared memory.
 ----------------------------------------------------------------------
 #P M062X/Def2TZVPP Symm(None) scf(xqc) pop(None) geom(AllCheck,NoKeepC
 onstants) guess(Read) irc(RCFC,forward,MaxPoints=100,StepSize=2)
 ----------------------------------------------------------------------
 1/10=5,18=10,22=1,26=3,29=20007,38=1,39=2,42=100,44=3,172=1/1,23;
 2/12=2,15=3,29=1,40=1/2;
 3/5=44,7=202,11=2,14=-4,25=1,30=1,71=2,74=-55,116=-2,140=1/1,2,3;
 4/5=1/1;
 5/5=2,8=3,13=1,38=6/2,8;
 8/6=4,10=90,11=11/1;
 11/6=1,8=1,9=11,15=111,16=1,31=1/1,2,10;
 10/6=1,13=1,31=1/2;
 7/10=1,25=1,30=1/1,2,3,16;
 1/18=10,22=1,26=3,39=2,42=100,44=3/23(2);
 2/15=3,29=1/2;
 99/5=20/99;
 2/15=3,29=1/2;
 3/5=44,7=202,11=2,14=-2,25=1,30=1,71=2,74=-55,140=1/1,2,3;
 4/5=5,16=3,69=1/1;
 5/5=2,8=3,13=1,38=5/2,8;
 8/6=4,10=90,11=11/1;
 11/6=1,8=1,9=11,15=111,16=1,31=1/1,2,10;
 10/6=1,13=1,31=1/2;
 7/10=1,25=1,30=1/1,2,3,16;
 1/18=10,22=1,26=3,39=2,42=100,44=3/23(-8);
 2/15=3,29=1/2;
 99/5=20,9=1/99;
 Leave Link    1 at Sun May 25 03:49:56 2025, MaxMem=  3758096384 cpu:               0.0 elap:               0.0
 (Enter /apps/easybuild-2022/easybuild/software/Compiler/NVHPC/22.11-CUDA-11.7.0/Gaussian/g16c01-CUDA-11.7.0/g16/l101.exe)
 Structure from the checkpoint file:  "1141903082400600000001_intra_H_migration_suprafacial_2_8_IRC_F.chk"
 ------------------------------
 Gaussian input prepared by ASE
 ------------------------------
 Charge =  0 Multiplicity = 1
 Redundant internal coordinates found in file.  (old form).
 C,0,1.3667093637,-0.1288469478,-0.5034336402
 O,0,0.7159210461,-0.5823166763,-1.4744645317
 C,0,1.6095411998,-0.908073954,0.79061966
 F,0,2.7306949583,-1.6090862057,0.6591523501
 F,0,1.7382261069,-0.0817811524,1.8145823508
 F,0,0.609701868,-1.7393978929,1.0289325317
 O,0,1.8304307582,1.0157593431,-0.7201887889
 H,0,1.169424699,0.6053714859,-1.7675929318
 Recover connectivity data from disk.
 ITRead=  0  0  0  0  0  0  0  0
 MicOpt= -1 -1 -1 -1 -1 -1 -1 -1
 NAtoms=      8 NQM=        8 NQMF=       0 NMMI=      0 NMMIF=      0
                NMic=       0 NMicF=      0.
                    Isotopes and Nuclear Properties:
 (Nuclear quadrupole moments (NQMom) in fm**2, nuclear magnetic moments (NMagM)
  in nuclear magnetons)

  Atom         1           2           3           4           5           6           7           8
 IAtWgt=          12          16          12          19          19          19          16           1
 AtmWgt=  12.0000000  15.9949146  12.0000000  18.9984032  18.9984032  18.9984032  15.9949146   1.0078250
 NucSpn=           0           0           0           1           1           1           0           1
 AtZEff=   3.6000000   5.6000000   3.6000000   6.7500000   6.7500000   6.7500000   5.6000000   1.0000000
 NQMom=    0.0000000   0.0000000   0.0000000   0.0000000   0.0000000   0.0000000   0.0000000   0.0000000
 NMagM=    0.0000000   0.0000000   0.0000000   2.6288670   2.6288670   2.6288670   0.0000000   2.7928460
 AtZNuc=   6.0000000   8.0000000   6.0000000   9.0000000   9.0000000   9.0000000   8.0000000   1.0000000
 Leave Link  101 at Sun May 25 03:49:56 2025, MaxMem=  3758096384 cpu:               0.2 elap:               0.2
 (Enter /apps/easybuild-2022/easybuild/software/Compiler/NVHPC/22.11-CUDA-11.7.0/Gaussian/g16c01-CUDA-11.7.0/g16/l123.exe)
 IRC-IRC-IRC-IRC-IRC-IRC-IRC-IRC-IRC-IRC-IRC-IRC-IRC-IRC-IRC-IRC-IRC-IRC
 ------------------------------------------------------------------------
 INPUT DATA FOR L123
 ------------------------------------------------------------------------
 GENERAL PARAMETERS:
 Rxn path following direction = Forward
 Maximum points per path      = 100
 Step size                    =   0.020 bohr
 Integration scheme           = HPC                                 
    Redo corrector integration= Yes                                 
    DWI Weight Power          =  2
    DWI will use Hessian update vectors when possible.
    Max correction cycles     =  20
 Initial Hessian              = ReadFC from chk
 Hessian evaluation           = All updating
 Hessian updating method      = Bofill                              
 ------------------------------------------------------------------------
          ******** Start new reaction path calculation ********
 RCFC Option Requested - Data Read From Chk File:
 "1141903082400600000001_intra_H_migration_suprafacial_2_8_IRC_F.chk"
   Energy From Chk =   -526.7891550

 Current Structure is TS -> form Hessian eigenvectors.
                            Recovering Hessian eigenvectors from chk file.
 Supplied step size of   0.0200 bohr.
    Integration on MW PES will use step size of   0.0210 sqrt(amu)*bohr.
 Point Number:   0          Path Number:   1
 Calculating another point on the path.
 Point Number  1 in FORWARD path direction.
 Using LQA Reaction Path Following.
 IRC-IRC-IRC-IRC-IRC-IRC-IRC-IRC-IRC-IRC-IRC-IRC-IRC-IRC-IRC-IRC-IRC-IRC
 Leave Link  123 at Sun May 25 03:49:56 2025, MaxMem=  3758096384 cpu:               0.0 elap:               0.0
 (Enter /apps/easybuild-2022/easybuild/software/Compiler/NVHPC/22.11-CUDA-11.7.0/Gaussian/g16c01-CUDA-11.7.0/g16/l202.exe)
                          Input orientation:                          
 ---------------------------------------------------------------------
 Center     Atomic      Atomic             Coordinates (Angstroms)
 Number     Number       Type             X           Y           Z
 ---------------------------------------------------------------------
      1          6           0       -0.160279    0.486369   -0.793610
      2          8           0       -0.811446    0.032626   -1.765200
      3          6           0        0.082191   -0.293377    0.500199
      4          9           0        1.203334   -0.994405    0.368724
      5          9           0        0.210865    0.532893    1.524148
      6          9           0       -0.917667   -1.124722    0.738505
      7          8           0        0.303168    1.630310   -1.010248
      8          1           0       -0.363559    1.211990   -2.061828
 ---------------------------------------------------------------------
                    Distance matrix (angstroms):
                    1          2          3          4          5
     1  C    0.000000
     2  O    1.254547   0.000000
     3  C    1.529946   2.457010   0.000000
     4  F    2.324468   3.109303   1.328792   0.000000
     5  F    2.347746   3.480689   1.322025   2.156997   0.000000
     6  F    2.348750   2.760304   1.321984   2.156934   2.153719
     7  O    1.253122   2.089237   2.455779   3.098546   2.763332
     8  H    1.475204   1.295951   3.004797   3.637433   3.694639
                    6          7          8
     6  F    0.000000
     7  O    3.484074   0.000000
     8  H    3.689054   1.313521   0.000000
 Symmetry turned off by external request.
 Stoichiometry    C2HF3O2
 Rotational constants (GHZ):           4.1027826           2.3828480           2.0473001
 Leave Link  202 at Sun May 25 03:49:56 2025, MaxMem=  3758096384 cpu:               0.0 elap:               0.0
 (Enter /apps/easybuild-2022/easybuild/software/Compiler/NVHPC/22.11-CUDA-11.7.0/Gaussian/g16c01-CUDA-11.7.0/g16/l301.exe)
 Standard basis: def2TZVPP (5D, 7F)
 Ernie: Thresh=  0.10000D-02 Tol=  0.10000D-05 Strict=F.
   231 basis functions,   374 primitive gaussians,   267 cartesian basis functions
    28 alpha electrons       28 beta electrons
       nuclear repulsion energy       338.4837746576 Hartrees.
 IExCor= 4336 DFT=T Ex+Corr=M062X ExCW=0 ScaHFX=  0.540000
 ScaDFX=  1.000000  1.000000  1.000000  1.000000 ScalE2=  1.000000  1.000000
 IRadAn=      5 IRanWt=     -1 IRanGd=            0 ICorTp=0 IEmpDi=  4
 NAtoms=    8 NActive=    8 NUniq=    8 SFac= 1.00D+00 NAtFMM=   60 NAOKFM=F Big=F
 Integral buffers will be    131072 words long.
 Raffenetti 2 integral format.
 Two-electron integral symmetry is turned off.
 Leave Link  301 at Sun May 25 03:49:56 2025, MaxMem=  3758096384 cpu:               0.0 elap:               0.0
 (Enter /apps/easybuild-2022/easybuild/software/Compiler/NVHPC/22.11-CUDA-11.7.0/Gaussian/g16c01-CUDA-11.7.0/g16/l302.exe)
 NPDir=0 NMtPBC=     1 NCelOv=     1 NCel=       1 NClECP=     1 NCelD=      1
         NCelK=      1 NCelE2=     1 NClLst=     1 CellRange=     0.0.
 One-electron integrals computed using PRISM.
   1 Symmetry operations used in ECPInt.
 ECPInt:  NShTT=    3486 NPrTT=   11183 LenC2=    3404 LenP2D=    8723.
 LDataN:  DoStor=T MaxTD1= 6 Len=  172
 NBasis=   231 RedAO= T EigKep=  3.45D-04  NBF=   231
 NBsUse=   231 1.00D-06 EigRej= -1.00D+00 NBFU=   231
 Precomputing XC quadrature grid using
 IXCGrd= 4 IRadAn=           5 IRanWt=          -1 IRanGd=           0 AccXCQ= 0.00D+00.
 Generated NRdTot=       0 NPtTot=           0 NUsed=           0 NTot=          32
 NSgBfM=   266   266   266   266   266 MxSgAt=     8 MxSgA2=     8.
 Leave Link  302 at Sun May 25 03:49:56 2025, MaxMem=  3758096384 cpu:               0.4 elap:               0.1
 (Enter /apps/easybuild-2022/easybuild/software/Compiler/NVHPC/22.11-CUDA-11.7.0/Gaussian/g16c01-CUDA-11.7.0/g16/l303.exe)
 DipDrv:  MaxL=1.
 Leave Link  303 at Sun May 25 03:49:56 2025, MaxMem=  3758096384 cpu:               0.1 elap:               0.0
 (Enter /apps/easybuild-2022/easybuild/software/Compiler/NVHPC/22.11-CUDA-11.7.0/Gaussian/g16c01-CUDA-11.7.0/g16/l401.exe)
 Initial guess from the checkpoint file:  "1141903082400600000001_intra_H_migration_suprafacial_2_8_IRC_F.chk"
 B after Tr=    -2.886445    1.161301   -0.548868
         Rot=    1.000000    0.000042   -0.000020   -0.000019 Ang=   0.01 deg.
 Guess basis will be translated and rotated to current coordinates.
 JPrj=2 DoOrth=T DoCkMO=T.
 Leave Link  401 at Sun May 25 03:49:56 2025, MaxMem=  3758096384 cpu:               0.2 elap:               0.1
 (Enter /apps/easybuild-2022/easybuild/software/Compiler/NVHPC/22.11-CUDA-11.7.0/Gaussian/g16c01-CUDA-11.7.0/g16/l502.exe)
 Keep R1 ints in memory in canonical form, NReq=368651279.
 FoFCou: FMM=F IPFlag=           0 FMFlag=           0 FMFlg1=           0
         NFxFlg=           0 DoJE=F BraDBF=F KetDBF=F FulRan=T
         wScrn=  0.000000 ICntrl=       600 IOpCl=  0 I1Cent=           0 NGrid=           0
         NMat0=    1 NMatS0=  26796 NMatT0=    0 NMatD0=    1 NMtDS0=    0 NMtDT0=    0
 Symmetry not used in FoFCou.
 Two-electron integral symmetry not used.
 Closed shell SCF:
 Using DIIS extrapolation, IDIIS=  1040.
 NGot=  3758096384 LenX=  3398923531 LenY=  3398851801
 Requested convergence on RMS density matrix=1.00D-08 within  32 cycles.
 Requested convergence on MAX density matrix=1.00D-06.
 Requested convergence on             energy=1.00D-06.
 No special actions if energy rises.

 Cycle   1  Pass 1  IDiag  1:
 E= -526.789137712330    
 DIIS: error= 3.63D-04 at cycle   1 NSaved=   1.
 NSaved= 1 IEnMin= 1 EnMin= -526.789137712330     IErMin= 1 ErrMin= 3.63D-04
 ErrMax= 3.63D-04  0.00D+00 EMaxC= 1.00D-01 BMatC= 3.13D-05 BMatP= 3.13D-05
 IDIUse=3 WtCom= 9.96D-01 WtEn= 3.63D-03
 Coeff-Com:  0.100D+01
 Coeff-En:   0.100D+01
 Coeff:      0.100D+01
 Gap=     0.402 Goal=   None    Shift=    0.000
 RMSDP=2.56D-05 MaxDP=8.07D-04              OVMax= 3.20D-03

 Cycle   2  Pass 1  IDiag  1:
 E= -526.789179354781     Delta-E=       -0.000041642451 Rises=F Damp=F
 DIIS: error= 2.13D-04 at cycle   2 NSaved=   2.
 NSaved= 2 IEnMin= 2 EnMin= -526.789179354781     IErMin= 2 ErrMin= 2.13D-04
 ErrMax= 2.13D-04  0.00D+00 EMaxC= 1.00D-01 BMatC= 7.53D-06 BMatP= 3.13D-05
 IDIUse=3 WtCom= 9.98D-01 WtEn= 2.13D-03
 Coeff-Com:  0.194D+00 0.806D+00
 Coeff-En:   0.000D+00 0.100D+01
 Coeff:      0.194D+00 0.806D+00
 Gap=     0.402 Goal=   None    Shift=    0.000
 RMSDP=1.24D-05 MaxDP=5.19D-04 DE=-4.16D-05 OVMax= 1.92D-03

 Cycle   3  Pass 1  IDiag  1:
 E= -526.789180166208     Delta-E=       -0.000000811426 Rises=F Damp=F
 DIIS: error= 3.99D-04 at cycle   3 NSaved=   3.
 NSaved= 3 IEnMin= 3 EnMin= -526.789180166208     IErMin= 2 ErrMin= 2.13D-04
 ErrMax= 3.99D-04  0.00D+00 EMaxC= 1.00D-01 BMatC= 9.78D-06 BMatP= 7.53D-06
 IDIUse=3 WtCom= 3.34D-01 WtEn= 6.66D-01
 Coeff-Com: -0.920D-01 0.566D+00 0.526D+00
 Coeff-En:   0.000D+00 0.468D+00 0.532D+00
 Coeff:     -0.307D-01 0.501D+00 0.530D+00
 Gap=     0.402 Goal=   None    Shift=    0.000
 RMSDP=7.87D-06 MaxDP=3.44D-04 DE=-8.11D-07 OVMax= 1.50D-03

 Cycle   4  Pass 1  IDiag  1:
 E= -526.789187246118     Delta-E=       -0.000007079910 Rises=F Damp=F
 DIIS: error= 6.49D-05 at cycle   4 NSaved=   4.
 NSaved= 4 IEnMin= 4 EnMin= -526.789187246118     IErMin= 4 ErrMin= 6.49D-05
 ErrMax= 6.49D-05  0.00D+00 EMaxC= 1.00D-01 BMatC= 6.23D-07 BMatP= 7.53D-06
 IDIUse=1 WtCom= 1.00D+00 WtEn= 0.00D+00
 Coeff-Com: -0.965D-02-0.164D+00 0.122D+00 0.105D+01
 Coeff:     -0.965D-02-0.164D+00 0.122D+00 0.105D+01
 Gap=     0.402 Goal=   None    Shift=    0.000
 RMSDP=3.36D-06 MaxDP=1.22D-04 DE=-7.08D-06 OVMax= 5.38D-04

 Cycle   5  Pass 1  IDiag  1:
 E= -526.789187956140     Delta-E=       -0.000000710022 Rises=F Damp=F
 DIIS: error= 1.22D-05 at cycle   5 NSaved=   5.
 NSaved= 5 IEnMin= 5 EnMin= -526.789187956140     IErMin= 5 ErrMin= 1.22D-05
 ErrMax= 1.22D-05  0.00D+00 EMaxC= 1.00D-01 BMatC= 8.89D-09 BMatP= 6.23D-07
 IDIUse=1 WtCom= 1.00D+00 WtEn= 0.00D+00
 Coeff-Com:  0.107D-01-0.702D-01-0.610D-01-0.143D-01 0.113D+01
 Coeff:      0.107D-01-0.702D-01-0.610D-01-0.143D-01 0.113D+01
 Gap=     0.402 Goal=   None    Shift=    0.000
 RMSDP=1.10D-06 MaxDP=3.21D-05 DE=-7.10D-07 OVMax= 1.62D-04

 Cycle   6  Pass 1  IDiag  1:
 E= -526.789187991892     Delta-E=       -0.000000035752 Rises=F Damp=F
 DIIS: error= 1.84D-06 at cycle   6 NSaved=   6.
 NSaved= 6 IEnMin= 6 EnMin= -526.789187991892     IErMin= 6 ErrMin= 1.84D-06
 ErrMax= 1.84D-06  0.00D+00 EMaxC= 1.00D-01 BMatC= 1.20D-09 BMatP= 8.89D-09
 IDIUse=1 WtCom= 1.00D+00 WtEn= 0.00D+00
 Coeff-Com:  0.332D-02-0.935D-02-0.215D-01-0.649D-01 0.332D+00 0.761D+00
 Coeff:      0.332D-02-0.935D-02-0.215D-01-0.649D-01 0.332D+00 0.761D+00
 Gap=     0.402 Goal=   None    Shift=    0.000
 RMSDP=1.60D-07 MaxDP=4.62D-06 DE=-3.58D-08 OVMax= 2.06D-05

 Cycle   7  Pass 1  IDiag  1:
 E= -526.789187993047     Delta-E=       -0.000000001156 Rises=F Damp=F
 DIIS: error= 1.06D-06 at cycle   7 NSaved=   7.
 NSaved= 7 IEnMin= 7 EnMin= -526.789187993047     IErMin= 7 ErrMin= 1.06D-06
 ErrMax= 1.06D-06  0.00D+00 EMaxC= 1.00D-01 BMatC= 3.75D-10 BMatP= 1.20D-09
 IDIUse=1 WtCom= 1.00D+00 WtEn= 0.00D+00
 Coeff-Com: -0.501D-03 0.101D-01 0.248D-02-0.330D-01-0.586D-01 0.367D+00
 Coeff-Com:  0.712D+00
 Coeff:     -0.501D-03 0.101D-01 0.248D-02-0.330D-01-0.586D-01 0.367D+00
 Coeff:      0.712D+00
 Gap=     0.402 Goal=   None    Shift=    0.000
 RMSDP=6.43D-08 MaxDP=1.66D-06 DE=-1.16D-09 OVMax= 7.20D-06

 Cycle   8  Pass 1  IDiag  1:
 E= -526.789187993335     Delta-E=       -0.000000000288 Rises=F Damp=F
 DIIS: error= 2.48D-07 at cycle   8 NSaved=   8.
 NSaved= 8 IEnMin= 8 EnMin= -526.789187993335     IErMin= 8 ErrMin= 2.48D-07
 ErrMax= 2.48D-07  0.00D+00 EMaxC= 1.00D-01 BMatC= 1.24D-11 BMatP= 3.75D-10
 IDIUse=1 WtCom= 1.00D+00 WtEn= 0.00D+00
 Coeff-Com: -0.281D-03 0.211D-02 0.223D-02-0.222D-02-0.322D-01 0.155D-01
 Coeff-Com:  0.972D-01 0.918D+00
 Coeff:     -0.281D-03 0.211D-02 0.223D-02-0.222D-02-0.322D-01 0.155D-01
 Coeff:      0.972D-01 0.918D+00
 Gap=     0.402 Goal=   None    Shift=    0.000
 RMSDP=1.73D-08 MaxDP=4.40D-07 DE=-2.88D-10 OVMax= 1.46D-06

 Cycle   9  Pass 1  IDiag  1:
 E= -526.789187993336     Delta-E=       -0.000000000001 Rises=F Damp=F
 DIIS: error= 5.65D-08 at cycle   9 NSaved=   9.
 NSaved= 9 IEnMin= 9 EnMin= -526.789187993336     IErMin= 9 ErrMin= 5.65D-08
 ErrMax= 5.65D-08  0.00D+00 EMaxC= 1.00D-01 BMatC= 8.09D-13 BMatP= 1.24D-11
 IDIUse=1 WtCom= 1.00D+00 WtEn= 0.00D+00
 Coeff-Com: -0.356D-04-0.107D-03 0.465D-03 0.120D-02-0.391D-02-0.150D-01
 Coeff-Com: -0.171D-01 0.188D+00 0.847D+00
 Coeff:     -0.356D-04-0.107D-03 0.465D-03 0.120D-02-0.391D-02-0.150D-01
 Coeff:     -0.171D-01 0.188D+00 0.847D+00
 Gap=     0.402 Goal=   None    Shift=    0.000
 RMSDP=4.11D-09 MaxDP=1.21D-07 DE=-6.82D-13 OVMax= 2.46D-07

 SCF Done:  E(RM062X) =  -526.789187993     A.U. after    9 cycles
            NFock=  9  Conv=0.41D-08     -V/T= 2.0037
 KE= 5.248599595891D+02 PE=-1.924515511904D+03 EE= 5.343825896644D+02
 Leave Link  502 at Sun May 25 03:50:04 2025, MaxMem=  3758096384 cpu:              41.3 elap:               7.2
 (Enter /apps/easybuild-2022/easybuild/software/Compiler/NVHPC/22.11-CUDA-11.7.0/Gaussian/g16c01-CUDA-11.7.0/g16/l508.exe)
 QCSCF skips out because SCF is already converged.
 Leave Link  508 at Sun May 25 03:50:04 2025, MaxMem=  3758096384 cpu:               0.0 elap:               0.0
 (Enter /apps/easybuild-2022/easybuild/software/Compiler/NVHPC/22.11-CUDA-11.7.0/Gaussian/g16c01-CUDA-11.7.0/g16/l801.exe)
 DoSCS=F DFT=T ScalE2(SS,OS)=  1.000000  1.000000
 Range of M.O.s used for correlation:     1   231
 NBasis=   231 NAE=    28 NBE=    28 NFC=     0 NFV=     0
 NROrb=    231 NOA=    28 NOB=    28 NVA=   203 NVB=   203

 **** Warning!!: The largest alpha MO coefficient is  0.16488100D+02

 Leave Link  801 at Sun May 25 03:50:04 2025, MaxMem=  3758096384 cpu:               0.0 elap:               0.0
 (Enter /apps/easybuild-2022/easybuild/software/Compiler/NVHPC/22.11-CUDA-11.7.0/Gaussian/g16c01-CUDA-11.7.0/g16/l1101.exe)
 Leave Link 1101 at Sun May 25 03:50:04 2025, MaxMem=  3758096384 cpu:               0.0 elap:               0.0
 (Enter /apps/easybuild-2022/easybuild/software/Compiler/NVHPC/22.11-CUDA-11.7.0/Gaussian/g16c01-CUDA-11.7.0/g16/l1102.exe)
 Symmetrizing basis deriv contribution to polar:
 IMax=3 JMax=2 DiffMx= 0.00D+00
 Leave Link 1102 at Sun May 25 03:50:04 2025, MaxMem=  3758096384 cpu:               0.0 elap:               0.0
 (Enter /apps/easybuild-2022/easybuild/software/Compiler/NVHPC/22.11-CUDA-11.7.0/Gaussian/g16c01-CUDA-11.7.0/g16/l1110.exe)
 Leave Link 1110 at Sun May 25 03:50:04 2025, MaxMem=  3758096384 cpu:               0.0 elap:               0.0
 (Enter /apps/easybuild-2022/easybuild/software/Compiler/NVHPC/22.11-CUDA-11.7.0/Gaussian/g16c01-CUDA-11.7.0/g16/l1002.exe)
 Minotr:  Closed shell wavefunction.
 Leave Link 1002 at Sun May 25 03:50:04 2025, MaxMem=  3758096384 cpu:               0.0 elap:               0.0
 (Enter /apps/easybuild-2022/easybuild/software/Compiler/NVHPC/22.11-CUDA-11.7.0/Gaussian/g16c01-CUDA-11.7.0/g16/l701.exe)
 ... and contract with generalized density number  0.
 Compute integral first derivatives.
   1 Symmetry operations used in ECPInt.
 ECPInt:  NShTT=    3486 NPrTT=   11183 LenC2=    3404 LenP2D=    8723.
 LDataN:  DoStor=T MaxTD1= 7 Len=  274
 Leave Link  701 at Sun May 25 03:50:04 2025, MaxMem=  3758096384 cpu:               0.5 elap:               0.1
 (Enter /apps/easybuild-2022/easybuild/software/Compiler/NVHPC/22.11-CUDA-11.7.0/Gaussian/g16c01-CUDA-11.7.0/g16/l702.exe)
 L702 exits ... SP integral derivatives will be done elsewhere.
 Leave Link  702 at Sun May 25 03:50:04 2025, MaxMem=  3758096384 cpu:               0.0 elap:               0.0
 (Enter /apps/easybuild-2022/easybuild/software/Compiler/NVHPC/22.11-CUDA-11.7.0/Gaussian/g16c01-CUDA-11.7.0/g16/l703.exe)
 Integral derivatives from FoFJK, PRISM(SPDF).
 Compute integral first derivatives, UseDBF=F ICtDFT=           0.
 Calling FoFJK, ICntrl=      2127 FMM=F ISym2X=0 I1Cent= 0 IOpClX= 0 NMat=1 NMatS=1 NMatT=0.
 FoFJK:  IHMeth= 1 ICntrl=    2127 DoSepK=F KAlg= 0 I1Cent=           0 FoldK=F
 IRaf=         0 NMat=       1 IRICut=       1 DoRegI=T DoRafI=F ISym2E= 0 IDoP0=0 IntGTp=1.
 FoFCou: FMM=F IPFlag=           0 FMFlag=      100000 FMFlg1=         800
         NFxFlg=           0 DoJE=F BraDBF=F KetDBF=F FulRan=T
         wScrn=  0.000000 ICntrl=      2127 IOpCl=  0 I1Cent=           0 NGrid=           0
         NMat0=    1 NMatS0=      1 NMatT0=    0 NMatD0=    1 NMtDS0=    0 NMtDT0=    0
 Symmetry not used in FoFCou.
 Leave Link  703 at Sun May 25 03:50:07 2025, MaxMem=  3758096384 cpu:              26.5 elap:               3.4
 (Enter /apps/easybuild-2022/easybuild/software/Compiler/NVHPC/22.11-CUDA-11.7.0/Gaussian/g16c01-CUDA-11.7.0/g16/l716.exe)
 Dipole        =-6.11967057D-02 1.00355021D-01-1.61588638D-01
 Polarizability= 0.00000000D+00 0.00000000D+00 0.00000000D+00
                 0.00000000D+00 0.00000000D+00 0.00000000D+00
 -------------------------------------------------------------------
 Center     Atomic                   Forces (Hartrees/Bohr)
 Number     Number              X              Y              Z
 -------------------------------------------------------------------
      1        6           0.001265277    0.001809671    0.000853989
      2        8          -0.000043304    0.001168163   -0.001404157
      3        6           0.000035788    0.000042663    0.000016403
      4        9          -0.000008165   -0.000011827   -0.000007154
      5        9          -0.000016106   -0.000055916   -0.000039405
      6        9          -0.000051766   -0.000051257   -0.000009162
      7        8           0.000430623   -0.000597311    0.001672904
      8        1          -0.001612348   -0.002304186   -0.001083418
 -------------------------------------------------------------------
 Cartesian Forces:  Max     0.002304186 RMS     0.000943857
 Leave Link  716 at Sun May 25 03:50:07 2025, MaxMem=  3758096384 cpu:               0.0 elap:               0.0
 (Enter /apps/easybuild-2022/easybuild/software/Compiler/NVHPC/22.11-CUDA-11.7.0/Gaussian/g16c01-CUDA-11.7.0/g16/l123.exe)
 IRC-IRC-IRC-IRC-IRC-IRC-IRC-IRC-IRC-IRC-IRC-IRC-IRC-IRC-IRC-IRC-IRC-IRC
 Pt  1 Step number   1 out of a maximum of  20
 Using modified Bulirsch-Stoer corrector integration.
   Using distance weighted interpolants to fit PES.
 PreDWI: IReCr0= 2 IReCr1= 1 IReCr2= 1 IReCr3= 1
 Modified Bulirsch-Stoer Extrapolation Cycles:
    EPS =    0.000010000000000
    Cycle     1 NS=    48
      PEZero:  N= 2 I= 1 D=  5.46D-05 Err=  1.19D-04
    Cycle     2 NS=    64 Truncation Error =  0.000119473
      PEZero:  N= 3 I= 2 D=  5.46D-05 Err=  7.96D-05
      PEZero:  N= 3 I= 1 D=  1.09D-04 Err=  5.74D-10
    Cycle     3 NS=    96 Truncation Error =  0.000000001
 BS completed in    3 cycles and     208 integration steps.
 Maximum DWI energy   std dev =  0.000000012 at pt    24
 Maximum DWI gradient std dev =  0.001091019 at pt     1
 SUMMARY OF CORRECTOR INTEGRATION:
   Predictor End Point Energy =  -526.789188
   Old End Point Energy       =  -526.789188
   Corrected End Point Energy =  -526.789188
   Predictor End-Start Dist.  =     0.020964
   Old End-Start Dist.        =     0.020964
   New End-Start Dist.        =     0.020964
   New End-Old End Dist.      =     0.000024
 CORRECTOR INTEGRATION CONVERGENCE:
   Recorrection delta-x convergence threshold:    0.010000
   Delta-x Convergence Met
 Point Number:   1          Path Number:   1
                    CURRENT STRUCTURE
                Cartesian Coordinates (Ang):                
 ---------------------------------------------------------------------
 Center     Atomic                     Coordinates (Angstroms)
 Number     Number                        X           Y           Z
 ---------------------------------------------------------------------
      1          6                   -0.160278    0.486369   -0.793610
      2          8                   -0.811447    0.032626   -1.765201
      3          6                    0.082192   -0.293377    0.500198
      4          9                    1.203334   -0.994404    0.368724
      5          9                    0.210865    0.532893    1.524148
      6          9                   -0.917667   -1.124722    0.738504
      7          8                    0.303167    1.630311   -1.010247
      8          1                   -0.363567    1.211992   -2.061821
 ---------------------------------------------------------------------
   CHANGE IN THE REACTION COORDINATE =    0.02096
   NET REACTION COORDINATE UP TO THIS POINT =    0.02096
  # OF POINTS ALONG THE PATH =   1
  # OF STEPS =   1

 Calculating another point on the path.
 Point Number  2 in FORWARD path direction.
 Using LQA Reaction Path Following.
   LQA: T_Est iteration completed in    3 iterations.
 IRC-IRC-IRC-IRC-IRC-IRC-IRC-IRC-IRC-IRC-IRC-IRC-IRC-IRC-IRC-IRC-IRC-IRC
 Leave Link  123 at Sun May 25 03:50:07 2025, MaxMem=  3758096384 cpu:               0.1 elap:               0.0
 (Enter /apps/easybuild-2022/easybuild/software/Compiler/NVHPC/22.11-CUDA-11.7.0/Gaussian/g16c01-CUDA-11.7.0/g16/l202.exe)
                          Input orientation:                          
 ---------------------------------------------------------------------
 Center     Atomic      Atomic             Coordinates (Angstroms)
 Number     Number       Type             X           Y           Z
 ---------------------------------------------------------------------
      1          6           0       -0.159906    0.486900   -0.793359
      2          8           0       -0.811456    0.032884   -1.765510
      3          6           0        0.082202   -0.293364    0.500203
      4          9           0        1.203333   -0.994407    0.368723
      5          9           0        0.210862    0.532883    1.524140
      6          9           0       -0.917676   -1.124732    0.738503
      7          8           0        0.303263    1.630179   -1.009879
      8          1           0       -0.369203    1.203933   -2.065617
 ---------------------------------------------------------------------
                    Distance matrix (angstroms):
                    1          2          3          4          5
     1  C    0.000000
     2  O    1.255279   0.000000
     3  C    1.529946   2.457340   0.000000
     4  F    2.324463   3.109606   1.328790   0.000000
     5  F    2.347422   3.480938   1.322000   2.156989   0.000000
     6  F    2.349079   2.760694   1.322012   2.156943   2.153720
     7  O    1.252394   2.089241   2.455450   3.098245   2.762942
     8  H    1.475324   1.287249   3.004846   3.637524   3.697721
                    6          7          8
     6  F    0.000000
     7  O    3.483829   0.000000
     8  H    3.685999   1.322300   0.000000
 Symmetry turned off by external request.
 Stoichiometry    C2HF3O2
 Rotational constants (GHZ):           4.1027675           2.3828478           2.0472959
 Leave Link  202 at Sun May 25 03:50:07 2025, MaxMem=  3758096384 cpu:               0.0 elap:               0.0
 (Enter /apps/easybuild-2022/easybuild/software/Compiler/NVHPC/22.11-CUDA-11.7.0/Gaussian/g16c01-CUDA-11.7.0/g16/l301.exe)
 Standard basis: def2TZVPP (5D, 7F)
 Ernie: Thresh=  0.10000D-02 Tol=  0.10000D-05 Strict=F.
   231 basis functions,   374 primitive gaussians,   267 cartesian basis functions
    28 alpha electrons       28 beta electrons
       nuclear repulsion energy       338.4841533716 Hartrees.
 IExCor= 4336 DFT=T Ex+Corr=M062X ExCW=0 ScaHFX=  0.540000
 ScaDFX=  1.000000  1.000000  1.000000  1.000000 ScalE2=  1.000000  1.000000
 IRadAn=      5 IRanWt=     -1 IRanGd=            0 ICorTp=0 IEmpDi=  4
 NAtoms=    8 NActive=    8 NUniq=    8 SFac= 1.00D+00 NAtFMM=   60 NAOKFM=F Big=F
 Integral buffers will be    131072 words long.
 Raffenetti 2 integral format.
 Two-electron integral symmetry is turned off.
 Leave Link  301 at Sun May 25 03:50:07 2025, MaxMem=  3758096384 cpu:               0.0 elap:               0.0
 (Enter /apps/easybuild-2022/easybuild/software/Compiler/NVHPC/22.11-CUDA-11.7.0/Gaussian/g16c01-CUDA-11.7.0/g16/l302.exe)
 NPDir=0 NMtPBC=     1 NCelOv=     1 NCel=       1 NClECP=     1 NCelD=      1
         NCelK=      1 NCelE2=     1 NClLst=     1 CellRange=     0.0.
 One-electron integrals computed using PRISM.
   1 Symmetry operations used in ECPInt.
 ECPInt:  NShTT=    3486 NPrTT=   11183 LenC2=    3404 LenP2D=    8723.
 LDataN:  DoStor=T MaxTD1= 6 Len=  172
 NBasis=   231 RedAO= T EigKep=  3.45D-04  NBF=   231
 NBsUse=   231 1.00D-06 EigRej= -1.00D+00 NBFU=   231
 Precomputing XC quadrature grid using
 IXCGrd= 4 IRadAn=           5 IRanWt=          -1 IRanGd=           0 AccXCQ= 0.00D+00.
 Generated NRdTot=       0 NPtTot=           0 NUsed=           0 NTot=          32
 NSgBfM=   266   266   266   266   266 MxSgAt=     8 MxSgA2=     8.
 Leave Link  302 at Sun May 25 03:50:08 2025, MaxMem=  3758096384 cpu:               0.4 elap:               0.1
 (Enter /apps/easybuild-2022/easybuild/software/Compiler/NVHPC/22.11-CUDA-11.7.0/Gaussian/g16c01-CUDA-11.7.0/g16/l303.exe)
 DipDrv:  MaxL=1.
 Leave Link  303 at Sun May 25 03:50:08 2025, MaxMem=  3758096384 cpu:               0.1 elap:               0.0
 (Enter /apps/easybuild-2022/easybuild/software/Compiler/NVHPC/22.11-CUDA-11.7.0/Gaussian/g16c01-CUDA-11.7.0/g16/l401.exe)
 Initial guess from the checkpoint file:  "1141903082400600000001_intra_H_migration_suprafacial_2_8_IRC_F.chk"
 B after Tr=    -0.000089   -0.000127   -0.000060
         Rot=    1.000000    0.000042   -0.000020   -0.000020 Ang=   0.01 deg.
 Guess basis will be translated and rotated to current coordinates.
 JPrj=2 DoOrth=T DoCkMO=T.
 Generating alternative initial guess.
 ExpMin= 9.52D-02 ExpMax= 3.55D+04 ExpMxC= 1.21D+03 IAcc=3 IRadAn=         5 AccDes= 0.00D+00
 Harris functional with IExCor= 1009 and IRadAn=       5 diagonalized for initial guess.
 HarFok:  IExCor= 1009 AccDes= 0.00D+00 IRadAn=         5 IDoV= 1 UseB2=F ITyADJ=14
 ICtDFT=  3500011 ScaDFX=  1.000000  1.000000  1.000000  1.000000
 FoFCou: FMM=F IPFlag=           0 FMFlag=      100000 FMFlg1=           0
         NFxFlg=           0 DoJE=T BraDBF=F KetDBF=T FulRan=T
         wScrn=  0.000000 ICntrl=       500 IOpCl=  0 I1Cent=   200000004 NGrid=           0
         NMat0=    1 NMatS0=      1 NMatT0=    0 NMatD0=    1 NMtDS0=    0 NMtDT0=    0
 Symmetry not used in FoFCou.
 Harris En= -526.486447572623    
 Leave Link  401 at Sun May 25 03:50:08 2025, MaxMem=  3758096384 cpu:               2.2 elap:               0.3
 (Enter /apps/easybuild-2022/easybuild/software/Compiler/NVHPC/22.11-CUDA-11.7.0/Gaussian/g16c01-CUDA-11.7.0/g16/l502.exe)
 Keep R1 ints in memory in canonical form, NReq=368651279.
 FoFCou: FMM=F IPFlag=           0 FMFlag=           0 FMFlg1=           0
         NFxFlg=           0 DoJE=F BraDBF=F KetDBF=F FulRan=T
         wScrn=  0.000000 ICntrl=       600 IOpCl=  0 I1Cent=           0 NGrid=           0
         NMat0=    1 NMatS0=  26796 NMatT0=    0 NMatD0=    1 NMtDS0=    0 NMtDT0=    0
 Symmetry not used in FoFCou.
 Two-electron integral symmetry not used.
 Closed shell SCF:
 Using DIIS extrapolation, IDIIS=  1040.
 NGot=  3758096384 LenX=  3398923531 LenY=  3398851801
 Requested convergence on RMS density matrix=1.00D-08 within  32 cycles.
 Requested convergence on MAX density matrix=1.00D-06.
 Requested convergence on             energy=1.00D-06.
 No special actions if energy rises.
 Integral accuracy reduced to 1.0D-05 until final iterations.

 Cycle   1  Pass 0  IDiag  1:
 E= -526.789247935667    
 DIIS: error= 3.49D-04 at cycle   1 NSaved=   1.
 NSaved= 1 IEnMin= 1 EnMin= -526.789247935667     IErMin= 1 ErrMin= 3.49D-04
 ErrMax= 3.49D-04  0.00D+00 EMaxC= 1.00D-01 BMatC= 3.16D-05 BMatP= 3.16D-05
 IDIUse=3 WtCom= 9.97D-01 WtEn= 3.49D-03
 Coeff-Com:  0.100D+01
 Coeff-En:   0.100D+01
 Coeff:      0.100D+01
 Gap=     1.076 Goal=   None    Shift=    0.000
 RMSDP=2.76D-05 MaxDP=8.15D-04              OVMax= 3.18D-03

 Cycle   2  Pass 0  IDiag  1:
 E= -526.789289690748     Delta-E=       -0.000041755082 Rises=F Damp=F
 DIIS: error= 2.12D-04 at cycle   2 NSaved=   2.
 NSaved= 2 IEnMin= 2 EnMin= -526.789289690748     IErMin= 2 ErrMin= 2.12D-04
 ErrMax= 2.12D-04  0.00D+00 EMaxC= 1.00D-01 BMatC= 7.48D-06 BMatP= 3.16D-05
 IDIUse=3 WtCom= 9.98D-01 WtEn= 2.12D-03
 Coeff-Com:  0.192D+00 0.808D+00
 Coeff-En:   0.000D+00 0.100D+01
 Coeff:      0.191D+00 0.809D+00
 Gap=     0.402 Goal=   None    Shift=    0.000
 RMSDP=1.24D-05 MaxDP=5.16D-04 DE=-4.18D-05 OVMax= 1.92D-03

 Cycle   3  Pass 0  IDiag  1:
 E= -526.789290446611     Delta-E=       -0.000000755863 Rises=F Damp=F
 DIIS: error= 3.99D-04 at cycle   3 NSaved=   3.
 NSaved= 3 IEnMin= 3 EnMin= -526.789290446611     IErMin= 2 ErrMin= 2.12D-04
 ErrMax= 3.99D-04  0.00D+00 EMaxC= 1.00D-01 BMatC= 9.80D-06 BMatP= 7.48D-06
 IDIUse=3 WtCom= 3.34D-01 WtEn= 6.66D-01
 Coeff-Com: -0.903D-01 0.567D+00 0.523D+00
 Coeff-En:   0.000D+00 0.471D+00 0.529D+00
 Coeff:     -0.301D-01 0.503D+00 0.527D+00
 Gap=     0.401 Goal=   None    Shift=    0.000
 RMSDP=7.86D-06 MaxDP=3.43D-04 DE=-7.56D-07 OVMax= 1.49D-03

 Initial convergence to 1.0D-05 achieved.  Increase integral accuracy.
 Cycle   4  Pass 1  IDiag  1:
 E= -526.789285765850     Delta-E=        0.000004680761 Rises=F Damp=F
 DIIS: error= 6.47D-05 at cycle   1 NSaved=   1.
 NSaved= 1 IEnMin= 1 EnMin= -526.789285765850     IErMin= 1 ErrMin= 6.47D-05
 ErrMax= 6.47D-05  0.00D+00 EMaxC= 1.00D-01 BMatC= 9.59D-07 BMatP= 9.59D-07
 IDIUse=1 WtCom= 1.00D+00 WtEn= 0.00D+00
 Coeff-Com:  0.100D+01
 Coeff:      0.100D+01
 Gap=     0.402 Goal=   None    Shift=    0.000
 RMSDP=7.86D-06 MaxDP=3.43D-04 DE= 4.68D-06 OVMax= 7.11D-04

 Cycle   5  Pass 1  IDiag  1:
 E= -526.789285484234     Delta-E=        0.000000281616 Rises=F Damp=F
 DIIS: error= 1.61D-04 at cycle   2 NSaved=   2.
 NSaved= 2 IEnMin= 1 EnMin= -526.789285765850     IErMin= 1 ErrMin= 6.47D-05
 ErrMax= 1.61D-04  0.00D+00 EMaxC= 1.00D-01 BMatC= 1.71D-06 BMatP= 9.59D-07
 IDIUse=3 WtCom= 4.41D-01 WtEn= 5.59D-01
 Coeff-Com:  0.584D+00 0.416D+00
 Coeff-En:   0.583D+00 0.417D+00
 Coeff:      0.583D+00 0.417D+00
 Gap=     0.402 Goal=   None    Shift=    0.000
 RMSDP=2.99D-06 MaxDP=1.31D-04 DE= 2.82D-07 OVMax= 5.12D-04

 Cycle   6  Pass 1  IDiag  1:
 E= -526.789286650607     Delta-E=       -0.000001166373 Rises=F Damp=F
 DIIS: error= 2.08D-05 at cycle   3 NSaved=   3.
 NSaved= 3 IEnMin= 3 EnMin= -526.789286650607     IErMin= 3 ErrMin= 2.08D-05
 ErrMax= 2.08D-05  0.00D+00 EMaxC= 1.00D-01 BMatC= 7.05D-08 BMatP= 9.59D-07
 IDIUse=1 WtCom= 1.00D+00 WtEn= 0.00D+00
 Coeff-Com: -0.764D-01 0.135D+00 0.942D+00
 Coeff:     -0.764D-01 0.135D+00 0.942D+00
 Gap=     0.402 Goal=   None    Shift=    0.000
 RMSDP=1.17D-06 MaxDP=3.36D-05 DE=-1.17D-06 OVMax= 1.52D-04

 Cycle   7  Pass 1  IDiag  1:
 E= -526.789286727451     Delta-E=       -0.000000076844 Rises=F Damp=F
 DIIS: error= 4.01D-06 at cycle   4 NSaved=   4.
 NSaved= 4 IEnMin= 4 EnMin= -526.789286727451     IErMin= 4 ErrMin= 4.01D-06
 ErrMax= 4.01D-06  0.00D+00 EMaxC= 1.00D-01 BMatC= 1.80D-09 BMatP= 7.05D-08
 IDIUse=1 WtCom= 1.00D+00 WtEn= 0.00D+00
 Coeff-Com: -0.454D-02-0.300D-01-0.226D+00 0.126D+01
 Coeff:     -0.454D-02-0.300D-01-0.226D+00 0.126D+01
 Gap=     0.402 Goal=   None    Shift=    0.000
 RMSDP=4.22D-07 MaxDP=1.21D-05 DE=-7.68D-08 OVMax= 6.02D-05

 Cycle   8  Pass 1  IDiag  1:
 E= -526.789286733919     Delta-E=       -0.000000006469 Rises=F Damp=F
 DIIS: error= 1.41D-06 at cycle   5 NSaved=   5.
 NSaved= 5 IEnMin= 5 EnMin= -526.789286733919     IErMin= 5 ErrMin= 1.41D-06
 ErrMax= 1.41D-06  0.00D+00 EMaxC= 1.00D-01 BMatC= 7.86D-10 BMatP= 1.80D-09
 IDIUse=1 WtCom= 1.00D+00 WtEn= 0.00D+00
 Coeff-Com:  0.754D-02-0.323D-01-0.246D+00 0.625D+00 0.646D+00
 Coeff:      0.754D-02-0.323D-01-0.246D+00 0.625D+00 0.646D+00
 Gap=     0.402 Goal=   None    Shift=    0.000
 RMSDP=1.20D-07 MaxDP=3.15D-06 DE=-6.47D-09 OVMax= 1.60D-05

 Cycle   9  Pass 1  IDiag  1:
 E= -526.789286734735     Delta-E=       -0.000000000815 Rises=F Damp=F
 DIIS: error= 3.41D-07 at cycle   6 NSaved=   6.
 NSaved= 6 IEnMin= 6 EnMin= -526.789286734735     IErMin= 6 ErrMin= 3.41D-07
 ErrMax= 3.41D-07  0.00D+00 EMaxC= 1.00D-01 BMatC= 3.97D-11 BMatP= 7.86D-10
 IDIUse=1 WtCom= 1.00D+00 WtEn= 0.00D+00
 Coeff-Com:  0.303D-02-0.626D-02-0.547D-01 0.557D-01 0.199D+00 0.803D+00
 Coeff:      0.303D-02-0.626D-02-0.547D-01 0.557D-01 0.199D+00 0.803D+00
 Gap=     0.402 Goal=   None    Shift=    0.000
 RMSDP=3.37D-08 MaxDP=7.92D-07 DE=-8.15D-10 OVMax= 4.51D-06

 Cycle  10  Pass 1  IDiag  1:
 E= -526.789286734806     Delta-E=       -0.000000000071 Rises=F Damp=F
 DIIS: error= 1.08D-07 at cycle   7 NSaved=   7.
 NSaved= 7 IEnMin= 7 EnMin= -526.789286734806     IErMin= 7 ErrMin= 1.08D-07
 ErrMax= 1.08D-07  0.00D+00 EMaxC= 1.00D-01 BMatC= 2.10D-12 BMatP= 3.97D-11
 IDIUse=1 WtCom= 1.00D+00 WtEn= 0.00D+00
 Coeff-Com: -0.241D-03 0.222D-02 0.121D-01-0.428D-01-0.259D-01 0.111D+00
 Coeff-Com:  0.944D+00
 Coeff:     -0.241D-03 0.222D-02 0.121D-01-0.428D-01-0.259D-01 0.111D+00
 Coeff:      0.944D+00
 Gap=     0.402 Goal=   None    Shift=    0.000
 RMSDP=1.01D-08 MaxDP=3.11D-07 DE=-7.09D-11 OVMax= 8.23D-07

 Cycle  11  Pass 1  IDiag  1:
 E= -526.789286734784     Delta-E=        0.000000000022 Rises=F Damp=F
 DIIS: error= 2.94D-08 at cycle   8 NSaved=   8.
 NSaved= 8 IEnMin= 7 EnMin= -526.789286734806     IErMin= 8 ErrMin= 2.94D-08
 ErrMax= 2.94D-08  0.00D+00 EMaxC= 1.00D-01 BMatC= 2.35D-13 BMatP= 2.10D-12
 IDIUse=1 WtCom= 1.00D+00 WtEn= 0.00D+00
 Coeff-Com: -0.229D-03 0.120D-02 0.708D-02-0.185D-01-0.190D-01-0.770D-03
 Coeff-Com:  0.326D+00 0.704D+00
 Coeff:     -0.229D-03 0.120D-02 0.708D-02-0.185D-01-0.190D-01-0.770D-03
 Coeff:      0.326D+00 0.704D+00
 Gap=     0.402 Goal=   None    Shift=    0.000
 RMSDP=1.76D-09 MaxDP=5.36D-08 DE= 2.21D-11 OVMax= 9.25D-08

 SCF Done:  E(RM062X) =  -526.789286735     A.U. after   11 cycles
            NFock= 11  Conv=0.18D-08     -V/T= 2.0037
 KE= 5.248603091451D+02 PE=-1.924516731862D+03 EE= 5.343829826107D+02
 Leave Link  502 at Sun May 25 03:50:16 2025, MaxMem=  3758096384 cpu:              41.6 elap:               7.6
 (Enter /apps/easybuild-2022/easybuild/software/Compiler/NVHPC/22.11-CUDA-11.7.0/Gaussian/g16c01-CUDA-11.7.0/g16/l508.exe)
 QCSCF skips out because SCF is already converged.
 Leave Link  508 at Sun May 25 03:50:16 2025, MaxMem=  3758096384 cpu:               0.0 elap:               0.0
 (Enter /apps/easybuild-2022/easybuild/software/Compiler/NVHPC/22.11-CUDA-11.7.0/Gaussian/g16c01-CUDA-11.7.0/g16/l801.exe)
 DoSCS=F DFT=T ScalE2(SS,OS)=  1.000000  1.000000
 Range of M.O.s used for correlation:     1   231
 NBasis=   231 NAE=    28 NBE=    28 NFC=     0 NFV=     0
 NROrb=    231 NOA=    28 NOB=    28 NVA=   203 NVB=   203

 **** Warning!!: The largest alpha MO coefficient is  0.16275931D+02

 Leave Link  801 at Sun May 25 03:50:16 2025, MaxMem=  3758096384 cpu:               0.0 elap:               0.0
 (Enter /apps/easybuild-2022/easybuild/software/Compiler/NVHPC/22.11-CUDA-11.7.0/Gaussian/g16c01-CUDA-11.7.0/g16/l1101.exe)
 Leave Link 1101 at Sun May 25 03:50:16 2025, MaxMem=  3758096384 cpu:               0.0 elap:               0.0
 (Enter /apps/easybuild-2022/easybuild/software/Compiler/NVHPC/22.11-CUDA-11.7.0/Gaussian/g16c01-CUDA-11.7.0/g16/l1102.exe)
 Symmetrizing basis deriv contribution to polar:
 IMax=3 JMax=2 DiffMx= 0.00D+00
 Leave Link 1102 at Sun May 25 03:50:16 2025, MaxMem=  3758096384 cpu:               0.1 elap:               0.0
 (Enter /apps/easybuild-2022/easybuild/software/Compiler/NVHPC/22.11-CUDA-11.7.0/Gaussian/g16c01-CUDA-11.7.0/g16/l1110.exe)
 Leave Link 1110 at Sun May 25 03:50:16 2025, MaxMem=  3758096384 cpu:               0.0 elap:               0.0
 (Enter /apps/easybuild-2022/easybuild/software/Compiler/NVHPC/22.11-CUDA-11.7.0/Gaussian/g16c01-CUDA-11.7.0/g16/l1002.exe)
 Minotr:  Closed shell wavefunction.
 Leave Link 1002 at Sun May 25 03:50:16 2025, MaxMem=  3758096384 cpu:               0.0 elap:               0.0
 (Enter /apps/easybuild-2022/easybuild/software/Compiler/NVHPC/22.11-CUDA-11.7.0/Gaussian/g16c01-CUDA-11.7.0/g16/l701.exe)
 ... and contract with generalized density number  0.
 Compute integral first derivatives.
   1 Symmetry operations used in ECPInt.
 ECPInt:  NShTT=    3486 NPrTT=   11183 LenC2=    3404 LenP2D=    8723.
 LDataN:  DoStor=T MaxTD1= 7 Len=  274
 Leave Link  701 at Sun May 25 03:50:16 2025, MaxMem=  3758096384 cpu:               0.5 elap:               0.1
 (Enter /apps/easybuild-2022/easybuild/software/Compiler/NVHPC/22.11-CUDA-11.7.0/Gaussian/g16c01-CUDA-11.7.0/g16/l702.exe)
 L702 exits ... SP integral derivatives will be done elsewhere.
 Leave Link  702 at Sun May 25 03:50:16 2025, MaxMem=  3758096384 cpu:               0.0 elap:               0.0
 (Enter /apps/easybuild-2022/easybuild/software/Compiler/NVHPC/22.11-CUDA-11.7.0/Gaussian/g16c01-CUDA-11.7.0/g16/l703.exe)
 Integral derivatives from FoFJK, PRISM(SPDF).
 Compute integral first derivatives, UseDBF=F ICtDFT=           0.
 Calling FoFJK, ICntrl=      2127 FMM=F ISym2X=0 I1Cent= 0 IOpClX= 0 NMat=1 NMatS=1 NMatT=0.
 FoFJK:  IHMeth= 1 ICntrl=    2127 DoSepK=F KAlg= 0 I1Cent=           0 FoldK=F
 IRaf=         0 NMat=       1 IRICut=       1 DoRegI=T DoRafI=F ISym2E= 0 IDoP0=0 IntGTp=1.
 FoFCou: FMM=F IPFlag=           0 FMFlag=      100000 FMFlg1=         800
         NFxFlg=           0 DoJE=F BraDBF=F KetDBF=F FulRan=T
         wScrn=  0.000000 ICntrl=      2127 IOpCl=  0 I1Cent=           0 NGrid=           0
         NMat0=    1 NMatS0=      1 NMatT0=    0 NMatD0=    1 NMtDS0=    0 NMtDT0=    0
 Symmetry not used in FoFCou.
 Leave Link  703 at Sun May 25 03:50:19 2025, MaxMem=  3758096384 cpu:              26.8 elap:               3.4
 (Enter /apps/easybuild-2022/easybuild/software/Compiler/NVHPC/22.11-CUDA-11.7.0/Gaussian/g16c01-CUDA-11.7.0/g16/l716.exe)
 Dipole        =-6.81994459D-02 9.04343351D-02-1.66446856D-01
 Polarizability= 0.00000000D+00 0.00000000D+00 0.00000000D+00
                 0.00000000D+00 0.00000000D+00 0.00000000D+00
 -------------------------------------------------------------------
 Center     Atomic                   Forces (Hartrees/Bohr)
 Number     Number              X              Y              Z
 -------------------------------------------------------------------
      1        6           0.002521510    0.003614068    0.001702799
      2        8          -0.000092638    0.002322683   -0.002803998
      3        6           0.000064745    0.000089366    0.000034355
      4        9          -0.000017722   -0.000030206   -0.000012903
      5        9          -0.000029762   -0.000111228   -0.000079634
      6        9          -0.000105962   -0.000096256   -0.000016635
      7        8           0.000867465   -0.001189508    0.003336429
      8        1          -0.003207636   -0.004598918   -0.002160414
 -------------------------------------------------------------------
 Cartesian Forces:  Max     0.004598918 RMS     0.001882436
 Leave Link  716 at Sun May 25 03:50:19 2025, MaxMem=  3758096384 cpu:               0.0 elap:               0.0
 (Enter /apps/easybuild-2022/easybuild/software/Compiler/NVHPC/22.11-CUDA-11.7.0/Gaussian/g16c01-CUDA-11.7.0/g16/l123.exe)
 IRC-IRC-IRC-IRC-IRC-IRC-IRC-IRC-IRC-IRC-IRC-IRC-IRC-IRC-IRC-IRC-IRC-IRC
 Pt  2 Step number   1 out of a maximum of  20
 Using modified Bulirsch-Stoer corrector integration.
   Using distance weighted interpolants to fit PES.
 PreDWI: IReCr0= 2 IReCr1= 1 IReCr2= 1 IReCr3= 1
 Modified Bulirsch-Stoer Extrapolation Cycles:
    EPS =    0.000010000000000
    Cycle     1 NS=    48
      PEZero:  N= 2 I= 1 D=  1.09D-04 Err=  1.44D-07
    Cycle     2 NS=    64 Truncation Error =  0.000000144
 BS completed in    2 cycles and     112 integration steps.
 Maximum DWI energy   std dev =  0.000000018 at pt    49
 Maximum DWI gradient std dev =  0.000538515 at pt    27
 SUMMARY OF CORRECTOR INTEGRATION:
   Predictor End Point Energy =  -526.789287
   Old End Point Energy       =  -526.789287
   Corrected End Point Energy =  -526.789287
   Predictor End-Start Dist.  =     0.020957
   Old End-Start Dist.        =     0.020957
   New End-Start Dist.        =     0.020957
   New End-Old End Dist.      =     0.000011
 CORRECTOR INTEGRATION CONVERGENCE:
   Recorrection delta-x convergence threshold:    0.010000
   Delta-x Convergence Met
 Point Number:   2          Path Number:   1
                    CURRENT STRUCTURE
                Cartesian Coordinates (Ang):                
 ---------------------------------------------------------------------
 Center     Atomic                     Coordinates (Angstroms)
 Number     Number                        X           Y           Z
 ---------------------------------------------------------------------
      1          6                   -0.159906    0.486901   -0.793359
      2          8                   -0.811456    0.032883   -1.765510
      3          6                    0.082202   -0.293364    0.500203
      4          9                    1.203333   -0.994407    0.368723
      5          9                    0.210862    0.532883    1.524140
      6          9                   -0.917676   -1.124732    0.738503
      7          8                    0.303263    1.630179   -1.009879
      8          1                   -0.369200    1.203930   -2.065615
 ---------------------------------------------------------------------
   CHANGE IN THE REACTION COORDINATE =    0.02096
   NET REACTION COORDINATE UP TO THIS POINT =    0.04192
  # OF POINTS ALONG THE PATH =   2
  # OF STEPS =   1

 Calculating another point on the path.
 Point Number  3 in FORWARD path direction.
 Using LQA Reaction Path Following.
   LQA: T_Est iteration completed in    3 iterations.
 IRC-IRC-IRC-IRC-IRC-IRC-IRC-IRC-IRC-IRC-IRC-IRC-IRC-IRC-IRC-IRC-IRC-IRC
 Leave Link  123 at Sun May 25 03:50:19 2025, MaxMem=  3758096384 cpu:               0.1 elap:               0.0
 (Enter /apps/easybuild-2022/easybuild/software/Compiler/NVHPC/22.11-CUDA-11.7.0/Gaussian/g16c01-CUDA-11.7.0/g16/l202.exe)
                          Input orientation:                          
 ---------------------------------------------------------------------
 Center     Atomic      Atomic             Coordinates (Angstroms)
 Number     Number       Type             X           Y           Z
 ---------------------------------------------------------------------
      1          6           0       -0.159535    0.487433   -0.793108
      2          8           0       -0.811467    0.033140   -1.765820
      3          6           0        0.082212   -0.293351    0.500208
      4          9           0        1.203331   -0.994410    0.368722
      5          9           0        0.210859    0.532872    1.524133
      6          9           0       -0.917686   -1.124741    0.738501
      7          8           0        0.303359    1.630048   -1.009510
      8          1           0       -0.374826    1.195863   -2.069407
 ---------------------------------------------------------------------
                    Distance matrix (angstroms):
                    1          2          3          4          5
     1  C    0.000000
     2  O    1.256012   0.000000
     3  C    1.529946   2.457670   0.000000
     4  F    2.324459   3.109909   1.328789   0.000000
     5  F    2.347097   3.481188   1.321974   2.156981   0.000000
     6  F    2.349409   2.761086   1.322039   2.156951   2.153721
     7  O    1.251666   2.089247   2.455121   3.097943   2.762552
     8  H    1.475521   1.278572   3.004923   3.637629   3.700826
                    6          7          8
     6  F    0.000000
     7  O    3.483583   0.000000
     8  H    3.682967   1.331102   0.000000
 Symmetry turned off by external request.
 Stoichiometry    C2HF3O2
 Rotational constants (GHZ):           4.1027424           2.3828474           2.0472893
 Leave Link  202 at Sun May 25 03:50:19 2025, MaxMem=  3758096384 cpu:               0.0 elap:               0.0
 (Enter /apps/easybuild-2022/easybuild/software/Compiler/NVHPC/22.11-CUDA-11.7.0/Gaussian/g16c01-CUDA-11.7.0/g16/l301.exe)
 Standard basis: def2TZVPP (5D, 7F)
 Ernie: Thresh=  0.10000D-02 Tol=  0.10000D-05 Strict=F.
   231 basis functions,   374 primitive gaussians,   267 cartesian basis functions
    28 alpha electrons       28 beta electrons
       nuclear repulsion energy       338.4848099167 Hartrees.
 IExCor= 4336 DFT=T Ex+Corr=M062X ExCW=0 ScaHFX=  0.540000
 ScaDFX=  1.000000  1.000000  1.000000  1.000000 ScalE2=  1.000000  1.000000
 IRadAn=      5 IRanWt=     -1 IRanGd=            0 ICorTp=0 IEmpDi=  4
 NAtoms=    8 NActive=    8 NUniq=    8 SFac= 1.00D+00 NAtFMM=   60 NAOKFM=F Big=F
 Integral buffers will be    131072 words long.
 Raffenetti 2 integral format.
 Two-electron integral symmetry is turned off.
 Leave Link  301 at Sun May 25 03:50:19 2025, MaxMem=  3758096384 cpu:               0.1 elap:               0.0
 (Enter /apps/easybuild-2022/easybuild/software/Compiler/NVHPC/22.11-CUDA-11.7.0/Gaussian/g16c01-CUDA-11.7.0/g16/l302.exe)
 NPDir=0 NMtPBC=     1 NCelOv=     1 NCel=       1 NClECP=     1 NCelD=      1
         NCelK=      1 NCelE2=     1 NClLst=     1 CellRange=     0.0.
 One-electron integrals computed using PRISM.
   1 Symmetry operations used in ECPInt.
 ECPInt:  NShTT=    3486 NPrTT=   11183 LenC2=    3404 LenP2D=    8723.
 LDataN:  DoStor=T MaxTD1= 6 Len=  172
 NBasis=   231 RedAO= T EigKep=  3.45D-04  NBF=   231
 NBsUse=   231 1.00D-06 EigRej= -1.00D+00 NBFU=   231
 Precomputing XC quadrature grid using
 IXCGrd= 4 IRadAn=           5 IRanWt=          -1 IRanGd=           0 AccXCQ= 0.00D+00.
 Generated NRdTot=       0 NPtTot=           0 NUsed=           0 NTot=          32
 NSgBfM=   266   266   266   266   266 MxSgAt=     8 MxSgA2=     8.
 Leave Link  302 at Sun May 25 03:50:20 2025, MaxMem=  3758096384 cpu:               0.5 elap:               0.1
 (Enter /apps/easybuild-2022/easybuild/software/Compiler/NVHPC/22.11-CUDA-11.7.0/Gaussian/g16c01-CUDA-11.7.0/g16/l303.exe)
 DipDrv:  MaxL=1.
 Leave Link  303 at Sun May 25 03:50:20 2025, MaxMem=  3758096384 cpu:               0.0 elap:               0.0
 (Enter /apps/easybuild-2022/easybuild/software/Compiler/NVHPC/22.11-CUDA-11.7.0/Gaussian/g16c01-CUDA-11.7.0/g16/l401.exe)
 Initial guess from the checkpoint file:  "1141903082400600000001_intra_H_migration_suprafacial_2_8_IRC_F.chk"
 B after Tr=    -0.000089   -0.000128   -0.000060
         Rot=    1.000000    0.000042   -0.000020   -0.000019 Ang=   0.01 deg.
 Guess basis will be translated and rotated to current coordinates.
 JPrj=2 DoOrth=T DoCkMO=T.
 Generating alternative initial guess.
 ExpMin= 9.52D-02 ExpMax= 3.55D+04 ExpMxC= 1.21D+03 IAcc=3 IRadAn=         5 AccDes= 0.00D+00
 Harris functional with IExCor= 1009 and IRadAn=       5 diagonalized for initial guess.
 HarFok:  IExCor= 1009 AccDes= 0.00D+00 IRadAn=         5 IDoV= 1 UseB2=F ITyADJ=14
 ICtDFT=  3500011 ScaDFX=  1.000000  1.000000  1.000000  1.000000
 FoFCou: FMM=F IPFlag=           0 FMFlag=      100000 FMFlg1=           0
         NFxFlg=           0 DoJE=T BraDBF=F KetDBF=T FulRan=T
         wScrn=  0.000000 ICntrl=       500 IOpCl=  0 I1Cent=   200000004 NGrid=           0
         NMat0=    1 NMatS0=      1 NMatT0=    0 NMatD0=    1 NMtDS0=    0 NMtDT0=    0
 Symmetry not used in FoFCou.
 Harris En= -526.486607822868    
 Leave Link  401 at Sun May 25 03:50:20 2025, MaxMem=  3758096384 cpu:               2.2 elap:               0.3
 (Enter /apps/easybuild-2022/easybuild/software/Compiler/NVHPC/22.11-CUDA-11.7.0/Gaussian/g16c01-CUDA-11.7.0/g16/l502.exe)
 Keep R1 ints in memory in canonical form, NReq=368651279.
 FoFCou: FMM=F IPFlag=           0 FMFlag=           0 FMFlg1=           0
         NFxFlg=           0 DoJE=F BraDBF=F KetDBF=F FulRan=T
         wScrn=  0.000000 ICntrl=       600 IOpCl=  0 I1Cent=           0 NGrid=           0
         NMat0=    1 NMatS0=  26796 NMatT0=    0 NMatD0=    1 NMtDS0=    0 NMtDT0=    0
 Symmetry not used in FoFCou.
 Two-electron integral symmetry not used.
 Closed shell SCF:
 Using DIIS extrapolation, IDIIS=  1040.
 NGot=  3758096384 LenX=  3398923531 LenY=  3398851801
 Requested convergence on RMS density matrix=1.00D-08 within  32 cycles.
 Requested convergence on MAX density matrix=1.00D-06.
 Requested convergence on             energy=1.00D-06.
 No special actions if energy rises.
 Integral accuracy reduced to 1.0D-05 until final iterations.

 Cycle   1  Pass 0  IDiag  1:
 E= -526.789412534050    
 DIIS: error= 3.36D-04 at cycle   1 NSaved=   1.
 NSaved= 1 IEnMin= 1 EnMin= -526.789412534050     IErMin= 1 ErrMin= 3.36D-04
 ErrMax= 3.36D-04  0.00D+00 EMaxC= 1.00D-01 BMatC= 3.15D-05 BMatP= 3.15D-05
 IDIUse=3 WtCom= 9.97D-01 WtEn= 3.36D-03
 Coeff-Com:  0.100D+01
 Coeff-En:   0.100D+01
 Coeff:      0.100D+01
 Gap=     1.076 Goal=   None    Shift=    0.000
 RMSDP=2.76D-05 MaxDP=8.23D-04              OVMax= 3.17D-03

 Cycle   2  Pass 0  IDiag  1:
 E= -526.789454120608     Delta-E=       -0.000041586557 Rises=F Damp=F
 DIIS: error= 2.11D-04 at cycle   2 NSaved=   2.
 NSaved= 2 IEnMin= 2 EnMin= -526.789454120608     IErMin= 2 ErrMin= 2.11D-04
 ErrMax= 2.11D-04  0.00D+00 EMaxC= 1.00D-01 BMatC= 7.48D-06 BMatP= 3.15D-05
 IDIUse=3 WtCom= 9.98D-01 WtEn= 2.11D-03
 Coeff-Com:  0.193D+00 0.807D+00
 Coeff-En:   0.000D+00 0.100D+01
 Coeff:      0.192D+00 0.808D+00
 Gap=     0.401 Goal=   None    Shift=    0.000
 RMSDP=1.24D-05 MaxDP=5.13D-04 DE=-4.16D-05 OVMax= 1.91D-03

 Cycle   3  Pass 0  IDiag  1:
 E= -526.789454860091     Delta-E=       -0.000000739484 Rises=F Damp=F
 DIIS: error= 3.98D-04 at cycle   3 NSaved=   3.
 NSaved= 3 IEnMin= 3 EnMin= -526.789454860091     IErMin= 2 ErrMin= 2.11D-04
 ErrMax= 3.98D-04  0.00D+00 EMaxC= 1.00D-01 BMatC= 9.74D-06 BMatP= 7.48D-06
 IDIUse=3 WtCom= 3.34D-01 WtEn= 6.66D-01
 Coeff-Com: -0.885D-01 0.566D+00 0.523D+00
 Coeff-En:   0.000D+00 0.471D+00 0.529D+00
 Coeff:     -0.296D-01 0.503D+00 0.527D+00
 Gap=     0.401 Goal=   None    Shift=    0.000
 RMSDP=7.82D-06 MaxDP=3.41D-04 DE=-7.39D-07 OVMax= 1.49D-03

 Initial convergence to 1.0D-05 achieved.  Increase integral accuracy.
 Cycle   4  Pass 1  IDiag  1:
 E= -526.789449755035     Delta-E=        0.000005105056 Rises=F Damp=F
 DIIS: error= 6.39D-05 at cycle   1 NSaved=   1.
 NSaved= 1 IEnMin= 1 EnMin= -526.789449755035     IErMin= 1 ErrMin= 6.39D-05
 ErrMax= 6.39D-05  0.00D+00 EMaxC= 1.00D-01 BMatC= 9.48D-07 BMatP= 9.48D-07
 IDIUse=1 WtCom= 1.00D+00 WtEn= 0.00D+00
 Coeff-Com:  0.100D+01
 Coeff:      0.100D+01
 Gap=     0.401 Goal=   None    Shift=    0.000
 RMSDP=7.82D-06 MaxDP=3.41D-04 DE= 5.11D-06 OVMax= 7.03D-04

 Cycle   5  Pass 1  IDiag  1:
 E= -526.789449490079     Delta-E=        0.000000264957 Rises=F Damp=F
 DIIS: error= 1.59D-04 at cycle   2 NSaved=   2.
 NSaved= 2 IEnMin= 1 EnMin= -526.789449755035     IErMin= 1 ErrMin= 6.39D-05
 ErrMax= 1.59D-04  0.00D+00 EMaxC= 1.00D-01 BMatC= 1.67D-06 BMatP= 9.48D-07
 IDIUse=3 WtCom= 4.42D-01 WtEn= 5.58D-01
 Coeff-Com:  0.582D+00 0.418D+00
 Coeff-En:   0.580D+00 0.420D+00
 Coeff:      0.581D+00 0.419D+00
 Gap=     0.401 Goal=   None    Shift=    0.000
 RMSDP=2.97D-06 MaxDP=1.31D-04 DE= 2.65D-07 OVMax= 5.09D-04

 Cycle   6  Pass 1  IDiag  1:
 E= -526.789450626892     Delta-E=       -0.000001136813 Rises=F Damp=F
 DIIS: error= 2.09D-05 at cycle   3 NSaved=   3.
 NSaved= 3 IEnMin= 3 EnMin= -526.789450626892     IErMin= 3 ErrMin= 2.09D-05
 ErrMax= 2.09D-05  0.00D+00 EMaxC= 1.00D-01 BMatC= 7.31D-08 BMatP= 9.48D-07
 IDIUse=1 WtCom= 1.00D+00 WtEn= 0.00D+00
 Coeff-Com: -0.760D-01 0.140D+00 0.936D+00
 Coeff:     -0.760D-01 0.140D+00 0.936D+00
 Gap=     0.401 Goal=   None    Shift=    0.000
 RMSDP=1.17D-06 MaxDP=3.39D-05 DE=-1.14D-06 OVMax= 1.51D-04

 Cycle   7  Pass 1  IDiag  1:
 E= -526.789450704820     Delta-E=       -0.000000077928 Rises=F Damp=F
 DIIS: error= 3.98D-06 at cycle   4 NSaved=   4.
 NSaved= 4 IEnMin= 4 EnMin= -526.789450704820     IErMin= 4 ErrMin= 3.98D-06
 ErrMax= 3.98D-06  0.00D+00 EMaxC= 1.00D-01 BMatC= 1.77D-09 BMatP= 7.31D-08
 IDIUse=1 WtCom= 1.00D+00 WtEn= 0.00D+00
 Coeff-Com: -0.412D-02-0.316D-01-0.229D+00 0.127D+01
 Coeff:     -0.412D-02-0.316D-01-0.229D+00 0.127D+01
 Gap=     0.401 Goal=   None    Shift=    0.000
 RMSDP=4.21D-07 MaxDP=1.20D-05 DE=-7.79D-08 OVMax= 6.00D-05

 Cycle   8  Pass 1  IDiag  1:
 E= -526.789450711233     Delta-E=       -0.000000006414 Rises=F Damp=F
 DIIS: error= 1.38D-06 at cycle   5 NSaved=   5.
 NSaved= 5 IEnMin= 5 EnMin= -526.789450711233     IErMin= 5 ErrMin= 1.38D-06
 ErrMax= 1.38D-06  0.00D+00 EMaxC= 1.00D-01 BMatC= 7.70D-10 BMatP= 1.77D-09
 IDIUse=1 WtCom= 1.00D+00 WtEn= 0.00D+00
 Coeff-Com:  0.757D-02-0.335D-01-0.245D+00 0.627D+00 0.643D+00
 Coeff:      0.757D-02-0.335D-01-0.245D+00 0.627D+00 0.643D+00
 Gap=     0.401 Goal=   None    Shift=    0.000
 RMSDP=1.18D-07 MaxDP=3.10D-06 DE=-6.41D-09 OVMax= 1.56D-05

 Cycle   9  Pass 1  IDiag  1:
 E= -526.789450712033     Delta-E=       -0.000000000800 Rises=F Damp=F
 DIIS: error= 3.36D-07 at cycle   6 NSaved=   6.
 NSaved= 6 IEnMin= 6 EnMin= -526.789450712033     IErMin= 6 ErrMin= 3.36D-07
 ErrMax= 3.36D-07  0.00D+00 EMaxC= 1.00D-01 BMatC= 3.89D-11 BMatP= 7.70D-10
 IDIUse=1 WtCom= 1.00D+00 WtEn= 0.00D+00
 Coeff-Com:  0.298D-02-0.647D-02-0.539D-01 0.557D-01 0.199D+00 0.803D+00
 Coeff:      0.298D-02-0.647D-02-0.539D-01 0.557D-01 0.199D+00 0.803D+00
 Gap=     0.401 Goal=   None    Shift=    0.000
 RMSDP=3.34D-08 MaxDP=7.74D-07 DE=-8.00D-10 OVMax= 4.45D-06

 Cycle  10  Pass 1  IDiag  1:
 E= -526.789450712061     Delta-E=       -0.000000000028 Rises=F Damp=F
 DIIS: error= 1.04D-07 at cycle   7 NSaved=   7.
 NSaved= 7 IEnMin= 7 EnMin= -526.789450712061     IErMin= 7 ErrMin= 1.04D-07
 ErrMax= 1.04D-07  0.00D+00 EMaxC= 1.00D-01 BMatC= 2.12D-12 BMatP= 3.89D-11
 IDIUse=1 WtCom= 1.00D+00 WtEn= 0.00D+00
 Coeff-Com: -0.215D-03 0.226D-02 0.117D-01-0.430D-01-0.245D-01 0.117D+00
 Coeff-Com:  0.937D+00
 Coeff:     -0.215D-03 0.226D-02 0.117D-01-0.430D-01-0.245D-01 0.117D+00
 Coeff:      0.937D+00
 Gap=     0.401 Goal=   None    Shift=    0.000
 RMSDP=9.93D-09 MaxDP=3.05D-07 DE=-2.83D-11 OVMax= 8.20D-07

 SCF Done:  E(RM062X) =  -526.789450712     A.U. after   10 cycles
            NFock= 10  Conv=0.99D-08     -V/T= 2.0037
 KE= 5.248608895488D+02 PE=-1.924518825635D+03 EE= 5.343836754578D+02
 Leave Link  502 at Sun May 25 03:50:27 2025, MaxMem=  3758096384 cpu:              38.8 elap:               7.1
 (Enter /apps/easybuild-2022/easybuild/software/Compiler/NVHPC/22.11-CUDA-11.7.0/Gaussian/g16c01-CUDA-11.7.0/g16/l508.exe)
 QCSCF skips out because SCF is already converged.
 Leave Link  508 at Sun May 25 03:50:27 2025, MaxMem=  3758096384 cpu:               0.0 elap:               0.0
 (Enter /apps/easybuild-2022/easybuild/software/Compiler/NVHPC/22.11-CUDA-11.7.0/Gaussian/g16c01-CUDA-11.7.0/g16/l801.exe)
 DoSCS=F DFT=T ScalE2(SS,OS)=  1.000000  1.000000
 Range of M.O.s used for correlation:     1   231
 NBasis=   231 NAE=    28 NBE=    28 NFC=     0 NFV=     0
 NROrb=    231 NOA=    28 NOB=    28 NVA=   203 NVB=   203

 **** Warning!!: The largest alpha MO coefficient is  0.15968813D+02

 Leave Link  801 at Sun May 25 03:50:27 2025, MaxMem=  3758096384 cpu:               0.0 elap:               0.0
 (Enter /apps/easybuild-2022/easybuild/software/Compiler/NVHPC/22.11-CUDA-11.7.0/Gaussian/g16c01-CUDA-11.7.0/g16/l1101.exe)
 Leave Link 1101 at Sun May 25 03:50:27 2025, MaxMem=  3758096384 cpu:               0.0 elap:               0.0
 (Enter /apps/easybuild-2022/easybuild/software/Compiler/NVHPC/22.11-CUDA-11.7.0/Gaussian/g16c01-CUDA-11.7.0/g16/l1102.exe)
 Symmetrizing basis deriv contribution to polar:
 IMax=3 JMax=2 DiffMx= 0.00D+00
 Leave Link 1102 at Sun May 25 03:50:27 2025, MaxMem=  3758096384 cpu:               0.0 elap:               0.0
 (Enter /apps/easybuild-2022/easybuild/software/Compiler/NVHPC/22.11-CUDA-11.7.0/Gaussian/g16c01-CUDA-11.7.0/g16/l1110.exe)
 Leave Link 1110 at Sun May 25 03:50:27 2025, MaxMem=  3758096384 cpu:               0.0 elap:               0.0
 (Enter /apps/easybuild-2022/easybuild/software/Compiler/NVHPC/22.11-CUDA-11.7.0/Gaussian/g16c01-CUDA-11.7.0/g16/l1002.exe)
 Minotr:  Closed shell wavefunction.
 Leave Link 1002 at Sun May 25 03:50:27 2025, MaxMem=  3758096384 cpu:               0.0 elap:               0.0
 (Enter /apps/easybuild-2022/easybuild/software/Compiler/NVHPC/22.11-CUDA-11.7.0/Gaussian/g16c01-CUDA-11.7.0/g16/l701.exe)
 ... and contract with generalized density number  0.
 Compute integral first derivatives.
   1 Symmetry operations used in ECPInt.
 ECPInt:  NShTT=    3486 NPrTT=   11183 LenC2=    3404 LenP2D=    8723.
 LDataN:  DoStor=T MaxTD1= 7 Len=  274
 Leave Link  701 at Sun May 25 03:50:27 2025, MaxMem=  3758096384 cpu:               0.4 elap:               0.1
 (Enter /apps/easybuild-2022/easybuild/software/Compiler/NVHPC/22.11-CUDA-11.7.0/Gaussian/g16c01-CUDA-11.7.0/g16/l702.exe)
 L702 exits ... SP integral derivatives will be done elsewhere.
 Leave Link  702 at Sun May 25 03:50:27 2025, MaxMem=  3758096384 cpu:               0.0 elap:               0.0
 (Enter /apps/easybuild-2022/easybuild/software/Compiler/NVHPC/22.11-CUDA-11.7.0/Gaussian/g16c01-CUDA-11.7.0/g16/l703.exe)
 Integral derivatives from FoFJK, PRISM(SPDF).
 Compute integral first derivatives, UseDBF=F ICtDFT=           0.
 Calling FoFJK, ICntrl=      2127 FMM=F ISym2X=0 I1Cent= 0 IOpClX= 0 NMat=1 NMatS=1 NMatT=0.
 FoFJK:  IHMeth= 1 ICntrl=    2127 DoSepK=F KAlg= 0 I1Cent=           0 FoldK=F
 IRaf=         0 NMat=       1 IRICut=       1 DoRegI=T DoRafI=F ISym2E= 0 IDoP0=0 IntGTp=1.
 FoFCou: FMM=F IPFlag=           0 FMFlag=      100000 FMFlg1=         800
         NFxFlg=           0 DoJE=F BraDBF=F KetDBF=F FulRan=T
         wScrn=  0.000000 ICntrl=      2127 IOpCl=  0 I1Cent=           0 NGrid=           0
         NMat0=    1 NMatS0=      1 NMatT0=    0 NMatD0=    1 NMtDS0=    0 NMtDT0=    0
 Symmetry not used in FoFCou.
 Leave Link  703 at Sun May 25 03:50:31 2025, MaxMem=  3758096384 cpu:              26.6 elap:               3.4
 (Enter /apps/easybuild-2022/easybuild/software/Compiler/NVHPC/22.11-CUDA-11.7.0/Gaussian/g16c01-CUDA-11.7.0/g16/l716.exe)
 Dipole        =-7.51770176D-02 8.06137280D-02-1.71372772D-01
 Polarizability= 0.00000000D+00 0.00000000D+00 0.00000000D+00
                 0.00000000D+00 0.00000000D+00 0.00000000D+00
 -------------------------------------------------------------------
 Center     Atomic                   Forces (Hartrees/Bohr)
 Number     Number              X              Y              Z
 -------------------------------------------------------------------
      1        6           0.003767057    0.005405730    0.002545577
      2        8          -0.000147351    0.003456334   -0.004197369
      3        6           0.000094029    0.000136477    0.000049166
      4        9          -0.000027409   -0.000048786   -0.000017688
      5        9          -0.000042882   -0.000165473   -0.000118579
      6        9          -0.000160459   -0.000141675   -0.000024202
      7        8           0.001304472   -0.001770918    0.004985163
      8        1          -0.004787457   -0.006871690   -0.003222069
 -------------------------------------------------------------------
 Cartesian Forces:  Max     0.006871690 RMS     0.002812270
 Leave Link  716 at Sun May 25 03:50:31 2025, MaxMem=  3758096384 cpu:               0.0 elap:               0.0
 (Enter /apps/easybuild-2022/easybuild/software/Compiler/NVHPC/22.11-CUDA-11.7.0/Gaussian/g16c01-CUDA-11.7.0/g16/l123.exe)
 IRC-IRC-IRC-IRC-IRC-IRC-IRC-IRC-IRC-IRC-IRC-IRC-IRC-IRC-IRC-IRC-IRC-IRC
 Pt  3 Step number   1 out of a maximum of  20
 Using modified Bulirsch-Stoer corrector integration.
   Using distance weighted interpolants to fit PES.
 PreDWI: IReCr0= 2 IReCr1= 1 IReCr2= 1 IReCr3= 1
 Modified Bulirsch-Stoer Extrapolation Cycles:
    EPS =    0.000010000000000
    Cycle     1 NS=    48
      PEZero:  N= 2 I= 1 D=  1.09D-04 Err=  7.26D-08
    Cycle     2 NS=    64 Truncation Error =  0.000000073
 BS completed in    2 cycles and     112 integration steps.
 Maximum DWI energy   std dev =  0.000000036 at pt    36
 Maximum DWI gradient std dev =  0.000306757 at pt    28
 SUMMARY OF CORRECTOR INTEGRATION:
   Predictor End Point Energy =  -526.789451
   Old End Point Energy       =  -526.789451
   Corrected End Point Energy =  -526.789451
   Predictor End-Start Dist.  =     0.020958
   Old End-Start Dist.        =     0.020958
   New End-Start Dist.        =     0.020958
   New End-Old End Dist.      =     0.000007
 CORRECTOR INTEGRATION CONVERGENCE:
   Recorrection delta-x convergence threshold:    0.010000
   Delta-x Convergence Met
 Point Number:   3          Path Number:   1
                    CURRENT STRUCTURE
                Cartesian Coordinates (Ang):                
 ---------------------------------------------------------------------
 Center     Atomic                     Coordinates (Angstroms)
 Number     Number                        X           Y           Z
 ---------------------------------------------------------------------
      1          6                   -0.159535    0.487434   -0.793108
      2          8                   -0.811467    0.033140   -1.765820
      3          6                    0.082212   -0.293351    0.500208
      4          9                    1.203331   -0.994410    0.368722
      5          9                    0.210859    0.532872    1.524133
      6          9                   -0.917686   -1.124741    0.738501
      7          8                    0.303359    1.630048   -1.009510
      8          1                   -0.374826    1.195862   -2.069404
 ---------------------------------------------------------------------
   CHANGE IN THE REACTION COORDINATE =    0.02096
   NET REACTION COORDINATE UP TO THIS POINT =    0.06288
  # OF POINTS ALONG THE PATH =   3
  # OF STEPS =   1

 Calculating another point on the path.
 Point Number  4 in FORWARD path direction.
 Using LQA Reaction Path Following.
   LQA: T_Est iteration completed in    3 iterations.
 IRC-IRC-IRC-IRC-IRC-IRC-IRC-IRC-IRC-IRC-IRC-IRC-IRC-IRC-IRC-IRC-IRC-IRC
 Leave Link  123 at Sun May 25 03:50:31 2025, MaxMem=  3758096384 cpu:               0.1 elap:               0.0
 (Enter /apps/easybuild-2022/easybuild/software/Compiler/NVHPC/22.11-CUDA-11.7.0/Gaussian/g16c01-CUDA-11.7.0/g16/l202.exe)
                          Input orientation:                          
 ---------------------------------------------------------------------
 Center     Atomic      Atomic             Coordinates (Angstroms)
 Number     Number       Type             X           Y           Z
 ---------------------------------------------------------------------
      1          6           0       -0.159163    0.487967   -0.792857
      2          8           0       -0.811478    0.033395   -1.766131
      3          6           0        0.082221   -0.293337    0.500213
      4          9           0        1.203329   -0.994413    0.368721
      5          9           0        0.210856    0.532862    1.524126
      6          9           0       -0.917696   -1.124749    0.738500
      7          8           0        0.303456    1.629917   -1.009141
      8          1           0       -0.380449    1.187789   -2.073189
 ---------------------------------------------------------------------
                    Distance matrix (angstroms):
                    1          2          3          4          5
     1  C    0.000000
     2  O    1.256747   0.000000
     3  C    1.529945   2.458001   0.000000
     4  F    2.324457   3.110214   1.328790   0.000000
     5  F    2.346772   3.481440   1.321949   2.156973   0.000000
     6  F    2.349740   2.761477   1.322067   2.156960   2.153721
     7  O    1.250937   2.089256   2.454791   3.097641   2.762163
     8  H    1.475795   1.269920   3.005029   3.637758   3.703950
                    6          7          8
     6  F    0.000000
     7  O    3.483338   0.000000
     8  H    3.679955   1.339926   0.000000
 Symmetry turned off by external request.
 Stoichiometry    C2HF3O2
 Rotational constants (GHZ):           4.1027077           2.3828470           2.0472802
 Leave Link  202 at Sun May 25 03:50:31 2025, MaxMem=  3758096384 cpu:               0.0 elap:               0.0
 (Enter /apps/easybuild-2022/easybuild/software/Compiler/NVHPC/22.11-CUDA-11.7.0/Gaussian/g16c01-CUDA-11.7.0/g16/l301.exe)
 Standard basis: def2TZVPP (5D, 7F)
 Ernie: Thresh=  0.10000D-02 Tol=  0.10000D-05 Strict=F.
   231 basis functions,   374 primitive gaussians,   267 cartesian basis functions
    28 alpha electrons       28 beta electrons
       nuclear repulsion energy       338.4857456120 Hartrees.
 IExCor= 4336 DFT=T Ex+Corr=M062X ExCW=0 ScaHFX=  0.540000
 ScaDFX=  1.000000  1.000000  1.000000  1.000000 ScalE2=  1.000000  1.000000
 IRadAn=      5 IRanWt=     -1 IRanGd=            0 ICorTp=0 IEmpDi=  4
 NAtoms=    8 NActive=    8 NUniq=    8 SFac= 1.00D+00 NAtFMM=   60 NAOKFM=F Big=F
 Integral buffers will be    131072 words long.
 Raffenetti 2 integral format.
 Two-electron integral symmetry is turned off.
 Leave Link  301 at Sun May 25 03:50:31 2025, MaxMem=  3758096384 cpu:               0.0 elap:               0.0
 (Enter /apps/easybuild-2022/easybuild/software/Compiler/NVHPC/22.11-CUDA-11.7.0/Gaussian/g16c01-CUDA-11.7.0/g16/l302.exe)
 NPDir=0 NMtPBC=     1 NCelOv=     1 NCel=       1 NClECP=     1 NCelD=      1
         NCelK=      1 NCelE2=     1 NClLst=     1 CellRange=     0.0.
 One-electron integrals computed using PRISM.
   1 Symmetry operations used in ECPInt.
 ECPInt:  NShTT=    3486 NPrTT=   11183 LenC2=    3404 LenP2D=    8723.
 LDataN:  DoStor=T MaxTD1= 6 Len=  172
 NBasis=   231 RedAO= T EigKep=  3.45D-04  NBF=   231
 NBsUse=   231 1.00D-06 EigRej= -1.00D+00 NBFU=   231
 Precomputing XC quadrature grid using
 IXCGrd= 4 IRadAn=           5 IRanWt=          -1 IRanGd=           0 AccXCQ= 0.00D+00.
 Generated NRdTot=       0 NPtTot=           0 NUsed=           0 NTot=          32
 NSgBfM=   266   266   266   266   266 MxSgAt=     8 MxSgA2=     8.
 Leave Link  302 at Sun May 25 03:50:31 2025, MaxMem=  3758096384 cpu:               0.5 elap:               0.1
 (Enter /apps/easybuild-2022/easybuild/software/Compiler/NVHPC/22.11-CUDA-11.7.0/Gaussian/g16c01-CUDA-11.7.0/g16/l303.exe)
 DipDrv:  MaxL=1.
 Leave Link  303 at Sun May 25 03:50:31 2025, MaxMem=  3758096384 cpu:               0.1 elap:               0.0
 (Enter /apps/easybuild-2022/easybuild/software/Compiler/NVHPC/22.11-CUDA-11.7.0/Gaussian/g16c01-CUDA-11.7.0/g16/l401.exe)
 Initial guess from the checkpoint file:  "1141903082400600000001_intra_H_migration_suprafacial_2_8_IRC_F.chk"
 B after Tr=    -0.000089   -0.000128   -0.000060
         Rot=    1.000000    0.000042   -0.000020   -0.000019 Ang=   0.01 deg.
 Guess basis will be translated and rotated to current coordinates.
 JPrj=2 DoOrth=T DoCkMO=T.
 Generating alternative initial guess.
 ExpMin= 9.52D-02 ExpMax= 3.55D+04 ExpMxC= 1.21D+03 IAcc=3 IRadAn=         5 AccDes= 0.00D+00
 Harris functional with IExCor= 1009 and IRadAn=       5 diagonalized for initial guess.
 HarFok:  IExCor= 1009 AccDes= 0.00D+00 IRadAn=         5 IDoV= 1 UseB2=F ITyADJ=14
 ICtDFT=  3500011 ScaDFX=  1.000000  1.000000  1.000000  1.000000
 FoFCou: FMM=F IPFlag=           0 FMFlag=      100000 FMFlg1=           0
         NFxFlg=           0 DoJE=T BraDBF=F KetDBF=T FulRan=T
         wScrn=  0.000000 ICntrl=       500 IOpCl=  0 I1Cent=   200000004 NGrid=           0
         NMat0=    1 NMatS0=      1 NMatT0=    0 NMatD0=    1 NMtDS0=    0 NMtDT0=    0
 Symmetry not used in FoFCou.
 Harris En= -526.486831258545    
 Leave Link  401 at Sun May 25 03:50:31 2025, MaxMem=  3758096384 cpu:               2.1 elap:               0.3
 (Enter /apps/easybuild-2022/easybuild/software/Compiler/NVHPC/22.11-CUDA-11.7.0/Gaussian/g16c01-CUDA-11.7.0/g16/l502.exe)
 Keep R1 ints in memory in canonical form, NReq=368651279.
 FoFCou: FMM=F IPFlag=           0 FMFlag=           0 FMFlg1=           0
         NFxFlg=           0 DoJE=F BraDBF=F KetDBF=F FulRan=T
         wScrn=  0.000000 ICntrl=       600 IOpCl=  0 I1Cent=           0 NGrid=           0
         NMat0=    1 NMatS0=  26796 NMatT0=    0 NMatD0=    1 NMtDS0=    0 NMtDT0=    0
 Symmetry not used in FoFCou.
 Two-electron integral symmetry not used.
 Closed shell SCF:
 Using DIIS extrapolation, IDIIS=  1040.
 NGot=  3758096384 LenX=  3398923531 LenY=  3398851801
 Requested convergence on RMS density matrix=1.00D-08 within  32 cycles.
 Requested convergence on MAX density matrix=1.00D-06.
 Requested convergence on             energy=1.00D-06.
 No special actions if energy rises.
 Integral accuracy reduced to 1.0D-05 until final iterations.

 Cycle   1  Pass 0  IDiag  1:
 E= -526.789641112941    
 DIIS: error= 3.35D-04 at cycle   1 NSaved=   1.
 NSaved= 1 IEnMin= 1 EnMin= -526.789641112941     IErMin= 1 ErrMin= 3.35D-04
 ErrMax= 3.35D-04  0.00D+00 EMaxC= 1.00D-01 BMatC= 3.15D-05 BMatP= 3.15D-05
 IDIUse=3 WtCom= 9.97D-01 WtEn= 3.35D-03
 Coeff-Com:  0.100D+01
 Coeff-En:   0.100D+01
 Coeff:      0.100D+01
 Gap=     1.076 Goal=   None    Shift=    0.000
 RMSDP=2.76D-05 MaxDP=8.32D-04              OVMax= 3.16D-03

 Cycle   2  Pass 0  IDiag  1:
 E= -526.789682456562     Delta-E=       -0.000041343620 Rises=F Damp=F
 DIIS: error= 2.09D-04 at cycle   2 NSaved=   2.
 NSaved= 2 IEnMin= 2 EnMin= -526.789682456562     IErMin= 2 ErrMin= 2.09D-04
 ErrMax= 2.09D-04  0.00D+00 EMaxC= 1.00D-01 BMatC= 7.47D-06 BMatP= 3.15D-05
 IDIUse=3 WtCom= 9.98D-01 WtEn= 2.09D-03
 Coeff-Com:  0.194D+00 0.806D+00
 Coeff-En:   0.000D+00 0.100D+01
 Coeff:      0.193D+00 0.807D+00
 Gap=     0.401 Goal=   None    Shift=    0.000
 RMSDP=1.24D-05 MaxDP=5.10D-04 DE=-4.13D-05 OVMax= 1.89D-03

 Cycle   3  Pass 0  IDiag  1:
 E= -526.789683173470     Delta-E=       -0.000000716908 Rises=F Damp=F
 DIIS: error= 3.96D-04 at cycle   3 NSaved=   3.
 NSaved= 3 IEnMin= 3 EnMin= -526.789683173470     IErMin= 2 ErrMin= 2.09D-04
 ErrMax= 3.96D-04  0.00D+00 EMaxC= 1.00D-01 BMatC= 9.67D-06 BMatP= 7.47D-06
 IDIUse=3 WtCom= 3.35D-01 WtEn= 6.65D-01
 Coeff-Com: -0.861D-01 0.564D+00 0.522D+00
 Coeff-En:   0.000D+00 0.472D+00 0.528D+00
 Coeff:     -0.288D-01 0.503D+00 0.526D+00
 Gap=     0.401 Goal=   None    Shift=    0.000
 RMSDP=7.77D-06 MaxDP=3.39D-04 DE=-7.17D-07 OVMax= 1.48D-03

 Initial convergence to 1.0D-05 achieved.  Increase integral accuracy.
 Cycle   4  Pass 1  IDiag  1:
 E= -526.789678176385     Delta-E=        0.000004997085 Rises=F Damp=F
 DIIS: error= 6.29D-05 at cycle   1 NSaved=   1.
 NSaved= 1 IEnMin= 1 EnMin= -526.789678176385     IErMin= 1 ErrMin= 6.29D-05
 ErrMax= 6.29D-05  0.00D+00 EMaxC= 1.00D-01 BMatC= 9.33D-07 BMatP= 9.33D-07
 IDIUse=1 WtCom= 1.00D+00 WtEn= 0.00D+00
 Coeff-Com:  0.100D+01
 Coeff:      0.100D+01
 Gap=     0.401 Goal=   None    Shift=    0.000
 RMSDP=7.77D-06 MaxDP=3.39D-04 DE= 5.00D-06 OVMax= 6.93D-04

 Cycle   5  Pass 1  IDiag  1:
 E= -526.789677933264     Delta-E=        0.000000243121 Rises=F Damp=F
 DIIS: error= 1.57D-04 at cycle   2 NSaved=   2.
 NSaved= 2 IEnMin= 1 EnMin= -526.789678176385     IErMin= 1 ErrMin= 6.29D-05
 ErrMax= 1.57D-04  0.00D+00 EMaxC= 1.00D-01 BMatC= 1.62D-06 BMatP= 9.33D-07
 IDIUse=3 WtCom= 4.44D-01 WtEn= 5.56D-01
 Coeff-Com:  0.580D+00 0.420D+00
 Coeff-En:   0.576D+00 0.424D+00
 Coeff:      0.578D+00 0.422D+00
 Gap=     0.401 Goal=   None    Shift=    0.000
 RMSDP=2.95D-06 MaxDP=1.31D-04 DE= 2.43D-07 OVMax= 5.06D-04

 Cycle   6  Pass 1  IDiag  1:
 E= -526.789679030430     Delta-E=       -0.000001097166 Rises=F Damp=F
 DIIS: error= 2.11D-05 at cycle   3 NSaved=   3.
 NSaved= 3 IEnMin= 3 EnMin= -526.789679030430     IErMin= 3 ErrMin= 2.11D-05
 ErrMax= 2.11D-05  0.00D+00 EMaxC= 1.00D-01 BMatC= 7.66D-08 BMatP= 9.33D-07
 IDIUse=1 WtCom= 1.00D+00 WtEn= 0.00D+00
 Coeff-Com: -0.754D-01 0.147D+00 0.929D+00
 Coeff:     -0.754D-01 0.147D+00 0.929D+00
 Gap=     0.401 Goal=   None    Shift=    0.000
 RMSDP=1.16D-06 MaxDP=3.42D-05 DE=-1.10D-06 OVMax= 1.51D-04

 Cycle   7  Pass 1  IDiag  1:
 E= -526.789679109833     Delta-E=       -0.000000079403 Rises=F Damp=F
 DIIS: error= 3.92D-06 at cycle   4 NSaved=   4.
 NSaved= 4 IEnMin= 4 EnMin= -526.789679109833     IErMin= 4 ErrMin= 3.92D-06
 ErrMax= 3.92D-06  0.00D+00 EMaxC= 1.00D-01 BMatC= 1.75D-09 BMatP= 7.66D-08
 IDIUse=1 WtCom= 1.00D+00 WtEn= 0.00D+00
 Coeff-Com: -0.390D-02-0.332D-01-0.229D+00 0.127D+01
 Coeff:     -0.390D-02-0.332D-01-0.229D+00 0.127D+01
 Gap=     0.401 Goal=   None    Shift=    0.000
 RMSDP=4.17D-07 MaxDP=1.20D-05 DE=-7.94D-08 OVMax= 5.94D-05

 Cycle   8  Pass 1  IDiag  1:
[...]
 E= -526.849780011326    
 DIIS: error= 1.36D-04 at cycle   1 NSaved=   1.
 NSaved= 1 IEnMin= 1 EnMin= -526.849780011326     IErMin= 1 ErrMin= 1.36D-04
 ErrMax= 1.36D-04  0.00D+00 EMaxC= 1.00D-01 BMatC= 4.68D-06 BMatP= 4.68D-06
 IDIUse=3 WtCom= 9.99D-01 WtEn= 1.36D-03
 Coeff-Com:  0.100D+01
 Coeff-En:   0.100D+01
 Coeff:      0.100D+01
 Gap=     1.090 Goal=   None    Shift=    0.000
 RMSDP=1.22D-05 MaxDP=2.75D-04              OVMax= 5.18D-04

 Cycle   2  Pass 0  IDiag  1:
 E= -526.849784618264     Delta-E=       -0.000004606938 Rises=F Damp=F
 DIIS: error= 2.17D-05 at cycle   2 NSaved=   2.
 NSaved= 2 IEnMin= 2 EnMin= -526.849784618264     IErMin= 2 ErrMin= 2.17D-05
 ErrMax= 2.17D-05  0.00D+00 EMaxC= 1.00D-01 BMatC= 1.15D-07 BMatP= 4.68D-06
 IDIUse=1 WtCom= 1.00D+00 WtEn= 0.00D+00
 Coeff-Com: -0.107D+00 0.111D+01
 Coeff:     -0.107D+00 0.111D+01
 Gap=     0.402 Goal=   None    Shift=    0.000
 RMSDP=2.09D-06 MaxDP=6.14D-05 DE=-4.61D-06 OVMax= 1.14D-04

 Initial convergence to 1.0D-05 achieved.  Increase integral accuracy.
 Cycle   3  Pass 1  IDiag  1:
 E= -526.849800983738     Delta-E=       -0.000016365474 Rises=F Damp=F
 DIIS: error= 2.90D-05 at cycle   1 NSaved=   1.
 NSaved= 1 IEnMin= 1 EnMin= -526.849800983738     IErMin= 1 ErrMin= 2.90D-05
 ErrMax= 2.90D-05  0.00D+00 EMaxC= 1.00D-01 BMatC= 4.83D-07 BMatP= 4.83D-07
 IDIUse=1 WtCom= 1.00D+00 WtEn= 0.00D+00
 Coeff-Com:  0.100D+01
 Coeff:      0.100D+01
 Gap=     0.402 Goal=   None    Shift=    0.000
 RMSDP=2.09D-06 MaxDP=6.14D-05 DE=-1.64D-05 OVMax= 1.28D-04

 Cycle   4  Pass 1  IDiag  1:
 E= -526.849801271589     Delta-E=       -0.000000287851 Rises=F Damp=F
 DIIS: error= 2.05D-05 at cycle   2 NSaved=   2.
 NSaved= 2 IEnMin= 2 EnMin= -526.849801271589     IErMin= 2 ErrMin= 2.05D-05
 ErrMax= 2.05D-05  0.00D+00 EMaxC= 1.00D-01 BMatC= 6.68D-08 BMatP= 4.83D-07
 IDIUse=1 WtCom= 1.00D+00 WtEn= 0.00D+00
 Coeff-Com:  0.138D+00 0.862D+00
 Coeff:      0.138D+00 0.862D+00
 Gap=     0.402 Goal=   None    Shift=    0.000
 RMSDP=1.42D-06 MaxDP=5.28D-05 DE=-2.88D-07 OVMax= 1.61D-04

 Cycle   5  Pass 1  IDiag  1:
 E= -526.849801255472     Delta-E=        0.000000016117 Rises=F Damp=F
 DIIS: error= 2.52D-05 at cycle   3 NSaved=   3.
 NSaved= 3 IEnMin= 2 EnMin= -526.849801271589     IErMin= 2 ErrMin= 2.05D-05
 ErrMax= 2.52D-05  0.00D+00 EMaxC= 1.00D-01 BMatC= 9.47D-08 BMatP= 6.68D-08
 IDIUse=1 WtCom= 1.00D+00 WtEn= 0.00D+00
 Coeff-Com: -0.360D-01 0.557D+00 0.479D+00
 Coeff:     -0.360D-01 0.557D+00 0.479D+00
 Gap=     0.402 Goal=   None    Shift=    0.000
 RMSDP=6.31D-07 MaxDP=3.09D-05 DE= 1.61D-08 OVMax= 9.14D-05

 Cycle   6  Pass 1  IDiag  1:
 E= -526.849801318941     Delta-E=       -0.000000063469 Rises=F Damp=F
 DIIS: error= 7.86D-07 at cycle   4 NSaved=   4.
 NSaved= 4 IEnMin= 4 EnMin= -526.849801318941     IErMin= 4 ErrMin= 7.86D-07
 ErrMax= 7.86D-07  0.00D+00 EMaxC= 1.00D-01 BMatC= 4.25D-10 BMatP= 6.68D-08
 IDIUse=1 WtCom= 1.00D+00 WtEn= 0.00D+00
 Coeff-Com: -0.128D-01 0.139D+00 0.135D+00 0.739D+00
 Coeff:     -0.128D-01 0.139D+00 0.135D+00 0.739D+00
 Gap=     0.402 Goal=   None    Shift=    0.000
 RMSDP=8.50D-08 MaxDP=2.91D-06 DE=-6.35D-08 OVMax= 3.66D-06

 Cycle   7  Pass 1  IDiag  1:
 E= -526.849801319162     Delta-E=       -0.000000000221 Rises=F Damp=F
 DIIS: error= 4.56D-07 at cycle   5 NSaved=   5.
 NSaved= 5 IEnMin= 5 EnMin= -526.849801319162     IErMin= 5 ErrMin= 4.56D-07
 ErrMax= 4.56D-07  0.00D+00 EMaxC= 1.00D-01 BMatC= 1.26D-10 BMatP= 4.25D-10
 IDIUse=1 WtCom= 1.00D+00 WtEn= 0.00D+00
 Coeff-Com:  0.160D-02-0.487D-01-0.345D-01 0.341D+00 0.740D+00
 Coeff:      0.160D-02-0.487D-01-0.345D-01 0.341D+00 0.740D+00
 Gap=     0.402 Goal=   None    Shift=    0.000
 RMSDP=3.90D-08 MaxDP=1.20D-06 DE=-2.21D-10 OVMax= 2.85D-06

 Cycle   8  Pass 1  IDiag  1:
 E= -526.849801319253     Delta-E=       -0.000000000092 Rises=F Damp=F
 DIIS: error= 7.07D-08 at cycle   6 NSaved=   6.
 NSaved= 6 IEnMin= 6 EnMin= -526.849801319253     IErMin= 6 ErrMin= 7.07D-08
 ErrMax= 7.07D-08  0.00D+00 EMaxC= 1.00D-01 BMatC= 3.57D-12 BMatP= 1.26D-10
 IDIUse=1 WtCom= 1.00D+00 WtEn= 0.00D+00
 Coeff-Com:  0.103D-02-0.203D-01-0.162D-01 0.509D-01 0.211D+00 0.774D+00
 Coeff:      0.103D-02-0.203D-01-0.162D-01 0.509D-01 0.211D+00 0.774D+00
 Gap=     0.402 Goal=   None    Shift=    0.000
 RMSDP=8.35D-09 MaxDP=2.00D-07 DE=-9.15D-11 OVMax= 8.91D-07

 SCF Done:  E(RM062X) =  -526.849801319     A.U. after    8 cycles
            NFock=  8  Conv=0.84D-08     -V/T= 2.0037
 KE= 5.249045880533D+02 PE=-1.921084159960D+03 EE= 5.328296818465D+02
 Leave Link  502 at Sun May 25 04:08:16 2025, MaxMem=  3758096384 cpu:              31.6 elap:               5.7
 (Enter /apps/easybuild-2022/easybuild/software/Compiler/NVHPC/22.11-CUDA-11.7.0/Gaussian/g16c01-CUDA-11.7.0/g16/l508.exe)
 QCSCF skips out because SCF is already converged.
 Leave Link  508 at Sun May 25 04:08:16 2025, MaxMem=  3758096384 cpu:               0.0 elap:               0.0
 (Enter /apps/easybuild-2022/easybuild/software/Compiler/NVHPC/22.11-CUDA-11.7.0/Gaussian/g16c01-CUDA-11.7.0/g16/l801.exe)
 DoSCS=F DFT=T ScalE2(SS,OS)=  1.000000  1.000000
 Range of M.O.s used for correlation:     1   231
 NBasis=   231 NAE=    28 NBE=    28 NFC=     0 NFV=     0
 NROrb=    231 NOA=    28 NOB=    28 NVA=   203 NVB=   203

 **** Warning!!: The largest alpha MO coefficient is  0.12248367D+02

 Leave Link  801 at Sun May 25 04:08:16 2025, MaxMem=  3758096384 cpu:               0.0 elap:               0.0
 (Enter /apps/easybuild-2022/easybuild/software/Compiler/NVHPC/22.11-CUDA-11.7.0/Gaussian/g16c01-CUDA-11.7.0/g16/l1101.exe)
 Leave Link 1101 at Sun May 25 04:08:16 2025, MaxMem=  3758096384 cpu:               0.0 elap:               0.0
 (Enter /apps/easybuild-2022/easybuild/software/Compiler/NVHPC/22.11-CUDA-11.7.0/Gaussian/g16c01-CUDA-11.7.0/g16/l1102.exe)
 Symmetrizing basis deriv contribution to polar:
 IMax=3 JMax=2 DiffMx= 0.00D+00
 Leave Link 1102 at Sun May 25 04:08:16 2025, MaxMem=  3758096384 cpu:               0.1 elap:               0.0
 (Enter /apps/easybuild-2022/easybuild/software/Compiler/NVHPC/22.11-CUDA-11.7.0/Gaussian/g16c01-CUDA-11.7.0/g16/l1110.exe)
 Leave Link 1110 at Sun May 25 04:08:16 2025, MaxMem=  3758096384 cpu:               0.0 elap:               0.0
 (Enter /apps/easybuild-2022/easybuild/software/Compiler/NVHPC/22.11-CUDA-11.7.0/Gaussian/g16c01-CUDA-11.7.0/g16/l1002.exe)
 Minotr:  Closed shell wavefunction.
 Leave Link 1002 at Sun May 25 04:08:16 2025, MaxMem=  3758096384 cpu:               0.0 elap:               0.0
 (Enter /apps/easybuild-2022/easybuild/software/Compiler/NVHPC/22.11-CUDA-11.7.0/Gaussian/g16c01-CUDA-11.7.0/g16/l701.exe)
 ... and contract with generalized density number  0.
 Compute integral first derivatives.
   1 Symmetry operations used in ECPInt.
 ECPInt:  NShTT=    3486 NPrTT=   11183 LenC2=    3398 LenP2D=    8678.
 LDataN:  DoStor=T MaxTD1= 7 Len=  274
 Leave Link  701 at Sun May 25 04:08:16 2025, MaxMem=  3758096384 cpu:               0.4 elap:               0.1
 (Enter /apps/easybuild-2022/easybuild/software/Compiler/NVHPC/22.11-CUDA-11.7.0/Gaussian/g16c01-CUDA-11.7.0/g16/l702.exe)
 L702 exits ... SP integral derivatives will be done elsewhere.
 Leave Link  702 at Sun May 25 04:08:16 2025, MaxMem=  3758096384 cpu:               0.0 elap:               0.0
 (Enter /apps/easybuild-2022/easybuild/software/Compiler/NVHPC/22.11-CUDA-11.7.0/Gaussian/g16c01-CUDA-11.7.0/g16/l703.exe)
 Integral derivatives from FoFJK, PRISM(SPDF).
 Compute integral first derivatives, UseDBF=F ICtDFT=           0.
 Calling FoFJK, ICntrl=      2127 FMM=F ISym2X=0 I1Cent= 0 IOpClX= 0 NMat=1 NMatS=1 NMatT=0.
 FoFJK:  IHMeth= 1 ICntrl=    2127 DoSepK=F KAlg= 0 I1Cent=           0 FoldK=F
 IRaf=         0 NMat=       1 IRICut=       1 DoRegI=T DoRafI=F ISym2E= 0 IDoP0=0 IntGTp=1.
 FoFCou: FMM=F IPFlag=           0 FMFlag=      100000 FMFlg1=         800
         NFxFlg=           0 DoJE=F BraDBF=F KetDBF=F FulRan=T
         wScrn=  0.000000 ICntrl=      2127 IOpCl=  0 I1Cent=           0 NGrid=           0
         NMat0=    1 NMatS0=      1 NMatT0=    0 NMatD0=    1 NMtDS0=    0 NMtDT0=    0
 Symmetry not used in FoFCou.
 Leave Link  703 at Sun May 25 04:08:19 2025, MaxMem=  3758096384 cpu:              24.9 elap:               3.2
 (Enter /apps/easybuild-2022/easybuild/software/Compiler/NVHPC/22.11-CUDA-11.7.0/Gaussian/g16c01-CUDA-11.7.0/g16/l716.exe)
 Dipole        =-3.99102262D-01-8.43509336D-02-7.18692140D-01
 Polarizability= 0.00000000D+00 0.00000000D+00 0.00000000D+00
                 0.00000000D+00 0.00000000D+00 0.00000000D+00
 -------------------------------------------------------------------
 Center     Atomic                   Forces (Hartrees/Bohr)
 Number     Number              X              Y              Z
 -------------------------------------------------------------------
      1        6           0.000614165    0.004617102   -0.003687270
      2        8          -0.003142839   -0.012158868    0.005952611
      3        6          -0.000792465    0.001953714   -0.003632779
      4        9          -0.001563068    0.000949188   -0.002031923
      5        9          -0.000567739   -0.000605859   -0.002529538
      6        9          -0.000321098    0.001896793   -0.003826641
      7        8           0.007196124    0.005945579    0.010368874
      8        1          -0.001423080   -0.002597649   -0.000613334
 -------------------------------------------------------------------
 Cartesian Forces:  Max     0.012158868 RMS     0.004485085
 Leave Link  716 at Sun May 25 04:08:19 2025, MaxMem=  3758096384 cpu:               0.0 elap:               0.0
 (Enter /apps/easybuild-2022/easybuild/software/Compiler/NVHPC/22.11-CUDA-11.7.0/Gaussian/g16c01-CUDA-11.7.0/g16/l123.exe)
 IRC-IRC-IRC-IRC-IRC-IRC-IRC-IRC-IRC-IRC-IRC-IRC-IRC-IRC-IRC-IRC-IRC-IRC
 Pt100 Step number   1 out of a maximum of  20
 Using modified Bulirsch-Stoer corrector integration.
   Using distance weighted interpolants to fit PES.
 PreDWI: IReCr0= 2 IReCr1= 1 IReCr2= 1 IReCr3= 1
 Modified Bulirsch-Stoer Extrapolation Cycles:
    EPS =    0.000010000000000
    Cycle     1 NS=    48
      PEZero:  N= 2 I= 1 D=  1.09D-04 Err=  2.17D-06
    Cycle     2 NS=    64 Truncation Error =  0.000002168
 BS completed in    2 cycles and     112 integration steps.
 Maximum DWI energy   std dev =  0.000000007 at pt    41
 Maximum DWI gradient std dev =  0.019375529 at pt    29
 SUMMARY OF CORRECTOR INTEGRATION:
   Predictor End Point Energy =  -526.849801
   Old End Point Energy       =  -526.849801
   Corrected End Point Energy =  -526.849801
   Predictor End-Start Dist.  =     0.020960
   Old End-Start Dist.        =     0.020960
   New End-Start Dist.        =     0.020960
   New End-Old End Dist.      =     0.000046
 CORRECTOR INTEGRATION CONVERGENCE:
   Recorrection delta-x convergence threshold:    0.010000
   Delta-x Convergence Met
 Point Number: 100          Path Number:   1
                    CURRENT STRUCTURE
                Cartesian Coordinates (Ang):                
 ---------------------------------------------------------------------
 Center     Atomic                     Coordinates (Angstroms)
 Number     Number                        X           Y           Z
 ---------------------------------------------------------------------
      1          6                   -0.130646    0.563981   -0.810649
      2          8                   -0.836224   -0.010809   -1.773990
      3          6                    0.079220   -0.284806    0.485306
      4          9                    1.200872   -0.994234    0.366853
      5          9                    0.210154    0.530018    1.520692
      6          9                   -0.918860   -1.122859    0.732511
      7          8                    0.342696    1.646600   -0.936527
      8          1                   -0.837144    0.627448   -2.503089
 ---------------------------------------------------------------------
   CHANGE IN THE REACTION COORDINATE =    0.02096
   NET REACTION COORDINATE UP TO THIS POINT =    2.09598
  # OF POINTS ALONG THE PATH = 100
  # OF STEPS =   1

 Maximum number of steps reached.
 Calculation of FORWARD path complete.
 Reaction path calculation complete.
 
 Energies reported relative to the TS energy of        -526.789155
 --------------------------------------------------------------------------
    Summary of reaction path following
 --------------------------------------------------------------------------
                        Energy    RxCoord
   1                    0.00000   0.00000
   2                   -0.00003   0.02096
   3                   -0.00013   0.04192
   4                   -0.00030   0.06288
   5                   -0.00052   0.08384
   6                   -0.00082   0.10480
   7                   -0.00117   0.12576
   8                   -0.00158   0.14672
   9                   -0.00205   0.16768
  10                   -0.00258   0.18864
  11                   -0.00316   0.20960
  12                   -0.00379   0.23056
  13                   -0.00447   0.25152
  14                   -0.00520   0.27248
  15                   -0.00597   0.29344
  16                   -0.00678   0.31440
  17                   -0.00764   0.33536
  18                   -0.00853   0.35632
  19                   -0.00946   0.37728
  20                   -0.01041   0.39824
  21                   -0.01140   0.41920
  22                   -0.01242   0.44016
  23                   -0.01346   0.46112
  24                   -0.01452   0.48208
  25                   -0.01559   0.50304
  26                   -0.01669   0.52400
  27                   -0.01780   0.54496
  28                   -0.01891   0.56592
  29                   -0.02004   0.58688
  30                   -0.02116   0.60784
  31                   -0.02229   0.62880
  32                   -0.02342   0.64976
  33                   -0.02454   0.67072
  34                   -0.02565   0.69168
  35                   -0.02675   0.71264
  36                   -0.02785   0.73360
  37                   -0.02892   0.75456
  38                   -0.02998   0.77551
  39                   -0.03102   0.79647
  40                   -0.03205   0.81743
  41                   -0.03305   0.83839
  42                   -0.03403   0.85935
  43                   -0.03499   0.88031
  44                   -0.03592   0.90127
  45                   -0.03684   0.92223
  46                   -0.03773   0.94319
  47                   -0.03860   0.96415
  48                   -0.03944   0.98511
  49                   -0.04026   1.00607
  50                   -0.04106   1.02703
  51                   -0.04184   1.04799
  52                   -0.04259   1.06895
  53                   -0.04333   1.08991
  54                   -0.04404   1.11087
  55                   -0.04473   1.13183
  56                   -0.04540   1.15279
  57                   -0.04604   1.17375
  58                   -0.04667   1.19471
  59                   -0.04728   1.21567
  60                   -0.04786   1.23663
  61                   -0.04843   1.25759
  62                   -0.04898   1.27855
  63                   -0.04951   1.29951
  64                   -0.05003   1.32047
  65                   -0.05052   1.34143
  66                   -0.05100   1.36239
  67                   -0.05147   1.38335
  68                   -0.05192   1.40431
  69                   -0.05235   1.42527
  70                   -0.05277   1.44623
  71                   -0.05318   1.46719
  72                   -0.05357   1.48814
  73                   -0.05395   1.50910
  74                   -0.05432   1.53006
  75                   -0.05467   1.55102
  76                   -0.05502   1.57198
  77                   -0.05535   1.59294
  78                   -0.05567   1.61390
  79                   -0.05598   1.63486
  80                   -0.05629   1.65582
  81                   -0.05658   1.67678
  82                   -0.05686   1.69774
  83                   -0.05713   1.71870
  84                   -0.05739   1.73966
  85                   -0.05765   1.76062
  86                   -0.05789   1.78158
  87                   -0.05813   1.80254
  88                   -0.05836   1.82350
  89                   -0.05858   1.84446
  90                   -0.05879   1.86542
  91                   -0.05900   1.88638
  92                   -0.05920   1.90734
  93                   -0.05939   1.92830
  94                   -0.05957   1.94926
  95                   -0.05974   1.97022
  96                   -0.05991   1.99118
  97                   -0.06007   2.01214
  98                   -0.06022   2.03310
  99                   -0.06037   2.05406
 100                   -0.06051   2.07502
 101                   -0.06065   2.09598
 --------------------------------------------------------------------------
 
 Total number of points:                  100
 Total number of gradient calculations:   100
 Total number of Hessian calculations:      0
 IRC-IRC-IRC-IRC-IRC-IRC-IRC-IRC-IRC-IRC-IRC-IRC-IRC-IRC-IRC-IRC-IRC-IRC
 Leave Link  123 at Sun May 25 04:08:19 2025, MaxMem=  3758096384 cpu:               0.0 elap:               0.0
 (Enter /apps/easybuild-2022/easybuild/software/Compiler/NVHPC/22.11-CUDA-11.7.0/Gaussian/g16c01-CUDA-11.7.0/g16/l202.exe)
                          Input orientation:                          
 ---------------------------------------------------------------------
 Center     Atomic      Atomic             Coordinates (Angstroms)
 Number     Number       Type             X           Y           Z
 ---------------------------------------------------------------------
      1          6           0       -0.130645    0.563982   -0.810649
      2          8           0       -0.836224   -0.010810   -1.773989
      3          6           0        0.079220   -0.284806    0.485306
      4          9           0        1.200872   -0.994234    0.366853
      5          9           0        0.210154    0.530018    1.520692
      6          9           0       -0.918860   -1.122859    0.732511
      7          8           0        0.342695    1.646599   -0.936527
      8          1           0       -0.837145    0.627463   -2.503107
 ---------------------------------------------------------------------
                    Distance matrix (angstroms):
                    1          2          3          4          5
     1  C    0.000000
     2  O    1.325237   0.000000
     3  C    1.563324   2.453064   0.000000
     4  F    2.363786   3.114496   1.332450   0.000000
     5  F    2.356363   3.498904   1.324049   2.153186   0.000000
     6  F    2.418275   2.743360   1.326502   2.154881   2.151256
     7  O    1.188258   2.199591   2.412748   3.067453   2.702267
     8  H    1.835098   0.969023   3.256158   3.875575   4.159001
                    6          7          8
     6  F    0.000000
     7  O    3.470895   0.000000
     8  H    3.679609   2.210166   0.000000
 Symmetry turned off by external request.
 Stoichiometry    C2HF3O2
 Rotational constants (GHZ):           3.9639759           2.4109022           2.0300926
 Leave Link  202 at Sun May 25 04:08:19 2025, MaxMem=  3758096384 cpu:               0.0 elap:               0.0
 (Enter /apps/easybuild-2022/easybuild/software/Compiler/NVHPC/22.11-CUDA-11.7.0/Gaussian/g16c01-CUDA-11.7.0/g16/l9999.exe)

 This type of calculation cannot be archived.


 SCIENCE IS A VERY HUMAN FORM OF KNOWLEDGE.
 WE ARE ALWAYS AT THE BRINK OF THE KNOWN,
 WE ALWAYS FEEL FORWARD FOR WHAT IS HOPED.
 EVERY JUDGEMENT IN SCIENCE STANDS ON THE EDGE OF ERROR, AND IS PERSONAL.
 SCIENCE IS A TRIBUTE TO WHAT WE CAN KNOW ALTHOUGH WE ARE FALLIBLE.

                     -- J. BRONOWSKI
 Job cpu time:       0 days  1 hours 51 minutes  7.3 seconds.
 Elapsed time:       0 days  0 hours 18 minutes 12.0 seconds.
 File lengths (MBytes):  RWF=     30 Int=      0 D2E=      0 Chk=      6 Scr=      1
 Normal termination of Gaussian 16 at Sun May 25 04:08:19 2025.
done
