 Entering Gaussian System, Link 0=g16
 Initial command:
 /apps/easybuild-2022/easybuild/software/Compiler/NVHPC/22.11-CUDA-11.7.0/Gaussian/g16c01-CUDA-11.7.0/g16/l1.exe "/tmp/Gau-12514.inp" -scrdir="/tmp/"
 Entering Link 1 = /apps/easybuild-2022/easybuild/software/Compiler/NVHPC/22.11-CUDA-11.7.0/Gaussian/g16c01-CUDA-11.7.0/g16/l1.exe PID=     12515.
  
 Copyright (c) 1988-2019, Gaussian, Inc.  All Rights Reserved.
  
 This is part of the Gaussian(R) 16 program.  It is based on
 the Gaussian(R) 09 system (copyright 2009, Gaussian, Inc.),
 the Gaussian(R) 03 system (copyright 2003, Gaussian, Inc.),
 the Gaussian(R) 98 system (copyright 1998, Gaussian, Inc.),
 the Gaussian(R) 94 system (copyright 1995, Gaussian, Inc.),
 the Gaussian 92(TM) system (copyright 1992, Gaussian, Inc.),
 the Gaussian 90(TM) system (copyright 1990, Gaussian, Inc.),
 the Gaussian 88(TM) system (copyright 1988, Gaussian, Inc.),
 the Gaussian 86(TM) system (copyright 1986, Carnegie Mellon
 University), and the Gaussian 82(TM) system (copyright 1983,
 Carnegie Mellon University). Gaussian is a federally registered
 trademark of Gaussian, Inc.
  
 This software contains proprietary and confidential information,
 including trade secrets, belonging to Gaussian, Inc.
  
 This software is provided under written license and may be
 used, copied, transmitted, or stored only in accord with that
 written license.
  
 The following legend is applicable only to US Government
 contracts under FAR:
  
                    RESTRICTED RIGHTS LEGEND
  
 Use, reproduction and disclosure by the US Government is
 subject to restrictions as set forth in subparagraphs (a)
 and (c) of the Commercial Computer Software - Restricted
 Rights clause in FAR 52.227-19.
  
 Gaussian, Inc.
 340 Quinnipiac St., Bldg. 40, Wallingford CT 06492
  
  
 ---------------------------------------------------------------
 Warning -- This program may not be used in any manner that
 competes with the business of Gaussian, Inc. or will provide
 assistance to any competitor of Gaussian, Inc.  The licensee
 of this program is prohibited from giving any competitor of
 Gaussian, Inc. access to this program.  By using this program,
 the user acknowledges that Gaussian, Inc. is engaged in the
 business of creating and licensing software in the field of
 computational chemistry and represents and warrants to the
 licensee that it is not a competitor of Gaussian, Inc. and that
 it will not use this program in any manner prohibited above.
 ---------------------------------------------------------------
  

 Cite this work as:
 Gaussian 16, Revision C.01,
 M. J. Frisch, G. W. Trucks, H. B. Schlegel, G. E. Scuseria, 
 M. A. Robb, J. R. Cheeseman, G. Scalmani, V. Barone, 
 G. A. Petersson, H. Nakatsuji, X. Li, M. Caricato, A. V. Marenich, 
 J. Bloino, B. G. Janesko, R. Gomperts, B. Mennucci, H. P. Hratchian, 
 J. V. Ortiz, A. F. Izmaylov, J. L. Sonnenberg, D. Williams-Young, 
 F. Ding, F. Lipparini, F. Egidi, J. Goings, B. Peng, A. Petrone, 
 T. Henderson, D. Ranasinghe, V. G. Zakrzewski, J. Gao, N. Rega, 
 G. Zheng, W. Liang, M. Hada, M. Ehara, K. Toyota, R. Fukuda, 
 J. Hasegawa, M. Ishida, T. Nakajima, Y. Honda, O. Kitao, H. Nakai, 
 T. Vreven, K. Throssell, J. A. Montgomery, Jr., J. E. Peralta, 
 F. Ogliaro, M. J. Bearpark, J. J. Heyd, E. N. Brothers, K. N. Kudin, 
 V. N. Staroverov, T. A. Keith, R. Kobayashi, J. Normand, 
 K. Raghavachari, A. P. Rendell, J. C. Burant, S. S. Iyengar, 
 J. Tomasi, M. Cossi, J. M. Millam, M. Klene, C. Adamo, R. Cammi, 
 J. W. Ochterski, R. L. Martin, K. Morokuma, O. Farkas, 
 J. B. Foresman, and D. J. Fox, Gaussian, Inc., Wallingford CT, 2019.
 
 ******************************************
 Gaussian 16:  ES64L-G16RevC.01  3-Jul-2019
                25-May-2025 
 ******************************************
 %mem=28GB
 %chk=1141903082400600000001_r12_insertion_R_2_1_3_IRC_F
 %nprocshared=8
 Will use up to    8 processors via shared memory.
 ----------------------------------------------------------------------
 #P M062X/Def2TZVPP Symm(None) scf(xqc) pop(None) geom(AllCheck,NoKeepC
 onstants) guess(Read) irc(RCFC,forward,MaxPoints=100,StepSize=2)
 ----------------------------------------------------------------------
 1/10=5,18=10,22=1,26=3,29=20007,38=1,39=2,42=100,44=3,172=1/1,23;
 2/12=2,15=3,29=1,40=1/2;
 3/5=44,7=202,11=2,14=-4,25=1,30=1,71=2,74=-55,116=-2,140=1/1,2,3;
 4/5=1/1;
 5/5=2,8=3,13=1,38=6/2,8;
 8/6=4,10=90,11=11/1;
 11/6=1,8=1,9=11,15=111,16=1,31=1/1,2,10;
 10/6=1,13=1,31=1/2;
 7/10=1,25=1,30=1/1,2,3,16;
 1/18=10,22=1,26=3,39=2,42=100,44=3/23(2);
 2/15=3,29=1/2;
 99/5=20/99;
 2/15=3,29=1/2;
 3/5=44,7=202,11=2,14=-2,25=1,30=1,71=2,74=-55,140=1/1,2,3;
 4/5=5,16=3,69=1/1;
 5/5=2,8=3,13=1,38=5/2,8;
 8/6=4,10=90,11=11/1;
 11/6=1,8=1,9=11,15=111,16=1,31=1/1,2,10;
 10/6=1,13=1,31=1/2;
 7/10=1,25=1,30=1/1,2,3,16;
 1/18=10,22=1,26=3,39=2,42=100,44=3/23(-8);
 2/15=3,29=1/2;
 99/5=20,9=1/99;
 Leave Link    1 at Sun May 25 03:52:54 2025, MaxMem=  3758096384 cpu:               0.0 elap:               0.0
 (Enter /apps/easybuild-2022/easybuild/software/Compiler/NVHPC/22.11-CUDA-11.7.0/Gaussian/g16c01-CUDA-11.7.0/g16/l101.exe)
 Structure from the checkpoint file:  "1141903082400600000001_r12_insertion_R_2_1_3_IRC_F.chk"
 ------------------------------
 Gaussian input prepared by ASE
 ------------------------------
 Charge =  0 Multiplicity = 1
 Redundant internal coordinates found in file.  (old form).
 C,0,1.5633380389,0.4201671073,0.4265051051
 O,0,1.5399180773,-0.2026376685,-0.680803975
 C,0,-0.0717700551,-0.1247676428,-0.1059782262
 F,0,-0.8076191283,0.8620872548,0.414327604
 F,0,-0.5963699203,-0.2697744078,-1.3260627104
 F,0,-0.2411715368,-1.2363245055,0.5592090309
 O,0,2.643675649,1.0809931233,0.720236625
 H,0,3.2896228753,0.9745297392,-0.0085174534
 Recover connectivity data from disk.
 ITRead=  0  0  0  0  0  0  0  0
 MicOpt= -1 -1 -1 -1 -1 -1 -1 -1
 NAtoms=      8 NQM=        8 NQMF=       0 NMMI=      0 NMMIF=      0
                NMic=       0 NMicF=      0.
                    Isotopes and Nuclear Properties:
 (Nuclear quadrupole moments (NQMom) in fm**2, nuclear magnetic moments (NMagM)
  in nuclear magnetons)

  Atom         1           2           3           4           5           6           7           8
 IAtWgt=          12          16          12          19          19          19          16           1
 AtmWgt=  12.0000000  15.9949146  12.0000000  18.9984032  18.9984032  18.9984032  15.9949146   1.0078250
 NucSpn=           0           0           0           1           1           1           0           1
 AtZEff=   3.6000000   5.6000000   3.6000000   6.7500000   6.7500000   6.7500000   5.6000000   1.0000000
 NQMom=    0.0000000   0.0000000   0.0000000   0.0000000   0.0000000   0.0000000   0.0000000   0.0000000
 NMagM=    0.0000000   0.0000000   0.0000000   2.6288670   2.6288670   2.6288670   0.0000000   2.7928460
 AtZNuc=   6.0000000   8.0000000   6.0000000   9.0000000   9.0000000   9.0000000   8.0000000   1.0000000
 Leave Link  101 at Sun May 25 03:52:54 2025, MaxMem=  3758096384 cpu:               0.2 elap:               0.2
 (Enter /apps/easybuild-2022/easybuild/software/Compiler/NVHPC/22.11-CUDA-11.7.0/Gaussian/g16c01-CUDA-11.7.0/g16/l123.exe)
 IRC-IRC-IRC-IRC-IRC-IRC-IRC-IRC-IRC-IRC-IRC-IRC-IRC-IRC-IRC-IRC-IRC-IRC
 ------------------------------------------------------------------------
 INPUT DATA FOR L123
 ------------------------------------------------------------------------
 GENERAL PARAMETERS:
 Rxn path following direction = Forward
 Maximum points per path      = 100
 Step size                    =   0.020 bohr
 Integration scheme           = HPC                                 
    Redo corrector integration= Yes                                 
    DWI Weight Power          =  2
    DWI will use Hessian update vectors when possible.
    Max correction cycles     =  20
 Initial Hessian              = ReadFC from chk
 Hessian evaluation           = All updating
 Hessian updating method      = Bofill                              
 ------------------------------------------------------------------------
          ******** Start new reaction path calculation ********
 RCFC Option Requested - Data Read From Chk File:
 "1141903082400600000001_r12_insertion_R_2_1_3_IRC_F.chk"
   Energy From Chk =   -526.6913227

 Current Structure is TS -> form Hessian eigenvectors.
                            Recovering Hessian eigenvectors from chk file.
 Supplied step size of   0.0200 bohr.
    Integration on MW PES will use step size of   0.0720 sqrt(amu)*bohr.
 Point Number:   0          Path Number:   1
 Calculating another point on the path.
 Point Number  1 in FORWARD path direction.
 Using LQA Reaction Path Following.
 IRC-IRC-IRC-IRC-IRC-IRC-IRC-IRC-IRC-IRC-IRC-IRC-IRC-IRC-IRC-IRC-IRC-IRC
 Leave Link  123 at Sun May 25 03:52:54 2025, MaxMem=  3758096384 cpu:               0.1 elap:               0.0
 (Enter /apps/easybuild-2022/easybuild/software/Compiler/NVHPC/22.11-CUDA-11.7.0/Gaussian/g16c01-CUDA-11.7.0/g16/l202.exe)
                          Input orientation:                          
 ---------------------------------------------------------------------
 Center     Atomic      Atomic             Coordinates (Angstroms)
 Number     Number       Type             X           Y           Z
 ---------------------------------------------------------------------
      1          6           0        1.066527    0.365954    0.451414
      2          8           0        1.035848   -0.256415   -0.658790
      3          6           0       -0.570291   -0.182448   -0.089754
      4          9           0       -1.304789    0.805809    0.433009
      5          9           0       -1.096541   -0.326050   -1.307706
      6          9           0       -0.740013   -1.292002    0.578490
      7          8           0        2.147143    1.025487    0.738733
      8          1           0        2.792177    0.920799    0.008794
 ---------------------------------------------------------------------
                    Distance matrix (angstroms):
                    1          2          3          4          5
     1  C    0.000000
     2  O    1.273122   0.000000
     3  C    1.809083   1.705566   0.000000
     4  F    2.411835   2.792656   1.337693   0.000000
     5  F    2.872670   2.230027   1.334529   2.086759   0.000000
     6  F    2.455311   2.399371   1.306317   2.177371   2.148932
     7  O    1.298178   2.198027   3.087061   3.472400   4.066454
     8  H    1.865914   2.217249   3.540206   4.120475   4.290680
                    6          7          8
     6  F    0.000000
     7  O    3.705685   0.000000
     8  H    4.206828   0.979714   0.000000
 Symmetry turned off by external request.
 Stoichiometry    C2HF3O2
 Rotational constants (GHZ):           4.8355627           2.0208779           1.9138431
 Leave Link  202 at Sun May 25 03:52:54 2025, MaxMem=  3758096384 cpu:               0.0 elap:               0.0
 (Enter /apps/easybuild-2022/easybuild/software/Compiler/NVHPC/22.11-CUDA-11.7.0/Gaussian/g16c01-CUDA-11.7.0/g16/l301.exe)
 Standard basis: def2TZVPP (5D, 7F)
 Ernie: Thresh=  0.10000D-02 Tol=  0.10000D-05 Strict=F.
   231 basis functions,   374 primitive gaussians,   267 cartesian basis functions
    28 alpha electrons       28 beta electrons
       nuclear repulsion energy       336.2911270017 Hartrees.
 IExCor= 4336 DFT=T Ex+Corr=M062X ExCW=0 ScaHFX=  0.540000
 ScaDFX=  1.000000  1.000000  1.000000  1.000000 ScalE2=  1.000000  1.000000
 IRadAn=      5 IRanWt=     -1 IRanGd=            0 ICorTp=0 IEmpDi=  4
 NAtoms=    8 NActive=    8 NUniq=    8 SFac= 1.00D+00 NAtFMM=   60 NAOKFM=F Big=F
 Integral buffers will be    131072 words long.
 Raffenetti 2 integral format.
 Two-electron integral symmetry is turned off.
 Leave Link  301 at Sun May 25 03:52:54 2025, MaxMem=  3758096384 cpu:               0.1 elap:               0.0
 (Enter /apps/easybuild-2022/easybuild/software/Compiler/NVHPC/22.11-CUDA-11.7.0/Gaussian/g16c01-CUDA-11.7.0/g16/l302.exe)
 NPDir=0 NMtPBC=     1 NCelOv=     1 NCel=       1 NClECP=     1 NCelD=      1
         NCelK=      1 NCelE2=     1 NClLst=     1 CellRange=     0.0.
 One-electron integrals computed using PRISM.
   1 Symmetry operations used in ECPInt.
 ECPInt:  NShTT=    3486 NPrTT=   11183 LenC2=    3378 LenP2D=    8571.
 LDataN:  DoStor=T MaxTD1= 6 Len=  172
 NBasis=   231 RedAO= T EigKep=  8.95D-04  NBF=   231
 NBsUse=   231 1.00D-06 EigRej= -1.00D+00 NBFU=   231
 Precomputing XC quadrature grid using
 IXCGrd= 4 IRadAn=           5 IRanWt=          -1 IRanGd=           0 AccXCQ= 0.00D+00.
 Generated NRdTot=       0 NPtTot=           0 NUsed=           0 NTot=          32
 NSgBfM=   265   265   265   265   265 MxSgAt=     8 MxSgA2=     8.
 Leave Link  302 at Sun May 25 03:52:54 2025, MaxMem=  3758096384 cpu:               0.5 elap:               0.1
 (Enter /apps/easybuild-2022/easybuild/software/Compiler/NVHPC/22.11-CUDA-11.7.0/Gaussian/g16c01-CUDA-11.7.0/g16/l303.exe)
 DipDrv:  MaxL=1.
 Leave Link  303 at Sun May 25 03:52:54 2025, MaxMem=  3758096384 cpu:               0.1 elap:               0.0
 (Enter /apps/easybuild-2022/easybuild/software/Compiler/NVHPC/22.11-CUDA-11.7.0/Gaussian/g16c01-CUDA-11.7.0/g16/l401.exe)
 Initial guess from the checkpoint file:  "1141903082400600000001_r12_insertion_R_2_1_3_IRC_F.chk"
 B after Tr=    -0.942832   -0.105082    0.036982
         Rot=    1.000000   -0.000001   -0.000014   -0.000009 Ang=  -0.00 deg.
 Guess basis will be translated and rotated to current coordinates.
 JPrj=2 DoOrth=T DoCkMO=T.
 Leave Link  401 at Sun May 25 03:52:54 2025, MaxMem=  3758096384 cpu:               0.2 elap:               0.1
 (Enter /apps/easybuild-2022/easybuild/software/Compiler/NVHPC/22.11-CUDA-11.7.0/Gaussian/g16c01-CUDA-11.7.0/g16/l502.exe)
 Keep R1 ints in memory in canonical form, NReq=368651279.
 FoFCou: FMM=F IPFlag=           0 FMFlag=           0 FMFlg1=           0
         NFxFlg=           0 DoJE=F BraDBF=F KetDBF=F FulRan=T
         wScrn=  0.000000 ICntrl=       600 IOpCl=  0 I1Cent=           0 NGrid=           0
         NMat0=    1 NMatS0=  26796 NMatT0=    0 NMatD0=    1 NMtDS0=    0 NMtDT0=    0
 Symmetry not used in FoFCou.
 Two-electron integral symmetry not used.
 Closed shell SCF:
 Using DIIS extrapolation, IDIIS=  1040.
 NGot=  3758096384 LenX=  3398923531 LenY=  3398851801
 Requested convergence on RMS density matrix=1.00D-08 within  32 cycles.
 Requested convergence on MAX density matrix=1.00D-06.
 Requested convergence on             energy=1.00D-06.
 No special actions if energy rises.

 Cycle   1  Pass 1  IDiag  1:
 E= -526.691251714816    
 DIIS: error= 2.85D-04 at cycle   1 NSaved=   1.
 NSaved= 1 IEnMin= 1 EnMin= -526.691251714816     IErMin= 1 ErrMin= 2.85D-04
 ErrMax= 2.85D-04  0.00D+00 EMaxC= 1.00D-01 BMatC= 5.56D-05 BMatP= 5.56D-05
 IDIUse=3 WtCom= 9.97D-01 WtEn= 2.85D-03
 Coeff-Com:  0.100D+01
 Coeff-En:   0.100D+01
 Coeff:      0.100D+01
 Gap=     0.323 Goal=   None    Shift=    0.000
 RMSDP=5.07D-05 MaxDP=1.38D-03              OVMax= 7.25D-03

 Cycle   2  Pass 1  IDiag  1:
 E= -526.691359387801     Delta-E=       -0.000107672985 Rises=F Damp=F
 DIIS: error= 1.29D-04 at cycle   2 NSaved=   2.
 NSaved= 2 IEnMin= 2 EnMin= -526.691359387801     IErMin= 2 ErrMin= 1.29D-04
 ErrMax= 1.29D-04  0.00D+00 EMaxC= 1.00D-01 BMatC= 7.13D-06 BMatP= 5.56D-05
 IDIUse=3 WtCom= 9.99D-01 WtEn= 1.29D-03
 Coeff-Com: -0.936D-02 0.101D+01
 Coeff-En:   0.000D+00 0.100D+01
 Coeff:     -0.935D-02 0.101D+01
 Gap=     0.321 Goal=   None    Shift=    0.000
 RMSDP=2.00D-05 MaxDP=7.11D-04 DE=-1.08D-04 OVMax= 2.27D-03

 Cycle   3  Pass 1  IDiag  1:
 E= -526.691371150558     Delta-E=       -0.000011762757 Rises=F Damp=F
 DIIS: error= 1.45D-04 at cycle   3 NSaved=   3.
 NSaved= 3 IEnMin= 3 EnMin= -526.691371150558     IErMin= 2 ErrMin= 1.29D-04
 ErrMax= 1.45D-04  0.00D+00 EMaxC= 1.00D-01 BMatC= 6.32D-06 BMatP= 7.13D-06
 IDIUse=3 WtCom= 9.99D-01 WtEn= 1.45D-03
 Coeff-Com: -0.914D-01 0.539D+00 0.552D+00
 Coeff-En:   0.000D+00 0.000D+00 0.100D+01
 Coeff:     -0.913D-01 0.539D+00 0.553D+00
 Gap=     0.321 Goal=   None    Shift=    0.000
 RMSDP=1.15D-05 MaxDP=4.72D-04 DE=-1.18D-05 OVMax= 1.65D-03

 Cycle   4  Pass 1  IDiag  1:
 E= -526.691377051986     Delta-E=       -0.000005901428 Rises=F Damp=F
 DIIS: error= 5.27D-05 at cycle   4 NSaved=   4.
 NSaved= 4 IEnMin= 4 EnMin= -526.691377051986     IErMin= 4 ErrMin= 5.27D-05
 ErrMax= 5.27D-05  0.00D+00 EMaxC= 1.00D-01 BMatC= 9.59D-07 BMatP= 6.32D-06
 IDIUse=1 WtCom= 1.00D+00 WtEn= 0.00D+00
 Coeff-Com: -0.299D-01-0.174D-01 0.250D+00 0.798D+00
 Coeff:     -0.299D-01-0.174D-01 0.250D+00 0.798D+00
 Gap=     0.321 Goal=   None    Shift=    0.000
 RMSDP=6.11D-06 MaxDP=3.16D-04 DE=-5.90D-06 OVMax= 6.96D-04

 Cycle   5  Pass 1  IDiag  1:
 E= -526.691378475451     Delta-E=       -0.000001423465 Rises=F Damp=F
 DIIS: error= 1.97D-05 at cycle   5 NSaved=   5.
 NSaved= 5 IEnMin= 5 EnMin= -526.691378475451     IErMin= 5 ErrMin= 1.97D-05
 ErrMax= 1.97D-05  0.00D+00 EMaxC= 1.00D-01 BMatC= 2.32D-07 BMatP= 9.59D-07
 IDIUse=1 WtCom= 1.00D+00 WtEn= 0.00D+00
 Coeff-Com:  0.114D-01-0.154D+00 0.196D-01 0.436D+00 0.687D+00
 Coeff:      0.114D-01-0.154D+00 0.196D-01 0.436D+00 0.687D+00
 Gap=     0.321 Goal=   None    Shift=    0.000
 RMSDP=3.75D-06 MaxDP=1.73D-04 DE=-1.42D-06 OVMax= 5.27D-04

 Cycle   6  Pass 1  IDiag  1:
 E= -526.691378838192     Delta-E=       -0.000000362741 Rises=F Damp=F
 DIIS: error= 7.77D-06 at cycle   6 NSaved=   6.
 NSaved= 6 IEnMin= 6 EnMin= -526.691378838192     IErMin= 6 ErrMin= 7.77D-06
 ErrMax= 7.77D-06  0.00D+00 EMaxC= 1.00D-01 BMatC= 2.50D-08 BMatP= 2.32D-07
 IDIUse=1 WtCom= 1.00D+00 WtEn= 0.00D+00
 Coeff-Com:  0.940D-02-0.522D-01-0.444D-01-0.451D-01 0.228D+00 0.904D+00
 Coeff:      0.940D-02-0.522D-01-0.444D-01-0.451D-01 0.228D+00 0.904D+00
 Gap=     0.321 Goal=   None    Shift=    0.000
 RMSDP=1.75D-06 MaxDP=9.81D-05 DE=-3.63D-07 OVMax= 2.13D-04

 Cycle   7  Pass 1  IDiag  1:
 E= -526.691378890240     Delta-E=       -0.000000052047 Rises=F Damp=F
 DIIS: error= 1.36D-06 at cycle   7 NSaved=   7.
 NSaved= 7 IEnMin= 7 EnMin= -526.691378890240     IErMin= 7 ErrMin= 1.36D-06
 ErrMax= 1.36D-06  0.00D+00 EMaxC= 1.00D-01 BMatC= 1.04D-09 BMatP= 2.50D-08
 IDIUse=1 WtCom= 1.00D+00 WtEn= 0.00D+00
 Coeff-Com:  0.102D-02 0.375D-02-0.940D-02-0.348D-01-0.133D-01 0.165D+00
 Coeff-Com:  0.888D+00
 Coeff:      0.102D-02 0.375D-02-0.940D-02-0.348D-01-0.133D-01 0.165D+00
 Coeff:      0.888D+00
 Gap=     0.321 Goal=   None    Shift=    0.000
 RMSDP=2.26D-07 MaxDP=7.65D-06 DE=-5.20D-08 OVMax= 2.79D-05

 Cycle   8  Pass 1  IDiag  1:
 E= -526.691378891647     Delta-E=       -0.000000001407 Rises=F Damp=F
 DIIS: error= 7.67D-07 at cycle   8 NSaved=   8.
 NSaved= 8 IEnMin= 8 EnMin= -526.691378891647     IErMin= 8 ErrMin= 7.67D-07
 ErrMax= 7.67D-07  0.00D+00 EMaxC= 1.00D-01 BMatC= 3.79D-10 BMatP= 1.04D-09
 IDIUse=1 WtCom= 1.00D+00 WtEn= 0.00D+00
 Coeff-Com: -0.494D-03 0.701D-02-0.341D-03-0.107D-01-0.338D-01-0.189D-01
 Coeff-Com:  0.424D+00 0.633D+00
 Coeff:     -0.494D-03 0.701D-02-0.341D-03-0.107D-01-0.338D-01-0.189D-01
 Coeff:      0.424D+00 0.633D+00
 Gap=     0.321 Goal=   None    Shift=    0.000
 RMSDP=6.85D-08 MaxDP=2.74D-06 DE=-1.41D-09 OVMax= 6.19D-06

 Cycle   9  Pass 1  IDiag  1:
 E= -526.691378891932     Delta-E=       -0.000000000285 Rises=F Damp=F
 DIIS: error= 1.69D-07 at cycle   9 NSaved=   9.
 NSaved= 9 IEnMin= 9 EnMin= -526.691378891932     IErMin= 9 ErrMin= 1.69D-07
 ErrMax= 1.69D-07  0.00D+00 EMaxC= 1.00D-01 BMatC= 2.04D-11 BMatP= 3.79D-10
 IDIUse=1 WtCom= 1.00D+00 WtEn= 0.00D+00
 Coeff-Com: -0.208D-03 0.123D-02 0.894D-03 0.223D-02-0.782D-02-0.222D-01
 Coeff-Com: -0.767D-02 0.157D+00 0.877D+00
 Coeff:     -0.208D-03 0.123D-02 0.894D-03 0.223D-02-0.782D-02-0.222D-01
 Coeff:     -0.767D-02 0.157D+00 0.877D+00
 Gap=     0.321 Goal=   None    Shift=    0.000
 RMSDP=2.46D-08 MaxDP=7.38D-07 DE=-2.85D-10 OVMax= 2.63D-06

 Cycle  10  Pass 1  IDiag  1:
 E= -526.691378891979     Delta-E=       -0.000000000046 Rises=F Damp=F
 DIIS: error= 6.35D-08 at cycle  10 NSaved=  10.
 NSaved=10 IEnMin=10 EnMin= -526.691378891979     IErMin=10 ErrMin= 6.35D-08
 ErrMax= 6.35D-08  0.00D+00 EMaxC= 1.00D-01 BMatC= 2.52D-12 BMatP= 2.04D-11
 IDIUse=1 WtCom= 1.00D+00 WtEn= 0.00D+00
 Coeff-Com: -0.608D-05-0.446D-03 0.281D-03 0.213D-02 0.148D-02-0.469D-02
 Coeff-Com: -0.524D-01-0.240D-01 0.282D+00 0.796D+00
 Coeff:     -0.608D-05-0.446D-03 0.281D-03 0.213D-02 0.148D-02-0.469D-02
 Coeff:     -0.524D-01-0.240D-01 0.282D+00 0.796D+00
 Gap=     0.321 Goal=   None    Shift=    0.000
 RMSDP=9.21D-09 MaxDP=2.77D-07 DE=-4.62D-11 OVMax= 1.20D-06

 SCF Done:  E(RM062X) =  -526.691378892     A.U. after   10 cycles
            NFock= 10  Conv=0.92D-08     -V/T= 2.0037
 KE= 5.247698412492D+02 PE=-1.920341221448D+03 EE= 5.325888743048D+02
 Leave Link  502 at Sun May 25 03:53:02 2025, MaxMem=  3758096384 cpu:              44.9 elap:               8.1
 (Enter /apps/easybuild-2022/easybuild/software/Compiler/NVHPC/22.11-CUDA-11.7.0/Gaussian/g16c01-CUDA-11.7.0/g16/l508.exe)
 QCSCF skips out because SCF is already converged.
 Leave Link  508 at Sun May 25 03:53:03 2025, MaxMem=  3758096384 cpu:               0.1 elap:               0.0
 (Enter /apps/easybuild-2022/easybuild/software/Compiler/NVHPC/22.11-CUDA-11.7.0/Gaussian/g16c01-CUDA-11.7.0/g16/l801.exe)
 DoSCS=F DFT=T ScalE2(SS,OS)=  1.000000  1.000000
 Range of M.O.s used for correlation:     1   231
 NBasis=   231 NAE=    28 NBE=    28 NFC=     0 NFV=     0
 NROrb=    231 NOA=    28 NOB=    28 NVA=   203 NVB=   203
 Leave Link  801 at Sun May 25 03:53:03 2025, MaxMem=  3758096384 cpu:               0.0 elap:               0.0
 (Enter /apps/easybuild-2022/easybuild/software/Compiler/NVHPC/22.11-CUDA-11.7.0/Gaussian/g16c01-CUDA-11.7.0/g16/l1101.exe)
 Leave Link 1101 at Sun May 25 03:53:03 2025, MaxMem=  3758096384 cpu:               0.0 elap:               0.0
 (Enter /apps/easybuild-2022/easybuild/software/Compiler/NVHPC/22.11-CUDA-11.7.0/Gaussian/g16c01-CUDA-11.7.0/g16/l1102.exe)
 Symmetrizing basis deriv contribution to polar:
 IMax=3 JMax=2 DiffMx= 0.00D+00
 Leave Link 1102 at Sun May 25 03:53:03 2025, MaxMem=  3758096384 cpu:               0.0 elap:               0.0
 (Enter /apps/easybuild-2022/easybuild/software/Compiler/NVHPC/22.11-CUDA-11.7.0/Gaussian/g16c01-CUDA-11.7.0/g16/l1110.exe)
 Leave Link 1110 at Sun May 25 03:53:03 2025, MaxMem=  3758096384 cpu:               0.0 elap:               0.0
 (Enter /apps/easybuild-2022/easybuild/software/Compiler/NVHPC/22.11-CUDA-11.7.0/Gaussian/g16c01-CUDA-11.7.0/g16/l1002.exe)
 Minotr:  Closed shell wavefunction.
 Leave Link 1002 at Sun May 25 03:53:03 2025, MaxMem=  3758096384 cpu:               0.0 elap:               0.0
 (Enter /apps/easybuild-2022/easybuild/software/Compiler/NVHPC/22.11-CUDA-11.7.0/Gaussian/g16c01-CUDA-11.7.0/g16/l701.exe)
 ... and contract with generalized density number  0.
 Compute integral first derivatives.
   1 Symmetry operations used in ECPInt.
 ECPInt:  NShTT=    3486 NPrTT=   11183 LenC2=    3378 LenP2D=    8571.
 LDataN:  DoStor=T MaxTD1= 7 Len=  274
 Leave Link  701 at Sun May 25 03:53:03 2025, MaxMem=  3758096384 cpu:               0.5 elap:               0.1
 (Enter /apps/easybuild-2022/easybuild/software/Compiler/NVHPC/22.11-CUDA-11.7.0/Gaussian/g16c01-CUDA-11.7.0/g16/l702.exe)
 L702 exits ... SP integral derivatives will be done elsewhere.
 Leave Link  702 at Sun May 25 03:53:03 2025, MaxMem=  3758096384 cpu:               0.1 elap:               0.0
 (Enter /apps/easybuild-2022/easybuild/software/Compiler/NVHPC/22.11-CUDA-11.7.0/Gaussian/g16c01-CUDA-11.7.0/g16/l703.exe)
 Integral derivatives from FoFJK, PRISM(SPDF).
 Compute integral first derivatives, UseDBF=F ICtDFT=           0.
 Calling FoFJK, ICntrl=      2127 FMM=F ISym2X=0 I1Cent= 0 IOpClX= 0 NMat=1 NMatS=1 NMatT=0.
 FoFJK:  IHMeth= 1 ICntrl=    2127 DoSepK=F KAlg= 0 I1Cent=           0 FoldK=F
 IRaf=         0 NMat=       1 IRICut=       1 DoRegI=T DoRafI=F ISym2E= 0 IDoP0=0 IntGTp=1.
 FoFCou: FMM=F IPFlag=           0 FMFlag=      100000 FMFlg1=         800
         NFxFlg=           0 DoJE=F BraDBF=F KetDBF=F FulRan=T
         wScrn=  0.000000 ICntrl=      2127 IOpCl=  0 I1Cent=           0 NGrid=           0
         NMat0=    1 NMatS0=      1 NMatT0=    0 NMatD0=    1 NMtDS0=    0 NMtDT0=    0
 Symmetry not used in FoFCou.
 Leave Link  703 at Sun May 25 03:53:06 2025, MaxMem=  3758096384 cpu:              25.8 elap:               3.3
 (Enter /apps/easybuild-2022/easybuild/software/Compiler/NVHPC/22.11-CUDA-11.7.0/Gaussian/g16c01-CUDA-11.7.0/g16/l716.exe)
 Dipole        = 7.37114018D-01 1.62800830D-01-1.53361590D-01
 Polarizability= 0.00000000D+00 0.00000000D+00 0.00000000D+00
                 0.00000000D+00 0.00000000D+00 0.00000000D+00
 -------------------------------------------------------------------
 Center     Atomic                   Forces (Hartrees/Bohr)
 Number     Number              X              Y              Z
 -------------------------------------------------------------------
      1        6           0.001055083    0.000676140    0.002593532
      2        8          -0.003373057    0.001231066    0.001671203
      3        6           0.000184946   -0.001005261   -0.001650876
      4        9           0.001384450   -0.000507251   -0.000705664
      5        9          -0.000943584   -0.000538497   -0.000937754
      6        9           0.000061234   -0.000033416   -0.000191449
      7        8           0.001576209    0.000099595   -0.000693972
      8        1           0.000054719    0.000077623   -0.000085020
 -------------------------------------------------------------------
 Cartesian Forces:  Max     0.003373057 RMS     0.001216523
 Leave Link  716 at Sun May 25 03:53:06 2025, MaxMem=  3758096384 cpu:               0.1 elap:               0.0
 (Enter /apps/easybuild-2022/easybuild/software/Compiler/NVHPC/22.11-CUDA-11.7.0/Gaussian/g16c01-CUDA-11.7.0/g16/l123.exe)
 IRC-IRC-IRC-IRC-IRC-IRC-IRC-IRC-IRC-IRC-IRC-IRC-IRC-IRC-IRC-IRC-IRC-IRC
 Pt  1 Step number   1 out of a maximum of  20
 Using modified Bulirsch-Stoer corrector integration.
   Using distance weighted interpolants to fit PES.
 PreDWI: IReCr0= 2 IReCr1= 1 IReCr2= 1 IReCr3= 1
 Modified Bulirsch-Stoer Extrapolation Cycles:
    EPS =    0.000010000000000
    Cycle     1 NS=    48
      PEZero:  N= 2 I= 1 D=  1.87D-04 Err=  3.03D-04
    Cycle     2 NS=    64 Truncation Error =  0.000302669
      PEZero:  N= 3 I= 2 D=  1.87D-04 Err=  2.02D-04
      PEZero:  N= 3 I= 1 D=  3.75D-04 Err=  5.34D-09
    Cycle     3 NS=    96 Truncation Error =  0.000000005
 BS completed in    3 cycles and     208 integration steps.
 Maximum DWI energy   std dev =  0.000000038 at pt    31
 Maximum DWI gradient std dev =  0.008687498 at pt     1
 SUMMARY OF CORRECTOR INTEGRATION:
   Predictor End Point Energy =  -526.691379
   Old End Point Energy       =  -526.691379
   Corrected End Point Energy =  -526.691379
   Predictor End-Start Dist.  =     0.071963
   Old End-Start Dist.        =     0.071963
   New End-Start Dist.        =     0.071963
   New End-Old End Dist.      =     0.000325
 CORRECTOR INTEGRATION CONVERGENCE:
   Recorrection delta-x convergence threshold:    0.010000
   Delta-x Convergence Met
 Point Number:   1          Path Number:   1
                    CURRENT STRUCTURE
                Cartesian Coordinates (Ang):                
 ---------------------------------------------------------------------
 Center     Atomic                     Coordinates (Angstroms)
 Number     Number                        X           Y           Z
 ---------------------------------------------------------------------
      1          6                    1.066530    0.365949    0.451400
      2          8                    1.035849   -0.256411   -0.658772
      3          6                   -0.570303   -0.182446   -0.089757
      4          9                   -1.304786    0.805811    0.432995
      5          9                   -1.096530   -0.326068   -1.307709
      6          9                   -0.740020   -1.291997    0.578501
      7          8                    2.147140    1.025499    0.738734
      8          1                    2.792175    0.920795    0.008812
 ---------------------------------------------------------------------
   CHANGE IN THE REACTION COORDINATE =    0.07196
   NET REACTION COORDINATE UP TO THIS POINT =    0.07196
  # OF POINTS ALONG THE PATH =   1
  # OF STEPS =   1

 Calculating another point on the path.
 Point Number  2 in FORWARD path direction.
 Using LQA Reaction Path Following.
   LQA: T_Est iteration completed in    3 iterations.
 IRC-IRC-IRC-IRC-IRC-IRC-IRC-IRC-IRC-IRC-IRC-IRC-IRC-IRC-IRC-IRC-IRC-IRC
 Leave Link  123 at Sun May 25 03:53:06 2025, MaxMem=  3758096384 cpu:               0.2 elap:               0.1
 (Enter /apps/easybuild-2022/easybuild/software/Compiler/NVHPC/22.11-CUDA-11.7.0/Gaussian/g16c01-CUDA-11.7.0/g16/l202.exe)
                          Input orientation:                          
 ---------------------------------------------------------------------
 Center     Atomic      Atomic             Coordinates (Angstroms)
 Number     Number       Type             X           Y           Z
 ---------------------------------------------------------------------
      1          6           0        1.068656    0.367358    0.456737
      2          8           0        1.030719   -0.254562   -0.656286
      3          6           0       -0.569910   -0.184499   -0.093090
      4          9           0       -1.303017    0.805163    0.432101
      5          9           0       -1.097749   -0.326746   -1.308912
      6          9           0       -0.739939   -1.292040    0.578244
      7          8           0        2.149536    1.025640    0.737680
      8          1           0        2.793668    0.922688    0.006599
 ---------------------------------------------------------------------
                    Distance matrix (angstroms):
                    1          2          3          4          5
     1  C    0.000000
     2  O    1.275557   0.000000
     3  C    1.814319   1.698267   0.000000
     4  F    2.411869   2.784588   1.338919   0.000000
     5  F    2.879689   2.227445   1.333068   2.086739   0.000000
     6  F    2.457516   2.394923   1.306234   2.176391   2.149693
     7  O    1.296366   2.198593   3.090308   3.473055   4.069687
     8  H    1.867266   2.221109   3.542521   4.120400   4.293575
                    6          7          8
     6  F    0.000000
     7  O    3.707577   0.000000
     8  H    4.209297   0.979788   0.000000
 Symmetry turned off by external request.
 Stoichiometry    C2HF3O2
 Rotational constants (GHZ):           4.8451949           2.0186954           1.9136278
 Leave Link  202 at Sun May 25 03:53:06 2025, MaxMem=  3758096384 cpu:               0.0 elap:               0.0
 (Enter /apps/easybuild-2022/easybuild/software/Compiler/NVHPC/22.11-CUDA-11.7.0/Gaussian/g16c01-CUDA-11.7.0/g16/l301.exe)
 Standard basis: def2TZVPP (5D, 7F)
 Ernie: Thresh=  0.10000D-02 Tol=  0.10000D-05 Strict=F.
   231 basis functions,   374 primitive gaussians,   267 cartesian basis functions
    28 alpha electrons       28 beta electrons
       nuclear repulsion energy       336.3410151317 Hartrees.
 IExCor= 4336 DFT=T Ex+Corr=M062X ExCW=0 ScaHFX=  0.540000
 ScaDFX=  1.000000  1.000000  1.000000  1.000000 ScalE2=  1.000000  1.000000
 IRadAn=      5 IRanWt=     -1 IRanGd=            0 ICorTp=0 IEmpDi=  4
 NAtoms=    8 NActive=    8 NUniq=    8 SFac= 1.00D+00 NAtFMM=   60 NAOKFM=F Big=F
 Integral buffers will be    131072 words long.
 Raffenetti 2 integral format.
 Two-electron integral symmetry is turned off.
 Leave Link  301 at Sun May 25 03:53:06 2025, MaxMem=  3758096384 cpu:               0.0 elap:               0.0
 (Enter /apps/easybuild-2022/easybuild/software/Compiler/NVHPC/22.11-CUDA-11.7.0/Gaussian/g16c01-CUDA-11.7.0/g16/l302.exe)
 NPDir=0 NMtPBC=     1 NCelOv=     1 NCel=       1 NClECP=     1 NCelD=      1
         NCelK=      1 NCelE2=     1 NClLst=     1 CellRange=     0.0.
 One-electron integrals computed using PRISM.
   1 Symmetry operations used in ECPInt.
 ECPInt:  NShTT=    3486 NPrTT=   11183 LenC2=    3377 LenP2D=    8571.
 LDataN:  DoStor=T MaxTD1= 6 Len=  172
 NBasis=   231 RedAO= T EigKep=  8.99D-04  NBF=   231
 NBsUse=   231 1.00D-06 EigRej= -1.00D+00 NBFU=   231
 Precomputing XC quadrature grid using
 IXCGrd= 4 IRadAn=           5 IRanWt=          -1 IRanGd=           0 AccXCQ= 0.00D+00.
 Generated NRdTot=       0 NPtTot=           0 NUsed=           0 NTot=          32
 NSgBfM=   265   265   265   265   265 MxSgAt=     8 MxSgA2=     8.
 Leave Link  302 at Sun May 25 03:53:07 2025, MaxMem=  3758096384 cpu:               0.5 elap:               0.1
 (Enter /apps/easybuild-2022/easybuild/software/Compiler/NVHPC/22.11-CUDA-11.7.0/Gaussian/g16c01-CUDA-11.7.0/g16/l303.exe)
 DipDrv:  MaxL=1.
 Leave Link  303 at Sun May 25 03:53:07 2025, MaxMem=  3758096384 cpu:               0.1 elap:               0.0
 (Enter /apps/easybuild-2022/easybuild/software/Compiler/NVHPC/22.11-CUDA-11.7.0/Gaussian/g16c01-CUDA-11.7.0/g16/l401.exe)
 Initial guess from the checkpoint file:  "1141903082400600000001_r12_insertion_R_2_1_3_IRC_F.chk"
 B after Tr=     0.000014    0.000053    0.000005
         Rot=    1.000000    0.000013   -0.000007   -0.000009 Ang=   0.00 deg.
 Guess basis will be translated and rotated to current coordinates.
 JPrj=2 DoOrth=T DoCkMO=T.
 Generating alternative initial guess.
 ExpMin= 9.52D-02 ExpMax= 3.55D+04 ExpMxC= 1.21D+03 IAcc=3 IRadAn=         5 AccDes= 0.00D+00
 Harris functional with IExCor= 1009 and IRadAn=       5 diagonalized for initial guess.
 HarFok:  IExCor= 1009 AccDes= 0.00D+00 IRadAn=         5 IDoV= 1 UseB2=F ITyADJ=14
 ICtDFT=  3500011 ScaDFX=  1.000000  1.000000  1.000000  1.000000
 FoFCou: FMM=F IPFlag=           0 FMFlag=      100000 FMFlg1=           0
         NFxFlg=           0 DoJE=T BraDBF=F KetDBF=T FulRan=T
         wScrn=  0.000000 ICntrl=       500 IOpCl=  0 I1Cent=   200000004 NGrid=           0
         NMat0=    1 NMatS0=      1 NMatT0=    0 NMatD0=    1 NMtDS0=    0 NMtDT0=    0
 Symmetry not used in FoFCou.
 Harris En= -526.395765807312    
 Leave Link  401 at Sun May 25 03:53:07 2025, MaxMem=  3758096384 cpu:               2.2 elap:               0.3
 (Enter /apps/easybuild-2022/easybuild/software/Compiler/NVHPC/22.11-CUDA-11.7.0/Gaussian/g16c01-CUDA-11.7.0/g16/l502.exe)
 Keep R1 ints in memory in canonical form, NReq=368651279.
 FoFCou: FMM=F IPFlag=           0 FMFlag=           0 FMFlg1=           0
         NFxFlg=           0 DoJE=F BraDBF=F KetDBF=F FulRan=T
         wScrn=  0.000000 ICntrl=       600 IOpCl=  0 I1Cent=           0 NGrid=           0
         NMat0=    1 NMatS0=  26796 NMatT0=    0 NMatD0=    1 NMtDS0=    0 NMtDT0=    0
 Symmetry not used in FoFCou.
 Two-electron integral symmetry not used.
 Closed shell SCF:
 Using DIIS extrapolation, IDIIS=  1040.
 NGot=  3758096384 LenX=  3398923531 LenY=  3398851801
 Requested convergence on RMS density matrix=1.00D-08 within  32 cycles.
 Requested convergence on MAX density matrix=1.00D-06.
 Requested convergence on             energy=1.00D-06.
 No special actions if energy rises.
 Integral accuracy reduced to 1.0D-05 until final iterations.

 Cycle   1  Pass 0  IDiag  1:
 E= -526.691418831309    
 DIIS: error= 2.85D-04 at cycle   1 NSaved=   1.
 NSaved= 1 IEnMin= 1 EnMin= -526.691418831309     IErMin= 1 ErrMin= 2.85D-04
 ErrMax= 2.85D-04  0.00D+00 EMaxC= 1.00D-01 BMatC= 5.56D-05 BMatP= 5.56D-05
 IDIUse=3 WtCom= 9.97D-01 WtEn= 2.85D-03
 Coeff-Com:  0.100D+01
 Coeff-En:   0.100D+01
 Coeff:      0.100D+01
 Gap=     1.204 Goal=   None    Shift=    0.000
 RMSDP=5.09D-05 MaxDP=1.54D-03              OVMax= 7.25D-03

 Cycle   2  Pass 0  IDiag  1:
 E= -526.691526753112     Delta-E=       -0.000107921803 Rises=F Damp=F
 DIIS: error= 1.30D-04 at cycle   2 NSaved=   2.
 NSaved= 2 IEnMin= 2 EnMin= -526.691526753112     IErMin= 2 ErrMin= 1.30D-04
 ErrMax= 1.30D-04  0.00D+00 EMaxC= 1.00D-01 BMatC= 7.23D-06 BMatP= 5.56D-05
 IDIUse=3 WtCom= 9.99D-01 WtEn= 1.30D-03
 Coeff-Com: -0.442D-02 0.100D+01
 Coeff-En:   0.000D+00 0.100D+01
 Coeff:     -0.441D-02 0.100D+01
 Gap=     0.321 Goal=   None    Shift=    0.000
 RMSDP=2.01D-05 MaxDP=7.22D-04 DE=-1.08D-04 OVMax= 2.28D-03

 Cycle   3  Pass 0  IDiag  1:
 E= -526.691538633625     Delta-E=       -0.000011880513 Rises=F Damp=F
 DIIS: error= 1.38D-04 at cycle   3 NSaved=   3.
 NSaved= 3 IEnMin= 3 EnMin= -526.691538633625     IErMin= 2 ErrMin= 1.30D-04
 ErrMax= 1.38D-04  0.00D+00 EMaxC= 1.00D-01 BMatC= 6.24D-06 BMatP= 7.23D-06
 IDIUse=3 WtCom= 9.99D-01 WtEn= 1.38D-03
 Coeff-Com: -0.920D-01 0.534D+00 0.559D+00
 Coeff-En:   0.000D+00 0.000D+00 0.100D+01
 Coeff:     -0.919D-01 0.533D+00 0.559D+00
 Gap=     0.321 Goal=   None    Shift=    0.000
 RMSDP=1.15D-05 MaxDP=4.79D-04 DE=-1.19D-05 OVMax= 1.64D-03

 Cycle   4  Pass 0  IDiag  1:
 E= -526.691544490554     Delta-E=       -0.000005856929 Rises=F Damp=F
 DIIS: error= 5.21D-05 at cycle   4 NSaved=   4.
 NSaved= 4 IEnMin= 4 EnMin= -526.691544490554     IErMin= 4 ErrMin= 5.21D-05
 ErrMax= 5.21D-05  0.00D+00 EMaxC= 1.00D-01 BMatC= 9.21D-07 BMatP= 6.24D-06
 IDIUse=1 WtCom= 1.00D+00 WtEn= 0.00D+00
 Coeff-Com: -0.300D-01-0.146D-01 0.246D+00 0.798D+00
 Coeff:     -0.300D-01-0.146D-01 0.246D+00 0.798D+00
 Gap=     0.321 Goal=   None    Shift=    0.000
 RMSDP=6.08D-06 MaxDP=3.18D-04 DE=-5.86D-06 OVMax= 6.91D-04

 Initial convergence to 1.0D-05 achieved.  Increase integral accuracy.
 Cycle   5  Pass 1  IDiag  1:
 E= -526.691546334420     Delta-E=       -0.000001843866 Rises=F Damp=F
 DIIS: error= 2.67D-05 at cycle   1 NSaved=   1.
 NSaved= 1 IEnMin= 1 EnMin= -526.691546334420     IErMin= 1 ErrMin= 2.67D-05
 ErrMax= 2.67D-05  0.00D+00 EMaxC= 1.00D-01 BMatC= 6.26D-07 BMatP= 6.26D-07
 IDIUse=1 WtCom= 1.00D+00 WtEn= 0.00D+00
 Coeff-Com:  0.100D+01
 Coeff:      0.100D+01
 Gap=     0.321 Goal=   None    Shift=    0.000
 RMSDP=6.08D-06 MaxDP=3.18D-04 DE=-1.84D-06 OVMax= 5.06D-04

 Cycle   6  Pass 1  IDiag  1:
 E= -526.691546638454     Delta-E=       -0.000000304035 Rises=F Damp=F
 DIIS: error= 2.28D-05 at cycle   2 NSaved=   2.
 NSaved= 2 IEnMin= 2 EnMin= -526.691546638454     IErMin= 2 ErrMin= 2.28D-05
 ErrMax= 2.28D-05  0.00D+00 EMaxC= 1.00D-01 BMatC= 5.42D-07 BMatP= 6.26D-07
 IDIUse=1 WtCom= 1.00D+00 WtEn= 0.00D+00
 Coeff-Com:  0.476D+00 0.524D+00
 Coeff:      0.476D+00 0.524D+00
 Gap=     0.321 Goal=   None    Shift=    0.000
 RMSDP=2.06D-06 MaxDP=8.78D-05 DE=-3.04D-07 OVMax= 2.01D-04

 Cycle   7  Pass 1  IDiag  1:
 E= -526.691546959761     Delta-E=       -0.000000321307 Rises=F Damp=F
 DIIS: error= 1.50D-05 at cycle   3 NSaved=   3.
 NSaved= 3 IEnMin= 3 EnMin= -526.691546959761     IErMin= 3 ErrMin= 1.50D-05
 ErrMax= 1.50D-05  0.00D+00 EMaxC= 1.00D-01 BMatC= 6.71D-08 BMatP= 5.42D-07
 IDIUse=1 WtCom= 1.00D+00 WtEn= 0.00D+00
 Coeff-Com: -0.134D-01 0.241D+00 0.772D+00
 Coeff:     -0.134D-01 0.241D+00 0.772D+00
 Gap=     0.321 Goal=   None    Shift=    0.000
 RMSDP=1.49D-06 MaxDP=5.48D-05 DE=-3.21D-07 OVMax= 1.90D-04

 Cycle   8  Pass 1  IDiag  1:
 E= -526.691547018980     Delta-E=       -0.000000059219 Rises=F Damp=F
 DIIS: error= 6.19D-06 at cycle   4 NSaved=   4.
 NSaved= 4 IEnMin= 4 EnMin= -526.691547018980     IErMin= 4 ErrMin= 6.19D-06
 ErrMax= 6.19D-06  0.00D+00 EMaxC= 1.00D-01 BMatC= 1.84D-08 BMatP= 6.71D-08
 IDIUse=1 WtCom= 1.00D+00 WtEn= 0.00D+00
 Coeff-Com: -0.488D-01 0.993D-01 0.473D+00 0.477D+00
 Coeff:     -0.488D-01 0.993D-01 0.473D+00 0.477D+00
 Gap=     0.321 Goal=   None    Shift=    0.000
 RMSDP=3.46D-07 MaxDP=1.24D-05 DE=-5.92D-08 OVMax= 4.59D-05

 Cycle   9  Pass 1  IDiag  1:
 E= -526.691547034097     Delta-E=       -0.000000015116 Rises=F Damp=F
 DIIS: error= 1.16D-06 at cycle   5 NSaved=   5.
 NSaved= 5 IEnMin= 5 EnMin= -526.691547034097     IErMin= 5 ErrMin= 1.16D-06
 ErrMax= 1.16D-06  0.00D+00 EMaxC= 1.00D-01 BMatC= 7.17D-10 BMatP= 1.84D-08
 IDIUse=1 WtCom= 1.00D+00 WtEn= 0.00D+00
 Coeff-Com:  0.581D-02-0.724D-01-0.217D+00-0.141D+00 0.142D+01
 Coeff:      0.581D-02-0.724D-01-0.217D+00-0.141D+00 0.142D+01
 Gap=     0.321 Goal=   None    Shift=    0.000
 RMSDP=5.27D-07 MaxDP=2.45D-05 DE=-1.51D-08 OVMax= 6.90D-05

 Cycle  10  Pass 1  IDiag  1:
 E= -526.691547038113     Delta-E=       -0.000000004016 Rises=F Damp=F
 DIIS: error= 5.18D-07 at cycle   6 NSaved=   6.
 NSaved= 6 IEnMin= 6 EnMin= -526.691547038113     IErMin= 6 ErrMin= 5.18D-07
 ErrMax= 5.18D-07  0.00D+00 EMaxC= 1.00D-01 BMatC= 1.23D-10 BMatP= 7.17D-10
 IDIUse=1 WtCom= 1.00D+00 WtEn= 0.00D+00
 Coeff-Com:  0.588D-02-0.353D-01-0.113D+00-0.970D-01 0.503D+00 0.737D+00
 Coeff:      0.588D-02-0.353D-01-0.113D+00-0.970D-01 0.503D+00 0.737D+00
 Gap=     0.321 Goal=   None    Shift=    0.000
 RMSDP=9.57D-08 MaxDP=5.05D-06 DE=-4.02D-09 OVMax= 1.27D-05

 Cycle  11  Pass 1  IDiag  1:
 E= -526.691547038305     Delta-E=       -0.000000000192 Rises=F Damp=F
 DIIS: error= 1.48D-07 at cycle   7 NSaved=   7.
 NSaved= 7 IEnMin= 7 EnMin= -526.691547038305     IErMin= 7 ErrMin= 1.48D-07
 ErrMax= 1.48D-07  0.00D+00 EMaxC= 1.00D-01 BMatC= 1.31D-11 BMatP= 1.23D-10
 IDIUse=1 WtCom= 1.00D+00 WtEn= 0.00D+00
 Coeff-Com:  0.114D-02-0.266D-02-0.832D-02-0.143D-01-0.152D-01 0.226D+00
 Coeff-Com:  0.813D+00
 Coeff:      0.114D-02-0.266D-02-0.832D-02-0.143D-01-0.152D-01 0.226D+00
 Coeff:      0.813D+00
 Gap=     0.321 Goal=   None    Shift=    0.000
 RMSDP=2.63D-08 MaxDP=1.44D-06 DE=-1.92D-10 OVMax= 2.97D-06

 Cycle  12  Pass 1  IDiag  1:
 E= -526.691547038326     Delta-E=       -0.000000000021 Rises=F Damp=F
 DIIS: error= 6.65D-08 at cycle   8 NSaved=   8.
 NSaved= 8 IEnMin= 8 EnMin= -526.691547038326     IErMin= 8 ErrMin= 6.65D-08
 ErrMax= 6.65D-08  0.00D+00 EMaxC= 1.00D-01 BMatC= 2.42D-12 BMatP= 1.31D-11
 IDIUse=1 WtCom= 1.00D+00 WtEn= 0.00D+00
 Coeff-Com: -0.175D-03 0.300D-02 0.970D-02 0.478D-02-0.667D-01 0.158D-01
 Coeff-Com:  0.374D+00 0.659D+00
 Coeff:     -0.175D-03 0.300D-02 0.970D-02 0.478D-02-0.667D-01 0.158D-01
 Coeff:      0.374D+00 0.659D+00
 Gap=     0.321 Goal=   None    Shift=    0.000
 RMSDP=7.51D-09 MaxDP=2.03D-07 DE=-2.14D-11 OVMax= 6.90D-07

 SCF Done:  E(RM062X) =  -526.691547038     A.U. after   12 cycles
            NFock= 12  Conv=0.75D-08     -V/T= 2.0037
 KE= 5.247718801436D+02 PE=-1.920433604578D+03 EE= 5.326291622639D+02
 Leave Link  502 at Sun May 25 03:53:15 2025, MaxMem=  3758096384 cpu:              44.2 elap:               8.5
 (Enter /apps/easybuild-2022/easybuild/software/Compiler/NVHPC/22.11-CUDA-11.7.0/Gaussian/g16c01-CUDA-11.7.0/g16/l508.exe)
 QCSCF skips out because SCF is already converged.
 Leave Link  508 at Sun May 25 03:53:15 2025, MaxMem=  3758096384 cpu:               0.0 elap:               0.0
 (Enter /apps/easybuild-2022/easybuild/software/Compiler/NVHPC/22.11-CUDA-11.7.0/Gaussian/g16c01-CUDA-11.7.0/g16/l801.exe)
 DoSCS=F DFT=T ScalE2(SS,OS)=  1.000000  1.000000
 Range of M.O.s used for correlation:     1   231
 NBasis=   231 NAE=    28 NBE=    28 NFC=     0 NFV=     0
 NROrb=    231 NOA=    28 NOB=    28 NVA=   203 NVB=   203

 **** Warning!!: The largest alpha MO coefficient is  0.10030093D+02

 Leave Link  801 at Sun May 25 03:53:15 2025, MaxMem=  3758096384 cpu:               0.0 elap:               0.0
 (Enter /apps/easybuild-2022/easybuild/software/Compiler/NVHPC/22.11-CUDA-11.7.0/Gaussian/g16c01-CUDA-11.7.0/g16/l1101.exe)
 Leave Link 1101 at Sun May 25 03:53:16 2025, MaxMem=  3758096384 cpu:               0.1 elap:               0.0
 (Enter /apps/easybuild-2022/easybuild/software/Compiler/NVHPC/22.11-CUDA-11.7.0/Gaussian/g16c01-CUDA-11.7.0/g16/l1102.exe)
 Symmetrizing basis deriv contribution to polar:
 IMax=3 JMax=2 DiffMx= 0.00D+00
 Leave Link 1102 at Sun May 25 03:53:16 2025, MaxMem=  3758096384 cpu:               0.1 elap:               0.0
 (Enter /apps/easybuild-2022/easybuild/software/Compiler/NVHPC/22.11-CUDA-11.7.0/Gaussian/g16c01-CUDA-11.7.0/g16/l1110.exe)
 Leave Link 1110 at Sun May 25 03:53:16 2025, MaxMem=  3758096384 cpu:               0.0 elap:               0.0
 (Enter /apps/easybuild-2022/easybuild/software/Compiler/NVHPC/22.11-CUDA-11.7.0/Gaussian/g16c01-CUDA-11.7.0/g16/l1002.exe)
 Minotr:  Closed shell wavefunction.
 Leave Link 1002 at Sun May 25 03:53:16 2025, MaxMem=  3758096384 cpu:               0.0 elap:               0.0
 (Enter /apps/easybuild-2022/easybuild/software/Compiler/NVHPC/22.11-CUDA-11.7.0/Gaussian/g16c01-CUDA-11.7.0/g16/l701.exe)
 ... and contract with generalized density number  0.
 Compute integral first derivatives.
   1 Symmetry operations used in ECPInt.
 ECPInt:  NShTT=    3486 NPrTT=   11183 LenC2=    3377 LenP2D=    8571.
 LDataN:  DoStor=T MaxTD1= 7 Len=  274
 Leave Link  701 at Sun May 25 03:53:16 2025, MaxMem=  3758096384 cpu:               0.5 elap:               0.1
 (Enter /apps/easybuild-2022/easybuild/software/Compiler/NVHPC/22.11-CUDA-11.7.0/Gaussian/g16c01-CUDA-11.7.0/g16/l702.exe)
 L702 exits ... SP integral derivatives will be done elsewhere.
 Leave Link  702 at Sun May 25 03:53:16 2025, MaxMem=  3758096384 cpu:               0.0 elap:               0.0
 (Enter /apps/easybuild-2022/easybuild/software/Compiler/NVHPC/22.11-CUDA-11.7.0/Gaussian/g16c01-CUDA-11.7.0/g16/l703.exe)
 Integral derivatives from FoFJK, PRISM(SPDF).
 Compute integral first derivatives, UseDBF=F ICtDFT=           0.
 Calling FoFJK, ICntrl=      2127 FMM=F ISym2X=0 I1Cent= 0 IOpClX= 0 NMat=1 NMatS=1 NMatT=0.
 FoFJK:  IHMeth= 1 ICntrl=    2127 DoSepK=F KAlg= 0 I1Cent=           0 FoldK=F
 IRaf=         0 NMat=       1 IRICut=       1 DoRegI=T DoRafI=F ISym2E= 0 IDoP0=0 IntGTp=1.
 FoFCou: FMM=F IPFlag=           0 FMFlag=      100000 FMFlg1=         800
         NFxFlg=           0 DoJE=F BraDBF=F KetDBF=F FulRan=T
         wScrn=  0.000000 ICntrl=      2127 IOpCl=  0 I1Cent=           0 NGrid=           0
         NMat0=    1 NMatS0=      1 NMatT0=    0 NMatD0=    1 NMtDS0=    0 NMtDT0=    0
 Symmetry not used in FoFCou.
 Leave Link  703 at Sun May 25 03:53:19 2025, MaxMem=  3758096384 cpu:              25.3 elap:               3.2
 (Enter /apps/easybuild-2022/easybuild/software/Compiler/NVHPC/22.11-CUDA-11.7.0/Gaussian/g16c01-CUDA-11.7.0/g16/l716.exe)
 Dipole        = 7.42212635D-01 1.57710513D-01-1.71831314D-01
 Polarizability= 0.00000000D+00 0.00000000D+00 0.00000000D+00
                 0.00000000D+00 0.00000000D+00 0.00000000D+00
 -------------------------------------------------------------------
 Center     Atomic                   Forces (Hartrees/Bohr)
 Number     Number              X              Y              Z
 -------------------------------------------------------------------
      1        6           0.002106380    0.001324514    0.005152237
      2        8          -0.006719725    0.002471088    0.003328171
      3        6           0.000357862   -0.001997285   -0.003287924
      4        9           0.002771419   -0.001021138   -0.001372338
      5        9          -0.001887181   -0.001050353   -0.001865644
      6        9           0.000122631   -0.000071266   -0.000398620
      7        8           0.003139702    0.000190770   -0.001373388
      8        1           0.000108912    0.000153669   -0.000182493
 -------------------------------------------------------------------
 Cartesian Forces:  Max     0.006719725 RMS     0.002421968
 Leave Link  716 at Sun May 25 03:53:19 2025, MaxMem=  3758096384 cpu:               0.1 elap:               0.0
 (Enter /apps/easybuild-2022/easybuild/software/Compiler/NVHPC/22.11-CUDA-11.7.0/Gaussian/g16c01-CUDA-11.7.0/g16/l123.exe)
 IRC-IRC-IRC-IRC-IRC-IRC-IRC-IRC-IRC-IRC-IRC-IRC-IRC-IRC-IRC-IRC-IRC-IRC
 Pt  2 Step number   1 out of a maximum of  20
 Using modified Bulirsch-Stoer corrector integration.
   Using distance weighted interpolants to fit PES.
 PreDWI: IReCr0= 2 IReCr1= 1 IReCr2= 1 IReCr3= 1
 Modified Bulirsch-Stoer Extrapolation Cycles:
    EPS =    0.000010000000000
    Cycle     1 NS=    48
      PEZero:  N= 2 I= 1 D=  3.75D-04 Err=  1.34D-06
    Cycle     2 NS=    64 Truncation Error =  0.000001344
 BS completed in    2 cycles and     112 integration steps.
 Maximum DWI energy   std dev =  0.000000052 at pt    36
 Maximum DWI gradient std dev =  0.005051637 at pt    27
 SUMMARY OF CORRECTOR INTEGRATION:
   Predictor End Point Energy =  -526.691547
   Old End Point Energy       =  -526.691547
   Corrected End Point Energy =  -526.691547
   Predictor End-Start Dist.  =     0.071938
   Old End-Start Dist.        =     0.071938
   New End-Start Dist.        =     0.071938
   New End-Old End Dist.      =     0.000262
 CORRECTOR INTEGRATION CONVERGENCE:
   Recorrection delta-x convergence threshold:    0.010000
   Delta-x Convergence Met
 Point Number:   2          Path Number:   1
                    CURRENT STRUCTURE
                Cartesian Coordinates (Ang):                
 ---------------------------------------------------------------------
 Center     Atomic                     Coordinates (Angstroms)
 Number     Number                        X           Y           Z
 ---------------------------------------------------------------------
      1          6                    1.068661    0.367344    0.456718
      2          8                    1.030718   -0.254552   -0.656268
      3          6                   -0.569920   -0.184495   -0.093095
      4          9                   -1.303013    0.805162    0.432098
      5          9                   -1.097745   -0.326752   -1.308914
      6          9                   -0.739942   -1.292039    0.578247
      7          8                    2.149536    1.025645    0.737682
      8          1                    2.793636    0.922685    0.006584
 ---------------------------------------------------------------------
   CHANGE IN THE REACTION COORDINATE =    0.07194
   NET REACTION COORDINATE UP TO THIS POINT =    0.14390
  # OF POINTS ALONG THE PATH =   2
  # OF STEPS =   1

 Calculating another point on the path.
 Point Number  3 in FORWARD path direction.
 Using LQA Reaction Path Following.
   LQA: T_Est iteration completed in    3 iterations.
 IRC-IRC-IRC-IRC-IRC-IRC-IRC-IRC-IRC-IRC-IRC-IRC-IRC-IRC-IRC-IRC-IRC-IRC
 Leave Link  123 at Sun May 25 03:53:19 2025, MaxMem=  3758096384 cpu:               0.1 elap:               0.0
 (Enter /apps/easybuild-2022/easybuild/software/Compiler/NVHPC/22.11-CUDA-11.7.0/Gaussian/g16c01-CUDA-11.7.0/g16/l202.exe)
                          Input orientation:                          
 ---------------------------------------------------------------------
 Center     Atomic      Atomic             Coordinates (Angstroms)
 Number     Number       Type             X           Y           Z
 ---------------------------------------------------------------------
      1          6           0        1.070798    0.368720    0.462026
      2          8           0        1.025583   -0.252679   -0.653763
      3          6           0       -0.569550   -0.186538   -0.096433
      4          9           0       -1.301230    0.804506    0.431218
      5          9           0       -1.098962   -0.327425   -1.310117
      6          9           0       -0.739863   -1.292084    0.577986
      7          8           0        2.151935    1.025785    0.736627
      8          1           0        2.795068    0.924586    0.004322
 ---------------------------------------------------------------------
                    Distance matrix (angstroms):
                    1          2          3          4          5
     1  C    0.000000
     2  O    1.277953   0.000000
     3  C    1.819596   1.690988   0.000000
     4  F    2.411923   2.776487   1.340126   0.000000
     5  F    2.886688   2.224878   1.331599   2.086727   0.000000
     6  F    2.459717   2.390474   1.306170   2.175399   2.150454
     7  O    1.294603   2.199164   3.093573   3.473699   4.072919
     8  H    1.868579   2.224883   3.544771   4.120232   4.296365
                    6          7          8
     6  F    0.000000
     7  O    3.709472   0.000000
     8  H    4.211704   0.979863   0.000000
 Symmetry turned off by external request.
 Stoichiometry    C2HF3O2
 Rotational constants (GHZ):           4.8548913           2.0165103           1.9134079
 Leave Link  202 at Sun May 25 03:53:19 2025, MaxMem=  3758096384 cpu:               0.1 elap:               0.0
 (Enter /apps/easybuild-2022/easybuild/software/Compiler/NVHPC/22.11-CUDA-11.7.0/Gaussian/g16c01-CUDA-11.7.0/g16/l301.exe)
 Standard basis: def2TZVPP (5D, 7F)
 Ernie: Thresh=  0.10000D-02 Tol=  0.10000D-05 Strict=F.
   231 basis functions,   374 primitive gaussians,   267 cartesian basis functions
    28 alpha electrons       28 beta electrons
       nuclear repulsion energy       336.3923427149 Hartrees.
 IExCor= 4336 DFT=T Ex+Corr=M062X ExCW=0 ScaHFX=  0.540000
 ScaDFX=  1.000000  1.000000  1.000000  1.000000 ScalE2=  1.000000  1.000000
 IRadAn=      5 IRanWt=     -1 IRanGd=            0 ICorTp=0 IEmpDi=  4
 NAtoms=    8 NActive=    8 NUniq=    8 SFac= 1.00D+00 NAtFMM=   60 NAOKFM=F Big=F
 Integral buffers will be    131072 words long.
 Raffenetti 2 integral format.
 Two-electron integral symmetry is turned off.
 Leave Link  301 at Sun May 25 03:53:19 2025, MaxMem=  3758096384 cpu:               0.1 elap:               0.0
 (Enter /apps/easybuild-2022/easybuild/software/Compiler/NVHPC/22.11-CUDA-11.7.0/Gaussian/g16c01-CUDA-11.7.0/g16/l302.exe)
 NPDir=0 NMtPBC=     1 NCelOv=     1 NCel=       1 NClECP=     1 NCelD=      1
         NCelK=      1 NCelE2=     1 NClLst=     1 CellRange=     0.0.
 One-electron integrals computed using PRISM.
   1 Symmetry operations used in ECPInt.
 ECPInt:  NShTT=    3486 NPrTT=   11183 LenC2=    3377 LenP2D=    8572.
 LDataN:  DoStor=T MaxTD1= 6 Len=  172
 NBasis=   231 RedAO= T EigKep=  9.03D-04  NBF=   231
 NBsUse=   231 1.00D-06 EigRej= -1.00D+00 NBFU=   231
 Precomputing XC quadrature grid using
 IXCGrd= 4 IRadAn=           5 IRanWt=          -1 IRanGd=           0 AccXCQ= 0.00D+00.
 Generated NRdTot=       0 NPtTot=           0 NUsed=           0 NTot=          32
 NSgBfM=   265   265   265   265   265 MxSgAt=     8 MxSgA2=     8.
 Leave Link  302 at Sun May 25 03:53:19 2025, MaxMem=  3758096384 cpu:               0.6 elap:               0.1
 (Enter /apps/easybuild-2022/easybuild/software/Compiler/NVHPC/22.11-CUDA-11.7.0/Gaussian/g16c01-CUDA-11.7.0/g16/l303.exe)
 DipDrv:  MaxL=1.
 Leave Link  303 at Sun May 25 03:53:19 2025, MaxMem=  3758096384 cpu:               0.1 elap:               0.0
 (Enter /apps/easybuild-2022/easybuild/software/Compiler/NVHPC/22.11-CUDA-11.7.0/Gaussian/g16c01-CUDA-11.7.0/g16/l401.exe)
 Initial guess from the checkpoint file:  "1141903082400600000001_r12_insertion_R_2_1_3_IRC_F.chk"
 B after Tr=     0.000013    0.000053    0.000004
         Rot=    1.000000    0.000005   -0.000011   -0.000009 Ang=   0.00 deg.
 Guess basis will be translated and rotated to current coordinates.
 JPrj=2 DoOrth=T DoCkMO=T.
 Generating alternative initial guess.
 ExpMin= 9.52D-02 ExpMax= 3.55D+04 ExpMxC= 1.21D+03 IAcc=3 IRadAn=         5 AccDes= 0.00D+00
 Harris functional with IExCor= 1009 and IRadAn=       5 diagonalized for initial guess.
 HarFok:  IExCor= 1009 AccDes= 0.00D+00 IRadAn=         5 IDoV= 1 UseB2=F ITyADJ=14
 ICtDFT=  3500011 ScaDFX=  1.000000  1.000000  1.000000  1.000000
 FoFCou: FMM=F IPFlag=           0 FMFlag=      100000 FMFlg1=           0
         NFxFlg=           0 DoJE=T BraDBF=F KetDBF=T FulRan=T
         wScrn=  0.000000 ICntrl=       500 IOpCl=  0 I1Cent=   200000004 NGrid=           0
         NMat0=    1 NMatS0=      1 NMatT0=    0 NMatD0=    1 NMtDS0=    0 NMtDT0=    0
 Symmetry not used in FoFCou.
 Harris En= -526.395613435871    
 Leave Link  401 at Sun May 25 03:53:20 2025, MaxMem=  3758096384 cpu:               2.2 elap:               0.3
 (Enter /apps/easybuild-2022/easybuild/software/Compiler/NVHPC/22.11-CUDA-11.7.0/Gaussian/g16c01-CUDA-11.7.0/g16/l502.exe)
 Keep R1 ints in memory in canonical form, NReq=368651279.
 FoFCou: FMM=F IPFlag=           0 FMFlag=           0 FMFlg1=           0
         NFxFlg=           0 DoJE=F BraDBF=F KetDBF=F FulRan=T
         wScrn=  0.000000 ICntrl=       600 IOpCl=  0 I1Cent=           0 NGrid=           0
         NMat0=    1 NMatS0=  26796 NMatT0=    0 NMatD0=    1 NMtDS0=    0 NMtDT0=    0
 Symmetry not used in FoFCou.
 Two-electron integral symmetry not used.
 Closed shell SCF:
 Using DIIS extrapolation, IDIIS=  1040.
 NGot=  3758096384 LenX=  3398923531 LenY=  3398851801
 Requested convergence on RMS density matrix=1.00D-08 within  32 cycles.
 Requested convergence on MAX density matrix=1.00D-06.
 Requested convergence on             energy=1.00D-06.
 No special actions if energy rises.
 Integral accuracy reduced to 1.0D-05 until final iterations.

 Cycle   1  Pass 0  IDiag  1:
 E= -526.691700813370    
 DIIS: error= 2.80D-04 at cycle   1 NSaved=   1.
 NSaved= 1 IEnMin= 1 EnMin= -526.691700813370     IErMin= 1 ErrMin= 2.80D-04
 ErrMax= 2.80D-04  0.00D+00 EMaxC= 1.00D-01 BMatC= 5.52D-05 BMatP= 5.52D-05
 IDIUse=3 WtCom= 9.97D-01 WtEn= 2.80D-03
 Coeff-Com:  0.100D+01
 Coeff-En:   0.100D+01
 Coeff:      0.100D+01
 Gap=     1.201 Goal=   None    Shift=    0.000
 RMSDP=5.06D-05 MaxDP=1.51D-03              OVMax= 7.19D-03

 Cycle   2  Pass 0  IDiag  1:
 E= -526.691808017155     Delta-E=       -0.000107203785 Rises=F Damp=F
 DIIS: error= 1.29D-04 at cycle   2 NSaved=   2.
 NSaved= 2 IEnMin= 2 EnMin= -526.691808017155     IErMin= 2 ErrMin= 1.29D-04
 ErrMax= 1.29D-04  0.00D+00 EMaxC= 1.00D-01 BMatC= 7.01D-06 BMatP= 5.52D-05
 IDIUse=3 WtCom= 9.99D-01 WtEn= 1.29D-03
 Coeff-Com: -0.810D-02 0.101D+01
 Coeff-En:   0.000D+00 0.100D+01
 Coeff:     -0.809D-02 0.101D+01
 Gap=     0.322 Goal=   None    Shift=    0.000
 RMSDP=2.02D-05 MaxDP=7.29D-04 DE=-1.07D-04 OVMax= 2.31D-03

 Cycle   3  Pass 0  IDiag  1:
 E= -526.691819889691     Delta-E=       -0.000011872535 Rises=F Damp=F
 DIIS: error= 1.31D-04 at cycle   3 NSaved=   3.
 NSaved= 3 IEnMin= 3 EnMin= -526.691819889691     IErMin= 2 ErrMin= 1.29D-04
 ErrMax= 1.31D-04  0.00D+00 EMaxC= 1.00D-01 BMatC= 5.94D-06 BMatP= 7.01D-06
 IDIUse=3 WtCom= 9.99D-01 WtEn= 1.31D-03
 Coeff-Com: -0.921D-01 0.530D+00 0.562D+00
 Coeff-En:   0.000D+00 0.000D+00 0.100D+01
 Coeff:     -0.920D-01 0.530D+00 0.562D+00
 Gap=     0.322 Goal=   None    Shift=    0.000
 RMSDP=1.12D-05 MaxDP=4.71D-04 DE=-1.19D-05 OVMax= 1.59D-03

 Cycle   4  Pass 0  IDiag  1:
 E= -526.691825481824     Delta-E=       -0.000005592133 Rises=F Damp=F
 DIIS: error= 5.11D-05 at cycle   4 NSaved=   4.
 NSaved= 4 IEnMin= 4 EnMin= -526.691825481824     IErMin= 4 ErrMin= 5.11D-05
 ErrMax= 5.11D-05  0.00D+00 EMaxC= 1.00D-01 BMatC= 8.68D-07 BMatP= 5.94D-06
 IDIUse=1 WtCom= 1.00D+00 WtEn= 0.00D+00
 Coeff-Com: -0.288D-01-0.198D-01 0.243D+00 0.806D+00
 Coeff:     -0.288D-01-0.198D-01 0.243D+00 0.806D+00
 Gap=     0.322 Goal=   None    Shift=    0.000
 RMSDP=6.05D-06 MaxDP=3.16D-04 DE=-5.59D-06 OVMax= 6.93D-04

 Initial convergence to 1.0D-05 achieved.  Increase integral accuracy.
 Cycle   5  Pass 1  IDiag  1:
 E= -526.691825084510     Delta-E=        0.000000397314 Rises=F Damp=F
 DIIS: error= 2.62D-05 at cycle   1 NSaved=   1.
 NSaved= 1 IEnMin= 1 EnMin= -526.691825084510     IErMin= 1 ErrMin= 2.62D-05
 ErrMax= 2.62D-05  0.00D+00 EMaxC= 1.00D-01 BMatC= 6.13D-07 BMatP= 6.13D-07
 IDIUse=1 WtCom= 1.00D+00 WtEn= 0.00D+00
 Coeff-Com:  0.100D+01
 Coeff:      0.100D+01
 Gap=     0.322 Goal=   None    Shift=    0.000
 RMSDP=6.05D-06 MaxDP=3.16D-04 DE= 3.97D-07 OVMax= 4.95D-04

 Cycle   6  Pass 1  IDiag  1:
 E= -526.691825373393     Delta-E=       -0.000000288883 Rises=F Damp=F
 DIIS: error= 2.32D-05 at cycle   2 NSaved=   2.
 NSaved= 2 IEnMin= 2 EnMin= -526.691825373393     IErMin= 2 ErrMin= 2.32D-05
 ErrMax= 2.32D-05  0.00D+00 EMaxC= 1.00D-01 BMatC= 5.35D-07 BMatP= 6.13D-07
 IDIUse=1 WtCom= 1.00D+00 WtEn= 0.00D+00
 Coeff-Com:  0.477D+00 0.523D+00
 Coeff:      0.477D+00 0.523D+00
 Gap=     0.322 Goal=   None    Shift=    0.000
 RMSDP=2.04D-06 MaxDP=8.80D-05 DE=-2.89D-07 OVMax= 2.01D-04

 Cycle   7  Pass 1  IDiag  1:
 E= -526.691825690133     Delta-E=       -0.000000316739 Rises=F Damp=F
 DIIS: error= 1.48D-05 at cycle   3 NSaved=   3.
 NSaved= 3 IEnMin= 3 EnMin= -526.691825690133     IErMin= 3 ErrMin= 1.48D-05
 ErrMax= 1.48D-05  0.00D+00 EMaxC= 1.00D-01 BMatC= 6.62D-08 BMatP= 5.35D-07
 IDIUse=1 WtCom= 1.00D+00 WtEn= 0.00D+00
 Coeff-Com: -0.145D-01 0.241D+00 0.773D+00
 Coeff:     -0.145D-01 0.241D+00 0.773D+00
 Gap=     0.322 Goal=   None    Shift=    0.000
 RMSDP=1.46D-06 MaxDP=5.32D-05 DE=-3.17D-07 OVMax= 1.84D-04

 Cycle   8  Pass 1  IDiag  1:
 E= -526.691825748020     Delta-E=       -0.000000057888 Rises=F Damp=F
 DIIS: error= 5.93D-06 at cycle   4 NSaved=   4.
 NSaved= 4 IEnMin= 4 EnMin= -526.691825748020     IErMin= 4 ErrMin= 5.93D-06
 ErrMax= 5.93D-06  0.00D+00 EMaxC= 1.00D-01 BMatC= 1.70D-08 BMatP= 6.62D-08
 IDIUse=1 WtCom= 1.00D+00 WtEn= 0.00D+00
 Coeff-Com: -0.476D-01 0.100D+00 0.469D+00 0.479D+00
 Coeff:     -0.476D-01 0.100D+00 0.469D+00 0.479D+00
 Gap=     0.322 Goal=   None    Shift=    0.000
 RMSDP=3.33D-07 MaxDP=1.17D-05 DE=-5.79D-08 OVMax= 4.32D-05

 Cycle   9  Pass 1  IDiag  1:
 E= -526.691825761934     Delta-E=       -0.000000013913 Rises=F Damp=F
 DIIS: error= 1.10D-06 at cycle   5 NSaved=   5.
 NSaved= 5 IEnMin= 5 EnMin= -526.691825761934     IErMin= 5 ErrMin= 1.10D-06
 ErrMax= 1.10D-06  0.00D+00 EMaxC= 1.00D-01 BMatC= 6.70D-10 BMatP= 1.70D-08
 IDIUse=1 WtCom= 1.00D+00 WtEn= 0.00D+00
 Coeff-Com:  0.549D-02-0.708D-01-0.209D+00-0.136D+00 0.141D+01
 Coeff:      0.549D-02-0.708D-01-0.209D+00-0.136D+00 0.141D+01
 Gap=     0.322 Goal=   None    Shift=    0.000
 RMSDP=5.03D-07 MaxDP=2.32D-05 DE=-1.39D-08 OVMax= 6.55D-05

 Cycle  10  Pass 1  IDiag  1:
 E= -526.691825765631     Delta-E=       -0.000000003697 Rises=F Damp=F
 DIIS: error= 4.91D-07 at cycle   6 NSaved=   6.
 NSaved= 6 IEnMin= 6 EnMin= -526.691825765631     IErMin= 6 ErrMin= 4.91D-07
 ErrMax= 4.91D-07  0.00D+00 EMaxC= 1.00D-01 BMatC= 1.13D-10 BMatP= 6.70D-10
 IDIUse=1 WtCom= 1.00D+00 WtEn= 0.00D+00
 Coeff-Com:  0.574D-02-0.344D-01-0.110D+00-0.954D-01 0.486D+00 0.748D+00
 Coeff:      0.574D-02-0.344D-01-0.110D+00-0.954D-01 0.486D+00 0.748D+00
 Gap=     0.322 Goal=   None    Shift=    0.000
 RMSDP=9.57D-08 MaxDP=5.11D-06 DE=-3.70D-09 OVMax= 1.27D-05

 Cycle  11  Pass 1  IDiag  1:
 E= -526.691825765821     Delta-E=       -0.000000000190 Rises=F Damp=F
 DIIS: error= 1.46D-07 at cycle   7 NSaved=   7.
 NSaved= 7 IEnMin= 7 EnMin= -526.691825765821     IErMin= 7 ErrMin= 1.46D-07
 ErrMax= 1.46D-07  0.00D+00 EMaxC= 1.00D-01 BMatC= 1.23D-11 BMatP= 1.13D-10
 IDIUse=1 WtCom= 1.00D+00 WtEn= 0.00D+00
 Coeff-Com:  0.109D-02-0.236D-02-0.753D-02-0.137D-01-0.214D-01 0.227D+00
 Coeff-Com:  0.817D+00
 Coeff:      0.109D-02-0.236D-02-0.753D-02-0.137D-01-0.214D-01 0.227D+00
 Coeff:      0.817D+00
 Gap=     0.322 Goal=   None    Shift=    0.000
 RMSDP=2.59D-08 MaxDP=1.43D-06 DE=-1.90D-10 OVMax= 2.95D-06

 Cycle  12  Pass 1  IDiag  1:
 E= -526.691825765818     Delta-E=        0.000000000003 Rises=F Damp=F
 DIIS: error= 6.69D-08 at cycle   8 NSaved=   8.
 NSaved= 8 IEnMin= 7 EnMin= -526.691825765821     IErMin= 8 ErrMin= 6.69D-08
 ErrMax= 6.69D-08  0.00D+00 EMaxC= 1.00D-01 BMatC= 2.31D-12 BMatP= 1.23D-11
 IDIUse=1 WtCom= 1.00D+00 WtEn= 0.00D+00
 Coeff-Com: -0.175D-03 0.300D-02 0.956D-02 0.471D-02-0.671D-01 0.161D-01
 Coeff-Com:  0.378D+00 0.656D+00
 Coeff:     -0.175D-03 0.300D-02 0.956D-02 0.471D-02-0.671D-01 0.161D-01
 Coeff:      0.378D+00 0.656D+00
 Gap=     0.322 Goal=   None    Shift=    0.000
 RMSDP=7.32D-09 MaxDP=2.02D-07 DE= 2.96D-12 OVMax= 6.83D-07

 SCF Done:  E(RM062X) =  -526.691825766     A.U. after   12 cycles
            NFock= 12  Conv=0.73D-08     -V/T= 2.0037
 KE= 5.247741998887D+02 PE=-1.920529221770D+03 EE= 5.326708534001D+02
 Leave Link  502 at Sun May 25 03:53:29 2025, MaxMem=  3758096384 cpu:              45.5 elap:               9.0
 (Enter /apps/easybuild-2022/easybuild/software/Compiler/NVHPC/22.11-CUDA-11.7.0/Gaussian/g16c01-CUDA-11.7.0/g16/l508.exe)
 QCSCF skips out because SCF is already converged.
 Leave Link  508 at Sun May 25 03:53:29 2025, MaxMem=  3758096384 cpu:               0.1 elap:               0.0
 (Enter /apps/easybuild-2022/easybuild/software/Compiler/NVHPC/22.11-CUDA-11.7.0/Gaussian/g16c01-CUDA-11.7.0/g16/l801.exe)
 DoSCS=F DFT=T ScalE2(SS,OS)=  1.000000  1.000000
 Range of M.O.s used for correlation:     1   231
 NBasis=   231 NAE=    28 NBE=    28 NFC=     0 NFV=     0
 NROrb=    231 NOA=    28 NOB=    28 NVA=   203 NVB=   203

 **** Warning!!: The largest alpha MO coefficient is  0.10066096D+02

 Leave Link  801 at Sun May 25 03:53:29 2025, MaxMem=  3758096384 cpu:               0.0 elap:               0.0
 (Enter /apps/easybuild-2022/easybuild/software/Compiler/NVHPC/22.11-CUDA-11.7.0/Gaussian/g16c01-CUDA-11.7.0/g16/l1101.exe)
 Leave Link 1101 at Sun May 25 03:53:29 2025, MaxMem=  3758096384 cpu:               0.1 elap:               0.0
 (Enter /apps/easybuild-2022/easybuild/software/Compiler/NVHPC/22.11-CUDA-11.7.0/Gaussian/g16c01-CUDA-11.7.0/g16/l1102.exe)
 Symmetrizing basis deriv contribution to polar:
 IMax=3 JMax=2 DiffMx= 0.00D+00
 Leave Link 1102 at Sun May 25 03:53:29 2025, MaxMem=  3758096384 cpu:               0.1 elap:               0.0
 (Enter /apps/easybuild-2022/easybuild/software/Compiler/NVHPC/22.11-CUDA-11.7.0/Gaussian/g16c01-CUDA-11.7.0/g16/l1110.exe)
 Leave Link 1110 at Sun May 25 03:53:29 2025, MaxMem=  3758096384 cpu:               0.1 elap:               0.0
 (Enter /apps/easybuild-2022/easybuild/software/Compiler/NVHPC/22.11-CUDA-11.7.0/Gaussian/g16c01-CUDA-11.7.0/g16/l1002.exe)
 Minotr:  Closed shell wavefunction.
 Leave Link 1002 at Sun May 25 03:53:29 2025, MaxMem=  3758096384 cpu:               0.0 elap:               0.0
 (Enter /apps/easybuild-2022/easybuild/software/Compiler/NVHPC/22.11-CUDA-11.7.0/Gaussian/g16c01-CUDA-11.7.0/g16/l701.exe)
 ... and contract with generalized density number  0.
 Compute integral first derivatives.
   1 Symmetry operations used in ECPInt.
 ECPInt:  NShTT=    3486 NPrTT=   11183 LenC2=    3377 LenP2D=    8572.
 LDataN:  DoStor=T MaxTD1= 7 Len=  274
 Leave Link  701 at Sun May 25 03:53:29 2025, MaxMem=  3758096384 cpu:               0.5 elap:               0.1
 (Enter /apps/easybuild-2022/easybuild/software/Compiler/NVHPC/22.11-CUDA-11.7.0/Gaussian/g16c01-CUDA-11.7.0/g16/l702.exe)
 L702 exits ... SP integral derivatives will be done elsewhere.
 Leave Link  702 at Sun May 25 03:53:29 2025, MaxMem=  3758096384 cpu:               0.0 elap:               0.0
 (Enter /apps/easybuild-2022/easybuild/software/Compiler/NVHPC/22.11-CUDA-11.7.0/Gaussian/g16c01-CUDA-11.7.0/g16/l703.exe)
 Integral derivatives from FoFJK, PRISM(SPDF).
 Compute integral first derivatives, UseDBF=F ICtDFT=           0.
 Calling FoFJK, ICntrl=      2127 FMM=F ISym2X=0 I1Cent= 0 IOpClX= 0 NMat=1 NMatS=1 NMatT=0.
 FoFJK:  IHMeth= 1 ICntrl=    2127 DoSepK=F KAlg= 0 I1Cent=           0 FoldK=F
 IRaf=         0 NMat=       1 IRICut=       1 DoRegI=T DoRafI=F ISym2E= 0 IDoP0=0 IntGTp=1.
 FoFCou: FMM=F IPFlag=           0 FMFlag=      100000 FMFlg1=         800
         NFxFlg=           0 DoJE=F BraDBF=F KetDBF=F FulRan=T
         wScrn=  0.000000 ICntrl=      2127 IOpCl=  0 I1Cent=           0 NGrid=           0
         NMat0=    1 NMatS0=      1 NMatT0=    0 NMatD0=    1 NMtDS0=    0 NMtDT0=    0
 Symmetry not used in FoFCou.
 Leave Link  703 at Sun May 25 03:53:33 2025, MaxMem=  3758096384 cpu:              26.3 elap:               3.4
 (Enter /apps/easybuild-2022/easybuild/software/Compiler/NVHPC/22.11-CUDA-11.7.0/Gaussian/g16c01-CUDA-11.7.0/g16/l716.exe)
 Dipole        = 7.47139576D-01 1.52775182D-01-1.90442998D-01
 Polarizability= 0.00000000D+00 0.00000000D+00 0.00000000D+00
                 0.00000000D+00 0.00000000D+00 0.00000000D+00
 -------------------------------------------------------------------
 Center     Atomic                   Forces (Hartrees/Bohr)
 Number     Number              X              Y              Z
 -------------------------------------------------------------------
      1        6           0.003137248    0.001949329    0.007671135
      2        8          -0.010013204    0.003705653    0.004965922
      3        6           0.000511168   -0.002966292   -0.004889209
      4        9           0.004154147   -0.001532592   -0.002026782
      5        9          -0.002810468   -0.001562882   -0.002789206
      6        9           0.000174955   -0.000109128   -0.000604017
      7        8           0.004685531    0.000284374   -0.002054781
      8        1           0.000160623    0.000231538   -0.000273061
 -------------------------------------------------------------------
 Cartesian Forces:  Max     0.010013204 RMS     0.003609956
 Leave Link  716 at Sun May 25 03:53:33 2025, MaxMem=  3758096384 cpu:               0.1 elap:               0.0
 (Enter /apps/easybuild-2022/easybuild/software/Compiler/NVHPC/22.11-CUDA-11.7.0/Gaussian/g16c01-CUDA-11.7.0/g16/l123.exe)
 IRC-IRC-IRC-IRC-IRC-IRC-IRC-IRC-IRC-IRC-IRC-IRC-IRC-IRC-IRC-IRC-IRC-IRC
 Pt  3 Step number   1 out of a maximum of  20
 Using modified Bulirsch-Stoer corrector integration.
   Using distance weighted interpolants to fit PES.
 PreDWI: IReCr0= 2 IReCr1= 1 IReCr2= 1 IReCr3= 1
 Modified Bulirsch-Stoer Extrapolation Cycles:
    EPS =    0.000010000000000
    Cycle     1 NS=    48
      PEZero:  N= 2 I= 1 D=  3.75D-04 Err=  1.01D-06
    Cycle     2 NS=    64 Truncation Error =  0.000001014
 BS completed in    2 cycles and     112 integration steps.
 Maximum DWI energy   std dev =  0.000000090 at pt    36
 Maximum DWI gradient std dev =  0.003184503 at pt    28
 SUMMARY OF CORRECTOR INTEGRATION:
   Predictor End Point Energy =  -526.691826
   Old End Point Energy       =  -526.691826
   Corrected End Point Energy =  -526.691826
   Predictor End-Start Dist.  =     0.071943
   Old End-Start Dist.        =     0.071943
   New End-Start Dist.        =     0.071943
   New End-Old End Dist.      =     0.000198
 CORRECTOR INTEGRATION CONVERGENCE:
   Recorrection delta-x convergence threshold:    0.010000
   Delta-x Convergence Met
 Point Number:   3          Path Number:   1
                    CURRENT STRUCTURE
                Cartesian Coordinates (Ang):                
 ---------------------------------------------------------------------
 Center     Atomic                     Coordinates (Angstroms)
 Number     Number                        X           Y           Z
 ---------------------------------------------------------------------
      1          6                    1.070801    0.368708    0.462010
      2          8                    1.025581   -0.252670   -0.653749
      3          6                   -0.569557   -0.186534   -0.096436
      4          9                   -1.301225    0.804504    0.431219
      5          9                   -1.098961   -0.327427   -1.310118
      6          9                   -0.739864   -1.292084    0.577986
      7          8                    2.151936    1.025787    0.736627
      8          1                    2.795045    0.924581    0.004319
 ---------------------------------------------------------------------
   CHANGE IN THE REACTION COORDINATE =    0.07194
   NET REACTION COORDINATE UP TO THIS POINT =    0.21584
  # OF POINTS ALONG THE PATH =   3
  # OF STEPS =   1

 Calculating another point on the path.
 Point Number  4 in FORWARD path direction.
 Using LQA Reaction Path Following.
   LQA: T_Est iteration completed in    3 iterations.
 IRC-IRC-IRC-IRC-IRC-IRC-IRC-IRC-IRC-IRC-IRC-IRC-IRC-IRC-IRC-IRC-IRC-IRC
 Leave Link  123 at Sun May 25 03:53:33 2025, MaxMem=  3758096384 cpu:               0.1 elap:               0.0
 (Enter /apps/easybuild-2022/easybuild/software/Compiler/NVHPC/22.11-CUDA-11.7.0/Gaussian/g16c01-CUDA-11.7.0/g16/l202.exe)
                          Input orientation:                          
 ---------------------------------------------------------------------
 Center     Atomic      Atomic             Coordinates (Angstroms)
 Number     Number       Type             X           Y           Z
 ---------------------------------------------------------------------
      1          6           0        1.072944    0.370054    0.467289
      2          8           0        1.020442   -0.250776   -0.651220
      3          6           0       -0.569208   -0.188567   -0.099775
      4          9           0       -1.299429    0.803842    0.430345
      5          9           0       -1.100176   -0.328102   -1.311326
      6          9           0       -0.739790   -1.292131    0.577723
      7          8           0        2.154338    1.025931    0.735572
      8          1           0        2.796434    0.926484    0.002033
 ---------------------------------------------------------------------
                    Distance matrix (angstroms):
                    1          2          3          4          5
     1  C    0.000000
     2  O    1.280331   0.000000
     3  C    1.824905   1.683731   0.000000
     4  F    2.411989   2.768358   1.341315   0.000000
     5  F    2.893672   2.222327   1.330133   2.086724   0.000000
     6  F    2.461922   2.386030   1.306122   2.174401   2.151217
     7  O    1.292890   2.199748   3.096855   3.474334   4.076157
     8  H    1.869892   2.228638   3.547005   4.120022   4.299123
                    6          7          8
     6  F    0.000000
     7  O    3.711375   0.000000
     8  H    4.214089   0.979927   0.000000
 Symmetry turned off by external request.
 Stoichiometry    C2HF3O2
 Rotational constants (GHZ):           4.8646352           2.0143154           1.9131749
 Leave Link  202 at Sun May 25 03:53:33 2025, MaxMem=  3758096384 cpu:               0.1 elap:               0.0
 (Enter /apps/easybuild-2022/easybuild/software/Compiler/NVHPC/22.11-CUDA-11.7.0/Gaussian/g16c01-CUDA-11.7.0/g16/l301.exe)
 Standard basis: def2TZVPP (5D, 7F)
 Ernie: Thresh=  0.10000D-02 Tol=  0.10000D-05 Strict=F.
   231 basis functions,   374 primitive gaussians,   267 cartesian basis functions
    28 alpha electrons       28 beta electrons
       nuclear repulsion energy       336.4442718766 Hartrees.
 IExCor= 4336 DFT=T Ex+Corr=M062X ExCW=0 ScaHFX=  0.540000
 ScaDFX=  1.000000  1.000000  1.000000  1.000000 ScalE2=  1.000000  1.000000
 IRadAn=      5 IRanWt=     -1 IRanGd=            0 ICorTp=0 IEmpDi=  4
 NAtoms=    8 NActive=    8 NUniq=    8 SFac= 1.00D+00 NAtFMM=   60 NAOKFM=F Big=F
 Integral buffers will be    131072 words long.
 Raffenetti 2 integral format.
 Two-electron integral symmetry is turned off.
 Leave Link  301 at Sun May 25 03:53:33 2025, MaxMem=  3758096384 cpu:               0.1 elap:               0.0
 (Enter /apps/easybuild-2022/easybuild/software/Compiler/NVHPC/22.11-CUDA-11.7.0/Gaussian/g16c01-CUDA-11.7.0/g16/l302.exe)
 NPDir=0 NMtPBC=     1 NCelOv=     1 NCel=       1 NClECP=     1 NCelD=      1
         NCelK=      1 NCelE2=     1 NClLst=     1 CellRange=     0.0.
 One-electron integrals computed using PRISM.
   1 Symmetry operations used in ECPInt.
 ECPInt:  NShTT=    3486 NPrTT=   11183 LenC2=    3375 LenP2D=    8572.
 LDataN:  DoStor=T MaxTD1= 6 Len=  172
 NBasis=   231 RedAO= T EigKep=  9.07D-04  NBF=   231
 NBsUse=   231 1.00D-06 EigRej= -1.00D+00 NBFU=   231
 Precomputing XC quadrature grid using
 IXCGrd= 4 IRadAn=           5 IRanWt=          -1 IRanGd=           0 AccXCQ= 0.00D+00.
 Generated NRdTot=       0 NPtTot=           0 NUsed=           0 NTot=          32
 NSgBfM=   265   265   265   265   265 MxSgAt=     8 MxSgA2=     8.
 Leave Link  302 at Sun May 25 03:53:33 2025, MaxMem=  3758096384 cpu:               0.8 elap:               0.2
 (Enter /apps/easybuild-2022/easybuild/software/Compiler/NVHPC/22.11-CUDA-11.7.0/Gaussian/g16c01-CUDA-11.7.0/g16/l303.exe)
 DipDrv:  MaxL=1.
 Leave Link  303 at Sun May 25 03:53:33 2025, MaxMem=  3758096384 cpu:               0.1 elap:               0.0
 (Enter /apps/easybuild-2022/easybuild/software/Compiler/NVHPC/22.11-CUDA-11.7.0/Gaussian/g16c01-CUDA-11.7.0/g16/l401.exe)
 Initial guess from the checkpoint file:  "1141903082400600000001_r12_insertion_R_2_1_3_IRC_F.chk"
 B after Tr=     0.000012    0.000053    0.000004
         Rot=    1.000000    0.000003   -0.000013   -0.000009 Ang=   0.00 deg.
 Guess basis will be translated and rotated to current coordinates.
 JPrj=2 DoOrth=T DoCkMO=T.
 Generating alternative initial guess.
 ExpMin= 9.52D-02 ExpMax= 3.55D+04 ExpMxC= 1.21D+03 IAcc=3 IRadAn=         5 AccDes= 0.00D+00
 Harris functional with IExCor= 1009 and IRadAn=       5 diagonalized for initial guess.
 HarFok:  IExCor= 1009 AccDes= 0.00D+00 IRadAn=         5 IDoV= 1 UseB2=F ITyADJ=14
 ICtDFT=  3500011 ScaDFX=  1.000000  1.000000  1.000000  1.000000
 FoFCou: FMM=F IPFlag=           0 FMFlag=      100000 FMFlg1=           0
         NFxFlg=           0 DoJE=T BraDBF=F KetDBF=T FulRan=T
         wScrn=  0.000000 ICntrl=       500 IOpCl=  0 I1Cent=   200000004 NGrid=           0
         NMat0=    1 NMatS0=      1 NMatT0=    0 NMatD0=    1 NMtDS0=    0 NMtDT0=    0
 Symmetry not used in FoFCou.
 Harris En= -526.395561769836    
 Leave Link  401 at Sun May 25 03:53:33 2025, MaxMem=  3758096384 cpu:               2.1 elap:               0.3
 (Enter /apps/easybuild-2022/easybuild/software/Compiler/NVHPC/22.11-CUDA-11.7.0/Gaussian/g16c01-CUDA-11.7.0/g16/l502.exe)
 Keep R1 ints in memory in canonical form, NReq=368651279.
 FoFCou: FMM=F IPFlag=           0 FMFlag=           0 FMFlg1=           0
         NFxFlg=           0 DoJE=F BraDBF=F KetDBF=F FulRan=T
         wScrn=  0.000000 ICntrl=       600 IOpCl=  0 I1Cent=           0 NGrid=           0
         NMat0=    1 NMatS0=  26796 NMatT0=    0 NMatD0=    1 NMtDS0=    0 NMtDT0=    0
 Symmetry not used in FoFCou.
 Two-electron integral symmetry not used.
 Closed shell SCF:
 Using DIIS extrapolation, IDIIS=  1040.
 NGot=  3758096384 LenX=  3398923531 LenY=  3398851801
 Requested convergence on RMS density matrix=1.00D-08 within  32 cycles.
 Requested convergence on MAX density matrix=1.00D-06.
 Requested convergence on             energy=1.00D-06.
 No special actions if energy rises.
 Integral accuracy reduced to 1.0D-05 until final iterations.

 Cycle   1  Pass 0  IDiag  1:
 E= -526.692091538536    
 DIIS: error= 2.75D-04 at cycle   1 NSaved=   1.
 NSaved= 1 IEnMin= 1 EnMin= -526.692091538536     IErMin= 1 ErrMin= 2.75D-04
 ErrMax= 2.75D-04  0.00D+00 EMaxC= 1.00D-01 BMatC= 5.49D-05 BMatP= 5.49D-05
 IDIUse=3 WtCom= 9.97D-01 WtEn= 2.75D-03
 Coeff-Com:  0.100D+01
 Coeff-En:   0.100D+01
 Coeff:      0.100D+01
 Gap=     1.199 Goal=   None    Shift=    0.000
 RMSDP=5.03D-05 MaxDP=1.47D-03              OVMax= 7.13D-03

 Cycle   2  Pass 0  IDiag  1:
 E= -526.692197817528     Delta-E=       -0.000106278992 Rises=F Damp=F
 DIIS: error= 1.28D-04 at cycle   2 NSaved=   2.
 NSaved= 2 IEnMin= 2 EnMin= -526.692197817528     IErMin= 2 ErrMin= 1.28D-04
 ErrMax= 1.28D-04  0.00D+00 EMaxC= 1.00D-01 BMatC= 6.80D-06 BMatP= 5.49D-05
 IDIUse=3 WtCom= 9.99D-01 WtEn= 1.28D-03
 Coeff-Com: -0.111D-01 0.101D+01
 Coeff-En:   0.000D+00 0.100D+01
 Coeff:     -0.111D-01 0.101D+01
 Gap=     0.322 Goal=   None    Shift=    0.000
 RMSDP=2.02D-05 MaxDP=7.29D-04 DE=-1.06D-04 OVMax= 2.34D-03

 Cycle   3  Pass 0  IDiag  1:
 E= -526.692209600934     Delta-E=       -0.000011783406 Rises=F Damp=F
 DIIS: error= 1.24D-04 at cycle   3 NSaved=   3.
 NSaved= 3 IEnMin= 3 EnMin= -526.692209600934     IErMin= 3 ErrMin= 1.24D-04
 ErrMax= 1.24D-04  0.00D+00 EMaxC= 1.00D-01 BMatC= 5.66D-06 BMatP= 6.80D-06
 IDIUse=3 WtCom= 9.99D-01 WtEn= 1.24D-03
 Coeff-Com: -0.921D-01 0.528D+00 0.564D+00
 Coeff-En:   0.000D+00 0.000D+00 0.100D+01
 Coeff:     -0.920D-01 0.527D+00 0.565D+00
 Gap=     0.322 Goal=   None    Shift=    0.000
[...]
 ErrMax= 3.12D-05  0.00D+00 EMaxC= 1.00D-01 BMatC= 6.88D-07 BMatP= 2.07D-05
 IDIUse=1 WtCom= 1.00D+00 WtEn= 0.00D+00
 Coeff-Com: -0.149D+00 0.115D+01
 Coeff:     -0.149D+00 0.115D+01
 Gap=     0.338 Goal=   None    Shift=    0.000
 RMSDP=4.78D-06 MaxDP=1.14D-04 DE=-2.66D-05 OVMax= 3.38D-04

 Initial convergence to 1.0D-05 achieved.  Increase integral accuracy.
 Cycle   3  Pass 1  IDiag  1:
 E= -526.784505481898     Delta-E=        0.000001135550 Rises=F Damp=F
 DIIS: error= 3.11D-05 at cycle   1 NSaved=   1.
 NSaved= 1 IEnMin= 1 EnMin= -526.784505481898     IErMin= 1 ErrMin= 3.11D-05
 ErrMax= 3.11D-05  0.00D+00 EMaxC= 1.00D-01 BMatC= 4.79D-07 BMatP= 4.79D-07
 IDIUse=1 WtCom= 1.00D+00 WtEn= 0.00D+00
 Coeff-Com:  0.100D+01
 Coeff:      0.100D+01
 Gap=     0.338 Goal=   None    Shift=    0.000
 RMSDP=4.78D-06 MaxDP=1.14D-04 DE= 1.14D-06 OVMax= 1.76D-04

 Cycle   4  Pass 1  IDiag  1:
 E= -526.784505707508     Delta-E=       -0.000000225609 Rises=F Damp=F
 DIIS: error= 2.24D-05 at cycle   2 NSaved=   2.
 NSaved= 2 IEnMin= 2 EnMin= -526.784505707508     IErMin= 2 ErrMin= 2.24D-05
 ErrMax= 2.24D-05  0.00D+00 EMaxC= 1.00D-01 BMatC= 2.18D-07 BMatP= 4.79D-07
 IDIUse=1 WtCom= 1.00D+00 WtEn= 0.00D+00
 Coeff-Com:  0.367D+00 0.633D+00
 Coeff:      0.367D+00 0.633D+00
 Gap=     0.338 Goal=   None    Shift=    0.000
 RMSDP=1.54D-06 MaxDP=8.74D-05 DE=-2.26D-07 OVMax= 1.15D-04

 Cycle   5  Pass 1  IDiag  1:
 E= -526.784505822253     Delta-E=       -0.000000114745 Rises=F Damp=F
 DIIS: error= 1.06D-05 at cycle   3 NSaved=   3.
 NSaved= 3 IEnMin= 3 EnMin= -526.784505822253     IErMin= 3 ErrMin= 1.06D-05
 ErrMax= 1.06D-05  0.00D+00 EMaxC= 1.00D-01 BMatC= 4.55D-08 BMatP= 2.18D-07
 IDIUse=1 WtCom= 1.00D+00 WtEn= 0.00D+00
 Coeff-Com: -0.285D-01 0.304D+00 0.725D+00
 Coeff:     -0.285D-01 0.304D+00 0.725D+00
 Gap=     0.338 Goal=   None    Shift=    0.000
 RMSDP=6.67D-07 MaxDP=2.80D-05 DE=-1.15D-07 OVMax= 4.82D-05

 Cycle   6  Pass 1  IDiag  1:
 E= -526.784505852774     Delta-E=       -0.000000030522 Rises=F Damp=F
 DIIS: error= 1.17D-06 at cycle   4 NSaved=   4.
 NSaved= 4 IEnMin= 4 EnMin= -526.784505852774     IErMin= 4 ErrMin= 1.17D-06
 ErrMax= 1.17D-06  0.00D+00 EMaxC= 1.00D-01 BMatC= 9.98D-10 BMatP= 4.55D-08
 IDIUse=1 WtCom= 1.00D+00 WtEn= 0.00D+00
 Coeff-Com: -0.180D-01 0.106D+00 0.280D+00 0.632D+00
 Coeff:     -0.180D-01 0.106D+00 0.280D+00 0.632D+00
 Gap=     0.338 Goal=   None    Shift=    0.000
 RMSDP=1.03D-07 MaxDP=3.58D-06 DE=-3.05D-08 OVMax= 7.05D-06

 Cycle   7  Pass 1  IDiag  1:
 E= -526.784505853414     Delta-E=       -0.000000000640 Rises=F Damp=F
 DIIS: error= 5.33D-07 at cycle   5 NSaved=   5.
 NSaved= 5 IEnMin= 5 EnMin= -526.784505853414     IErMin= 5 ErrMin= 5.33D-07
 ErrMax= 5.33D-07  0.00D+00 EMaxC= 1.00D-01 BMatC= 1.84D-10 BMatP= 9.98D-10
 IDIUse=1 WtCom= 1.00D+00 WtEn= 0.00D+00
 Coeff-Com: -0.380D-04-0.288D-01-0.561D-01 0.266D+00 0.819D+00
 Coeff:     -0.380D-04-0.288D-01-0.561D-01 0.266D+00 0.819D+00
 Gap=     0.338 Goal=   None    Shift=    0.000
 RMSDP=6.88D-08 MaxDP=3.92D-06 DE=-6.40D-10 OVMax= 5.65D-06

 Cycle   8  Pass 1  IDiag  1:
 E= -526.784505853604     Delta-E=       -0.000000000190 Rises=F Damp=F
 DIIS: error= 1.38D-07 at cycle   6 NSaved=   6.
 NSaved= 6 IEnMin= 6 EnMin= -526.784505853604     IErMin= 6 ErrMin= 1.38D-07
 ErrMax= 1.38D-07  0.00D+00 EMaxC= 1.00D-01 BMatC= 1.05D-11 BMatP= 1.84D-10
 IDIUse=1 WtCom= 1.00D+00 WtEn= 0.00D+00
 Coeff-Com:  0.137D-02-0.168D-01-0.379D-01 0.231D-01 0.256D+00 0.774D+00
 Coeff:      0.137D-02-0.168D-01-0.379D-01 0.231D-01 0.256D+00 0.774D+00
 Gap=     0.338 Goal=   None    Shift=    0.000
 RMSDP=1.47D-08 MaxDP=5.71D-07 DE=-1.90D-10 OVMax= 1.91D-06

 Cycle   9  Pass 1  IDiag  1:
 E= -526.784505853617     Delta-E=       -0.000000000013 Rises=F Damp=F
 DIIS: error= 4.52D-08 at cycle   7 NSaved=   7.
 NSaved= 7 IEnMin= 7 EnMin= -526.784505853617     IErMin= 7 ErrMin= 4.52D-08
 ErrMax= 4.52D-08  0.00D+00 EMaxC= 1.00D-01 BMatC= 1.39D-12 BMatP= 1.05D-11
 IDIUse=1 WtCom= 1.00D+00 WtEn= 0.00D+00
 Coeff-Com:  0.439D-03-0.229D-02-0.619D-02-0.257D-01-0.498D-02 0.262D+00
 Coeff-Com:  0.776D+00
 Coeff:      0.439D-03-0.229D-02-0.619D-02-0.257D-01-0.498D-02 0.262D+00
 Coeff:      0.776D+00
 Gap=     0.338 Goal=   None    Shift=    0.000
 RMSDP=5.50D-09 MaxDP=1.31D-07 DE=-1.32D-11 OVMax= 8.26D-07

 SCF Done:  E(RM062X) =  -526.784505854     A.U. after    9 cycles
            NFock=  9  Conv=0.55D-08     -V/T= 2.0036
 KE= 5.248721887425D+02 PE=-1.919332424576D+03 EE= 5.317589611554D+02
 Leave Link  502 at Sun May 25 04:13:48 2025, MaxMem=  3758096384 cpu:              36.4 elap:               6.9
 (Enter /apps/easybuild-2022/easybuild/software/Compiler/NVHPC/22.11-CUDA-11.7.0/Gaussian/g16c01-CUDA-11.7.0/g16/l508.exe)
 QCSCF skips out because SCF is already converged.
 Leave Link  508 at Sun May 25 04:13:48 2025, MaxMem=  3758096384 cpu:               0.0 elap:               0.0
 (Enter /apps/easybuild-2022/easybuild/software/Compiler/NVHPC/22.11-CUDA-11.7.0/Gaussian/g16c01-CUDA-11.7.0/g16/l801.exe)
 DoSCS=F DFT=T ScalE2(SS,OS)=  1.000000  1.000000
 Range of M.O.s used for correlation:     1   231
 NBasis=   231 NAE=    28 NBE=    28 NFC=     0 NFV=     0
 NROrb=    231 NOA=    28 NOB=    28 NVA=   203 NVB=   203
 Leave Link  801 at Sun May 25 04:13:48 2025, MaxMem=  3758096384 cpu:               0.0 elap:               0.0
 (Enter /apps/easybuild-2022/easybuild/software/Compiler/NVHPC/22.11-CUDA-11.7.0/Gaussian/g16c01-CUDA-11.7.0/g16/l1101.exe)
 Leave Link 1101 at Sun May 25 04:13:48 2025, MaxMem=  3758096384 cpu:               0.1 elap:               0.0
 (Enter /apps/easybuild-2022/easybuild/software/Compiler/NVHPC/22.11-CUDA-11.7.0/Gaussian/g16c01-CUDA-11.7.0/g16/l1102.exe)
 Symmetrizing basis deriv contribution to polar:
 IMax=3 JMax=2 DiffMx= 0.00D+00
 Leave Link 1102 at Sun May 25 04:13:48 2025, MaxMem=  3758096384 cpu:               0.1 elap:               0.0
 (Enter /apps/easybuild-2022/easybuild/software/Compiler/NVHPC/22.11-CUDA-11.7.0/Gaussian/g16c01-CUDA-11.7.0/g16/l1110.exe)
 Leave Link 1110 at Sun May 25 04:13:48 2025, MaxMem=  3758096384 cpu:               0.0 elap:               0.0
 (Enter /apps/easybuild-2022/easybuild/software/Compiler/NVHPC/22.11-CUDA-11.7.0/Gaussian/g16c01-CUDA-11.7.0/g16/l1002.exe)
 Minotr:  Closed shell wavefunction.
 Leave Link 1002 at Sun May 25 04:13:48 2025, MaxMem=  3758096384 cpu:               0.1 elap:               0.0
 (Enter /apps/easybuild-2022/easybuild/software/Compiler/NVHPC/22.11-CUDA-11.7.0/Gaussian/g16c01-CUDA-11.7.0/g16/l701.exe)
 ... and contract with generalized density number  0.
 Compute integral first derivatives.
   1 Symmetry operations used in ECPInt.
 ECPInt:  NShTT=    3486 NPrTT=   11183 LenC2=    3364 LenP2D=    8525.
 LDataN:  DoStor=T MaxTD1= 7 Len=  274
 Leave Link  701 at Sun May 25 04:13:48 2025, MaxMem=  3758096384 cpu:               0.8 elap:               0.2
 (Enter /apps/easybuild-2022/easybuild/software/Compiler/NVHPC/22.11-CUDA-11.7.0/Gaussian/g16c01-CUDA-11.7.0/g16/l702.exe)
 L702 exits ... SP integral derivatives will be done elsewhere.
 Leave Link  702 at Sun May 25 04:13:48 2025, MaxMem=  3758096384 cpu:               0.1 elap:               0.0
 (Enter /apps/easybuild-2022/easybuild/software/Compiler/NVHPC/22.11-CUDA-11.7.0/Gaussian/g16c01-CUDA-11.7.0/g16/l703.exe)
 Integral derivatives from FoFJK, PRISM(SPDF).
 Compute integral first derivatives, UseDBF=F ICtDFT=           0.
 Calling FoFJK, ICntrl=      2127 FMM=F ISym2X=0 I1Cent= 0 IOpClX= 0 NMat=1 NMatS=1 NMatT=0.
 FoFJK:  IHMeth= 1 ICntrl=    2127 DoSepK=F KAlg= 0 I1Cent=           0 FoldK=F
 IRaf=         0 NMat=       1 IRICut=       1 DoRegI=T DoRafI=F ISym2E= 0 IDoP0=0 IntGTp=1.
 FoFCou: FMM=F IPFlag=           0 FMFlag=      100000 FMFlg1=         800
         NFxFlg=           0 DoJE=F BraDBF=F KetDBF=F FulRan=T
         wScrn=  0.000000 ICntrl=      2127 IOpCl=  0 I1Cent=           0 NGrid=           0
         NMat0=    1 NMatS0=      1 NMatT0=    0 NMatD0=    1 NMtDS0=    0 NMtDT0=    0
 Symmetry not used in FoFCou.
 Leave Link  703 at Sun May 25 04:13:51 2025, MaxMem=  3758096384 cpu:              24.1 elap:               3.1
 (Enter /apps/easybuild-2022/easybuild/software/Compiler/NVHPC/22.11-CUDA-11.7.0/Gaussian/g16c01-CUDA-11.7.0/g16/l716.exe)
 Dipole        = 5.38344109D-01 1.73388841D-01-8.19854020D-01
 Polarizability= 0.00000000D+00 0.00000000D+00 0.00000000D+00
                 0.00000000D+00 0.00000000D+00 0.00000000D+00
 -------------------------------------------------------------------
 Center     Atomic                   Forces (Hartrees/Bohr)
 Number     Number              X              Y              Z
 -------------------------------------------------------------------
      1        6           0.000657111    0.001058534    0.000431293
      2        8          -0.000694164    0.002507241    0.001262168
      3        6          -0.000784820    0.000319169    0.000343939
      4        9          -0.003797371   -0.001171385   -0.000214681
      5        9           0.001949806   -0.000235694   -0.000371032
      6        9           0.000426881    0.000110486    0.000050038
      7        8           0.002133655   -0.002360048   -0.001349682
      8        1           0.000108902   -0.000228303   -0.000152043
 -------------------------------------------------------------------
 Cartesian Forces:  Max     0.003797371 RMS     0.001338482
 Leave Link  716 at Sun May 25 04:13:52 2025, MaxMem=  3758096384 cpu:               0.1 elap:               0.0
 (Enter /apps/easybuild-2022/easybuild/software/Compiler/NVHPC/22.11-CUDA-11.7.0/Gaussian/g16c01-CUDA-11.7.0/g16/l123.exe)
 IRC-IRC-IRC-IRC-IRC-IRC-IRC-IRC-IRC-IRC-IRC-IRC-IRC-IRC-IRC-IRC-IRC-IRC
 Pt100 Step number   1 out of a maximum of  20
 Using modified Bulirsch-Stoer corrector integration.
   Using distance weighted interpolants to fit PES.
 PreDWI: IReCr0= 2 IReCr1= 1 IReCr2= 1 IReCr3= 1
 Modified Bulirsch-Stoer Extrapolation Cycles:
    EPS =    0.000010000000000
    Cycle     1 NS=    48
      PEZero:  N= 2 I= 1 D=  3.75D-04 Err=  2.31D-05
    Cycle     2 NS=    64 Truncation Error =  0.000023085
      PEZero:  N= 3 I= 2 D=  3.75D-04 Err=  1.54D-05
      PEZero:  N= 3 I= 1 D=  7.49D-04 Err=  7.03D-08
    Cycle     3 NS=    96 Truncation Error =  0.000000070
 BS completed in    3 cycles and     208 integration steps.
 Maximum DWI energy   std dev =  0.000000082 at pt    25
 Maximum DWI gradient std dev =  0.036223774 at pt    58
 SUMMARY OF CORRECTOR INTEGRATION:
   Predictor End Point Energy =  -526.784506
   Old End Point Energy       =  -526.784506
   Corrected End Point Energy =  -526.784506
   Predictor End-Start Dist.  =     0.071947
   Old End-Start Dist.        =     0.071947
   New End-Start Dist.        =     0.071915
   New End-Old End Dist.      =     0.002643
 CORRECTOR INTEGRATION CONVERGENCE:
   Recorrection delta-x convergence threshold:    0.010000
   Delta-x Convergence Met
 Point Number: 100          Path Number:   1
                    CURRENT STRUCTURE
                Cartesian Coordinates (Ang):                
 ---------------------------------------------------------------------
 Center     Atomic                     Coordinates (Angstroms)
 Number     Number                        X           Y           Z
 ---------------------------------------------------------------------
      1          6                    1.284271    0.432910    0.841178
      2          8                    0.704852    0.084467   -0.340422
      3          6                   -0.627171   -0.247379   -0.209740
      4          9                   -1.287565    0.747217    0.355029
      5          9                   -1.110234   -0.450171   -1.420060
      6          9                   -0.793622   -1.340693    0.507457
      7          8                    2.428770    0.953252    0.554238
      8          1                    2.604729    0.989428   -0.406255
 ---------------------------------------------------------------------
   CHANGE IN THE REACTION COORDINATE =    0.07191
   NET REACTION COORDINATE UP TO THIS POINT =    7.19345
  # OF POINTS ALONG THE PATH = 100
  # OF STEPS =   1

 Maximum number of steps reached.
 Calculation of FORWARD path complete.
 Reaction path calculation complete.
 
 Energies reported relative to the TS energy of        -526.691323
 --------------------------------------------------------------------------
    Summary of reaction path following
 --------------------------------------------------------------------------
                        Energy    RxCoord
   1                    0.00000   0.00000
   2                   -0.00006   0.07196
   3                   -0.00022   0.14390
   4                   -0.00050   0.21584
   5                   -0.00089   0.28779
   6                   -0.00138   0.35973
   7                   -0.00198   0.43168
   8                   -0.00267   0.50363
   9                   -0.00346   0.57557
  10                   -0.00434   0.64752
  11                   -0.00531   0.71947
  12                   -0.00636   0.79141
  13                   -0.00748   0.86336
  14                   -0.00867   0.93531
  15                   -0.00994   1.00726
  16                   -0.01126   1.07921
  17                   -0.01264   1.15115
  18                   -0.01407   1.22310
  19                   -0.01555   1.29505
  20                   -0.01708   1.36700
  21                   -0.01864   1.43895
  22                   -0.02024   1.51089
  23                   -0.02187   1.58284
  24                   -0.02353   1.65479
  25                   -0.02521   1.72674
  26                   -0.02690   1.79869
  27                   -0.02862   1.87063
  28                   -0.03034   1.94258
  29                   -0.03208   2.01453
  30                   -0.03382   2.08648
  31                   -0.03556   2.15843
  32                   -0.03730   2.23037
  33                   -0.03903   2.30232
  34                   -0.04075   2.37427
  35                   -0.04247   2.44622
  36                   -0.04417   2.51817
  37                   -0.04585   2.59012
  38                   -0.04752   2.66206
  39                   -0.04917   2.73401
  40                   -0.05079   2.80596
  41                   -0.05239   2.87791
  42                   -0.05396   2.94986
  43                   -0.05551   3.02180
  44                   -0.05702   3.09375
  45                   -0.05851   3.16570
  46                   -0.05996   3.23765
  47                   -0.06139   3.30960
  48                   -0.06277   3.38154
  49                   -0.06413   3.45349
  50                   -0.06545   3.52544
  51                   -0.06674   3.59739
  52                   -0.06799   3.66933
  53                   -0.06920   3.74128
  54                   -0.07038   3.81323
  55                   -0.07152   3.88518
  56                   -0.07263   3.95713
  57                   -0.07369   4.02907
  58                   -0.07473   4.10102
  59                   -0.07572   4.17297
  60                   -0.07668   4.24491
  61                   -0.07760   4.31686
  62                   -0.07849   4.38881
  63                   -0.07934   4.46076
  64                   -0.08016   4.53270
  65                   -0.08094   4.60465
  66                   -0.08168   4.67660
  67                   -0.08239   4.74854
  68                   -0.08307   4.82049
  69                   -0.08372   4.89243
  70                   -0.08433   4.96438
  71                   -0.08491   5.03632
  72                   -0.08546   5.10827
  73                   -0.08598   5.18021
  74                   -0.08648   5.25215
  75                   -0.08694   5.32410
  76                   -0.08738   5.39604
  77                   -0.08780   5.46798
  78                   -0.08819   5.53992
  79                   -0.08856   5.61186
  80                   -0.08890   5.68380
  81                   -0.08923   5.75574
  82                   -0.08954   5.82768
  83                   -0.08983   5.89962
  84                   -0.09011   5.97155
  85                   -0.09037   6.04349
  86                   -0.09062   6.11543
  87                   -0.09085   6.18737
  88                   -0.09108   6.25931
  89                   -0.09129   6.33125
  90                   -0.09149   6.40320
  91                   -0.09169   6.47514
  92                   -0.09187   6.54707
  93                   -0.09205   6.61896
  94                   -0.09222   6.69061
  95                   -0.09237   6.76216
  96                   -0.09252   6.83383
  97                   -0.09267   6.90572
  98                   -0.09281   6.97766
  99                   -0.09294   7.04960
 100                   -0.09306   7.12154
 101                   -0.09318   7.19345
 --------------------------------------------------------------------------
 
 Total number of points:                  100
 Total number of gradient calculations:   100
 Total number of Hessian calculations:      0
 IRC-IRC-IRC-IRC-IRC-IRC-IRC-IRC-IRC-IRC-IRC-IRC-IRC-IRC-IRC-IRC-IRC-IRC
 Leave Link  123 at Sun May 25 04:13:52 2025, MaxMem=  3758096384 cpu:               0.1 elap:               0.0
 (Enter /apps/easybuild-2022/easybuild/software/Compiler/NVHPC/22.11-CUDA-11.7.0/Gaussian/g16c01-CUDA-11.7.0/g16/l202.exe)
                          Input orientation:                          
 ---------------------------------------------------------------------
 Center     Atomic      Atomic             Coordinates (Angstroms)
 Number     Number       Type             X           Y           Z
 ---------------------------------------------------------------------
      1          6           0        1.284252    0.432919    0.841146
      2          8           0        0.704627    0.084395   -0.340373
      3          6           0       -0.626890   -0.247327   -0.209745
      4          9           0       -1.287562    0.747223    0.355028
      5          9           0       -1.110233   -0.450166   -1.420076
      6          9           0       -0.793611   -1.340683    0.507452
      7          8           0        2.428781    0.953257    0.554237
      8          1           0        2.604590    0.989439   -0.406241
 ---------------------------------------------------------------------
                    Distance matrix (angstroms):
                    1          2          3          4          5
     1  C    0.000000
     2  O    1.361404   0.000000
     3  C    2.284638   1.378420   0.000000
     4  F    2.636157   2.211728   1.320827   0.000000
     5  F    3.409768   2.178355   1.318964   2.148530   0.000000
     6  F    2.752186   2.234809   1.318178   2.150947   2.146773
     7  O    1.289579   2.127899   3.370785   3.727377   4.288604
     8  H    1.899732   2.105541   3.465641   3.973292   4.110990
                    6          7          8
     6  F    0.000000
     7  O    3.955775   0.000000
     8  H    4.220435   0.977106   0.000000
 Symmetry turned off by external request.
 Stoichiometry    C2HF3O2
 Rotational constants (GHZ):           5.4736115           1.8000669           1.7701509
 Leave Link  202 at Sun May 25 04:13:52 2025, MaxMem=  3758096384 cpu:               0.1 elap:               0.0
 (Enter /apps/easybuild-2022/easybuild/software/Compiler/NVHPC/22.11-CUDA-11.7.0/Gaussian/g16c01-CUDA-11.7.0/g16/l9999.exe)

 This type of calculation cannot be archived.


 KEEP CLOSE TO NATURES HEART, YOURSELF;
 AND BREAK CLEAR AWAY, ONCE IN A WHILE, AND
 CLIMB A MOUNTAIN OR SPEND A WEEK IN THE
 WOODS.  WASH YOUR SPIRIT CLEAN...
                                         -- JOHN MUIR
 Job cpu time:       0 days  1 hours 59 minutes 58.7 seconds.
 Elapsed time:       0 days  0 hours 20 minutes 41.1 seconds.
 File lengths (MBytes):  RWF=     30 Int=      0 D2E=      0 Chk=      6 Scr=      1
 Normal termination of Gaussian 16 at Sun May 25 04:13:52 2025.
done
