 Entering Gaussian System, Link 0=g16
 Initial command:
 /apps/easybuild-2022/easybuild/software/Compiler/NVHPC/22.11-CUDA-11.7.0/Gaussian/g16c01-CUDA-11.7.0/g16/l1.exe "/tmp/Gau-8853.inp" -scrdir="/tmp/"
 Entering Link 1 = /apps/easybuild-2022/easybuild/software/Compiler/NVHPC/22.11-CUDA-11.7.0/Gaussian/g16c01-CUDA-11.7.0/g16/l1.exe PID=      8854.
  
 Copyright (c) 1988-2019, Gaussian, Inc.  All Rights Reserved.
  
 This is part of the Gaussian(R) 16 program.  It is based on
 the Gaussian(R) 09 system (copyright 2009, Gaussian, Inc.),
 the Gaussian(R) 03 system (copyright 2003, Gaussian, Inc.),
 the Gaussian(R) 98 system (copyright 1998, Gaussian, Inc.),
 the Gaussian(R) 94 system (copyright 1995, Gaussian, Inc.),
 the Gaussian 92(TM) system (copyright 1992, Gaussian, Inc.),
 the Gaussian 90(TM) system (copyright 1990, Gaussian, Inc.),
 the Gaussian 88(TM) system (copyright 1988, Gaussian, Inc.),
 the Gaussian 86(TM) system (copyright 1986, Carnegie Mellon
 University), and the Gaussian 82(TM) system (copyright 1983,
 Carnegie Mellon University). Gaussian is a federally registered
 trademark of Gaussian, Inc.
  
 This software contains proprietary and confidential information,
 including trade secrets, belonging to Gaussian, Inc.
  
 This software is provided under written license and may be
 used, copied, transmitted, or stored only in accord with that
 written license.
  
 The following legend is applicable only to US Government
 contracts under FAR:
  
                    RESTRICTED RIGHTS LEGEND
  
 Use, reproduction and disclosure by the US Government is
 subject to restrictions as set forth in subparagraphs (a)
 and (c) of the Commercial Computer Software - Restricted
 Rights clause in FAR 52.227-19.
  
 Gaussian, Inc.
 340 Quinnipiac St., Bldg. 40, Wallingford CT 06492
  
  
 ---------------------------------------------------------------
 Warning -- This program may not be used in any manner that
 competes with the business of Gaussian, Inc. or will provide
 assistance to any competitor of Gaussian, Inc.  The licensee
 of this program is prohibited from giving any competitor of
 Gaussian, Inc. access to this program.  By using this program,
 the user acknowledges that Gaussian, Inc. is engaged in the
 business of creating and licensing software in the field of
 computational chemistry and represents and warrants to the
 licensee that it is not a competitor of Gaussian, Inc. and that
 it will not use this program in any manner prohibited above.
 ---------------------------------------------------------------
  

 Cite this work as:
 Gaussian 16, Revision C.01,
 M. J. Frisch, G. W. Trucks, H. B. Schlegel, G. E. Scuseria, 
 M. A. Robb, J. R. Cheeseman, G. Scalmani, V. Barone, 
 G. A. Petersson, H. Nakatsuji, X. Li, M. Caricato, A. V. Marenich, 
 J. Bloino, B. G. Janesko, R. Gomperts, B. Mennucci, H. P. Hratchian, 
 J. V. Ortiz, A. F. Izmaylov, J. L. Sonnenberg, D. Williams-Young, 
 F. Ding, F. Lipparini, F. Egidi, J. Goings, B. Peng, A. Petrone, 
 T. Henderson, D. Ranasinghe, V. G. Zakrzewski, J. Gao, N. Rega, 
 G. Zheng, W. Liang, M. Hada, M. Ehara, K. Toyota, R. Fukuda, 
 J. Hasegawa, M. Ishida, T. Nakajima, Y. Honda, O. Kitao, H. Nakai, 
 T. Vreven, K. Throssell, J. A. Montgomery, Jr., J. E. Peralta, 
 F. Ogliaro, M. J. Bearpark, J. J. Heyd, E. N. Brothers, K. N. Kudin, 
 V. N. Staroverov, T. A. Keith, R. Kobayashi, J. Normand, 
 K. Raghavachari, A. P. Rendell, J. C. Burant, S. S. Iyengar, 
 J. Tomasi, M. Cossi, J. M. Millam, M. Klene, C. Adamo, R. Cammi, 
 J. W. Ochterski, R. L. Martin, K. Morokuma, O. Farkas, 
 J. B. Foresman, and D. J. Fox, Gaussian, Inc., Wallingford CT, 2019.
 
 ******************************************
 Gaussian 16:  ES64L-G16RevC.01  3-Jul-2019
                25-May-2025 
 ******************************************
 %mem=28GB
 %chk=1141903082400600000001_r12_insertion_R_7_1_2_IRC_R
 %nprocshared=8
 Will use up to    8 processors via shared memory.
 ----------------------------------------------------------------------
 #P M062X/Def2TZVPP Symm(None) scf(xqc) pop(None) geom(AllCheck,NoKeepC
 onstants) guess(Read) irc(RCFC,reverse,MaxPoints=100,StepSize=2)
 ----------------------------------------------------------------------
 1/10=5,18=10,22=2,26=3,29=20007,38=1,39=2,42=100,44=3,172=1/1,23;
 2/12=2,15=3,29=1,40=1/2;
 3/5=44,7=202,11=2,14=-4,25=1,30=1,71=2,74=-55,116=-2,140=1/1,2,3;
 4/5=1/1;
 5/5=2,8=3,13=1,38=6/2,8;
 8/6=4,10=90,11=11/1;
 11/6=1,8=1,9=11,15=111,16=1,31=1/1,2,10;
 10/6=1,13=1,31=1/2;
 7/10=1,25=1,30=1/1,2,3,16;
 1/18=10,22=2,26=3,39=2,42=100,44=3/23(2);
 2/15=3,29=1/2;
 99/5=20/99;
 2/15=3,29=1/2;
 3/5=44,7=202,11=2,14=-2,25=1,30=1,71=2,74=-55,140=1/1,2,3;
 4/5=5,16=3,69=1/1;
 5/5=2,8=3,13=1,38=5/2,8;
 8/6=4,10=90,11=11/1;
 11/6=1,8=1,9=11,15=111,16=1,31=1/1,2,10;
 10/6=1,13=1,31=1/2;
 7/10=1,25=1,30=1/1,2,3,16;
 1/18=10,22=2,26=3,39=2,42=100,44=3/23(-8);
 2/15=3,29=1/2;
 99/5=20,9=1/99;
 Leave Link    1 at Sun May 25 03:53:54 2025, MaxMem=  3758096384 cpu:               0.0 elap:               0.0
 (Enter /apps/easybuild-2022/easybuild/software/Compiler/NVHPC/22.11-CUDA-11.7.0/Gaussian/g16c01-CUDA-11.7.0/g16/l101.exe)
 Structure from the checkpoint file:  "1141903082400600000001_r12_insertion_R_7_1_2_IRC_R.chk"
 ------------------------------
 Gaussian input prepared by ASE
 ------------------------------
 Charge =  0 Multiplicity = 1
 Redundant internal coordinates found in file.  (old form).
 C,0,1.4752060853,-0.0713418224,0.4342987833
 O,0,2.2950725041,-0.4542976551,-0.7069166729
 C,0,-0.0052727489,-0.0558926822,0.0893612764
 F,0,-0.634085876,0.7732071003,0.9213109042
 F,0,-0.272750682,0.3524731298,-1.1560342459
 F,0,-0.5069352981,-1.2770184411,0.2322893353
 O,0,2.0327839143,1.0927002484,-0.0816035456
 H,0,2.9356031013,1.1444491221,0.2662071653
 Recover connectivity data from disk.
 ITRead=  0  0  0  0  0  0  0  0
 MicOpt= -1 -1 -1 -1 -1 -1 -1 -1
 NAtoms=      8 NQM=        8 NQMF=       0 NMMI=      0 NMMIF=      0
                NMic=       0 NMicF=      0.
                    Isotopes and Nuclear Properties:
 (Nuclear quadrupole moments (NQMom) in fm**2, nuclear magnetic moments (NMagM)
  in nuclear magnetons)

  Atom         1           2           3           4           5           6           7           8
 IAtWgt=          12          16          12          19          19          19          16           1
 AtmWgt=  12.0000000  15.9949146  12.0000000  18.9984032  18.9984032  18.9984032  15.9949146   1.0078250
 NucSpn=           0           0           0           1           1           1           0           1
 AtZEff=   3.6000000   5.6000000   3.6000000   6.7500000   6.7500000   6.7500000   5.6000000   1.0000000
 NQMom=    0.0000000   0.0000000   0.0000000   0.0000000   0.0000000   0.0000000   0.0000000   0.0000000
 NMagM=    0.0000000   0.0000000   0.0000000   2.6288670   2.6288670   2.6288670   0.0000000   2.7928460
 AtZNuc=   6.0000000   8.0000000   6.0000000   9.0000000   9.0000000   9.0000000   8.0000000   1.0000000
 Leave Link  101 at Sun May 25 03:53:54 2025, MaxMem=  3758096384 cpu:               0.2 elap:               0.2
 (Enter /apps/easybuild-2022/easybuild/software/Compiler/NVHPC/22.11-CUDA-11.7.0/Gaussian/g16c01-CUDA-11.7.0/g16/l123.exe)
 IRC-IRC-IRC-IRC-IRC-IRC-IRC-IRC-IRC-IRC-IRC-IRC-IRC-IRC-IRC-IRC-IRC-IRC
 ------------------------------------------------------------------------
 INPUT DATA FOR L123
 ------------------------------------------------------------------------
 GENERAL PARAMETERS:
 Rxn path following direction = Reverse
 Maximum points per path      = 100
 Step size                    =   0.020 bohr
 Integration scheme           = HPC                                 
    Redo corrector integration= Yes                                 
    DWI Weight Power          =  2
    DWI will use Hessian update vectors when possible.
    Max correction cycles     =  20
 Initial Hessian              = ReadFC from chk
 Hessian evaluation           = All updating
 Hessian updating method      = Bofill                              
 ------------------------------------------------------------------------
          ******** Start new reaction path calculation ********
 RCFC Option Requested - Data Read From Chk File:
 "1141903082400600000001_r12_insertion_R_7_1_2_IRC_R.chk"
   Energy From Chk =   -526.5678005

 Current Structure is TS -> form Hessian eigenvectors.
                            Recovering Hessian eigenvectors from chk file.
 Supplied step size of   0.0200 bohr.
    Integration on MW PES will use step size of   0.0682 sqrt(amu)*bohr.
 Point Number:   0          Path Number:   1
 Calculating another point on the path.
 Point Number  1 in REVERSE path direction.
 Using LQA Reaction Path Following.
 IRC-IRC-IRC-IRC-IRC-IRC-IRC-IRC-IRC-IRC-IRC-IRC-IRC-IRC-IRC-IRC-IRC-IRC
 Leave Link  123 at Sun May 25 03:53:54 2025, MaxMem=  3758096384 cpu:               0.0 elap:               0.0
 (Enter /apps/easybuild-2022/easybuild/software/Compiler/NVHPC/22.11-CUDA-11.7.0/Gaussian/g16c01-CUDA-11.7.0/g16/l202.exe)
                          Input orientation:                          
 ---------------------------------------------------------------------
 Center     Atomic      Atomic             Coordinates (Angstroms)
 Number     Number       Type             X           Y           Z
 ---------------------------------------------------------------------
      1          6           0        0.920833   -0.135155    0.493250
      2          8           0        1.742485   -0.510581   -0.653276
      3          6           0       -0.557119   -0.116832    0.142608
      4          9           0       -1.186441    0.712162    0.974858
      5          9           0       -0.825265    0.291465   -1.102770
      6          9           0       -1.059312   -1.338111    0.285786
      7          8           0        1.482212    1.028531   -0.031696
      8          1           0        2.382483    1.085442    0.323882
 ---------------------------------------------------------------------
                    Distance matrix (angstroms):
                    1          2          3          4          5
     1  C    0.000000
     2  O    1.459650   0.000000
     3  C    1.519089   2.465086   0.000000
     4  F    2.321745   3.567145   1.332635   0.000000
     5  F    2.403777   2.727390   1.337749   2.150342   0.000000
     6  F    2.326182   3.068665   1.328239   2.166703   2.153690
     7  O    1.394589   1.680169   2.345444   2.869660   2.648568
     8  H    1.911796   1.977808   3.181130   3.646962   3.599358
                    6          7          8
     6  F    0.000000
     7  O    3.487281   0.000000
     8  H    4.209634   0.969620   0.000000
 Symmetry turned off by external request.
 Stoichiometry    C2HF3O2
 Rotational constants (GHZ):           4.4756887           2.3272190           2.1050845
 Leave Link  202 at Sun May 25 03:53:54 2025, MaxMem=  3758096384 cpu:               0.0 elap:               0.0
 (Enter /apps/easybuild-2022/easybuild/software/Compiler/NVHPC/22.11-CUDA-11.7.0/Gaussian/g16c01-CUDA-11.7.0/g16/l301.exe)
 Standard basis: def2TZVPP (5D, 7F)
 Ernie: Thresh=  0.10000D-02 Tol=  0.10000D-05 Strict=F.
   231 basis functions,   374 primitive gaussians,   267 cartesian basis functions
    28 alpha electrons       28 beta electrons
       nuclear repulsion energy       338.4436560693 Hartrees.
 IExCor= 4336 DFT=T Ex+Corr=M062X ExCW=0 ScaHFX=  0.540000
 ScaDFX=  1.000000  1.000000  1.000000  1.000000 ScalE2=  1.000000  1.000000
 IRadAn=      5 IRanWt=     -1 IRanGd=            0 ICorTp=0 IEmpDi=  4
 NAtoms=    8 NActive=    8 NUniq=    8 SFac= 1.00D+00 NAtFMM=   60 NAOKFM=F Big=F
 Integral buffers will be    131072 words long.
 Raffenetti 2 integral format.
 Two-electron integral symmetry is turned off.
 Leave Link  301 at Sun May 25 03:53:54 2025, MaxMem=  3758096384 cpu:               0.0 elap:               0.0
 (Enter /apps/easybuild-2022/easybuild/software/Compiler/NVHPC/22.11-CUDA-11.7.0/Gaussian/g16c01-CUDA-11.7.0/g16/l302.exe)
 NPDir=0 NMtPBC=     1 NCelOv=     1 NCel=       1 NClECP=     1 NCelD=      1
         NCelK=      1 NCelE2=     1 NClLst=     1 CellRange=     0.0.
 One-electron integrals computed using PRISM.
   1 Symmetry operations used in ECPInt.
 ECPInt:  NShTT=    3486 NPrTT=   11183 LenC2=    3402 LenP2D=    8731.
 LDataN:  DoStor=T MaxTD1= 6 Len=  172
 NBasis=   231 RedAO= T EigKep=  5.54D-04  NBF=   231
 NBsUse=   231 1.00D-06 EigRej= -1.00D+00 NBFU=   231
 Precomputing XC quadrature grid using
 IXCGrd= 4 IRadAn=           5 IRanWt=          -1 IRanGd=           0 AccXCQ= 0.00D+00.
 Generated NRdTot=       0 NPtTot=           0 NUsed=           0 NTot=          32
 NSgBfM=   266   266   266   266   266 MxSgAt=     8 MxSgA2=     8.
 Leave Link  302 at Sun May 25 03:53:54 2025, MaxMem=  3758096384 cpu:               0.4 elap:               0.1
 (Enter /apps/easybuild-2022/easybuild/software/Compiler/NVHPC/22.11-CUDA-11.7.0/Gaussian/g16c01-CUDA-11.7.0/g16/l303.exe)
 DipDrv:  MaxL=1.
 Leave Link  303 at Sun May 25 03:53:54 2025, MaxMem=  3758096384 cpu:               0.1 elap:               0.0
 (Enter /apps/easybuild-2022/easybuild/software/Compiler/NVHPC/22.11-CUDA-11.7.0/Gaussian/g16c01-CUDA-11.7.0/g16/l401.exe)
 Initial guess from the checkpoint file:  "1141903082400600000001_r12_insertion_R_7_1_2_IRC_R.chk"
 B after Tr=    -1.043769   -0.115417    0.101254
         Rot=    1.000000   -0.000010    0.000021   -0.000011 Ang=  -0.00 deg.
 Guess basis will be translated and rotated to current coordinates.
 JPrj=2 DoOrth=T DoCkMO=T.
 Leave Link  401 at Sun May 25 03:53:54 2025, MaxMem=  3758096384 cpu:               0.2 elap:               0.1
 (Enter /apps/easybuild-2022/easybuild/software/Compiler/NVHPC/22.11-CUDA-11.7.0/Gaussian/g16c01-CUDA-11.7.0/g16/l502.exe)
 Keep R1 ints in memory in canonical form, NReq=368651279.
 FoFCou: FMM=F IPFlag=           0 FMFlag=           0 FMFlg1=           0
         NFxFlg=           0 DoJE=F BraDBF=F KetDBF=F FulRan=T
         wScrn=  0.000000 ICntrl=       600 IOpCl=  0 I1Cent=           0 NGrid=           0
         NMat0=    1 NMatS0=  26796 NMatT0=    0 NMatD0=    1 NMtDS0=    0 NMtDT0=    0
 Symmetry not used in FoFCou.
 Two-electron integral symmetry not used.
 Closed shell SCF:
 Using DIIS extrapolation, IDIIS=  1040.
 NGot=  3758096384 LenX=  3398923531 LenY=  3398851801
 Requested convergence on RMS density matrix=1.00D-08 within  32 cycles.
 Requested convergence on MAX density matrix=1.00D-06.
 Requested convergence on             energy=1.00D-06.
 No special actions if energy rises.

 Cycle   1  Pass 1  IDiag  1:
 E= -526.567684977705    
 DIIS: error= 3.55D-04 at cycle   1 NSaved=   1.
 NSaved= 1 IEnMin= 1 EnMin= -526.567684977705     IErMin= 1 ErrMin= 3.55D-04
 ErrMax= 3.55D-04  0.00D+00 EMaxC= 1.00D-01 BMatC= 6.21D-05 BMatP= 6.21D-05
 IDIUse=3 WtCom= 9.96D-01 WtEn= 3.55D-03
 Coeff-Com:  0.100D+01
 Coeff-En:   0.100D+01
 Coeff:      0.100D+01
 Gap=     0.174 Goal=   None    Shift=    0.000
 RMSDP=7.30D-05 MaxDP=1.97D-03              OVMax= 1.39D-02

 Cycle   2  Pass 1  IDiag  1:
 E= -526.567835646718     Delta-E=       -0.000150669013 Rises=F Damp=F
 DIIS: error= 3.47D-04 at cycle   2 NSaved=   2.
 NSaved= 2 IEnMin= 2 EnMin= -526.567835646718     IErMin= 2 ErrMin= 3.47D-04
 ErrMax= 3.47D-04  0.00D+00 EMaxC= 1.00D-01 BMatC= 4.34D-05 BMatP= 6.21D-05
 IDIUse=3 WtCom= 9.97D-01 WtEn= 3.47D-03
 Coeff-Com:  0.391D+00 0.609D+00
 Coeff-En:   0.000D+00 0.100D+01
 Coeff:      0.389D+00 0.611D+00
 Gap=     0.168 Goal=   None    Shift=    0.000
 RMSDP=2.56D-05 MaxDP=1.47D-03 DE=-1.51D-04 OVMax= 1.80D-03

 Cycle   3  Pass 1  IDiag  1:
 E= -526.567877927723     Delta-E=       -0.000042281004 Rises=F Damp=F
 DIIS: error= 1.95D-04 at cycle   3 NSaved=   3.
 NSaved= 3 IEnMin= 3 EnMin= -526.567877927723     IErMin= 3 ErrMin= 1.95D-04
 ErrMax= 1.95D-04  0.00D+00 EMaxC= 1.00D-01 BMatC= 8.86D-06 BMatP= 4.34D-05
 IDIUse=3 WtCom= 9.98D-01 WtEn= 1.95D-03
 Coeff-Com: -0.700D-01 0.269D+00 0.801D+00
 Coeff-En:   0.000D+00 0.000D+00 0.100D+01
 Coeff:     -0.699D-01 0.269D+00 0.801D+00
 Gap=     0.168 Goal=   None    Shift=    0.000
 RMSDP=4.41D-05 MaxDP=1.74D-03 DE=-4.23D-05 OVMax= 8.86D-03

 Cycle   4  Pass 1  IDiag  1:
 E= -526.567917938646     Delta-E=       -0.000040010923 Rises=F Damp=F
 DIIS: error= 2.19D-04 at cycle   4 NSaved=   4.
 NSaved= 4 IEnMin= 4 EnMin= -526.567917938646     IErMin= 3 ErrMin= 1.95D-04
 ErrMax= 2.19D-04  0.00D+00 EMaxC= 1.00D-01 BMatC= 1.34D-05 BMatP= 8.86D-06
 IDIUse=3 WtCom= 4.03D-01 WtEn= 5.97D-01
 Coeff-Com: -0.319D-01-0.163D+00 0.532D+00 0.663D+00
 Coeff-En:   0.000D+00 0.000D+00 0.000D+00 0.100D+01
 Coeff:     -0.129D-01-0.658D-01 0.215D+00 0.864D+00
 Gap=     0.167 Goal=   None    Shift=    0.000
 RMSDP=2.39D-05 MaxDP=1.48D-03 DE=-4.00D-05 OVMax= 2.66D-03

 Cycle   5  Pass 1  IDiag  1:
 E= -526.567938491181     Delta-E=       -0.000020552535 Rises=F Damp=F
 DIIS: error= 1.16D-04 at cycle   5 NSaved=   5.
 NSaved= 5 IEnMin= 5 EnMin= -526.567938491181     IErMin= 5 ErrMin= 1.16D-04
 ErrMax= 1.16D-04  0.00D+00 EMaxC= 1.00D-01 BMatC= 6.90D-06 BMatP= 8.86D-06
 IDIUse=3 WtCom= 9.99D-01 WtEn= 1.16D-03
 Coeff-Com:  0.549D-01-0.430D+00-0.311D+00 0.933D+00 0.754D+00
 Coeff-En:   0.000D+00 0.000D+00 0.000D+00 0.000D+00 0.100D+01
 Coeff:      0.549D-01-0.429D+00-0.311D+00 0.932D+00 0.754D+00
 Gap=     0.167 Goal=   None    Shift=    0.000
 RMSDP=4.51D-05 MaxDP=2.20D-03 DE=-2.06D-05 OVMax= 8.61D-03

 Cycle   6  Pass 1  IDiag  1:
 E= -526.567967497726     Delta-E=       -0.000029006545 Rises=F Damp=F
 DIIS: error= 1.03D-04 at cycle   6 NSaved=   6.
 NSaved= 6 IEnMin= 6 EnMin= -526.567967497726     IErMin= 6 ErrMin= 1.03D-04
 ErrMax= 1.03D-04  0.00D+00 EMaxC= 1.00D-01 BMatC= 2.41D-06 BMatP= 6.90D-06
 IDIUse=3 WtCom= 9.99D-01 WtEn= 1.03D-03
 Coeff-Com:  0.542D-01-0.204D+00-0.254D+00-0.104D+00 0.320D+00 0.119D+01
 Coeff-En:   0.000D+00 0.000D+00 0.000D+00 0.000D+00 0.000D+00 0.100D+01
 Coeff:      0.542D-01-0.204D+00-0.253D+00-0.103D+00 0.320D+00 0.119D+01
 Gap=     0.166 Goal=   None    Shift=    0.000
 RMSDP=4.05D-05 MaxDP=2.11D-03 DE=-2.90D-05 OVMax= 7.09D-03

 Cycle   7  Pass 1  IDiag  1:
 E= -526.567981682837     Delta-E=       -0.000014185112 Rises=F Damp=F
 DIIS: error= 3.11D-05 at cycle   7 NSaved=   7.
 NSaved= 7 IEnMin= 7 EnMin= -526.567981682837     IErMin= 7 ErrMin= 3.11D-05
 ErrMax= 3.11D-05  0.00D+00 EMaxC= 1.00D-01 BMatC= 3.65D-07 BMatP= 2.41D-06
 IDIUse=1 WtCom= 1.00D+00 WtEn= 0.00D+00
 Coeff-Com: -0.135D-02 0.768D-01 0.810D-01-0.456D+00-0.178D+00 0.418D+00
 Coeff-Com:  0.106D+01
 Coeff:     -0.135D-02 0.768D-01 0.810D-01-0.456D+00-0.178D+00 0.418D+00
 Coeff:      0.106D+01
 Gap=     0.166 Goal=   None    Shift=    0.000
 RMSDP=2.27D-05 MaxDP=1.22D-03 DE=-1.42D-05 OVMax= 3.90D-03

 Cycle   8  Pass 1  IDiag  1:
 E= -526.567984688635     Delta-E=       -0.000003005798 Rises=F Damp=F
 DIIS: error= 1.13D-05 at cycle   8 NSaved=   8.
 NSaved= 8 IEnMin= 8 EnMin= -526.567984688635     IErMin= 8 ErrMin= 1.13D-05
 ErrMax= 1.13D-05  0.00D+00 EMaxC= 1.00D-01 BMatC= 4.33D-08 BMatP= 3.65D-07
 IDIUse=1 WtCom= 1.00D+00 WtEn= 0.00D+00
 Coeff-Com: -0.122D-01 0.703D-01 0.833D-01-0.905D-01-0.116D+00-0.166D+00
 Coeff-Com:  0.280D+00 0.951D+00
 Coeff:     -0.122D-01 0.703D-01 0.833D-01-0.905D-01-0.116D+00-0.166D+00
 Coeff:      0.280D+00 0.951D+00
 Gap=     0.166 Goal=   None    Shift=    0.000
 RMSDP=4.46D-06 MaxDP=1.62D-04 DE=-3.01D-06 OVMax= 7.09D-04

 Cycle   9  Pass 1  IDiag  1:
 E= -526.567984951250     Delta-E=       -0.000000262615 Rises=F Damp=F
 DIIS: error= 6.16D-06 at cycle   9 NSaved=   9.
 NSaved= 9 IEnMin= 9 EnMin= -526.567984951250     IErMin= 9 ErrMin= 6.16D-06
 ErrMax= 6.16D-06  0.00D+00 EMaxC= 1.00D-01 BMatC= 1.25D-08 BMatP= 4.33D-08
 IDIUse=1 WtCom= 1.00D+00 WtEn= 0.00D+00
 Coeff-Com: -0.331D-02-0.122D-02 0.651D-02 0.115D+00 0.815D-02-0.177D+00
 Coeff-Com: -0.240D+00 0.333D+00 0.960D+00
 Coeff:     -0.331D-02-0.122D-02 0.651D-02 0.115D+00 0.815D-02-0.177D+00
 Coeff:     -0.240D+00 0.333D+00 0.960D+00
 Gap=     0.166 Goal=   None    Shift=    0.000
 RMSDP=1.54D-06 MaxDP=5.30D-05 DE=-2.63D-07 OVMax= 2.37D-04

 Cycle  10  Pass 1  IDiag  1:
 E= -526.567985004998     Delta-E=       -0.000000053748 Rises=F Damp=F
 DIIS: error= 1.94D-06 at cycle  10 NSaved=  10.
 NSaved=10 IEnMin=10 EnMin= -526.567985004998     IErMin=10 ErrMin= 1.94D-06
 ErrMax= 1.94D-06  0.00D+00 EMaxC= 1.00D-01 BMatC= 1.65D-09 BMatP= 1.25D-08
 IDIUse=1 WtCom= 1.00D+00 WtEn= 0.00D+00
 Coeff-Com:  0.115D-02-0.150D-01-0.887D-02 0.452D-01 0.146D-01-0.114D-01
 Coeff-Com: -0.117D+00-0.667D-01 0.238D+00 0.920D+00
 Coeff:      0.115D-02-0.150D-01-0.887D-02 0.452D-01 0.146D-01-0.114D-01
 Coeff:     -0.117D+00-0.667D-01 0.238D+00 0.920D+00
 Gap=     0.166 Goal=   None    Shift=    0.000
 RMSDP=6.82D-07 MaxDP=2.98D-05 DE=-5.37D-08 OVMax= 9.89D-05

 Cycle  11  Pass 1  IDiag  1:
 E= -526.567985010809     Delta-E=       -0.000000005811 Rises=F Damp=F
 DIIS: error= 6.24D-07 at cycle  11 NSaved=  11.
 NSaved=11 IEnMin=11 EnMin= -526.567985010809     IErMin=11 ErrMin= 6.24D-07
 ErrMax= 6.24D-07  0.00D+00 EMaxC= 1.00D-01 BMatC= 1.67D-10 BMatP= 1.65D-09
 IDIUse=1 WtCom= 1.00D+00 WtEn= 0.00D+00
 Coeff-Com:  0.375D-03-0.168D-02-0.117D-02-0.405D-02-0.109D-02 0.159D-01
 Coeff-Com:  0.746D-02-0.371D-01-0.607D-01 0.120D+00 0.962D+00
 Coeff:      0.375D-03-0.168D-02-0.117D-02-0.405D-02-0.109D-02 0.159D-01
 Coeff:      0.746D-02-0.371D-01-0.607D-01 0.120D+00 0.962D+00
 Gap=     0.166 Goal=   None    Shift=    0.000
 RMSDP=9.49D-08 MaxDP=2.77D-06 DE=-5.81D-09 OVMax= 1.70D-05

 Cycle  12  Pass 1  IDiag  1:
 E= -526.567985011198     Delta-E=       -0.000000000389 Rises=F Damp=F
 DIIS: error= 4.38D-07 at cycle  12 NSaved=  12.
 NSaved=12 IEnMin=12 EnMin= -526.567985011198     IErMin=12 ErrMin= 4.38D-07
 ErrMax= 4.38D-07  0.00D+00 EMaxC= 1.00D-01 BMatC= 4.54D-11 BMatP= 1.67D-10
 IDIUse=1 WtCom= 1.00D+00 WtEn= 0.00D+00
 Coeff-Com: -0.722D-04 0.185D-02 0.904D-03-0.646D-02-0.282D-02 0.532D-02
 Coeff-Com:  0.177D-01-0.816D-03-0.485D-01-0.915D-01 0.204D+00 0.920D+00
 Coeff:     -0.722D-04 0.185D-02 0.904D-03-0.646D-02-0.282D-02 0.532D-02
 Coeff:      0.177D-01-0.816D-03-0.485D-01-0.915D-01 0.204D+00 0.920D+00
 Gap=     0.166 Goal=   None    Shift=    0.000
 RMSDP=6.75D-08 MaxDP=3.97D-06 DE=-3.89D-10 OVMax= 9.79D-06

 Cycle  13  Pass 1  IDiag  1:
 E= -526.567985011302     Delta-E=       -0.000000000104 Rises=F Damp=F
 DIIS: error= 9.96D-08 at cycle  13 NSaved=  13.
 NSaved=13 IEnMin=13 EnMin= -526.567985011302     IErMin=13 ErrMin= 9.96D-08
 ErrMax= 9.96D-08  0.00D+00 EMaxC= 1.00D-01 BMatC= 4.76D-12 BMatP= 4.54D-11
 IDIUse=1 WtCom= 1.00D+00 WtEn= 0.00D+00
 Coeff-Com: -0.684D-04 0.640D-03 0.387D-03-0.793D-03-0.760D-03-0.958D-03
 Coeff-Com:  0.278D-02 0.509D-02-0.142D-02-0.343D-01-0.122D+00 0.252D+00
 Coeff-Com:  0.899D+00
 Coeff:     -0.684D-04 0.640D-03 0.387D-03-0.793D-03-0.760D-03-0.958D-03
 Coeff:      0.278D-02 0.509D-02-0.142D-02-0.343D-01-0.122D+00 0.252D+00
 Coeff:      0.899D+00
 Gap=     0.166 Goal=   None    Shift=    0.000
 RMSDP=1.66D-08 MaxDP=5.95D-07 DE=-1.04D-10 OVMax= 2.71D-06

 Cycle  14  Pass 1  IDiag  1:
 E= -526.567985011302     Delta-E=        0.000000000000 Rises=F Damp=F
 DIIS: error= 4.90D-08 at cycle  14 NSaved=  14.
 NSaved=14 IEnMin=13 EnMin= -526.567985011302     IErMin=14 ErrMin= 4.90D-08
 ErrMax= 4.90D-08  0.00D+00 EMaxC= 1.00D-01 BMatC= 7.98D-13 BMatP= 4.76D-12
 IDIUse=1 WtCom= 1.00D+00 WtEn= 0.00D+00
 Coeff-Com: -0.299D-05-0.191D-03-0.378D-04 0.961D-03 0.220D-03-0.114D-02
 Coeff-Com: -0.238D-02 0.174D-02 0.857D-02 0.755D-02-0.803D-01-0.869D-01
 Coeff-Com:  0.329D+00 0.823D+00
 Coeff:     -0.299D-05-0.191D-03-0.378D-04 0.961D-03 0.220D-03-0.114D-02
 Coeff:     -0.238D-02 0.174D-02 0.857D-02 0.755D-02-0.803D-01-0.869D-01
 Coeff:      0.329D+00 0.823D+00
 Gap=     0.166 Goal=   None    Shift=    0.000
 RMSDP=6.17D-09 MaxDP=2.06D-07 DE= 0.00D+00 OVMax= 7.59D-07

 SCF Done:  E(RM062X) =  -526.567985011     A.U. after   14 cycles
            NFock= 14  Conv=0.62D-08     -V/T= 2.0037
 KE= 5.246466744615D+02 PE=-1.924600365868D+03 EE= 5.349420503263D+02
 Leave Link  502 at Sun May 25 03:54:04 2025, MaxMem=  3758096384 cpu:              52.5 elap:               9.7
 (Enter /apps/easybuild-2022/easybuild/software/Compiler/NVHPC/22.11-CUDA-11.7.0/Gaussian/g16c01-CUDA-11.7.0/g16/l508.exe)
 QCSCF skips out because SCF is already converged.
 Leave Link  508 at Sun May 25 03:54:04 2025, MaxMem=  3758096384 cpu:               0.1 elap:               0.0
 (Enter /apps/easybuild-2022/easybuild/software/Compiler/NVHPC/22.11-CUDA-11.7.0/Gaussian/g16c01-CUDA-11.7.0/g16/l801.exe)
 DoSCS=F DFT=T ScalE2(SS,OS)=  1.000000  1.000000
 Range of M.O.s used for correlation:     1   231
 NBasis=   231 NAE=    28 NBE=    28 NFC=     0 NFV=     0
 NROrb=    231 NOA=    28 NOB=    28 NVA=   203 NVB=   203

 **** Warning!!: The largest alpha MO coefficient is  0.16864521D+02

 Leave Link  801 at Sun May 25 03:54:04 2025, MaxMem=  3758096384 cpu:               0.1 elap:               0.0
 (Enter /apps/easybuild-2022/easybuild/software/Compiler/NVHPC/22.11-CUDA-11.7.0/Gaussian/g16c01-CUDA-11.7.0/g16/l1101.exe)
 Leave Link 1101 at Sun May 25 03:54:04 2025, MaxMem=  3758096384 cpu:               0.0 elap:               0.0
 (Enter /apps/easybuild-2022/easybuild/software/Compiler/NVHPC/22.11-CUDA-11.7.0/Gaussian/g16c01-CUDA-11.7.0/g16/l1102.exe)
 Symmetrizing basis deriv contribution to polar:
 IMax=3 JMax=2 DiffMx= 0.00D+00
 Leave Link 1102 at Sun May 25 03:54:04 2025, MaxMem=  3758096384 cpu:               0.1 elap:               0.0
 (Enter /apps/easybuild-2022/easybuild/software/Compiler/NVHPC/22.11-CUDA-11.7.0/Gaussian/g16c01-CUDA-11.7.0/g16/l1110.exe)
 Leave Link 1110 at Sun May 25 03:54:04 2025, MaxMem=  3758096384 cpu:               0.1 elap:               0.0
 (Enter /apps/easybuild-2022/easybuild/software/Compiler/NVHPC/22.11-CUDA-11.7.0/Gaussian/g16c01-CUDA-11.7.0/g16/l1002.exe)
 Minotr:  Closed shell wavefunction.
 Leave Link 1002 at Sun May 25 03:54:04 2025, MaxMem=  3758096384 cpu:               0.1 elap:               0.0
 (Enter /apps/easybuild-2022/easybuild/software/Compiler/NVHPC/22.11-CUDA-11.7.0/Gaussian/g16c01-CUDA-11.7.0/g16/l701.exe)
 ... and contract with generalized density number  0.
 Compute integral first derivatives.
   1 Symmetry operations used in ECPInt.
 ECPInt:  NShTT=    3486 NPrTT=   11183 LenC2=    3402 LenP2D=    8731.
 LDataN:  DoStor=T MaxTD1= 7 Len=  274
 Leave Link  701 at Sun May 25 03:54:04 2025, MaxMem=  3758096384 cpu:               0.8 elap:               0.1
 (Enter /apps/easybuild-2022/easybuild/software/Compiler/NVHPC/22.11-CUDA-11.7.0/Gaussian/g16c01-CUDA-11.7.0/g16/l702.exe)
 L702 exits ... SP integral derivatives will be done elsewhere.
 Leave Link  702 at Sun May 25 03:54:04 2025, MaxMem=  3758096384 cpu:               0.1 elap:               0.0
 (Enter /apps/easybuild-2022/easybuild/software/Compiler/NVHPC/22.11-CUDA-11.7.0/Gaussian/g16c01-CUDA-11.7.0/g16/l703.exe)
 Integral derivatives from FoFJK, PRISM(SPDF).
 Compute integral first derivatives, UseDBF=F ICtDFT=           0.
 Calling FoFJK, ICntrl=      2127 FMM=F ISym2X=0 I1Cent= 0 IOpClX= 0 NMat=1 NMatS=1 NMatT=0.
 FoFJK:  IHMeth= 1 ICntrl=    2127 DoSepK=F KAlg= 0 I1Cent=           0 FoldK=F
 IRaf=         0 NMat=       1 IRICut=       1 DoRegI=T DoRafI=F ISym2E= 0 IDoP0=0 IntGTp=1.
 FoFCou: FMM=F IPFlag=           0 FMFlag=      100000 FMFlg1=         800
         NFxFlg=           0 DoJE=F BraDBF=F KetDBF=F FulRan=T
         wScrn=  0.000000 ICntrl=      2127 IOpCl=  0 I1Cent=           0 NGrid=           0
         NMat0=    1 NMatS0=      1 NMatT0=    0 NMatD0=    1 NMtDS0=    0 NMtDT0=    0
 Symmetry not used in FoFCou.
 Leave Link  703 at Sun May 25 03:54:07 2025, MaxMem=  3758096384 cpu:              22.8 elap:               2.9
 (Enter /apps/easybuild-2022/easybuild/software/Compiler/NVHPC/22.11-CUDA-11.7.0/Gaussian/g16c01-CUDA-11.7.0/g16/l716.exe)
 Dipole        = 1.10230418D+00 7.16970345D-01 7.22647626D-02
 Polarizability= 0.00000000D+00 0.00000000D+00 0.00000000D+00
                 0.00000000D+00 0.00000000D+00 0.00000000D+00
 -------------------------------------------------------------------
 Center     Atomic                   Forces (Hartrees/Bohr)
 Number     Number              X              Y              Z
 -------------------------------------------------------------------
      1        6          -0.003515294   -0.005161333    0.009399703
      2        8          -0.000867234    0.011589034    0.000490869
      3        6           0.000845207    0.000213812   -0.000570245
      4        9          -0.000058125    0.000093935   -0.000057699
      5        9          -0.000503197    0.000209464   -0.000851480
      6        9          -0.000126024   -0.000029652   -0.000212878
      7        8           0.004396134   -0.007266465   -0.008815083
      8        1          -0.000171468    0.000351204    0.000616814
 -------------------------------------------------------------------
 Cartesian Forces:  Max     0.011589034 RMS     0.004159333
 Leave Link  716 at Sun May 25 03:54:07 2025, MaxMem=  3758096384 cpu:               0.1 elap:               0.0
 (Enter /apps/easybuild-2022/easybuild/software/Compiler/NVHPC/22.11-CUDA-11.7.0/Gaussian/g16c01-CUDA-11.7.0/g16/l123.exe)
 IRC-IRC-IRC-IRC-IRC-IRC-IRC-IRC-IRC-IRC-IRC-IRC-IRC-IRC-IRC-IRC-IRC-IRC
 Pt  1 Step number   1 out of a maximum of  20
 Using modified Bulirsch-Stoer corrector integration.
   Using distance weighted interpolants to fit PES.
 PreDWI: IReCr0= 2 IReCr1= 1 IReCr2= 1 IReCr3= 1
 Modified Bulirsch-Stoer Extrapolation Cycles:
    EPS =    0.000010000000000
    Cycle     1 NS=    48
      PEZero:  N= 2 I= 1 D=  1.78D-04 Err=  2.86D-04
    Cycle     2 NS=    64 Truncation Error =  0.000285875
      PEZero:  N= 3 I= 2 D=  1.78D-04 Err=  1.91D-04
      PEZero:  N= 3 I= 1 D=  3.55D-04 Err=  1.47D-08
    Cycle     3 NS=    96 Truncation Error =  0.000000015
 BS completed in    3 cycles and     208 integration steps.
 Maximum DWI energy   std dev =  0.000000256 at pt    34
 Maximum DWI gradient std dev =  0.016622283 at pt     1
 SUMMARY OF CORRECTOR INTEGRATION:
   Predictor End Point Energy =  -526.567985
   Old End Point Energy       =  -526.567985
   Corrected End Point Energy =  -526.567985
   Predictor End-Start Dist.  =     0.068187
   Old End-Start Dist.        =     0.068187
   New End-Start Dist.        =     0.068181
   New End-Old End Dist.      =     0.000833
 CORRECTOR INTEGRATION CONVERGENCE:
   Recorrection delta-x convergence threshold:    0.010000
   Delta-x Convergence Met
 Point Number:   1          Path Number:   1
                    CURRENT STRUCTURE
                Cartesian Coordinates (Ang):                
 ---------------------------------------------------------------------
 Center     Atomic                     Coordinates (Angstroms)
 Number     Number                        X           Y           Z
 ---------------------------------------------------------------------
      1          6                    0.920862   -0.135211    0.493195
      2          8                    1.742443   -0.510563   -0.653225
      3          6                   -0.557124   -0.116840    0.142609
      4          9                   -1.186440    0.712161    0.974858
      5          9                   -0.825263    0.291466   -1.102768
      6          9                   -1.059313   -1.338110    0.285784
      7          8                    1.482237    1.028553   -0.031708
      8          1                    2.382434    1.085543    0.323918
 ---------------------------------------------------------------------
   CHANGE IN THE REACTION COORDINATE =    0.06818
   NET REACTION COORDINATE UP TO THIS POINT =    0.06818
  # OF POINTS ALONG THE PATH =   1
  # OF STEPS =   1

 Calculating another point on the path.
 Point Number  2 in REVERSE path direction.
 Using LQA Reaction Path Following.
   LQA: T_Est iteration completed in    3 iterations.
 IRC-IRC-IRC-IRC-IRC-IRC-IRC-IRC-IRC-IRC-IRC-IRC-IRC-IRC-IRC-IRC-IRC-IRC
 Leave Link  123 at Sun May 25 03:54:07 2025, MaxMem=  3758096384 cpu:               0.1 elap:               0.0
 (Enter /apps/easybuild-2022/easybuild/software/Compiler/NVHPC/22.11-CUDA-11.7.0/Gaussian/g16c01-CUDA-11.7.0/g16/l202.exe)
                          Input orientation:                          
 ---------------------------------------------------------------------
 Center     Atomic      Atomic             Coordinates (Angstroms)
 Number     Number       Type             X           Y           Z
 ---------------------------------------------------------------------
      1          6           0        0.918880   -0.138062    0.498460
      2          8           0        1.742099   -0.505732   -0.653045
      3          6           0       -0.556645   -0.116717    0.142292
      4          9           0       -1.186457    0.712193    0.974837
      5          9           0       -0.825442    0.291539   -1.103069
      6          9           0       -1.059360   -1.338124    0.285711
      7          8           0        1.484049    1.025518   -0.035396
      8          1           0        2.381582    1.087823    0.328134
 ---------------------------------------------------------------------
                    Distance matrix (angstroms):
                    1          2          3          4          5
     1  C    0.000000
     2  O    1.462475   0.000000
     3  C    1.518054   2.463355   0.000000
     4  F    2.319982   3.565078   1.332999   0.000000
     5  F    2.406680   2.725882   1.337852   2.150575   0.000000
     6  F    2.323541   3.069578   1.328580   2.166760   2.153886
     7  O    1.399405   1.671169   2.345358   2.872341   2.648093
     8  H    1.916064   1.977642   3.180980   3.645576   3.601029
                    6          7          8
     6  F    0.000000
     7  O    3.486952   0.000000
     8  H    4.210356   0.970361   0.000000
 Symmetry turned off by external request.
 Stoichiometry    C2HF3O2
 Rotational constants (GHZ):           4.4803838           2.3254906           2.1066417
 Leave Link  202 at Sun May 25 03:54:07 2025, MaxMem=  3758096384 cpu:               0.0 elap:               0.0
 (Enter /apps/easybuild-2022/easybuild/software/Compiler/NVHPC/22.11-CUDA-11.7.0/Gaussian/g16c01-CUDA-11.7.0/g16/l301.exe)
 Standard basis: def2TZVPP (5D, 7F)
 Ernie: Thresh=  0.10000D-02 Tol=  0.10000D-05 Strict=F.
   231 basis functions,   374 primitive gaussians,   267 cartesian basis functions
    28 alpha electrons       28 beta electrons
       nuclear repulsion energy       338.4579052752 Hartrees.
 IExCor= 4336 DFT=T Ex+Corr=M062X ExCW=0 ScaHFX=  0.540000
 ScaDFX=  1.000000  1.000000  1.000000  1.000000 ScalE2=  1.000000  1.000000
 IRadAn=      5 IRanWt=     -1 IRanGd=            0 ICorTp=0 IEmpDi=  4
 NAtoms=    8 NActive=    8 NUniq=    8 SFac= 1.00D+00 NAtFMM=   60 NAOKFM=F Big=F
 Integral buffers will be    131072 words long.
 Raffenetti 2 integral format.
 Two-electron integral symmetry is turned off.
 Leave Link  301 at Sun May 25 03:54:08 2025, MaxMem=  3758096384 cpu:               0.0 elap:               0.0
 (Enter /apps/easybuild-2022/easybuild/software/Compiler/NVHPC/22.11-CUDA-11.7.0/Gaussian/g16c01-CUDA-11.7.0/g16/l302.exe)
 NPDir=0 NMtPBC=     1 NCelOv=     1 NCel=       1 NClECP=     1 NCelD=      1
         NCelK=      1 NCelE2=     1 NClLst=     1 CellRange=     0.0.
 One-electron integrals computed using PRISM.
   1 Symmetry operations used in ECPInt.
 ECPInt:  NShTT=    3486 NPrTT=   11183 LenC2=    3402 LenP2D=    8731.
 LDataN:  DoStor=T MaxTD1= 6 Len=  172
 NBasis=   231 RedAO= T EigKep=  5.51D-04  NBF=   231
 NBsUse=   231 1.00D-06 EigRej= -1.00D+00 NBFU=   231
 Precomputing XC quadrature grid using
 IXCGrd= 4 IRadAn=           5 IRanWt=          -1 IRanGd=           0 AccXCQ= 0.00D+00.
 Generated NRdTot=       0 NPtTot=           0 NUsed=           0 NTot=          32
 NSgBfM=   266   266   266   266   266 MxSgAt=     8 MxSgA2=     8.
 Leave Link  302 at Sun May 25 03:54:08 2025, MaxMem=  3758096384 cpu:               0.5 elap:               0.1
 (Enter /apps/easybuild-2022/easybuild/software/Compiler/NVHPC/22.11-CUDA-11.7.0/Gaussian/g16c01-CUDA-11.7.0/g16/l303.exe)
 DipDrv:  MaxL=1.
 Leave Link  303 at Sun May 25 03:54:08 2025, MaxMem=  3758096384 cpu:               0.1 elap:               0.0
 (Enter /apps/easybuild-2022/easybuild/software/Compiler/NVHPC/22.11-CUDA-11.7.0/Gaussian/g16c01-CUDA-11.7.0/g16/l401.exe)
 Initial guess from the checkpoint file:  "1141903082400600000001_r12_insertion_R_7_1_2_IRC_R.chk"
 B after Tr=    -0.000010    0.000036    0.000073
         Rot=    1.000000   -0.000011    0.000022   -0.000013 Ang=  -0.00 deg.
 Guess basis will be translated and rotated to current coordinates.
 JPrj=2 DoOrth=T DoCkMO=T.
 Generating alternative initial guess.
 ExpMin= 9.52D-02 ExpMax= 3.55D+04 ExpMxC= 1.21D+03 IAcc=3 IRadAn=         5 AccDes= 0.00D+00
 Harris functional with IExCor= 1009 and IRadAn=       5 diagonalized for initial guess.
 HarFok:  IExCor= 1009 AccDes= 0.00D+00 IRadAn=         5 IDoV= 1 UseB2=F ITyADJ=14
 ICtDFT=  3500011 ScaDFX=  1.000000  1.000000  1.000000  1.000000
 FoFCou: FMM=F IPFlag=           0 FMFlag=      100000 FMFlg1=           0
         NFxFlg=           0 DoJE=T BraDBF=F KetDBF=T FulRan=T
         wScrn=  0.000000 ICntrl=       500 IOpCl=  0 I1Cent=   200000004 NGrid=           0
         NMat0=    1 NMatS0=      1 NMatT0=    0 NMatD0=    1 NMtDS0=    0 NMtDT0=    0
 Symmetry not used in FoFCou.
 Harris En= -526.263265356466    
 Leave Link  401 at Sun May 25 03:54:08 2025, MaxMem=  3758096384 cpu:               1.8 elap:               0.3
 (Enter /apps/easybuild-2022/easybuild/software/Compiler/NVHPC/22.11-CUDA-11.7.0/Gaussian/g16c01-CUDA-11.7.0/g16/l502.exe)
 Keep R1 ints in memory in canonical form, NReq=368651279.
 FoFCou: FMM=F IPFlag=           0 FMFlag=           0 FMFlg1=           0
         NFxFlg=           0 DoJE=F BraDBF=F KetDBF=F FulRan=T
         wScrn=  0.000000 ICntrl=       600 IOpCl=  0 I1Cent=           0 NGrid=           0
         NMat0=    1 NMatS0=  26796 NMatT0=    0 NMatD0=    1 NMtDS0=    0 NMtDT0=    0
 Symmetry not used in FoFCou.
 Two-electron integral symmetry not used.
 Closed shell SCF:
 Using DIIS extrapolation, IDIIS=  1040.
 NGot=  3758096384 LenX=  3398923531 LenY=  3398851801
 Requested convergence on RMS density matrix=1.00D-08 within  32 cycles.
 Requested convergence on MAX density matrix=1.00D-06.
 Requested convergence on             energy=1.00D-06.
 No special actions if energy rises.
 Integral accuracy reduced to 1.0D-05 until final iterations.

 Cycle   1  Pass 0  IDiag  1:
 E= -526.568243763710    
 DIIS: error= 3.63D-04 at cycle   1 NSaved=   1.
 NSaved= 1 IEnMin= 1 EnMin= -526.568243763710     IErMin= 1 ErrMin= 3.63D-04
 ErrMax= 3.63D-04  0.00D+00 EMaxC= 1.00D-01 BMatC= 6.20D-05 BMatP= 6.20D-05
 IDIUse=3 WtCom= 9.96D-01 WtEn= 3.63D-03
 Coeff-Com:  0.100D+01
 Coeff-En:   0.100D+01
 Coeff:      0.100D+01
 Gap=     1.064 Goal=   None    Shift=    0.000
 RMSDP=7.05D-05 MaxDP=2.04D-03              OVMax= 1.30D-02

 Cycle   2  Pass 0  IDiag  1:
 E= -526.568393292416     Delta-E=       -0.000149528707 Rises=F Damp=F
 DIIS: error= 3.08D-04 at cycle   2 NSaved=   2.
 NSaved= 2 IEnMin= 2 EnMin= -526.568393292416     IErMin= 2 ErrMin= 3.08D-04
 ErrMax= 3.08D-04  0.00D+00 EMaxC= 1.00D-01 BMatC= 3.33D-05 BMatP= 6.20D-05
 IDIUse=3 WtCom= 9.97D-01 WtEn= 3.08D-03
 Coeff-Com:  0.309D+00 0.691D+00
 Coeff-En:   0.000D+00 0.100D+01
 Coeff:      0.309D+00 0.691D+00
 Gap=     0.167 Goal=   None    Shift=    0.000
 RMSDP=2.73D-05 MaxDP=1.69D-03 DE=-1.50D-04 OVMax= 2.38D-03

 Cycle   3  Pass 0  IDiag  1:
 E= -526.568433731589     Delta-E=       -0.000040439173 Rises=F Damp=F
 DIIS: error= 1.96D-04 at cycle   3 NSaved=   3.
 NSaved= 3 IEnMin= 3 EnMin= -526.568433731589     IErMin= 3 ErrMin= 1.96D-04
 ErrMax= 1.96D-04  0.00D+00 EMaxC= 1.00D-01 BMatC= 8.57D-06 BMatP= 3.33D-05
 IDIUse=3 WtCom= 9.98D-01 WtEn= 1.96D-03
 Coeff-Com: -0.718D-01 0.306D+00 0.766D+00
 Coeff-En:   0.000D+00 0.000D+00 0.100D+01
 Coeff:     -0.717D-01 0.305D+00 0.767D+00
 Gap=     0.168 Goal=   None    Shift=    0.000
 RMSDP=4.15D-05 MaxDP=1.52D-03 DE=-4.04D-05 OVMax= 8.31D-03

 Cycle   4  Pass 0  IDiag  1:
 E= -526.568471750455     Delta-E=       -0.000038018866 Rises=F Damp=F
 DIIS: error= 1.90D-04 at cycle   4 NSaved=   4.
 NSaved= 4 IEnMin= 4 EnMin= -526.568471750455     IErMin= 4 ErrMin= 1.90D-04
 ErrMax= 1.90D-04  0.00D+00 EMaxC= 1.00D-01 BMatC= 1.06D-05 BMatP= 8.57D-06
 IDIUse=3 WtCom= 4.20D-01 WtEn= 5.80D-01
 Coeff-Com: -0.216D-01-0.187D+00 0.484D+00 0.725D+00
 Coeff-En:   0.000D+00 0.000D+00 0.000D+00 0.100D+01
 Coeff:     -0.908D-02-0.787D-01 0.204D+00 0.884D+00
 Gap=     0.167 Goal=   None    Shift=    0.000
 RMSDP=2.52D-05 MaxDP=1.60D-03 DE=-3.80D-05 OVMax= 3.40D-03

 Cycle   5  Pass 0  IDiag  1:
 E= -526.568493986840     Delta-E=       -0.000022236384 Rises=F Damp=F
 DIIS: error= 9.86D-05 at cycle   5 NSaved=   5.
 NSaved= 5 IEnMin= 5 EnMin= -526.568493986840     IErMin= 5 ErrMin= 9.86D-05
 ErrMax= 9.86D-05  0.00D+00 EMaxC= 1.00D-01 BMatC= 4.24D-06 BMatP= 8.57D-06
 IDIUse=1 WtCom= 1.00D+00 WtEn= 0.00D+00
 Coeff-Com:  0.587D-01-0.476D+00-0.267D+00 0.909D+00 0.775D+00
 Coeff:      0.587D-01-0.476D+00-0.267D+00 0.909D+00 0.775D+00
 Gap=     0.167 Goal=   None    Shift=    0.000
 RMSDP=4.62D-05 MaxDP=2.25D-03 DE=-2.22D-05 OVMax= 8.74D-03

 Cycle   6  Pass 0  IDiag  1:
 E= -526.568521610440     Delta-E=       -0.000027623600 Rises=F Damp=F
 DIIS: error= 1.02D-04 at cycle   6 NSaved=   6.
 NSaved= 6 IEnMin= 6 EnMin= -526.568521610440     IErMin= 5 ErrMin= 9.86D-05
 ErrMax= 1.02D-04  0.00D+00 EMaxC= 1.00D-01 BMatC= 2.27D-06 BMatP= 4.24D-06
 IDIUse=1 WtCom= 1.00D+00 WtEn= 0.00D+00
 Coeff-Com:  0.527D-01-0.201D+00-0.269D+00-0.189D+00 0.420D+00 0.119D+01
 Coeff:      0.527D-01-0.201D+00-0.269D+00-0.189D+00 0.420D+00 0.119D+01
 Gap=     0.166 Goal=   None    Shift=    0.000
 RMSDP=4.57D-05 MaxDP=2.37D-03 DE=-2.76D-05 OVMax= 8.10D-03

 Cycle   7  Pass 0  IDiag  1:
 E= -526.568537547646     Delta-E=       -0.000015937206 Rises=F Damp=F
 DIIS: error= 3.17D-05 at cycle   7 NSaved=   7.
 NSaved= 7 IEnMin= 7 EnMin= -526.568537547646     IErMin= 7 ErrMin= 3.17D-05
 ErrMax= 3.17D-05  0.00D+00 EMaxC= 1.00D-01 BMatC= 3.65D-07 BMatP= 2.27D-06
 IDIUse=1 WtCom= 1.00D+00 WtEn= 0.00D+00
 Coeff-Com: -0.177D-02 0.104D+00 0.364D-01-0.518D+00-0.119D+00 0.461D+00
 Coeff-Com:  0.104D+01
 Coeff:     -0.177D-02 0.104D+00 0.364D-01-0.518D+00-0.119D+00 0.461D+00
 Coeff:      0.104D+01
 Gap=     0.165 Goal=   None    Shift=    0.000
 RMSDP=2.67D-05 MaxDP=1.42D-03 DE=-1.59D-05 OVMax= 4.70D-03

 Cycle   8  Pass 0  IDiag  1:
 E= -526.568541148674     Delta-E=       -0.000003601028 Rises=F Damp=F
 DIIS: error= 1.14D-05 at cycle   8 NSaved=   8.
 NSaved= 8 IEnMin= 8 EnMin= -526.568541148674     IErMin= 8 ErrMin= 1.14D-05
 ErrMax= 1.14D-05  0.00D+00 EMaxC= 1.00D-01 BMatC= 4.66D-08 BMatP= 3.65D-07
 IDIUse=1 WtCom= 1.00D+00 WtEn= 0.00D+00
 Coeff-Com: -0.127D-01 0.794D-01 0.774D-01-0.836D-01-0.122D+00-0.180D+00
 Coeff-Com:  0.271D+00 0.972D+00
 Coeff:     -0.127D-01 0.794D-01 0.774D-01-0.836D-01-0.122D+00-0.180D+00
 Coeff:      0.271D+00 0.972D+00
 Gap=     0.165 Goal=   None    Shift=    0.000
 RMSDP=5.92D-06 MaxDP=2.35D-04 DE=-3.60D-06 OVMax= 1.00D-03

 Initial convergence to 1.0D-05 achieved.  Increase integral accuracy.
 Cycle   9  Pass 1  IDiag  1:
 E= -526.568534388485     Delta-E=        0.000006760189 Rises=F Damp=F
 DIIS: error= 3.66D-05 at cycle   1 NSaved=   1.
 NSaved= 1 IEnMin= 1 EnMin= -526.568534388485     IErMin= 1 ErrMin= 3.66D-05
 ErrMax= 3.66D-05  0.00D+00 EMaxC= 1.00D-01 BMatC= 4.18D-07 BMatP= 4.18D-07
 IDIUse=1 WtCom= 1.00D+00 WtEn= 0.00D+00
 Coeff-Com:  0.100D+01
 Coeff:      0.100D+01
 Gap=     0.165 Goal=   None    Shift=    0.000
 RMSDP=5.92D-06 MaxDP=2.35D-04 DE= 6.76D-06 OVMax= 1.28D-04

 Cycle  10  Pass 1  IDiag  1:
 E= -526.568534718036     Delta-E=       -0.000000329551 Rises=F Damp=F
 DIIS: error= 4.25D-06 at cycle   2 NSaved=   2.
 NSaved= 2 IEnMin= 2 EnMin= -526.568534718036     IErMin= 2 ErrMin= 4.25D-06
 ErrMax= 4.25D-06  0.00D+00 EMaxC= 1.00D-01 BMatC= 8.19D-09 BMatP= 4.18D-07
 IDIUse=1 WtCom= 1.00D+00 WtEn= 0.00D+00
 Coeff-Com: -0.352D-01 0.104D+01
 Coeff:     -0.352D-01 0.104D+01
 Gap=     0.165 Goal=   None    Shift=    0.000
 RMSDP=1.48D-06 MaxDP=5.36D-05 DE=-3.30D-07 OVMax= 7.71D-05

 Cycle  11  Pass 1  IDiag  1:
 E= -526.568534738061     Delta-E=       -0.000000020025 Rises=F Damp=F
 DIIS: error= 3.26D-06 at cycle   3 NSaved=   3.
 NSaved= 3 IEnMin= 3 EnMin= -526.568534738061     IErMin= 3 ErrMin= 3.26D-06
 ErrMax= 3.26D-06  0.00D+00 EMaxC= 1.00D-01 BMatC= 5.95D-09 BMatP= 8.19D-09
 IDIUse=1 WtCom= 1.00D+00 WtEn= 0.00D+00
 Coeff-Com: -0.280D-01 0.472D+00 0.556D+00
 Coeff:     -0.280D-01 0.472D+00 0.556D+00
 Gap=     0.165 Goal=   None    Shift=    0.000
 RMSDP=2.62D-07 MaxDP=9.47D-06 DE=-2.00D-08 OVMax= 3.47D-05

 Cycle  12  Pass 1  IDiag  1:
 E= -526.568534745020     Delta-E=       -0.000000006959 Rises=F Damp=F
 DIIS: error= 2.25D-06 at cycle   4 NSaved=   4.
 NSaved= 4 IEnMin= 4 EnMin= -526.568534745020     IErMin= 4 ErrMin= 2.25D-06
 ErrMax= 2.25D-06  0.00D+00 EMaxC= 1.00D-01 BMatC= 1.14D-09 BMatP= 5.95D-09
 IDIUse=1 WtCom= 1.00D+00 WtEn= 0.00D+00
 Coeff-Com: -0.330D-02-0.757D-01 0.164D+00 0.915D+00
 Coeff:     -0.330D-02-0.757D-01 0.164D+00 0.915D+00
 Gap=     0.165 Goal=   None    Shift=    0.000
 RMSDP=4.00D-07 MaxDP=1.61D-05 DE=-6.96D-09 OVMax= 5.83D-05

 Cycle  13  Pass 1  IDiag  1:
 E= -526.568534750272     Delta-E=       -0.000000005252 Rises=F Damp=F
 DIIS: error= 2.15D-06 at cycle   5 NSaved=   5.
 NSaved= 5 IEnMin= 5 EnMin= -526.568534750272     IErMin= 5 ErrMin= 2.15D-06
 ErrMax= 2.15D-06  0.00D+00 EMaxC= 1.00D-01 BMatC= 1.14D-09 BMatP= 1.14D-09
 IDIUse=1 WtCom= 1.00D+00 WtEn= 0.00D+00
 Coeff-Com:  0.516D-02-0.177D+00-0.495D-01 0.677D+00 0.545D+00
 Coeff:      0.516D-02-0.177D+00-0.495D-01 0.677D+00 0.545D+00
 Gap=     0.165 Goal=   None    Shift=    0.000
 RMSDP=2.26D-07 MaxDP=9.29D-06 DE=-5.25D-09 OVMax= 3.12D-05

 Cycle  14  Pass 1  IDiag  1:
 E= -526.568534753344     Delta-E=       -0.000000003072 Rises=F Damp=F
 DIIS: error= 8.83D-07 at cycle   6 NSaved=   6.
 NSaved= 6 IEnMin= 6 EnMin= -526.568534753344     IErMin= 6 ErrMin= 8.83D-07
 ErrMax= 8.83D-07  0.00D+00 EMaxC= 1.00D-01 BMatC= 2.38D-10 BMatP= 1.14D-09
 IDIUse=1 WtCom= 1.00D+00 WtEn= 0.00D+00
 Coeff-Com:  0.319D-02-0.123D-01-0.150D+00-0.285D+00 0.955D-02 0.143D+01
 Coeff:      0.319D-02-0.123D-01-0.150D+00-0.285D+00 0.955D-02 0.143D+01
 Gap=     0.165 Goal=   None    Shift=    0.000
 RMSDP=4.59D-07 MaxDP=1.90D-05 DE=-3.07D-09 OVMax= 7.50D-05

 Cycle  15  Pass 1  IDiag  1:
 E= -526.568534756600     Delta-E=       -0.000000003256 Rises=F Damp=F
 DIIS: error= 7.90D-07 at cycle   7 NSaved=   7.
 NSaved= 7 IEnMin= 7 EnMin= -526.568534756600     IErMin= 7 ErrMin= 7.90D-07
 ErrMax= 7.90D-07  0.00D+00 EMaxC= 1.00D-01 BMatC= 1.44D-10 BMatP= 2.38D-10
 IDIUse=1 WtCom= 1.00D+00 WtEn= 0.00D+00
 Coeff-Com: -0.239D-02 0.734D-01-0.278D-01-0.208D+00-0.406D+00 0.418D+00
 Coeff-Com:  0.115D+01
 Coeff:     -0.239D-02 0.734D-01-0.278D-01-0.208D+00-0.406D+00 0.418D+00
 Coeff:      0.115D+01
 Gap=     0.165 Goal=   None    Shift=    0.000
 RMSDP=3.36D-07 MaxDP=1.39D-05 DE=-3.26D-09 OVMax= 5.95D-05

 Cycle  16  Pass 1  IDiag  1:
 E= -526.568534757904     Delta-E=       -0.000000001304 Rises=F Damp=F
 DIIS: error= 5.70D-07 at cycle   8 NSaved=   8.
 NSaved= 8 IEnMin= 8 EnMin= -526.568534757904     IErMin= 8 ErrMin= 5.70D-07
 ErrMax= 5.70D-07  0.00D+00 EMaxC= 1.00D-01 BMatC= 1.02D-10 BMatP= 1.44D-10
 IDIUse=1 WtCom= 1.00D+00 WtEn= 0.00D+00
 Coeff-Com: -0.268D-02 0.578D-01 0.154D-01-0.248D-01-0.376D+00-0.846D-01
 Coeff-Com:  0.823D+00 0.592D+00
 Coeff:     -0.268D-02 0.578D-01 0.154D-01-0.248D-01-0.376D+00-0.846D-01
 Coeff:      0.823D+00 0.592D+00
 Gap=     0.165 Goal=   None    Shift=    0.000
 RMSDP=1.58D-07 MaxDP=8.46D-06 DE=-1.30D-09 OVMax= 2.72D-05

 Cycle  17  Pass 1  IDiag  1:
 E= -526.568534758314     Delta-E=       -0.000000000410 Rises=F Damp=F
 DIIS: error= 3.51D-07 at cycle   9 NSaved=   9.
 NSaved= 9 IEnMin= 9 EnMin= -526.568534758314     IErMin= 9 ErrMin= 3.51D-07
 ErrMax= 3.51D-07  0.00D+00 EMaxC= 1.00D-01 BMatC= 3.31D-11 BMatP= 1.02D-10
 IDIUse=1 WtCom= 1.00D+00 WtEn= 0.00D+00
 Coeff-Com:  0.213D-03-0.209D-01 0.133D-01 0.175D+00-0.458D-02-0.217D+00
 Coeff-Com: -0.303D+00-0.414D+00 0.177D+01
 Coeff:      0.213D-03-0.209D-01 0.133D-01 0.175D+00-0.458D-02-0.217D+00
 Coeff:     -0.303D+00-0.414D+00 0.177D+01
 Gap=     0.165 Goal=   None    Shift=    0.000
 RMSDP=2.27D-07 MaxDP=1.23D-05 DE=-4.10D-10 OVMax= 4.13D-05

 Cycle  18  Pass 1  IDiag  1:
 E= -526.568534758678     Delta-E=       -0.000000000364 Rises=F Damp=F
 DIIS: error= 1.93D-07 at cycle  10 NSaved=  10.
 NSaved=10 IEnMin=10 EnMin= -526.568534758678     IErMin=10 ErrMin= 1.93D-07
 ErrMax= 1.93D-07  0.00D+00 EMaxC= 1.00D-01 BMatC= 1.28D-11 BMatP= 3.31D-11
 IDIUse=1 WtCom= 1.00D+00 WtEn= 0.00D+00
 Coeff-Com:  0.542D-03-0.195D-01-0.139D-02 0.691D-01 0.633D-01-0.154D-01
 Coeff-Com: -0.303D+00-0.631D+00 0.966D+00 0.872D+00
 Coeff:      0.542D-03-0.195D-01-0.139D-02 0.691D-01 0.633D-01-0.154D-01
 Coeff:     -0.303D+00-0.631D+00 0.966D+00 0.872D+00
 Gap=     0.165 Goal=   None    Shift=    0.000
 RMSDP=1.12D-07 MaxDP=6.07D-06 DE=-3.64D-10 OVMax= 2.00D-05

 Cycle  19  Pass 1  IDiag  1:
 E= -526.568534758756     Delta-E=       -0.000000000078 Rises=F Damp=F
 DIIS: error= 4.95D-08 at cycle  11 NSaved=  11.
 NSaved=11 IEnMin=11 EnMin= -526.568534758756     IErMin=11 ErrMin= 4.95D-08
 ErrMax= 4.95D-08  0.00D+00 EMaxC= 1.00D-01 BMatC= 7.99D-13 BMatP= 1.28D-11
 IDIUse=1 WtCom= 1.00D+00 WtEn= 0.00D+00
 Coeff-Com:  0.267D-03-0.362D-02-0.404D-02-0.669D-02 0.145D-01 0.434D-01
 Coeff-Com: -0.351D-01-0.205D+00 0.892D-01 0.195D+00 0.912D+00
 Coeff:      0.267D-03-0.362D-02-0.404D-02-0.669D-02 0.145D-01 0.434D-01
 Coeff:     -0.351D-01-0.205D+00 0.892D-01 0.195D+00 0.912D+00
 Gap=     0.165 Goal=   None    Shift=    0.000
 RMSDP=3.13D-08 MaxDP=1.85D-06 DE=-7.84D-11 OVMax= 5.55D-06

 Cycle  20  Pass 1  IDiag  1:
 E= -526.568534758733     Delta-E=        0.000000000023 Rises=F Damp=F
 DIIS: error= 1.11D-08 at cycle  12 NSaved=  12.
 NSaved=12 IEnMin=11 EnMin= -526.568534758756     IErMin=12 ErrMin= 1.11D-08
 ErrMax= 1.11D-08  0.00D+00 EMaxC= 1.00D-01 BMatC= 6.86D-14 BMatP= 7.99D-13
 IDIUse=1 WtCom= 1.00D+00 WtEn= 0.00D+00
 Coeff-Com: -0.275D-05 0.130D-02-0.120D-02-0.967D-02-0.436D-02 0.185D-01
 Coeff-Com:  0.243D-01-0.134D-01-0.582D-01-0.293D-01 0.290D+00 0.782D+00
 Coeff:     -0.275D-05 0.130D-02-0.120D-02-0.967D-02-0.436D-02 0.185D-01
 Coeff:      0.243D-01-0.134D-01-0.582D-01-0.293D-01 0.290D+00 0.782D+00
 Gap=     0.165 Goal=   None    Shift=    0.000
 RMSDP=2.90D-09 MaxDP=1.81D-07 DE= 2.30D-11 OVMax= 4.69D-07

 SCF Done:  E(RM062X) =  -526.568534759     A.U. after   20 cycles
            NFock= 20  Conv=0.29D-08     -V/T= 2.0037
 KE= 5.246378087601D+02 PE=-1.924613641890D+03 EE= 5.349493930957D+02
 Leave Link  502 at Sun May 25 03:54:19 2025, MaxMem=  3758096384 cpu:              56.8 elap:              11.4
 (Enter /apps/easybuild-2022/easybuild/software/Compiler/NVHPC/22.11-CUDA-11.7.0/Gaussian/g16c01-CUDA-11.7.0/g16/l508.exe)
 QCSCF skips out because SCF is already converged.
 Leave Link  508 at Sun May 25 03:54:19 2025, MaxMem=  3758096384 cpu:               0.1 elap:               0.0
 (Enter /apps/easybuild-2022/easybuild/software/Compiler/NVHPC/22.11-CUDA-11.7.0/Gaussian/g16c01-CUDA-11.7.0/g16/l801.exe)
 DoSCS=F DFT=T ScalE2(SS,OS)=  1.000000  1.000000
 Range of M.O.s used for correlation:     1   231
 NBasis=   231 NAE=    28 NBE=    28 NFC=     0 NFV=     0
 NROrb=    231 NOA=    28 NOB=    28 NVA=   203 NVB=   203

 **** Warning!!: The largest alpha MO coefficient is  0.16825031D+02

 Leave Link  801 at Sun May 25 03:54:20 2025, MaxMem=  3758096384 cpu:               0.0 elap:               0.0
 (Enter /apps/easybuild-2022/easybuild/software/Compiler/NVHPC/22.11-CUDA-11.7.0/Gaussian/g16c01-CUDA-11.7.0/g16/l1101.exe)
 Leave Link 1101 at Sun May 25 03:54:20 2025, MaxMem=  3758096384 cpu:               0.1 elap:               0.0
 (Enter /apps/easybuild-2022/easybuild/software/Compiler/NVHPC/22.11-CUDA-11.7.0/Gaussian/g16c01-CUDA-11.7.0/g16/l1102.exe)
 Symmetrizing basis deriv contribution to polar:
 IMax=3 JMax=2 DiffMx= 0.00D+00
 Leave Link 1102 at Sun May 25 03:54:20 2025, MaxMem=  3758096384 cpu:               0.1 elap:               0.0
 (Enter /apps/easybuild-2022/easybuild/software/Compiler/NVHPC/22.11-CUDA-11.7.0/Gaussian/g16c01-CUDA-11.7.0/g16/l1110.exe)
 Leave Link 1110 at Sun May 25 03:54:20 2025, MaxMem=  3758096384 cpu:               0.1 elap:               0.0
 (Enter /apps/easybuild-2022/easybuild/software/Compiler/NVHPC/22.11-CUDA-11.7.0/Gaussian/g16c01-CUDA-11.7.0/g16/l1002.exe)
 Minotr:  Closed shell wavefunction.
 Leave Link 1002 at Sun May 25 03:54:20 2025, MaxMem=  3758096384 cpu:               0.1 elap:               0.0
 (Enter /apps/easybuild-2022/easybuild/software/Compiler/NVHPC/22.11-CUDA-11.7.0/Gaussian/g16c01-CUDA-11.7.0/g16/l701.exe)
 ... and contract with generalized density number  0.
 Compute integral first derivatives.
   1 Symmetry operations used in ECPInt.
 ECPInt:  NShTT=    3486 NPrTT=   11183 LenC2=    3402 LenP2D=    8731.
 LDataN:  DoStor=T MaxTD1= 7 Len=  274
 Leave Link  701 at Sun May 25 03:54:20 2025, MaxMem=  3758096384 cpu:               0.5 elap:               0.1
 (Enter /apps/easybuild-2022/easybuild/software/Compiler/NVHPC/22.11-CUDA-11.7.0/Gaussian/g16c01-CUDA-11.7.0/g16/l702.exe)
 L702 exits ... SP integral derivatives will be done elsewhere.
 Leave Link  702 at Sun May 25 03:54:20 2025, MaxMem=  3758096384 cpu:               0.1 elap:               0.0
 (Enter /apps/easybuild-2022/easybuild/software/Compiler/NVHPC/22.11-CUDA-11.7.0/Gaussian/g16c01-CUDA-11.7.0/g16/l703.exe)
 Integral derivatives from FoFJK, PRISM(SPDF).
 Compute integral first derivatives, UseDBF=F ICtDFT=           0.
 Calling FoFJK, ICntrl=      2127 FMM=F ISym2X=0 I1Cent= 0 IOpClX= 0 NMat=1 NMatS=1 NMatT=0.
 FoFJK:  IHMeth= 1 ICntrl=    2127 DoSepK=F KAlg= 0 I1Cent=           0 FoldK=F
 IRaf=         0 NMat=       1 IRICut=       1 DoRegI=T DoRafI=F ISym2E= 0 IDoP0=0 IntGTp=1.
 FoFCou: FMM=F IPFlag=           0 FMFlag=      100000 FMFlg1=         800
         NFxFlg=           0 DoJE=F BraDBF=F KetDBF=F FulRan=T
         wScrn=  0.000000 ICntrl=      2127 IOpCl=  0 I1Cent=           0 NGrid=           0
         NMat0=    1 NMatS0=      1 NMatT0=    0 NMatD0=    1 NMtDS0=    0 NMtDT0=    0
 Symmetry not used in FoFCou.
 Leave Link  703 at Sun May 25 03:54:23 2025, MaxMem=  3758096384 cpu:              22.1 elap:               2.9
 (Enter /apps/easybuild-2022/easybuild/software/Compiler/NVHPC/22.11-CUDA-11.7.0/Gaussian/g16c01-CUDA-11.7.0/g16/l716.exe)
 Dipole        = 1.14917658D+00 7.35295308D-01 1.87285419D-02
 Polarizability= 0.00000000D+00 0.00000000D+00 0.00000000D+00
                 0.00000000D+00 0.00000000D+00 0.00000000D+00
 -------------------------------------------------------------------
 Center     Atomic                   Forces (Hartrees/Bohr)
 Number     Number              X              Y              Z
 -------------------------------------------------------------------
      1        6          -0.006776502   -0.010727690    0.018238571
      2        8          -0.002195978    0.023152647    0.001523384
      3        6           0.001644722    0.000363662   -0.001127240
      4        9          -0.000089630    0.000177253   -0.000122737
      5        9          -0.000988745    0.000413281   -0.001677906
      6        9          -0.000257755   -0.000057643   -0.000422368
      7        8           0.009030254   -0.014099647   -0.017666420
      8        1          -0.000366366    0.000778137    0.001254716
 -------------------------------------------------------------------
 Cartesian Forces:  Max     0.023152647 RMS     0.008266333
 Leave Link  716 at Sun May 25 03:54:23 2025, MaxMem=  3758096384 cpu:               0.0 elap:               0.0
 (Enter /apps/easybuild-2022/easybuild/software/Compiler/NVHPC/22.11-CUDA-11.7.0/Gaussian/g16c01-CUDA-11.7.0/g16/l123.exe)
 IRC-IRC-IRC-IRC-IRC-IRC-IRC-IRC-IRC-IRC-IRC-IRC-IRC-IRC-IRC-IRC-IRC-IRC
 Pt  2 Step number   1 out of a maximum of  20
 Using modified Bulirsch-Stoer corrector integration.
   Using distance weighted interpolants to fit PES.
 PreDWI: IReCr0= 2 IReCr1= 1 IReCr2= 1 IReCr3= 1
 Modified Bulirsch-Stoer Extrapolation Cycles:
    EPS =    0.000010000000000
    Cycle     1 NS=    48
      PEZero:  N= 2 I= 1 D=  3.55D-04 Err=  6.78D-06
    Cycle     2 NS=    64 Truncation Error =  0.000006782
 BS completed in    2 cycles and     112 integration steps.
 Maximum DWI energy   std dev =  0.000000238 at pt    36
 Maximum DWI gradient std dev =  0.012796974 at pt    36
 SUMMARY OF CORRECTOR INTEGRATION:
   Predictor End Point Energy =  -526.568535
   Old End Point Energy       =  -526.568535
   Corrected End Point Energy =  -526.568535
   Predictor End-Start Dist.  =     0.068163
   Old End-Start Dist.        =     0.068163
   New End-Start Dist.        =     0.068158
   New End-Old End Dist.      =     0.000942
 CORRECTOR INTEGRATION CONVERGENCE:
   Recorrection delta-x convergence threshold:    0.010000
   Delta-x Convergence Met
 Point Number:   2          Path Number:   1
                    CURRENT STRUCTURE
                Cartesian Coordinates (Ang):                
 ---------------------------------------------------------------------
 Center     Atomic                     Coordinates (Angstroms)
 Number     Number                        X           Y           Z
 ---------------------------------------------------------------------
      1          6                    0.918913   -0.138125    0.498399
      2          8                    1.742052   -0.505717   -0.652989
      3          6                   -0.556652   -0.116725    0.142293
      4          9                   -1.186457    0.712192    0.974837
      5          9                   -0.825440    0.291539   -1.103067
      6          9                   -1.059360   -1.338123    0.285710
      7          8                    1.484079    1.025546   -0.035408
      8          1                    2.381505    1.087954    0.328160
 ---------------------------------------------------------------------
   CHANGE IN THE REACTION COORDINATE =    0.06816
   NET REACTION COORDINATE UP TO THIS POINT =    0.13634
  # OF POINTS ALONG THE PATH =   2
  # OF STEPS =   1

 Calculating another point on the path.
 Point Number  3 in REVERSE path direction.
 Using LQA Reaction Path Following.
   LQA: T_Est iteration completed in    3 iterations.
 IRC-IRC-IRC-IRC-IRC-IRC-IRC-IRC-IRC-IRC-IRC-IRC-IRC-IRC-IRC-IRC-IRC-IRC
 Leave Link  123 at Sun May 25 03:54:23 2025, MaxMem=  3758096384 cpu:               0.1 elap:               0.0
 (Enter /apps/easybuild-2022/easybuild/software/Compiler/NVHPC/22.11-CUDA-11.7.0/Gaussian/g16c01-CUDA-11.7.0/g16/l202.exe)
                          Input orientation:                          
 ---------------------------------------------------------------------
 Center     Atomic      Atomic             Coordinates (Angstroms)
 Number     Number       Type             X           Y           Z
 ---------------------------------------------------------------------
      1          6           0        0.917012   -0.141142    0.503503
      2          8           0        1.741582   -0.500851   -0.652661
      3          6           0       -0.556187   -0.116624    0.141978
      4          9           0       -1.186469    0.712223    0.974814
      5          9           0       -0.825616    0.291612   -1.103364
      6          9           0       -1.059407   -1.338135    0.285635
      7          8           0        1.485968    1.022595   -0.039134
      8          1           0        2.380525    1.090587    0.332519
 ---------------------------------------------------------------------
                    Distance matrix (angstroms):
                    1          2          3          4          5
     1  C    0.000000
     2  O    1.464931   0.000000
     3  C    1.517108   2.461468   0.000000
     4  F    2.318404   3.562823   1.333364   0.000000
     5  F    2.409575   2.724268   1.337955   2.150803   0.000000
     6  F    2.320881   3.070340   1.328893   2.166813   2.154078
     7  O    1.404439   1.662119   2.345425   2.875125   2.647705
     8  H    1.920486   1.977752   3.180872   3.644057   3.602702
                    6          7          8
     6  F    0.000000
     7  O    3.486754   0.000000
     8  H    4.211179   0.971072   0.000000
 Symmetry turned off by external request.
 Stoichiometry    C2HF3O2
 Rotational constants (GHZ):           4.4850752           2.3237880           2.1082071
 Leave Link  202 at Sun May 25 03:54:23 2025, MaxMem=  3758096384 cpu:               0.1 elap:               0.0
 (Enter /apps/easybuild-2022/easybuild/software/Compiler/NVHPC/22.11-CUDA-11.7.0/Gaussian/g16c01-CUDA-11.7.0/g16/l301.exe)
 Standard basis: def2TZVPP (5D, 7F)
 Ernie: Thresh=  0.10000D-02 Tol=  0.10000D-05 Strict=F.
   231 basis functions,   374 primitive gaussians,   267 cartesian basis functions
    28 alpha electrons       28 beta electrons
       nuclear repulsion energy       338.4752044210 Hartrees.
 IExCor= 4336 DFT=T Ex+Corr=M062X ExCW=0 ScaHFX=  0.540000
 ScaDFX=  1.000000  1.000000  1.000000  1.000000 ScalE2=  1.000000  1.000000
 IRadAn=      5 IRanWt=     -1 IRanGd=            0 ICorTp=0 IEmpDi=  4
 NAtoms=    8 NActive=    8 NUniq=    8 SFac= 1.00D+00 NAtFMM=   60 NAOKFM=F Big=F
 Integral buffers will be    131072 words long.
 Raffenetti 2 integral format.
 Two-electron integral symmetry is turned off.
 Leave Link  301 at Sun May 25 03:54:23 2025, MaxMem=  3758096384 cpu:               0.1 elap:               0.1
 (Enter /apps/easybuild-2022/easybuild/software/Compiler/NVHPC/22.11-CUDA-11.7.0/Gaussian/g16c01-CUDA-11.7.0/g16/l302.exe)
 NPDir=0 NMtPBC=     1 NCelOv=     1 NCel=       1 NClECP=     1 NCelD=      1
         NCelK=      1 NCelE2=     1 NClLst=     1 CellRange=     0.0.
 One-electron integrals computed using PRISM.
   1 Symmetry operations used in ECPInt.
 ECPInt:  NShTT=    3486 NPrTT=   11183 LenC2=    3402 LenP2D=    8730.
 LDataN:  DoStor=T MaxTD1= 6 Len=  172
 NBasis=   231 RedAO= T EigKep=  5.49D-04  NBF=   231
 NBsUse=   231 1.00D-06 EigRej= -1.00D+00 NBFU=   231
 Precomputing XC quadrature grid using
 IXCGrd= 4 IRadAn=           5 IRanWt=          -1 IRanGd=           0 AccXCQ= 0.00D+00.
 Generated NRdTot=       0 NPtTot=           0 NUsed=           0 NTot=          32
 NSgBfM=   266   266   266   266   266 MxSgAt=     8 MxSgA2=     8.
 Leave Link  302 at Sun May 25 03:54:23 2025, MaxMem=  3758096384 cpu:               0.6 elap:               0.2
 (Enter /apps/easybuild-2022/easybuild/software/Compiler/NVHPC/22.11-CUDA-11.7.0/Gaussian/g16c01-CUDA-11.7.0/g16/l303.exe)
 DipDrv:  MaxL=1.
 Leave Link  303 at Sun May 25 03:54:23 2025, MaxMem=  3758096384 cpu:               0.1 elap:               0.0
 (Enter /apps/easybuild-2022/easybuild/software/Compiler/NVHPC/22.11-CUDA-11.7.0/Gaussian/g16c01-CUDA-11.7.0/g16/l401.exe)
 Initial guess from the checkpoint file:  "1141903082400600000001_r12_insertion_R_7_1_2_IRC_R.chk"
 B after Tr=    -0.000013    0.000042    0.000076
         Rot=    1.000000   -0.000010    0.000023   -0.000015 Ang=  -0.00 deg.
 Guess basis will be translated and rotated to current coordinates.
 JPrj=2 DoOrth=T DoCkMO=T.
 Generating alternative initial guess.
 ExpMin= 9.52D-02 ExpMax= 3.55D+04 ExpMxC= 1.21D+03 IAcc=3 IRadAn=         5 AccDes= 0.00D+00
 Harris functional with IExCor= 1009 and IRadAn=       5 diagonalized for initial guess.
 HarFok:  IExCor= 1009 AccDes= 0.00D+00 IRadAn=         5 IDoV= 1 UseB2=F ITyADJ=14
 ICtDFT=  3500011 ScaDFX=  1.000000  1.000000  1.000000  1.000000
 FoFCou: FMM=F IPFlag=           0 FMFlag=      100000 FMFlg1=           0
         NFxFlg=           0 DoJE=T BraDBF=F KetDBF=T FulRan=T
         wScrn=  0.000000 ICntrl=       500 IOpCl=  0 I1Cent=   200000004 NGrid=           0
         NMat0=    1 NMatS0=      1 NMatT0=    0 NMatD0=    1 NMtDS0=    0 NMtDT0=    0
 Symmetry not used in FoFCou.
 Harris En= -526.264775362892    
 Leave Link  401 at Sun May 25 03:54:23 2025, MaxMem=  3758096384 cpu:               1.8 elap:               0.3
 (Enter /apps/easybuild-2022/easybuild/software/Compiler/NVHPC/22.11-CUDA-11.7.0/Gaussian/g16c01-CUDA-11.7.0/g16/l502.exe)
 Keep R1 ints in memory in canonical form, NReq=368651279.
 FoFCou: FMM=F IPFlag=           0 FMFlag=           0 FMFlg1=           0
         NFxFlg=           0 DoJE=F BraDBF=F KetDBF=F FulRan=T
         wScrn=  0.000000 ICntrl=       600 IOpCl=  0 I1Cent=           0 NGrid=           0
         NMat0=    1 NMatS0=  26796 NMatT0=    0 NMatD0=    1 NMtDS0=    0 NMtDT0=    0
 Symmetry not used in FoFCou.
 Two-electron integral symmetry not used.
 Closed shell SCF:
 Using DIIS extrapolation, IDIIS=  1040.
 NGot=  3758096384 LenX=  3398923531 LenY=  3398851801
 Requested convergence on RMS density matrix=1.00D-08 within  32 cycles.
 Requested convergence on MAX density matrix=1.00D-06.
 Requested convergence on             energy=1.00D-06.
 No special actions if energy rises.
 Integral accuracy reduced to 1.0D-05 until final iterations.

 Cycle   1  Pass 0  IDiag  1:
 E= -526.569155483881    
 DIIS: error= 3.65D-04 at cycle   1 NSaved=   1.
 NSaved= 1 IEnMin= 1 EnMin= -526.569155483881     IErMin= 1 ErrMin= 3.65D-04
 ErrMax= 3.65D-04  0.00D+00 EMaxC= 1.00D-01 BMatC= 6.16D-05 BMatP= 6.16D-05
 IDIUse=3 WtCom= 9.96D-01 WtEn= 3.65D-03
 Coeff-Com:  0.100D+01
 Coeff-En:   0.100D+01
 Coeff:      0.100D+01
 Gap=     1.062 Goal=   None    Shift=    0.000
 RMSDP=6.72D-05 MaxDP=2.10D-03              OVMax= 1.21D-02

 Cycle   2  Pass 0  IDiag  1:
 E= -526.569301437820     Delta-E=       -0.000145953939 Rises=F Damp=F
 DIIS: error= 2.66D-04 at cycle   2 NSaved=   2.
 NSaved= 2 IEnMin= 2 EnMin= -526.569301437820     IErMin= 2 ErrMin= 2.66D-04
 ErrMax= 2.66D-04  0.00D+00 EMaxC= 1.00D-01 BMatC= 2.39D-05 BMatP= 6.16D-05
 IDIUse=3 WtCom= 9.97D-01 WtEn= 2.66D-03
 Coeff-Com:  0.212D+00 0.788D+00
 Coeff-En:   0.000D+00 0.100D+01
 Coeff:      0.212D+00 0.788D+00
 Gap=     0.167 Goal=   None    Shift=    0.000
 RMSDP=3.02D-05 MaxDP=1.87D-03 DE=-1.46D-04 OVMax= 3.72D-03

 Cycle   3  Pass 0  IDiag  1:
 E= -526.569341928133     Delta-E=       -0.000040490313 Rises=F Damp=F
 DIIS: error= 1.91D-04 at cycle   3 NSaved=   3.
 NSaved= 3 IEnMin= 3 EnMin= -526.569341928133     IErMin= 3 ErrMin= 1.91D-04
 ErrMax= 1.91D-04  0.00D+00 EMaxC= 1.00D-01 BMatC= 7.57D-06 BMatP= 2.39D-05
 IDIUse=3 WtCom= 9.98D-01 WtEn= 1.91D-03
 Coeff-Com: -0.725D-01 0.336D+00 0.737D+00
 Coeff-En:   0.000D+00 0.000D+00 0.100D+01
 Coeff:     -0.723D-01 0.335D+00 0.737D+00
 Gap=     0.168 Goal=   None    Shift=    0.000
 RMSDP=3.79D-05 MaxDP=1.28D-03 DE=-4.05D-05 OVMax= 7.53D-03

 Cycle   4  Pass 0  IDiag  1:
 E= -526.569376825736     Delta-E=       -0.000034897603 Rises=F Damp=F
 DIIS: error= 1.49D-04 at cycle   4 NSaved=   4.
 NSaved= 4 IEnMin= 4 EnMin= -526.569376825736     IErMin= 4 ErrMin= 1.49D-04
 ErrMax= 1.49D-04  0.00D+00 EMaxC= 1.00D-01 BMatC= 7.69D-06 BMatP= 7.57D-06
 IDIUse=3 WtCom= 9.99D-01 WtEn= 1.49D-03
 Coeff-Com:  0.204D-02-0.310D+00 0.389D+00 0.919D+00
 Coeff-En:   0.000D+00 0.000D+00 0.000D+00 0.100D+01
 Coeff:      0.203D-02-0.309D+00 0.388D+00 0.919D+00
 Gap=     0.167 Goal=   None    Shift=    0.000
 RMSDP=3.40D-05 MaxDP=1.86D-03 DE=-3.49D-05 OVMax= 6.01D-03

 Cycle   5  Pass 0  IDiag  1:
 E= -526.569404913406     Delta-E=       -0.000028087670 Rises=F Damp=F
 DIIS: error= 1.21D-04 at cycle   5 NSaved=   5.
 NSaved= 5 IEnMin= 5 EnMin= -526.569404913406     IErMin= 5 ErrMin= 1.21D-04
 ErrMax= 1.21D-04  0.00D+00 EMaxC= 1.00D-01 BMatC= 3.93D-06 BMatP= 7.57D-06
 IDIUse=3 WtCom= 9.99D-01 WtEn= 1.21D-03
 Coeff-Com:  0.624D-01-0.579D+00 0.639D-01 0.538D+00 0.915D+00
 Coeff-En:   0.000D+00 0.000D+00 0.000D+00 0.000D+00 0.100D+01
 Coeff:      0.623D-01-0.578D+00 0.639D-01 0.537D+00 0.915D+00
 Gap=     0.167 Goal=   None    Shift=    0.000
 RMSDP=4.31D-05 MaxDP=2.24D-03 DE=-2.81D-05 OVMax= 7.82D-03

 Cycle   6  Pass 0  IDiag  1:
 E= -526.569429785454     Delta-E=       -0.000024872047 Rises=F Damp=F
 DIIS: error= 1.03D-04 at cycle   6 NSaved=   6.
 NSaved= 6 IEnMin= 6 EnMin= -526.569429785454     IErMin= 6 ErrMin= 1.03D-04
 ErrMax= 1.03D-04  0.00D+00 EMaxC= 1.00D-01 BMatC= 2.24D-06 BMatP= 3.93D-06
 IDIUse=3 WtCom= 9.99D-01 WtEn= 1.03D-03
 Coeff-Com:  0.507D-01-0.241D+00-0.923D-01-0.606D+00 0.805D+00 0.108D+01
 Coeff-En:   0.000D+00 0.000D+00 0.000D+00 0.000D+00 0.000D+00 0.100D+01
 Coeff:      0.506D-01-0.241D+00-0.922D-01-0.605D+00 0.804D+00 0.108D+01
 Gap=     0.166 Goal=   None    Shift=    0.000
 RMSDP=5.36D-05 MaxDP=2.66D-03 DE=-2.49D-05 OVMax= 9.66D-03

 Cycle   7  Pass 0  IDiag  1:
 E= -526.569448855720     Delta-E=       -0.000019070266 Rises=F Damp=F
 DIIS: error= 3.09D-05 at cycle   7 NSaved=   7.
 NSaved= 7 IEnMin= 7 EnMin= -526.569448855720     IErMin= 7 ErrMin= 3.09D-05
 ErrMax= 3.09D-05  0.00D+00 EMaxC= 1.00D-01 BMatC= 3.39D-07 BMatP= 2.24D-06
 IDIUse=1 WtCom= 1.00D+00 WtEn= 0.00D+00
 Coeff-Com: -0.465D-02 0.150D+00-0.242D-01-0.634D+00 0.388D-01 0.443D+00
 Coeff-Com:  0.103D+01
 Coeff:     -0.465D-02 0.150D+00-0.242D-01-0.634D+00 0.388D-01 0.443D+00
 Coeff:      0.103D+01
 Gap=     0.165 Goal=   None    Shift=    0.000
 RMSDP=3.33D-05 MaxDP=1.67D-03 DE=-1.91D-05 OVMax= 6.01D-03

 Cycle   8  Pass 0  IDiag  1:
 E= -526.569453682952     Delta-E=       -0.000004827232 Rises=F Damp=F
 DIIS: error= 1.13D-05 at cycle   8 NSaved=   8.
 NSaved= 8 IEnMin= 8 EnMin= -526.569453682952     IErMin= 8 ErrMin= 1.13D-05
 ErrMax= 1.13D-05  0.00D+00 EMaxC= 1.00D-01 BMatC= 5.54D-08 BMatP= 3.39D-07
 IDIUse=1 WtCom= 1.00D+00 WtEn= 0.00D+00
 Coeff-Com: -0.135D-01 0.102D+00 0.213D-01-0.111D-01-0.172D+00-0.192D+00
 Coeff-Com:  0.269D+00 0.998D+00
 Coeff:     -0.135D-01 0.102D+00 0.213D-01-0.111D-01-0.172D+00-0.192D+00
 Coeff:      0.269D+00 0.998D+00
 Gap=     0.165 Goal=   None    Shift=    0.000
 RMSDP=9.25D-06 MaxDP=3.74D-04 DE=-4.83D-06 OVMax= 1.65D-03

 Initial convergence to 1.0D-05 achieved.  Increase integral accuracy.
 Cycle   9  Pass 1  IDiag  1:
 E= -526.569446734424     Delta-E=        0.000006948528 Rises=F Damp=F
 DIIS: error= 3.73D-05 at cycle   1 NSaved=   1.
 NSaved= 1 IEnMin= 1 EnMin= -526.569446734424     IErMin= 1 ErrMin= 3.73D-05
 ErrMax= 3.73D-05  0.00D+00 EMaxC= 1.00D-01 BMatC= 4.17D-07 BMatP= 4.17D-07
 IDIUse=1 WtCom= 1.00D+00 WtEn= 0.00D+00
 Coeff-Com:  0.100D+01
 Coeff:      0.100D+01
 Gap=     0.165 Goal=   None    Shift=    0.000
 RMSDP=9.25D-06 MaxDP=3.74D-04 DE= 6.95D-06 OVMax= 1.40D-04

 Cycle  10  Pass 1  IDiag  1:
 E= -526.569447069448     Delta-E=       -0.000000335025 Rises=F Damp=F
 DIIS: error= 4.80D-06 at cycle   2 NSaved=   2.
 NSaved= 2 IEnMin= 2 EnMin= -526.569447069448     IErMin= 2 ErrMin= 4.80D-06
 ErrMax= 4.80D-06  0.00D+00 EMaxC= 1.00D-01 BMatC= 1.08D-08 BMatP= 4.17D-07
 IDIUse=1 WtCom= 1.00D+00 WtEn= 0.00D+00
 Coeff-Com: -0.254D-01 0.103D+01
 Coeff:     -0.254D-01 0.103D+01
 Gap=     0.165 Goal=   None    Shift=    0.000
 RMSDP=1.60D-06 MaxDP=5.40D-05 DE=-3.35D-07 OVMax= 1.34D-04

 Cycle  11  Pass 1  IDiag  1:
 E= -526.569447091135     Delta-E=       -0.000000021687 Rises=F Damp=F
 DIIS: error= 6.46D-06 at cycle   3 NSaved=   3.
 NSaved= 3 IEnMin= 3 EnMin= -526.569447091135     IErMin= 2 ErrMin= 4.80D-06
 ErrMax= 6.46D-06  0.00D+00 EMaxC= 1.00D-01 BMatC= 1.55D-08 BMatP= 1.08D-08
 IDIUse=1 WtCom= 1.00D+00 WtEn= 0.00D+00
 Coeff-Com: -0.326D-01 0.591D+00 0.442D+00
 Coeff:     -0.326D-01 0.591D+00 0.442D+00
 Gap=     0.165 Goal=   None    Shift=    0.000
 RMSDP=3.33D-07 MaxDP=1.50D-05 DE=-2.17D-08 OVMax= 3.84D-05

 Cycle  12  Pass 1  IDiag  1:
 E= -526.569447104958     Delta-E=       -0.000000013823 Rises=F Damp=F
 DIIS: error= 2.69D-06 at cycle   4 NSaved=   4.
 NSaved= 4 IEnMin= 4 EnMin= -526.569447104958     IErMin= 4 ErrMin= 2.69D-06
 ErrMax= 2.69D-06  0.00D+00 EMaxC= 1.00D-01 BMatC= 1.66D-09 BMatP= 1.08D-08
 IDIUse=1 WtCom= 1.00D+00 WtEn= 0.00D+00
 Coeff-Com: -0.107D-01 0.569D-01 0.109D+00 0.845D+00
 Coeff:     -0.107D-01 0.569D-01 0.109D+00 0.845D+00
 Gap=     0.165 Goal=   None    Shift=    0.000
 RMSDP=4.83D-07 MaxDP=2.09D-05 DE=-1.38D-08 OVMax= 7.63D-05

 Cycle  13  Pass 1  IDiag  1:
 E= -526.569447112966     Delta-E=       -0.000000008008 Rises=F Damp=F
 DIIS: error= 2.73D-06 at cycle   5 NSaved=   5.
 NSaved= 5 IEnMin= 5 EnMin= -526.569447112966     IErMin= 4 ErrMin= 2.69D-06
 ErrMax= 2.73D-06  0.00D+00 EMaxC= 1.00D-01 BMatC= 1.85D-09 BMatP= 1.66D-09
 IDIUse=1 WtCom= 1.00D+00 WtEn= 0.00D+00
 Coeff-Com:  0.616D-02-0.203D+00-0.191D+00 0.655D+00 0.732D+00
 Coeff:      0.616D-02-0.203D+00-0.191D+00 0.655D+00 0.732D+00
 Gap=     0.165 Goal=   None    Shift=    0.000
 RMSDP=4.91D-07 MaxDP=1.98D-05 DE=-8.01D-09 OVMax= 7.95D-05

 Cycle  14  Pass 1  IDiag  1:
 E= -526.569447120705     Delta-E=       -0.000000007738 Rises=F Damp=F
 DIIS: error= 1.28D-06 at cycle   6 NSaved=   6.
 NSaved= 6 IEnMin= 6 EnMin= -526.569447120705     IErMin= 6 ErrMin= 1.28D-06
 ErrMax= 1.28D-06  0.00D+00 EMaxC= 1.00D-01 BMatC= 6.22D-10 BMatP= 1.66D-09
 IDIUse=1 WtCom= 1.00D+00 WtEn= 0.00D+00
 Coeff-Com:  0.518D-02-0.582D-01-0.202D+00-0.118D+00 0.136D+00 0.124D+01
 Coeff:      0.518D-02-0.582D-01-0.202D+00-0.118D+00 0.136D+00 0.124D+01
 Gap=     0.165 Goal=   None    Shift=    0.000
 RMSDP=6.44D-07 MaxDP=2.87D-05 DE=-7.74D-09 OVMax= 1.10D-04

 Cycle  15  Pass 1  IDiag  1:
 E= -526.569447127201     Delta-E=       -0.000000006496 Rises=F Damp=F
 DIIS: error= 1.03D-06 at cycle   7 NSaved=   7.
 NSaved= 7 IEnMin= 7 EnMin= -526.569447127201     IErMin= 7 ErrMin= 1.03D-06
 ErrMax= 1.03D-06  0.00D+00 EMaxC= 1.00D-01 BMatC= 2.95D-10 BMatP= 6.22D-10
 IDIUse=1 WtCom= 1.00D+00 WtEn= 0.00D+00
 Coeff-Com: -0.140D-02 0.769D-01-0.720D-01-0.211D+00-0.302D+00 0.334D+00
 Coeff-Com:  0.118D+01
 Coeff:     -0.140D-02 0.769D-01-0.720D-01-0.211D+00-0.302D+00 0.334D+00
 Coeff:      0.118D+01
 Gap=     0.165 Goal=   None    Shift=    0.000
 RMSDP=6.11D-07 MaxDP=2.53D-05 DE=-6.50D-09 OVMax= 1.11D-04

 Cycle  16  Pass 1  IDiag  1:
 E= -526.569447130958     Delta-E=       -0.000000003757 Rises=F Damp=F
 DIIS: error= 8.92D-07 at cycle   8 NSaved=   8.
 NSaved= 8 IEnMin= 8 EnMin= -526.569447130958     IErMin= 8 ErrMin= 8.92D-07
 ErrMax= 8.92D-07  0.00D+00 EMaxC= 1.00D-01 BMatC= 2.56D-10 BMatP= 2.95D-10
 IDIUse=1 WtCom= 1.00D+00 WtEn= 0.00D+00
 Coeff-Com: -0.354D-02 0.728D-01 0.346D-02 0.518D-01-0.249D+00-0.569D+00
 Coeff-Com:  0.821D+00 0.873D+00
 Coeff:     -0.354D-02 0.728D-01 0.346D-02 0.518D-01-0.249D+00-0.569D+00
 Coeff:      0.821D+00 0.873D+00
 Gap=     0.165 Goal=   None    Shift=    0.000
 RMSDP=4.47D-07 MaxDP=2.20D-05 DE=-3.76D-09 OVMax= 8.01D-05

 Cycle  17  Pass 1  IDiag  1:
 E= -526.569447132775     Delta-E=       -0.000000001817 Rises=F Damp=F
 DIIS: error= 4.71D-07 at cycle   9 NSaved=   9.
 NSaved= 9 IEnMin= 9 EnMin= -526.569447132775     IErMin= 9 ErrMin= 4.71D-07
 ErrMax= 4.71D-07  0.00D+00 EMaxC= 1.00D-01 BMatC= 7.15D-11 BMatP= 2.56D-10
 IDIUse=1 WtCom= 1.00D+00 WtEn= 0.00D+00
 Coeff-Com:  0.723D-03-0.393D-01-0.108D-01 0.209D+00 0.134D+00-0.271D+00
 Coeff-Com: -0.342D+00-0.621D+00 0.194D+01
 Coeff:      0.723D-03-0.393D-01-0.108D-01 0.209D+00 0.134D+00-0.271D+00
 Coeff:     -0.342D+00-0.621D+00 0.194D+01
 Gap=     0.165 Goal=   None    Shift=    0.000
 RMSDP=4.68D-07 MaxDP=2.39D-05 DE=-1.82D-09 OVMax= 8.58D-05

 Cycle  18  Pass 1  IDiag  1:
 E= -526.569447133697     Delta-E=       -0.000000000922 Rises=F Damp=F
 DIIS: error= 1.78D-07 at cycle  10 NSaved=  10.
 NSaved=10 IEnMin=10 EnMin= -526.569447133697     IErMin=10 ErrMin= 1.78D-07
 ErrMax= 1.78D-07  0.00D+00 EMaxC= 1.00D-01 BMatC= 1.08D-11 BMatP= 7.15D-11
 IDIUse=1 WtCom= 1.00D+00 WtEn= 0.00D+00
 Coeff-Com:  0.660D-03-0.208D-01-0.108D-01 0.468D-01 0.677D-01 0.368D-01
 Coeff-Com: -0.171D+00-0.492D+00 0.608D+00 0.935D+00
 Coeff:      0.660D-03-0.208D-01-0.108D-01 0.468D-01 0.677D-01 0.368D-01
 Coeff:     -0.171D+00-0.492D+00 0.608D+00 0.935D+00
 Gap=     0.165 Goal=   None    Shift=    0.000
 RMSDP=1.49D-07 MaxDP=7.46D-06 DE=-9.22D-10 OVMax= 2.73D-05

 Cycle  19  Pass 1  IDiag  1:
 E= -526.569447133791     Delta-E=       -0.000000000093 Rises=F Damp=F
 DIIS: error= 4.85D-08 at cycle  11 NSaved=  11.
 NSaved=11 IEnMin=11 EnMin= -526.569447133791     IErMin=11 ErrMin= 4.85D-08
 ErrMax= 4.85D-08  0.00D+00 EMaxC= 1.00D-01 BMatC= 1.07D-12 BMatP= 1.08D-11
 IDIUse=1 WtCom= 1.00D+00 WtEn= 0.00D+00
 Coeff-Com:  0.302D-03-0.325D-02-0.481D-02-0.100D-01 0.616D-02 0.487D-01
 Coeff-Com:  0.350D-03-0.123D+00-0.384D-01 0.304D+00 0.820D+00
 Coeff:      0.302D-03-0.325D-02-0.481D-02-0.100D-01 0.616D-02 0.487D-01
 Coeff:      0.350D-03-0.123D+00-0.384D-01 0.304D+00 0.820D+00
 Gap=     0.165 Goal=   None    Shift=    0.000
 RMSDP=4.06D-08 MaxDP=2.25D-06 DE=-9.35D-11 OVMax= 7.34D-06

 Cycle  20  Pass 1  IDiag  1:
 E= -526.569447133778     Delta-E=        0.000000000012 Rises=F Damp=F
 DIIS: error= 1.19D-08 at cycle  12 NSaved=  12.
 NSaved=12 IEnMin=11 EnMin= -526.569447133791     IErMin=12 ErrMin= 1.19D-08
 ErrMax= 1.19D-08  0.00D+00 EMaxC= 1.00D-01 BMatC= 7.74D-14 BMatP= 1.07D-12
 IDIUse=1 WtCom= 1.00D+00 WtEn= 0.00D+00
 Coeff-Com: -0.491D-04 0.230D-02-0.194D-03-0.770D-02-0.816D-02 0.741D-02
 Coeff-Com:  0.261D-01 0.250D-01-0.777D-01-0.372D-01 0.162D+00 0.909D+00
 Coeff:     -0.491D-04 0.230D-02-0.194D-03-0.770D-02-0.816D-02 0.741D-02
 Coeff:      0.261D-01 0.250D-01-0.777D-01-0.372D-01 0.162D+00 0.909D+00
 Gap=     0.165 Goal=   None    Shift=    0.000
 RMSDP=2.73D-09 MaxDP=1.23D-07 DE= 1.24D-11 OVMax= 3.81D-07

 SCF Done:  E(RM062X) =  -526.569447134     A.U. after   20 cycles
            NFock= 20  Conv=0.27D-08     -V/T= 2.0037
 KE= 5.246294150979D+02 PE=-1.924633135185D+03 EE= 5.349590685321D+02
 Leave Link  502 at Sun May 25 03:54:35 2025, MaxMem=  3758096384 cpu:              58.0 elap:              11.8
 (Enter /apps/easybuild-2022/easybuild/software/Compiler/NVHPC/22.11-CUDA-11.7.0/Gaussian/g16c01-CUDA-11.7.0/g16/l508.exe)
 QCSCF skips out because SCF is already converged.
 Leave Link  508 at Sun May 25 03:54:35 2025, MaxMem=  3758096384 cpu:               0.1 elap:               0.0
 (Enter /apps/easybuild-2022/easybuild/software/Compiler/NVHPC/22.11-CUDA-11.7.0/Gaussian/g16c01-CUDA-11.7.0/g16/l801.exe)
 DoSCS=F DFT=T ScalE2(SS,OS)=  1.000000  1.000000
 Range of M.O.s used for correlation:     1   231
 NBasis=   231 NAE=    28 NBE=    28 NFC=     0 NFV=     0
 NROrb=    231 NOA=    28 NOB=    28 NVA=   203 NVB=   203

 **** Warning!!: The largest alpha MO coefficient is  0.16800965D+02

 Leave Link  801 at Sun May 25 03:54:35 2025, MaxMem=  3758096384 cpu:               0.1 elap:               0.0
 (Enter /apps/easybuild-2022/easybuild/software/Compiler/NVHPC/22.11-CUDA-11.7.0/Gaussian/g16c01-CUDA-11.7.0/g16/l1101.exe)
 Leave Link 1101 at Sun May 25 03:54:35 2025, MaxMem=  3758096384 cpu:               0.1 elap:               0.0
 (Enter /apps/easybuild-2022/easybuild/software/Compiler/NVHPC/22.11-CUDA-11.7.0/Gaussian/g16c01-CUDA-11.7.0/g16/l1102.exe)
 Symmetrizing basis deriv contribution to polar:
 IMax=3 JMax=2 DiffMx= 0.00D+00
 Leave Link 1102 at Sun May 25 03:54:35 2025, MaxMem=  3758096384 cpu:               0.1 elap:               0.0
 (Enter /apps/easybuild-2022/easybuild/software/Compiler/NVHPC/22.11-CUDA-11.7.0/Gaussian/g16c01-CUDA-11.7.0/g16/l1110.exe)
 Leave Link 1110 at Sun May 25 03:54:35 2025, MaxMem=  3758096384 cpu:               0.1 elap:               0.0
[...]

 Cycle   1  Pass 0  IDiag  1:
 E= -526.599107981640    
 DIIS: error= 2.52D-04 at cycle   1 NSaved=   1.
 NSaved= 1 IEnMin= 1 EnMin= -526.599107981640     IErMin= 1 ErrMin= 2.52D-04
 ErrMax= 2.52D-04  0.00D+00 EMaxC= 1.00D-01 BMatC= 1.60D-05 BMatP= 1.60D-05
 IDIUse=3 WtCom= 9.97D-01 WtEn= 2.52D-03
 Coeff-Com:  0.100D+01
 Coeff-En:   0.100D+01
 Coeff:      0.100D+01
 Gap=     1.078 Goal=   None    Shift=    0.000
 RMSDP=1.84D-05 MaxDP=3.55D-04              OVMax= 1.28D-03

 Cycle   2  Pass 0  IDiag  1:
 E= -526.599129997868     Delta-E=       -0.000022016228 Rises=F Damp=F
 DIIS: error= 4.78D-05 at cycle   2 NSaved=   2.
 NSaved= 2 IEnMin= 2 EnMin= -526.599129997868     IErMin= 2 ErrMin= 4.78D-05
 ErrMax= 4.78D-05  0.00D+00 EMaxC= 1.00D-01 BMatC= 6.49D-07 BMatP= 1.60D-05
 IDIUse=1 WtCom= 1.00D+00 WtEn= 0.00D+00
 Coeff-Com: -0.144D+00 0.114D+01
 Coeff:     -0.144D+00 0.114D+01
 Gap=     0.301 Goal=   None    Shift=    0.000
 RMSDP=5.53D-06 MaxDP=1.38D-04 DE=-2.20D-05 OVMax= 6.19D-04

 Initial convergence to 1.0D-05 achieved.  Increase integral accuracy.
 Cycle   3  Pass 1  IDiag  1:
 E= -526.599131839570     Delta-E=       -0.000001841702 Rises=F Damp=F
 DIIS: error= 3.20D-05 at cycle   1 NSaved=   1.
 NSaved= 1 IEnMin= 1 EnMin= -526.599131839570     IErMin= 1 ErrMin= 3.20D-05
 ErrMax= 3.20D-05  0.00D+00 EMaxC= 1.00D-01 BMatC= 5.54D-07 BMatP= 5.54D-07
 IDIUse=1 WtCom= 1.00D+00 WtEn= 0.00D+00
 Coeff-Com:  0.100D+01
 Coeff:      0.100D+01
 Gap=     0.301 Goal=   None    Shift=    0.000
 RMSDP=5.53D-06 MaxDP=1.38D-04 DE=-1.84D-06 OVMax= 2.76D-04

 Cycle   4  Pass 1  IDiag  1:
 E= -526.599132258263     Delta-E=       -0.000000418694 Rises=F Damp=F
 DIIS: error= 1.45D-05 at cycle   2 NSaved=   2.
 NSaved= 2 IEnMin= 2 EnMin= -526.599132258263     IErMin= 2 ErrMin= 1.45D-05
 ErrMax= 1.45D-05  0.00D+00 EMaxC= 1.00D-01 BMatC= 1.43D-07 BMatP= 5.54D-07
 IDIUse=1 WtCom= 1.00D+00 WtEn= 0.00D+00
 Coeff-Com:  0.244D+00 0.756D+00
 Coeff:      0.244D+00 0.756D+00
 Gap=     0.301 Goal=   None    Shift=    0.000
 RMSDP=1.85D-06 MaxDP=9.59D-05 DE=-4.19D-07 OVMax= 1.57D-04

 Cycle   5  Pass 1  IDiag  1:
 E= -526.599132327984     Delta-E=       -0.000000069721 Rises=F Damp=F
 DIIS: error= 1.57D-05 at cycle   3 NSaved=   3.
 NSaved= 3 IEnMin= 3 EnMin= -526.599132327984     IErMin= 2 ErrMin= 1.45D-05
 ErrMax= 1.57D-05  0.00D+00 EMaxC= 1.00D-01 BMatC= 8.33D-08 BMatP= 1.43D-07
 IDIUse=1 WtCom= 1.00D+00 WtEn= 0.00D+00
 Coeff-Com: -0.357D-01 0.431D+00 0.604D+00
 Coeff:     -0.357D-01 0.431D+00 0.604D+00
 Gap=     0.301 Goal=   None    Shift=    0.000
 RMSDP=8.16D-07 MaxDP=3.07D-05 DE=-6.97D-08 OVMax= 6.34D-05

 Cycle   6  Pass 1  IDiag  1:
 E= -526.599132391363     Delta-E=       -0.000000063379 Rises=F Damp=F
 DIIS: error= 2.40D-06 at cycle   4 NSaved=   4.
 NSaved= 4 IEnMin= 4 EnMin= -526.599132391363     IErMin= 4 ErrMin= 2.40D-06
 ErrMax= 2.40D-06  0.00D+00 EMaxC= 1.00D-01 BMatC= 4.40D-09 BMatP= 8.33D-08
 IDIUse=1 WtCom= 1.00D+00 WtEn= 0.00D+00
 Coeff-Com: -0.253D-01 0.150D+00 0.255D+00 0.621D+00
 Coeff:     -0.253D-01 0.150D+00 0.255D+00 0.621D+00
 Gap=     0.301 Goal=   None    Shift=    0.000
 RMSDP=3.09D-07 MaxDP=9.37D-06 DE=-6.34D-08 OVMax= 4.08D-05

 Cycle   7  Pass 1  IDiag  1:
 E= -526.599132396734     Delta-E=       -0.000000005371 Rises=F Damp=F
 DIIS: error= 1.64D-06 at cycle   5 NSaved=   5.
 NSaved= 5 IEnMin= 5 EnMin= -526.599132396734     IErMin= 5 ErrMin= 1.64D-06
 ErrMax= 1.64D-06  0.00D+00 EMaxC= 1.00D-01 BMatC= 1.44D-09 BMatP= 4.40D-09
 IDIUse=1 WtCom= 1.00D+00 WtEn= 0.00D+00
 Coeff-Com:  0.181D-02-0.101D+00-0.126D+00 0.325D+00 0.901D+00
 Coeff:      0.181D-02-0.101D+00-0.126D+00 0.325D+00 0.901D+00
 Gap=     0.301 Goal=   None    Shift=    0.000
 RMSDP=3.13D-07 MaxDP=7.46D-06 DE=-5.37D-09 OVMax= 4.64D-05

 Cycle   8  Pass 1  IDiag  1:
 E= -526.599132399792     Delta-E=       -0.000000003058 Rises=F Damp=F
 DIIS: error= 5.22D-07 at cycle   6 NSaved=   6.
 NSaved= 6 IEnMin= 6 EnMin= -526.599132399792     IErMin= 6 ErrMin= 5.22D-07
 ErrMax= 5.22D-07  0.00D+00 EMaxC= 1.00D-01 BMatC= 1.48D-10 BMatP= 1.44D-09
 IDIUse=1 WtCom= 1.00D+00 WtEn= 0.00D+00
 Coeff-Com:  0.585D-02-0.688D-01-0.986D-01 0.293D-01 0.305D+00 0.828D+00
 Coeff:      0.585D-02-0.688D-01-0.986D-01 0.293D-01 0.305D+00 0.828D+00
 Gap=     0.301 Goal=   None    Shift=    0.000
 RMSDP=1.36D-07 MaxDP=3.29D-06 DE=-3.06D-09 OVMax= 2.04D-05

 Cycle   9  Pass 1  IDiag  1:
 E= -526.599132400246     Delta-E=       -0.000000000454 Rises=F Damp=F
 DIIS: error= 1.62D-07 at cycle   7 NSaved=   7.
 NSaved= 7 IEnMin= 7 EnMin= -526.599132400246     IErMin= 7 ErrMin= 1.62D-07
 ErrMax= 1.62D-07  0.00D+00 EMaxC= 1.00D-01 BMatC= 1.58D-11 BMatP= 1.48D-10
 IDIUse=1 WtCom= 1.00D+00 WtEn= 0.00D+00
 Coeff-Com:  0.357D-03 0.757D-02 0.788D-02-0.445D-01-0.123D+00 0.131D+00
 Coeff-Com:  0.102D+01
 Coeff:      0.357D-03 0.757D-02 0.788D-02-0.445D-01-0.123D+00 0.131D+00
 Coeff:      0.102D+01
 Gap=     0.301 Goal=   None    Shift=    0.000
 RMSDP=5.91D-08 MaxDP=1.48D-06 DE=-4.54D-10 OVMax= 8.33D-06

 Cycle  10  Pass 1  IDiag  1:
 E= -526.599132400313     Delta-E=       -0.000000000068 Rises=F Damp=F
 DIIS: error= 6.07D-08 at cycle   8 NSaved=   8.
 NSaved= 8 IEnMin= 8 EnMin= -526.599132400313     IErMin= 8 ErrMin= 6.07D-08
 ErrMax= 6.07D-08  0.00D+00 EMaxC= 1.00D-01 BMatC= 1.75D-12 BMatP= 1.58D-11
 IDIUse=1 WtCom= 1.00D+00 WtEn= 0.00D+00
 Coeff-Com: -0.538D-03 0.985D-02 0.131D-01-0.150D-01-0.632D-01-0.581D-01
 Coeff-Com:  0.280D+00 0.834D+00
 Coeff:     -0.538D-03 0.985D-02 0.131D-01-0.150D-01-0.632D-01-0.581D-01
 Coeff:      0.280D+00 0.834D+00
 Gap=     0.301 Goal=   None    Shift=    0.000
 RMSDP=1.34D-08 MaxDP=3.31D-07 DE=-6.79D-11 OVMax= 1.82D-06

 Cycle  11  Pass 1  IDiag  1:
 E= -526.599132400311     Delta-E=        0.000000000003 Rises=F Damp=F
 DIIS: error= 1.91D-08 at cycle   9 NSaved=   9.
 NSaved= 9 IEnMin= 8 EnMin= -526.599132400313     IErMin= 9 ErrMin= 1.91D-08
 ErrMax= 1.91D-08  0.00D+00 EMaxC= 1.00D-01 BMatC= 2.97D-13 BMatP= 1.75D-12
 IDIUse=1 WtCom= 1.00D+00 WtEn= 0.00D+00
 Coeff-Com: -0.227D-03 0.271D-02 0.366D-02-0.100D-02-0.923D-02-0.344D-01
 Coeff-Com: -0.376D-02 0.277D+00 0.765D+00
 Coeff:     -0.227D-03 0.271D-02 0.366D-02-0.100D-02-0.923D-02-0.344D-01
 Coeff:     -0.376D-02 0.277D+00 0.765D+00
 Gap=     0.301 Goal=   None    Shift=    0.000
 RMSDP=4.33D-09 MaxDP=1.12D-07 DE= 2.96D-12 OVMax= 6.32D-07

 SCF Done:  E(RM062X) =  -526.599132400     A.U. after   11 cycles
            NFock= 11  Conv=0.43D-08     -V/T= 2.0037
 KE= 5.246828388073D+02 PE=-1.927680462632D+03 EE= 5.364270838342D+02
 Leave Link  502 at Sun May 25 04:02:13 2025, MaxMem=  3758096384 cpu:              39.6 elap:               7.3
 (Enter /apps/easybuild-2022/easybuild/software/Compiler/NVHPC/22.11-CUDA-11.7.0/Gaussian/g16c01-CUDA-11.7.0/g16/l508.exe)
 QCSCF skips out because SCF is already converged.
 Leave Link  508 at Sun May 25 04:02:13 2025, MaxMem=  3758096384 cpu:               0.1 elap:               0.0
 (Enter /apps/easybuild-2022/easybuild/software/Compiler/NVHPC/22.11-CUDA-11.7.0/Gaussian/g16c01-CUDA-11.7.0/g16/l801.exe)
 DoSCS=F DFT=T ScalE2(SS,OS)=  1.000000  1.000000
 Range of M.O.s used for correlation:     1   231
 NBasis=   231 NAE=    28 NBE=    28 NFC=     0 NFV=     0
 NROrb=    231 NOA=    28 NOB=    28 NVA=   203 NVB=   203

 **** Warning!!: The largest alpha MO coefficient is  0.16602052D+02

 Leave Link  801 at Sun May 25 04:02:13 2025, MaxMem=  3758096384 cpu:               0.1 elap:               0.0
 (Enter /apps/easybuild-2022/easybuild/software/Compiler/NVHPC/22.11-CUDA-11.7.0/Gaussian/g16c01-CUDA-11.7.0/g16/l1101.exe)
 Leave Link 1101 at Sun May 25 04:02:13 2025, MaxMem=  3758096384 cpu:               0.1 elap:               0.0
 (Enter /apps/easybuild-2022/easybuild/software/Compiler/NVHPC/22.11-CUDA-11.7.0/Gaussian/g16c01-CUDA-11.7.0/g16/l1102.exe)
 Symmetrizing basis deriv contribution to polar:
 IMax=3 JMax=2 DiffMx= 0.00D+00
 Leave Link 1102 at Sun May 25 04:02:13 2025, MaxMem=  3758096384 cpu:               0.2 elap:               0.0
 (Enter /apps/easybuild-2022/easybuild/software/Compiler/NVHPC/22.11-CUDA-11.7.0/Gaussian/g16c01-CUDA-11.7.0/g16/l1110.exe)
 Leave Link 1110 at Sun May 25 04:02:13 2025, MaxMem=  3758096384 cpu:               0.1 elap:               0.0
 (Enter /apps/easybuild-2022/easybuild/software/Compiler/NVHPC/22.11-CUDA-11.7.0/Gaussian/g16c01-CUDA-11.7.0/g16/l1002.exe)
 Minotr:  Closed shell wavefunction.
 Leave Link 1002 at Sun May 25 04:02:13 2025, MaxMem=  3758096384 cpu:               0.1 elap:               0.0
 (Enter /apps/easybuild-2022/easybuild/software/Compiler/NVHPC/22.11-CUDA-11.7.0/Gaussian/g16c01-CUDA-11.7.0/g16/l701.exe)
 ... and contract with generalized density number  0.
 Compute integral first derivatives.
   1 Symmetry operations used in ECPInt.
 ECPInt:  NShTT=    3486 NPrTT=   11183 LenC2=    3401 LenP2D=    8733.
 LDataN:  DoStor=T MaxTD1= 7 Len=  274
 Leave Link  701 at Sun May 25 04:02:13 2025, MaxMem=  3758096384 cpu:               0.4 elap:               0.1
 (Enter /apps/easybuild-2022/easybuild/software/Compiler/NVHPC/22.11-CUDA-11.7.0/Gaussian/g16c01-CUDA-11.7.0/g16/l702.exe)
 L702 exits ... SP integral derivatives will be done elsewhere.
 Leave Link  702 at Sun May 25 04:02:13 2025, MaxMem=  3758096384 cpu:               0.1 elap:               0.0
 (Enter /apps/easybuild-2022/easybuild/software/Compiler/NVHPC/22.11-CUDA-11.7.0/Gaussian/g16c01-CUDA-11.7.0/g16/l703.exe)
 Integral derivatives from FoFJK, PRISM(SPDF).
 Compute integral first derivatives, UseDBF=F ICtDFT=           0.
 Calling FoFJK, ICntrl=      2127 FMM=F ISym2X=0 I1Cent= 0 IOpClX= 0 NMat=1 NMatS=1 NMatT=0.
 FoFJK:  IHMeth= 1 ICntrl=    2127 DoSepK=F KAlg= 0 I1Cent=           0 FoldK=F
 IRaf=         0 NMat=       1 IRICut=       1 DoRegI=T DoRafI=F ISym2E= 0 IDoP0=0 IntGTp=1.
 FoFCou: FMM=F IPFlag=           0 FMFlag=      100000 FMFlg1=         800
         NFxFlg=           0 DoJE=F BraDBF=F KetDBF=F FulRan=T
         wScrn=  0.000000 ICntrl=      2127 IOpCl=  0 I1Cent=           0 NGrid=           0
         NMat0=    1 NMatS0=      1 NMatT0=    0 NMatD0=    1 NMtDS0=    0 NMtDT0=    0
 Symmetry not used in FoFCou.
 Leave Link  703 at Sun May 25 04:02:16 2025, MaxMem=  3758096384 cpu:              24.5 elap:               3.1
 (Enter /apps/easybuild-2022/easybuild/software/Compiler/NVHPC/22.11-CUDA-11.7.0/Gaussian/g16c01-CUDA-11.7.0/g16/l716.exe)
 Dipole        = 1.15207579D+00 7.55246937D-01-6.05676522D-02
 Polarizability= 0.00000000D+00 0.00000000D+00 0.00000000D+00
                 0.00000000D+00 0.00000000D+00 0.00000000D+00
 -------------------------------------------------------------------
 Center     Atomic                   Forces (Hartrees/Bohr)
 Number     Number              X              Y              Z
 -------------------------------------------------------------------
      1        6           0.000002235    0.000126346    0.000149305
      2        8          -0.000042029   -0.000048146    0.000061339
      3        6           0.000008786    0.000026078    0.000051777
      4        9          -0.000086998   -0.000102875    0.000073843
      5        9           0.000204738    0.000149371    0.000082459
      6        9           0.000034289   -0.000023382   -0.000135908
      7        8           0.000025323   -0.000128887   -0.000193609
      8        1          -0.000146344    0.000001495   -0.000089206
 -------------------------------------------------------------------
 Cartesian Forces:  Max     0.000204738 RMS     0.000101753
 Leave Link  716 at Sun May 25 04:02:16 2025, MaxMem=  3758096384 cpu:               0.1 elap:               0.0
 (Enter /apps/easybuild-2022/easybuild/software/Compiler/NVHPC/22.11-CUDA-11.7.0/Gaussian/g16c01-CUDA-11.7.0/g16/l123.exe)
 IRC-IRC-IRC-IRC-IRC-IRC-IRC-IRC-IRC-IRC-IRC-IRC-IRC-IRC-IRC-IRC-IRC-IRC
 Pt 37 Step number   1 out of a maximum of  20
 Using modified Bulirsch-Stoer corrector integration.
   Using distance weighted interpolants to fit PES.
 PreDWI: IReCr0= 2 IReCr1= 1 IReCr2= 1 IReCr3= 1
 Modified Bulirsch-Stoer Extrapolation Cycles:
    EPS =    0.000010000000000
    Cycle     1 NS=    48
      PEZero:  N= 2 I= 1 D=  3.52D-04 Err=  1.07D-02
    Cycle     2 NS=    64 Truncation Error =  0.010665348
      PEZero:  N= 3 I= 2 D=  3.52D-04 Err=  1.43D-02
      PEZero:  N= 3 I= 1 D=  7.04D-04 Err=  1.09D-02
    Cycle     3 NS=    96 Truncation Error =  0.010854666
      PEZero:  N= 4 I= 3 D=  1.76D-04 Err=  1.28D-02
      PEZero:  N= 4 I= 2 D=  5.28D-04 Err=  2.83D-03
      PEZero:  N= 4 I= 1 D=  8.81D-04 Err=  4.36D-03
    Cycle     4 NS=   128 Truncation Error =  0.002832463
      PEZero:  N= 5 I= 4 D=  1.76D-04 Err=  2.58D-05
      PEZero:  N= 5 I= 3 D=  3.52D-04 Err=  1.28D-02
    Cycle     5 NS=   192 Truncation Error =  0.000025820
      PEZero:  N= 6 I= 5 D=  8.81D-05 Err=  1.94D-05
      PEZero:  N= 6 I= 4 D=  2.64D-04 Err=  3.70D-08
      PEZero:  N= 6 I= 3 D=  4.40D-04 Err=  1.70D-03
    Cycle     6 NS=   256 Truncation Error =  0.000000037
 BS completed in    6 cycles and     784 integration steps.
 Maximum DWI energy   std dev =  0.000000039 at pt    47
 Maximum DWI gradient std dev =  0.270386914 at pt    79
 SUMMARY OF CORRECTOR INTEGRATION:
   Predictor End Point Energy =  -526.599132
   Old End Point Energy       =  -526.599132
   Corrected End Point Energy =  -526.599132
   Predictor End-Start Dist.  =     0.067628
   Old End-Start Dist.        =     0.067628
   New End-Start Dist.        =     0.067203
   New End-Old End Dist.      =     0.002103
 CORRECTOR INTEGRATION CONVERGENCE:
   Recorrection delta-x convergence threshold:    0.010000
   Delta-x Convergence Met
 Point Number:  37          Path Number:   1
                    CURRENT STRUCTURE
                Cartesian Coordinates (Ang):                
 ---------------------------------------------------------------------
 Center     Atomic                     Coordinates (Angstroms)
 Number     Number                        X           Y           Z
 ---------------------------------------------------------------------
      1          6                    0.913055   -0.247438    0.591840
      2          8                    1.684764   -0.371207   -0.600899
      3          6                   -0.558401   -0.131223    0.156841
      4          9                   -1.195476    0.700489    0.979628
      5          9                   -0.774940    0.291869   -1.091058
      6          9                   -1.099782   -1.344275    0.271798
      7          8                    1.547228    1.000525   -0.173504
      8          1                    2.355760    1.163669    0.342883
 ---------------------------------------------------------------------
   CHANGE IN THE REACTION COORDINATE =    0.06720
   NET REACTION COORDINATE UP TO THIS POINT =    2.51909
  # OF POINTS ALONG THE PATH =  37
  # OF STEPS =   1

 PES minimum detected on this side of the pathway.
    Magnitude of the gradient =      0.0001220
 Calculation of REVERSE path complete.
 Reaction path calculation complete.
 
 Energies reported relative to the TS energy of        -526.567801
 --------------------------------------------------------------------------
    Summary of reaction path following
 --------------------------------------------------------------------------
                        Energy    RxCoord
   1                   -0.03133  -2.51909
   2                   -0.03132  -2.45189
   3                   -0.03130  -2.38408
   4                   -0.03127  -2.31615
   5                   -0.03123  -2.24817
   6                   -0.03118  -2.18016
   7                   -0.03110  -2.11213
   8                   -0.03100  -2.04408
   9                   -0.03088  -1.97603
  10                   -0.03072  -1.90798
  11                   -0.03052  -1.83993
  12                   -0.03026  -1.77188
  13                   -0.02994  -1.70379
  14                   -0.02954  -1.63568
  15                   -0.02906  -1.56754
  16                   -0.02848  -1.49939
  17                   -0.02781  -1.43135
  18                   -0.02704  -1.36325
  19                   -0.02617  -1.29511
  20                   -0.02521  -1.22694
  21                   -0.02415  -1.15877
  22                   -0.02299  -1.09060
  23                   -0.02174  -1.02243
  24                   -0.02040  -0.95426
  25                   -0.01897  -0.88609
  26                   -0.01745  -0.81792
  27                   -0.01583  -0.74975
  28                   -0.01413  -0.68158
  29                   -0.01234  -0.61341
  30                   -0.01046  -0.54525
  31                   -0.00850  -0.47709
  32                   -0.00648  -0.40895
  33                   -0.00455  -0.34081
  34                   -0.00292  -0.27266
  35                   -0.00165  -0.20450
  36                   -0.00073  -0.13634
  37                   -0.00018  -0.06818
  38                    0.00000   0.00000
 --------------------------------------------------------------------------
 
 Total number of points:                   37
 Total number of gradient calculations:    37
 Total number of Hessian calculations:      0
 IRC-IRC-IRC-IRC-IRC-IRC-IRC-IRC-IRC-IRC-IRC-IRC-IRC-IRC-IRC-IRC-IRC-IRC
 Leave Link  123 at Sun May 25 04:02:16 2025, MaxMem=  3758096384 cpu:               0.3 elap:               0.1
 (Enter /apps/easybuild-2022/easybuild/software/Compiler/NVHPC/22.11-CUDA-11.7.0/Gaussian/g16c01-CUDA-11.7.0/g16/l202.exe)
                          Input orientation:                          
 ---------------------------------------------------------------------
 Center     Atomic      Atomic             Coordinates (Angstroms)
 Number     Number       Type             X           Y           Z
 ---------------------------------------------------------------------
      1          6           0        0.913030   -0.247433    0.591766
      2          8           0        1.684805   -0.371348   -0.600792
      3          6           0       -0.558407   -0.131222    0.156815
      4          9           0       -1.195499    0.700459    0.979647
      5          9           0       -0.774969    0.291900   -1.091066
      6          9           0       -1.099770   -1.344263    0.271778
      7          8           0        1.547299    1.000594   -0.173635
      8          1           0        2.355983    1.163438    0.342952
 ---------------------------------------------------------------------
                    Distance matrix (angstroms):
                    1          2          3          4          5
     1  C    0.000000
     2  O    1.425897   0.000000
     3  C    1.538771   2.379837   0.000000
     4  F    2.344109   3.455822   1.332153   0.000000
     5  F    2.443797   2.594369   1.335342   2.152120   0.000000
     6  F    2.314475   3.076004   1.333327   2.165902   2.154036
     7  O    1.595527   1.443466   2.413338   2.990499   2.595545
     8  H    2.033366   1.922680   3.194442   3.637685   3.552301
                    6          7          8
     6  F    0.000000
     7  O    3.564229   0.000000
     8  H    4.270347   0.973319   0.000000
 Symmetry turned off by external request.
 Stoichiometry    C2HF3O2
 Rotational constants (GHZ):           4.6708321           2.2829612           2.1285748
 Leave Link  202 at Sun May 25 04:02:16 2025, MaxMem=  3758096384 cpu:               0.1 elap:               0.0
 (Enter /apps/easybuild-2022/easybuild/software/Compiler/NVHPC/22.11-CUDA-11.7.0/Gaussian/g16c01-CUDA-11.7.0/g16/l9999.exe)

 This type of calculation cannot be archived.


 The hours that make us happy make us wise.
                         -- John Masefield
 Job cpu time:       0 days  0 hours 45 minutes 59.7 seconds.
 Elapsed time:       0 days  0 hours  8 minutes 16.4 seconds.
 File lengths (MBytes):  RWF=     30 Int=      0 D2E=      0 Chk=      6 Scr=      1
 Normal termination of Gaussian 16 at Sun May 25 04:02:17 2025.
done
