 Entering Gaussian System, Link 0=g16
 Initial command:
 /apps/easybuild-2022/easybuild/software/Compiler/NVHPC/22.11-CUDA-11.7.0/Gaussian/g16c01-CUDA-11.7.0/g16/l1.exe "/tmp/Gau-211882.inp" -scrdir="/tmp/"
 Entering Link 1 = /apps/easybuild-2022/easybuild/software/Compiler/NVHPC/22.11-CUDA-11.7.0/Gaussian/g16c01-CUDA-11.7.0/g16/l1.exe PID=    211883.
  
 Copyright (c) 1988-2019, Gaussian, Inc.  All Rights Reserved.
  
 This is part of the Gaussian(R) 16 program.  It is based on
 the Gaussian(R) 09 system (copyright 2009, Gaussian, Inc.),
 the Gaussian(R) 03 system (copyright 2003, Gaussian, Inc.),
 the Gaussian(R) 98 system (copyright 1998, Gaussian, Inc.),
 the Gaussian(R) 94 system (copyright 1995, Gaussian, Inc.),
 the Gaussian 92(TM) system (copyright 1992, Gaussian, Inc.),
 the Gaussian 90(TM) system (copyright 1990, Gaussian, Inc.),
 the Gaussian 88(TM) system (copyright 1988, Gaussian, Inc.),
 the Gaussian 86(TM) system (copyright 1986, Carnegie Mellon
 University), and the Gaussian 82(TM) system (copyright 1983,
 Carnegie Mellon University). Gaussian is a federally registered
 trademark of Gaussian, Inc.
  
 This software contains proprietary and confidential information,
 including trade secrets, belonging to Gaussian, Inc.
  
 This software is provided under written license and may be
 used, copied, transmitted, or stored only in accord with that
 written license.
  
 The following legend is applicable only to US Government
 contracts under FAR:
  
                    RESTRICTED RIGHTS LEGEND
  
 Use, reproduction and disclosure by the US Government is
 subject to restrictions as set forth in subparagraphs (a)
 and (c) of the Commercial Computer Software - Restricted
 Rights clause in FAR 52.227-19.
  
 Gaussian, Inc.
 340 Quinnipiac St., Bldg. 40, Wallingford CT 06492
  
  
 ---------------------------------------------------------------
 Warning -- This program may not be used in any manner that
 competes with the business of Gaussian, Inc. or will provide
 assistance to any competitor of Gaussian, Inc.  The licensee
 of this program is prohibited from giving any competitor of
 Gaussian, Inc. access to this program.  By using this program,
 the user acknowledges that Gaussian, Inc. is engaged in the
 business of creating and licensing software in the field of
 computational chemistry and represents and warrants to the
 licensee that it is not a competitor of Gaussian, Inc. and that
 it will not use this program in any manner prohibited above.
 ---------------------------------------------------------------
  

 Cite this work as:
 Gaussian 16, Revision C.01,
 M. J. Frisch, G. W. Trucks, H. B. Schlegel, G. E. Scuseria, 
 M. A. Robb, J. R. Cheeseman, G. Scalmani, V. Barone, 
 G. A. Petersson, H. Nakatsuji, X. Li, M. Caricato, A. V. Marenich, 
 J. Bloino, B. G. Janesko, R. Gomperts, B. Mennucci, H. P. Hratchian, 
 J. V. Ortiz, A. F. Izmaylov, J. L. Sonnenberg, D. Williams-Young, 
 F. Ding, F. Lipparini, F. Egidi, J. Goings, B. Peng, A. Petrone, 
 T. Henderson, D. Ranasinghe, V. G. Zakrzewski, J. Gao, N. Rega, 
 G. Zheng, W. Liang, M. Hada, M. Ehara, K. Toyota, R. Fukuda, 
 J. Hasegawa, M. Ishida, T. Nakajima, Y. Honda, O. Kitao, H. Nakai, 
 T. Vreven, K. Throssell, J. A. Montgomery, Jr., J. E. Peralta, 
 F. Ogliaro, M. J. Bearpark, J. J. Heyd, E. N. Brothers, K. N. Kudin, 
 V. N. Staroverov, T. A. Keith, R. Kobayashi, J. Normand, 
 K. Raghavachari, A. P. Rendell, J. C. Burant, S. S. Iyengar, 
 J. Tomasi, M. Cossi, J. M. Millam, M. Klene, C. Adamo, R. Cammi, 
 J. W. Ochterski, R. L. Martin, K. Morokuma, O. Farkas, 
 J. B. Foresman, and D. J. Fox, Gaussian, Inc., Wallingford CT, 2019.
 
 ******************************************
 Gaussian 16:  ES64L-G16RevC.01  3-Jul-2019
                25-May-2025 
 ******************************************
 %mem=28GB
 %chk=1141903082400600000001_ketoenol_2_1_3_4_IRC_R_prod
 %nprocshared=8
 Will use up to    8 processors via shared memory.
 ----------------------------------------------------------------------
 #P M062X/Def2TZVPP Symm(None) scf(xqc) pop(None) opt(CalcAll,Cartesian
 )
 ----------------------------------------------------------------------
 1/10=4,18=10,26=3,38=1/1,3;
 2/12=2,15=3,17=6,18=5,29=2,40=1/2;
 3/5=44,7=202,11=2,25=1,30=1,71=2,74=-55,140=1/1,2,3;
 4//1;
 5/5=2,8=3,13=1,38=5/2,8;
 8/6=4,10=90,11=11/1;
 11/6=1,8=1,9=11,15=111,16=1,31=1/1,2,10;
 10/6=1,31=1/2;
 7/7=1,10=1,25=1,30=1/1,2,3,16;
 1/10=4,18=10,26=3/3(3);
 2/15=3,29=1/2;
 7/7=1,8=1,9=1,25=1,30=1,44=-1/16;
 99/12=1/99;
 2/15=3,29=1/2;
 3/5=44,7=202,11=2,25=1,30=1,71=2,74=-55,140=1/1,2,3;
 4/5=5,16=3,69=1/1;
 5/5=2,8=3,13=1,38=5/2,8;
 8/6=4,10=90,11=11/1;
 11/6=1,8=1,9=11,15=111,16=1,31=1/1,2,10;
 10/6=1,31=1/2;
 7/7=1,10=1,25=1,30=1/1,2,3,16;
 1/10=4,18=10,26=3/3(-8);
 2/15=3,29=1/2;
 7/7=1,8=1,9=1,25=1,30=1,44=-1/16;
 99/12=1/99;
 Leave Link    1 at Sun May 25 04:29:34 2025, MaxMem=  3758096384 cpu:               0.0 elap:               0.0
 (Enter /apps/easybuild-2022/easybuild/software/Compiler/NVHPC/22.11-CUDA-11.7.0/Gaussian/g16c01-CUDA-11.7.0/g16/l101.exe)
 ------------------------------
 Gaussian input prepared by ASE
 ------------------------------
 Symbolic Z-matrix:
 Charge =  0 Multiplicity = 1
 C                    -1.71494  -0.89756   0.37466 
 O                    -2.42699   0.001     0.27169 
 C                     0.56851   0.90389  -0.42065 
 F                     1.79037  -1.67952   0.46004 
 F                     1.4053    1.10508  -1.37944 
 F                     0.75599   1.88682   0.39054 
 O                    -1.03417  -1.83542   0.45901 
 H                     0.87165  -1.73489   0.4594 
 
 ITRead=  0  0  0  0  0  0  0  0
 MicOpt= -1 -1 -1 -1 -1 -1 -1 -1
 NAtoms=      8 NQM=        8 NQMF=       0 NMMI=      0 NMMIF=      0
                NMic=       0 NMicF=      0.
                    Isotopes and Nuclear Properties:
 (Nuclear quadrupole moments (NQMom) in fm**2, nuclear magnetic moments (NMagM)
  in nuclear magnetons)

  Atom         1           2           3           4           5           6           7           8
 IAtWgt=          12          16          12          19          19          19          16           1
 AtmWgt=  12.0000000  15.9949146  12.0000000  18.9984032  18.9984032  18.9984032  15.9949146   1.0078250
 NucSpn=           0           0           0           1           1           1           0           1
 AtZEff=  -0.0000000  -0.0000000  -0.0000000  -0.0000000  -0.0000000  -0.0000000  -0.0000000  -0.0000000
 NQMom=    0.0000000   0.0000000   0.0000000   0.0000000   0.0000000   0.0000000   0.0000000   0.0000000
 NMagM=    0.0000000   0.0000000   0.0000000   2.6288670   2.6288670   2.6288670   0.0000000   2.7928460
 AtZNuc=   6.0000000   8.0000000   6.0000000   9.0000000   9.0000000   9.0000000   8.0000000   1.0000000
 Leave Link  101 at Sun May 25 04:29:34 2025, MaxMem=  3758096384 cpu:               0.0 elap:               0.1
 (Enter /apps/easybuild-2022/easybuild/software/Compiler/NVHPC/22.11-CUDA-11.7.0/Gaussian/g16c01-CUDA-11.7.0/g16/l103.exe)

 GradGradGradGradGradGradGradGradGradGradGradGradGradGradGradGradGradGrad
 Berny optimization.
 Initialization pass.
 No Z-matrix variables, so optimization will use Cartesian coordinates.
 Trust Radius=3.00D-01 FncErr=1.00D-07 GrdErr=1.00D-06 EigMax=2.50D+02 EigMin=1.00D-04
 Number of steps in this run=     34 maximum allowed number of steps=    100.
 GradGradGradGradGradGradGradGradGradGradGradGradGradGradGradGradGradGrad

 Leave Link  103 at Sun May 25 04:29:34 2025, MaxMem=  3758096384 cpu:               0.0 elap:               0.0
 (Enter /apps/easybuild-2022/easybuild/software/Compiler/NVHPC/22.11-CUDA-11.7.0/Gaussian/g16c01-CUDA-11.7.0/g16/l202.exe)
 ---------------------------------------------------------------------------------------------------
                            Z-MATRIX (ANGSTROMS AND DEGREES)
   CD    Cent   Atom    N1       Length/X        N2       Alpha/Y        N3        Beta/Z          J
 ---------------------------------------------------------------------------------------------------
      1      1  C        0  -1.714941         -0.897557          0.374661
      2      2  O        0  -2.426985          0.000995          0.271693
      3      3  C        0   0.568505          0.903887         -0.420645
      4      4  F        0   1.790371         -1.679516          0.460043
      5      5  F        0   1.405297          1.105081         -1.379439
      6      6  F        0   0.755992          1.886816          0.390543
      7      7  O        0  -1.034166         -1.835424          0.459010
      8      8  H        0   0.871654         -1.734891          0.459404
 ---------------------------------------------------------------------------------------------------
                         Z-Matrix orientation:                         
 ---------------------------------------------------------------------
 Center     Atomic      Atomic             Coordinates (Angstroms)
 Number     Number       Type             X           Y           Z
 ---------------------------------------------------------------------
      1          6           0       -1.714941   -0.897557    0.374661
      2          8           0       -2.426985    0.000995    0.271693
      3          6           0        0.568505    0.903887   -0.420645
      4          9           0        1.790371   -1.679516    0.460043
      5          9           0        1.405297    1.105081   -1.379439
      6          9           0        0.755992    1.886816    0.390543
      7          8           0       -1.034166   -1.835424    0.459010
      8          1           0        0.871654   -1.734891    0.459404
 ---------------------------------------------------------------------
                    Distance matrix (angstroms):
                    1          2          3          4          5
     1  C    0.000000
     2  O    1.151089   0.000000
     3  C    3.015267   3.204295   0.000000
     4  F    3.592487   4.543752   2.990408   0.000000
     5  F    4.101623   4.316437   1.288404   3.359458   0.000000
     6  F    3.722700   3.701593   1.288149   3.713959   2.040966
     7  O    1.161966   2.312459   3.293353   2.828837   4.239982
     8  H    2.720070   3.732232   2.798131   0.920385   3.425136
                    6          7          8
     6  F    0.000000
     7  O    4.130911   0.000000
     8  H    3.624208   1.908470   0.000000
 Symmetry turned off by external request.
 Stoichiometry    C2HF3O2
 Rotational constants (GHZ):           2.3150505           1.4568359           1.0122515
 Leave Link  202 at Sun May 25 04:29:34 2025, MaxMem=  3758096384 cpu:               0.0 elap:               0.0
 (Enter /apps/easybuild-2022/easybuild/software/Compiler/NVHPC/22.11-CUDA-11.7.0/Gaussian/g16c01-CUDA-11.7.0/g16/l301.exe)
 Standard basis: def2TZVPP (5D, 7F)
 Ernie: Thresh=  0.10000D-02 Tol=  0.10000D-05 Strict=F.
   231 basis functions,   374 primitive gaussians,   267 cartesian basis functions
    28 alpha electrons       28 beta electrons
       nuclear repulsion energy       275.0638059053 Hartrees.
 IExCor= 4336 DFT=T Ex+Corr=M062X ExCW=0 ScaHFX=  0.540000
 ScaDFX=  1.000000  1.000000  1.000000  1.000000 ScalE2=  1.000000  1.000000
 IRadAn=      5 IRanWt=     -1 IRanGd=            0 ICorTp=0 IEmpDi=  4
 NAtoms=    8 NActive=    8 NUniq=    8 SFac= 1.00D+00 NAtFMM=   60 NAOKFM=F Big=F
 Integral buffers will be    131072 words long.
 Raffenetti 2 integral format.
 Two-electron integral symmetry is turned off.
 Leave Link  301 at Sun May 25 04:29:34 2025, MaxMem=  3758096384 cpu:               0.0 elap:               0.0
 (Enter /apps/easybuild-2022/easybuild/software/Compiler/NVHPC/22.11-CUDA-11.7.0/Gaussian/g16c01-CUDA-11.7.0/g16/l302.exe)
 NPDir=0 NMtPBC=     1 NCelOv=     1 NCel=       1 NClECP=     1 NCelD=      1
         NCelK=      1 NCelE2=     1 NClLst=     1 CellRange=     0.0.
 One-electron integrals computed using PRISM.
   1 Symmetry operations used in ECPInt.
 ECPInt:  NShTT=    3486 NPrTT=   11183 LenC2=    3265 LenP2D=    7918.
 LDataN:  DoStor=T MaxTD1= 6 Len=  172
 NBasis=   231 RedAO= T EigKep=  4.34D-04  NBF=   231
 NBsUse=   231 1.00D-06 EigRej= -1.00D+00 NBFU=   231
 Precomputing XC quadrature grid using
 IXCGrd= 4 IRadAn=           5 IRanWt=          -1 IRanGd=           0 AccXCQ= 0.00D+00.
 Generated NRdTot=       0 NPtTot=           0 NUsed=           0 NTot=          32
 NSgBfM=   263   262   263   263   263 MxSgAt=     8 MxSgA2=     8.
 Leave Link  302 at Sun May 25 04:29:34 2025, MaxMem=  3758096384 cpu:               0.4 elap:               0.1
 (Enter /apps/easybuild-2022/easybuild/software/Compiler/NVHPC/22.11-CUDA-11.7.0/Gaussian/g16c01-CUDA-11.7.0/g16/l303.exe)
 DipDrv:  MaxL=1.
 Leave Link  303 at Sun May 25 04:29:34 2025, MaxMem=  3758096384 cpu:               0.1 elap:               0.0
 (Enter /apps/easybuild-2022/easybuild/software/Compiler/NVHPC/22.11-CUDA-11.7.0/Gaussian/g16c01-CUDA-11.7.0/g16/l401.exe)
 ExpMin= 9.52D-02 ExpMax= 3.55D+04 ExpMxC= 1.21D+03 IAcc=3 IRadAn=         5 AccDes= 0.00D+00
 Harris functional with IExCor= 1009 and IRadAn=       5 diagonalized for initial guess.
 HarFok:  IExCor= 1009 AccDes= 0.00D+00 IRadAn=         5 IDoV= 1 UseB2=F ITyADJ=14
 ICtDFT=  3500011 ScaDFX=  1.000000  1.000000  1.000000  1.000000
 FoFCou: FMM=F IPFlag=           0 FMFlag=      100000 FMFlg1=           0
         NFxFlg=           0 DoJE=T BraDBF=F KetDBF=T FulRan=T
         wScrn=  0.000000 ICntrl=       500 IOpCl=  0 I1Cent=   200000004 NGrid=           0
         NMat0=    1 NMatS0=      1 NMatT0=    0 NMatD0=    1 NMtDS0=    0 NMtDT0=    0
 Symmetry not used in FoFCou.
 Harris En= -526.474661072007    
 JPrj=0 DoOrth=F DoCkMO=F.
 Leave Link  401 at Sun May 25 04:29:34 2025, MaxMem=  3758096384 cpu:               1.7 elap:               0.2
 (Enter /apps/easybuild-2022/easybuild/software/Compiler/NVHPC/22.11-CUDA-11.7.0/Gaussian/g16c01-CUDA-11.7.0/g16/l502.exe)
 Keep R1 ints in memory in canonical form, NReq=368651247.
 FoFCou: FMM=F IPFlag=           0 FMFlag=           0 FMFlg1=           0
         NFxFlg=           0 DoJE=F BraDBF=F KetDBF=F FulRan=T
         wScrn=  0.000000 ICntrl=       600 IOpCl=  0 I1Cent=           0 NGrid=           0
         NMat0=    1 NMatS0=  26796 NMatT0=    0 NMatD0=    1 NMtDS0=    0 NMtDT0=    0
 Symmetry not used in FoFCou.
 Two-electron integral symmetry not used.
 Closed shell SCF:
 Using DIIS extrapolation, IDIIS=  1040.
 NGot=  3758096384 LenX=  3398923563 LenY=  3398851833
 Requested convergence on RMS density matrix=1.00D-08 within  32 cycles.
 Requested convergence on MAX density matrix=1.00D-06.
 Requested convergence on             energy=1.00D-06.
 No special actions if energy rises.
 Integral accuracy reduced to 1.0D-05 until final iterations.

 Cycle   1  Pass 0  IDiag  1:
 E= -526.672694988494    
 DIIS: error= 4.60D-02 at cycle   1 NSaved=   1.
 NSaved= 1 IEnMin= 1 EnMin= -526.672694988494     IErMin= 1 ErrMin= 4.60D-02
 ErrMax= 4.60D-02  0.00D+00 EMaxC= 1.00D-01 BMatC= 2.31D-01 BMatP= 2.31D-01
 IDIUse=3 WtCom= 5.40D-01 WtEn= 4.60D-01
 Coeff-Com:  0.100D+01
 Coeff-En:   0.100D+01
 Coeff:      0.100D+01
 Gap=     0.339 Goal=   None    Shift=    0.000
 GapD=    0.339 DampG=1.000 DampE=0.500 DampFc=0.5000 IDamp=-1.
 Damping current iteration by 5.00D-01
 RMSDP=1.63D-03 MaxDP=6.03D-02              OVMax= 1.23D-01

 Cycle   2  Pass 0  IDiag  1:
 E= -526.721625910794     Delta-E=       -0.048930922300 Rises=F Damp=T
 DIIS: error= 8.70D-03 at cycle   2 NSaved=   2.
 NSaved= 2 IEnMin= 2 EnMin= -526.721625910794     IErMin= 2 ErrMin= 8.70D-03
 ErrMax= 8.70D-03  0.00D+00 EMaxC= 1.00D-01 BMatC= 2.36D-02 BMatP= 2.31D-01
 IDIUse=3 WtCom= 9.13D-01 WtEn= 8.70D-02
 Coeff-Com:  0.542D-02 0.995D+00
 Coeff-En:   0.107D+00 0.893D+00
 Coeff:      0.143D-01 0.986D+00
 Gap=     0.401 Goal=   None    Shift=    0.000
 RMSDP=5.36D-04 MaxDP=1.97D-02 DE=-4.89D-02 OVMax= 8.96D-02

 Cycle   3  Pass 0  IDiag  1:
 E= -526.781593043399     Delta-E=       -0.059967132605 Rises=F Damp=F
 DIIS: error= 5.78D-03 at cycle   3 NSaved=   3.
 NSaved= 3 IEnMin= 3 EnMin= -526.781593043399     IErMin= 3 ErrMin= 5.78D-03
 ErrMax= 5.78D-03  0.00D+00 EMaxC= 1.00D-01 BMatC= 4.49D-03 BMatP= 2.36D-02
 IDIUse=3 WtCom= 9.42D-01 WtEn= 5.78D-02
 Coeff-Com: -0.904D-01 0.257D+00 0.833D+00
 Coeff-En:   0.000D+00 0.000D+00 0.100D+01
 Coeff:     -0.852D-01 0.242D+00 0.843D+00
 Gap=     0.346 Goal=   None    Shift=    0.000
 RMSDP=1.88D-04 MaxDP=1.04D-02 DE=-6.00D-02 OVMax= 1.73D-02

 Cycle   4  Pass 0  IDiag  1:
 E= -526.783738704232     Delta-E=       -0.002145660833 Rises=F Damp=F
 DIIS: error= 2.90D-03 at cycle   4 NSaved=   4.
 NSaved= 4 IEnMin= 4 EnMin= -526.783738704232     IErMin= 4 ErrMin= 2.90D-03
 ErrMax= 2.90D-03  0.00D+00 EMaxC= 1.00D-01 BMatC= 1.37D-03 BMatP= 4.49D-03
 IDIUse=3 WtCom= 9.71D-01 WtEn= 2.90D-02
 Coeff-Com: -0.441D-01 0.907D-01 0.462D+00 0.491D+00
 Coeff-En:   0.000D+00 0.000D+00 0.205D+00 0.795D+00
 Coeff:     -0.428D-01 0.880D-01 0.455D+00 0.500D+00
 Gap=     0.346 Goal=   None    Shift=    0.000
 RMSDP=7.68D-05 MaxDP=3.76D-03 DE=-2.15D-03 OVMax= 9.96D-03

 Cycle   5  Pass 0  IDiag  1:
 E= -526.784605144135     Delta-E=       -0.000866439902 Rises=F Damp=F
 DIIS: error= 8.75D-04 at cycle   5 NSaved=   5.
 NSaved= 5 IEnMin= 5 EnMin= -526.784605144135     IErMin= 5 ErrMin= 8.75D-04
 ErrMax= 8.75D-04  0.00D+00 EMaxC= 1.00D-01 BMatC= 9.18D-05 BMatP= 1.37D-03
 IDIUse=3 WtCom= 9.91D-01 WtEn= 8.75D-03
 Coeff-Com: -0.154D-01 0.267D-01 0.174D+00 0.268D+00 0.547D+00
 Coeff-En:   0.000D+00 0.000D+00 0.000D+00 0.000D+00 0.100D+01
 Coeff:     -0.152D-01 0.264D-01 0.173D+00 0.265D+00 0.550D+00
 Gap=     0.346 Goal=   None    Shift=    0.000
 RMSDP=2.09D-05 MaxDP=8.78D-04 DE=-8.66D-04 OVMax= 2.81D-03

 Cycle   6  Pass 0  IDiag  1:
 E= -526.784666439654     Delta-E=       -0.000061295520 Rises=F Damp=F
 DIIS: error= 1.57D-04 at cycle   6 NSaved=   6.
 NSaved= 6 IEnMin= 6 EnMin= -526.784666439654     IErMin= 6 ErrMin= 1.57D-04
 ErrMax= 1.57D-04  0.00D+00 EMaxC= 1.00D-01 BMatC= 6.50D-06 BMatP= 9.18D-05
 IDIUse=3 WtCom= 9.98D-01 WtEn= 1.57D-03
 Coeff-Com: -0.410D-02 0.574D-02 0.442D-01 0.866D-01 0.270D+00 0.597D+00
 Coeff-En:   0.000D+00 0.000D+00 0.000D+00 0.000D+00 0.000D+00 0.100D+01
 Coeff:     -0.409D-02 0.573D-02 0.442D-01 0.865D-01 0.270D+00 0.598D+00
 Gap=     0.346 Goal=   None    Shift=    0.000
 RMSDP=5.52D-06 MaxDP=2.49D-04 DE=-6.13D-05 OVMax= 5.02D-04

 Initial convergence to 1.0D-05 achieved.  Increase integral accuracy.
 Cycle   7  Pass 1  IDiag  1:
 E= -526.784679490888     Delta-E=       -0.000013051234 Rises=F Damp=F
 DIIS: error= 5.08D-05 at cycle   1 NSaved=   1.
 NSaved= 1 IEnMin= 1 EnMin= -526.784679490888     IErMin= 1 ErrMin= 5.08D-05
 ErrMax= 5.08D-05  0.00D+00 EMaxC= 1.00D-01 BMatC= 8.68D-07 BMatP= 8.68D-07
 IDIUse=1 WtCom= 1.00D+00 WtEn= 0.00D+00
 Coeff-Com:  0.100D+01
 Coeff:      0.100D+01
 Gap=     0.346 Goal=   None    Shift=    0.000
 RMSDP=5.52D-06 MaxDP=2.49D-04 DE=-1.31D-05 OVMax= 2.34D-04

 Cycle   8  Pass 1  IDiag  1:
 E= -526.784679958389     Delta-E=       -0.000000467501 Rises=F Damp=F
 DIIS: error= 5.16D-05 at cycle   2 NSaved=   2.
 NSaved= 2 IEnMin= 2 EnMin= -526.784679958389     IErMin= 1 ErrMin= 5.08D-05
 ErrMax= 5.16D-05  0.00D+00 EMaxC= 1.00D-01 BMatC= 4.48D-07 BMatP= 8.68D-07
 IDIUse=1 WtCom= 1.00D+00 WtEn= 0.00D+00
 Coeff-Com:  0.392D+00 0.608D+00
 Coeff:      0.392D+00 0.608D+00
 Gap=     0.346 Goal=   None    Shift=    0.000
 RMSDP=1.69D-06 MaxDP=6.64D-05 DE=-4.68D-07 OVMax= 1.84D-04

 Cycle   9  Pass 1  IDiag  1:
 E= -526.784680167622     Delta-E=       -0.000000209233 Rises=F Damp=F
 DIIS: error= 2.75D-05 at cycle   3 NSaved=   3.
 NSaved= 3 IEnMin= 3 EnMin= -526.784680167622     IErMin= 3 ErrMin= 2.75D-05
 ErrMax= 2.75D-05  0.00D+00 EMaxC= 1.00D-01 BMatC= 1.07D-07 BMatP= 4.48D-07
 IDIUse=1 WtCom= 1.00D+00 WtEn= 0.00D+00
 Coeff-Com:  0.879D-02 0.318D+00 0.673D+00
 Coeff:      0.879D-02 0.318D+00 0.673D+00
 Gap=     0.346 Goal=   None    Shift=    0.000
 RMSDP=8.13D-07 MaxDP=3.25D-05 DE=-2.09D-07 OVMax= 1.05D-04

 Cycle  10  Pass 1  IDiag  1:
 E= -526.784680231013     Delta-E=       -0.000000063391 Rises=F Damp=F
 DIIS: error= 1.11D-05 at cycle   4 NSaved=   4.
 NSaved= 4 IEnMin= 4 EnMin= -526.784680231013     IErMin= 4 ErrMin= 1.11D-05
 ErrMax= 1.11D-05  0.00D+00 EMaxC= 1.00D-01 BMatC= 1.72D-08 BMatP= 1.07D-07
 IDIUse=1 WtCom= 1.00D+00 WtEn= 0.00D+00
 Coeff-Com: -0.343D-01 0.126D+00 0.388D+00 0.521D+00
 Coeff:     -0.343D-01 0.126D+00 0.388D+00 0.521D+00
 Gap=     0.346 Goal=   None    Shift=    0.000
 RMSDP=2.74D-07 MaxDP=1.21D-05 DE=-6.34D-08 OVMax= 3.37D-05

 Cycle  11  Pass 1  IDiag  1:
 E= -526.784680242480     Delta-E=       -0.000000011467 Rises=F Damp=F
 DIIS: error= 1.26D-06 at cycle   5 NSaved=   5.
 NSaved= 5 IEnMin= 5 EnMin= -526.784680242480     IErMin= 5 ErrMin= 1.26D-06
 ErrMax= 1.26D-06  0.00D+00 EMaxC= 1.00D-01 BMatC= 4.34D-10 BMatP= 1.72D-08
 IDIUse=1 WtCom= 1.00D+00 WtEn= 0.00D+00
 Coeff-Com: -0.900D-02 0.136D-02 0.300D-01 0.136D+00 0.842D+00
 Coeff:     -0.900D-02 0.136D-02 0.300D-01 0.136D+00 0.842D+00
 Gap=     0.346 Goal=   None    Shift=    0.000
 RMSDP=7.80D-08 MaxDP=1.88D-06 DE=-1.15D-08 OVMax= 9.09D-06

 Cycle  12  Pass 1  IDiag  1:
 E= -526.784680242926     Delta-E=       -0.000000000447 Rises=F Damp=F
 DIIS: error= 4.93D-07 at cycle   6 NSaved=   6.
 NSaved= 6 IEnMin= 6 EnMin= -526.784680242926     IErMin= 6 ErrMin= 4.93D-07
 ErrMax= 4.93D-07  0.00D+00 EMaxC= 1.00D-01 BMatC= 5.01D-11 BMatP= 4.34D-10
 IDIUse=1 WtCom= 1.00D+00 WtEn= 0.00D+00
 Coeff-Com:  0.212D-02-0.164D-01-0.446D-01-0.347D-01 0.223D+00 0.870D+00
 Coeff:      0.212D-02-0.164D-01-0.446D-01-0.347D-01 0.223D+00 0.870D+00
 Gap=     0.346 Goal=   None    Shift=    0.000
 RMSDP=3.02D-08 MaxDP=8.24D-07 DE=-4.47D-10 OVMax= 2.96D-06

 Cycle  13  Pass 1  IDiag  1:
 E= -526.784680242979     Delta-E=       -0.000000000053 Rises=F Damp=F
 DIIS: error= 1.84D-07 at cycle   7 NSaved=   7.
 NSaved= 7 IEnMin= 7 EnMin= -526.784680242979     IErMin= 7 ErrMin= 1.84D-07
 ErrMax= 1.84D-07  0.00D+00 EMaxC= 1.00D-01 BMatC= 7.92D-12 BMatP= 5.01D-11
 IDIUse=1 WtCom= 1.00D+00 WtEn= 0.00D+00
 Coeff-Com:  0.136D-02-0.712D-02-0.209D-01-0.215D-01 0.608D-01 0.391D+00
 Coeff-Com:  0.596D+00
 Coeff:      0.136D-02-0.712D-02-0.209D-01-0.215D-01 0.608D-01 0.391D+00
 Coeff:      0.596D+00
 Gap=     0.346 Goal=   None    Shift=    0.000
 RMSDP=6.43D-09 MaxDP=3.39D-07 DE=-5.32D-11 OVMax= 8.63D-07

 SCF Done:  E(RM062X) =  -526.784680243     A.U. after   13 cycles
            NFock= 13  Conv=0.64D-08     -V/T= 2.0036
 KE= 5.248916286773D+02 PE=-1.798343739932D+03 EE= 4.716036251063D+02
 Leave Link  502 at Sun May 25 04:29:41 2025, MaxMem=  3758096384 cpu:              35.2 elap:               7.1
 (Enter /apps/easybuild-2022/easybuild/software/Compiler/NVHPC/22.11-CUDA-11.7.0/Gaussian/g16c01-CUDA-11.7.0/g16/l508.exe)
 QCSCF skips out because SCF is already converged.
 Leave Link  508 at Sun May 25 04:29:41 2025, MaxMem=  3758096384 cpu:               0.0 elap:               0.0
 (Enter /apps/easybuild-2022/easybuild/software/Compiler/NVHPC/22.11-CUDA-11.7.0/Gaussian/g16c01-CUDA-11.7.0/g16/l801.exe)
 DoSCS=F DFT=T ScalE2(SS,OS)=  1.000000  1.000000
 Range of M.O.s used for correlation:     1   231
 NBasis=   231 NAE=    28 NBE=    28 NFC=     0 NFV=     0
 NROrb=    231 NOA=    28 NOB=    28 NVA=   203 NVB=   203

 **** Warning!!: The largest alpha MO coefficient is  0.19869261D+02

 Leave Link  801 at Sun May 25 04:29:41 2025, MaxMem=  3758096384 cpu:               0.0 elap:               0.0
 (Enter /apps/easybuild-2022/easybuild/software/Compiler/NVHPC/22.11-CUDA-11.7.0/Gaussian/g16c01-CUDA-11.7.0/g16/l1101.exe)
 Using compressed storage, NAtomX=     8.
 Will process      9 centers per pass.
   1 Symmetry operations used in ECPInt.
 ECPInt:  NShTT=    3486 NPrTT=   11183 LenC2=    3265 LenP2D=    7918.
 LDataN:  DoStor=T MaxTD1= 7 Len=  274
 Leave Link 1101 at Sun May 25 04:29:42 2025, MaxMem=  3758096384 cpu:               0.6 elap:               0.1
 (Enter /apps/easybuild-2022/easybuild/software/Compiler/NVHPC/22.11-CUDA-11.7.0/Gaussian/g16c01-CUDA-11.7.0/g16/l1102.exe)
 Symmetrizing basis deriv contribution to polar:
 IMax=3 JMax=2 DiffMx= 0.00D+00
 Leave Link 1102 at Sun May 25 04:29:42 2025, MaxMem=  3758096384 cpu:               0.0 elap:               0.0
 (Enter /apps/easybuild-2022/easybuild/software/Compiler/NVHPC/22.11-CUDA-11.7.0/Gaussian/g16c01-CUDA-11.7.0/g16/l1110.exe)
 Forming Gx(P) for the SCF density, NAtomX=     8.
 Integral derivatives from FoFJK, PRISM(SPDF).
 Do as many integral derivatives as possible in FoFJK.
 G2DrvN: MDV=    3758095456.
 G2DrvN: will do     9 centers at a time, making    1 passes.
 Calling FoFCou, ICntrl=  3107 FMM=F I1Cent=   0 AccDes= 0.00D+00.
 FoFJK:  IHMeth= 1 ICntrl=    3107 DoSepK=F KAlg= 0 I1Cent=           0 FoldK=F
 IRaf=         0 NMat=       1 IRICut=       1 DoRegI=T DoRafI=F ISym2E= 0 IDoP0=0 IntGTp=1.
 FoFCou: FMM=F IPFlag=           0 FMFlag=      100000 FMFlg1=           0
         NFxFlg=           0 DoJE=F BraDBF=F KetDBF=F FulRan=T
         wScrn=  0.000000 ICntrl=      3107 IOpCl=  0 I1Cent=           0 NGrid=           0
         NMat0=    1 NMatS0=      1 NMatT0=    0 NMatD0=    1 NMtDS0=    0 NMtDT0=    0
 Symmetry not used in FoFCou.
 End of G2Drv F.D. properties file   721 does not exist.
 End of G2Drv F.D. properties file   722 does not exist.
 End of G2Drv F.D. properties file   788 does not exist.
 Leave Link 1110 at Sun May 25 04:29:51 2025, MaxMem=  3758096384 cpu:              73.4 elap:               9.3
 (Enter /apps/easybuild-2022/easybuild/software/Compiler/NVHPC/22.11-CUDA-11.7.0/Gaussian/g16c01-CUDA-11.7.0/g16/l1002.exe)
 Minotr:  Closed shell wavefunction.
          IDoAtm=11111111
          Direct CPHF calculation.
          Differentiating once with respect to electric field.
                with respect to dipole field.
          Differentiating once with respect to nuclear coordinates.
          Requested convergence is 1.0D-08 RMS, and 1.0D-07 maximum.
          Secondary convergence is 1.0D-12 RMS, and 1.0D-12 maximum.
          NewPWx=T KeepS1=F KeepF1=F KeepIn=T MapXYZ=F SortEE=F KeepMc=T.
         2406 words used for storage of precomputed grid.
 Keep R1 ints in memory in canonical form, NReq=368655222.
 FoFCou: FMM=F IPFlag=           0 FMFlag=           0 FMFlg1=           0
         NFxFlg=           0 DoJE=F BraDBF=F KetDBF=F FulRan=T
         wScrn=  0.000000 ICntrl=       600 IOpCl=  0 I1Cent=           0 NGrid=           0
         NMat0=    1 NMatS0=  26796 NMatT0=    0 NMatD0=    1 NMtDS0=    0 NMtDT0=    0
 Symmetry not used in FoFCou.
 Two-electron integral symmetry not used.
          MDV=    3758096384 using IRadAn=       1.
          Solving linear equations simultaneously, MaxMat=       0.
          There are    27 degrees of freedom in the 1st order CPHF.  IDoFFX=6 NUNeed=     3.
     24 vectors produced by pass  0 Test12= 2.11D-14 3.70D-09 XBig12= 1.49D+01 1.49D+00.
 AX will form    24 AO Fock derivatives at one time.
     24 vectors produced by pass  1 Test12= 2.11D-14 3.70D-09 XBig12= 3.02D+00 4.63D-01.
     24 vectors produced by pass  2 Test12= 2.11D-14 3.70D-09 XBig12= 8.18D-02 5.19D-02.
     24 vectors produced by pass  3 Test12= 2.11D-14 3.70D-09 XBig12= 1.20D-03 5.95D-03.
     24 vectors produced by pass  4 Test12= 2.11D-14 3.70D-09 XBig12= 1.57D-05 9.29D-04.
     24 vectors produced by pass  5 Test12= 2.11D-14 3.70D-09 XBig12= 1.52D-07 5.88D-05.
     20 vectors produced by pass  6 Test12= 2.11D-14 3.70D-09 XBig12= 8.41D-10 4.38D-06.
     11 vectors produced by pass  7 Test12= 2.11D-14 3.70D-09 XBig12= 3.87D-12 3.11D-07.
      3 vectors produced by pass  8 Test12= 2.11D-14 3.70D-09 XBig12= 1.94D-14 1.83D-08.
 InvSVY:  IOpt=1 It=  1 EMax= 4.00D-15
 Solved reduced A of dimension   178 with    27 vectors.
 FullF1:  Do perturbations      1 to       3.
 Isotropic polarizability for W=    0.000000       34.18 Bohr**3.
 End of Minotr F.D. properties file   721 does not exist.
 End of Minotr F.D. properties file   722 does not exist.
 End of Minotr F.D. properties file   788 does not exist.
 Leave Link 1002 at Sun May 25 04:30:04 2025, MaxMem=  3758096384 cpu:             100.8 elap:              12.8
 (Enter /apps/easybuild-2022/easybuild/software/Compiler/NVHPC/22.11-CUDA-11.7.0/Gaussian/g16c01-CUDA-11.7.0/g16/l701.exe)
 ... and contract with generalized density number  0.
 Compute integral second derivatives.
   1 Symmetry operations used in ECPInt.
 ECPInt:  NShTT=    3486 NPrTT=   11183 LenC2=    3265 LenP2D=    7918.
 LDataN:  DoStor=T MaxTD1= 8 Len=  415
 Leave Link  701 at Sun May 25 04:30:04 2025, MaxMem=  3758096384 cpu:               0.5 elap:               0.1
 (Enter /apps/easybuild-2022/easybuild/software/Compiler/NVHPC/22.11-CUDA-11.7.0/Gaussian/g16c01-CUDA-11.7.0/g16/l702.exe)
 L702 exits ... SP integral derivatives will be done elsewhere.
 Leave Link  702 at Sun May 25 04:30:04 2025, MaxMem=  3758096384 cpu:               0.0 elap:               0.0
 (Enter /apps/easybuild-2022/easybuild/software/Compiler/NVHPC/22.11-CUDA-11.7.0/Gaussian/g16c01-CUDA-11.7.0/g16/l703.exe)
 Integral derivatives from FoFJK, PRISM(SPDF).
 Compute integral second derivatives, UseDBF=F ICtDFT=           0.
 Calling FoFJK, ICntrl=    100127 FMM=F ISym2X=0 I1Cent= 0 IOpClX= 0 NMat=1 NMatS=1 NMatT=0.
 FoFJK:  IHMeth= 1 ICntrl=  100127 DoSepK=F KAlg= 0 I1Cent=           0 FoldK=F
 IRaf=         0 NMat=       1 IRICut=       1 DoRegI=T DoRafI=F ISym2E= 0 IDoP0=0 IntGTp=1.
 FoFCou: FMM=F IPFlag=           0 FMFlag=      100000 FMFlg1=         800
         NFxFlg=           0 DoJE=F BraDBF=F KetDBF=F FulRan=T
         wScrn=  0.000000 ICntrl=    100127 IOpCl=  0 I1Cent=           0 NGrid=           0
         NMat0=    1 NMatS0=      1 NMatT0=    0 NMatD0=    1 NMtDS0=    0 NMtDT0=    0
 Symmetry not used in FoFCou.
 Leave Link  703 at Sun May 25 04:30:24 2025, MaxMem=  3758096384 cpu:             162.1 elap:              20.4
 (Enter /apps/easybuild-2022/easybuild/software/Compiler/NVHPC/22.11-CUDA-11.7.0/Gaussian/g16c01-CUDA-11.7.0/g16/l716.exe)
 Dipole        =-6.98623258D-01 3.04555629D-01-5.56125642D-02
 Polarizability= 3.72623522D+01-5.33922757D+00 3.69073060D+01
                -1.15881834D+00-6.95971354D-01 2.83611734D+01
 -------------------------------------------------------------------
 Center     Atomic                   Forces (Hartrees/Bohr)
 Number     Number              X              Y              Z
 -------------------------------------------------------------------
      1        6          -0.001790422   -0.001923685   -0.004784167
      2        8           0.002613723   -0.002365561    0.002709826
      3        6           0.001423058   -0.000392949   -0.002084633
      4        9           0.005664104    0.001725725    0.000189437
      5        9          -0.000920509   -0.002097732   -0.000314104
      6        9          -0.000297112    0.001289549    0.002901653
      7        8          -0.001134609    0.005122539    0.001938342
      8        1          -0.005558232   -0.001357884   -0.000556353
 -------------------------------------------------------------------
 Cartesian Forces:  Max     0.005664104 RMS     0.002669549
 Force constants in Cartesian coordinates: 
                1             2             3             4             5 
      1  0.818993D+00
      2 -0.864692D+00  0.128245D+01
      3  0.910447D-01 -0.113401D+00  0.172381D+00
      4 -0.433461D+00  0.451301D+00 -0.519591D-01  0.451309D+00
      5  0.449774D+00 -0.646190D+00  0.635947D-01 -0.518322D+00  0.701256D+00
      6 -0.528101D-01  0.648343D-01 -0.876343D-01  0.577931D-01 -0.745347D-01
      7 -0.862945D-02  0.108240D-02 -0.952334D-04 -0.889029D-04 -0.270842D-02
      8 -0.164356D-02 -0.757106D-02  0.385099D-02  0.240183D-02  0.283097D-02
      9 -0.485183D-02  0.809798D-02 -0.726396D-03  0.190542D-02 -0.351114D-02
     10  0.527606D-02 -0.936465D-02  0.941922D-03 -0.279930D-02  0.426690D-02
     11 -0.961593D-04 -0.319365D-02  0.507377D-03 -0.359847D-03  0.168587D-02
     12 -0.167409D-03  0.726717D-03 -0.644953D-03 -0.302517D-05 -0.350651D-03
     13  0.368942D-02  0.262087D-02  0.190028D-03 -0.157578D-02 -0.913491D-03
     14  0.390369D-03  0.450812D-02 -0.902652D-03 -0.965398D-03 -0.205109D-02
     15  0.257345D-03 -0.519126D-02  0.495912D-03  0.384267D-03  0.239021D-02
     16  0.415694D-02 -0.268287D-02 -0.671754D-03 -0.105450D-02  0.179238D-02
     17  0.395073D-02 -0.251928D-03 -0.318874D-02 -0.201883D-02  0.415913D-03
     18  0.358869D-02 -0.294860D-02 -0.827669D-03 -0.132366D-02  0.151870D-02
     19 -0.377843D+00  0.401378D+00 -0.371778D-01 -0.181185D-01  0.758028D-01
     20  0.409093D+00 -0.631700D+00  0.498631D-01  0.675875D-01 -0.561593D-01
     21 -0.369449D-01  0.484513D-01 -0.837880D-01 -0.679772D-02  0.105473D-01
     22 -0.121817D-01  0.203566D-01 -0.227274D-02  0.578941D-02 -0.969203D-02
     23  0.322330D-02  0.194396D-02 -0.323988D-03  0.376157D-03 -0.178899D-02
     24 -0.116588D-03 -0.569687D-03  0.744032D-03  0.000000D+00  0.345653D-03
                6             7             8             9            10 
      6  0.497529D-01
      7  0.128664D-02  0.281351D+00
      8 -0.200995D-02  0.196045D+00  0.364815D+00
      9  0.520661D-03 -0.149292D+00  0.107681D+00  0.339699D+00
     10 -0.444220D-03 -0.533291D-02  0.166580D-03 -0.246746D-03  0.620369D+00
     11 -0.339601D-03  0.625855D-02  0.392021D-03  0.192559D-02  0.357510D-01
     12  0.611949D-04 -0.115159D-02 -0.995782D-03 -0.253080D-02  0.110542D-02
     13 -0.847246D-04 -0.205315D+00 -0.929577D-01  0.177240D+00  0.252211D-02
     14  0.624550D-03 -0.964159D-01 -0.841877D-01  0.501492D-01  0.672034D-03
     15 -0.372654D-03  0.170381D+00  0.442499D-01 -0.196467D+00 -0.107333D-02
     16  0.554379D-04 -0.662478D-01 -0.102213D+00 -0.273274D-01  0.132010D-02
     17  0.138926D-02 -0.987694D-01 -0.275199D+00 -0.161037D+00  0.106335D-02
     18  0.213621D-03 -0.221736D-01 -0.154020D+00 -0.141979D+00  0.581603D-03
     19 -0.700029D-02  0.322580D-02 -0.184761D-02  0.405008D-02 -0.118193D-01
     20  0.969435D-02  0.705744D-03  0.700261D-03 -0.217415D-02  0.487718D-02
     21  0.372485D-01 -0.227858D-03 -0.166711D-03 -0.816060D-04 -0.568079D-03
     22  0.120406D-02  0.103733D-02  0.485486D-04 -0.147742D-02 -0.609536D+00
     23  0.341841D-03 -0.619793D-02 -0.178070D-02 -0.113211D-02 -0.374323D-01
     24  0.210129D-03  0.127363D-02  0.140978D-02  0.156567D-02 -0.296569D-03
               11            12            13            14            15 
     11  0.260084D-02
     12 -0.604684D-03 -0.238839D-04
     13 -0.242040D-02 -0.720916D-03  0.190022D+00
     14  0.139247D-03 -0.363595D-03  0.482177D-01  0.679928D-01
     15  0.291029D-03  0.937223D-03 -0.209246D+00  0.463867D-02  0.300277D+00
     16 -0.210898D-02  0.117976D-02  0.134003D-01  0.489204D-01  0.386389D-01
     17 -0.715971D-03  0.183805D-02  0.442177D-01  0.151194D-01 -0.479192D-01
     18 -0.171409D-02  0.141358D-02  0.321985D-01 -0.546545D-01 -0.104094D+00
     19 -0.953466D-03  0.322708D-03 -0.136327D-02  0.499200D-03 -0.879498D-03
     20  0.248745D-02 -0.224921D-03 -0.166123D-02 -0.180545D-02  0.210900D-02
     21 -0.684560D-04  0.172170D-02  0.647128D-04  0.206656D-03 -0.912608D-04
     22 -0.360707D-01 -0.564951D-03 -0.137959D-02 -0.131841D-02  0.153746D-02
     23 -0.339581D-02 -0.251322D-04  0.289657D-02  0.284662D-03 -0.568393D-03
     24  0.284035D-05 -0.934062D-03  0.357687D-03  0.301658D-03 -0.684683D-03
               16            17            18            19            20 
     16  0.506477D-01
     17  0.540011D-01  0.259885D+00
     18 -0.112499D-01  0.209629D+00  0.246049D+00
     19 -0.234315D-02 -0.180033D-02 -0.216826D-02  0.402730D+00
     20  0.246021D-03 -0.357784D-03  0.762469D-03 -0.471211D+00  0.689554D+00
     21  0.564211D-03  0.126599D-02  0.438428D-03  0.430238D-01 -0.601525D-01
     22  0.120456D-03 -0.644279D-03  0.546602D-03  0.553154D-02 -0.963682D-02
     23  0.204502D-02  0.110443D-02  0.142694D-02 -0.186780D-02 -0.271949D-02
     24 -0.118929D-02 -0.197733D-02 -0.121413D-02 -0.170798D-03  0.122671D-03
               21            22            23            24 
     21  0.473773D-01
     22  0.885762D-03  0.610618D+00
     23 -0.835731D-04  0.369570D-01  0.635194D-02
     24 -0.282505D-02  0.141220D-03  0.364416D-03  0.313810D-02
 Leave Link  716 at Sun May 25 04:30:24 2025, MaxMem=  3758096384 cpu:               0.0 elap:               0.0
 (Enter /apps/easybuild-2022/easybuild/software/Compiler/NVHPC/22.11-CUDA-11.7.0/Gaussian/g16c01-CUDA-11.7.0/g16/l103.exe)

 GradGradGradGradGradGradGradGradGradGradGradGradGradGradGradGradGradGrad
 Berny optimization.
 Search for a local minimum.
 Step number   1 out of a maximum of   34
 All quantities printed in internal units (Hartrees-Bohrs-Radians)
 Second derivative matrix not updated -- analytic derivatives used.
 ITU=  0
     Eigenvalues ---   -0.00193  -0.00039   0.00018   0.00072   0.00243
     Eigenvalues ---    0.00354   0.00556   0.00723   0.01221   0.02690
     Eigenvalues ---    0.23415   0.24117   0.32736   0.79363   0.95053
     Eigenvalues ---    1.15268   1.19175   2.91927
 Eigenvalue     1 is  -1.93D-03 should be greater than     0.000000 Eigenvector:
                          Y4        Y6        X6        Z6        Z5
   1                    0.63090  -0.46336   0.43237   0.23895  -0.16282
                          Z3        Z4        Y8        X4        X5
   1                   -0.15922   0.13965  -0.11181  -0.10946  -0.10416
 Eigenvalue     2 is  -3.90D-04 should be greater than     0.000000 Eigenvector:
                          X6        Z2        Z8        Z3        Z4
   1                    0.41351  -0.36722   0.34517   0.32624  -0.31994
                          Y6        X5        Y5        Z7        X2
   1                    0.25763  -0.25398  -0.24808   0.23922  -0.18272
 RFO step:  Lambda=-2.83400313D-03 EMin=-1.93418757D-03
 Linear search not attempted -- first point.
 Maximum step size (   0.300) exceeded in Quadratic search.
    -- Step size scaled by   0.311
 B after Tr=     0.002033    0.004064   -0.001784
         Rot=    1.000000   -0.000115   -0.000390   -0.000073 Ang=  -0.05 deg.
 Variable       Old X    -DE/DX   Delta X   Delta X   Delta X     New X
                                 (Linear)    (Quad)   (Total)
    X1       -3.24077  -0.00179   0.00000  -0.02306  -0.02024  -3.26101
    Y1       -1.69614  -0.00192   0.00000  -0.01099  -0.00756  -1.70370
    Z1        0.70801  -0.00478   0.00000  -0.02436  -0.02399   0.68402
    X2       -4.58634   0.00261   0.00000  -0.05597  -0.05356  -4.63990
    Y2        0.00188  -0.00237   0.00000  -0.04072  -0.03744  -0.03556
    Z2        0.51343   0.00271   0.00000  -0.03723  -0.03541   0.47802
    X3        1.07432   0.00142   0.00000  -0.03764  -0.03646   1.03786
    Y3        1.70810  -0.00039   0.00000   0.00706   0.01146   1.71955
    Z3       -0.79490  -0.00208   0.00000   0.02617   0.02397  -0.77093
    X4        3.38331   0.00566   0.00000  -0.01677  -0.01366   3.36965
    Y4       -3.17383   0.00173   0.00000   0.18832   0.19269  -2.98114
    Z4        0.86936   0.00019   0.00000  -0.04125  -0.04635   0.82301
    X5        2.65563  -0.00092   0.00000  -0.04039  -0.04067   2.61495
    Y5        2.08830  -0.00210   0.00000  -0.09714  -0.09210   1.99621
    Z5       -2.60676  -0.00031   0.00000   0.00251  -0.00085  -2.60761
    X6        1.42862  -0.00030   0.00000   0.15182   0.15396   1.58258
    Y6        3.56557   0.00129   0.00000  -0.05040  -0.04629   3.51928
    Z6        0.73802   0.00290   0.00000   0.05585   0.05364   0.79166
    X7       -1.95429  -0.00113   0.00000   0.01029   0.01350  -1.94079
    Y7       -3.46845   0.00512   0.00000   0.01688   0.02046  -3.44799
    Z7        0.86740   0.00194   0.00000   0.00857   0.00750   0.87491
    X8        1.64719  -0.00556   0.00000  -0.00608  -0.00287   1.64432
    Y8       -3.27847  -0.00136   0.00000  -0.04532  -0.04122  -3.31969
    Z8        0.86815  -0.00056   0.00000   0.02531   0.02148   0.88963
         Item               Value     Threshold  Converged?
 Maximum Force            0.005664     0.000450     NO 
 RMS     Force            0.002670     0.000300     NO 
 Maximum Displacement     0.192688     0.001800     NO 
 RMS     Displacement     0.061152     0.001200     NO 
 Predicted change in Energy=-6.380734D-04
 Lowest energy point so far.  Saving SCF results.
 GradGradGradGradGradGradGradGradGradGradGradGradGradGradGradGradGradGrad

 Leave Link  103 at Sun May 25 04:30:24 2025, MaxMem=  3758096384 cpu:               0.0 elap:               0.0
 (Enter /apps/easybuild-2022/easybuild/software/Compiler/NVHPC/22.11-CUDA-11.7.0/Gaussian/g16c01-CUDA-11.7.0/g16/l202.exe)
                          Input orientation:                          
 ---------------------------------------------------------------------
 Center     Atomic      Atomic             Coordinates (Angstroms)
 Number     Number       Type             X           Y           Z
 ---------------------------------------------------------------------
      1          6           0       -1.725654   -0.901558    0.361966
      2          8           0       -2.455327   -0.018819    0.252957
      3          6           0        0.549212    0.909949   -0.407959
      4          9           0        1.783143   -1.577550    0.435516
      5          9           0        1.383773    1.056346   -1.379889
      6          9           0        0.837464    1.862323    0.418928
      7          8           0       -1.027020   -1.824598    0.462981
      8          1           0        0.870136   -1.756702    0.470770
 ---------------------------------------------------------------------
                    Distance matrix (angstroms):
                    1          2          3          4          5
     1  C    0.000000
     2  O    1.150449   0.000000
     3  C    3.008215   3.213514   0.000000
     4  F    3.574078   4.519690   2.902014   0.000000
     5  F    4.066446   4.308232   1.289408   3.223756   0.000000
     6  F    3.769861   3.795881   1.293772   3.567535   2.045433
     7  O    1.162023   2.311928   3.274262   2.821135   4.184249
     8  H    2.735184   3.758508   2.825984   0.931086   3.406172
                    6          7          8
     6  F    0.000000
     7  O    4.131783   0.000000
     8  H    3.619544   1.898386   0.000000
 Symmetry turned off by external request.
 Stoichiometry    C2HF3O2
 Rotational constants (GHZ):           2.4131458           1.4450549           1.0314493
 Leave Link  202 at Sun May 25 04:30:24 2025, MaxMem=  3758096384 cpu:               0.0 elap:               0.0
 (Enter /apps/easybuild-2022/easybuild/software/Compiler/NVHPC/22.11-CUDA-11.7.0/Gaussian/g16c01-CUDA-11.7.0/g16/l301.exe)
 Standard basis: def2TZVPP (5D, 7F)
 Ernie: Thresh=  0.10000D-02 Tol=  0.10000D-05 Strict=F.
   231 basis functions,   374 primitive gaussians,   267 cartesian basis functions
    28 alpha electrons       28 beta electrons
       nuclear repulsion energy       276.1593422234 Hartrees.
 IExCor= 4336 DFT=T Ex+Corr=M062X ExCW=0 ScaHFX=  0.540000
 ScaDFX=  1.000000  1.000000  1.000000  1.000000 ScalE2=  1.000000  1.000000
 IRadAn=      5 IRanWt=     -1 IRanGd=            0 ICorTp=0 IEmpDi=  4
 NAtoms=    8 NActive=    8 NUniq=    8 SFac= 1.00D+00 NAtFMM=   60 NAOKFM=F Big=F
 Integral buffers will be    131072 words long.
 Raffenetti 2 integral format.
 Two-electron integral symmetry is turned off.
 Leave Link  301 at Sun May 25 04:30:24 2025, MaxMem=  3758096384 cpu:               0.0 elap:               0.0
 (Enter /apps/easybuild-2022/easybuild/software/Compiler/NVHPC/22.11-CUDA-11.7.0/Gaussian/g16c01-CUDA-11.7.0/g16/l302.exe)
 NPDir=0 NMtPBC=     1 NCelOv=     1 NCel=       1 NClECP=     1 NCelD=      1
         NCelK=      1 NCelE2=     1 NClLst=     1 CellRange=     0.0.
 One-electron integrals computed using PRISM.
   1 Symmetry operations used in ECPInt.
 ECPInt:  NShTT=    3486 NPrTT=   11183 LenC2=    3272 LenP2D=    7928.
 LDataN:  DoStor=T MaxTD1= 6 Len=  172
 NBasis=   231 RedAO= T EigKep=  4.32D-04  NBF=   231
 NBsUse=   231 1.00D-06 EigRej= -1.00D+00 NBFU=   231
 Precomputing XC quadrature grid using
 IXCGrd= 4 IRadAn=           5 IRanWt=          -1 IRanGd=           0 AccXCQ= 0.00D+00.
 Generated NRdTot=       0 NPtTot=           0 NUsed=           0 NTot=          32
 NSgBfM=   263   263   263   263   263 MxSgAt=     8 MxSgA2=     8.
 Leave Link  302 at Sun May 25 04:30:24 2025, MaxMem=  3758096384 cpu:               0.4 elap:               0.1
 (Enter /apps/easybuild-2022/easybuild/software/Compiler/NVHPC/22.11-CUDA-11.7.0/Gaussian/g16c01-CUDA-11.7.0/g16/l303.exe)
 DipDrv:  MaxL=1.
 Leave Link  303 at Sun May 25 04:30:25 2025, MaxMem=  3758096384 cpu:               0.0 elap:               0.0
 (Enter /apps/easybuild-2022/easybuild/software/Compiler/NVHPC/22.11-CUDA-11.7.0/Gaussian/g16c01-CUDA-11.7.0/g16/l401.exe)
 Initial guess from the checkpoint file:  "1141903082400600000001_ketoenol_2_1_3_4_IRC_R_prod.chk"
 B after Tr=     0.004096    0.005991   -0.002441
         Rot=    1.000000   -0.000142   -0.000673   -0.000029 Ang=  -0.08 deg.
 Guess basis will be translated and rotated to current coordinates.
 JPrj=2 DoOrth=T DoCkMO=T.
 Generating alternative initial guess.
 ExpMin= 9.52D-02 ExpMax= 3.55D+04 ExpMxC= 1.21D+03 IAcc=3 IRadAn=         5 AccDes= 0.00D+00
 Harris functional with IExCor= 1009 and IRadAn=       5 diagonalized for initial guess.
 HarFok:  IExCor= 1009 AccDes= 0.00D+00 IRadAn=         5 IDoV= 1 UseB2=F ITyADJ=14
 ICtDFT=  3500011 ScaDFX=  1.000000  1.000000  1.000000  1.000000
 FoFCou: FMM=F IPFlag=           0 FMFlag=      100000 FMFlg1=           0
         NFxFlg=           0 DoJE=T BraDBF=F KetDBF=T FulRan=T
         wScrn=  0.000000 ICntrl=       500 IOpCl=  0 I1Cent=   200000004 NGrid=           0
         NMat0=    1 NMatS0=      1 NMatT0=    0 NMatD0=    1 NMtDS0=    0 NMtDT0=    0
 Symmetry not used in FoFCou.
 Harris En= -526.474776699847    
 Leave Link  401 at Sun May 25 04:30:25 2025, MaxMem=  3758096384 cpu:               1.4 elap:               0.2
 (Enter /apps/easybuild-2022/easybuild/software/Compiler/NVHPC/22.11-CUDA-11.7.0/Gaussian/g16c01-CUDA-11.7.0/g16/l502.exe)
 Keep R1 ints in memory in canonical form, NReq=368651247.
 FoFCou: FMM=F IPFlag=           0 FMFlag=           0 FMFlg1=           0
         NFxFlg=           0 DoJE=F BraDBF=F KetDBF=F FulRan=T
         wScrn=  0.000000 ICntrl=       600 IOpCl=  0 I1Cent=           0 NGrid=           0
         NMat0=    1 NMatS0=  26796 NMatT0=    0 NMatD0=    1 NMtDS0=    0 NMtDT0=    0
 Symmetry not used in FoFCou.
 Two-electron integral symmetry not used.
 Closed shell SCF:
 Using DIIS extrapolation, IDIIS=  1040.
 NGot=  3758096384 LenX=  3398923563 LenY=  3398851833
 Requested convergence on RMS density matrix=1.00D-08 within  32 cycles.
 Requested convergence on MAX density matrix=1.00D-06.
 Requested convergence on             energy=1.00D-06.
 No special actions if energy rises.
 Integral accuracy reduced to 1.0D-05 until final iterations.

 Cycle   1  Pass 0  IDiag  1:
 E= -526.777024695841    
 DIIS: error= 3.95D-03 at cycle   1 NSaved=   1.
 NSaved= 1 IEnMin= 1 EnMin= -526.777024695841     IErMin= 1 ErrMin= 3.95D-03
 ErrMax= 3.95D-03  0.00D+00 EMaxC= 1.00D-01 BMatC= 6.42D-03 BMatP= 6.42D-03
 IDIUse=3 WtCom= 9.61D-01 WtEn= 3.95D-02
 Coeff-Com:  0.100D+01
 Coeff-En:   0.100D+01
 Coeff:      0.100D+01
 Gap=     0.926 Goal=   None    Shift=    0.000
 GapD=    0.926 DampG=2.000 DampE=1.000 DampFc=2.0000 IDamp=-1.
 RMSDP=3.22D-04 MaxDP=1.29D-02              OVMax= 2.99D-02

 Cycle   2  Pass 0  IDiag  1:
 E= -526.784640187625     Delta-E=       -0.007615491784 Rises=F Damp=F
 DIIS: error= 8.77D-04 at cycle   2 NSaved=   2.
 NSaved= 2 IEnMin= 2 EnMin= -526.784640187625     IErMin= 2 ErrMin= 8.77D-04
 ErrMax= 8.77D-04  0.00D+00 EMaxC= 1.00D-01 BMatC= 2.39D-04 BMatP= 6.42D-03
 IDIUse=3 WtCom= 9.91D-01 WtEn= 8.77D-03
 Coeff-Com: -0.139D+00 0.114D+01
 Coeff-En:   0.000D+00 0.100D+01
 Coeff:     -0.138D+00 0.114D+01
 Gap=     0.346 Goal=   None    Shift=    0.000
 RMSDP=9.02D-05 MaxDP=4.02D-03 DE=-7.62D-03 OVMax= 1.14D-02

 Cycle   3  Pass 0  IDiag  1:
 E= -526.785085369413     Delta-E=       -0.000445181788 Rises=F Damp=F
 DIIS: error= 4.21D-04 at cycle   3 NSaved=   3.
 NSaved= 3 IEnMin= 3 EnMin= -526.785085369413     IErMin= 3 ErrMin= 4.21D-04
 ErrMax= 4.21D-04  0.00D+00 EMaxC= 1.00D-01 BMatC= 5.44D-05 BMatP= 2.39D-04
 IDIUse=3 WtCom= 9.96D-01 WtEn= 4.21D-03
 Coeff-Com: -0.607D-01 0.367D+00 0.694D+00
 Coeff-En:   0.000D+00 0.000D+00 0.100D+01
 Coeff:     -0.604D-01 0.365D+00 0.695D+00
 Gap=     0.346 Goal=   None    Shift=    0.000
 RMSDP=2.28D-05 MaxDP=8.70D-04 DE=-4.45D-04 OVMax= 2.93D-03

 Cycle   4  Pass 0  IDiag  1:
 E= -526.785123719436     Delta-E=       -0.000038350024 Rises=F Damp=F
 DIIS: error= 1.83D-04 at cycle   4 NSaved=   4.
 NSaved= 4 IEnMin= 4 EnMin= -526.785123719436     IErMin= 4 ErrMin= 1.83D-04
 ErrMax= 1.83D-04  0.00D+00 EMaxC= 1.00D-01 BMatC= 1.48D-05 BMatP= 5.44D-05
 IDIUse=3 WtCom= 9.98D-01 WtEn= 1.83D-03
 Coeff-Com:  0.654D-02-0.104D+00 0.315D+00 0.782D+00
 Coeff-En:   0.000D+00 0.000D+00 0.000D+00 0.100D+01
 Coeff:      0.653D-02-0.104D+00 0.315D+00 0.783D+00
 Gap=     0.346 Goal=   None    Shift=    0.000
 RMSDP=1.38D-05 MaxDP=4.51D-04 DE=-3.84D-05 OVMax= 2.26D-03

 Cycle   5  Pass 0  IDiag  1:
 E= -526.785137649800     Delta-E=       -0.000013930363 Rises=F Damp=F
 DIIS: error= 1.14D-04 at cycle   5 NSaved=   5.
 NSaved= 5 IEnMin= 5 EnMin= -526.785137649800     IErMin= 5 ErrMin= 1.14D-04
 ErrMax= 1.14D-04  0.00D+00 EMaxC= 1.00D-01 BMatC= 1.46D-06 BMatP= 1.48D-05
 IDIUse=3 WtCom= 9.99D-01 WtEn= 1.14D-03
 Coeff-Com:  0.717D-02-0.739D-01 0.937D-01 0.351D+00 0.622D+00
 Coeff-En:   0.000D+00 0.000D+00 0.000D+00 0.000D+00 0.100D+01
 Coeff:      0.717D-02-0.738D-01 0.936D-01 0.350D+00 0.623D+00
 Gap=     0.346 Goal=   None    Shift=    0.000
 RMSDP=4.25D-06 MaxDP=1.30D-04 DE=-1.39D-05 OVMax= 5.86D-04

 Initial convergence to 1.0D-05 achieved.  Increase integral accuracy.
 Cycle   6  Pass 1  IDiag  1:
 E= -526.785169513137     Delta-E=       -0.000031863337 Rises=F Damp=F
 DIIS: error= 6.01D-05 at cycle   1 NSaved=   1.
 NSaved= 1 IEnMin= 1 EnMin= -526.785169513137     IErMin= 1 ErrMin= 6.01D-05
 ErrMax= 6.01D-05  0.00D+00 EMaxC= 1.00D-01 BMatC= 7.93D-07 BMatP= 7.93D-07
 IDIUse=1 WtCom= 1.00D+00 WtEn= 0.00D+00
 Coeff-Com:  0.100D+01
 Coeff:      0.100D+01
 Gap=     0.346 Goal=   None    Shift=    0.000
 RMSDP=4.25D-06 MaxDP=1.30D-04 DE=-3.19D-05 OVMax= 4.31D-04

 Cycle   7  Pass 1  IDiag  1:
 E= -526.785169720906     Delta-E=       -0.000000207769 Rises=F Damp=F
 DIIS: error= 1.07D-04 at cycle   2 NSaved=   2.
 NSaved= 2 IEnMin= 2 EnMin= -526.785169720906     IErMin= 1 ErrMin= 6.01D-05
 ErrMax= 1.07D-04  0.00D+00 EMaxC= 1.00D-01 BMatC= 9.26D-07 BMatP= 7.93D-07
 IDIUse=3 WtCom= 4.91D-01 WtEn= 5.09D-01
 Coeff-Com:  0.525D+00 0.475D+00
 Coeff-En:   0.381D+00 0.619D+00
 Coeff:      0.452D+00 0.548D+00
 Gap=     0.346 Goal=   None    Shift=    0.000
 RMSDP=2.57D-06 MaxDP=1.17D-04 DE=-2.08D-07 OVMax= 3.68D-04

 Cycle   8  Pass 1  IDiag  1:
 E= -526.785170222201     Delta-E=       -0.000000501295 Rises=F Damp=F
 DIIS: error= 5.51D-05 at cycle   3 NSaved=   3.
 NSaved= 3 IEnMin= 3 EnMin= -526.785170222201     IErMin= 3 ErrMin= 5.51D-05
 ErrMax= 5.51D-05  0.00D+00 EMaxC= 1.00D-01 BMatC= 2.36D-07 BMatP= 7.93D-07
 IDIUse=1 WtCom= 1.00D+00 WtEn= 0.00D+00
 Coeff-Com: -0.509D-01 0.328D+00 0.723D+00
 Coeff:     -0.509D-01 0.328D+00 0.723D+00
 Gap=     0.346 Goal=   None    Shift=    0.000
 RMSDP=1.15D-06 MaxDP=4.34D-05 DE=-5.01D-07 OVMax= 1.34D-04

 Cycle   9  Pass 1  IDiag  1:
 E= -526.785170403625     Delta-E=       -0.000000181424 Rises=F Damp=F
 DIIS: error= 5.46D-06 at cycle   4 NSaved=   4.
 NSaved= 4 IEnMin= 4 EnMin= -526.785170403625     IErMin= 4 ErrMin= 5.46D-06
 ErrMax= 5.46D-06  0.00D+00 EMaxC= 1.00D-01 BMatC= 6.96D-09 BMatP= 2.36D-07
 IDIUse=1 WtCom= 1.00D+00 WtEn= 0.00D+00
 Coeff-Com: -0.483D-01 0.108D+00 0.294D+00 0.646D+00
 Coeff:     -0.483D-01 0.108D+00 0.294D+00 0.646D+00
 Gap=     0.346 Goal=   None    Shift=    0.000
 RMSDP=2.88D-07 MaxDP=1.01D-05 DE=-1.81D-07 OVMax= 4.41D-05

 Cycle  10  Pass 1  IDiag  1:
 E= -526.785170410988     Delta-E=       -0.000000007363 Rises=F Damp=F
 DIIS: error= 1.76D-06 at cycle   5 NSaved=   5.
 NSaved= 5 IEnMin= 5 EnMin= -526.785170410988     IErMin= 5 ErrMin= 1.76D-06
 ErrMax= 1.76D-06  0.00D+00 EMaxC= 1.00D-01 BMatC= 1.08D-09 BMatP= 6.96D-09
 IDIUse=1 WtCom= 1.00D+00 WtEn= 0.00D+00
 Coeff-Com:  0.979D-03-0.733D-01-0.143D+00 0.161D+00 0.106D+01
 Coeff:      0.979D-03-0.733D-01-0.143D+00 0.161D+00 0.106D+01
 Gap=     0.346 Goal=   None    Shift=    0.000
 RMSDP=2.53D-07 MaxDP=7.87D-06 DE=-7.36D-09 OVMax= 4.82D-05

 Cycle  11  Pass 1  IDiag  1:
 E= -526.785170413418     Delta-E=       -0.000000002429 Rises=F Damp=F
 DIIS: error= 5.86D-07 at cycle   6 NSaved=   6.
 NSaved= 6 IEnMin= 6 EnMin= -526.785170413418     IErMin= 6 ErrMin= 5.86D-07
 ErrMax= 5.86D-07  0.00D+00 EMaxC= 1.00D-01 BMatC= 1.01D-10 BMatP= 1.08D-09
 IDIUse=1 WtCom= 1.00D+00 WtEn= 0.00D+00
 Coeff-Com:  0.446D-02-0.329D-01-0.713D-01-0.272D-02 0.346D+00 0.756D+00
 Coeff:      0.446D-02-0.329D-01-0.713D-01-0.272D-02 0.346D+00 0.756D+00
 Gap=     0.346 Goal=   None    Shift=    0.000
 RMSDP=5.18D-08 MaxDP=1.89D-06 DE=-2.43D-09 OVMax= 9.52D-06

 Cycle  12  Pass 1  IDiag  1:
 E= -526.785170413541     Delta-E=       -0.000000000123 Rises=F Damp=F
 DIIS: error= 1.84D-07 at cycle   7 NSaved=   7.
 NSaved= 7 IEnMin= 7 EnMin= -526.785170413541     IErMin= 7 ErrMin= 1.84D-07
 ErrMax= 1.84D-07  0.00D+00 EMaxC= 1.00D-01 BMatC= 1.36D-11 BMatP= 1.01D-10
 IDIUse=1 WtCom= 1.00D+00 WtEn= 0.00D+00
 Coeff-Com:  0.109D-02-0.453D-02-0.108D-01-0.152D-01 0.285D-01 0.278D+00
 Coeff-Com:  0.723D+00
 Coeff:      0.109D-02-0.453D-02-0.108D-01-0.152D-01 0.285D-01 0.278D+00
 Coeff:      0.723D+00
 Gap=     0.346 Goal=   None    Shift=    0.000
 RMSDP=1.29D-08 MaxDP=4.88D-07 DE=-1.23D-10 OVMax= 1.89D-06

 Cycle  13  Pass 1  IDiag  1:
 E= -526.785170413550     Delta-E=       -0.000000000009 Rises=F Damp=F
 DIIS: error= 8.27D-08 at cycle   8 NSaved=   8.
 NSaved= 8 IEnMin= 8 EnMin= -526.785170413550     IErMin= 8 ErrMin= 8.27D-08
 ErrMax= 8.27D-08  0.00D+00 EMaxC= 1.00D-01 BMatC= 2.18D-12 BMatP= 1.36D-11
 IDIUse=1 WtCom= 1.00D+00 WtEn= 0.00D+00
 Coeff-Com: -0.604D-04 0.256D-02 0.500D-02-0.776D-02-0.377D-01 0.534D-02
 Coeff-Com:  0.312D+00 0.721D+00
 Coeff:     -0.604D-04 0.256D-02 0.500D-02-0.776D-02-0.377D-01 0.534D-02
 Coeff:      0.312D+00 0.721D+00
 Gap=     0.346 Goal=   None    Shift=    0.000
 RMSDP=5.40D-09 MaxDP=2.44D-07 DE=-9.09D-12 OVMax= 7.41D-07

 SCF Done:  E(RM062X) =  -526.785170414     A.U. after   13 cycles
            NFock= 13  Conv=0.54D-08     -V/T= 2.0037
 KE= 5.248577076099D+02 PE=-1.800583683273D+03 EE= 4.727814630266D+02
 Leave Link  502 at Sun May 25 04:30:31 2025, MaxMem=  3758096384 cpu:              31.0 elap:               6.5
 (Enter /apps/easybuild-2022/easybuild/software/Compiler/NVHPC/22.11-CUDA-11.7.0/Gaussian/g16c01-CUDA-11.7.0/g16/l508.exe)
 QCSCF skips out because SCF is already converged.
 Leave Link  508 at Sun May 25 04:30:31 2025, MaxMem=  3758096384 cpu:               0.0 elap:               0.0
 (Enter /apps/easybuild-2022/easybuild/software/Compiler/NVHPC/22.11-CUDA-11.7.0/Gaussian/g16c01-CUDA-11.7.0/g16/l801.exe)
 DoSCS=F DFT=T ScalE2(SS,OS)=  1.000000  1.000000
 Range of M.O.s used for correlation:     1   231
 NBasis=   231 NAE=    28 NBE=    28 NFC=     0 NFV=     0
 NROrb=    231 NOA=    28 NOB=    28 NVA=   203 NVB=   203

 **** Warning!!: The largest alpha MO coefficient is  0.19518619D+02

 Leave Link  801 at Sun May 25 04:30:31 2025, MaxMem=  3758096384 cpu:               0.0 elap:               0.0
 (Enter /apps/easybuild-2022/easybuild/software/Compiler/NVHPC/22.11-CUDA-11.7.0/Gaussian/g16c01-CUDA-11.7.0/g16/l1101.exe)
 Using compressed storage, NAtomX=     8.
 Will process      9 centers per pass.
   1 Symmetry operations used in ECPInt.
 ECPInt:  NShTT=    3486 NPrTT=   11183 LenC2=    3272 LenP2D=    7928.
 LDataN:  DoStor=T MaxTD1= 7 Len=  274
 Leave Link 1101 at Sun May 25 04:30:31 2025, MaxMem=  3758096384 cpu:               0.5 elap:               0.1
 (Enter /apps/easybuild-2022/easybuild/software/Compiler/NVHPC/22.11-CUDA-11.7.0/Gaussian/g16c01-CUDA-11.7.0/g16/l1102.exe)
 Symmetrizing basis deriv contribution to polar:
 IMax=3 JMax=2 DiffMx= 0.00D+00
 Leave Link 1102 at Sun May 25 04:30:31 2025, MaxMem=  3758096384 cpu:               0.0 elap:               0.0
 (Enter /apps/easybuild-2022/easybuild/software/Compiler/NVHPC/22.11-CUDA-11.7.0/Gaussian/g16c01-CUDA-11.7.0/g16/l1110.exe)
 Forming Gx(P) for the SCF density, NAtomX=     8.
 Integral derivatives from FoFJK, PRISM(SPDF).
 Do as many integral derivatives as possible in FoFJK.
 G2DrvN: MDV=    3758095456.
 G2DrvN: will do     9 centers at a time, making    1 passes.
 Calling FoFCou, ICntrl=  3107 FMM=F I1Cent=   0 AccDes= 0.00D+00.
 FoFJK:  IHMeth= 1 ICntrl=    3107 DoSepK=F KAlg= 0 I1Cent=           0 FoldK=F
 IRaf=         0 NMat=       1 IRICut=       1 DoRegI=T DoRafI=F ISym2E= 0 IDoP0=0 IntGTp=1.
 FoFCou: FMM=F IPFlag=           0 FMFlag=      100000 FMFlg1=           0
         NFxFlg=           0 DoJE=F BraDBF=F KetDBF=F FulRan=T
         wScrn=  0.000000 ICntrl=      3107 IOpCl=  0 I1Cent=           0 NGrid=           0
         NMat0=    1 NMatS0=      1 NMatT0=    0 NMatD0=    1 NMtDS0=    0 NMtDT0=    0
 Symmetry not used in FoFCou.
 End of G2Drv F.D. properties file   721 does not exist.
 End of G2Drv F.D. properties file   722 does not exist.
 End of G2Drv F.D. properties file   788 does not exist.
 Leave Link 1110 at Sun May 25 04:30:40 2025, MaxMem=  3758096384 cpu:              68.5 elap:               8.7
 (Enter /apps/easybuild-2022/easybuild/software/Compiler/NVHPC/22.11-CUDA-11.7.0/Gaussian/g16c01-CUDA-11.7.0/g16/l1002.exe)
 Minotr:  Closed shell wavefunction.
          IDoAtm=11111111
          Direct CPHF calculation.
          Differentiating once with respect to electric field.
                with respect to dipole field.
          Differentiating once with respect to nuclear coordinates.
          Requested convergence is 1.0D-08 RMS, and 1.0D-07 maximum.
          Secondary convergence is 1.0D-12 RMS, and 1.0D-12 maximum.
          NewPWx=T KeepS1=F KeepF1=F KeepIn=T MapXYZ=F SortEE=F KeepMc=T.
         2406 words used for storage of precomputed grid.
 Keep R1 ints in memory in canonical form, NReq=368655222.
 FoFCou: FMM=F IPFlag=           0 FMFlag=           0 FMFlg1=           0
         NFxFlg=           0 DoJE=F BraDBF=F KetDBF=F FulRan=T
         wScrn=  0.000000 ICntrl=       600 IOpCl=  0 I1Cent=           0 NGrid=           0
         NMat0=    1 NMatS0=  26796 NMatT0=    0 NMatD0=    1 NMtDS0=    0 NMtDT0=    0
 Symmetry not used in FoFCou.
 Two-electron integral symmetry not used.
          MDV=    3758096384 using IRadAn=       1.
          Solving linear equations simultaneously, MaxMat=       0.
          There are    27 degrees of freedom in the 1st order CPHF.  IDoFFX=6 NUNeed=     3.
     24 vectors produced by pass  0 Test12= 2.11D-14 3.70D-09 XBig12= 1.49D+01 1.48D+00.
 AX will form    24 AO Fock derivatives at one time.
     24 vectors produced by pass  1 Test12= 2.11D-14 3.70D-09 XBig12= 3.15D+00 4.64D-01.
     24 vectors produced by pass  2 Test12= 2.11D-14 3.70D-09 XBig12= 8.88D-02 5.49D-02.
     24 vectors produced by pass  3 Test12= 2.11D-14 3.70D-09 XBig12= 1.36D-03 6.97D-03.
     24 vectors produced by pass  4 Test12= 2.11D-14 3.70D-09 XBig12= 2.02D-05 1.10D-03.
     24 vectors produced by pass  5 Test12= 2.11D-14 3.70D-09 XBig12= 2.15D-07 7.06D-05.
     19 vectors produced by pass  6 Test12= 2.11D-14 3.70D-09 XBig12= 1.20D-09 4.21D-06.
     11 vectors produced by pass  7 Test12= 2.11D-14 3.70D-09 XBig12= 5.68D-12 2.95D-07.
      3 vectors produced by pass  8 Test12= 2.11D-14 3.70D-09 XBig12= 3.21D-14 2.41D-08.
 InvSVY:  IOpt=1 It=  1 EMax= 3.11D-15
 Solved reduced A of dimension   177 with    27 vectors.
 FullF1:  Do perturbations      1 to       3.
 Isotropic polarizability for W=    0.000000       34.23 Bohr**3.
 End of Minotr F.D. properties file   721 does not exist.
 End of Minotr F.D. properties file   722 does not exist.
 End of Minotr F.D. properties file   788 does not exist.
 Leave Link 1002 at Sun May 25 04:30:53 2025, MaxMem=  3758096384 cpu:             101.3 elap:              12.9
 (Enter /apps/easybuild-2022/easybuild/software/Compiler/NVHPC/22.11-CUDA-11.7.0/Gaussian/g16c01-CUDA-11.7.0/g16/l701.exe)
 ... and contract with generalized density number  0.
 Compute integral second derivatives.
   1 Symmetry operations used in ECPInt.
 ECPInt:  NShTT=    3486 NPrTT=   11183 LenC2=    3272 LenP2D=    7928.
 LDataN:  DoStor=T MaxTD1= 8 Len=  415
 Leave Link  701 at Sun May 25 04:30:53 2025, MaxMem=  3758096384 cpu:               0.5 elap:               0.1
 (Enter /apps/easybuild-2022/easybuild/software/Compiler/NVHPC/22.11-CUDA-11.7.0/Gaussian/g16c01-CUDA-11.7.0/g16/l702.exe)
 L702 exits ... SP integral derivatives will be done elsewhere.
 Leave Link  702 at Sun May 25 04:30:53 2025, MaxMem=  3758096384 cpu:               0.0 elap:               0.0
 (Enter /apps/easybuild-2022/easybuild/software/Compiler/NVHPC/22.11-CUDA-11.7.0/Gaussian/g16c01-CUDA-11.7.0/g16/l703.exe)
 Integral derivatives from FoFJK, PRISM(SPDF).
 Compute integral second derivatives, UseDBF=F ICtDFT=           0.
 Calling FoFJK, ICntrl=    100127 FMM=F ISym2X=0 I1Cent= 0 IOpClX= 0 NMat=1 NMatS=1 NMatT=0.
 FoFJK:  IHMeth= 1 ICntrl=  100127 DoSepK=F KAlg= 0 I1Cent=           0 FoldK=F
 IRaf=         0 NMat=       1 IRICut=       1 DoRegI=T DoRafI=F ISym2E= 0 IDoP0=0 IntGTp=1.
 FoFCou: FMM=F IPFlag=           0 FMFlag=      100000 FMFlg1=         800
         NFxFlg=           0 DoJE=F BraDBF=F KetDBF=F FulRan=T
         wScrn=  0.000000 ICntrl=    100127 IOpCl=  0 I1Cent=           0 NGrid=           0
         NMat0=    1 NMatS0=      1 NMatT0=    0 NMatD0=    1 NMtDS0=    0 NMtDT0=    0
 Symmetry not used in FoFCou.
 Leave Link  703 at Sun May 25 04:31:14 2025, MaxMem=  3758096384 cpu:             164.3 elap:              20.7
 (Enter /apps/easybuild-2022/easybuild/software/Compiler/NVHPC/22.11-CUDA-11.7.0/Gaussian/g16c01-CUDA-11.7.0/g16/l716.exe)
 Dipole        =-6.83338380D-01 1.72975820D-01-3.53391479D-02
 Polarizability= 3.75032938D+01-5.03893702D+00 3.67311316D+01
                -9.39499206D-01-6.92196794D-01 2.84574029D+01
 -------------------------------------------------------------------
 Center     Atomic                   Forces (Hartrees/Bohr)
 Number     Number              X              Y              Z
 -------------------------------------------------------------------
      1        6          -0.001312106   -0.001441077   -0.003263558
      2        8           0.002127288   -0.002210286    0.001967374
      3        6           0.003102726    0.002680945   -0.000428384
      4        9          -0.005915253   -0.000223574    0.000532526
      5        9          -0.001875102   -0.001797954    0.000980922
      6        9          -0.000887363   -0.002223275   -0.000159584
      7        8          -0.001102832    0.004126004    0.001240458
      8        1           0.005862643    0.001089217   -0.000869754
 -------------------------------------------------------------------
 Cartesian Forces:  Max     0.005915253 RMS     0.002496757
 Force constants in Cartesian coordinates: 
                1             2             3             4             5 
      1  0.855259D+00
      2 -0.875529D+00  0.124796D+01
      3  0.104314D+00 -0.125198D+00  0.174993D+00
      4 -0.453350D+00  0.457238D+00 -0.569517D-01  0.474002D+00
      5  0.456122D+00 -0.630000D+00  0.669854D-01 -0.524703D+00  0.682201D+00
      6 -0.575836D-01  0.678813D-01 -0.884320D-01  0.637202D-01 -0.787943D-01
      7 -0.961424D-02  0.417638D-03  0.329699D-03  0.280749D-03 -0.259405D-02
      8 -0.178448D-03 -0.794272D-02  0.358014D-02  0.188643D-02  0.310964D-02
      9 -0.474789D-02  0.718620D-02 -0.558036D-03  0.189459D-02 -0.308205D-02
     10  0.545821D-02 -0.935471D-02  0.107338D-02 -0.292858D-02  0.423241D-02
     11  0.233383D-03 -0.379113D-02  0.613952D-03 -0.523524D-03  0.189998D-02
     12 -0.232490D-03  0.883352D-03 -0.666091D-03  0.445118D-04 -0.421748D-03
     13  0.373162D-02  0.320265D-02  0.157657D-03 -0.167008D-02 -0.112918D-02
     14 -0.248955D-03  0.450611D-02 -0.826756D-03 -0.741288D-03 -0.206797D-02
     15  0.305352D-03 -0.513686D-02  0.396275D-03  0.379663D-03  0.233227D-02
     16  0.458970D-02 -0.214101D-02 -0.108538D-02 -0.135200D-02  0.155900D-02
     17  0.309771D-02  0.970136D-03 -0.316873D-02 -0.182540D-02 -0.192561D-03
     18  0.355786D-02 -0.239429D-02 -0.939107D-03 -0.135550D-02  0.126871D-02
     19 -0.393931D+00  0.405853D+00 -0.452808D-01 -0.210567D-01  0.762733D-01
     20  0.413096D+00 -0.613017D+00  0.582491D-01  0.683869D-01 -0.535169D-01
     21 -0.453573D-01  0.571866D-01 -0.853611D-01 -0.775148D-02  0.114347D-01
     22 -0.121437D-01  0.203134D-01 -0.255734D-02  0.607393D-02 -0.976121D-02
     23  0.340661D-02  0.131561D-02 -0.235572D-03  0.281548D-03 -0.143306D-02
     24 -0.256446D-03 -0.408823D-03  0.567355D-03  0.196793D-04  0.277060D-03
                6             7             8             9            10 
      6  0.507321D-01
      7  0.107615D-02  0.312272D+00
      8 -0.184690D-02  0.200932D+00  0.317764D+00
      9  0.492619D-03 -0.135357D+00  0.108521D+00  0.342102D+00
     10 -0.476675D-03 -0.656864D-02  0.624968D-03 -0.530534D-03  0.556193D+00
     11 -0.379933D-03  0.615179D-02  0.108594D-03  0.170286D-02  0.105163D+00
     12  0.663753D-04 -0.110465D-02 -0.105955D-02 -0.291489D-02 -0.201241D-01
     13 -0.441650D-04 -0.214217D+00 -0.831618D-01  0.178174D+00  0.291972D-02
     14  0.577768D-03 -0.861026D-01 -0.703081D-01  0.378823D-01  0.339522D-03
     15 -0.331033D-03  0.170670D+00  0.328132D-01 -0.199779D+00 -0.105617D-02
     16  0.252810D-03 -0.873775D-01 -0.117323D+00 -0.421477D-01  0.174241D-02
     17  0.138478D-02 -0.114155D+00 -0.241956D+00 -0.149543D+00  0.100962D-02
     18  0.260197D-03 -0.364559D-01 -0.143220D+00 -0.140875D+00  0.828447D-03
     19 -0.823559D-02  0.334424D-02 -0.250652D-02  0.384027D-02 -0.124752D-01
     20  0.108705D-01  0.111519D-02  0.699220D-03 -0.183676D-02  0.484590D-02
     21  0.369536D-01 -0.407414D-03 -0.101244D-03 -0.150940D-03 -0.648073D-03
     22  0.129081D-02  0.188012D-02 -0.273520D-03 -0.112573D-02 -0.544341D+00
     23  0.306797D-03 -0.576543D-02 -0.147534D-02 -0.830444D-03 -0.106860D+00
     24  0.258196D-03  0.124969D-02  0.131284D-02  0.168326D-02  0.209337D-01
               11            12            13            14            15 
     11  0.279320D-01
     12 -0.465026D-02  0.772363D-02
     13 -0.235451D-02 -0.954027D-03  0.189773D+00
     14  0.214773D-03 -0.182180D-03  0.410564D-01  0.605887D-01
     15  0.572768D-03  0.981602D-03 -0.203180D+00  0.170078D-01  0.304977D+00
     16 -0.210558D-02  0.139326D-02  0.222869D-01  0.459687D-01  0.323925D-01
     17 -0.429964D-03  0.173345D-02  0.417113D-01  0.889350D-02 -0.492150D-01
     18 -0.175948D-02  0.156094D-02  0.253504D-01 -0.549522D-01 -0.105421D+00
     19 -0.150622D-02  0.452123D-03 -0.121119D-02  0.824913D-03 -0.923423D-03
     20  0.295360D-02 -0.327209D-03 -0.195075D-02 -0.175522D-02  0.211962D-02
     21 -0.141169D-03  0.179278D-02  0.741075D-04  0.175854D-03 -0.630620D-04
     22 -0.105058D+00  0.205253D-01 -0.161306D-02 -0.109661D-02  0.141165D-02
     23 -0.288879D-01  0.402416D-02  0.262600D-02 -0.717112D-04 -0.493880D-03
     24  0.404126D-02 -0.854434D-02  0.421124D-03  0.317291D-03 -0.760669D-03
               16            17            18            19            20 
     16  0.627041D-01
     17  0.721090D-01  0.232782D+00
     18  0.975516D-02  0.199230D+00  0.246136D+00
     19 -0.239745D-02 -0.117649D-02 -0.205167D-02  0.421854D+00
     20 -0.697130D-05 -0.761111D-03  0.545807D-03 -0.475401D+00  0.668085D+00
     21  0.706182D-03  0.122793D-02  0.480305D-03  0.521738D-01 -0.697224D-01
     22 -0.196218D-03 -0.771110D-03  0.371218D-03  0.587349D-02 -0.100860D-01
     23  0.194005D-02  0.694126D-03  0.128077D-02 -0.236139D-02 -0.268771D-02
     24 -0.126691D-02 -0.164945D-02 -0.120261D-02  0.252876D-04  0.101334D-03
               21            22            23            24 
     21  0.491743D-01
     22  0.121015D-02  0.544466D+00
     23 -0.603121D-04  0.106733D+00  0.325460D-01
     24 -0.282600D-02 -0.211261D-01 -0.399152D-02  0.108248D-01
 Leave Link  716 at Sun May 25 04:31:14 2025, MaxMem=  3758096384 cpu:               0.0 elap:               0.0
 (Enter /apps/easybuild-2022/easybuild/software/Compiler/NVHPC/22.11-CUDA-11.7.0/Gaussian/g16c01-CUDA-11.7.0/g16/l103.exe)

 GradGradGradGradGradGradGradGradGradGradGradGradGradGradGradGradGradGrad
 Berny optimization.
 Search for a local minimum.
 Step number   2 out of a maximum of   34
 All quantities printed in internal units (Hartrees-Bohrs-Radians)
 Second derivative matrix not updated -- analytic derivatives used.
 DE= -4.90D-04 DEPred=-6.38D-04 R= 7.68D-01
 TightC=F SS=  1.41D+00  RLast= 3.00D-01 DXNew= 5.0454D-01 8.9875D-01
 Trust test= 7.68D-01 RLast= 3.00D-01 DXMaxT set to 5.05D-01
 ITU=  1  0
     Eigenvalues ---    0.00013   0.00158   0.00202   0.00252   0.00377
     Eigenvalues ---    0.00706   0.01249   0.01383   0.01461   0.03187
     Eigenvalues ---    0.23295   0.24032   0.32496   0.77179   0.93407
     Eigenvalues ---    1.06314   1.19352   2.92729
 RFO step:  Lambda=-1.04077275D-03 EMin= 1.26198421D-04
 Quintic linear search produced a step of  0.08950.
 Maximum step size (   0.505) exceeded in Quadratic search.
    -- Step size scaled by   0.700
 B after Tr=     0.002358   -0.013611    0.003882
         Rot=    0.999999   -0.000639   -0.000252    0.001007 Ang=  -0.14 deg.
 Variable       Old X    -DE/DX   Delta X   Delta X   Delta X     New X
                                 (Linear)    (Quad)   (Total)
    X1       -3.26101  -0.00131  -0.00181  -0.04209  -0.04465  -3.30567
    Y1       -1.70370  -0.00144  -0.00068  -0.00280  -0.01126  -1.71496
    Z1        0.68402  -0.00326  -0.00215  -0.03041  -0.02919   0.65482
    X2       -4.63990   0.00213  -0.00479  -0.09284  -0.09521  -4.73511
    Y2       -0.03556  -0.00221  -0.00335  -0.04660  -0.05459  -0.09016
    Z2        0.47802   0.00197  -0.00317  -0.02143  -0.01843   0.45959
    X3        1.03786   0.00310  -0.00326  -0.01397  -0.01193   1.02593
    Y3        1.71955   0.00268   0.00103  -0.06100  -0.07464   1.64491
    Z3       -0.77093  -0.00043   0.00215  -0.01201  -0.00438  -0.77531
    X4        3.36965  -0.00592  -0.00122  -0.02115  -0.02499   3.34466
    Y4       -2.98114  -0.00022   0.01725   0.28751   0.28334  -2.69779
    Z4        0.82301   0.00053  -0.00415   0.01447   0.00909   0.83210
    X5        2.61495  -0.00188  -0.00364  -0.06182  -0.06057   2.55438
    Y5        1.99621  -0.00180  -0.00824  -0.06317  -0.08676   1.90944
    Z5       -2.60761   0.00098  -0.00008  -0.05005  -0.04507  -2.65268
    X6        1.58258  -0.00089   0.01378   0.19624   0.21944   1.80202
    Y6        3.51928  -0.00222  -0.00414  -0.23524  -0.25777   3.26151
    Z6        0.79166  -0.00016   0.00480   0.10837   0.12034   0.91200
    X7       -1.94079  -0.00110   0.00121   0.01945   0.01661  -1.92417
    Y7       -3.44799   0.00413   0.00183   0.04832   0.03931  -3.40868
    Z7        0.87491   0.00124   0.00067  -0.01059  -0.00941   0.86550
    X8        1.64432   0.00586  -0.00026   0.00509   0.00130   1.64562
    Y8       -3.31969   0.00109  -0.00369   0.18410   0.16238  -3.15731
    Z8        0.88963  -0.00087   0.00192  -0.02392  -0.02296   0.86667
         Item               Value     Threshold  Converged?
 Maximum Force            0.005915     0.000450     NO 
 RMS     Force            0.002497     0.000300     NO 
 Maximum Displacement     0.283342     0.001800     NO 
 RMS     Displacement     0.106692     0.001200     NO 
 Predicted change in Energy=-7.120687D-04
 Lowest energy point so far.  Saving SCF results.
 GradGradGradGradGradGradGradGradGradGradGradGradGradGradGradGradGradGrad

 Leave Link  103 at Sun May 25 04:31:14 2025, MaxMem=  3758096384 cpu:               0.0 elap:               0.0
 (Enter /apps/easybuild-2022/easybuild/software/Compiler/NVHPC/22.11-CUDA-11.7.0/Gaussian/g16c01-CUDA-11.7.0/g16/l202.exe)
                          Input orientation:                          
 ---------------------------------------------------------------------
 Center     Atomic      Atomic             Coordinates (Angstroms)
 Number     Number       Type             X           Y           Z
 ---------------------------------------------------------------------
      1          6           0       -1.749284   -0.907518    0.346518
      2          8           0       -2.505711   -0.047709    0.243204
      3          6           0        0.542901    0.870450   -0.410275
      4          9           0        1.769918   -1.427611    0.440327
      5          9           0        1.351722    1.010432   -1.403737
      6          9           0        0.953586    1.725919    0.482610
      7          8           0       -1.018229   -1.803797    0.458004
      8          1           0        0.870823   -1.670774    0.458619
 ---------------------------------------------------------------------
                    Distance matrix (angstroms):
                    1          2          3          4          5
     1  C    0.000000
     2  O    1.149838   0.000000
     3  C    2.998002   3.250244   0.000000
     4  F    3.558662   4.497109   2.740471   0.000000
     5  F    4.044523   4.325722   1.288702   3.085372   0.000000
     6  F    3.776112   3.894844   1.302971   3.257750   2.056389
     7  O    1.161975   2.311403   3.215996   2.813466   4.123425
     8  H    2.731316   3.752563   2.705611   0.931576   3.299773
                    6          7          8
     6  F    0.000000
     7  O    4.043211   0.000000
     8  H    3.397786   1.893730   0.000000
 Symmetry turned off by external request.
 Stoichiometry    C2HF3O2
 Rotational constants (GHZ):           2.6043988           1.4253148           1.0689667
 Leave Link  202 at Sun May 25 04:31:14 2025, MaxMem=  3758096384 cpu:               0.0 elap:               0.0
 (Enter /apps/easybuild-2022/easybuild/software/Compiler/NVHPC/22.11-CUDA-11.7.0/Gaussian/g16c01-CUDA-11.7.0/g16/l301.exe)
 Standard basis: def2TZVPP (5D, 7F)
 Ernie: Thresh=  0.10000D-02 Tol=  0.10000D-05 Strict=F.
   231 basis functions,   374 primitive gaussians,   267 cartesian basis functions
    28 alpha electrons       28 beta electrons
       nuclear repulsion energy       278.6839939597 Hartrees.
 IExCor= 4336 DFT=T Ex+Corr=M062X ExCW=0 ScaHFX=  0.540000
 ScaDFX=  1.000000  1.000000  1.000000  1.000000 ScalE2=  1.000000  1.000000
 IRadAn=      5 IRanWt=     -1 IRanGd=            0 ICorTp=0 IEmpDi=  4
 NAtoms=    8 NActive=    8 NUniq=    8 SFac= 1.00D+00 NAtFMM=   60 NAOKFM=F Big=F
 Integral buffers will be    131072 words long.
 Raffenetti 2 integral format.
 Two-electron integral symmetry is turned off.
 Leave Link  301 at Sun May 25 04:31:14 2025, MaxMem=  3758096384 cpu:               0.0 elap:               0.0
 (Enter /apps/easybuild-2022/easybuild/software/Compiler/NVHPC/22.11-CUDA-11.7.0/Gaussian/g16c01-CUDA-11.7.0/g16/l302.exe)
 NPDir=0 NMtPBC=     1 NCelOv=     1 NCel=       1 NClECP=     1 NCelD=      1
         NCelK=      1 NCelE2=     1 NClLst=     1 CellRange=     0.0.
 One-electron integrals computed using PRISM.
   1 Symmetry operations used in ECPInt.
 ECPInt:  NShTT=    3486 NPrTT=   11183 LenC2=    3284 LenP2D=    7993.
 LDataN:  DoStor=T MaxTD1= 6 Len=  172
 NBasis=   231 RedAO= T EigKep=  4.30D-04  NBF=   231
 NBsUse=   231 1.00D-06 EigRej= -1.00D+00 NBFU=   231
 Precomputing XC quadrature grid using
 IXCGrd= 4 IRadAn=           5 IRanWt=          -1 IRanGd=           0 AccXCQ= 0.00D+00.
 Generated NRdTot=       0 NPtTot=           0 NUsed=           0 NTot=          32
 NSgBfM=   263   263   263   263   263 MxSgAt=     8 MxSgA2=     8.
 Leave Link  302 at Sun May 25 04:31:14 2025, MaxMem=  3758096384 cpu:               0.4 elap:               0.1
 (Enter /apps/easybuild-2022/easybuild/software/Compiler/NVHPC/22.11-CUDA-11.7.0/Gaussian/g16c01-CUDA-11.7.0/g16/l303.exe)
 DipDrv:  MaxL=1.
 Leave Link  303 at Sun May 25 04:31:14 2025, MaxMem=  3758096384 cpu:               0.0 elap:               0.0
 (Enter /apps/easybuild-2022/easybuild/software/Compiler/NVHPC/22.11-CUDA-11.7.0/Gaussian/g16c01-CUDA-11.7.0/g16/l401.exe)
 Initial guess from the checkpoint file:  "1141903082400600000001_ketoenol_2_1_3_4_IRC_R_prod.chk"
 B after Tr=     0.004625   -0.018052    0.005944
         Rot=    0.999998   -0.000992   -0.000554    0.001420 Ang=  -0.21 deg.
 Guess basis will be translated and rotated to current coordinates.
 JPrj=2 DoOrth=T DoCkMO=T.
 Generating alternative initial guess.
 ExpMin= 9.52D-02 ExpMax= 3.55D+04 ExpMxC= 1.21D+03 IAcc=3 IRadAn=         5 AccDes= 0.00D+00
 Harris functional with IExCor= 1009 and IRadAn=       5 diagonalized for initial guess.
 HarFok:  IExCor= 1009 AccDes= 0.00D+00 IRadAn=         5 IDoV= 1 UseB2=F ITyADJ=14
 ICtDFT=  3500011 ScaDFX=  1.000000  1.000000  1.000000  1.000000
 FoFCou: FMM=F IPFlag=           0 FMFlag=      100000 FMFlg1=           0
         NFxFlg=           0 DoJE=T BraDBF=F KetDBF=T FulRan=T
         wScrn=  0.000000 ICntrl=       500 IOpCl=  0 I1Cent=   200000004 NGrid=           0
         NMat0=    1 NMatS0=      1 NMatT0=    0 NMatD0=    1 NMtDS0=    0 NMtDT0=    0
 Symmetry not used in FoFCou.
 Harris En= -526.474514330944    
 Leave Link  401 at Sun May 25 04:31:14 2025, MaxMem=  3758096384 cpu:               1.4 elap:               0.2
 (Enter /apps/easybuild-2022/easybuild/software/Compiler/NVHPC/22.11-CUDA-11.7.0/Gaussian/g16c01-CUDA-11.7.0/g16/l502.exe)
 Keep R1 ints in memory in canonical form, NReq=368651247.
 FoFCou: FMM=F IPFlag=           0 FMFlag=           0 FMFlg1=           0
         NFxFlg=           0 DoJE=F BraDBF=F KetDBF=F FulRan=T
         wScrn=  0.000000 ICntrl=       600 IOpCl=  0 I1Cent=           0 NGrid=           0
         NMat0=    1 NMatS0=  26796 NMatT0=    0 NMatD0=    1 NMtDS0=    0 NMtDT0=    0
 Symmetry not used in FoFCou.
 Two-electron integral symmetry not used.
 Closed shell SCF:
 Using DIIS extrapolation, IDIIS=  1040.
 NGot=  3758096384 LenX=  3398923563 LenY=  3398851833
 Requested convergence on RMS density matrix=1.00D-08 within  32 cycles.
 Requested convergence on MAX density matrix=1.00D-06.
 Requested convergence on             energy=1.00D-06.
 No special actions if energy rises.
 Integral accuracy reduced to 1.0D-05 until final iterations.

 Cycle   1  Pass 0  IDiag  1:
 E= -526.773327181197    
 DIIS: error= 5.28D-03 at cycle   1 NSaved=   1.
 NSaved= 1 IEnMin= 1 EnMin= -526.773327181197     IErMin= 1 ErrMin= 5.28D-03
 ErrMax= 5.28D-03  0.00D+00 EMaxC= 1.00D-01 BMatC= 8.44D-03 BMatP= 8.44D-03
 IDIUse=3 WtCom= 9.47D-01 WtEn= 5.28D-02
 Coeff-Com:  0.100D+01
 Coeff-En:   0.100D+01
 Coeff:      0.100D+01
 Gap=     0.904 Goal=   None    Shift=    0.000
 GapD=    0.904 DampG=2.000 DampE=1.000 DampFc=2.0000 IDamp=-1.
 RMSDP=3.74D-04 MaxDP=1.37D-02              OVMax= 3.47D-02

 Cycle   2  Pass 0  IDiag  1:
 E= -526.784836943153     Delta-E=       -0.011509761956 Rises=F Damp=F
 DIIS: error= 1.51D-03 at cycle   2 NSaved=   2.
 NSaved= 2 IEnMin= 2 EnMin= -526.784836943153     IErMin= 2 ErrMin= 1.51D-03
[...]
 Vib (Bot)    9  0.405425D+00         -0.392089         -0.902819
 Vib (Bot)   10  0.331426D+00         -0.479614         -1.104352
 Vib (V=0)       0.139747D+05          4.145344          9.545007
 Vib (V=0)    1  0.875952D+01          0.942481          2.170142
 Vib (V=0)    2  0.560166D+01          0.748317          1.723063
 Vib (V=0)    3  0.350185D+01          0.544297          1.253291
 Vib (V=0)    4  0.335911D+01          0.526224          1.211676
 Vib (V=0)    5  0.274384D+01          0.438358          1.009357
 Vib (V=0)    6  0.238865D+01          0.378152          0.870727
 Vib (V=0)    7  0.185019D+01          0.267216          0.615287
 Vib (V=0)    8  0.141342D+01          0.150273          0.346015
 Vib (V=0)    9  0.114372D+01          0.058318          0.134282
 Vib (V=0)   10  0.109987D+01          0.041341          0.095191
 Electronic      0.100000D+01          0.000000          0.000000
 Translational   0.478377D+08          7.679770         17.683325
 Rotational      0.428674D+06          5.632127         12.968451
 
                                                    Gaussian input prepared by AS
 E
                                                             IR Spectrum
 
     4                                                 2                                1  1  1                                      
     0                                                 4                                4  3  2              666     4 4    2 11     
     1                                                 5                                1  0  0              997     9 3    5 6197742
     6                                                 1                                3  8  9              529     7 0    5 1243015
 
     X                                                 X                                X  X  X              XXX     X X    X XXXXXXX
     X                                                 X                                   X  X                X     X X             
     X                                                 X                                   X  X                      X X             
     X                                                 X                                   X  X                      X               
     X                                                 X                                      X                      X               
     X                                                 X                                      X                      X               
     X                                                 X                                      X                                      
     X                                                 X                                      X                                      
     X                                                 X                                      X                                      
     X                                                 X                                                                             
     X                                                 X                                                                             
     X                                                 X                                                                             
     X                                                 X                                                                             
                                                       X                                                                             
                                                       X                                                                             
                                                       X                                                                             
                                                       X                                                                             
                                                       X                                                                             
                                                       X                                                                             
                                                       X                                                                             
 
 -------------------------------------------------------------------
 Center     Atomic                   Forces (Hartrees/Bohr)
 Number     Number              X              Y              Z
 -------------------------------------------------------------------
      1        6           0.000000387    0.000000251    0.000002589
      2        8           0.000000966   -0.000000043    0.000004572
      3        6          -0.000000818   -0.000000478   -0.000000665
      4        9          -0.000000199   -0.000000848   -0.000003390
      5        9          -0.000001961   -0.000000223   -0.000002455
      6        9           0.000001868   -0.000000055   -0.000001175
      7        8          -0.000000721    0.000001379    0.000001114
      8        1           0.000000477    0.000000017   -0.000000591
 -------------------------------------------------------------------
 Cartesian Forces:  Max     0.000004572 RMS     0.000001599
 Force constants in Cartesian coordinates: 
                1             2             3             4             5 
      1  0.103752D+01
      2 -0.881157D+00  0.102455D+01
      3  0.265316D+00 -0.260287D+00  0.237425D+00
      4 -0.547791D+00  0.457447D+00 -0.137515D+00  0.581492D+00
      5  0.457429D+00 -0.518215D+00  0.131853D+00 -0.525037D+00  0.551910D+00
      6 -0.137493D+00  0.131852D+00 -0.118973D+00  0.157788D+00 -0.154034D+00
      7 -0.103924D-01 -0.905401D-03  0.489820D-03  0.133683D-02 -0.181922D-02
      8  0.438326D-02 -0.846457D-02  0.295928D-02 -0.764909D-04  0.360281D-02
      9 -0.114725D-02  0.304629D-02  0.125624D-03 -0.355184D-04 -0.119945D-02
     10  0.576797D-02 -0.782793D-02  0.238976D-02 -0.322802D-02  0.352241D-02
     11  0.117817D-02 -0.459562D-02  0.131731D-02 -0.972079D-03  0.216455D-02
     12 -0.489130D-03  0.148177D-02 -0.862915D-03  0.370289D-03 -0.771856D-03
     13  0.446826D-02  0.194487D-02  0.954176D-03 -0.166046D-02 -0.393004D-03
     14 -0.145511D-02  0.360228D-02 -0.557163D-03  0.204915D-04 -0.165511D-02
     15 -0.163230D-02 -0.325579D-02 -0.601551D-03  0.905209D-03  0.125018D-02
     16  0.449456D-02  0.109200D-02 -0.211463D-02 -0.167805D-02 -0.107469D-03
     17 -0.350967D-03  0.402686D-02 -0.266094D-02 -0.465920D-03 -0.180604D-02
     18  0.194150D-02 -0.581975D-04 -0.963988D-03 -0.660090D-03  0.142721D-03
     19 -0.480753D+00  0.411296D+00 -0.123973D+00 -0.354336D-01  0.751752D-01
     20  0.417476D+00 -0.502903D+00  0.127990D+00  0.684507D-01 -0.345222D-01
     21 -0.125953D+00  0.128122D+00 -0.116684D+00 -0.205271D-01  0.220045D-01
     22 -0.133104D-01  0.181110D-01 -0.554713D-02  0.696292D-02 -0.876959D-02
     23  0.249724D-02  0.199844D-02 -0.613842D-03  0.633532D-03 -0.147909D-02
     24 -0.544124D-03 -0.900518D-03  0.534438D-03 -0.326067D-03  0.755396D-03
                6             7             8             9            10 
      6  0.860882D-01
      7  0.539781D-03  0.388584D+00
      8 -0.123055D-02  0.211298D+00  0.184399D+00
      9  0.120319D-03 -0.665783D-01  0.772907D-01  0.418476D+00
     10 -0.106900D-02 -0.105858D-01  0.335318D-02 -0.937894D-03  0.540407D+00
     11 -0.689849D-03  0.695518D-02 -0.257655D-02 -0.695334D-03  0.159862D+00
     12  0.187470D-03 -0.208387D-02 -0.628991D-03 -0.399334D-02 -0.610329D-01
     13 -0.413651D-03 -0.181943D+00 -0.607582D-01  0.170609D+00  0.343153D-02
     14  0.327873D-03 -0.623251D-01 -0.382746D-01  0.312906D-01 -0.534926D-03
     15  0.160769D-03  0.162509D+00  0.266967D-01 -0.264659D+00 -0.154508D-02
     16  0.643618D-03 -0.194548D+00 -0.152552D+00 -0.103589D+00  0.358744D-02
     17  0.106320D-02 -0.149270D+00 -0.137787D+00 -0.110826D+00  0.443158D-03
     18  0.290870D-03 -0.960195D-01 -0.106208D+00 -0.151966D+00  0.148957D-02
     19 -0.226797D-01  0.364746D-02 -0.482717D-02  0.141794D-02 -0.129315D-01
     20  0.221307D-01  0.199250D-02  0.215002D-05 -0.168175D-03  0.373655D-02
     21  0.319854D-01 -0.709649D-03 -0.144478D-04 -0.288643D-03 -0.918476D-03
     22  0.268321D-02  0.390176D-02 -0.820925D-03  0.261282D-03 -0.526449D+00
     23  0.580903D-03 -0.592651D-02 -0.901004D-03  0.126170D-02 -0.162555D+00
     24  0.140445D-03  0.185220D-02  0.113518D-02  0.218569D-02  0.616241D-01
               11            12            13            14            15 
     11  0.577874D-01
     12 -0.201409D-01  0.116906D-01
     13 -0.248897D-02 -0.135040D-02  0.134590D+00
     14  0.243246D-03  0.511748D-03  0.379321D-01  0.339758D-01
     15  0.270706D-02  0.950300D-03 -0.153835D+00  0.153266D-01  0.386087D+00
     16 -0.134707D-02  0.249211D-02  0.445129D-01  0.256009D-01 -0.760771D-02
     17 -0.104410D-02  0.850789D-03  0.228989D-01  0.409669D-02 -0.431323D-01
     18 -0.126174D-02  0.205959D-02 -0.163409D-01 -0.475027D-01 -0.120964D+00
     19 -0.281939D-02  0.116971D-02 -0.188165D-02  0.130180D-02  0.393418D-03
     20  0.336399D-02 -0.573551D-03 -0.181850D-02 -0.119728D-02  0.165571D-02
     21 -0.452761D-03  0.195712D-02 -0.122901D-03  0.925697D-04  0.191353D-03
     22 -0.160368D+00  0.609242D-01 -0.151703D-02 -0.540263D-03  0.812017D-03
     23 -0.553429D-01  0.192710D-01  0.268280D-02 -0.791007D-03 -0.124820D-02
     24  0.192162D-01 -0.119888D-01  0.500112D-03  0.510507D-03 -0.116449D-02
               16            17            18            19            20 
     16  0.147121D+00
     17  0.126801D+00  0.134650D+00
     18  0.110889D+00  0.154475D+00  0.272300D+00
     19 -0.188277D-02  0.885076D-03 -0.968136D-03  0.522853D+00
     20 -0.144902D-02 -0.156795D-02 -0.343563D-03 -0.479211D+00  0.539844D+00
     21  0.124679D-02  0.110262D-02  0.527802D-03  0.144241D+00 -0.150946D+00
     22 -0.160745D-02 -0.941072D-03 -0.331812D-03  0.638207D-02 -0.917727D-02
     23  0.196193D-02 -0.569013D-03  0.756446D-03 -0.180050D-02 -0.301954D-02
     24 -0.196063D-02 -0.872022D-03 -0.128401D-02  0.399024D-03  0.254705D-03
               21            22            23            24 
     21  0.851594D-01
     22  0.274277D-02  0.525637D+00
     23  0.914721D-04  0.162506D+00  0.601041D-01
     24 -0.284875D-02 -0.615446D-01 -0.200995D-01  0.144255D-01
 Leave Link  716 at Sun May 25 04:42:23 2025, MaxMem=  3758096384 cpu:               0.0 elap:               0.0
 (Enter /apps/easybuild-2022/easybuild/software/Compiler/NVHPC/22.11-CUDA-11.7.0/Gaussian/g16c01-CUDA-11.7.0/g16/l9999.exe)

 ----------------------------------------------------------------------

 Electric dipole moment (input orientation):
 (Debye = 10**-18 statcoulomb cm , SI units = C m)
                  (au)            (Debye)         (10**-30 SI)
   Tot        0.622003D+00      0.158097D+01      0.527356D+01
   x         -0.621828D+00     -0.158053D+01     -0.527208D+01
   y          0.128911D-01      0.327659D-01      0.109295D+00
   z          0.714121D-02      0.181511D-01      0.605457D-01

 Dipole polarizability, Alpha (input orientation).
 (esu units = cm**3 , SI units = C**2 m**2 J**-1)
 Alpha(0;0):
               (au)            (10**-24 esu)      (10**-40 SI)
   iso        0.342771D+02      0.507935D+01      0.565154D+01
   aniso      0.115878D+02      0.171714D+01      0.191058D+01
   xx         0.386412D+02      0.572604D+01      0.637108D+01
   yx        -0.426681D+01     -0.632277D+00     -0.703503D+00
   yy         0.348177D+02      0.515945D+01      0.574066D+01
   zx         0.120756D+01      0.178942D+00      0.199100D+00
   zy        -0.184362D+01     -0.273196D+00     -0.303971D+00
   zz         0.293725D+02      0.435255D+01      0.484287D+01

 ----------------------------------------------------------------------

 Dipole orientation:
     6          0.51990799         -1.82685749          3.34445296
     8          0.08793615         -0.37317381          4.89718726
     6         -0.54049608          1.75806883         -0.99777392
     9          0.71660989         -2.49712971         -3.37371234
     9         -2.63444766          1.98354462         -2.22354912
     9          1.07569450          3.08889971         -2.24436795
     8          0.97303737         -3.35242661          1.83515283
     1          0.88185706         -3.04790036         -1.71973606

 Electric dipole moment (dipole orientation):
 (Debye = 10**-18 statcoulomb cm , SI units = C m)
                  (au)            (Debye)         (10**-30 SI)
   Tot        0.622003D+00      0.158097D+01      0.527356D+01
   x          0.000000D+00      0.000000D+00      0.000000D+00
   y          0.000000D+00      0.000000D+00      0.000000D+00
   z          0.622003D+00      0.158097D+01      0.527356D+01

 Dipole polarizability, Alpha (dipole orientation).
 (esu units = cm**3 , SI units = C**2 m**2 J**-1)
 Alpha(0;0):
               (au)            (10**-24 esu)      (10**-40 SI)
   iso        0.342771D+02      0.507935D+01      0.565154D+01
   aniso      0.115878D+02      0.171714D+01      0.191058D+01
   xx         0.293272D+02      0.434585D+01      0.483541D+01
   yx        -0.175592D+01     -0.260200D+00     -0.289512D+00
   yy         0.347176D+02      0.514462D+01      0.572416D+01
   zx        -0.126703D+01     -0.187755D+00     -0.208905D+00
   zy         0.418993D+01      0.620883D+00      0.690826D+00
   zz         0.387866D+02      0.574758D+01      0.639504D+01

 ----------------------------------------------------------------------
 Unable to Open any file for archive entry.
 1\1\GINC-SPARTAN-BM142\Freq\RM062X\def2TZVPP\C2H1F3O2\AKHALILOV\25-May
 -2025\0\\#P M062X/Def2TZVPP Symm(None) scf(xqc) pop(None) opt(CalcAll,
 Cartesian)\\Gaussian input prepared by ASE\\0,1\C,-1.785838612,-0.9240
 056633,0.3154010138\O,-2.5942435268,-0.1427292674,0.0803661979\C,0.543
 5027699,0.9131332053,-0.3112810773\F,1.762237094,-1.350095519,0.385996
 9314\F,1.1812247792,0.9962579076,-1.428961512\F,1.2275949209,1.6209268
 708,0.5215608376\O,-1.0010575386,-1.7426003394,0.5626810391\H,0.882307
 1135,-1.6214961947,0.4895065696\\Version=ES64L-G16RevC.01\HF=-526.7862
 579\RMSD=8.236e-09\RMSF=1.599e-06\ZeroPoint=0.0323967\Thermal=0.042008
 4\ETot=-526.7442495\HTot=-526.7433053\GTot=-526.7918144\Dipole=-0.6218
 282,0.0128911,0.0071412\DipoleDeriv=1.7326638,-0.8072276,0.2368749,-0.
 9568104,1.5622416,-0.3044311,0.2846471,-0.3069994,0.6478589,-0.8568398
 ,0.4269516,-0.1255471,0.4870456,-0.6965783,0.1323259,-0.1448719,0.1334
 89,-0.2947641,0.8118403,0.4995482,-0.1385581,0.4450438,0.4908228,0.378
 0396,-0.1218348,0.3762729,1.5877022,-0.5809031,0.0974518,-0.0271604,0.
 0193561,-0.5210639,0.0474033,-0.0020502,0.0458326,-0.3858218,-0.384602
 9,-0.1222606,0.6436698,-0.1840244,-0.0495957,0.1194299,0.2933638,-0.06
 67812,-0.9694521,-0.4213884,-0.487804,-0.470095,-0.342524,-0.3735747,-
 0.5162324,-0.1457865,-0.3276269,-0.6082655,-1.0437937,0.4523654,-0.130
 7139,0.512044,-0.8442437,0.1726872,-0.1495713,0.1736407,-0.3273702,0.7
 430238,-0.0590248,0.0115298,0.0198692,0.431992,-0.0292224,-0.0138962,-
 0.0278278,0.3501126\Polar=38.6412243,-4.2668148,34.8176866,1.20756,-1.
 8436164,29.3724857\PG=Unknown\NImag=0\\1.03751675,-0.88115750,1.024550
 81,0.26531635,-0.26028719,0.23742547,-0.54779144,0.45744703,-0.1375149
 2,0.58149184,0.45742892,-0.51821472,0.13185266,-0.52503729,0.55190977,
 -0.13749252,0.13185185,-0.11897346,0.15778823,-0.15403414,0.08608820,-
 0.01039239,-0.00090540,0.00048982,0.00133683,-0.00181922,0.00053978,0.
 38858368,0.00438326,-0.00846457,0.00295928,-0.00007649,0.00360281,-0.0
 0123055,0.21129839,0.18439867,-0.00114725,0.00304629,0.00012562,-0.000
 03552,-0.00119945,0.00012032,-0.06657830,0.07729073,0.41847615,0.00576
 797,-0.00782793,0.00238976,-0.00322802,0.00352241,-0.00106900,-0.01058
 584,0.00335318,-0.00093789,0.54040690,0.00117817,-0.00459562,0.0013173
 1,-0.00097208,0.00216455,-0.00068985,0.00695518,-0.00257655,-0.0006953
 3,0.15986221,0.05778737,-0.00048913,0.00148177,-0.00086291,0.00037029,
 -0.00077186,0.00018747,-0.00208387,-0.00062899,-0.00399334,-0.06103295
 ,-0.02014091,0.01169057,0.00446826,0.00194487,0.00095418,-0.00166046,-
 0.00039300,-0.00041365,-0.18194348,-0.06075822,0.17060862,0.00343153,-
 0.00248897,-0.00135040,0.13458998,-0.00145511,0.00360228,-0.00055716,0
 .00002049,-0.00165511,0.00032787,-0.06232506,-0.03827458,0.03129059,-0
 .00053493,0.00024325,0.00051175,0.03793212,0.03397576,-0.00163230,-0.0
 0325579,-0.00060155,0.00090521,0.00125018,0.00016077,0.16250950,0.0266
 9673,-0.26465948,-0.00154508,0.00270706,0.00095030,-0.15383506,0.01532
 659,0.38608702,0.00449456,0.00109200,-0.00211463,-0.00167805,-0.000107
 47,0.00064362,-0.19454803,-0.15255203,-0.10358888,0.00358744,-0.001347
 07,0.00249211,0.04451285,0.02560095,-0.00760771,0.14712145,-0.00035097
 ,0.00402686,-0.00266094,-0.00046592,-0.00180604,0.00106320,-0.14926989
 ,-0.13778692,-0.11082635,0.00044316,-0.00104410,0.00085079,0.02289890,
 0.00409669,-0.04313229,0.12680071,0.13465046,0.00194150,-0.00005820,-0
 .00096399,-0.00066009,0.00014272,0.00029087,-0.09601948,-0.10620794,-0
 .15196632,0.00148957,-0.00126174,0.00205959,-0.01634090,-0.04750272,-0
 .12096392,0.11088934,0.15447499,0.27229998,-0.48075328,0.41129591,-0.1
 2397342,-0.03543362,0.07517524,-0.02267967,0.00364746,-0.00482717,0.00
 141794,-0.01293147,-0.00281939,0.00116971,-0.00188165,0.00130180,0.000
 39342,-0.00188277,0.00088508,-0.00096814,0.52285325,0.41747599,-0.5029
 0349,0.12798989,0.06845072,-0.03452218,0.02213072,0.00199250,0.0000021
 5,-0.00016817,0.00373655,0.00336399,-0.00057355,-0.00181850,-0.0011972
 8,0.00165571,-0.00144902,-0.00156795,-0.00034356,-0.47921097,0.5398442
 9,-0.12595254,0.12812179,-0.11668362,-0.02052713,0.02200450,0.03198539
 ,-0.00070965,-0.00001445,-0.00028864,-0.00091848,-0.00045276,0.0019571
 2,-0.00012290,0.00009257,0.00019135,0.00124679,0.00110262,0.00052780,0
 .14424114,-0.15094573,0.08515936,-0.01331044,0.01811100,-0.00554713,0.
 00696292,-0.00876959,0.00268321,0.00390176,-0.00082093,0.00026128,-0.5
 2644851,-0.16036806,0.06092424,-0.00151703,-0.00054026,0.00081202,-0.0
 0160745,-0.00094107,-0.00033181,0.00638207,-0.00917727,0.00274277,0.52
 563668,0.00249724,0.00199844,-0.00061384,0.00063353,-0.00147909,0.0005
 8090,-0.00592651,-0.00090100,0.00126170,-0.16255466,-0.05534289,0.0192
 7101,0.00268280,-0.00079101,-0.00124820,0.00196193,-0.00056901,0.00075
 645,-0.00180050,-0.00301954,0.00009147,0.16250617,0.06010410,-0.000544
 12,-0.00090052,0.00053444,-0.00032607,0.00075540,0.00014045,0.00185220
 ,0.00113518,0.00218569,0.06162406,0.01921623,-0.01198880,0.00050011,0.
 00051051,-0.00116449,-0.00196063,-0.00087202,-0.00128401,0.00039902,0.
 00025470,-0.00284875,-0.06154457,-0.02009948,0.01442548\\-0.00000039,-
 0.00000025,-0.00000259,-0.00000097,0.00000004,-0.00000457,0.00000082,0
 .00000048,0.00000066,0.00000020,0.00000085,0.00000339,0.00000196,0.000
 00022,0.00000246,-0.00000187,0.00000006,0.00000117,0.00000072,-0.00000
 138,-0.00000111,-0.00000048,-0.00000002,0.00000059\\\@
 The archive entry for this job was punched.


 BUT 'GLORY' DOESN'T MEAN 'A NICE KNOCK DOWN ARGUMENT', ALICE OBJECTED.
 WHEN I USE A WORD, HUMPTY DUMPTY SAID, IN A RATHER SCORNFUL TONE,
 IT MEANS JUST WHAT I CHOOSE IT TO MEAN....
 NEITHER MORE NOR LESS....
 THE QUESTION IS, SAID ALICE,
 WHETHER YOU CAN MAKE WORDS MEAN SO MANY DIFFERENT THINGS...
 THE QUESTION IS, SAID HUMPTY DUMPTY,
 WHICH IS TO BE MASTER....
 THAT IS ALL.....

 ALICE THROUGH THE LOOKING GLASS
 Job cpu time:       0 days  1 hours 36 minutes  0.9 seconds.
 Elapsed time:       0 days  0 hours 12 minutes 46.9 seconds.
 File lengths (MBytes):  RWF=     51 Int=      0 D2E=      0 Chk=      5 Scr=      1
 Normal termination of Gaussian 16 at Sun May 25 04:42:23 2025.
done
