 Entering Gaussian System, Link 0=g16
 Initial command:
 /apps/easybuild-2022/easybuild/software/Compiler/NVHPC/22.11-CUDA-11.7.0/Gaussian/g16c01-CUDA-11.7.0/g16/l1.exe "/tmp/Gau-79122.inp" -scrdir="/tmp/"
 Entering Link 1 = /apps/easybuild-2022/easybuild/software/Compiler/NVHPC/22.11-CUDA-11.7.0/Gaussian/g16c01-CUDA-11.7.0/g16/l1.exe PID=     79129.
  
 Copyright (c) 1988-2019, Gaussian, Inc.  All Rights Reserved.
  
 This is part of the Gaussian(R) 16 program.  It is based on
 the Gaussian(R) 09 system (copyright 2009, Gaussian, Inc.),
 the Gaussian(R) 03 system (copyright 2003, Gaussian, Inc.),
 the Gaussian(R) 98 system (copyright 1998, Gaussian, Inc.),
 the Gaussian(R) 94 system (copyright 1995, Gaussian, Inc.),
 the Gaussian 92(TM) system (copyright 1992, Gaussian, Inc.),
 the Gaussian 90(TM) system (copyright 1990, Gaussian, Inc.),
 the Gaussian 88(TM) system (copyright 1988, Gaussian, Inc.),
 the Gaussian 86(TM) system (copyright 1986, Carnegie Mellon
 University), and the Gaussian 82(TM) system (copyright 1983,
 Carnegie Mellon University). Gaussian is a federally registered
 trademark of Gaussian, Inc.
  
 This software contains proprietary and confidential information,
 including trade secrets, belonging to Gaussian, Inc.
  
 This software is provided under written license and may be
 used, copied, transmitted, or stored only in accord with that
 written license.
  
 The following legend is applicable only to US Government
 contracts under FAR:
  
                    RESTRICTED RIGHTS LEGEND
  
 Use, reproduction and disclosure by the US Government is
 subject to restrictions as set forth in subparagraphs (a)
 and (c) of the Commercial Computer Software - Restricted
 Rights clause in FAR 52.227-19.
  
 Gaussian, Inc.
 340 Quinnipiac St., Bldg. 40, Wallingford CT 06492
  
  
 ---------------------------------------------------------------
 Warning -- This program may not be used in any manner that
 competes with the business of Gaussian, Inc. or will provide
 assistance to any competitor of Gaussian, Inc.  The licensee
 of this program is prohibited from giving any competitor of
 Gaussian, Inc. access to this program.  By using this program,
 the user acknowledges that Gaussian, Inc. is engaged in the
 business of creating and licensing software in the field of
 computational chemistry and represents and warrants to the
 licensee that it is not a competitor of Gaussian, Inc. and that
 it will not use this program in any manner prohibited above.
 ---------------------------------------------------------------
  

 Cite this work as:
 Gaussian 16, Revision C.01,
 M. J. Frisch, G. W. Trucks, H. B. Schlegel, G. E. Scuseria, 
 M. A. Robb, J. R. Cheeseman, G. Scalmani, V. Barone, 
 G. A. Petersson, H. Nakatsuji, X. Li, M. Caricato, A. V. Marenich, 
 J. Bloino, B. G. Janesko, R. Gomperts, B. Mennucci, H. P. Hratchian, 
 J. V. Ortiz, A. F. Izmaylov, J. L. Sonnenberg, D. Williams-Young, 
 F. Ding, F. Lipparini, F. Egidi, J. Goings, B. Peng, A. Petrone, 
 T. Henderson, D. Ranasinghe, V. G. Zakrzewski, J. Gao, N. Rega, 
 G. Zheng, W. Liang, M. Hada, M. Ehara, K. Toyota, R. Fukuda, 
 J. Hasegawa, M. Ishida, T. Nakajima, Y. Honda, O. Kitao, H. Nakai, 
 T. Vreven, K. Throssell, J. A. Montgomery, Jr., J. E. Peralta, 
 F. Ogliaro, M. J. Bearpark, J. J. Heyd, E. N. Brothers, K. N. Kudin, 
 V. N. Staroverov, T. A. Keith, R. Kobayashi, J. Normand, 
 K. Raghavachari, A. P. Rendell, J. C. Burant, S. S. Iyengar, 
 J. Tomasi, M. Cossi, J. M. Millam, M. Klene, C. Adamo, R. Cammi, 
 J. W. Ochterski, R. L. Martin, K. Morokuma, O. Farkas, 
 J. B. Foresman, and D. J. Fox, Gaussian, Inc., Wallingford CT, 2019.
 
 ******************************************
 Gaussian 16:  ES64L-G16RevC.01  3-Jul-2019
                25-May-2025 
 ******************************************
 %mem=28GB
 %chk=1141903082400600000001_R_Addition_MultipleBond_1_7_8
 %nprocshared=8
 Will use up to    8 processors via shared memory.
 ----------------------------------------------------------------------
 #P mp2/6-31G Symm(None) scf(xqc) pop(None) guess(Mix,Always) opt(NoFre
 eze,TS,CalcAll,NoEigentest,MaxCycle=999)
 ----------------------------------------------------------------------
 1/5=1,6=999,10=4,11=1,18=20,29=2000,38=1/1,3;
 2/9=110,12=2,15=3,17=6,18=5,40=1/2;
 3/5=1,6=6,11=9,25=1,30=1,71=2,140=1/1,2,3;
 4/13=-1/1;
 5/5=2,8=3,13=1,38=5/2,8;
 8/6=3,8=1,10=2,19=11,30=-1/1;
 9/15=3,16=-3/6;
 11/6=1,8=1,15=11,17=12,24=-1,27=1,28=-2,29=300,31=1,32=6,42=3/1,2,10;
 10/6=2,21=1,31=1/2;
 8/6=4,8=1,10=2,19=11,30=-1/11,4;
 10/5=1,20=4,31=1/2;
 11/12=2,14=11,16=1,17=2,28=-2,31=1,42=3,76=2/2,10,12;
 7/10=1,12=2,25=1,30=1,44=2/1,2,3,16;
 1/5=1,6=999,10=4,11=1,18=20/3(3);
 2/9=110,15=3/2;
 7/8=1,9=1,25=1,30=1,44=-1/16;
 99//99;
 2/9=110,15=3/2;
 3/5=1,6=6,11=9,25=1,30=1,71=2,140=1/1,2,3;
 4/13=-1/1;
 5/5=2,8=3,13=1,38=5/2,8;
 8/6=3,8=1,10=2,19=11,30=-1/1;
 9/15=3,16=-3/6;
 11/6=1,8=1,15=11,17=12,24=-1,27=1,28=-2,29=300,31=1,32=6,42=3/1,2,10;
 10/6=2,21=1,31=1/2;
 8/6=4,8=1,10=2,19=11,30=-1/11,4;
 10/5=1,20=4,31=1/2;
 11/12=2,14=11,16=1,17=2,28=-2,31=1,42=3,76=2/2,10,12;
 7/10=1,12=2,25=1,30=1,44=2/1,2,3,16;
 1/5=1,6=999,10=4,11=1,18=20/3(-12);
 2/9=110,15=3/2;
 7/8=1,9=1,25=1,30=1,44=-1/16;
 99//99;
 Leave Link    1 at Sun May 25 03:40:51 2025, MaxMem=  3758096384 cpu:               0.1 elap:               0.0
 (Enter /apps/easybuild-2022/easybuild/software/Compiler/NVHPC/22.11-CUDA-11.7.0/Gaussian/g16c01-CUDA-11.7.0/g16/l101.exe)
 ------------------------------
 Gaussian input prepared by ASE
 ------------------------------
 Symbolic Z-matrix:
 Charge =  0 Multiplicity = 1
 C                     1.49012   0.04347   0.0004 
 O                     2.18437  -0.92054   0.00273 
 C                    -0.05293  -0.00938  -0.00005 
 F                    -0.52888   0.60561   1.0796 
 F                    -0.52806   0.60046  -1.08298 
 F                    -0.46179  -1.2638    0.00278 
 O                     1.92551   1.29894  -0.00219 
 H                     3.23421   0.84509  -0.00077 
 
 Add virtual bond connecting atoms H8         and O7         Dist= 2.62D+00.
 ITRead=  0  0  0  0  0  0  0  0
 MicOpt= -1 -1 -1 -1 -1 -1 -1 -1
 NAtoms=      8 NQM=        8 NQMF=       0 NMMI=      0 NMMIF=      0
                NMic=       0 NMicF=      0.
                    Isotopes and Nuclear Properties:
 (Nuclear quadrupole moments (NQMom) in fm**2, nuclear magnetic moments (NMagM)
  in nuclear magnetons)

  Atom         1           2           3           4           5           6           7           8
 IAtWgt=          12          16          12          19          19          19          16           1
 AtmWgt=  12.0000000  15.9949146  12.0000000  18.9984032  18.9984032  18.9984032  15.9949146   1.0078250
 NucSpn=           0           0           0           1           1           1           0           1
 AtZEff=  -0.0000000  -0.0000000  -0.0000000  -0.0000000  -0.0000000  -0.0000000  -0.0000000  -0.0000000
 NQMom=    0.0000000   0.0000000   0.0000000   0.0000000   0.0000000   0.0000000   0.0000000   0.0000000
 NMagM=    0.0000000   0.0000000   0.0000000   2.6288670   2.6288670   2.6288670   0.0000000   2.7928460
 AtZNuc=   6.0000000   8.0000000   6.0000000   9.0000000   9.0000000   9.0000000   8.0000000   1.0000000
 Leave Link  101 at Sun May 25 03:40:51 2025, MaxMem=  3758096384 cpu:               0.3 elap:               0.2
 (Enter /apps/easybuild-2022/easybuild/software/Compiler/NVHPC/22.11-CUDA-11.7.0/Gaussian/g16c01-CUDA-11.7.0/g16/l103.exe)

 GradGradGradGradGradGradGradGradGradGradGradGradGradGradGradGradGradGrad
 Berny optimization.
 Initialization pass.
                           ----------------------------
                           !    Initial Parameters    !
                           ! (Angstroms and Degrees)  !
 --------------------------                            --------------------------
 ! Name  Definition              Value          Derivative Info.                !
 --------------------------------------------------------------------------------
 ! R1    R(1,2)                  1.188          calculate D2E/DX2 analytically  !
 ! R2    R(1,3)                  1.5439         calculate D2E/DX2 analytically  !
 ! R3    R(1,7)                  1.3288         calculate D2E/DX2 analytically  !
 ! R4    R(3,4)                  1.3306         calculate D2E/DX2 analytically  !
 ! R5    R(3,5)                  1.3306         calculate D2E/DX2 analytically  !
 ! R6    R(3,6)                  1.3194         calculate D2E/DX2 analytically  !
 ! R7    R(7,8)                  1.3852         calculate D2E/DX2 analytically  !
 ! A1    A(2,1,3)              123.7986         calculate D2E/DX2 analytically  !
 ! A2    A(2,1,7)              125.1135         calculate D2E/DX2 analytically  !
 ! A3    A(3,1,7)              111.088          calculate D2E/DX2 analytically  !
 ! A4    A(1,3,4)              109.9651         calculate D2E/DX2 analytically  !
 ! A5    A(1,3,5)              109.9639         calculate D2E/DX2 analytically  !
 ! A6    A(1,3,6)              110.0145         calculate D2E/DX2 analytically  !
 ! A7    A(4,3,5)              108.7131         calculate D2E/DX2 analytically  !
 ! A8    A(4,3,6)              109.078          calculate D2E/DX2 analytically  !
 ! A9    A(5,3,6)              109.0779         calculate D2E/DX2 analytically  !
 ! A10   A(1,7,8)               90.0            calculate D2E/DX2 analytically  !
 ! D1    D(2,1,3,4)            120.1737         calculate D2E/DX2 analytically  !
 ! D2    D(2,1,3,5)           -120.1478         calculate D2E/DX2 analytically  !
 ! D3    D(2,1,3,6)              0.0125         calculate D2E/DX2 analytically  !
 ! D4    D(7,1,3,4)            -59.8279         calculate D2E/DX2 analytically  !
 ! D5    D(7,1,3,5)             59.8507         calculate D2E/DX2 analytically  !
 ! D6    D(7,1,3,6)           -179.989          calculate D2E/DX2 analytically  !
 ! D7    D(2,1,7,8)              0.0004         calculate D2E/DX2 analytically  !
 ! D8    D(3,1,7,8)           -179.998          calculate D2E/DX2 analytically  !
 --------------------------------------------------------------------------------
 Trust Radius=3.00D-01 FncErr=1.00D-07 GrdErr=1.00D-07 EigMax=2.50D+02 EigMin=1.00D-04
 Number of steps in this run=    100 maximum allowed number of steps=    100.
 Search for a saddle point of order  1.
 GradGradGradGradGradGradGradGradGradGradGradGradGradGradGradGradGradGrad

 Leave Link  103 at Sun May 25 03:40:51 2025, MaxMem=  3758096384 cpu:               0.1 elap:               0.0
 (Enter /apps/easybuild-2022/easybuild/software/Compiler/NVHPC/22.11-CUDA-11.7.0/Gaussian/g16c01-CUDA-11.7.0/g16/l202.exe)
                          Input orientation:                          
 ---------------------------------------------------------------------
 Center     Atomic      Atomic             Coordinates (Angstroms)
 Number     Number       Type             X           Y           Z
 ---------------------------------------------------------------------
      1          6           0        1.490116    0.043468    0.000396
      2          8           0        2.184367   -0.920542    0.002727
      3          6           0       -0.052925   -0.009383   -0.000048
      4          9           0       -0.528885    0.605607    1.079604
      5          9           0       -0.528063    0.600462   -1.082985
      6          9           0       -0.461789   -1.263795    0.002781
      7          8           0        1.925508    1.298940   -0.002189
      8          1           0        3.234206    0.845091   -0.000770
 ---------------------------------------------------------------------
                    Distance matrix (angstroms):
                    1          2          3          4          5
     1  C    0.000000
     2  O    1.187984   0.000000
     3  C    1.543946   2.415719   0.000000
     4  F    2.357341   3.294015   1.330564   0.000000
     5  F    2.357329   3.293858   1.330570   2.162595   0.000000
     6  F    2.349229   2.668326   1.319367   2.158406   2.158410
     7  O    1.328827   2.234532   2.371901   2.770385   2.770560
     8  H    1.919493   2.054175   3.396375   3.922425   3.922461
                    6          7          8
     6  F    0.000000
     7  O    3.502402   0.000000
     8  H    4.255326   1.385161   0.000000
 Symmetry turned off by external request.
 Stoichiometry    C2HF3O2
 Rotational constants (GHZ):           3.9228502           2.4804659           2.0735961
 Leave Link  202 at Sun May 25 03:40:51 2025, MaxMem=  3758096384 cpu:               0.0 elap:               0.0
 (Enter /apps/easybuild-2022/easybuild/software/Compiler/NVHPC/22.11-CUDA-11.7.0/Gaussian/g16c01-CUDA-11.7.0/g16/l301.exe)
 Standard basis: 6-31G (6D, 7F)
 Ernie: Thresh=  0.10000D-02 Tol=  0.10000D-05 Strict=F.
    65 basis functions,   158 primitive gaussians,    65 cartesian basis functions
    28 alpha electrons       28 beta electrons
       nuclear repulsion energy       336.8213690545 Hartrees.
 IExCor=    0 DFT=F Ex=HF Corr=None ExCW=0 ScaHFX=  1.000000
 ScaDFX=  1.000000  1.000000  1.000000  1.000000 ScalE2=  1.000000  1.000000
 IRadAn=      5 IRanWt=     -1 IRanGd=            0 ICorTp=0 IEmpDi=  4
 NAtoms=    8 NActive=    8 NUniq=    8 SFac= 1.00D+00 NAtFMM=   60 NAOKFM=F Big=F
 Integral buffers will be    131072 words long.
 Raffenetti 1 integral format.
 Two-electron integral symmetry is turned off.
 Leave Link  301 at Sun May 25 03:40:51 2025, MaxMem=  3758096384 cpu:               0.1 elap:               0.0
 (Enter /apps/easybuild-2022/easybuild/software/Compiler/NVHPC/22.11-CUDA-11.7.0/Gaussian/g16c01-CUDA-11.7.0/g16/l302.exe)
 NPDir=0 NMtPBC=     1 NCelOv=     1 NCel=       1 NClECP=     1 NCelD=      1
         NCelK=      1 NCelE2=     1 NClLst=     1 CellRange=     0.0.
 One-electron integrals computed using PRISM.
 NBasis=    65 RedAO= T EigKep=  4.96D-03  NBF=    65
 NBsUse=    65 1.00D-06 EigRej= -1.00D+00 NBFU=    65
 Leave Link  302 at Sun May 25 03:40:51 2025, MaxMem=  3758096384 cpu:               0.2 elap:               0.1
 (Enter /apps/easybuild-2022/easybuild/software/Compiler/NVHPC/22.11-CUDA-11.7.0/Gaussian/g16c01-CUDA-11.7.0/g16/l303.exe)
 DipDrv:  MaxL=1.
 Leave Link  303 at Sun May 25 03:40:51 2025, MaxMem=  3758096384 cpu:               0.1 elap:               0.0
 (Enter /apps/easybuild-2022/easybuild/software/Compiler/NVHPC/22.11-CUDA-11.7.0/Gaussian/g16c01-CUDA-11.7.0/g16/l401.exe)
 ExpMin= 1.61D-01 ExpMax= 7.00D+03 ExpMxC= 1.05D+03 IAcc=3 IRadAn=         5 AccDes= 0.00D+00
 Harris functional with IExCor=  205 and IRadAn=       5 diagonalized for initial guess.
 HarFok:  IExCor=  205 AccDes= 0.00D+00 IRadAn=         5 IDoV= 1 UseB2=F ITyADJ=14
 ICtDFT=  3500011 ScaDFX=  1.000000  1.000000  1.000000  1.000000
 FoFCou: FMM=F IPFlag=           0 FMFlag=      100000 FMFlg1=           0
         NFxFlg=           0 DoJE=T BraDBF=F KetDBF=T FulRan=T
         wScrn=  0.000000 ICntrl=       500 IOpCl=  0 I1Cent=   200000004 NGrid=           0
         NMat0=    1 NMatS0=      1 NMatT0=    0 NMatD0=    1 NMtDS0=    0 NMtDT0=    0
 Symmetry not used in FoFCou.
 Harris En= -524.183972766694    
 JPrj=0 DoOrth=F DoCkMO=T.
 Mixing orbitals, IMix= 1 IMixAn=  0 NRI=1 NE=   28 Coef=  7.07106781D-01  7.07106781D-01
 Leave Link  401 at Sun May 25 03:40:51 2025, MaxMem=  3758096384 cpu:               0.5 elap:               0.1
 (Enter /apps/easybuild-2022/easybuild/software/Compiler/NVHPC/22.11-CUDA-11.7.0/Gaussian/g16c01-CUDA-11.7.0/g16/l502.exe)
 Keep R1 ints in memory in canonical form, NReq=3942534.
 FoFCou: FMM=F IPFlag=           0 FMFlag=           0 FMFlg1=           0
         NFxFlg=           0 DoJE=F BraDBF=F KetDBF=F FulRan=T
         wScrn=  0.000000 ICntrl=       600 IOpCl=  0 I1Cent=           0 NGrid=           0
         NMat0=    1 NMatS0=   2145 NMatT0=    0 NMatD0=    1 NMtDS0=    0 NMtDT0=    0
 Symmetry not used in FoFCou.
 Two-electron integral symmetry not used.
 Closed shell SCF:
 Using DIIS extrapolation, IDIIS=  1040.
 NGot=  3758096384 LenX=  3755784906 LenY=  3755780240
 Requested convergence on RMS density matrix=1.00D-08 within  32 cycles.
 Requested convergence on MAX density matrix=1.00D-06.
 Requested convergence on             energy=1.00D-06.
 No special actions if energy rises.

 Cycle   1  Pass 1  IDiag  1:
 E= -523.633006917771    
 DIIS: error= 6.52D-02 at cycle   1 NSaved=   1.
 NSaved= 1 IEnMin= 1 EnMin= -523.633006917771     IErMin= 1 ErrMin= 6.52D-02
 ErrMax= 6.52D-02  0.00D+00 EMaxC= 1.00D-01 BMatC= 2.60D-01 BMatP= 2.60D-01
 IDIUse=3 WtCom= 3.48D-01 WtEn= 6.52D-01
 Coeff-Com:  0.100D+01
 Coeff-En:   0.100D+01
 Coeff:      0.100D+01
 Gap=     0.324 Goal=   None    Shift=    0.000
 GapD=    0.324 DampG=1.000 DampE=0.500 DampFc=0.5000 IDamp=-1.
 Damping current iteration by 5.00D-01
 RMSDP=1.12D-02 MaxDP=1.26D-01              OVMax= 2.92D-01

 Cycle   2  Pass 1  IDiag  1:
 E= -523.786463514029     Delta-E=       -0.153456596257 Rises=F Damp=T
 DIIS: error= 4.91D-02 at cycle   2 NSaved=   2.
 NSaved= 2 IEnMin= 2 EnMin= -523.786463514029     IErMin= 2 ErrMin= 4.91D-02
 ErrMax= 4.91D-02  0.00D+00 EMaxC= 1.00D-01 BMatC= 6.21D-02 BMatP= 2.60D-01
 IDIUse=3 WtCom= 5.09D-01 WtEn= 4.91D-01
 Coeff-Com: -0.545D+00 0.155D+01
 Coeff-En:   0.000D+00 0.100D+01
 Coeff:     -0.278D+00 0.128D+01
 Gap=     0.480 Goal=   None    Shift=    0.000
 RMSDP=7.15D-03 MaxDP=8.86D-02 DE=-1.53D-01 OVMax= 1.18D-01

 Cycle   3  Pass 1  IDiag  1:
 E= -524.015917878741     Delta-E=       -0.229454364712 Rises=F Damp=F
 DIIS: error= 2.59D-02 at cycle   3 NSaved=   3.
 NSaved= 3 IEnMin= 3 EnMin= -524.015917878741     IErMin= 3 ErrMin= 2.59D-02
 ErrMax= 2.59D-02  0.00D+00 EMaxC= 1.00D-01 BMatC= 7.80D-03 BMatP= 6.21D-02
 IDIUse=3 WtCom= 7.41D-01 WtEn= 2.59D-01
 Coeff-Com: -0.119D-01-0.710D-01 0.108D+01
 Coeff-En:   0.000D+00 0.000D+00 0.100D+01
 Coeff:     -0.881D-02-0.526D-01 0.106D+01
 Gap=     0.536 Goal=   None    Shift=    0.000
 RMSDP=3.15D-03 MaxDP=2.56D-02 DE=-2.29D-01 OVMax= 1.09D-01

 Cycle   4  Pass 1  IDiag  1:
 E= -524.048761262485     Delta-E=       -0.032843383744 Rises=F Damp=F
 DIIS: error= 1.41D-02 at cycle   4 NSaved=   4.
 NSaved= 4 IEnMin= 4 EnMin= -524.048761262485     IErMin= 4 ErrMin= 1.41D-02
 ErrMax= 1.41D-02  0.00D+00 EMaxC= 1.00D-01 BMatC= 2.47D-03 BMatP= 7.80D-03
 IDIUse=3 WtCom= 8.59D-01 WtEn= 1.41D-01
 Coeff-Com:  0.734D-01-0.172D+00-0.117D+00 0.122D+01
 Coeff-En:   0.000D+00 0.000D+00 0.000D+00 0.100D+01
 Coeff:      0.631D-01-0.147D+00-0.101D+00 0.119D+01
 Gap=     0.547 Goal=   None    Shift=    0.000
 RMSDP=2.12D-03 MaxDP=2.16D-02 DE=-3.28D-02 OVMax= 7.15D-02

 Cycle   5  Pass 1  IDiag  1:
 E= -524.061114183224     Delta-E=       -0.012352920738 Rises=F Damp=F
 DIIS: error= 6.70D-03 at cycle   5 NSaved=   5.
 NSaved= 5 IEnMin= 5 EnMin= -524.061114183224     IErMin= 5 ErrMin= 6.70D-03
 ErrMax= 6.70D-03  0.00D+00 EMaxC= 1.00D-01 BMatC= 7.60D-04 BMatP= 2.47D-03
 IDIUse=3 WtCom= 9.33D-01 WtEn= 6.70D-02
 Coeff-Com: -0.179D-01 0.676D-01-0.313D+00-0.147D+00 0.141D+01
 Coeff-En:   0.000D+00 0.000D+00 0.000D+00 0.000D+00 0.100D+01
 Coeff:     -0.167D-01 0.631D-01-0.292D+00-0.137D+00 0.138D+01
 Gap=     0.563 Goal=   None    Shift=    0.000
 RMSDP=1.64D-03 MaxDP=1.78D-02 DE=-1.24D-02 OVMax= 5.69D-02

 Cycle   6  Pass 1  IDiag  1:
 E= -524.065535371353     Delta-E=       -0.004421188130 Rises=F Damp=F
 DIIS: error= 1.60D-03 at cycle   6 NSaved=   6.
 NSaved= 6 IEnMin= 6 EnMin= -524.065535371353     IErMin= 6 ErrMin= 1.60D-03
 ErrMax= 1.60D-03  0.00D+00 EMaxC= 1.00D-01 BMatC= 1.40D-04 BMatP= 7.60D-04
 IDIUse=3 WtCom= 9.84D-01 WtEn= 1.60D-02
 Coeff-Com: -0.608D-02 0.163D-01 0.129D-01-0.243D+00 0.189D+00 0.103D+01
 Coeff-En:   0.000D+00 0.000D+00 0.000D+00 0.000D+00 0.000D+00 0.100D+01
 Coeff:     -0.598D-02 0.160D-01 0.127D-01-0.239D+00 0.186D+00 0.103D+01
 Gap=     0.564 Goal=   None    Shift=    0.000
 RMSDP=5.13D-04 MaxDP=6.92D-03 DE=-4.42D-03 OVMax= 1.81D-02

 Cycle   7  Pass 1  IDiag  1:
 E= -524.066054380126     Delta-E=       -0.000519008773 Rises=F Damp=F
 DIIS: error= 7.23D-04 at cycle   7 NSaved=   7.
 NSaved= 7 IEnMin= 7 EnMin= -524.066054380126     IErMin= 7 ErrMin= 7.23D-04
 ErrMax= 7.23D-04  0.00D+00 EMaxC= 1.00D-01 BMatC= 4.02D-05 BMatP= 1.40D-04
 IDIUse=3 WtCom= 9.93D-01 WtEn= 7.23D-03
 Coeff-Com:  0.721D-02-0.232D-01 0.127D+00-0.177D-01-0.424D+00 0.279D+00
 Coeff-Com:  0.105D+01
 Coeff-En:   0.000D+00 0.000D+00 0.000D+00 0.000D+00 0.000D+00 0.000D+00
 Coeff-En:   0.100D+01
 Coeff:      0.716D-02-0.231D-01 0.126D+00-0.176D-01-0.421D+00 0.277D+00
 Coeff:      0.105D+01
 Gap=     0.563 Goal=   None    Shift=    0.000
 RMSDP=2.40D-04 MaxDP=3.21D-03 DE=-5.19D-04 OVMax= 6.63D-03

 Cycle   8  Pass 1  IDiag  1:
 E= -524.066161813355     Delta-E=       -0.000107433229 Rises=F Damp=F
 DIIS: error= 2.41D-04 at cycle   8 NSaved=   8.
 NSaved= 8 IEnMin= 8 EnMin= -524.066161813355     IErMin= 8 ErrMin= 2.41D-04
 ErrMax= 2.41D-04  0.00D+00 EMaxC= 1.00D-01 BMatC= 4.08D-06 BMatP= 4.02D-05
 IDIUse=3 WtCom= 9.98D-01 WtEn= 2.41D-03
 Coeff-Com:  0.544D-03-0.192D-03-0.211D-01 0.321D-01 0.152D-01-0.156D+00
 Coeff-Com:  0.542D-01 0.108D+01
 Coeff-En:   0.000D+00 0.000D+00 0.000D+00 0.000D+00 0.000D+00 0.000D+00
 Coeff-En:   0.000D+00 0.100D+01
 Coeff:      0.542D-03-0.191D-03-0.210D-01 0.321D-01 0.152D-01-0.156D+00
 Coeff:      0.541D-01 0.108D+01
 Gap=     0.564 Goal=   None    Shift=    0.000
 RMSDP=8.11D-05 MaxDP=8.78D-04 DE=-1.07D-04 OVMax= 2.67D-03

 Cycle   9  Pass 1  IDiag  1:
 E= -524.066173784131     Delta-E=       -0.000011970776 Rises=F Damp=F
 DIIS: error= 1.34D-04 at cycle   9 NSaved=   9.
 NSaved= 9 IEnMin= 9 EnMin= -524.066173784131     IErMin= 9 ErrMin= 1.34D-04
 ErrMax= 1.34D-04  0.00D+00 EMaxC= 1.00D-01 BMatC= 8.54D-07 BMatP= 4.08D-06
 IDIUse=3 WtCom= 9.99D-01 WtEn= 1.34D-03
 Coeff-Com: -0.676D-03 0.257D-02-0.225D-01 0.150D-01 0.609D-01-0.929D-01
 Coeff-Com: -0.160D+00 0.359D+00 0.839D+00
 Coeff-En:   0.000D+00 0.000D+00 0.000D+00 0.000D+00 0.000D+00 0.000D+00
 Coeff-En:   0.000D+00 0.000D+00 0.100D+01
 Coeff:     -0.675D-03 0.257D-02-0.225D-01 0.150D-01 0.608D-01-0.927D-01
 Coeff:     -0.160D+00 0.359D+00 0.839D+00
 Gap=     0.564 Goal=   None    Shift=    0.000
 RMSDP=2.52D-05 MaxDP=3.50D-04 DE=-1.20D-05 OVMax= 8.07D-04

 Cycle  10  Pass 1  IDiag  1:
 E= -524.066175929946     Delta-E=       -0.000002145815 Rises=F Damp=F
 DIIS: error= 7.20D-05 at cycle  10 NSaved=  10.
 NSaved=10 IEnMin=10 EnMin= -524.066175929946     IErMin=10 ErrMin= 7.20D-05
 ErrMax= 7.20D-05  0.00D+00 EMaxC= 1.00D-01 BMatC= 1.22D-07 BMatP= 8.54D-07
 IDIUse=1 WtCom= 1.00D+00 WtEn= 0.00D+00
 Coeff-Com: -0.676D-04-0.263D-03 0.843D-02-0.110D-01-0.976D-02 0.536D-01
 Coeff-Com: -0.709D-02-0.252D+00-0.260D+00 0.148D+01
 Coeff:     -0.676D-04-0.263D-03 0.843D-02-0.110D-01-0.976D-02 0.536D-01
 Coeff:     -0.709D-02-0.252D+00-0.260D+00 0.148D+01
 Gap=     0.564 Goal=   None    Shift=    0.000
 RMSDP=1.73D-05 MaxDP=3.16D-04 DE=-2.15D-06 OVMax= 6.59D-04

 Cycle  11  Pass 1  IDiag  1:
 E= -524.066176543954     Delta-E=       -0.000000614008 Rises=F Damp=F
 DIIS: error= 2.06D-05 at cycle  11 NSaved=  11.
 NSaved=11 IEnMin=11 EnMin= -524.066176543954     IErMin=11 ErrMin= 2.06D-05
 ErrMax= 2.06D-05  0.00D+00 EMaxC= 1.00D-01 BMatC= 2.14D-08 BMatP= 1.22D-07
 IDIUse=1 WtCom= 1.00D+00 WtEn= 0.00D+00
 Coeff-Com:  0.550D-04-0.130D-03 0.268D-03 0.200D-02-0.653D-02-0.719D-02
 Coeff-Com:  0.383D-01-0.585D-02 0.288D-01-0.471D+00 0.142D+01
 Coeff:      0.550D-04-0.130D-03 0.268D-03 0.200D-02-0.653D-02-0.719D-02
 Coeff:      0.383D-01-0.585D-02 0.288D-01-0.471D+00 0.142D+01
 Gap=     0.564 Goal=   None    Shift=    0.000
 RMSDP=5.58D-06 MaxDP=1.02D-04 DE=-6.14D-07 OVMax= 1.96D-04

 Cycle  12  Pass 1  IDiag  1:
 E= -524.066176605274     Delta-E=       -0.000000061320 Rises=F Damp=F
 DIIS: error= 4.57D-06 at cycle  12 NSaved=  12.
 NSaved=12 IEnMin=12 EnMin= -524.066176605274     IErMin=12 ErrMin= 4.57D-06
 ErrMax= 4.57D-06  0.00D+00 EMaxC= 1.00D-01 BMatC= 9.58D-10 BMatP= 2.14D-08
 IDIUse=1 WtCom= 1.00D+00 WtEn= 0.00D+00
 Coeff-Com:  0.554D-05-0.654D-05-0.371D-03 0.911D-03-0.588D-03-0.356D-02
 Coeff-Com:  0.525D-02 0.138D-01 0.199D-01-0.144D+00 0.133D+00 0.976D+00
 Coeff:      0.554D-05-0.654D-05-0.371D-03 0.911D-03-0.588D-03-0.356D-02
 Coeff:      0.525D-02 0.138D-01 0.199D-01-0.144D+00 0.133D+00 0.976D+00
 Gap=     0.564 Goal=   None    Shift=    0.000
 RMSDP=9.61D-07 MaxDP=1.80D-05 DE=-6.13D-08 OVMax= 3.37D-05

 Cycle  13  Pass 1  IDiag  1:
 E= -524.066176608007     Delta-E=       -0.000000002733 Rises=F Damp=F
 DIIS: error= 1.74D-06 at cycle  13 NSaved=  13.
 NSaved=13 IEnMin=13 EnMin= -524.066176608007     IErMin=13 ErrMin= 1.74D-06
 ErrMax= 1.74D-06  0.00D+00 EMaxC= 1.00D-01 BMatC= 1.98D-10 BMatP= 9.58D-10
 IDIUse=1 WtCom= 1.00D+00 WtEn= 0.00D+00
 Coeff-Com: -0.164D-04 0.394D-04-0.981D-04-0.297D-03 0.126D-02 0.108D-02
 Coeff-Com: -0.739D-02 0.412D-02-0.344D-02 0.739D-01-0.270D+00 0.137D+00
 Coeff-Com:  0.106D+01
 Coeff:     -0.164D-04 0.394D-04-0.981D-04-0.297D-03 0.126D-02 0.108D-02
 Coeff:     -0.739D-02 0.412D-02-0.344D-02 0.739D-01-0.270D+00 0.137D+00
 Coeff:      0.106D+01
 Gap=     0.564 Goal=   None    Shift=    0.000
 RMSDP=4.92D-07 MaxDP=7.77D-06 DE=-2.73D-09 OVMax= 1.56D-05

 Cycle  14  Pass 1  IDiag  1:
 E= -524.066176608573     Delta-E=       -0.000000000566 Rises=F Damp=F
 DIIS: error= 4.68D-07 at cycle  14 NSaved=  14.
 NSaved=14 IEnMin=14 EnMin= -524.066176608573     IErMin=14 ErrMin= 4.68D-07
 ErrMax= 4.68D-07  0.00D+00 EMaxC= 1.00D-01 BMatC= 1.23D-11 BMatP= 1.98D-10
 IDIUse=1 WtCom= 1.00D+00 WtEn= 0.00D+00
 Coeff-Com:  0.631D-05-0.138D-04 0.311D-04 0.693D-04-0.336D-03-0.369D-03
 Coeff-Com:  0.233D-02-0.189D-02 0.686D-03-0.197D-01 0.935D-01-0.136D+00
 Coeff-Com: -0.414D+00 0.148D+01
 Coeff:      0.631D-05-0.138D-04 0.311D-04 0.693D-04-0.336D-03-0.369D-03
 Coeff:      0.233D-02-0.189D-02 0.686D-03-0.197D-01 0.935D-01-0.136D+00
 Coeff:     -0.414D+00 0.148D+01
 Gap=     0.564 Goal=   None    Shift=    0.000
 RMSDP=1.61D-07 MaxDP=2.00D-06 DE=-5.66D-10 OVMax= 4.53D-06

 Cycle  15  Pass 1  IDiag  1:
 E= -524.066176608638     Delta-E=       -0.000000000064 Rises=F Damp=F
 DIIS: error= 1.19D-07 at cycle  15 NSaved=  15.
 NSaved=15 IEnMin=15 EnMin= -524.066176608638     IErMin=15 ErrMin= 1.19D-07
 ErrMax= 1.19D-07  0.00D+00 EMaxC= 1.00D-01 BMatC= 5.99D-13 BMatP= 1.23D-11
 IDIUse=1 WtCom= 1.00D+00 WtEn= 0.00D+00
 Coeff-Com: -0.137D-05 0.325D-05-0.126D-04-0.582D-05 0.741D-04 0.850D-04
 Coeff-Com: -0.590D-03 0.659D-03-0.110D-03 0.380D-02-0.235D-01 0.463D-01
 Coeff-Com:  0.118D+00-0.609D+00 0.146D+01
 Coeff:     -0.137D-05 0.325D-05-0.126D-04-0.582D-05 0.741D-04 0.850D-04
 Coeff:     -0.590D-03 0.659D-03-0.110D-03 0.380D-02-0.235D-01 0.463D-01
 Coeff:      0.118D+00-0.609D+00 0.146D+01
 Gap=     0.564 Goal=   None    Shift=    0.000
 RMSDP=3.52D-08 MaxDP=3.44D-07 DE=-6.43D-11 OVMax= 7.86D-07

 Cycle  16  Pass 1  IDiag  1:
 E= -524.066176608641     Delta-E=       -0.000000000003 Rises=F Damp=F
 DIIS: error= 3.12D-08 at cycle  16 NSaved=  16.
 NSaved=16 IEnMin=16 EnMin= -524.066176608641     IErMin=16 ErrMin= 3.12D-08
 ErrMax= 3.12D-08  0.00D+00 EMaxC= 1.00D-01 BMatC= 3.12D-14 BMatP= 5.99D-13
 IDIUse=1 WtCom= 1.00D+00 WtEn= 0.00D+00
 Coeff-Com: -0.127D-06 0.361D-06-0.229D-05 0.120D-05 0.634D-05-0.224D-04
 Coeff-Com:  0.222D-04 0.114D-04 0.901D-04-0.388D-03 0.167D-02-0.435D-02
 Coeff-Com: -0.111D-01 0.802D-01-0.342D+00 0.128D+01
 Coeff:     -0.127D-06 0.361D-06-0.229D-05 0.120D-05 0.634D-05-0.224D-04
 Coeff:      0.222D-04 0.114D-04 0.901D-04-0.388D-03 0.167D-02-0.435D-02
 Coeff:     -0.111D-01 0.802D-01-0.342D+00 0.128D+01
 Gap=     0.564 Goal=   None    Shift=    0.000
 RMSDP=6.95D-09 MaxDP=8.68D-08 DE=-3.41D-12 OVMax= 1.20D-07

 SCF Done:  E(RHF) =  -524.066176609     A.U. after   16 cycles
            NFock= 16  Conv=0.69D-08     -V/T= 2.0001
 KE= 5.239925477474D+02 PE=-1.918947244466D+03 EE= 5.340671510555D+02
 Leave Link  502 at Sun May 25 03:40:51 2025, MaxMem=  3758096384 cpu:               0.6 elap:               0.2
 (Enter /apps/easybuild-2022/easybuild/software/Compiler/NVHPC/22.11-CUDA-11.7.0/Gaussian/g16c01-CUDA-11.7.0/g16/l508.exe)
 QCSCF skips out because SCF is already converged.
 Leave Link  508 at Sun May 25 03:40:51 2025, MaxMem=  3758096384 cpu:               0.0 elap:               0.0
 (Enter /apps/easybuild-2022/easybuild/software/Compiler/NVHPC/22.11-CUDA-11.7.0/Gaussian/g16c01-CUDA-11.7.0/g16/l801.exe)
 ExpMin= 1.61D-01 ExpMax= 7.00D+03 ExpMxC= 1.05D+03 IAcc=3 IRadAn=         5 AccDes= 0.00D+00
 HarFok:  IExCor=  205 AccDes= 0.00D+00 IRadAn=         5 IDoV=-2 UseB2=F ITyADJ=14
 ICtDFT= 12500011 ScaDFX=  1.000000  1.000000  1.000000  1.000000
 Largest valence mixing into a core orbital is  1.11D-04
 Largest core mixing into a valence orbital is  5.74D-05
 Range of M.O.s used for correlation:     8    65
 NBasis=    65 NAE=    28 NBE=    28 NFC=     7 NFV=     0
 NROrb=     58 NOA=    21 NOB=    21 NVA=    37 NVB=    37
 Leave Link  801 at Sun May 25 03:40:52 2025, MaxMem=  3758096384 cpu:               0.2 elap:               0.0
 (Enter /apps/easybuild-2022/easybuild/software/Compiler/NVHPC/22.11-CUDA-11.7.0/Gaussian/g16c01-CUDA-11.7.0/g16/l906.exe)
 Frozen-core derivative calculation, NFC=   7 NFV=   0.
 FulOut=F Deriv=T AODrv=T NAtomX=     8
   MMem=           0  MDisk=          21 MDiskD=          21
  W3Min=      118300 MinDsk=      307465 NBas6D=          65
 NBas2D=        2229    NTT=        2145    LW2=     3300000
    MDV=  3758030127 MDiskM=      601927 NBas2p=        2215
 Disk-based method using ON**2 memory for 21 occupieds at a time.
 Permanent disk used for amplitudes=     1325044 words.
 Estimated scratch disk usage=    11948671 words.
 IMap=   1   2   3   4   5   6   7   8   9  10  11  12  13  14  15  16  17  18  19  20
 IMap=  21  22  23  24  25  26  27  28
 Actual    scratch disk usage=    11192959 words.
 JobTyp=1 Pass  1:  I=   8 to  28 NPSUse=  8 ParTrn=T ParDer=T DoDerP=T.
 (rs|ai) integrals will be sorted in core.
 Spin components of T(2) and E(2):
     alpha-alpha T2 =       0.3346124600D-01 E2=     -0.1085864645D+00
     alpha-beta  T2 =       0.1840108543D+00 E2=     -0.5894130230D+00
     beta-beta   T2 =       0.3346124600D-01 E2=     -0.1085864645D+00
 The integrals were generated   1 times.
 ANorm=    0.1118451316D+01
 E2 =    -0.8065859519D+00 EUMP2 =    -0.52487276256058D+03
 Leave Link  906 at Sun May 25 03:40:53 2025, MaxMem=  3758096384 cpu:               9.1 elap:               1.2
 (Enter /apps/easybuild-2022/easybuild/software/Compiler/NVHPC/22.11-CUDA-11.7.0/Gaussian/g16c01-CUDA-11.7.0/g16/l1101.exe)
 Using compressed Sx but separate Hx and Fx, NAtomX=     8.
 Will process      9 centers per pass.
 Leave Link 1101 at Sun May 25 03:40:53 2025, MaxMem=  3758096384 cpu:               0.4 elap:               0.1
 (Enter /apps/easybuild-2022/easybuild/software/Compiler/NVHPC/22.11-CUDA-11.7.0/Gaussian/g16c01-CUDA-11.7.0/g16/l1102.exe)
 Leave Link 1102 at Sun May 25 03:40:53 2025, MaxMem=  3758096384 cpu:               0.1 elap:               0.0
 (Enter /apps/easybuild-2022/easybuild/software/Compiler/NVHPC/22.11-CUDA-11.7.0/Gaussian/g16c01-CUDA-11.7.0/g16/l1110.exe)
 Forming Gx(P) for the SCF density, NAtomX=     8.
 Integral derivatives from FoFJK, PRISM(SPDF).
 Do as many integral derivatives as possible in FoFJK.
 G2DrvN: MDV=    3758095424.
 G2DrvN: will do     9 centers at a time, making    1 passes.
 Calling FoFCou, ICntrl=  3107 FMM=F I1Cent=   0 AccDes= 0.00D+00.
 FoFJK:  IHMeth= 1 ICntrl=    3107 DoSepK=F KAlg= 0 I1Cent=           0 FoldK=F
 IRaf=         0 NMat=       1 IRICut=       1 DoRegI=T DoRafI=F ISym2E= 0 IDoP0=0 IntGTp=1.
 FoFCou: FMM=F IPFlag=           0 FMFlag=      100000 FMFlg1=           0
         NFxFlg=           0 DoJE=F BraDBF=F KetDBF=F FulRan=T
         wScrn=  0.000000 ICntrl=      3107 IOpCl=  0 I1Cent=           0 NGrid=           0
         NMat0=    1 NMatS0=      1 NMatT0=    0 NMatD0=    1 NMtDS0=    0 NMtDT0=    0
 Symmetry not used in FoFCou.
 End of G2Drv F.D. properties file   721 does not exist.
 End of G2Drv F.D. properties file   722 does not exist.
 End of G2Drv F.D. properties file   788 does not exist.
 Leave Link 1110 at Sun May 25 03:40:53 2025, MaxMem=  3758096384 cpu:               0.7 elap:               0.1
 (Enter /apps/easybuild-2022/easybuild/software/Compiler/NVHPC/22.11-CUDA-11.7.0/Gaussian/g16c01-CUDA-11.7.0/g16/l1002.exe)
 Minotr:  Closed shell wavefunction.
          IDoAtm=11111111
          Frozen-core window.
          Direct CPHF calculation.
          Differentiating once with respect to electric field.
                with respect to dipole field.
          Differentiating once with respect to nuclear coordinates.
          Requested convergence is 1.0D-08 RMS, and 1.0D-07 maximum.
          Secondary convergence is 1.0D-12 RMS, and 1.0D-12 maximum.
          NewPWx=T KeepS1=T KeepF1=T KeepIn=T MapXYZ=F SortEE=F KeepMc=T.
 Keep R1 ints in memory in canonical form, NReq=3942093.
 FoFCou: FMM=F IPFlag=           0 FMFlag=           0 FMFlg1=           0
         NFxFlg=           0 DoJE=F BraDBF=F KetDBF=F FulRan=T
         wScrn=  0.000000 ICntrl=       600 IOpCl=  0 I1Cent=           0 NGrid=           0
         NMat0=    1 NMatS0=   2145 NMatT0=    0 NMatD0=    1 NMtDS0=    0 NMtDT0=    0
 Symmetry not used in FoFCou.
 Two-electron integral symmetry not used.
          MDV=    3758096384 using IRadAn=       1.
          Solving linear equations simultaneously, MaxMat=       0.
          There are    27 degrees of freedom in the 1st order CPHF.  IDoFFX=6 NUNeed=    27.
     24 vectors produced by pass  0 Test12= 3.84D-15 3.70D-09 XBig12= 7.53D+00 1.78D+00.
 AX will form    24 AO Fock derivatives at one time.
     24 vectors produced by pass  1 Test12= 3.84D-15 3.70D-09 XBig12= 3.67D-01 1.22D-01.
     24 vectors produced by pass  2 Test12= 3.84D-15 3.70D-09 XBig12= 1.27D-02 2.81D-02.
     24 vectors produced by pass  3 Test12= 3.84D-15 3.70D-09 XBig12= 1.17D-04 2.17D-03.
     24 vectors produced by pass  4 Test12= 3.84D-15 3.70D-09 XBig12= 6.24D-07 1.67D-04.
     24 vectors produced by pass  5 Test12= 3.84D-15 3.70D-09 XBig12= 2.91D-09 9.03D-06.
     22 vectors produced by pass  6 Test12= 3.84D-15 3.70D-09 XBig12= 1.68D-11 8.30D-07.
      6 vectors produced by pass  7 Test12= 3.84D-15 3.70D-09 XBig12= 1.02D-13 5.95D-08.
      3 vectors produced by pass  8 Test12= 3.84D-15 3.70D-09 XBig12= 4.70D-16 5.10D-09.
 InvSVY:  IOpt=1 It=  1 EMax= 1.78D-15
 Solved reduced A of dimension   175 with    27 vectors.
 FullF1:  Do perturbations      1 to      27.
 Saving first derivative matrices.
 End of Minotr F.D. properties file   721 does not exist.
 End of Minotr F.D. properties file   722 does not exist.
 End of Minotr F.D. properties file   788 does not exist.
 Leave Link 1002 at Sun May 25 03:40:53 2025, MaxMem=  3758096384 cpu:               0.8 elap:               0.1
 (Enter /apps/easybuild-2022/easybuild/software/Compiler/NVHPC/22.11-CUDA-11.7.0/Gaussian/g16c01-CUDA-11.7.0/g16/l811.exe)
 MDV=  3758096384.
 Form MO integral derivatives with frozen-active canonical formalism.
 MOERI=1 MOERIx=1 NAtoms=     8 NAtomX=     8.
 Discarding MO integrals.
 MO basis two electron integral derivatives will not be stored on disk.
 IAlg= 3 DoFC=T DoPWx=T Debug=F.
 Frozen-core window:  NFC=   7 NFV=   0.
 Reordered first order wavefunction length =      2146592
 In DefCFB: NBatch=  1 ICI= 28 ICA= 37 LFMax= 37
            Large arrays: LIAPS=    17508400 LIARS=     4242420 words.
 In StABat: MaxSiz=  9 MinSiz=  2 NAtomB=  8
 DoIAMN: NPSUse=  8.
 Leave Link  811 at Sun May 25 03:40:56 2025, MaxMem=  3758096384 cpu:               8.9 elap:               2.5
 (Enter /apps/easybuild-2022/easybuild/software/Compiler/NVHPC/22.11-CUDA-11.7.0/Gaussian/g16c01-CUDA-11.7.0/g16/l804.exe)
 Frozen-core window:  NFC=   7 NFV=   0.
 Closed-shell transformation, MDV=  3758096384 ITran=4 ISComp=1.
 Semi-Direct transformation.
 ModeAB=           2 MOrb=            28 LenV=    3757906065
 LASXX=      2478259 LTotXX=     2478259 LenRXX=     2478259
 LTotAB=     2672474 MaxLAS=     3903900 LenRXY=     3903900
 NonZer=     4956518 LenScr=     8177664 LnRSAI=           0
 LnScr1=           0 LExtra=           0 Total=     14559823
 MaxDsk=          -1 SrtSym=           F ITran=            4
 DoSDTr:  NPSUse=  8
 JobTyp=0 Pass  1:  I=   1 to  28.
 (rs|ai) integrals will be sorted in core.
 Complete sort for first half transformation.
 First half transformation complete.
 Begin second half transformation for I=  10.
 Begin second half transformation for I=  20.
 Begin second half transformation for I=  10.
 Begin second half transformation for I=  20.
 Complete sort for second half transformation.
 Second half transformation complete.
 Spin components of T(2) and E(2):
     alpha-alpha T2 =       0.3346124600D-01 E2=     -0.1085864645D+00
     alpha-beta  T2 =       0.1840108543D+00 E2=     -0.5894130230D+00
     beta-beta   T2 =       0.3346124600D-01 E2=     -0.1085864645D+00
 ANorm=    0.1581729020D+01
 E2 =    -0.8065859519D+00 EUMP2 =    -0.52487276256058D+03
 Leave Link  804 at Sun May 25 03:40:56 2025, MaxMem=  3758096384 cpu:               1.2 elap:               0.2
 (Enter /apps/easybuild-2022/easybuild/software/Compiler/NVHPC/22.11-CUDA-11.7.0/Gaussian/g16c01-CUDA-11.7.0/g16/l1002.exe)
 Minotr:  Closed shell wavefunction.
          Computing MP2/KS-MP2 derivatives.
          Using Z-Vector for PSCF gradient.
          Skipping F1 and S1 gradient terms here.
          IDoAtm=11111111
          Frozen-core window.
          Using MO integrals in the linear equations.
          Forming densities via direct SCF.
          Differentiating once with respect to electric field.
                with respect to dipole field.
          Differentiating once with respect to nuclear coordinates.
          Requested convergence is 1.0D-10 RMS, and 1.0D-09 maximum.
          NewPWx=F KeepS1=T KeepF1=T KeepIn=T MapXYZ=F SortEE=F KeepMc=T.
          MDV=    3758096384 using IRadAn=       5.
          Solving linear equations separately, MaxMat=       0.
          There are     1 degrees of freedom in the 1st order CPHF.  IDoFFX=0 NUNeed=     1.
 FoFJK:  IHMeth= 1 ICntrl=       0 DoSepK=F KAlg= 0 I1Cent=           0 FoldK=F
 IRaf=         0 NMat=       1 IRICut=       1 DoRegI=T DoRafI=F ISym2E= 0 IDoP0=0 IntGTp=1.
 FoFCou: FMM=F IPFlag=           0 FMFlag=      100000 FMFlg1=           0
         NFxFlg=           0 DoJE=F BraDBF=F KetDBF=F FulRan=T
         wScrn=  0.000000 ICntrl=         0 IOpCl=  0 I1Cent=           0 NGrid=           0
         NMat0=    1 NMatS0=      1 NMatT0=    0 NMatD0=    1 NMtDS0=    0 NMtDT0=    0
 Symmetry not used in FoFCou.
 LinEq1:  Iter=  0 NonCon=     1 RMS=1.05D-02 Max=1.21D-01 NDo=     1
 LinEq1:  Iter=  1 NonCon=     1 RMS=3.76D-03 Max=4.05D-02 NDo=     1
 LinEq1:  Iter=  2 NonCon=     1 RMS=1.14D-03 Max=1.19D-02 NDo=     1
 LinEq1:  Iter=  3 NonCon=     1 RMS=4.92D-04 Max=1.11D-02 NDo=     1
 LinEq1:  Iter=  4 NonCon=     1 RMS=1.95D-04 Max=2.88D-03 NDo=     1
 LinEq1:  Iter=  5 NonCon=     1 RMS=9.45D-05 Max=1.30D-03 NDo=     1
 LinEq1:  Iter=  6 NonCon=     1 RMS=3.04D-05 Max=3.74D-04 NDo=     1
 LinEq1:  Iter=  7 NonCon=     1 RMS=1.17D-05 Max=8.23D-05 NDo=     1
 LinEq1:  Iter=  8 NonCon=     1 RMS=2.76D-06 Max=3.44D-05 NDo=     1
 LinEq1:  Iter=  9 NonCon=     1 RMS=5.54D-07 Max=3.37D-06 NDo=     1
 LinEq1:  Iter= 10 NonCon=     1 RMS=1.51D-07 Max=1.43D-06 NDo=     1
 LinEq1:  Iter= 11 NonCon=     1 RMS=2.38D-08 Max=1.49D-07 NDo=     1
 LinEq1:  Iter= 12 NonCon=     1 RMS=1.09D-08 Max=7.92D-08 NDo=     1
 LinEq1:  Iter= 13 NonCon=     1 RMS=2.66D-09 Max=3.05D-08 NDo=     1
 LinEq1:  Iter= 14 NonCon=     1 RMS=3.30D-10 Max=3.10D-09 NDo=     1
 LinEq1:  Iter= 15 NonCon=     0 RMS=3.37D-11 Max=3.56D-10 NDo=     1
 Linear equations converged to 1.000D-10 1.000D-09 after    15 iterations.
 End of Minotr F.D. properties file   721 does not exist.
 End of Minotr F.D. properties file   722 does not exist.
 End of Minotr F.D. properties file   788 does not exist.
 Leave Link 1002 at Sun May 25 03:40:56 2025, MaxMem=  3758096384 cpu:               1.3 elap:               0.3
 (Enter /apps/easybuild-2022/easybuild/software/Compiler/NVHPC/22.11-CUDA-11.7.0/Gaussian/g16c01-CUDA-11.7.0/g16/l1102.exe)
 Use density number 2.
 Symmetrizing basis deriv contribution to polar:
 IMax=3 JMax=2 DiffMx= 0.00D+00
 Leave Link 1102 at Sun May 25 03:40:56 2025, MaxMem=  3758096384 cpu:               0.1 elap:               0.0
 (Enter /apps/easybuild-2022/easybuild/software/Compiler/NVHPC/22.11-CUDA-11.7.0/Gaussian/g16c01-CUDA-11.7.0/g16/l1110.exe)
 Forming Gx(P) for generalized density number  2 NAtomX=     8.
 Integral derivatives from FoFJK, PRISM(SPDF).
 Do as many integral derivatives as possible in FoFJK.
 G2DrvN: MDV=    3758095424.
 G2DrvN: will do     9 centers at a time, making    1 passes.
 Calling FoFCou, ICntrl=  3107 FMM=F I1Cent=   0 AccDes= 0.00D+00.
 FoFJK:  IHMeth= 1 ICntrl=    3107 DoSepK=F KAlg= 0 I1Cent=           0 FoldK=F
 IRaf=         0 NMat=       1 IRICut=       1 DoRegI=T DoRafI=F ISym2E= 0 IDoP0=0 IntGTp=1.
 FoFCou: FMM=F IPFlag=           0 FMFlag=      100000 FMFlg1=           0
         NFxFlg=           0 DoJE=F BraDBF=F KetDBF=F FulRan=T
         wScrn=  0.000000 ICntrl=      3107 IOpCl=  0 I1Cent=           0 NGrid=           0
         NMat0=    1 NMatS0=      1 NMatT0=    0 NMatD0=    1 NMtDS0=    0 NMtDT0=    0
 Symmetry not used in FoFCou.
 End of G2Drv F.D. properties file   721 does not exist.
 End of G2Drv F.D. properties file   722 does not exist.
 End of G2Drv F.D. properties file   788 does not exist.
 Leave Link 1110 at Sun May 25 03:40:56 2025, MaxMem=  3758096384 cpu:               0.8 elap:               0.1
 (Enter /apps/easybuild-2022/easybuild/software/Compiler/NVHPC/22.11-CUDA-11.7.0/Gaussian/g16c01-CUDA-11.7.0/g16/l1112.exe)
 MP22nd: MDV=    3758096384
 This link is doing NAtomX=     8 total of    27 degrees of freedom.
 Using ON3 I/O method in MakUI.
 Frozen-core window:  NFC=   7 NFV=   0.
 Using Ix for Sx.
 Use MO integrals over full window.
 Using OV2 memory method for fx*t*t/D, MaxI=    28 DoOO2=F NP=   8.
 R2 and R3 integrals will be kept in memory, NReq=     5403170.
 FoFCou: FMM=F IPFlag=           0 FMFlag=           0 FMFlg1=           0
         NFxFlg=           0 DoJE=F BraDBF=F KetDBF=F FulRan=T
         wScrn=  0.000000 ICntrl=       600 IOpCl=  0 I1Cent=           0 NGrid=           0
         NMat0=    1 NMatS0=      1 NMatT0=    0 NMatD0=    1 NMtDS0=    0 NMtDT0=    0
 Symmetry not used in FoFCou.
 DD1Dir will call FoFMem   1 times, MxPair=       812
 NAB=   406 NAA=     0 NBB=     0.
 FoFJK:  IHMeth= 1 ICntrl=       0 DoSepK=F KAlg= 0 I1Cent=           0 FoldK=F
 IRaf=         0 NMat=      27 IRICut=      67 DoRegI=T DoRafI=T ISym2E= 0 IDoP0=0 IntGTp=1.
 Discarding MO integrals.
 Leave Link 1112 at Sun May 25 03:40:58 2025, MaxMem=  3758096384 cpu:               9.2 elap:               1.7
 (Enter /apps/easybuild-2022/easybuild/software/Compiler/NVHPC/22.11-CUDA-11.7.0/Gaussian/g16c01-CUDA-11.7.0/g16/l701.exe)
 ... and contract with generalized density number  2.
 Compute integral second derivatives.
 Leave Link  701 at Sun May 25 03:40:58 2025, MaxMem=  3758096384 cpu:               0.4 elap:               0.1
 (Enter /apps/easybuild-2022/easybuild/software/Compiler/NVHPC/22.11-CUDA-11.7.0/Gaussian/g16c01-CUDA-11.7.0/g16/l702.exe)
 L702 exits ... SP integral derivatives will be done elsewhere.
 Leave Link  702 at Sun May 25 03:40:58 2025, MaxMem=  3758096384 cpu:               0.1 elap:               0.0
 (Enter /apps/easybuild-2022/easybuild/software/Compiler/NVHPC/22.11-CUDA-11.7.0/Gaussian/g16c01-CUDA-11.7.0/g16/l703.exe)
 Integral derivatives from FoFJK, PRISM(SPDF).
 Compute integral second derivatives, UseDBF=F ICtDFT=           0.
 Calling FoFJK, ICntrl=  10100127 FMM=F ISym2X=0 I1Cent= 0 IOpClX= 0 NMat=1 NMatS=1 NMatT=0.
 FoFJK:  IHMeth= 1 ICntrl=10100127 DoSepK=F KAlg= 0 I1Cent=           0 FoldK=F
 IRaf=         0 NMat=       1 IRICut=       1 DoRegI=T DoRafI=F ISym2E= 0 IDoP0=0 IntGTp=1.
 FoFCou: FMM=F IPFlag=           0 FMFlag=      100000 FMFlg1=         800
         NFxFlg=           0 DoJE=F BraDBF=F KetDBF=F FulRan=T
         wScrn=  0.000000 ICntrl=  10100127 IOpCl=  0 I1Cent=           0 NGrid=           0
         NMat0=    1 NMatS0=      1 NMatT0=    0 NMatD0=    1 NMtDS0=    0 NMtDT0=    0
 Symmetry not used in FoFCou.
 Leave Link  703 at Sun May 25 03:40:59 2025, MaxMem=  3758096384 cpu:               2.0 elap:               0.4
 (Enter /apps/easybuild-2022/easybuild/software/Compiler/NVHPC/22.11-CUDA-11.7.0/Gaussian/g16c01-CUDA-11.7.0/g16/l716.exe)
 Dipole        = 7.88754435D-01 2.44797190D-01-2.39849317D-04
 Polarizability= 3.30329682D+01 2.81691044D-01 3.01348618D+01
                 4.88070533D-03-2.91176966D-02 1.67219276D+01
 -------------------------------------------------------------------
 Center     Atomic                   Forces (Hartrees/Bohr)
 Number     Number              X              Y              Z
 -------------------------------------------------------------------
      1        6          -0.084816363    0.042789093   -0.000121333
      2        8           0.063120206   -0.089899305    0.000216773
      3        6           0.066353270    0.007691391    0.000004778
      4        9          -0.024943424    0.031339234    0.055820285
      5        9          -0.024898984    0.031071593   -0.055984785
      6        9          -0.022503492   -0.068860213    0.000155156
      7        8           0.105086808    0.005411663    0.000022397
      8        1          -0.077398020    0.040456543   -0.000113270
 -------------------------------------------------------------------
 Cartesian Forces:  Max     0.105086808 RMS     0.049556597
 Force constants in Cartesian coordinates: 
                1             2             3             4             5 
      1  0.790963D+00
      2 -0.259322D+00  0.103290D+01
      3  0.781847D-03 -0.198141D-02  0.162674D+00
      4 -0.383470D+00  0.392043D+00 -0.974699D-03  0.374998D+00
      5  0.412441D+00 -0.631478D+00  0.145832D-02 -0.459104D+00  0.745059D+00
      6 -0.101886D-02  0.145177D-02 -0.253832D-01  0.113129D-02 -0.181192D-02
      7 -0.173760D+00 -0.228948D-01  0.153833D-04 -0.233076D-01  0.126884D-01
      8 -0.154813D-01 -0.524984D-01 -0.700832D-04  0.400335D-01 -0.177829D-01
      9 -0.149806D-05 -0.732506D-04 -0.823342D-01 -0.988123D-04  0.801614D-04
     10 -0.119837D-01  0.240936D-01  0.414785D-01 -0.825943D-02 -0.582147D-03
     11  0.310660D-02 -0.234103D-02 -0.138491D-01  0.158046D-02  0.325760D-02
     12  0.637862D-02 -0.153145D-01 -0.123611D-01  0.558944D-02  0.745686D-03
     13 -0.119505D-01  0.238854D-01 -0.415924D-01 -0.825359D-02 -0.568058D-03
     14  0.306761D-02 -0.220164D-02  0.138011D-01  0.155328D-02  0.324865D-02
     15 -0.639399D-02  0.152814D-01 -0.125361D-01 -0.560305D-02 -0.758342D-03
     16 -0.198750D-01 -0.448017D-01  0.966461D-04  0.208056D-02 -0.480426D-02
     17 -0.735729D-02 -0.320410D-01  0.951276D-04  0.333748D-02  0.620562D-02
     18  0.760355D-05  0.816925D-04  0.997256D-02 -0.706319D-05 -0.158218D-04
     19 -0.131072D+00 -0.947274D-01  0.177948D-03  0.462559D-01  0.350111D-01
     20 -0.979713D-01 -0.344180D+00  0.608413D-03  0.326318D-02 -0.100744D+00
     21  0.185256D-03  0.610644D-03 -0.491396D-01 -0.230134D-05  0.303435D-03
     22 -0.588517D-01 -0.182758D-01  0.167323D-04 -0.443752D-04  0.491817D-02
     23 -0.384830D-01  0.318427D-01 -0.623685D-04  0.172932D-01 -0.776610D-02
     24  0.610273D-04 -0.563743D-04  0.910809D-02 -0.348157D-04 -0.151484D-05
                6             7             8             9            10 
      6 -0.163881D-01
      7 -0.412409D-04  0.595459D+00
      8  0.909833D-04  0.101222D-01  0.734749D+00
      9  0.170230D-01 -0.571646D-04 -0.142487D-03  0.666964D+00
     10 -0.340712D-02 -0.133554D+00  0.659491D-01  0.124242D+00  0.112709D+00
     11  0.105358D-02  0.682814D-01 -0.127142D+00 -0.128473D+00 -0.816221D-01
     12  0.422155D-03  0.120183D+00 -0.126159D+00 -0.279137D+00 -0.144218D+00
     13  0.340449D-02 -0.133365D+00  0.652621D-01 -0.124441D+00  0.229766D-01
     14 -0.106514D-02  0.676067D-01 -0.125930D+00  0.127787D+00 -0.446257D-02
     15  0.430037D-03 -0.120389D+00  0.125473D+00 -0.280522D+00 -0.956942D-02
     16  0.107279D-04 -0.119238D+00 -0.123937D+00  0.271687D-03  0.203263D-01
     17 -0.138328D-04 -0.136048D+00 -0.389412D+00  0.745428D-03 -0.288428D-02
     18 -0.114663D-03  0.297937D-03  0.748266D-03 -0.545112D-01 -0.644187D-02
     19 -0.718646D-04 -0.164983D-01 -0.378710D-01  0.761206D-04 -0.255810D-02
     20  0.292281D-03  0.441812D-03 -0.182475D-01  0.521254D-04 -0.141005D-02
     21  0.332393D-01 -0.861969D-05  0.367930D-04  0.521988D-02 -0.783017D-03
     22 -0.743210D-05  0.426361D-02 -0.407732D-02  0.873558D-05  0.343917D-03
     23  0.228714D-05 -0.197439D-03 -0.373673D-02  0.237194D-04  0.918397D-03
     24 -0.922849D-02  0.000000D+00  0.222768D-04  0.729778D-02 -0.130106D-02
               11            12            13            14            15 
     11  0.165142D+00
     12  0.183433D+00  0.379868D+00
     13 -0.442505D-02  0.967143D-02  0.112484D+00
     14  0.171723D-01 -0.109110D-01 -0.807943D-01  0.163395D+00
     15  0.104304D-01 -0.831405D-01  0.144396D+00 -0.182457D+00  0.381819D+00
     16  0.127054D-01  0.165042D-02  0.203232D-01  0.126554D-01 -0.168967D-02
     17 -0.578409D-01 -0.332038D-01 -0.287892D-02 -0.574196D-01  0.334394D-01
     18 -0.549166D-01 -0.731821D-02  0.647695D-02  0.551647D-01 -0.773538D-02
     19 -0.365760D-03  0.719444D-03 -0.255634D-02 -0.365675D-03 -0.721020D-03
     20  0.235473D-02  0.212558D-02 -0.140454D-02  0.233721D-02 -0.212968D-02
     21  0.160314D-02  0.153084D-02  0.787158D-03 -0.160591D-02  0.154782D-02
     22  0.738970D-03  0.258990D-04  0.342204D-03  0.739476D-03 -0.298222D-04
     23 -0.602415D-03 -0.715958D-03  0.923379D-03 -0.601960D-03  0.720013D-03
     24  0.718181D-03  0.136406D-03  0.129796D-02 -0.714043D-03  0.137694D-03
               16            17            18            19            20 
     16  0.106759D+00
     17  0.151079D+00  0.527198D+00
     18 -0.342032D-03 -0.105423D-02  0.594385D-01
     19 -0.952511D-02 -0.439061D-02  0.672429D-05  0.893967D-01
     20 -0.124750D-02  0.429842D-02 -0.887099D-05  0.129644D+00  0.499388D+00
     21  0.000000D+00 -0.896059D-05  0.711978D-03 -0.271795D-03 -0.915932D-03
     22 -0.851021D-03 -0.857202D-03  0.174692D-05  0.265576D-01 -0.313159D-01
     23 -0.164924D-02 -0.989005D-03  0.000000D+00 -0.269350D-01 -0.452071D-01
     24  0.311846D-05  0.000000D+00 -0.443616D-03  0.844427D-04 -0.239216D-04
               21            22            23            24 
     21  0.586391D-01
     22  0.942120D-04  0.282397D-01
     23 -0.232024D-04  0.481297D-01  0.270606D-01
     24 -0.517493D-01 -0.110072D-03  0.545962D-04  0.447415D-01
 FormGI is forming the generalized inverse of G from B-inverse, IUseBI=4.
 Force constants in internal coordinates: 
                1             2             3             4             5 
      1  0.105411D+01
      2  0.264322D-01  0.283282D+00
      3  0.927743D-01  0.132894D-01  0.481557D+00
      4  0.292620D-02  0.200633D-01  0.252006D-02  0.548112D+00
      5  0.292569D-02  0.200646D-01  0.251933D-02  0.493717D-01  0.548094D+00
      6  0.134849D-02  0.188210D-01  0.563672D-03  0.500092D-01  0.500084D-01
      7 -0.917127D-02 -0.382653D-02  0.353142D-01  0.616469D-03  0.617213D-03
      8  0.111422D-03  0.156819D-01 -0.410975D-01  0.104367D-01  0.104317D-01
      9  0.660774D-01 -0.415280D-01  0.132756D-01 -0.757652D-02 -0.757573D-02
     10 -0.661888D-01  0.258461D-01  0.278218D-01 -0.286008D-02 -0.285601D-02
     11  0.819482D-02  0.162614D-01 -0.178674D-02  0.205407D-01 -0.299239D-01
     12  0.818682D-02  0.162552D-01 -0.178717D-02 -0.299242D-01  0.205411D-01
     13 -0.144918D-01  0.368144D-01  0.119113D-01 -0.309760D-01 -0.309745D-01
     14 -0.188501D-02 -0.188994D-01 -0.124084D-02  0.226563D-01  0.226560D-01
     15  0.149338D-04 -0.258924D-01 -0.364690D-02  0.239549D-01 -0.538511D-02
     16  0.158056D-04 -0.258883D-01 -0.364581D-02 -0.538497D-02  0.239540D-01
     17  0.371333D-01 -0.289761D-02  0.379675D-02 -0.273696D-02 -0.273573D-02
     18 -0.395734D-02  0.149794D-02  0.188211D-02 -0.804217D-03 -0.212871D-01
     19  0.395743D-02 -0.149649D-02 -0.188329D-02  0.212874D-01  0.805256D-03
     20 -0.177065D-05  0.000000D+00  0.000000D+00 -0.238713D-01  0.238726D-01
     21 -0.395621D-02  0.149618D-02  0.188253D-02  0.237520D-02 -0.244675D-01
     22  0.395856D-02 -0.149825D-02 -0.188287D-02  0.244668D-01 -0.237515D-02
     23  0.000000D+00 -0.108292D-05  0.000000D+00 -0.206919D-01  0.206922D-01
     24  0.000000D+00  0.000000D+00 -0.142600D-05  0.430167D-03 -0.430178D-03
     25  0.000000D+00  0.118620D-05  0.000000D+00 -0.280005D-02  0.280038D-02
                6             7             8             9            10 
      6  0.575851D+00
      7  0.543627D-03 -0.168545D-02
      8 -0.140958D-01 -0.109839D-02  0.163444D+00
      9 -0.135310D-02 -0.134381D-03 -0.105143D+00  0.205227D+00
     10  0.154489D-01  0.123277D-02 -0.583008D-01 -0.100084D+00  0.158385D+00
     11 -0.309891D-01 -0.612047D-03  0.694388D-02 -0.627558D-02 -0.668171D-03
     12 -0.309880D-01 -0.610878D-03  0.694148D-02 -0.626963D-02 -0.671985D-03
     13  0.196263D-01  0.652124D-03 -0.219507D-02 -0.875926D-02  0.109543D-01
     14 -0.450667D-02 -0.212320D-03 -0.637936D-02  0.688175D-02 -0.502394D-03
     15  0.237136D-01  0.394466D-03 -0.275352D-02  0.741505D-02 -0.466155D-02
     16  0.237126D-01  0.393955D-03 -0.275297D-02  0.741286D-02 -0.465988D-02
     17  0.451463D-02  0.870250D-01  0.659218D-02 -0.515856D-01  0.449934D-01
     18  0.221522D-01  0.513133D-03 -0.402156D-03 -0.325978D-03  0.727879D-03
     19 -0.221537D-01 -0.513374D-03  0.406033D-03  0.323580D-03 -0.729868D-03
     20 -0.120983D-05  0.000000D+00  0.150071D-05  0.000000D+00 -0.132091D-05
     21  0.221529D-01  0.513319D-03 -0.402946D-03 -0.323771D-03  0.727067D-03
     22 -0.221530D-01 -0.513189D-03  0.405243D-03  0.325787D-03 -0.730680D-03
     23  0.000000D+00  0.000000D+00  0.000000D+00  0.170697D-05 -0.213231D-05
     24  0.000000D+00  0.000000D+00  0.204570D-05 -0.257446D-05  0.000000D+00
     25  0.000000D+00  0.000000D+00 -0.211393D-05  0.000000D+00  0.000000D+00
               11            12            13            14            15 
     11  0.201776D+00
     12  0.102098D-01  0.201760D+00
     13 -0.732451D-02 -0.731591D-02  0.235145D+00
     14 -0.949067D-01 -0.949046D-01 -0.200860D-01  0.147905D+00
     15 -0.927114D-01 -0.205699D-01 -0.102588D+00  0.329491D-01  0.151161D+00
     16 -0.205703D-01 -0.927060D-01 -0.102585D+00  0.329474D-01  0.358226D-01
     17 -0.387169D-02 -0.387008D-02  0.788685D-02  0.188421D-02 -0.103243D-02
     18 -0.660763D-02 -0.879301D-02  0.169687D-01 -0.319285D-01  0.319780D-01
     19  0.879724D-02  0.660707D-02 -0.169699D-01  0.319273D-01  0.182075D-02
     20 -0.148334D-01  0.148321D-01  0.000000D+00  0.000000D+00 -0.316651D-01
     21 -0.114893D-02 -0.142548D-01  0.169701D-01 -0.319276D-01  0.312532D-01
     22  0.142559D-01  0.114532D-02 -0.169685D-01  0.319282D-01  0.109593D-02
     23 -0.937471D-02  0.937036D-02  0.168058D-05  0.114820D-05 -0.323899D-01
     24 -0.504431D-03  0.505158D-03  0.000000D+00  0.000000D+00 -0.171219D-03
     25 -0.605003D-02  0.605336D-02 -0.199376D-05  0.000000D+00  0.565291D-03
               16            17            18            19            20 
     16  0.151157D+00
     17 -0.103248D-02  0.164339D+00
     18 -0.182174D-02  0.125749D-02  0.362867D-01
     19 -0.319789D-01 -0.125711D-02 -0.127408D-01  0.362876D-01
     20  0.316665D-01  0.000000D+00 -0.983524D-02 -0.983551D-02  0.387370D-01
     21 -0.109615D-02  0.125695D-02  0.261705D-01 -0.228579D-01 -0.225073D-01
     22 -0.312533D-01 -0.125765D-02 -0.228570D-01  0.261705D-01 -0.225076D-01
     23  0.323920D-01  0.000000D+00 -0.199514D-01 -0.199526D-01  0.260650D-01
     24  0.171100D-03  0.000000D+00 -0.636692D-02 -0.636664D-02 -0.583571D-02
     25 -0.565814D-03 -0.114733D-05  0.390984D-02  0.391104D-02  0.703747D-02
               21            22            23            24            25 
     21  0.400249D-01
     22 -0.900358D-02  0.400239D-01
     23 -0.865292D-02 -0.865410D-02  0.373635D-01
     24  0.628564D-02  0.628592D-02  0.681685D-02  0.267807D-01
     25 -0.778862D-02 -0.778742D-02 -0.466100D-02  0.139273D-01  0.258114D-01
 Leave Link  716 at Sun May 25 03:40:59 2025, MaxMem=  3758096384 cpu:               0.1 elap:               0.0
 (Enter /apps/easybuild-2022/easybuild/software/Compiler/NVHPC/22.11-CUDA-11.7.0/Gaussian/g16c01-CUDA-11.7.0/g16/l103.exe)

 GradGradGradGradGradGradGradGradGradGradGradGradGradGradGradGradGradGrad
 Berny optimization.
 Red2BG is reusing G-inverse.
 Internal  Forces:  Max     0.109837875 RMS     0.039062884
 Search for a saddle point.
 Step number   1 out of a maximum of  100
 All quantities printed in internal units (Hartrees-Bohrs-Radians)
 Swapping is turned off.
 Second derivative matrix not updated -- analytic derivatives used.
 ITU=  0
     Eigenvalues ---   -0.04442   0.00059   0.03971   0.04795   0.14489
     Eigenvalues ---    0.15028   0.16131   0.21343   0.23837   0.24545
     Eigenvalues ---    0.27427   0.33329   0.45085   0.48528   0.51739
     Eigenvalues ---    0.53745   0.67354   1.08131
 Eigenvectors required to have negative eigenvalues:
                          R7        A10       A3        R3        A2
   1                   -0.90179   0.41365  -0.07291   0.06667   0.06598
                          R1        A6        R2        A1        A4
   1                   -0.03590  -0.00875   0.00723   0.00693   0.00527
 RFO step:  Lambda0=7.258692658D-02 Lambda=-3.66993212D-02.
 Linear search not attempted -- option 19 set.
 Maximum step size (   0.300) exceeded in Quadratic search.
    -- Step size scaled by   0.365
 Iteration  1 RMS(Cart)=  0.07152853 RMS(Int)=  0.00866287
 Iteration  2 RMS(Cart)=  0.00994794 RMS(Int)=  0.00005451
 Iteration  3 RMS(Cart)=  0.00013109 RMS(Int)=  0.00000302
 Iteration  4 RMS(Cart)=  0.00000001 RMS(Int)=  0.00000302
 ITry= 1 IFail=0 DXMaxC= 3.00D-01 DCOld= 1.00D+10 DXMaxT= 3.00D-01 DXLimC= 3.00D+00 Rises=F
 Variable       Old X    -DE/DX   Delta X   Delta X   Delta X     New X
                                 (Linear)    (Quad)   (Total)
    R1        2.24497   0.10984   0.00000   0.04815   0.04815   2.29312
    R2        2.91764   0.00595   0.00000  -0.01181  -0.01181   2.90583
    R3        2.51112   0.05241   0.00000   0.00683   0.00683   2.51795
    R4        2.51440   0.06870   0.00000   0.03619   0.03619   2.55059
    R5        2.51441   0.06870   0.00000   0.03618   0.03618   2.55060
    R6        2.49324   0.07244   0.00000   0.03752   0.03752   2.53077
    R7        2.61757  -0.08638   0.00000   0.24990   0.24990   2.86748
    A1        2.16069  -0.00006   0.00000  -0.00146  -0.00146   2.15923
    A2        2.18364   0.00289   0.00000  -0.03234  -0.03234   2.15130
    A3        1.93885  -0.00283   0.00000   0.03380   0.03380   1.97265
    A4        1.91925   0.00070   0.00000   0.00115   0.00114   1.92040
    A5        1.91923   0.00070   0.00000   0.00115   0.00114   1.92038
    A6        1.92011  -0.00033   0.00000   0.00760   0.00760   1.92771
    A7        1.89740  -0.00017   0.00000  -0.00166  -0.00166   1.89574
    A8        1.90377  -0.00046   0.00000  -0.00422  -0.00423   1.89954
    A9        1.90377  -0.00046   0.00000  -0.00422  -0.00423   1.89954
   A10        1.57080   0.03367   0.00000  -0.13685  -0.13685   1.43395
    D1        2.09743  -0.00034   0.00000   0.00031   0.00031   2.09774
    D2       -2.09697   0.00034   0.00000  -0.00030  -0.00031  -2.09728
    D3        0.00022  -0.00000   0.00000   0.00001   0.00001   0.00022
    D4       -1.04419  -0.00034   0.00000   0.00031   0.00031  -1.04388
    D5        1.04459   0.00034   0.00000  -0.00031  -0.00031   1.04428
    D6       -3.14140  -0.00000   0.00000   0.00000   0.00000  -3.14140
    D7        0.00001  -0.00000   0.00000  -0.00001  -0.00001  -0.00000
    D8       -3.14156  -0.00000   0.00000  -0.00001  -0.00001  -3.14157
         Item               Value     Threshold  Converged?
 Maximum Force            0.109838     0.000450     NO 
 RMS     Force            0.039063     0.000300     NO 
 Maximum Displacement     0.300217     0.001800     NO 
 RMS     Displacement     0.081325     0.001200     NO 
 Predicted change in Energy= 1.359319D-02
 Lowest energy point so far.  Saving SCF results.
 GradGradGradGradGradGradGradGradGradGradGradGradGradGradGradGradGradGrad

 Leave Link  103 at Sun May 25 03:40:59 2025, MaxMem=  3758096384 cpu:               0.1 elap:               0.1
 (Enter /apps/easybuild-2022/easybuild/software/Compiler/NVHPC/22.11-CUDA-11.7.0/Gaussian/g16c01-CUDA-11.7.0/g16/l202.exe)
                          Input orientation:                          
 ---------------------------------------------------------------------
 Center     Atomic      Atomic             Coordinates (Angstroms)
 Number     Number       Type             X           Y           Z
 ---------------------------------------------------------------------
      1          6           0        1.478184    0.106030    0.000254
      2          8           0        2.223845   -0.851300    0.002584
      3          6           0       -0.055383   -0.006588   -0.000055
      4          9           0       -0.563546    0.597903    1.094515
      5          9           0       -0.562698    0.592687   -1.097889
      6          9           0       -0.430132   -1.292307    0.002860
      7          8           0        1.908125    1.367200   -0.002344
      8          1           0        3.264143    0.686223   -0.000408
 ---------------------------------------------------------------------
                    Distance matrix (angstroms):
                    1          2          3          4          5
     1  C    0.000000
     2  O    1.213465   0.000000
     3  C    1.537697   2.430725   0.000000
     4  F    2.368123   3.325966   1.349713   0.000000
     5  F    2.368112   3.325803   1.349718   2.192411   0.000000
     6  F    2.365803   2.690368   1.339223   2.186872   2.186876
     7  O    1.332444   2.240858   2.396386   2.811419   2.811594
     8  H    1.877838   1.856396   3.391053   3.982193   3.982201
                    6          7          8
     6  F    0.000000
     7  O    3.541251   0.000000
     8  H    4.190735   1.517404   0.000000
 Symmetry turned off by external request.
 Stoichiometry    C2HF3O2
 Rotational constants (GHZ):           3.8513898           2.4260449           2.0360543
 Leave Link  202 at Sun May 25 03:40:59 2025, MaxMem=  3758096384 cpu:               0.1 elap:               0.0
 (Enter /apps/easybuild-2022/easybuild/software/Compiler/NVHPC/22.11-CUDA-11.7.0/Gaussian/g16c01-CUDA-11.7.0/g16/l301.exe)
 Standard basis: 6-31G (6D, 7F)
 Ernie: Thresh=  0.10000D-02 Tol=  0.10000D-05 Strict=F.
    65 basis functions,   158 primitive gaussians,    65 cartesian basis functions
    28 alpha electrons       28 beta electrons
       nuclear repulsion energy       333.3531103677 Hartrees.
 IExCor=    0 DFT=F Ex=HF Corr=None ExCW=0 ScaHFX=  1.000000
 ScaDFX=  1.000000  1.000000  1.000000  1.000000 ScalE2=  1.000000  1.000000
 IRadAn=      5 IRanWt=     -1 IRanGd=            0 ICorTp=0 IEmpDi=  4
 NAtoms=    8 NActive=    8 NUniq=    8 SFac= 1.00D+00 NAtFMM=   60 NAOKFM=F Big=F
 Integral buffers will be    131072 words long.
 Raffenetti 1 integral format.
 Two-electron integral symmetry is turned off.
 Leave Link  301 at Sun May 25 03:40:59 2025, MaxMem=  3758096384 cpu:               0.1 elap:               0.0
 (Enter /apps/easybuild-2022/easybuild/software/Compiler/NVHPC/22.11-CUDA-11.7.0/Gaussian/g16c01-CUDA-11.7.0/g16/l302.exe)
 NPDir=0 NMtPBC=     1 NCelOv=     1 NCel=       1 NClECP=     1 NCelD=      1
         NCelK=      1 NCelE2=     1 NClLst=     1 CellRange=     0.0.
 One-electron integrals computed using PRISM.
 NBasis=    65 RedAO= T EigKep=  4.88D-03  NBF=    65
 NBsUse=    65 1.00D-06 EigRej= -1.00D+00 NBFU=    65
 Leave Link  302 at Sun May 25 03:40:59 2025, MaxMem=  3758096384 cpu:               0.5 elap:               0.2
 (Enter /apps/easybuild-2022/easybuild/software/Compiler/NVHPC/22.11-CUDA-11.7.0/Gaussian/g16c01-CUDA-11.7.0/g16/l303.exe)
 DipDrv:  MaxL=1.
 Leave Link  303 at Sun May 25 03:40:59 2025, MaxMem=  3758096384 cpu:               0.0 elap:               0.0
 (Enter /apps/easybuild-2022/easybuild/software/Compiler/NVHPC/22.11-CUDA-11.7.0/Gaussian/g16c01-CUDA-11.7.0/g16/l401.exe)
 ExpMin= 1.61D-01 ExpMax= 7.00D+03 ExpMxC= 1.05D+03 IAcc=3 IRadAn=         5 AccDes= 0.00D+00
 Harris functional with IExCor=  205 and IRadAn=       5 diagonalized for initial guess.
 HarFok:  IExCor=  205 AccDes= 0.00D+00 IRadAn=         5 IDoV= 1 UseB2=F ITyADJ=14
 ICtDFT=  3500011 ScaDFX=  1.000000  1.000000  1.000000  1.000000
 FoFCou: FMM=F IPFlag=           0 FMFlag=      100000 FMFlg1=           0
         NFxFlg=           0 DoJE=T BraDBF=F KetDBF=T FulRan=T
         wScrn=  0.000000 ICntrl=       500 IOpCl=  0 I1Cent=   200000004 NGrid=           0
         NMat0=    1 NMatS0=      1 NMatT0=    0 NMatD0=    1 NMtDS0=    0 NMtDT0=    0
 Symmetry not used in FoFCou.
 Harris En= -524.171171727876    
 JPrj=0 DoOrth=F DoCkMO=T.
 Mixing orbitals, IMix= 1 IMixAn=  0 NRI=1 NE=   28 Coef=  7.07106781D-01  7.07106781D-01
 Leave Link  401 at Sun May 25 03:40:59 2025, MaxMem=  3758096384 cpu:               0.7 elap:               0.2
 (Enter /apps/easybuild-2022/easybuild/software/Compiler/NVHPC/22.11-CUDA-11.7.0/Gaussian/g16c01-CUDA-11.7.0/g16/l502.exe)
 Keep R1 ints in memory in canonical form, NReq=3942470.
 FoFCou: FMM=F IPFlag=           0 FMFlag=           0 FMFlg1=           0
         NFxFlg=           0 DoJE=F BraDBF=F KetDBF=F FulRan=T
         wScrn=  0.000000 ICntrl=       600 IOpCl=  0 I1Cent=           0 NGrid=           0
         NMat0=    1 NMatS0=   2145 NMatT0=    0 NMatD0=    1 NMtDS0=    0 NMtDT0=    0
 Symmetry not used in FoFCou.
 Two-electron integral symmetry not used.
 Closed shell SCF:
 Using DIIS extrapolation, IDIIS=  1040.
 NGot=  3758096384 LenX=  3755784906 LenY=  3755780240
 Requested convergence on RMS density matrix=1.00D-08 within  32 cycles.
 Requested convergence on MAX density matrix=1.00D-06.
 Requested convergence on             energy=1.00D-06.
 No special actions if energy rises.

 Cycle   1  Pass 1  IDiag  1:
 E= -523.491283879995    
 DIIS: error= 1.07D-01 at cycle   1 NSaved=   1.
 NSaved= 1 IEnMin= 1 EnMin= -523.491283879995     IErMin= 1 ErrMin= 1.07D-01
 ErrMax= 1.07D-01  0.00D+00 EMaxC= 1.00D-01 BMatC= 3.38D-01 BMatP= 3.38D-01
 IDIUse=3 WtCom= 0.00D+00 WtEn= 1.00D+00
 Coeff-Com:  0.100D+01
 Coeff-En:   0.100D+01
 Coeff:      0.100D+01
 Gap=     0.149 Goal=   None    Shift=    0.000
 GapD=    0.149 DampG=1.000 DampE=0.250 DampFc=0.2500 IDamp=-1.
 Damping current iteration by 2.50D-01
 RMSDP=1.75D-02 MaxDP=4.18D-01              OVMax= 4.47D-01

 Cycle   2  Pass 1  IDiag  1:
 E= -523.628250294563     Delta-E=       -0.136966414568 Rises=F Damp=T
 DIIS: error= 7.23D-02 at cycle   2 NSaved=   2.
 NSaved= 2 IEnMin= 2 EnMin= -523.628250294563     IErMin= 2 ErrMin= 7.23D-02
 ErrMax= 7.23D-02  0.00D+00 EMaxC= 1.00D-01 BMatC= 1.43D-01 BMatP= 3.38D-01
 IDIUse=3 WtCom= 2.77D-01 WtEn= 7.23D-01
 Coeff-Com: -0.115D+01 0.215D+01
 Coeff-En:   0.000D+00 0.100D+01
 Coeff:     -0.319D+00 0.132D+01
 Gap=     0.527 Goal=   None    Shift=    0.000
 RMSDP=1.10D-02 MaxDP=3.13D-01 DE=-1.37D-01 OVMax= 1.40D-01

 Cycle   3  Pass 1  IDiag  1:
 E= -523.979032949675     Delta-E=       -0.350782655113 Rises=F Damp=F
 DIIS: error= 2.52D-02 at cycle   3 NSaved=   3.
 NSaved= 3 IEnMin= 3 EnMin= -523.979032949675     IErMin= 3 ErrMin= 2.52D-02
 ErrMax= 2.52D-02  0.00D+00 EMaxC= 1.00D-01 BMatC= 2.78D-02 BMatP= 1.43D-01
 IDIUse=3 WtCom= 7.48D-01 WtEn= 2.52D-01
 Coeff-Com:  0.860D+00-0.111D+01 0.125D+01
 Coeff-En:   0.000D+00 0.000D+00 0.100D+01
 Coeff:      0.643D+00-0.831D+00 0.119D+01
 Gap=     0.481 Goal=   None    Shift=    0.000
 RMSDP=4.19D-03 MaxDP=3.40D-02 DE=-3.51D-01 OVMax= 7.43D-02

 Cycle   4  Pass 1  IDiag  1:
 E= -524.020426126733     Delta-E=       -0.041393177057 Rises=F Damp=F
 DIIS: error= 1.05D-02 at cycle   4 NSaved=   4.
 NSaved= 4 IEnMin= 4 EnMin= -524.020426126733     IErMin= 4 ErrMin= 1.05D-02
 ErrMax= 1.05D-02  0.00D+00 EMaxC= 1.00D-01 BMatC= 2.44D-03 BMatP= 2.78D-02
 IDIUse=3 WtCom= 8.95D-01 WtEn= 1.05D-01
 Coeff-Com: -0.929D-01 0.961D-01-0.747D-02 0.100D+01
 Coeff-En:   0.000D+00 0.000D+00 0.000D+00 0.100D+01
 Coeff:     -0.831D-01 0.860D-01-0.669D-02 0.100D+01
 Gap=     0.507 Goal=   None    Shift=    0.000
 RMSDP=1.49D-03 MaxDP=1.66D-02 DE=-4.14D-02 OVMax= 5.63D-02

 Cycle   5  Pass 1  IDiag  1:
 E= -524.029016321307     Delta-E=       -0.008590194574 Rises=F Damp=F
 DIIS: error= 5.24D-03 at cycle   5 NSaved=   5.
 NSaved= 5 IEnMin= 5 EnMin= -524.029016321307     IErMin= 5 ErrMin= 5.24D-03
 ErrMax= 5.24D-03  0.00D+00 EMaxC= 1.00D-01 BMatC= 8.10D-04 BMatP= 2.44D-03
 IDIUse=3 WtCom= 9.48D-01 WtEn= 5.24D-02
 Coeff-Com: -0.555D-01 0.841D-01-0.120D+00-0.942D-01 0.119D+01
 Coeff-En:   0.000D+00 0.000D+00 0.000D+00 0.000D+00 0.100D+01
 Coeff:     -0.526D-01 0.797D-01-0.113D+00-0.892D-01 0.118D+01
 Gap=     0.519 Goal=   None    Shift=    0.000
 RMSDP=1.14D-03 MaxDP=1.21D-02 DE=-8.59D-03 OVMax= 4.22D-02

 Cycle   6  Pass 1  IDiag  1:
 E= -524.033153783928     Delta-E=       -0.004137462621 Rises=F Damp=F
 DIIS: error= 3.87D-03 at cycle   6 NSaved=   6.
 NSaved= 6 IEnMin= 6 EnMin= -524.033153783928     IErMin= 6 ErrMin= 3.87D-03
 ErrMax= 3.87D-03  0.00D+00 EMaxC= 1.00D-01 BMatC= 3.16D-04 BMatP= 8.10D-04
 IDIUse=3 WtCom= 9.61D-01 WtEn= 3.87D-02
 Coeff-Com:  0.613D-01-0.747D-01-0.305D-02-0.373D+00 0.766D-01 0.131D+01
 Coeff-En:   0.000D+00 0.000D+00 0.000D+00 0.000D+00 0.000D+00 0.100D+01
 Coeff:      0.589D-01-0.718D-01-0.294D-02-0.358D+00 0.736D-01 0.130D+01
 Gap=     0.529 Goal=   None    Shift=    0.000
 RMSDP=1.07D-03 MaxDP=1.24D-02 DE=-4.14D-03 OVMax= 3.86D-02

 Cycle   7  Pass 1  IDiag  1:
 E= -524.035196033686     Delta-E=       -0.002042249758 Rises=F Damp=F
 DIIS: error= 1.30D-03 at cycle   7 NSaved=   7.
 NSaved= 7 IEnMin= 7 EnMin= -524.035196033686     IErMin= 7 ErrMin= 1.30D-03
 ErrMax= 1.30D-03  0.00D+00 EMaxC= 1.00D-01 BMatC= 5.23D-05 BMatP= 3.16D-04
 IDIUse=3 WtCom= 9.87D-01 WtEn= 1.30D-02
 Coeff-Com:  0.794D-02-0.102D-01 0.329D-01 0.101D+00-0.292D+00-0.213D+00
 Coeff-Com:  0.137D+01
 Coeff-En:   0.000D+00 0.000D+00 0.000D+00 0.000D+00 0.000D+00 0.000D+00
 Coeff-En:   0.100D+01
 Coeff:      0.784D-02-0.101D-01 0.324D-01 0.997D-01-0.288D+00-0.210D+00
 Coeff:      0.137D+01
 Gap=     0.533 Goal=   None    Shift=    0.000
 RMSDP=4.29D-04 MaxDP=5.62D-03 DE=-2.04D-03 OVMax= 1.34D-02

 Cycle   8  Pass 1  IDiag  1:
 E= -524.035472926324     Delta-E=       -0.000276892637 Rises=F Damp=F
 DIIS: error= 4.61D-04 at cycle   8 NSaved=   8.
 NSaved= 8 IEnMin= 8 EnMin= -524.035472926324     IErMin= 8 ErrMin= 4.61D-04
 ErrMax= 4.61D-04  0.00D+00 EMaxC= 1.00D-01 BMatC= 7.13D-06 BMatP= 5.23D-05
 IDIUse=3 WtCom= 9.95D-01 WtEn= 4.61D-03
 Coeff-Com: -0.368D-02 0.425D-02 0.816D-02 0.500D-01-0.989D-01-0.144D+00
 Coeff-Com:  0.338D+00 0.847D+00
 Coeff-En:   0.000D+00 0.000D+00 0.000D+00 0.000D+00 0.000D+00 0.000D+00
 Coeff-En:   0.000D+00 0.100D+01
 Coeff:     -0.366D-02 0.423D-02 0.812D-02 0.498D-01-0.984D-01-0.144D+00
 Coeff:      0.336D+00 0.847D+00
 Gap=     0.533 Goal=   None    Shift=    0.000
 RMSDP=1.06D-04 MaxDP=2.13D-03 DE=-2.77D-04 OVMax= 3.64D-03

 Cycle   9  Pass 1  IDiag  1:
 E= -524.035496503327     Delta-E=       -0.000023577003 Rises=F Damp=F
 DIIS: error= 1.88D-04 at cycle   9 NSaved=   9.
 NSaved= 9 IEnMin= 9 EnMin= -524.035496503327     IErMin= 9 ErrMin= 1.88D-04
 ErrMax= 1.88D-04  0.00D+00 EMaxC= 1.00D-01 BMatC= 2.01D-06 BMatP= 7.13D-06
 IDIUse=3 WtCom= 9.98D-01 WtEn= 1.88D-03
 Coeff-Com: -0.575D-02 0.828D-02-0.914D-02-0.236D-01 0.708D-01 0.646D-01
 Coeff-Com: -0.375D+00 0.523D-01 0.122D+01
 Coeff-En:   0.000D+00 0.000D+00 0.000D+00 0.000D+00 0.000D+00 0.000D+00
 Coeff-En:   0.000D+00 0.000D+00 0.100D+01
 Coeff:     -0.574D-02 0.827D-02-0.912D-02-0.235D-01 0.707D-01 0.645D-01
 Coeff:     -0.375D+00 0.522D-01 0.122D+01
 Gap=     0.534 Goal=   None    Shift=    0.000
 RMSDP=5.24D-05 MaxDP=6.67D-04 DE=-2.36D-05 OVMax= 1.15D-03

 Cycle  10  Pass 1  IDiag  1:
 E= -524.035500677372     Delta-E=       -0.000004174045 Rises=F Damp=F
 DIIS: error= 5.41D-05 at cycle  10 NSaved=  10.
 NSaved=10 IEnMin=10 EnMin= -524.035500677372     IErMin=10 ErrMin= 5.41D-05
 ErrMax= 5.41D-05  0.00D+00 EMaxC= 1.00D-01 BMatC= 6.28D-08 BMatP= 2.01D-06
 IDIUse=1 WtCom= 1.00D+00 WtEn= 0.00D+00
 Coeff-Com:  0.112D-02-0.156D-02 0.212D-03-0.195D-02 0.238D-03 0.130D-02
 Coeff-Com:  0.145D-01-0.544D-01-0.129D+00 0.117D+01
 Coeff:      0.112D-02-0.156D-02 0.212D-03-0.195D-02 0.238D-03 0.130D-02
 Coeff:      0.145D-01-0.544D-01-0.129D+00 0.117D+01
 Gap=     0.534 Goal=   None    Shift=    0.000
 RMSDP=1.25D-05 MaxDP=2.50D-04 DE=-4.17D-06 OVMax= 4.48D-04

 Cycle  11  Pass 1  IDiag  1:
 E= -524.035500921882     Delta-E=       -0.000000244510 Rises=F Damp=F
 DIIS: error= 1.40D-05 at cycle  11 NSaved=  11.
 NSaved=11 IEnMin=11 EnMin= -524.035500921882     IErMin=11 ErrMin= 1.40D-05
 ErrMax= 1.40D-05  0.00D+00 EMaxC= 1.00D-01 BMatC= 1.42D-08 BMatP= 6.28D-08
 IDIUse=1 WtCom= 1.00D+00 WtEn= 0.00D+00
 Coeff-Com:  0.381D-04-0.784D-04 0.380D-03 0.177D-02-0.581D-02-0.318D-02
 Coeff-Com:  0.313D-01-0.619D-02-0.147D+00 0.111D+00 0.102D+01
 Coeff:      0.381D-04-0.784D-04 0.380D-03 0.177D-02-0.581D-02-0.318D-02
 Coeff:      0.313D-01-0.619D-02-0.147D+00 0.111D+00 0.102D+01
 Gap=     0.534 Goal=   None    Shift=    0.000
 RMSDP=3.73D-06 MaxDP=4.15D-05 DE=-2.45D-07 OVMax= 4.59D-05

 Cycle  12  Pass 1  IDiag  1:
 E= -524.035500943119     Delta-E=       -0.000000021236 Rises=F Damp=F
 DIIS: error= 3.27D-06 at cycle  12 NSaved=  12.
 NSaved=12 IEnMin=12 EnMin= -524.035500943119     IErMin=12 ErrMin= 3.27D-06
 ErrMax= 3.27D-06  0.00D+00 EMaxC= 1.00D-01 BMatC= 6.29D-10 BMatP= 1.42D-08
 IDIUse=1 WtCom= 1.00D+00 WtEn= 0.00D+00
 Coeff-Com: -0.748D-04 0.988D-04 0.214D-04 0.195D-03-0.430D-03-0.223D-03
 Coeff-Com:  0.121D-02 0.126D-02 0.105D-02-0.322D-01-0.703D-01 0.110D+01
 Coeff:     -0.748D-04 0.988D-04 0.214D-04 0.195D-03-0.430D-03-0.223D-03
 Coeff:      0.121D-02 0.126D-02 0.105D-02-0.322D-01-0.703D-01 0.110D+01
 Gap=     0.534 Goal=   None    Shift=    0.000
 RMSDP=7.44D-07 MaxDP=7.25D-06 DE=-2.12D-08 OVMax= 1.12D-05

 Cycle  13  Pass 1  IDiag  1:
 E= -524.035500944284     Delta-E=       -0.000000001165 Rises=F Damp=F
 DIIS: error= 1.25D-06 at cycle  13 NSaved=  13.
 NSaved=13 IEnMin=13 EnMin= -524.035500944284     IErMin=13 ErrMin= 1.25D-06
 ErrMax= 1.25D-06  0.00D+00 EMaxC= 1.00D-01 BMatC= 1.08D-10 BMatP= 6.29D-10
 IDIUse=1 WtCom= 1.00D+00 WtEn= 0.00D+00
 Coeff-Com: -0.837D-07 0.267D-05-0.240D-04-0.215D-03 0.604D-03 0.327D-03
 Coeff-Com: -0.333D-02 0.123D-03 0.188D-01-0.116D-01-0.164D+00 0.212D+00
 Coeff-Com:  0.947D+00
 Coeff:     -0.837D-07 0.267D-05-0.240D-04-0.215D-03 0.604D-03 0.327D-03
 Coeff:     -0.333D-02 0.123D-03 0.188D-01-0.116D-01-0.164D+00 0.212D+00
 Coeff:      0.947D+00
 Gap=     0.534 Goal=   None    Shift=    0.000
 RMSDP=2.67D-07 MaxDP=2.84D-06 DE=-1.17D-09 OVMax= 4.51D-06

 Cycle  14  Pass 1  IDiag  1:
 E= -524.035500944452     Delta-E=       -0.000000000168 Rises=F Damp=F
 DIIS: error= 3.78D-07 at cycle  14 NSaved=  14.
 NSaved=14 IEnMin=14 EnMin= -524.035500944452     IErMin=14 ErrMin= 3.78D-07
 ErrMax= 3.78D-07  0.00D+00 EMaxC= 1.00D-01 BMatC= 7.00D-12 BMatP= 1.08D-10
 IDIUse=1 WtCom= 1.00D+00 WtEn= 0.00D+00
 Coeff-Com:  0.712D-05-0.988D-05-0.113D-05-0.145D-04 0.390D-04-0.368D-05
 Coeff-Com: -0.792D-04-0.200D-03-0.752D-04 0.293D-02 0.629D-02-0.103D+00
 Coeff-Com:  0.399D-02 0.109D+01
 Coeff:      0.712D-05-0.988D-05-0.113D-05-0.145D-04 0.390D-04-0.368D-05
 Coeff:     -0.792D-04-0.200D-03-0.752D-04 0.293D-02 0.629D-02-0.103D+00
 Coeff:      0.399D-02 0.109D+01
 Gap=     0.534 Goal=   None    Shift=    0.000
 RMSDP=8.78D-08 MaxDP=1.03D-06 DE=-1.68D-10 OVMax= 2.10D-06

 Cycle  15  Pass 1  IDiag  1:
 E= -524.035500944472     Delta-E=       -0.000000000020 Rises=F Damp=F
 DIIS: error= 1.08D-07 at cycle  15 NSaved=  15.
 NSaved=15 IEnMin=15 EnMin= -524.035500944472     IErMin=15 ErrMin= 1.08D-07
 ErrMax= 1.08D-07  0.00D+00 EMaxC= 1.00D-01 BMatC= 7.33D-13 BMatP= 7.00D-12
 IDIUse=1 WtCom= 1.00D+00 WtEn= 0.00D+00
 Coeff-Com: -0.246D-05 0.334D-05 0.173D-05 0.239D-04-0.584D-04-0.320D-04
 Coeff-Com:  0.295D-03 0.650D-04-0.175D-02 0.519D-03 0.162D-01-0.195D-01
 Coeff-Com: -0.951D-01 0.235D-02 0.110D+01
 Coeff:     -0.246D-05 0.334D-05 0.173D-05 0.239D-04-0.584D-04-0.320D-04
 Coeff:      0.295D-03 0.650D-04-0.175D-02 0.519D-03 0.162D-01-0.195D-01
 Coeff:     -0.951D-01 0.235D-02 0.110D+01
 Gap=     0.534 Goal=   None    Shift=    0.000
 RMSDP=2.81D-08 MaxDP=3.77D-07 DE=-2.02D-11 OVMax= 6.62D-07

 Cycle  16  Pass 1  IDiag  1:
 E= -524.035500944471     Delta-E=        0.000000000001 Rises=F Damp=F
 DIIS: error= 3.75D-08 at cycle  16 NSaved=  16.
 NSaved=16 IEnMin=15 EnMin= -524.035500944472     IErMin=16 ErrMin= 3.75D-08
 ErrMax= 3.75D-08  0.00D+00 EMaxC= 1.00D-01 BMatC= 7.46D-14 BMatP= 7.33D-13
 IDIUse=1 WtCom= 1.00D+00 WtEn= 0.00D+00
 Coeff-Com:  0.327D-08 0.448D-07-0.514D-06-0.887D-05 0.161D-04 0.131D-04
 Coeff-Com: -0.808D-04-0.344D-04 0.557D-03-0.115D-03-0.640D-02 0.133D-01
 Coeff-Com:  0.364D-01-0.879D-01-0.426D+00 0.147D+01
 Coeff:      0.327D-08 0.448D-07-0.514D-06-0.887D-05 0.161D-04 0.131D-04
 Coeff:     -0.808D-04-0.344D-04 0.557D-03-0.115D-03-0.640D-02 0.133D-01
 Coeff:      0.364D-01-0.879D-01-0.426D+00 0.147D+01
 Gap=     0.534 Goal=   None    Shift=    0.000
 RMSDP=1.08D-08 MaxDP=1.47D-07 DE= 1.14D-12 OVMax= 2.07D-07

 Cycle  17  Pass 1  IDiag  1:
 E= -524.035500944472     Delta-E=       -0.000000000000 Rises=F Damp=F
 DIIS: error= 6.84D-09 at cycle  17 NSaved=  17.
 NSaved=17 IEnMin=15 EnMin= -524.035500944472     IErMin=17 ErrMin= 6.84D-09
 ErrMax= 6.84D-09  0.00D+00 EMaxC= 1.00D-01 BMatC= 2.69D-15 BMatP= 7.46D-14
 IDIUse=1 WtCom= 1.00D+00 WtEn= 0.00D+00
 Large coefficients: NSaved= 17 BigCof=    0.00 CofMax=   10.00 Det=-4.71D-15
 Inversion failed.  Reducing to 16 matrices.
 Large coefficients: NSaved= 16 BigCof=    0.00 CofMax=   10.00 Det=-4.73D-15
 Inversion failed.  Reducing to 15 matrices.
 Coeff-Com:  0.128D-06 0.172D-05-0.155D-05-0.284D-05 0.468D-05 0.186D-04
 Coeff-Com: -0.566D-04-0.117D-03 0.116D-02-0.235D-02-0.564D-02 0.230D-01
 Coeff-Com:  0.558D-01-0.360D+00 0.129D+01
 Coeff:      0.128D-06 0.172D-05-0.155D-05-0.284D-05 0.468D-05 0.186D-04
 Coeff:     -0.566D-04-0.117D-03 0.116D-02-0.235D-02-0.564D-02 0.230D-01
 Coeff:      0.558D-01-0.360D+00 0.129D+01
 Gap=     0.534 Goal=   None    Shift=    0.000
 RMSDP=2.08D-09 MaxDP=2.77D-08 DE=-4.55D-13 OVMax= 3.70D-08

 SCF Done:  E(RHF) =  -524.035500944     A.U. after   17 cycles
            NFock= 17  Conv=0.21D-08     -V/T= 2.0007
 KE= 5.236596998078D+02 PE=-1.911769199803D+03 EE= 5.307208886833D+02
 Leave Link  502 at Sun May 25 03:40:59 2025, MaxMem=  3758096384 cpu:               0.6 elap:               0.1
 (Enter /apps/easybuild-2022/easybuild/software/Compiler/NVHPC/22.11-CUDA-11.7.0/Gaussian/g16c01-CUDA-11.7.0/g16/l508.exe)
 QCSCF skips out because SCF is already converged.
 Leave Link  508 at Sun May 25 03:40:59 2025, MaxMem=  3758096384 cpu:               0.1 elap:               0.0
[...]
      4 -0.249485D+00  0.116013D+00  0.568819D-01  0.215790D+00
      5  0.167647D+00 -0.292354D+00 -0.979821D-01 -0.218162D+00  0.376915D+00
      6  0.761506D-01 -0.950340D-01 -0.101007D+00 -0.940490D-01  0.139164D+00
      7 -0.238186D+00 -0.243164D-01 -0.514568D-02 -0.122680D-01  0.849653D-04
      8 -0.245765D-01 -0.603107D-01  0.710901D-02  0.278158D-01 -0.423831D-02
      9 -0.445207D-02  0.720786D-02 -0.750622D-01  0.134132D-01 -0.310641D-02
     10 -0.189955D-01  0.235842D-01  0.333658D-01 -0.769253D-02 -0.276401D-02
     11  0.327699D-02 -0.255014D-02 -0.116515D-01  0.927941D-03  0.401060D-02
     12  0.861364D-02 -0.146079D-01 -0.664397D-02  0.276871D-02  0.350522D-02
     13 -0.165501D-01  0.115107D-01 -0.393711D-01 -0.128975D-02 -0.284664D-02
     14  0.817167D-03  0.526972D-02  0.290431D-02 -0.629322D-03  0.119292D-02
     15 -0.108489D-01  0.697161D-02 -0.164783D-01 -0.201848D-02 -0.861174D-03
     16 -0.839318D-02 -0.376867D-01  0.679966D-02  0.684846D-04 -0.151973D-02
     17 -0.603698D-02 -0.289418D-01  0.365898D-02  0.139104D-02  0.430079D-02
     18  0.129917D-02  0.230125D-02  0.914510D-02  0.321996D-03  0.515254D-04
     19 -0.176108D+00 -0.838734D-01 -0.216874D-01  0.852934D-01  0.634312D-01
     20 -0.135723D+00 -0.371549D+00 -0.102159D+00 -0.107956D-01 -0.928990D-01
     21 -0.403826D-01 -0.105026D+00 -0.951908D-01 -0.697486D-02 -0.555977D-01
     22 -0.991959D-01 -0.341715D-01 -0.320978D-02 -0.304162D-01 -0.587085D-02
     23 -0.343452D-01  0.127892D+00  0.428835D-01  0.834395D-01  0.307139D-02
     24 -0.274634D-02  0.429495D-01  0.332489D-01  0.296565D-01  0.148263D-01
                6             7             8             9            10 
      6  0.104735D+00
      7  0.139976D-02  0.596602D+00
      8 -0.327630D-02  0.124530D-01  0.521497D+00
      9  0.280878D-02 -0.544633D-02  0.103480D-01  0.493924D+00
     10 -0.548674D-03 -0.131215D+00  0.502350D-01  0.720692D-01  0.127052D+00
     11  0.107424D-02  0.571647D-01 -0.119477D+00 -0.728453D-01 -0.755389D-01
     12  0.829799D-03  0.760433D-01 -0.710163D-01 -0.161031D+00 -0.993420D-01
     13 -0.958741D-04 -0.114247D+00  0.226173D-01 -0.793869D-01  0.165964D-01
     14  0.229601D-03  0.219910D-01 -0.766324D-01  0.417035D-01 -0.317261D-02
     15  0.555392D-03 -0.777158D-01  0.419416D-01 -0.205560D+00 -0.427569D-02
     16 -0.501777D-03 -0.953895D-01 -0.588092D-01  0.100496D-01  0.139043D-01
     17 -0.158731D-03 -0.667970D-01 -0.247261D+00  0.274652D-01  0.411734D-02
     18  0.498215D-04  0.889583D-02  0.260385D-01 -0.690729D-01 -0.900488D-03
     19  0.199710D-01 -0.386875D-02 -0.293372D-01 -0.811743D-02  0.274934D-03
     20 -0.494298D-01 -0.545334D-03 -0.120690D-01 -0.530088D-02  0.735412D-03
     21  0.262192D-01  0.106687D-02 -0.553450D-02  0.223976D-02 -0.911536D-04
     22 -0.232602D-02 -0.142803D-02 -0.398183D-03  0.187073D-02  0.751651D-04
     23  0.743053D-02 -0.348974D-04 -0.150802D-02 -0.547188D-02  0.280351D-02
     24 -0.341908D-01  0.902007D-03 -0.561002D-02  0.117541D-01 -0.277092D-03
               11            12            13            14            15 
     11  0.156320D+00
     12  0.117970D+00  0.219248D+00
     13 -0.119902D-02  0.114647D-01  0.102634D+00
     14  0.109121D-01 -0.192409D-01 -0.327554D-01  0.867883D-01
     15 -0.410746D-02 -0.580491D-01  0.101822D+00 -0.715645D-01  0.294235D+00
     16  0.167327D-01  0.150254D-02  0.146942D-01  0.124480D-01 -0.500763D-02
     17 -0.494022D-01 -0.161241D-01  0.217937D-02 -0.287807D-01  0.272125D-01
     18 -0.324402D-01  0.488795D-02  0.137684D-02  0.455009D-01 -0.164542D-01
     19 -0.202184D-02 -0.132386D-02 -0.215005D-02  0.109372D-02 -0.158791D-02
     20  0.227321D-02  0.186082D-02  0.143199D-02  0.143515D-02  0.742337D-03
     21  0.212939D-02  0.187083D-02  0.150152D-02  0.366474D-03  0.117401D-02
     22  0.657440D-03  0.272915D-03  0.312046D-03  0.207433D-03 -0.367258D-03
     23 -0.208709D-02 -0.234719D-02 -0.938254D-03 -0.185114D-03 -0.334919D-03
     24 -0.129411D-03 -0.111268D-02  0.268917D-02  0.100666D-03  0.577260D-03
               16            17            18            19            20 
     16  0.814654D-01
     17  0.705414D-01  0.349317D+00
     18 -0.113808D-01 -0.424369D-01  0.718401D-01
     19 -0.704844D-02 -0.576531D-02  0.705615D-03  0.110711D+00
     20 -0.600775D-03  0.408925D-02  0.404999D-03  0.142134D+00  0.490934D+00
     21  0.951867D-04  0.227568D-02  0.107163D-03  0.457631D-01  0.148612D+00
     22  0.698738D-03  0.370104D-03 -0.318191D-03 -0.710417D-02  0.336352D-02
     23 -0.110565D-02 -0.332057D-02  0.579994D-03 -0.856610D-01 -0.222147D-01
     24 -0.155683D-02 -0.189258D-02 -0.503071D-03 -0.337232D-01  0.526980D-02
               21            22            23            24 
     21  0.957964D-01
     22 -0.978129D-03  0.137058D+00
     23  0.127743D-01  0.358421D-01 -0.101648D+00
     24 -0.322166D-01  0.505574D-02 -0.555143D-01  0.224429D-01
 Red2BG is reusing G-inverse.
 Force constants in internal coordinates: 
                1             2             3             4             5 
      1  0.574875D+00
      2  0.682042D-02  0.320977D+00
      3  0.113195D+00  0.697886D-02  0.429433D+00
      4 -0.580939D-03  0.176553D-01 -0.179288D-02  0.373124D+00
      5  0.297391D-04  0.199559D-01  0.254327D-03  0.350986D-01  0.360794D+00
      6  0.164114D-02  0.176551D-01  0.276049D-02  0.357098D-01  0.350987D-01
      7 -0.487456D-01  0.173859D-03  0.170891D+00  0.312796D-02  0.244479D-03
      8 -0.521361D-01  0.136076D-01 -0.130249D-02  0.124684D-01  0.232228D-02
      9  0.145518D+00 -0.272090D-01 -0.597576D-01 -0.839065D-02 -0.462634D-02
     10 -0.934593D-01  0.135570D-01  0.611302D-01 -0.402694D-02  0.221976D-02
     11  0.884078D-02  0.220473D-01 -0.671291D-02  0.238642D-01 -0.244182D-01
     12 -0.250357D-02  0.130803D-01 -0.262491D-02 -0.245716D-01  0.243780D-01
     13 -0.489680D-02  0.220483D-01  0.981200D-02 -0.247967D-01 -0.244183D-01
     14 -0.491743D-03 -0.183143D-01  0.146807D-02  0.144335D-01  0.147025D-01
     15 -0.174447D-02 -0.227619D-01 -0.121724D-02  0.151579D-01 -0.353499D-02
     16  0.732541D-03 -0.183147D-01 -0.752109D-03 -0.333994D-02  0.147025D-01
     17  0.767199D-01  0.579246D-03 -0.122184D+00 -0.695417D-02  0.818720D-03
     18 -0.227913D-02  0.131848D-02  0.150484D-02  0.693923D-03 -0.175427D-01
     19  0.108859D-02  0.938041D-03 -0.261165D-02  0.178877D-01  0.101790D-02
     20 -0.271494D-02  0.557860D-03  0.968636D-03 -0.178138D-01  0.195786D-01
     21  0.701552D-03 -0.557770D-03  0.113459D-02  0.155938D-02 -0.195788D-01
     22  0.406927D-02 -0.938205D-03 -0.298190D-02  0.187531D-01 -0.101811D-02
     23  0.265739D-03 -0.131839D-02  0.598388D-03 -0.169483D-01  0.175426D-01
     24 -0.168345D-02  0.783548D-03  0.104613D-02 -0.192627D-03  0.116683D-02
     25  0.715630D-03  0.137530D-02  0.120303D-03 -0.160224D-02  0.280359D-02
                6             7             8             9            10 
      6  0.373125D+00
      7 -0.322463D-02 -0.208139D-01
      8 -0.822094D-02 -0.494181D-01  0.131374D+00
      9 -0.107340D-03  0.118614D+00 -0.908702D-01  0.155893D+00
     10  0.838059D-02 -0.692635D-01 -0.404372D-01 -0.651446D-01  0.105680D+00
     11 -0.247967D-01  0.843980D-03  0.865640D-02 -0.873969D-02  0.159142D-03
     12 -0.245716D-01 -0.167139D-03  0.133611D-02 -0.252984D-02  0.995408D-03
     13  0.238641D-01 -0.176863D-02 -0.168617D-02 -0.533411D-02  0.709742D-02
     14 -0.333990D-02 -0.195932D-03 -0.463211D-02  0.576520D-02 -0.110406D-02
     15  0.151579D-01  0.590850D-03 -0.346224D-02  0.693951D-02 -0.348886D-02
     16  0.144336D-01  0.737554D-03 -0.536435D-03  0.454841D-02 -0.398356D-02
     17  0.662010D-02  0.348784D+00  0.569885D-01 -0.156219D+00  0.993561D-01
     18  0.167977D-01 -0.114257D-02  0.202452D-02 -0.143312D-02 -0.102347D-02
     19 -0.189036D-01 -0.959959D-03  0.260485D-02 -0.142750D-02 -0.165330D-02
     20 -0.170992D-02 -0.126993D-02  0.173294D-02 -0.779791D-03 -0.147293D-02
     21  0.179644D-01  0.118573D-02  0.568224D-03  0.890170D-03 -0.939569D-03
     22 -0.177369D-01  0.136833D-02  0.114856D-02  0.895786D-03 -0.156940D-02
     23 -0.543210D-03  0.105836D-02  0.276642D-03  0.154350D-02 -0.138902D-02
     24 -0.555603D-03 -0.161043D-02  0.415859D-02 -0.207732D-02 -0.839399D-03
     25 -0.130396D-02  0.686659D-03 -0.128432D-02  0.254069D-02 -0.870489D-03
               11            12            13            14            15 
     11  0.187814D+00
     12 -0.206853D-02  0.166783D+00
     13 -0.127234D-01 -0.206970D-02  0.187816D+00
     14 -0.819373D-01 -0.767310D-01 -0.151312D-01  0.123689D+00
     15 -0.828155D-01 -0.150833D-01 -0.828161D-01  0.297434D-01  0.127625D+00
     16 -0.151313D-01 -0.767311D-01 -0.819378D-01  0.273651D-01  0.297437D-01
     17 -0.433462D-02 -0.468765D-03  0.124791D-02  0.187327D-02  0.193646D-02
     18 -0.227305D-02 -0.864303D-02  0.133592D-01 -0.269713D-01  0.251734D-01
     19  0.133602D-01  0.225943D-02 -0.148435D-01  0.254662D-01  0.170493D-04
     20 -0.148419D-01  0.131616D-01  0.789893D-03  0.403748D-03 -0.251396D-01
     21 -0.859643D-03 -0.131617D-01  0.149119D-01 -0.261349D-01  0.251395D-01
     22  0.147736D-01 -0.225921D-02 -0.132908D-01  0.263026D-01 -0.168749D-04
     23 -0.134284D-01  0.864294D-02  0.234261D-02  0.124015D-02 -0.251735D-01
     24 -0.225860D-02  0.543826D-02 -0.243377D-02 -0.620168D-03  0.432736D-03
     25 -0.402797D-02  0.937812D-02 -0.387852D-02 -0.107486D-02  0.740080D-03
               16            17            18            19            20 
     16  0.123690D+00
     17 -0.121285D-03  0.248937D+00
     18 -0.121362D-02  0.140899D-02  0.316002D-01
     19 -0.262758D-01  0.692768D-03 -0.895370D-02  0.326257D-01
     20  0.261614D-01  0.102918D-02 -0.758604D-02 -0.798324D-02  0.335409D-01
     21 -0.430435D-03 -0.849222D-03  0.218880D-01 -0.196473D-01 -0.192390D-01
     22 -0.254926D-01 -0.156544D-02 -0.186659D-01  0.219321D-01 -0.196362D-01
     23  0.269446D-01 -0.122903D-02 -0.172982D-01 -0.186768D-01  0.218879D-01
     24 -0.551748D-03  0.306806D-02 -0.151368D-01 -0.138280D-01 -0.125449D-01
     25 -0.113385D-02 -0.387019D-03 -0.655051D-02 -0.438441D-02 -0.219707D-02
               21            22            23            24            25 
     21  0.335232D-01
     22 -0.801209D-02  0.325859D-01
     23 -0.760384D-02 -0.898242D-02  0.315823D-01
     24  0.125770D-01  0.138858D-01  0.151689D-01  0.892747D-01
     25  0.216408D-02  0.433018D-02  0.651752D-02  0.642788D-01  0.565825D-01
 Leave Link  716 at Sun May 25 03:41:52 2025, MaxMem=  3758096384 cpu:               0.1 elap:               0.0
 (Enter /apps/easybuild-2022/easybuild/software/Compiler/NVHPC/22.11-CUDA-11.7.0/Gaussian/g16c01-CUDA-11.7.0/g16/l9999.exe)

 ----------------------------------------------------------------------

 Electric dipole moment (input orientation):
 (Debye = 10**-18 statcoulomb cm , SI units = C m)
                  (au)            (Debye)         (10**-30 SI)
   Tot        0.488251D+00      0.124101D+01      0.413956D+01
   x          0.483951D+00      0.123008D+01      0.410311D+01
   y          0.597128D-01      0.151775D+00      0.506266D+00
   z          0.247942D-01      0.630205D-01      0.210214D+00

 Dipole polarizability, Alpha (input orientation).
 (esu units = cm**3 , SI units = C**2 m**2 J**-1)
 Alpha(0;0):
               (au)            (10**-24 esu)      (10**-40 SI)
   iso        0.277692D+02      0.411496D+01      0.457852D+01
   aniso      0.143639D+02      0.212851D+01      0.236829D+01
   xx         0.310260D+02      0.459758D+01      0.511549D+01
   yx        -0.424279D-01     -0.628716D-02     -0.699541D-02
   yy         0.320493D+02      0.474921D+01      0.528421D+01
   zx        -0.990408D+00     -0.146763D+00     -0.163296D+00
   zy         0.499249D+01      0.739811D+00      0.823150D+00
   zz         0.202322D+02      0.299810D+01      0.333584D+01

 ----------------------------------------------------------------------

 Dipole orientation:
     6          0.08680911          0.08557822          2.78178941
     8          1.14151326         -1.68170044          4.16074189
     6         -0.02398576          0.02806061         -0.06652271
     9         -2.12481166          1.34348409         -0.95092096
     9          2.14782855          1.15499922         -1.07121799
     9         -0.15794467         -2.44699714         -0.95089020
     8         -0.75081688          1.96552484          4.16069051
     1          0.31303198          0.20299448          5.81692226

 Electric dipole moment (dipole orientation):
 (Debye = 10**-18 statcoulomb cm , SI units = C m)
                  (au)            (Debye)         (10**-30 SI)
   Tot        0.488251D+00      0.124101D+01      0.413956D+01
   x          0.000000D+00      0.000000D+00      0.000000D+00
   y          0.000000D+00      0.000000D+00      0.000000D+00
   z          0.488251D+00      0.124101D+01      0.413956D+01

 Dipole polarizability, Alpha (dipole orientation).
 (esu units = cm**3 , SI units = C**2 m**2 J**-1)
 Alpha(0;0):
               (au)            (10**-24 esu)      (10**-40 SI)
   iso        0.277692D+02      0.411496D+01      0.457852D+01
   aniso      0.143639D+02      0.212851D+01      0.236829D+01
   xx         0.217051D+02      0.321637D+01      0.357869D+01
   yx        -0.634113D+01     -0.939658D+00     -0.104551D+01
   yy         0.306368D+02      0.453991D+01      0.505133D+01
   zx         0.868697D+00      0.128728D+00      0.143229D+00
   zy         0.450653D+00      0.667799D-01      0.743027D-01
   zz         0.309655D+02      0.458861D+01      0.510552D+01

 ----------------------------------------------------------------------
 Unable to Open any file for archive entry.
 1\1\GINC-SPARTAN-BM156\Freq\RMP2-FC\6-31G\C2H1F3O2\AKHALILOV\25-May-20
 25\0\\#P mp2/6-31G Symm(None) scf(xqc) pop(None) guess(Mix,Always) opt
 (NoFreeze,TS,CalcAll,NoEigentest,MaxCycle=999)\\Gaussian input prepare
 d by ASE\\0,1\C,1.4568578114,0.2193738623,0.0236822828\O,2.3243174858,
 -0.6776622128,-0.3780971727\C,-0.0374305589,0.0117967329,0.0089772786\
 F,-0.6538951067,0.7689951129,1.0019983369\F,-0.558486358,0.4020515788,
 -1.2301079176\F,-0.3548078407,-1.3283607521,0.2156567245\O,2.036529327
 2,1.3404132833,0.3784192969\H,3.0494514079,0.4632408404,-0.02101283\\V
 ersion=ES64L-G16RevC.01\HF=-524.0431786\MP2=-524.8824485\RMSD=3.819e-0
 9\RMSF=2.480e-07\ZeroPoint=0.0326192\Thermal=0.0388211\ETot=-524.84362
 74\HTot=-524.8426832\GTot=-524.8817973\Dipole=0.4839512,0.0597128,0.02
 47942\DipoleDeriv=0.4982026,-0.0622244,-0.0376611,-0.0563955,0.909589,
 0.3092331,-0.0532152,0.3070152,0.1943201,-0.4821367,0.2526485,0.095668
 9,-0.020794,-0.6549601,-0.1252811,0.0132573,-0.1679696,-0.350797,1.567
 2511,0.0214846,-0.0192678,0.0157971,1.4927826,-0.0620846,-0.0040978,-0
 .0599212,1.6255422,-0.4952093,0.0903404,0.1441054,0.066502,-0.4039051,
 -0.1282508,0.1018738,-0.1344722,-0.5112401,-0.4916386,0.0263174,-0.138
 2224,0.0142839,-0.3460429,0.0941175,-0.1061207,0.0986946,-0.6164028,-0
 .436733,-0.1324685,0.0199581,-0.08655,-0.6437351,0.066626,0.0033033,0.
 0644506,-0.3298844,-0.4334435,-0.182863,-0.0645919,0.0815308,-0.713022
 7,-0.1680799,0.0419492,-0.1219505,-0.3414308,0.2737074,-0.013235,0.000
 0108,-0.0143744,0.3592942,0.0137197,0.0030501,0.0141531,0.3298928\Pola
 r=31.025983,-0.0424279,32.0492883,-0.9904083,4.9924904,20.2321959\PG=U
 nknown\NImag=1\\0.80691409,0.02894053,0.62254353,-0.02763353,0.1552372
 6,0.25198880,-0.24948533,0.11601266,0.05688192,0.21578997,0.16764704,-
 0.29235378,-0.09798212,-0.21816194,0.37691541,0.07615059,-0.09503397,-
 0.10100749,-0.09404902,0.13916442,0.10473532,-0.23818617,-0.02431642,-
 0.00514568,-0.01226805,0.00008497,0.00139976,0.59660204,-0.02457646,-0
 .06031073,0.00710901,0.02781580,-0.00423831,-0.00327630,0.01245297,0.5
 2149658,-0.00445207,0.00720786,-0.07506223,0.01341321,-0.00310641,0.00
 280878,-0.00544633,0.01034798,0.49392373,-0.01899548,0.02358424,0.0333
 6584,-0.00769253,-0.00276401,-0.00054867,-0.13121493,0.05023498,0.0720
 6922,0.12705213,0.00327699,-0.00255014,-0.01165154,0.00092794,0.004010
 60,0.00107424,0.05716471,-0.11947669,-0.07284527,-0.07553887,0.1563202
 2,0.00861364,-0.01460788,-0.00664397,0.00276871,0.00350522,0.00082980,
 0.07604335,-0.07101628,-0.16103086,-0.09934195,0.11797027,0.21924803,-
 0.01655011,0.01151065,-0.03937105,-0.00128975,-0.00284664,-0.00009587,
 -0.11424661,0.02261726,-0.07938694,0.01659642,-0.00119902,0.01146465,0
 .10263385,0.00081717,0.00526972,0.00290431,-0.00062932,0.00119292,0.00
 022960,0.02199101,-0.07663240,0.04170346,-0.00317261,0.01091206,-0.019
 24087,-0.03275536,0.08678832,-0.01084890,0.00697161,-0.01647829,-0.002
 01848,-0.00086117,0.00055539,-0.07771581,0.04194161,-0.20556042,-0.004
 27569,-0.00410746,-0.05804909,0.10182168,-0.07156451,0.29423529,-0.008
 39318,-0.03768671,0.00679966,0.00006848,-0.00151973,-0.00050178,-0.095
 38951,-0.05880920,0.01004961,0.01390429,0.01673266,0.00150254,0.014694
 20,0.01244797,-0.00500763,0.08146542,-0.00603698,-0.02894184,0.0036589
 8,0.00139104,0.00430079,-0.00015873,-0.06679701,-0.24726146,0.02746515
 ,0.00411734,-0.04940217,-0.01612408,0.00217937,-0.02878066,0.02721250,
 0.07054145,0.34931667,0.00129917,0.00230125,0.00914510,0.00032200,0.00
 005153,0.00004982,0.00889583,0.02603850,-0.06907286,-0.00090049,-0.032
 44022,0.00488795,0.00137684,0.04550087,-0.01645415,-0.01138077,-0.0424
 3691,0.07184005,-0.17610787,-0.08387342,-0.02168737,0.08529337,0.06343
 117,0.01997101,-0.00386875,-0.02933718,-0.00811743,0.00027493,-0.00202
 184,-0.00132386,-0.00215005,0.00109372,-0.00158791,-0.00704844,-0.0057
 6531,0.00070562,0.11071098,-0.13572308,-0.37154860,-0.10215938,-0.0107
 9563,-0.09289903,-0.04942978,-0.00054533,-0.01206897,-0.00530088,0.000
 73541,0.00227321,0.00186082,0.00143199,0.00143515,0.00074234,-0.000600
 77,0.00408925,0.00040500,0.14213389,0.49093364,-0.04038256,-0.10502567
 ,-0.09519076,-0.00697486,-0.05559774,0.02621920,0.00106687,-0.00553450
 ,0.00223976,-0.00009115,0.00212939,0.00187083,0.00150152,0.00036647,0.
 00117401,0.00009519,0.00227568,0.00010716,0.04576311,0.14861208,0.0957
 9636,-0.09919595,-0.03417153,-0.00320978,-0.03041617,-0.00587085,-0.00
 232602,-0.00142803,-0.00039818,0.00187073,0.00007517,0.00065744,0.0002
 7292,0.00031205,0.00020743,-0.00036726,0.00069874,0.00037010,-0.000318
 19,-0.00710417,0.00336352,-0.00097813,0.13705838,-0.03434521,0.1278918
 4,0.04288348,0.08343946,0.00307139,0.00743053,-0.00003490,-0.00150802,
 -0.00547188,0.00280351,-0.00208709,-0.00234719,-0.00093825,-0.00018511
 ,-0.00033492,-0.00110565,-0.00332057,0.00057999,-0.08566103,-0.0222146
 5,0.01277428,0.03584207,-0.10164779,-0.00274634,0.04294955,0.03324885,
 0.02965651,0.01482629,-0.03419082,0.00090201,-0.00561002,0.01175409,-0
 .00027709,-0.00012941,-0.00111268,0.00268917,0.00010067,0.00057726,-0.
 00155683,-0.00189258,-0.00050307,-0.03372317,0.00526980,-0.03221656,0.
 00505574,-0.05551430,0.02244294\\0.00000003,-0.00000038,0.00000102,0.,
 0.00000010,-0.00000024,0.00000003,0.,0.,0.00000005,-0.00000009,-0.0000
 0010,-0.00000011,0.00000009,-0.00000026,0.,0.00000014,-0.00000002,0.,0
 .00000010,-0.00000027,-0.00000002,0.00000005,-0.00000014\\\@
 The archive entry for this job was punched.


 IF YOU WISH TO UNDERSTAND THE FRAGRANCE OF THE ROSE, 
 OR THE TENACITY OF THE OAK; 
 IF YOU ARE NOT SATISFIED UNTIL YOU KNOW THE SECRET PATHS 
 BY WHICH THE SUNSHINE AND THE AIR ACHIEVE THESE WONDERS; 
 IF YOU WISH TO SEE THE PATTERN WHICH UNDERLIES ONE LARGE FIELD OF 
 HUMAN EXPERIENCE AND HUMAN MEASUREMENT, THEN TAKE UP CHEMISTRY.

                                         -- C. A. COULSON, 1973.
 Job cpu time:       0 days  0 hours  4 minutes 44.0 seconds.
 Elapsed time:       0 days  0 hours  0 minutes 60.0 seconds.
 File lengths (MBytes):  RWF=    208 Int=      0 D2E=      0 Chk=      2 Scr=      1
 Normal termination of Gaussian 16 at Sun May 25 03:41:52 2025.
done
