1
energy = -0.502802833946
H 2.06698600 1.95727300 0.87083200
