6
energy = -475.503908
C -1.93026300 -0.46741800 -0.00952500
C -1.69523600 0.65231300 -0.66614300
F -1.60329000 0.71730500 -1.97427000
F -1.52969200 1.81414000 -0.07742700
F -2.02220900 -0.53241000 1.29860300
F -2.09580700 -1.62924500 -0.59824000
