6
energy = -724.212680548
S 1.67733400 -0.04081300 0.05623600
O 1.84965200 -0.69326200 1.30215800
O 2.13048700 -0.54410100 -1.19808000
O 2.14319900 1.46380500 0.24119300
F 0.11178600 0.22081800 -0.11870100
H 2.21944400 1.90454600 -0.61518800
6
energy = -724.212682692
S 1.54809200 0.01221700 0.01523900
O 2.04949300 -0.52970900 1.22465000
O 1.94254100 -0.40250000 -1.29036300
O 1.62972700 1.59159400 0.13416800
F -0.04064500 -0.14219000 0.06044200
H 1.47281800 2.00627600 -0.72425500
6
energy = -724.212681152
S 1.59676700 0.00001100 -0.00002600
O 1.98614800 -0.55294700 1.25484800
O 2.00914000 -0.48820300 -1.26465300
O 1.82708200 1.56911400 -0.00003200
F -0.00006500 -0.00018700 -0.00010200
H 1.73562400 1.92672900 0.89284000
