7
energy = -575.346591848
C -0.73290900 0.27824800 1.33349600
C -0.14198000 -0.08452500 -0.01808000
F -0.46309900 -1.28565400 -0.44784300
F -0.30548000 0.83198900 -0.94750700
F -0.41152100 -0.65142400 2.22882900
F -0.25553300 1.45408600 1.73189900
F -2.06972600 0.36610200 1.28620100
