 Entering Gaussian System, Link 0=g16
 Initial command:
 /apps/easybuild-2022/easybuild/software/Compiler/NVHPC/22.11-CUDA-11.7.0/Gaussian/g16c01-CUDA-11.7.0/g16/l1.exe "/tmp/Gau-89207.inp" -scrdir="/tmp/"
 Entering Link 1 = /apps/easybuild-2022/easybuild/software/Compiler/NVHPC/22.11-CUDA-11.7.0/Gaussian/g16c01-CUDA-11.7.0/g16/l1.exe PID=     89210.
  
 Copyright (c) 1988-2019, Gaussian, Inc.  All Rights Reserved.
  
 This is part of the Gaussian(R) 16 program.  It is based on
 the Gaussian(R) 09 system (copyright 2009, Gaussian, Inc.),
 the Gaussian(R) 03 system (copyright 2003, Gaussian, Inc.),
 the Gaussian(R) 98 system (copyright 1998, Gaussian, Inc.),
 the Gaussian(R) 94 system (copyright 1995, Gaussian, Inc.),
 the Gaussian 92(TM) system (copyright 1992, Gaussian, Inc.),
 the Gaussian 90(TM) system (copyright 1990, Gaussian, Inc.),
 the Gaussian 88(TM) system (copyright 1988, Gaussian, Inc.),
 the Gaussian 86(TM) system (copyright 1986, Carnegie Mellon
 University), and the Gaussian 82(TM) system (copyright 1983,
 Carnegie Mellon University). Gaussian is a federally registered
 trademark of Gaussian, Inc.
  
 This software contains proprietary and confidential information,
 including trade secrets, belonging to Gaussian, Inc.
  
 This software is provided under written license and may be
 used, copied, transmitted, or stored only in accord with that
 written license.
  
 The following legend is applicable only to US Government
 contracts under FAR:
  
                    RESTRICTED RIGHTS LEGEND
  
 Use, reproduction and disclosure by the US Government is
 subject to restrictions as set forth in subparagraphs (a)
 and (c) of the Commercial Computer Software - Restricted
 Rights clause in FAR 52.227-19.
  
 Gaussian, Inc.
 340 Quinnipiac St., Bldg. 40, Wallingford CT 06492
  
  
 ---------------------------------------------------------------
 Warning -- This program may not be used in any manner that
 competes with the business of Gaussian, Inc. or will provide
 assistance to any competitor of Gaussian, Inc.  The licensee
 of this program is prohibited from giving any competitor of
 Gaussian, Inc. access to this program.  By using this program,
 the user acknowledges that Gaussian, Inc. is engaged in the
 business of creating and licensing software in the field of
 computational chemistry and represents and warrants to the
 licensee that it is not a competitor of Gaussian, Inc. and that
 it will not use this program in any manner prohibited above.
 ---------------------------------------------------------------
  

 Cite this work as:
 Gaussian 16, Revision C.01,
 M. J. Frisch, G. W. Trucks, H. B. Schlegel, G. E. Scuseria, 
 M. A. Robb, J. R. Cheeseman, G. Scalmani, V. Barone, 
 G. A. Petersson, H. Nakatsuji, X. Li, M. Caricato, A. V. Marenich, 
 J. Bloino, B. G. Janesko, R. Gomperts, B. Mennucci, H. P. Hratchian, 
 J. V. Ortiz, A. F. Izmaylov, J. L. Sonnenberg, D. Williams-Young, 
 F. Ding, F. Lipparini, F. Egidi, J. Goings, B. Peng, A. Petrone, 
 T. Henderson, D. Ranasinghe, V. G. Zakrzewski, J. Gao, N. Rega, 
 G. Zheng, W. Liang, M. Hada, M. Ehara, K. Toyota, R. Fukuda, 
 J. Hasegawa, M. Ishida, T. Nakajima, Y. Honda, O. Kitao, H. Nakai, 
 T. Vreven, K. Throssell, J. A. Montgomery, Jr., J. E. Peralta, 
 F. Ogliaro, M. J. Bearpark, J. J. Heyd, E. N. Brothers, K. N. Kudin, 
 V. N. Staroverov, T. A. Keith, R. Kobayashi, J. Normand, 
 K. Raghavachari, A. P. Rendell, J. C. Burant, S. S. Iyengar, 
 J. Tomasi, M. Cossi, J. M. Millam, M. Klene, C. Adamo, R. Cammi, 
 J. W. Ochterski, R. L. Martin, K. Morokuma, O. Farkas, 
 J. B. Foresman, and D. J. Fox, Gaussian, Inc., Wallingford CT, 2019.
 
 ******************************************
 Gaussian 16:  ES64L-G16RevC.01  3-Jul-2019
                23-May-2025 
 ******************************************
 %mem=28GB
 %nprocshared=8
 Will use up to    8 processors via shared memory.
 ----------------------------------------------------------------------
 #P wb97xd/6-311++G(d,p) Symm(None) scf(xqc) pop(None) freq opt(CalcFC,
  Tight)
 ----------------------------------------------------------------------
 1/7=10,10=4,18=20,19=15,26=3,38=1/1,3;
 2/9=110,12=2,15=3,17=6,18=5,40=1/2;
 3/5=4,6=6,7=1111,11=2,25=1,30=1,71=2,74=-58,140=1/1,2,3;
 4//1;
 5/5=2,8=3,13=1,38=5/2,8;
 8/6=4,10=90,11=11/1;
 11/6=1,8=1,9=11,15=111,16=1,31=1/1,2,10;
 10/6=1,13=1,31=1/2;
 7/10=1,25=1,30=1/1,2,3,16;
 1/7=10,10=4,18=20,19=15,26=3/3(2);
 2/9=110,15=3/2;
 99//99;
 2/9=110,15=3/2;
 3/5=4,6=6,7=1111,11=2,25=1,30=1,71=1,74=-58/1,2,3;
 4/5=5,16=3,69=1/1;
 5/5=2,8=3,13=1,38=5/2,8;
 7/30=1/1,2,3,16;
 1/7=10,18=20,19=15,26=3/3(-5);
 2/9=110,15=3/2;
 99/9=1/99;
 Leave Link    1 at Fri May 23 02:10:32 2025, MaxMem=  3758096384 cpu:               0.1 elap:               0.0
 (Enter /apps/easybuild-2022/easybuild/software/Compiler/NVHPC/22.11-CUDA-11.7.0/Gaussian/g16c01-CUDA-11.7.0/g16/l101.exe)
 ------------------------------
 Gaussian input prepared by ASE
 ------------------------------
 Symbolic Z-matrix:
 Charge =  0 Multiplicity = 2
 C                     2.05504  -0.47329   1.65001 
 F                     2.07388  -1.7696    1.84315 
 F                     1.48893   0.16094   2.64741 
 S                     1.43139   0.        0. 
 O                     2.22608  -0.72502  -0.95153 
 O                     0.        0.        0. 
 O                     1.88306   1.53867   0. 
 H                     1.86856   1.88788   0.90025 
 
 ITRead=  0  0  0  0  0  0  0  0
 MicOpt= -1 -1 -1 -1 -1 -1 -1 -1
 NAtoms=      8 NQM=        8 NQMF=       0 NMMI=      0 NMMIF=      0
                NMic=       0 NMicF=      0.
                    Isotopes and Nuclear Properties:
 (Nuclear quadrupole moments (NQMom) in fm**2, nuclear magnetic moments (NMagM)
  in nuclear magnetons)

  Atom         1           2           3           4           5           6           7           8
 IAtWgt=          12          19          19          32          16          16          16           1
 AtmWgt=  12.0000000  18.9984032  18.9984032  31.9720718  15.9949146  15.9949146  15.9949146   1.0078250
 NucSpn=           0           1           1           0           0           0           0           1
 AtZEff=  -0.0000000  -0.0000000  -0.0000000  -0.0000000  -0.0000000  -0.0000000  -0.0000000  -0.0000000
 NQMom=    0.0000000   0.0000000   0.0000000   0.0000000   0.0000000   0.0000000   0.0000000   0.0000000
 NMagM=    0.0000000   2.6288670   2.6288670   0.0000000   0.0000000   0.0000000   0.0000000   2.7928460
 AtZNuc=   6.0000000   9.0000000   9.0000000  16.0000000   8.0000000   8.0000000   8.0000000   1.0000000
 Leave Link  101 at Fri May 23 02:10:33 2025, MaxMem=  3758096384 cpu:               0.3 elap:               0.2
 (Enter /apps/easybuild-2022/easybuild/software/Compiler/NVHPC/22.11-CUDA-11.7.0/Gaussian/g16c01-CUDA-11.7.0/g16/l103.exe)

 GradGradGradGradGradGradGradGradGradGradGradGradGradGradGradGradGradGrad
 Berny optimization.
 Initialization pass.
                           ----------------------------
                           !    Initial Parameters    !
                           ! (Angstroms and Degrees)  !
 --------------------------                            --------------------------
 ! Name  Definition              Value          Derivative Info.                !
 --------------------------------------------------------------------------------
 ! R1    R(1,2)                  1.3108         calculate D2E/DX2 analytically  !
 ! R2    R(1,3)                  1.3106         calculate D2E/DX2 analytically  !
 ! R3    R(1,4)                  1.8263         calculate D2E/DX2 analytically  !
 ! R4    R(4,5)                  1.4362         calculate D2E/DX2 analytically  !
 ! R5    R(4,6)                  1.4314         calculate D2E/DX2 analytically  !
 ! R6    R(4,7)                  1.6036         calculate D2E/DX2 analytically  !
 ! R7    R(7,8)                  0.9657         calculate D2E/DX2 analytically  !
 ! A1    A(2,1,3)              111.8807         calculate D2E/DX2 analytically  !
 ! A2    A(2,1,4)              113.2238         calculate D2E/DX2 analytically  !
 ! A3    A(3,1,4)              114.498          calculate D2E/DX2 analytically  !
 ! A4    A(1,4,5)              106.1888         calculate D2E/DX2 analytically  !
 ! A5    A(1,4,6)              109.9669         calculate D2E/DX2 analytically  !
 ! A6    A(1,4,7)               98.7705         calculate D2E/DX2 analytically  !
 ! A7    A(5,4,6)              123.5963         calculate D2E/DX2 analytically  !
 ! A8    A(5,4,7)              109.1799         calculate D2E/DX2 analytically  !
 ! A9    A(6,4,7)              106.3593         calculate D2E/DX2 analytically  !
 ! A10   A(4,7,8)              110.0438         calculate D2E/DX2 analytically  !
 ! D1    D(2,1,4,5)            -53.9368         calculate D2E/DX2 analytically  !
 ! D2    D(2,1,4,6)             81.9948         calculate D2E/DX2 analytically  !
 ! D3    D(2,1,4,7)           -166.9497         calculate D2E/DX2 analytically  !
 ! D4    D(3,1,4,5)            176.1829         calculate D2E/DX2 analytically  !
 ! D5    D(3,1,4,6)            -47.8855         calculate D2E/DX2 analytically  !
 ! D6    D(3,1,4,7)             63.17           calculate D2E/DX2 analytically  !
 ! D7    D(1,4,7,8)            -31.024          calculate D2E/DX2 analytically  !
 ! D8    D(5,4,7,8)           -141.655          calculate D2E/DX2 analytically  !
 ! D9    D(6,4,7,8)             82.8912         calculate D2E/DX2 analytically  !
 --------------------------------------------------------------------------------
 Trust Radius=3.00D-01 FncErr=1.00D-07 GrdErr=1.00D-06 EigMax=2.50D+02 EigMin=1.00D-04
 Number of steps in this run=     36 maximum allowed number of steps=    100.
 GradGradGradGradGradGradGradGradGradGradGradGradGradGradGradGradGradGrad

 Leave Link  103 at Fri May 23 02:10:33 2025, MaxMem=  3758096384 cpu:               0.1 elap:               0.0
 (Enter /apps/easybuild-2022/easybuild/software/Compiler/NVHPC/22.11-CUDA-11.7.0/Gaussian/g16c01-CUDA-11.7.0/g16/l202.exe)
                          Input orientation:                          
 ---------------------------------------------------------------------
 Center     Atomic      Atomic             Coordinates (Angstroms)
 Number     Number       Type             X           Y           Z
 ---------------------------------------------------------------------
      1          6           0        2.055044   -0.473291    1.650008
      2          9           0        2.073875   -1.769600    1.843148
      3          9           0        1.488933    0.160942    2.647412
      4         16           0        1.431395    0.000000    0.000000
      5          8           0        2.226084   -0.725020   -0.951530
      6          8           0        0.000000    0.000000    0.000000
      7          8           0        1.883062    1.538666    0.000000
      8          1           0        1.868561    1.887877    0.900254
 ---------------------------------------------------------------------
                    Distance matrix (angstroms):
                    1          2          3          4          5
     1  C    0.000000
     2  F    1.310753   0.000000
     3  F    1.310552   2.171633   0.000000
     4  S    1.826327   2.634665   2.652923   0.000000
     5  O    2.619279   2.987397   3.778981   1.436173   0.000000
     6  O    2.677637   3.290842   3.041646   1.431395   2.527155
     7  O    2.607696   3.791863   3.010357   1.603588   2.479384
     8  H    2.484356   3.782637   2.485755   2.136739   3.222446
                    6          7          8
     6  O    0.000000
     7  O    2.431751   0.000000
     8  H    2.804649   0.965721   0.000000
 Symmetry turned off by external request.
 Stoichiometry    CHF2O3S
 Rotational constants (GHZ):           3.4092915           2.0220079           1.6953919
 Leave Link  202 at Fri May 23 02:10:33 2025, MaxMem=  3758096384 cpu:               0.1 elap:               0.0
 (Enter /apps/easybuild-2022/easybuild/software/Compiler/NVHPC/22.11-CUDA-11.7.0/Gaussian/g16c01-CUDA-11.7.0/g16/l301.exe)
 Standard basis: 6-311++G(d,p) (5D, 7F)
 Ernie: Thresh=  0.10000D-02 Tol=  0.10000D-05 Strict=F.
   169 basis functions,   275 primitive gaussians,   176 cartesian basis functions
    33 alpha electrons       32 beta electrons
       nuclear repulsion energy       440.7082927722 Hartrees.
 IExCor= 4639 DFT=T Ex+Corr=wB97XD ExCW=0 ScaHFX=  1.000000
 ScaDFX=  1.000000  1.000000  1.000000  1.000000 ScalE2=  1.000000  1.000000
 IRadAn=      5 IRanWt=     -1 IRanGd=            0 ICorTp=0 IEmpDi=121
 HFx  wShort=  0.000000 wLong=  0.200000 cFull=  0.222036 cShort=  0.000000 cLong=  0.777964
 DFx  wShort=  0.000000 wLong=  0.200000 cFull=  0.000000 cShort=  0.000000 cLong=  1.000000
 NAtoms=    8 NActive=    8 NUniq=    8 SFac= 1.00D+00 NAtFMM=   60 NAOKFM=F Big=F
 Integral buffers will be    131072 words long.
 Raffenetti 2 integral format.
 Two-electron integral symmetry is turned off.
 R6Disp:  Grimme-D2 Dispersion energy=       -0.0022051922 Hartrees.
 Nuclear repulsion after empirical dispersion term =      440.7060875800 Hartrees.
 Leave Link  301 at Fri May 23 02:10:33 2025, MaxMem=  3758096384 cpu:               0.1 elap:               0.1
 (Enter /apps/easybuild-2022/easybuild/software/Compiler/NVHPC/22.11-CUDA-11.7.0/Gaussian/g16c01-CUDA-11.7.0/g16/l302.exe)
 NPDir=0 NMtPBC=     1 NCelOv=     1 NCel=       1 NClECP=     1 NCelD=      1
         NCelK=      1 NCelE2=     1 NClLst=     1 CellRange=     0.0.
 One-electron integrals computed using PRISM.
 NBasis=   169 RedAO= T EigKep=  2.55D-04  NBF=   169
 NBsUse=   169 1.00D-06 EigRej= -1.00D+00 NBFU=   169
 Precomputing XC quadrature grid using
 IXCGrd= 4 IRadAn=           5 IRanWt=          -1 IRanGd=           0 AccXCQ= 0.00D+00.
 Generated NRdTot=       0 NPtTot=           0 NUsed=           0 NTot=          32
 NSgBfM=   176   176   176   176   176 MxSgAt=     8 MxSgA2=     8.
 Leave Link  302 at Fri May 23 02:10:33 2025, MaxMem=  3758096384 cpu:               0.5 elap:               0.2
 (Enter /apps/easybuild-2022/easybuild/software/Compiler/NVHPC/22.11-CUDA-11.7.0/Gaussian/g16c01-CUDA-11.7.0/g16/l303.exe)
 DipDrv:  MaxL=1.
 Leave Link  303 at Fri May 23 02:10:33 2025, MaxMem=  3758096384 cpu:               0.1 elap:               0.0
 (Enter /apps/easybuild-2022/easybuild/software/Compiler/NVHPC/22.11-CUDA-11.7.0/Gaussian/g16c01-CUDA-11.7.0/g16/l401.exe)
 ExpMin= 3.60D-02 ExpMax= 9.34D+04 ExpMxC= 3.17D+03 IAcc=3 IRadAn=         5 AccDes= 0.00D+00
 Harris functional with IExCor= 4639 and IRadAn=       5 diagonalized for initial guess.
 HarFok:  IExCor= 4639 AccDes= 0.00D+00 IRadAn=         5 IDoV= 1 UseB2=F ITyADJ=14
 ICtDFT=  3500011 ScaDFX=  1.000000  1.000000  1.000000  1.000000
 FoFCou: FMM=F IPFlag=           0 FMFlag=      100000 FMFlg1=           0
         NFxFlg=           0 DoJE=T BraDBF=F KetDBF=T FulRan=T
         wScrn=  0.000000 ICntrl=       500 IOpCl=  0 I1Cent=   200000004 NGrid=           0
         NMat0=    1 NMatS0=      1 NMatT0=    0 NMatD0=    1 NMtDS0=    0 NMtDT0=    0
 Symmetry not used in FoFCou.
 Harris En= -839.986897439327    
 JPrj=0 DoOrth=F DoCkMO=F.
 Initial guess <Sx>= 0.0000 <Sy>= 0.0000 <Sz>= 0.5000 <S**2>= 0.7500 S= 0.5000
 Leave Link  401 at Fri May 23 02:10:34 2025, MaxMem=  3758096384 cpu:               1.8 elap:               0.5
 (Enter /apps/easybuild-2022/easybuild/software/Compiler/NVHPC/22.11-CUDA-11.7.0/Gaussian/g16c01-CUDA-11.7.0/g16/l502.exe)
 Keep R1 and R2 ints in memory in canonical form, NReq=423234435.
 FoFCou: FMM=F IPFlag=           0 FMFlag=           0 FMFlg1=           0
         NFxFlg=           0 DoJE=F BraDBF=F KetDBF=F FulRan=T
         wScrn=  0.000000 ICntrl=       600 IOpCl=  0 I1Cent=           0 NGrid=           0
         NMat0=    1 NMatS0=  14365 NMatT0=    0 NMatD0=    1 NMtDS0=    0 NMtDT0=    0
 Symmetry not used in FoFCou.
 Two-electron integral symmetry not used.
 UHF open shell SCF:
 Using DIIS extrapolation, IDIIS=  1040.
 NGot=  3758096384 LenX=  3345296366 LenY=  3345264949
 Requested convergence on RMS density matrix=1.00D-08 within  32 cycles.
 Requested convergence on MAX density matrix=1.00D-06.
 Requested convergence on             energy=1.00D-06.
 No special actions if energy rises.

 Cycle   1  Pass 1  IDiag  1:
 E= -861.590889802738    
 DIIS: error= 8.35D-02 at cycle   1 NSaved=   1.
 NSaved= 1 IEnMin= 1 EnMin= -861.590889802738     IErMin= 1 ErrMin= 8.35D-02
 ErrMax= 8.35D-02  0.00D+00 EMaxC= 1.00D-01 BMatC= 9.92D+00 BMatP= 9.92D+00
 IDIUse=3 WtCom= 1.65D-01 WtEn= 8.35D-01
 Coeff-Com:  0.100D+01
 Coeff-En:   0.100D+01
 Coeff:      0.100D+01
 Gap=     0.506 Goal=   None    Shift=    0.000
 Gap=     0.381 Goal=   None    Shift=    0.000
 GapD=    0.381 DampG=1.000 DampE=0.500 DampFc=0.5000 IDamp=-1.
 Damping current iteration by 5.00D-01
 RMSDP=8.93D-03 MaxDP=3.21D-01              OVMax= 2.09D-01

 Cycle   2  Pass 1  IDiag  1:
 E= -861.846863151961     Delta-E=       -0.255973349223 Rises=F Damp=T
 DIIS: error= 3.99D-02 at cycle   2 NSaved=   2.
 NSaved= 2 IEnMin= 2 EnMin= -861.846863151961     IErMin= 2 ErrMin= 3.99D-02
 ErrMax= 3.99D-02  0.00D+00 EMaxC= 1.00D-01 BMatC= 1.43D+00 BMatP= 9.92D+00
 IDIUse=3 WtCom= 6.01D-01 WtEn= 3.99D-01
 Coeff-Com: -0.383D+00 0.138D+01
 Coeff-En:   0.000D+00 0.100D+01
 Coeff:     -0.230D+00 0.123D+01
 Gap=     0.576 Goal=   None    Shift=    0.000
 Gap=     0.394 Goal=   None    Shift=    0.000
 RMSDP=3.64D-03 MaxDP=1.43D-01 DE=-2.56D-01 OVMax= 1.19D-01

 Cycle   3  Pass 1  IDiag  1:
 E= -862.058498672602     Delta-E=       -0.211635520641 Rises=F Damp=F
 DIIS: error= 1.68D-02 at cycle   3 NSaved=   3.
 NSaved= 3 IEnMin= 3 EnMin= -862.058498672602     IErMin= 3 ErrMin= 1.68D-02
 ErrMax= 1.68D-02  0.00D+00 EMaxC= 1.00D-01 BMatC= 2.80D-01 BMatP= 1.43D+00
 IDIUse=3 WtCom= 8.32D-01 WtEn= 1.68D-01
 Coeff-Com: -0.191D+00 0.536D+00 0.656D+00
 Coeff-En:   0.000D+00 0.000D+00 0.100D+01
 Coeff:     -0.159D+00 0.446D+00 0.714D+00
 Gap=     0.391 Goal=   None    Shift=    0.000
 Gap=     0.358 Goal=   None    Shift=    0.000
 RMSDP=2.55D-03 MaxDP=8.11D-02 DE=-2.12D-01 OVMax= 5.78D-02

 Cycle   4  Pass 1  IDiag  1:
 E= -862.092428284760     Delta-E=       -0.033929612158 Rises=F Damp=F
 DIIS: error= 7.83D-03 at cycle   4 NSaved=   4.
 NSaved= 4 IEnMin= 4 EnMin= -862.092428284760     IErMin= 4 ErrMin= 7.83D-03
 ErrMax= 7.83D-03  0.00D+00 EMaxC= 1.00D-01 BMatC= 5.98D-02 BMatP= 2.80D-01
 IDIUse=3 WtCom= 9.22D-01 WtEn= 7.83D-02
 Coeff-Com: -0.405D-01 0.979D-01 0.348D+00 0.594D+00
 Coeff-En:   0.000D+00 0.000D+00 0.163D+00 0.837D+00
 Coeff:     -0.374D-01 0.902D-01 0.334D+00 0.613D+00
 Gap=     0.399 Goal=   None    Shift=    0.000
 Gap=     0.359 Goal=   None    Shift=    0.000
 RMSDP=1.10D-03 MaxDP=4.00D-02 DE=-3.39D-02 OVMax= 2.54D-02

 Cycle   5  Pass 1  IDiag  1:
 E= -862.101887967230     Delta-E=       -0.009459682470 Rises=F Damp=F
 DIIS: error= 1.57D-03 at cycle   5 NSaved=   5.
 NSaved= 5 IEnMin= 5 EnMin= -862.101887967230     IErMin= 5 ErrMin= 1.57D-03
 ErrMax= 1.57D-03  0.00D+00 EMaxC= 1.00D-01 BMatC= 3.48D-03 BMatP= 5.98D-02
 IDIUse=3 WtCom= 9.84D-01 WtEn= 1.57D-02
 Coeff-Com: -0.731D-02 0.139D-01 0.131D+00 0.321D+00 0.541D+00
 Coeff-En:   0.000D+00 0.000D+00 0.000D+00 0.000D+00 0.100D+01
 Coeff:     -0.719D-02 0.137D-01 0.129D+00 0.316D+00 0.549D+00
 Gap=     0.400 Goal=   None    Shift=    0.000
 Gap=     0.354 Goal=   None    Shift=    0.000
 RMSDP=2.10D-04 MaxDP=5.46D-03 DE=-9.46D-03 OVMax= 8.45D-03

 Cycle   6  Pass 1  IDiag  1:
 E= -862.102506066002     Delta-E=       -0.000618098772 Rises=F Damp=F
 DIIS: error= 7.03D-04 at cycle   6 NSaved=   6.
 NSaved= 6 IEnMin= 6 EnMin= -862.102506066002     IErMin= 6 ErrMin= 7.03D-04
 ErrMax= 7.03D-04  0.00D+00 EMaxC= 1.00D-01 BMatC= 1.40D-04 BMatP= 3.48D-03
 IDIUse=3 WtCom= 9.93D-01 WtEn= 7.03D-03
 Coeff-Com:  0.620D-02-0.149D-01-0.408D-01-0.503D-01 0.718D-01 0.103D+01
 Coeff-En:   0.000D+00 0.000D+00 0.000D+00 0.000D+00 0.000D+00 0.100D+01
 Coeff:      0.615D-02-0.148D-01-0.405D-01-0.499D-01 0.713D-01 0.103D+01
 Gap=     0.401 Goal=   None    Shift=    0.000
 Gap=     0.355 Goal=   None    Shift=    0.000
 RMSDP=1.27D-04 MaxDP=4.58D-03 DE=-6.18D-04 OVMax= 8.30D-03

 Cycle   7  Pass 1  IDiag  1:
 E= -862.102614000962     Delta-E=       -0.000107934960 Rises=F Damp=F
 DIIS: error= 1.69D-04 at cycle   7 NSaved=   7.
 NSaved= 7 IEnMin= 7 EnMin= -862.102614000962     IErMin= 7 ErrMin= 1.69D-04
 ErrMax= 1.69D-04  0.00D+00 EMaxC= 1.00D-01 BMatC= 2.06D-05 BMatP= 1.40D-04
 IDIUse=3 WtCom= 9.98D-01 WtEn= 1.69D-03
 Coeff-Com:  0.155D-02-0.318D-02-0.237D-01-0.555D-01-0.890D-01 0.129D+00
 Coeff-Com:  0.104D+01
 Coeff-En:   0.000D+00 0.000D+00 0.000D+00 0.000D+00 0.000D+00 0.000D+00
 Coeff-En:   0.100D+01
 Coeff:      0.155D-02-0.317D-02-0.236D-01-0.554D-01-0.888D-01 0.128D+00
 Coeff:      0.104D+01
 Gap=     0.401 Goal=   None    Shift=    0.000
 Gap=     0.356 Goal=   None    Shift=    0.000
 RMSDP=6.03D-05 MaxDP=2.37D-03 DE=-1.08D-04 OVMax= 3.86D-03

 Cycle   8  Pass 1  IDiag  1:
 E= -862.102633190919     Delta-E=       -0.000019189957 Rises=F Damp=F
 DIIS: error= 6.43D-05 at cycle   8 NSaved=   8.
 NSaved= 8 IEnMin= 8 EnMin= -862.102633190919     IErMin= 8 ErrMin= 6.43D-05
 ErrMax= 6.43D-05  0.00D+00 EMaxC= 1.00D-01 BMatC= 4.38D-06 BMatP= 2.06D-05
 IDIUse=1 WtCom= 1.00D+00 WtEn= 0.00D+00
 Coeff-Com: -0.107D-04 0.217D-03-0.409D-02-0.142D-01-0.344D-01-0.468D-01
 Coeff-Com:  0.336D+00 0.764D+00
 Coeff:     -0.107D-04 0.217D-03-0.409D-02-0.142D-01-0.344D-01-0.468D-01
 Coeff:      0.336D+00 0.764D+00
 Gap=     0.402 Goal=   None    Shift=    0.000
 Gap=     0.356 Goal=   None    Shift=    0.000
 RMSDP=1.64D-05 MaxDP=4.83D-04 DE=-1.92D-05 OVMax= 8.49D-04

 Cycle   9  Pass 1  IDiag  1:
 E= -862.102635173844     Delta-E=       -0.000001982925 Rises=F Damp=F
 DIIS: error= 5.15D-05 at cycle   9 NSaved=   9.
 NSaved= 9 IEnMin= 9 EnMin= -862.102635173844     IErMin= 9 ErrMin= 5.15D-05
 ErrMax= 5.15D-05  0.00D+00 EMaxC= 1.00D-01 BMatC= 1.94D-06 BMatP= 4.38D-06
 IDIUse=1 WtCom= 1.00D+00 WtEn= 0.00D+00
 Coeff-Com: -0.613D-03 0.137D-02 0.650D-02 0.122D-01 0.133D-01-0.754D-01
 Coeff-Com: -0.184D+00 0.446D+00 0.781D+00
 Coeff:     -0.613D-03 0.137D-02 0.650D-02 0.122D-01 0.133D-01-0.754D-01
 Coeff:     -0.184D+00 0.446D+00 0.781D+00
 Gap=     0.402 Goal=   None    Shift=    0.000
 Gap=     0.356 Goal=   None    Shift=    0.000
 RMSDP=1.07D-05 MaxDP=2.78D-04 DE=-1.98D-06 OVMax= 7.69D-04

 Cycle  10  Pass 1  IDiag  1:
 E= -862.102636020260     Delta-E=       -0.000000846416 Rises=F Damp=F
 DIIS: error= 1.99D-05 at cycle  10 NSaved=  10.
 NSaved=10 IEnMin=10 EnMin= -862.102636020260     IErMin=10 ErrMin= 1.99D-05
 ErrMax= 1.99D-05  0.00D+00 EMaxC= 1.00D-01 BMatC= 2.34D-07 BMatP= 1.94D-06
 IDIUse=1 WtCom= 1.00D+00 WtEn= 0.00D+00
 Coeff-Com: -0.272D-03 0.575D-03 0.318D-02 0.686D-02 0.904D-02-0.264D-01
 Coeff-Com: -0.108D+00 0.687D-01 0.311D+00 0.735D+00
 Coeff:     -0.272D-03 0.575D-03 0.318D-02 0.686D-02 0.904D-02-0.264D-01
 Coeff:     -0.108D+00 0.687D-01 0.311D+00 0.735D+00
 Gap=     0.402 Goal=   None    Shift=    0.000
 Gap=     0.356 Goal=   None    Shift=    0.000
 RMSDP=3.58D-06 MaxDP=1.13D-04 DE=-8.46D-07 OVMax= 2.35D-04

 Cycle  11  Pass 1  IDiag  1:
 E= -862.102636133385     Delta-E=       -0.000000113125 Rises=F Damp=F
 DIIS: error= 9.03D-06 at cycle  11 NSaved=  11.
 NSaved=11 IEnMin=11 EnMin= -862.102636133385     IErMin=11 ErrMin= 9.03D-06
 ErrMax= 9.03D-06  0.00D+00 EMaxC= 1.00D-01 BMatC= 3.62D-08 BMatP= 2.34D-07
 IDIUse=1 WtCom= 1.00D+00 WtEn= 0.00D+00
 Coeff-Com:  0.107D-03-0.240D-03-0.102D-02-0.153D-02-0.165D-02 0.139D-01
 Coeff-Com:  0.227D-01-0.994D-01-0.121D+00 0.136D+00 0.105D+01
 Coeff:      0.107D-03-0.240D-03-0.102D-02-0.153D-02-0.165D-02 0.139D-01
 Coeff:      0.227D-01-0.994D-01-0.121D+00 0.136D+00 0.105D+01
 Gap=     0.402 Goal=   None    Shift=    0.000
 Gap=     0.356 Goal=   None    Shift=    0.000
 RMSDP=2.73D-06 MaxDP=7.80D-05 DE=-1.13D-07 OVMax= 1.53D-04

 Cycle  12  Pass 1  IDiag  1:
 E= -862.102636163698     Delta-E=       -0.000000030313 Rises=F Damp=F
 DIIS: error= 3.52D-06 at cycle  12 NSaved=  12.
 NSaved=12 IEnMin=12 EnMin= -862.102636163698     IErMin=12 ErrMin= 3.52D-06
 ErrMax= 3.52D-06  0.00D+00 EMaxC= 1.00D-01 BMatC= 1.01D-08 BMatP= 3.62D-08
 IDIUse=1 WtCom= 1.00D+00 WtEn= 0.00D+00
 Coeff-Com:  0.843D-04-0.184D-03-0.854D-03-0.155D-02-0.179D-02 0.999D-02
 Coeff-Com:  0.229D-01-0.562D-01-0.936D-01-0.410D-01 0.481D+00 0.681D+00
 Coeff:      0.843D-04-0.184D-03-0.854D-03-0.155D-02-0.179D-02 0.999D-02
 Coeff:      0.229D-01-0.562D-01-0.936D-01-0.410D-01 0.481D+00 0.681D+00
 Gap=     0.402 Goal=   None    Shift=    0.000
 Gap=     0.356 Goal=   None    Shift=    0.000
 RMSDP=8.47D-07 MaxDP=2.64D-05 DE=-3.03D-08 OVMax= 4.18D-05

 Cycle  13  Pass 1  IDiag  1:
 E= -862.102636167584     Delta-E=       -0.000000003886 Rises=F Damp=F
 DIIS: error= 1.64D-06 at cycle  13 NSaved=  13.
 NSaved=13 IEnMin=13 EnMin= -862.102636167584     IErMin=13 ErrMin= 1.64D-06
 ErrMax= 1.64D-06  0.00D+00 EMaxC= 1.00D-01 BMatC= 1.20D-09 BMatP= 1.01D-08
 IDIUse=1 WtCom= 1.00D+00 WtEn= 0.00D+00
 Coeff-Com: -0.693D-05 0.164D-04 0.388D-04-0.585D-04-0.119D-03-0.105D-02
 Coeff-Com:  0.110D-02 0.110D-01 0.763D-02-0.492D-01-0.150D+00 0.180D+00
 Coeff-Com:  0.100D+01
 Coeff:     -0.693D-05 0.164D-04 0.388D-04-0.585D-04-0.119D-03-0.105D-02
 Coeff:      0.110D-02 0.110D-01 0.763D-02-0.492D-01-0.150D+00 0.180D+00
 Coeff:      0.100D+01
 Gap=     0.402 Goal=   None    Shift=    0.000
 Gap=     0.356 Goal=   None    Shift=    0.000
 RMSDP=4.44D-07 MaxDP=1.39D-05 DE=-3.89D-09 OVMax= 2.73D-05

 Cycle  14  Pass 1  IDiag  1:
 E= -862.102636168294     Delta-E=       -0.000000000710 Rises=F Damp=F
 DIIS: error= 2.59D-07 at cycle  14 NSaved=  14.
 NSaved=14 IEnMin=14 EnMin= -862.102636168294     IErMin=14 ErrMin= 2.59D-07
 ErrMax= 2.59D-07  0.00D+00 EMaxC= 1.00D-01 BMatC= 6.50D-11 BMatP= 1.20D-09
 IDIUse=1 WtCom= 1.00D+00 WtEn= 0.00D+00
 Coeff-Com: -0.544D-05 0.114D-04 0.523D-04 0.141D-03 0.158D-03-0.519D-03
 Coeff-Com: -0.203D-02 0.170D-02 0.558D-02 0.149D-01-0.512D-02-0.901D-01
 Coeff-Com: -0.226D+00 0.130D+01
 Coeff:     -0.544D-05 0.114D-04 0.523D-04 0.141D-03 0.158D-03-0.519D-03
 Coeff:     -0.203D-02 0.170D-02 0.558D-02 0.149D-01-0.512D-02-0.901D-01
 Coeff:     -0.226D+00 0.130D+01
 Gap=     0.402 Goal=   None    Shift=    0.000
 Gap=     0.356 Goal=   None    Shift=    0.000
 RMSDP=1.29D-07 MaxDP=5.42D-06 DE=-7.10D-10 OVMax= 6.73D-06

 Cycle  15  Pass 1  IDiag  1:
 E= -862.102636168352     Delta-E=       -0.000000000058 Rises=F Damp=F
 DIIS: error= 8.49D-08 at cycle  15 NSaved=  15.
 NSaved=15 IEnMin=15 EnMin= -862.102636168352     IErMin=15 ErrMin= 8.49D-08
 ErrMax= 8.49D-08  0.00D+00 EMaxC= 1.00D-01 BMatC= 4.29D-12 BMatP= 6.50D-11
 IDIUse=1 WtCom= 1.00D+00 WtEn= 0.00D+00
 Coeff-Com:  0.754D-06-0.169D-05-0.543D-05-0.554D-06 0.115D-04 0.637D-04
 Coeff-Com: -0.242D-04-0.799D-03-0.601D-03 0.278D-02 0.122D-01-0.115D-01
 Coeff-Com: -0.742D-01-0.421D-01 0.111D+01
 Coeff:      0.754D-06-0.169D-05-0.543D-05-0.554D-06 0.115D-04 0.637D-04
 Coeff:     -0.242D-04-0.799D-03-0.601D-03 0.278D-02 0.122D-01-0.115D-01
 Coeff:     -0.742D-01-0.421D-01 0.111D+01
 Gap=     0.402 Goal=   None    Shift=    0.000
 Gap=     0.356 Goal=   None    Shift=    0.000
 RMSDP=3.95D-08 MaxDP=1.51D-06 DE=-5.82D-11 OVMax= 1.61D-06

 Cycle  16  Pass 1  IDiag  1:
 E= -862.102636168367     Delta-E=       -0.000000000015 Rises=F Damp=F
 DIIS: error= 2.33D-08 at cycle  16 NSaved=  16.
 NSaved=16 IEnMin=16 EnMin= -862.102636168367     IErMin=16 ErrMin= 2.33D-08
 ErrMax= 2.33D-08  0.00D+00 EMaxC= 1.00D-01 BMatC= 5.27D-13 BMatP= 4.29D-12
 IDIUse=1 WtCom= 1.00D+00 WtEn= 0.00D+00
 Coeff-Com:  0.327D-06-0.679D-06-0.262D-05-0.848D-05-0.507D-05 0.357D-04
 Coeff-Com:  0.111D-03-0.134D-03-0.348D-03-0.105D-02 0.745D-03 0.626D-02
 Coeff-Com:  0.155D-01-0.101D+00 0.320D-01 0.105D+01
 Coeff:      0.327D-06-0.679D-06-0.262D-05-0.848D-05-0.507D-05 0.357D-04
 Coeff:      0.111D-03-0.134D-03-0.348D-03-0.105D-02 0.745D-03 0.626D-02
 Coeff:      0.155D-01-0.101D+00 0.320D-01 0.105D+01
 Gap=     0.402 Goal=   None    Shift=    0.000
 Gap=     0.356 Goal=   None    Shift=    0.000
 RMSDP=1.21D-08 MaxDP=4.88D-07 DE=-1.50D-11 OVMax= 3.29D-07

 Cycle  17  Pass 1  IDiag  1:
 E= -862.102636168366     Delta-E=        0.000000000002 Rises=F Damp=F
 DIIS: error= 1.08D-08 at cycle  17 NSaved=  17.
 NSaved=17 IEnMin=16 EnMin= -862.102636168367     IErMin=17 ErrMin= 1.08D-08
 ErrMax= 1.08D-08  0.00D+00 EMaxC= 1.00D-01 BMatC= 1.67D-13 BMatP= 5.27D-13
 IDIUse=1 WtCom= 1.00D+00 WtEn= 0.00D+00
 Coeff-Com:  0.117D-06-0.234D-06-0.123D-05-0.504D-05-0.655D-05 0.125D-04
 Coeff-Com:  0.771D-04 0.138D-04-0.143D-03-0.810D-03-0.880D-03 0.404D-02
 Coeff-Com:  0.146D-01-0.378D-01-0.110D+00 0.426D+00 0.705D+00
 Coeff:      0.117D-06-0.234D-06-0.123D-05-0.504D-05-0.655D-05 0.125D-04
 Coeff:      0.771D-04 0.138D-04-0.143D-03-0.810D-03-0.880D-03 0.404D-02
 Coeff:      0.146D-01-0.378D-01-0.110D+00 0.426D+00 0.705D+00
 Gap=     0.402 Goal=   None    Shift=    0.000
 Gap=     0.356 Goal=   None    Shift=    0.000
 RMSDP=4.05D-09 MaxDP=2.26D-07 DE= 1.82D-12 OVMax= 1.06D-07

 SCF Done:  E(UwB97XD) =  -862.102636168     A.U. after   17 cycles
            NFock= 17  Conv=0.40D-08     -V/T= 2.0018
 <Sx>= 0.0000 <Sy>= 0.0000 <Sz>= 0.5000 <S**2>= 0.7532 S= 0.5016
 <L.S>=  0.00000000000    
 KE= 8.605617677144D+02 PE=-2.925348274147D+03 EE= 7.619777826838D+02
 Annihilation of the first spin contaminant:
 S**2 before annihilation     0.7532,   after     0.7500
 Leave Link  502 at Fri May 23 02:10:42 2025, MaxMem=  3758096384 cpu:              42.1 elap:               8.9
 (Enter /apps/easybuild-2022/easybuild/software/Compiler/NVHPC/22.11-CUDA-11.7.0/Gaussian/g16c01-CUDA-11.7.0/g16/l508.exe)
 QCSCF skips out because SCF is already converged.
 Leave Link  508 at Fri May 23 02:10:43 2025, MaxMem=  3758096384 cpu:               0.1 elap:               0.1
 (Enter /apps/easybuild-2022/easybuild/software/Compiler/NVHPC/22.11-CUDA-11.7.0/Gaussian/g16c01-CUDA-11.7.0/g16/l801.exe)
 DoSCS=F DFT=T ScalE2(SS,OS)=  1.000000  1.000000
 Range of M.O.s used for correlation:     1   169
 NBasis=   169 NAE=    33 NBE=    32 NFC=     0 NFV=     0
 NROrb=    169 NOA=    33 NOB=    32 NVA=   136 NVB=   137

 **** Warning!!: The largest alpha MO coefficient is  0.20859831D+02


 **** Warning!!: The largest beta MO coefficient is  0.18545894D+02

 Leave Link  801 at Fri May 23 02:10:43 2025, MaxMem=  3758096384 cpu:               0.1 elap:               0.1
 (Enter /apps/easybuild-2022/easybuild/software/Compiler/NVHPC/22.11-CUDA-11.7.0/Gaussian/g16c01-CUDA-11.7.0/g16/l1101.exe)
 Using compressed storage, NAtomX=     8.
 Will process      9 centers per pass.
 R6Disp: Adding Grimme-D2 dispersion energy 1st derivatives to the gradient.
 Leave Link 1101 at Fri May 23 02:10:43 2025, MaxMem=  3758096384 cpu:               0.6 elap:               0.3
 (Enter /apps/easybuild-2022/easybuild/software/Compiler/NVHPC/22.11-CUDA-11.7.0/Gaussian/g16c01-CUDA-11.7.0/g16/l1102.exe)
 Symmetrizing basis deriv contribution to polar:
 IMax=3 JMax=2 DiffMx= 0.00D+00
 Leave Link 1102 at Fri May 23 02:10:43 2025, MaxMem=  3758096384 cpu:               0.1 elap:               0.0
 (Enter /apps/easybuild-2022/easybuild/software/Compiler/NVHPC/22.11-CUDA-11.7.0/Gaussian/g16c01-CUDA-11.7.0/g16/l1110.exe)
 Forming Gx(P) for the SCF density, NAtomX=     8.
 Integral derivatives from FoFJK, PRISM(SPDF).
 Do as many integral derivatives as possible in FoFJK.
 G2DrvN: MDV=    3758095424.
 G2DrvN: will do     9 centers at a time, making    1 passes.
 Calling FoFCou, ICntrl=  3107 FMM=F I1Cent=   0 AccDes= 0.00D+00.
 FoFJK:  IHMeth= 1 ICntrl=    3107 DoSepK=T KAlg= 0 I1Cent=           0 FoldK=F
 IRaf=         1 NMat=       1 IRICut=       1 DoRegI=T DoRafI=F ISym2E= 0 IDoP0=0 IntGTp=1.
 FoFCou: FMM=F IPFlag=           0 FMFlag=      100000 FMFlg1=           0
         NFxFlg=           0 DoJE=F BraDBF=F KetDBF=F FulRan=T
         wScrn=  0.000000 ICntrl=      3507 IOpCl=  0 I1Cent=           0 NGrid=           0
         NMat0=    1 NMatS0=      1 NMatT0=    0 NMatD0=    1 NMtDS0=    0 NMtDT0=    0
 Symmetry not used in FoFCou.
 End of G2Drv F.D. properties file   721 does not exist.
 End of G2Drv F.D. properties file   722 does not exist.
 End of G2Drv F.D. properties file   788 does not exist.
 Leave Link 1110 at Fri May 23 02:10:53 2025, MaxMem=  3758096384 cpu:              40.8 elap:               9.9
 (Enter /apps/easybuild-2022/easybuild/software/Compiler/NVHPC/22.11-CUDA-11.7.0/Gaussian/g16c01-CUDA-11.7.0/g16/l1002.exe)
 Minotr:  UHF open shell wavefunction.
          IDoAtm=11111111
          Direct CPHF calculation.
          Differentiating once with respect to nuclear coordinates.
          Requested convergence is 1.0D-08 RMS, and 1.0D-07 maximum.
          Secondary convergence is 1.0D-12 RMS, and 1.0D-12 maximum.
          NewPWx=T KeepS1=F KeepF1=F KeepIn=T MapXYZ=F SortEE=F KeepMc=T.
         2469 words used for storage of precomputed grid.
 Keep R1 and R2 ints in memory in canonical form, NReq=423214518.
 FoFCou: FMM=F IPFlag=           0 FMFlag=           0 FMFlg1=           0
         NFxFlg=           0 DoJE=F BraDBF=F KetDBF=F FulRan=T
         wScrn=  0.000000 ICntrl=       600 IOpCl=  0 I1Cent=           0 NGrid=           0
         NMat0=    1 NMatS0=  14365 NMatT0=    0 NMatD0=    1 NMtDS0=    0 NMtDT0=    0
 Symmetry not used in FoFCou.
 Two-electron integral symmetry not used.
          MDV=    3758096384 using IRadAn=       1.
          Solving linear equations simultaneously, MaxMat=       0.
          There are    27 degrees of freedom in the 1st order CPHF.  IDoFFX=6 NUNeed=     0.
     21 vectors produced by pass  0 Test12= 3.29D-14 3.70D-09 XBig12= 4.94D-01 8.10D-02.
 AX will form    21 AO Fock derivatives at one time.
     21 vectors produced by pass  1 Test12= 3.29D-14 3.70D-09 XBig12= 4.24D-02 4.59D-02.
     21 vectors produced by pass  2 Test12= 3.29D-14 3.70D-09 XBig12= 2.40D-03 1.13D-02.
     21 vectors produced by pass  3 Test12= 3.29D-14 3.70D-09 XBig12= 6.78D-05 2.65D-03.
     21 vectors produced by pass  4 Test12= 3.29D-14 3.70D-09 XBig12= 1.68D-06 2.59D-04.
     21 vectors produced by pass  5 Test12= 3.29D-14 3.70D-09 XBig12= 3.17D-08 2.26D-05.
     21 vectors produced by pass  6 Test12= 3.29D-14 3.70D-09 XBig12= 6.91D-10 4.98D-06.
     21 vectors produced by pass  7 Test12= 3.29D-14 3.70D-09 XBig12= 1.30D-11 5.03D-07.
     11 vectors produced by pass  8 Test12= 3.29D-14 3.70D-09 XBig12= 1.96D-13 6.39D-08.
      1 vectors produced by pass  9 Test12= 3.29D-14 3.70D-09 XBig12= 2.56D-15 6.93D-09.
 InvSVY:  IOpt=1 It=  1 EMax= 1.44D-15
 Solved reduced A of dimension   180 with    21 vectors.
 End of Minotr F.D. properties file   721 does not exist.
 End of Minotr F.D. properties file   722 does not exist.
 End of Minotr F.D. properties file   788 does not exist.
 Leave Link 1002 at Fri May 23 02:11:10 2025, MaxMem=  3758096384 cpu:              95.1 elap:              16.7
 (Enter /apps/easybuild-2022/easybuild/software/Compiler/NVHPC/22.11-CUDA-11.7.0/Gaussian/g16c01-CUDA-11.7.0/g16/l701.exe)
 ... and contract with generalized density number  0.
 Compute integral second derivatives.
 R6Disp: Adding Grimme-D2 dispersion energy 2nd derivatives to the Hessian.
 Leave Link  701 at Fri May 23 02:11:10 2025, MaxMem=  3758096384 cpu:               0.7 elap:               0.3
 (Enter /apps/easybuild-2022/easybuild/software/Compiler/NVHPC/22.11-CUDA-11.7.0/Gaussian/g16c01-CUDA-11.7.0/g16/l702.exe)
 L702 exits ... SP integral derivatives will be done elsewhere.
 Leave Link  702 at Fri May 23 02:11:10 2025, MaxMem=  3758096384 cpu:               0.1 elap:               0.1
 (Enter /apps/easybuild-2022/easybuild/software/Compiler/NVHPC/22.11-CUDA-11.7.0/Gaussian/g16c01-CUDA-11.7.0/g16/l703.exe)
 Integral derivatives from FoFJK, PRISM(SPDF).
 Compute integral second derivatives, UseDBF=F ICtDFT=           0.
 Calling FoFJK, ICntrl=    100127 FMM=F ISym2X=0 I1Cent= 0 IOpClX= 1 NMat=1 NMatS=1 NMatT=0.
 FoFJK:  IHMeth= 1 ICntrl=  100127 DoSepK=T KAlg= 0 I1Cent=           0 FoldK=F
 IRaf=         1 NMat=       1 IRICut=       1 DoRegI=T DoRafI=F ISym2E= 0 IDoP0=0 IntGTp=1.
 FoFCou: FMM=F IPFlag=           0 FMFlag=      100000 FMFlg1=         800
         NFxFlg=           0 DoJE=F BraDBF=F KetDBF=F FulRan=T
         wScrn=  0.000000 ICntrl=    100527 IOpCl=  0 I1Cent=           0 NGrid=           0
         NMat0=    1 NMatS0=      1 NMatT0=    0 NMatD0=    1 NMtDS0=    0 NMtDT0=    0
 Symmetry not used in FoFCou.
 Leave Link  703 at Fri May 23 02:11:22 2025, MaxMem=  3758096384 cpu:              85.1 elap:              11.8
 (Enter /apps/easybuild-2022/easybuild/software/Compiler/NVHPC/22.11-CUDA-11.7.0/Gaussian/g16c01-CUDA-11.7.0/g16/l716.exe)
 Dipole        = 4.29849458D-01 6.75997926D-01 1.18408604D+00
 Polarizability= 0.00000000D+00 0.00000000D+00 0.00000000D+00
                 0.00000000D+00 0.00000000D+00 0.00000000D+00
 -------------------------------------------------------------------
 Center     Atomic                   Forces (Hartrees/Bohr)
 Number     Number              X              Y              Z
 -------------------------------------------------------------------
      1        6           0.004849617   -0.009992583   -0.004429940
      2        9          -0.000079838    0.002934122    0.000134954
      3        9          -0.003784179    0.004439224    0.005521846
      4       16           0.005178852   -0.001973513   -0.004368740
      5        8          -0.006467952    0.007837790    0.004403356
      6        8          -0.008279519   -0.007089602   -0.000197152
      7        8           0.011955341   -0.000467788    0.001329319
      8        1          -0.003372322    0.004312349   -0.002393644
 -------------------------------------------------------------------
 Cartesian Forces:  Max     0.011955341 RMS     0.005354392
 Force constants in Cartesian coordinates: 
                1             2             3             4             5 
      1  0.205642D+00
      2 -0.549813D-01  0.527682D+00
      3 -0.118997D+00 -0.915543D-02  0.468277D+00
      4 -0.360695D-01 -0.192816D-01  0.211363D-01  0.243226D-01
      5 -0.852047D-02 -0.361633D+00  0.811086D-01 -0.241783D-01  0.438289D+00
      6  0.505629D-02  0.680508D-01 -0.839899D-01 -0.803530D-02 -0.529345D-01
      7 -0.106101D+00  0.617663D-01  0.143296D+00  0.698887D-02  0.258817D-01
      8  0.635426D-01 -0.104303D+00 -0.902588D-01  0.289309D-01 -0.573822D-01
      9  0.115910D+00 -0.932876D-01 -0.267543D+00 -0.182487D-02 -0.326455D-01
     10 -0.560717D-01  0.960840D-02 -0.549067D-01  0.422999D-02 -0.477887D-03
     11 -0.123840D-01 -0.436353D-01  0.312075D-01  0.166481D-01 -0.262489D-01
     12  0.131750D-02  0.397051D-01 -0.131426D+00 -0.116475D-01 -0.173225D-01
     13  0.422709D-02  0.513395D-02 -0.298843D-02 -0.790079D-03 -0.439220D-02
     14  0.562532D-02 -0.302217D-02  0.431410D-03 -0.120450D-02  0.729908D-02
     15  0.179369D-01 -0.242915D-01 -0.109267D-02  0.328866D-04  0.760230D-02
     16 -0.186260D-01 -0.594725D-02  0.161815D-01  0.117737D-02  0.105669D-01
     17  0.101460D-01  0.648348D-02 -0.118938D-02 -0.253471D-02  0.138603D-02
     18 -0.247645D-01 -0.540502D-02  0.452316D-02  0.201561D-02  0.711928D-02
     19  0.548969D-02  0.419477D-02 -0.164109D-02  0.499245D-03  0.147429D-02
     20 -0.493155D-02 -0.186608D-01 -0.161429D-01  0.164891D-02 -0.513337D-02
     21  0.528895D-02  0.183815D-01  0.599217D-02 -0.175834D-02  0.737587D-02
     22  0.150881D-02 -0.493281D-03 -0.208009D-02 -0.358477D-03 -0.354073D-03
     23  0.150333D-02 -0.291152D-02  0.399912D-02 -0.288652D-04  0.342286D-02
     24 -0.174794D-02  0.600218D-02  0.525949D-02  0.812126D-04 -0.303583D-03
                6             7             8             9            10 
      6  0.766857D-01
      7 -0.378722D-04  0.901077D-01
      8 -0.445138D-01 -0.894103D-01  0.157654D+00
      9  0.110600D-01 -0.131775D+00  0.141635D+00  0.288081D+00
     10  0.846378D-02  0.111817D-02 -0.230654D-05  0.274789D-01  0.104021D+01
     11  0.271246D-01  0.104767D-01 -0.566195D-02 -0.324485D-01 -0.124763D+00
     12  0.711508D-02 -0.170357D-01 -0.415888D-02 -0.148703D-01 -0.172293D+00
     13 -0.547257D-03  0.131637D-02  0.337046D-03 -0.130938D-02 -0.255505D+00
     14 -0.115183D-02 -0.122928D-02  0.173931D-02  0.732150D-03  0.152290D+00
     15 -0.188259D-02  0.365143D-03 -0.730858D-03 -0.149297D-01  0.205726D+00
     16 -0.382908D-02  0.792247D-02 -0.429053D-02 -0.872862D-02 -0.660436D+00
     17 -0.221055D-02 -0.300789D-02  0.229496D-02  0.436787D-02  0.105207D-01
     18 -0.121270D-02  0.380104D-02 -0.123245D-03  0.916505D-03 -0.158372D-01
     19 -0.139383D-02 -0.509048D-03 -0.157452D-03  0.916177D-05 -0.745491D-01
     20  0.756786D-02 -0.405005D-02  0.512962D-02  0.109197D-01 -0.451266D-01
     21 -0.629649D-02 -0.614375D-03  0.142799D-03  0.170898D-02  0.182593D-02
     22  0.323267D-03 -0.843767D-03  0.104995D-02  0.239589D-03  0.100311D-02
     23 -0.193259D-02 -0.427159D-03  0.529406D-03  0.727355D-03 -0.204892D-02
     24 -0.147901D-02  0.200084D-02 -0.199169D-02 -0.442360D-02 -0.458297D-03
               11            12            13            14            15 
     11  0.601401D+00
     12  0.172395D+00  0.662500D+00
     13  0.152192D+00  0.200443D+00  0.250233D+00
     14 -0.212549D+00 -0.173399D+00 -0.165378D+00  0.214567D+00
     15 -0.183239D+00 -0.343021D+00 -0.223314D+00  0.210159D+00  0.338050D+00
     16  0.576942D-02 -0.891922D-03 -0.982332D-02 -0.457896D-02 -0.583694D-02
     17 -0.762617D-01 -0.219031D-03  0.190339D-01  0.128558D-01 -0.494092D-02
     18 -0.287444D-02 -0.879399D-01  0.313023D-01 -0.728004D-02  0.150600D-01
     19 -0.422211D-01  0.975670D-02  0.100867D-01  0.116623D-01  0.356128D-02
     20 -0.215437D+00  0.209623D-01 -0.640214D-02 -0.149152D-01 -0.604296D-02
     21 -0.875954D-02 -0.941240D-01 -0.234957D-02 -0.339643D-01  0.552206D-02
     22 -0.571762D-02 -0.964934D-02  0.255450D-03  0.281322D-02  0.152850D-02
     23 -0.216077D-01 -0.379630D-01 -0.524452D-03 -0.597464D-02  0.148349D-02
     24 -0.340562D-02  0.176557D-02 -0.123656D-02  0.447212D-02  0.229342D-02
               16            17            18            19            20 
     16  0.699115D+00
     17  0.954394D-02  0.620957D-01
     18  0.272282D-02  0.581233D-02  0.502711D-01
     19 -0.161043D-01 -0.426787D-01 -0.219963D-02  0.745235D-01
     20 -0.120618D-01 -0.927637D-02 -0.237015D-03  0.757723D-01  0.344175D+00
     21 -0.254318D-02 -0.481952D-02  0.192133D-01 -0.156578D-01  0.163908D+00
     22 -0.322579D-02 -0.102330D-02  0.295957D-02  0.563426D-03 -0.484906D-02
     23  0.998270D-03  0.422061D-03  0.298815D-02 -0.804638D-02 -0.858823D-01
     24  0.292541D-02  0.319920D-02 -0.831377D-03  0.756517D-02 -0.180935D+00
               21            22            23            24 
     21  0.527331D+00
     22  0.158083D-01  0.109723D-02
     23 -0.142265D+00  0.857417D-02  0.112002D+00
     24 -0.459347D+00 -0.912985D-02  0.172962D+00  0.456763D+00
 FormGI is forming the generalized inverse of G from B-inverse, IUseBI=4.
 Force constants in internal coordinates: 
                1             2             3             4             5 
      1  0.446426D+00
      2  0.613000D-01  0.448953D+00
      3  0.128921D-01  0.147007D-01  0.168228D+00
      4  0.112628D-01  0.610391D-02  0.213822D-02  0.676377D+00
      5  0.109991D-01  0.121412D-01  0.643599D-04 -0.723032D-03  0.699119D+00
      6  0.208251D-02  0.133301D-01  0.576636D-02  0.794655D-02  0.160640D-01
      7 -0.127106D-02 -0.450307D-02 -0.362384D-03 -0.350880D-02 -0.313744D-02
      8  0.185419D-01  0.154115D-01 -0.135967D-01 -0.462432D-02 -0.161148D-02
      9  0.216576D-01 -0.335107D-01  0.209311D-01 -0.339371D-02  0.287155D-02
     10 -0.332006D-01  0.251141D-01  0.212632D-01  0.129601D-01 -0.367391D-02
     11 -0.492086D-02  0.137130D-01  0.215354D-02  0.150802D-01 -0.956258D-02
     12  0.569078D-02 -0.172367D-02 -0.110767D-02 -0.131899D-01  0.690895D-02
     13  0.143313D-01  0.769960D-02  0.190826D-01 -0.737684D-02 -0.107725D-01
     14 -0.466847D-02 -0.314598D-02 -0.388794D-02  0.383557D-02  0.344228D-02
     15 -0.251803D-02 -0.726398D-02 -0.390888D-02  0.553225D-02 -0.873155D-02
     16 -0.338202D-02 -0.698665D-02 -0.689187D-02 -0.655564D-02  0.152414D-01
     17 -0.578117D-02  0.543184D-02  0.440053D-02  0.434797D-02  0.199706D-02
     18  0.105281D-01  0.658147D-02  0.120738D-01  0.125586D-02 -0.735735D-02
     19  0.479882D-02  0.123169D-01  0.780794D-02  0.828903D-02 -0.517625D-02
     20  0.922264D-02  0.751241D-02  0.840398D-02 -0.630253D-02  0.896871D-02
     21 -0.570459D-02 -0.739562D-02 -0.818365D-02 -0.100646D-02 -0.430862D-02
     22 -0.114338D-01 -0.166024D-02 -0.124495D-01  0.602671D-02 -0.212753D-02
     23 -0.701001D-02 -0.646469D-02 -0.118535D-01 -0.856485D-02  0.120174D-01
     24 -0.277055D-02  0.578059D-02  0.515181D-03  0.958021D-02 -0.681813D-02
     25 -0.277518D-02 -0.104546D-01 -0.889698D-02 -0.546397D-02  0.109068D-01
     26  0.797094D-02  0.482235D-02  0.468716D-02 -0.955383D-02  0.103282D-02
                6             7             8             9            10 
      6  0.306558D+00
      7  0.149530D-02  0.528340D+00
      8 -0.513643D-02  0.204542D-02  0.131139D+00
      9  0.924362D-02 -0.298234D-02 -0.901959D-01  0.156027D+00
     10  0.911663D-03 -0.307581D-03 -0.908824D-01 -0.142717D-01  0.163860D+00
     11 -0.875619D-02  0.147805D-02 -0.684581D-02 -0.785877D-02  0.215453D-01
     12 -0.157740D-01  0.182313D-02  0.788971D-02 -0.959938D-02 -0.118666D-01
     13  0.150964D-01 -0.650784D-02 -0.127686D-01  0.339542D-01 -0.777026D-02
     14 -0.705801D-02  0.951040D-03  0.215124D-02  0.545163D-03 -0.282775D-02
     15  0.691072D-02  0.203602D-02  0.363988D-02 -0.600473D-02 -0.533290D-03
     16  0.148478D-01 -0.154576D-02  0.249569D-02 -0.281283D-02 -0.163346D-03
     17  0.482121D-01  0.174194D-01  0.102955D-02 -0.225302D-02  0.398386D-03
     18  0.141767D-01 -0.113627D-02  0.725536D-02  0.777168D-02  0.345145D-02
     19 -0.148926D-01  0.278622D-02  0.107349D-01 -0.557690D-02  0.800879D-02
     20  0.350155D-02 -0.128843D-02  0.101758D-01  0.361545D-02  0.719916D-03
     21  0.119443D-01 -0.964757D-03 -0.110601D-01  0.302313D-02 -0.554916D-02
     22 -0.171250D-01  0.295773D-02 -0.758051D-02 -0.103254D-01 -0.991822D-03
     23  0.126915D-02 -0.111691D-02 -0.813961D-02 -0.113311D-02 -0.828070D-02
     24 -0.492104D-03  0.101352D-02 -0.522106D-02  0.131312D-02  0.109022D-01
     25  0.601537D-03  0.158324D-02  0.671544D-02 -0.286364D-02 -0.928582D-02
     26 -0.727543D-02 -0.690067D-05 -0.894543D-03  0.329055D-02 -0.503941D-02
               11            12            13            14            15 
     11  0.100789D+00
     12 -0.941797D-03  0.859393D-01
     13 -0.349468D-01 -0.141047D-01  0.213666D+00
     14 -0.395709D-01 -0.319630D-01  0.120475D-01  0.686001D-01
     15 -0.244253D-01 -0.706161D-02 -0.568674D-01 -0.799212D-02  0.877162D-01
     16 -0.294624D-02 -0.285137D-01 -0.699096D-01 -0.119529D-01 -0.190465D-02
     17 -0.654452D-02 -0.606343D-02 -0.838018D-02  0.239495D-02  0.140221D-01
     18 -0.117433D-01 -0.170036D-01  0.134630D-01 -0.163578D-01  0.342271D-01
     19  0.178842D-01  0.794029D-02 -0.104697D-01  0.167850D-01 -0.205946D-02
     20 -0.134508D-02 -0.372171D-02  0.371816D-02 -0.794118D-03 -0.318394D-01
     21 -0.146102D-01 -0.811719D-02  0.689450D-02 -0.173300D-01  0.351834D-01
     22  0.150172D-01  0.168267D-01 -0.170382D-01  0.158128D-01 -0.110313D-02
     23 -0.421203D-02  0.516472D-02 -0.285037D-02 -0.176629D-02 -0.308830D-01
     24  0.353549D-01 -0.301611D-01 -0.384569D-02 -0.132245D-02 -0.717427D-03
     25 -0.532002D-01 -0.209751D-01 -0.404320D-01  0.393651D-01  0.246258D-01
     26  0.198402D-01  0.489979D-01  0.431918D-01 -0.348578D-01 -0.310947D-01
               16            17            18            19            20 
     16  0.998362D-01
     17  0.231051D-02  0.143594D+00
     18  0.476155D-02  0.564383D-02  0.386847D-01
     19 -0.361242D-01 -0.136667D-02 -0.615477D-02  0.371162D-01
     20  0.343097D-01 -0.441996D-02 -0.327659D-04 -0.514279D-02  0.333658D-01
     21  0.398496D-02  0.592623D-02  0.175477D-01 -0.238945D-01 -0.188674D-01
     22 -0.369008D-01 -0.108427D-02 -0.272917D-01  0.193765D-01 -0.239774D-01
     23  0.335331D-01 -0.413756D-02 -0.211697D-01 -0.228825D-01  0.145312D-01
     24 -0.471637D-03 -0.236811D-02  0.336429D-02  0.677154D-02 -0.468083D-02
     25  0.333754D-01  0.428002D-02  0.363108D-03 -0.778014D-02  0.461841D-02
     26 -0.287732D-01 -0.115158D-01 -0.840371D-02  0.503146D-03  0.298906D-02
               21            22            23            24            25 
     21  0.358778D-01
     22 -0.556435D-02  0.411039D-01
     23 -0.537236D-03 -0.224999D-02  0.351637D-01
     24 -0.583369D-03  0.282389D-02 -0.862849D-02  0.229196D-01
     25  0.210718D-02 -0.603607D-02  0.636248D-02 -0.140817D-01  0.544939D-01
     26 -0.550730D-02  0.339956D-02  0.588547D-02 -0.114207D-01 -0.425955D-01
               26 
     26  0.499267D-01
 Leave Link  716 at Fri May 23 02:11:22 2025, MaxMem=  3758096384 cpu:               0.1 elap:               0.0
 (Enter /apps/easybuild-2022/easybuild/software/Compiler/NVHPC/22.11-CUDA-11.7.0/Gaussian/g16c01-CUDA-11.7.0/g16/l103.exe)

 GradGradGradGradGradGradGradGradGradGradGradGradGradGradGradGradGradGrad
 Berny optimization.
 Red2BG is reusing G-inverse.
 Internal  Forces:  Max     0.010454339 RMS     0.004667094
 Search for a local minimum.
 Step number   1 out of a maximum of   36
 All quantities printed in internal units (Hartrees-Bohrs-Radians)
 RMS Force = .46671D-02 SwitMx=.10000D-02 MixMth= 1
 Mixed Optimization -- RFO/linear search
 Second derivative matrix not updated -- analytic derivatives used.
 ITU=  0
     Eigenvalues ---   -0.00360   0.00133   0.05669   0.11945   0.12247
     Eigenvalues ---    0.13116   0.15129   0.16313   0.17302   0.21317
     Eigenvalues ---    0.25940   0.31826   0.33550   0.40477   0.51416
     Eigenvalues ---    0.53038   0.67994   0.70330
 Eigenvalue     1 is  -3.60D-03 should be greater than     0.000000 Eigenvector:
                          D9        D8        D7        D1        D4
   1                   -0.57915  -0.57018  -0.56859  -0.06241  -0.05570
                          D2        D5        D3        D6        A10
   1                   -0.04842  -0.04171  -0.03915  -0.03245  -0.03212
 RFO step:  Lambda=-7.71512726D-03 EMin=-3.60474328D-03
 Linear search not attempted -- first point.
 Iteration  1 RMS(Cart)=  0.05631012 RMS(Int)=  0.12673223
 Iteration  2 RMS(Cart)=  0.05439918 RMS(Int)=  0.05905178
 Iteration  3 RMS(Cart)=  0.04777951 RMS(Int)=  0.00443430
 Iteration  4 RMS(Cart)=  0.00397647 RMS(Int)=  0.00015018
 Iteration  5 RMS(Cart)=  0.00002279 RMS(Int)=  0.00014947
 Iteration  6 RMS(Cart)=  0.00000000 RMS(Int)=  0.00014947
 ITry= 1 IFail=0 DXMaxC= 4.45D-01 DCOld= 1.00D+10 DXMaxT= 3.00D-01 DXLimC= 3.00D+00 Rises=F
 Variable       Old X    -DE/DX   Delta X   Delta X   Delta X     New X
                                 (Linear)    (Quad)   (Total)
    R1        2.47696  -0.00288   0.00000  -0.00747  -0.00747   2.46950
    R2        2.47658   0.00798   0.00000   0.02182   0.02182   2.49841
    R3        3.45126   0.00212   0.00000   0.00224   0.00224   3.45349
    R4        2.71397  -0.01045   0.00000  -0.01823  -0.01823   2.69575
    R5        2.70494   0.00828   0.00000   0.01276   0.01276   2.71771
    R6        3.03034   0.00611   0.00000  -0.00121  -0.00121   3.02913
    R7        1.82495  -0.00062   0.00000   0.00220   0.00220   1.82715
    A1        1.95269   0.00023   0.00000  -0.00069  -0.00072   1.95197
    A2        1.97613   0.00142   0.00000   0.01231   0.01229   1.98842
    A3        1.99837  -0.00193   0.00000  -0.02828  -0.02830   1.97006
    A4        1.85334   0.00198   0.00000   0.02573   0.02578   1.87913
    A5        1.91928  -0.00225   0.00000  -0.02694  -0.02709   1.89220
    A6        1.72387   0.00176   0.00000   0.00587   0.00587   1.72974
    A7        2.15716  -0.00263   0.00000  -0.00384  -0.00351   2.15366
    A8        1.90555  -0.00607   0.00000  -0.05782  -0.05759   1.84796
    A9        1.85632   0.00801   0.00000   0.05753   0.05783   1.91415
   A10        1.92063   0.00661   0.00000   0.01525   0.01525   1.93587
    D1       -0.94138  -0.00079   0.00000  -0.07043  -0.07043  -1.01180
    D2        1.43108  -0.00444   0.00000  -0.07573  -0.07565   1.35543
    D3       -2.91382   0.00452   0.00000  -0.01764  -0.01771  -2.93153
    D4        3.07497  -0.00066   0.00000  -0.05457  -0.05458   3.02039
    D5       -0.83576  -0.00431   0.00000  -0.05987  -0.05980  -0.89556
    D6        1.10252   0.00465   0.00000  -0.00178  -0.00186   1.10067
    D7       -0.54147  -0.00252   0.00000  -0.56437  -0.56459  -1.10606
    D8       -2.47235  -0.00366   0.00000  -0.57808  -0.57829  -3.05064
    D9        1.44672  -0.00189   0.00000  -0.57410  -0.57367   0.87306
         Item               Value     Threshold  Converged?
 Maximum Force            0.010454     0.000015     NO 
 RMS     Force            0.004667     0.000010     NO 
 Maximum Displacement     0.444610     0.000060     NO 
 RMS     Displacement     0.146043     0.000040     NO 
 Predicted change in Energy=-7.685993D-03
 Lowest energy point so far.  Saving SCF results.
 GradGradGradGradGradGradGradGradGradGradGradGradGradGradGradGradGradGrad

 Leave Link  103 at Fri May 23 02:11:22 2025, MaxMem=  3758096384 cpu:               0.1 elap:               0.1
 (Enter /apps/easybuild-2022/easybuild/software/Compiler/NVHPC/22.11-CUDA-11.7.0/Gaussian/g16c01-CUDA-11.7.0/g16/l202.exe)
                          Input orientation:                          
 ---------------------------------------------------------------------
 Center     Atomic      Atomic             Coordinates (Angstroms)
 Number     Number       Type             X           Y           Z
 ---------------------------------------------------------------------
      1          6           0        2.082011   -0.547934    1.659923
      2          9           0        1.990654   -1.837383    1.851512
      3          9           0        1.558984    0.136585    2.662832
      4         16           0        1.471513    0.004069    0.028244
      5          8           0        2.219755   -0.687157   -0.970417
      6          8           0        0.034043    0.028039    0.065358
      7          8           0        2.036709    1.504019    0.040052
      8          1           0        1.633283    2.019335    0.751788
 ---------------------------------------------------------------------
                    Distance matrix (angstroms):
                    1          2          3          4          5
     1  C    0.000000
     2  F    1.306802   0.000000
     3  F    1.322101   2.177414   0.000000
     4  S    1.827510   2.642869   2.639369   0.000000
     5  O    2.637621   3.055943   3.783605   1.426528   0.000000
     6  O    2.658676   3.240134   3.013984   1.438149   2.522235
     7  O    2.614679   3.801115   2.996177   1.602946   2.419877
     8  H    2.759879   4.026335   2.683721   2.147319   3.261140
                    6          7          8
     6  O    0.000000
     7  O    2.487937   0.000000
     8  H    2.644620   0.966887   0.000000
 Symmetry turned off by external request.
 Stoichiometry    CHF2O3S
 Rotational constants (GHZ):           3.4217540           2.0040527           1.7021260
 Leave Link  202 at Fri May 23 02:11:22 2025, MaxMem=  3758096384 cpu:               0.1 elap:               0.0
 (Enter /apps/easybuild-2022/easybuild/software/Compiler/NVHPC/22.11-CUDA-11.7.0/Gaussian/g16c01-CUDA-11.7.0/g16/l301.exe)
 Standard basis: 6-311++G(d,p) (5D, 7F)
 Ernie: Thresh=  0.10000D-02 Tol=  0.10000D-05 Strict=F.
   169 basis functions,   275 primitive gaussians,   176 cartesian basis functions
    33 alpha electrons       32 beta electrons
       nuclear repulsion energy       440.4453958626 Hartrees.
 IExCor= 4639 DFT=T Ex+Corr=wB97XD ExCW=0 ScaHFX=  1.000000
 ScaDFX=  1.000000  1.000000  1.000000  1.000000 ScalE2=  1.000000  1.000000
 IRadAn=      5 IRanWt=     -1 IRanGd=            0 ICorTp=0 IEmpDi=121
 HFx  wShort=  0.000000 wLong=  0.200000 cFull=  0.222036 cShort=  0.000000 cLong=  0.777964
 DFx  wShort=  0.000000 wLong=  0.200000 cFull=  0.000000 cShort=  0.000000 cLong=  1.000000
 NAtoms=    8 NActive=    8 NUniq=    8 SFac= 1.00D+00 NAtFMM=   60 NAOKFM=F Big=F
 Integral buffers will be    131072 words long.
 Raffenetti 2 integral format.
 Two-electron integral symmetry is turned off.
 R6Disp:  Grimme-D2 Dispersion energy=       -0.0022490433 Hartrees.
 Nuclear repulsion after empirical dispersion term =      440.4431468193 Hartrees.
 Leave Link  301 at Fri May 23 02:11:22 2025, MaxMem=  3758096384 cpu:               0.1 elap:               0.0
 (Enter /apps/easybuild-2022/easybuild/software/Compiler/NVHPC/22.11-CUDA-11.7.0/Gaussian/g16c01-CUDA-11.7.0/g16/l302.exe)
 NPDir=0 NMtPBC=     1 NCelOv=     1 NCel=       1 NClECP=     1 NCelD=      1
         NCelK=      1 NCelE2=     1 NClLst=     1 CellRange=     0.0.
 One-electron integrals computed using PRISM.
 NBasis=   169 RedAO= T EigKep=  2.49D-04  NBF=   169
 NBsUse=   169 1.00D-06 EigRej= -1.00D+00 NBFU=   169
 Precomputing XC quadrature grid using
 IXCGrd= 4 IRadAn=           5 IRanWt=          -1 IRanGd=           0 AccXCQ= 0.00D+00.
 Generated NRdTot=       0 NPtTot=           0 NUsed=           0 NTot=          32
 NSgBfM=   176   176   176   176   176 MxSgAt=     8 MxSgA2=     8.
 Leave Link  302 at Fri May 23 02:11:22 2025, MaxMem=  3758096384 cpu:               0.6 elap:               0.2
 (Enter /apps/easybuild-2022/easybuild/software/Compiler/NVHPC/22.11-CUDA-11.7.0/Gaussian/g16c01-CUDA-11.7.0/g16/l303.exe)
 DipDrv:  MaxL=1.
 Leave Link  303 at Fri May 23 02:11:22 2025, MaxMem=  3758096384 cpu:               0.1 elap:               0.0
 (Enter /apps/easybuild-2022/easybuild/software/Compiler/NVHPC/22.11-CUDA-11.7.0/Gaussian/g16c01-CUDA-11.7.0/g16/l401.exe)
 Initial guess from the checkpoint file:  "/tmp/Gau-89210.chk"
 B after Tr=     0.063195    0.130212    0.059536
         Rot=    0.999706   -0.007291   -0.002991    0.022952 Ang=  -2.78 deg.
 Guess basis will be translated and rotated to current coordinates.
 JPrj=2 DoOrth=T DoCkMO=T.
 Initial guess <Sx>= 0.0000 <Sy>= 0.0000 <Sz>= 0.5000 <S**2>= 0.7532 S= 0.5016
 Generating alternative initial guess.
 ExpMin= 3.60D-02 ExpMax= 9.34D+04 ExpMxC= 3.17D+03 IAcc=3 IRadAn=         5 AccDes= 0.00D+00
 Harris functional with IExCor= 4639 and IRadAn=       5 diagonalized for initial guess.
 HarFok:  IExCor= 4639 AccDes= 0.00D+00 IRadAn=         5 IDoV= 1 UseB2=F ITyADJ=14
 ICtDFT=  3500011 ScaDFX=  1.000000  1.000000  1.000000  1.000000
 FoFCou: FMM=F IPFlag=           0 FMFlag=      100000 FMFlg1=           0
         NFxFlg=           0 DoJE=T BraDBF=F KetDBF=T FulRan=T
         wScrn=  0.000000 ICntrl=       500 IOpCl=  0 I1Cent=   200000004 NGrid=           0
         NMat0=    1 NMatS0=      1 NMatT0=    0 NMatD0=    1 NMtDS0=    0 NMtDT0=    0
 Symmetry not used in FoFCou.
 Harris En= -839.990620533895    
 Leave Link  401 at Fri May 23 02:11:23 2025, MaxMem=  3758096384 cpu:               1.4 elap:               0.3
 (Enter /apps/easybuild-2022/easybuild/software/Compiler/NVHPC/22.11-CUDA-11.7.0/Gaussian/g16c01-CUDA-11.7.0/g16/l502.exe)
 Keep R1 and R2 ints in memory in canonical form, NReq=423234435.
 FoFCou: FMM=F IPFlag=           0 FMFlag=           0 FMFlg1=           0
         NFxFlg=           0 DoJE=F BraDBF=F KetDBF=F FulRan=T
         wScrn=  0.000000 ICntrl=       600 IOpCl=  0 I1Cent=           0 NGrid=           0
         NMat0=    1 NMatS0=  14365 NMatT0=    0 NMatD0=    1 NMtDS0=    0 NMtDT0=    0
 Symmetry not used in FoFCou.
 Two-electron integral symmetry not used.
 UHF open shell SCF:
 Using DIIS extrapolation, IDIIS=  1040.
 NGot=  3758096384 LenX=  3345296366 LenY=  3345264949
 Requested convergence on RMS density matrix=1.00D-08 within  32 cycles.
 Requested convergence on MAX density matrix=1.00D-06.
 Requested convergence on             energy=1.00D-06.
 No special actions if energy rises.

 Cycle   1  Pass 1  IDiag  1:
 E= -862.066719841132    
 DIIS: error= 9.68D-03 at cycle   1 NSaved=   1.
 NSaved= 1 IEnMin= 1 EnMin= -862.066719841132     IErMin= 1 ErrMin= 9.68D-03
 ErrMax= 9.68D-03  0.00D+00 EMaxC= 1.00D-01 BMatC= 1.31D-01 BMatP= 1.31D-01
 IDIUse=3 WtCom= 9.03D-01 WtEn= 9.68D-02
 Coeff-Com:  0.100D+01
 Coeff-En:   0.100D+01
 Coeff:      0.100D+01
 Gap=     0.603 Goal=   None    Shift=    0.000
 Gap=     0.655 Goal=   None    Shift=    0.000
 GapD=    0.603 DampG=2.000 DampE=1.000 DampFc=2.0000 IDamp=-1.
 RMSDP=3.03D-03 MaxDP=5.60D-02              OVMax= 6.60D-02

 Cycle   2  Pass 1  IDiag  1:
 E= -862.106401241928     Delta-E=       -0.039681400796 Rises=F Damp=F
 DIIS: error= 2.31D-03 at cycle   2 NSaved=   2.
 NSaved= 2 IEnMin= 2 EnMin= -862.106401241928     IErMin= 2 ErrMin= 2.31D-03
 ErrMax= 2.31D-03  0.00D+00 EMaxC= 1.00D-01 BMatC= 4.84D-03 BMatP= 1.31D-01
 IDIUse=3 WtCom= 9.77D-01 WtEn= 2.31D-02
 Coeff-Com: -0.992D-01 0.110D+01
 Coeff-En:   0.000D+00 0.100D+01
 Coeff:     -0.969D-01 0.110D+01
 Gap=     0.400 Goal=   None    Shift=    0.000
 Gap=     0.370 Goal=   None    Shift=    0.000
 RMSDP=7.72D-04 MaxDP=2.37D-02 DE=-3.97D-02 OVMax= 2.16D-02

 Cycle   3  Pass 1  IDiag  1:
 E= -862.108096357359     Delta-E=       -0.001695115431 Rises=F Damp=F
 DIIS: error= 1.46D-03 at cycle   3 NSaved=   3.
 NSaved= 3 IEnMin= 3 EnMin= -862.108096357359     IErMin= 3 ErrMin= 1.46D-03
 ErrMax= 1.46D-03  0.00D+00 EMaxC= 1.00D-01 BMatC= 2.49D-03 BMatP= 4.84D-03
 IDIUse=3 WtCom= 9.85D-01 WtEn= 1.46D-02
 Coeff-Com: -0.699D-01 0.487D+00 0.583D+00
 Coeff-En:   0.000D+00 0.000D+00 0.100D+01
 Coeff:     -0.688D-01 0.480D+00 0.589D+00
 Gap=     0.401 Goal=   None    Shift=    0.000
 Gap=     0.370 Goal=   None    Shift=    0.000
 RMSDP=1.83D-04 MaxDP=4.29D-03 DE=-1.70D-03 OVMax= 6.53D-03

 Cycle   4  Pass 1  IDiag  1:
 E= -862.108500314024     Delta-E=       -0.000403956665 Rises=F Damp=F
 DIIS: error= 4.47D-04 at cycle   4 NSaved=   4.
 NSaved= 4 IEnMin= 4 EnMin= -862.108500314024     IErMin= 4 ErrMin= 4.47D-04
 ErrMax= 4.47D-04  0.00D+00 EMaxC= 1.00D-01 BMatC= 3.42D-04 BMatP= 2.49D-03
 IDIUse=3 WtCom= 9.96D-01 WtEn= 4.47D-03
 Coeff-Com: -0.927D-02-0.278D-02 0.257D+00 0.755D+00
 Coeff-En:   0.000D+00 0.000D+00 0.000D+00 0.100D+01
 Coeff:     -0.923D-02-0.277D-02 0.256D+00 0.756D+00
 Gap=     0.400 Goal=   None    Shift=    0.000
 Gap=     0.370 Goal=   None    Shift=    0.000
 RMSDP=1.09D-04 MaxDP=3.36D-03 DE=-4.04D-04 OVMax= 2.86D-03

 Cycle   5  Pass 1  IDiag  1:
 E= -862.108573696479     Delta-E=       -0.000073382455 Rises=F Damp=F
 DIIS: error= 1.70D-04 at cycle   5 NSaved=   5.
 NSaved= 5 IEnMin= 5 EnMin= -862.108573696479     IErMin= 5 ErrMin= 1.70D-04
 ErrMax= 1.70D-04  0.00D+00 EMaxC= 1.00D-01 BMatC= 3.24D-05 BMatP= 3.42D-04
 IDIUse=3 WtCom= 9.98D-01 WtEn= 1.70D-03
 Coeff-Com:  0.457D-02-0.588D-01 0.344D-01 0.299D+00 0.721D+00
 Coeff-En:   0.000D+00 0.000D+00 0.000D+00 0.000D+00 0.100D+01
 Coeff:      0.456D-02-0.587D-01 0.343D-01 0.299D+00 0.721D+00
 Gap=     0.400 Goal=   None    Shift=    0.000
 Gap=     0.370 Goal=   None    Shift=    0.000
 RMSDP=3.83D-05 MaxDP=1.60D-03 DE=-7.34D-05 OVMax= 1.29D-03

 Cycle   6  Pass 1  IDiag  1:
 E= -862.108580901897     Delta-E=       -0.000007205418 Rises=F Damp=F
 DIIS: error= 6.54D-05 at cycle   6 NSaved=   6.
 NSaved= 6 IEnMin= 6 EnMin= -862.108580901897     IErMin= 6 ErrMin= 6.54D-05
 ErrMax= 6.54D-05  0.00D+00 EMaxC= 1.00D-01 BMatC= 7.72D-06 BMatP= 3.24D-05
 IDIUse=1 WtCom= 1.00D+00 WtEn= 0.00D+00
 Coeff-Com:  0.347D-02-0.291D-01-0.211D-01 0.445D-01 0.382D+00 0.620D+00
 Coeff:      0.347D-02-0.291D-01-0.211D-01 0.445D-01 0.382D+00 0.620D+00
 Gap=     0.400 Goal=   None    Shift=    0.000
 Gap=     0.370 Goal=   None    Shift=    0.000
 RMSDP=1.35D-05 MaxDP=3.44D-04 DE=-7.21D-06 OVMax= 4.18D-04

 Cycle   7  Pass 1  IDiag  1:
 E= -862.108582590705     Delta-E=       -0.000001688808 Rises=F Damp=F
 DIIS: error= 2.73D-05 at cycle   7 NSaved=   7.
 NSaved= 7 IEnMin= 7 EnMin= -862.108582590705     IErMin= 7 ErrMin= 2.73D-05
 ErrMax= 2.73D-05  0.00D+00 EMaxC= 1.00D-01 BMatC= 3.32D-07 BMatP= 7.72D-06
 IDIUse=1 WtCom= 1.00D+00 WtEn= 0.00D+00
 Coeff-Com:  0.545D-03-0.269D-02-0.994D-02-0.156D-01 0.328D-01 0.161D+00
 Coeff-Com:  0.834D+00
 Coeff:      0.545D-03-0.269D-02-0.994D-02-0.156D-01 0.328D-01 0.161D+00
 Coeff:      0.834D+00
 Gap=     0.400 Goal=   None    Shift=    0.000
 Gap=     0.370 Goal=   None    Shift=    0.000
 RMSDP=5.44D-06 MaxDP=1.14D-04 DE=-1.69D-06 OVMax= 2.42D-04

 Cycle   8  Pass 1  IDiag  1:
 E= -862.108582729817     Delta-E=       -0.000000139112 Rises=F Damp=F
 DIIS: error= 1.43D-05 at cycle   8 NSaved=   8.
 NSaved= 8 IEnMin= 8 EnMin= -862.108582729817     IErMin= 8 ErrMin= 1.43D-05
 ErrMax= 1.43D-05  0.00D+00 EMaxC= 1.00D-01 BMatC= 1.27D-07 BMatP= 3.32D-07
 IDIUse=1 WtCom= 1.00D+00 WtEn= 0.00D+00
 Coeff-Com: -0.350D-03 0.394D-02-0.132D-02-0.162D-01-0.510D-01-0.317D-01
 Coeff-Com:  0.412D+00 0.685D+00
 Coeff:     -0.350D-03 0.394D-02-0.132D-02-0.162D-01-0.510D-01-0.317D-01
 Coeff:      0.412D+00 0.685D+00
 Gap=     0.400 Goal=   None    Shift=    0.000
 Gap=     0.370 Goal=   None    Shift=    0.000
 RMSDP=2.42D-06 MaxDP=5.30D-05 DE=-1.39D-07 OVMax= 1.21D-04

 Cycle   9  Pass 1  IDiag  1:
 E= -862.108582768467     Delta-E=       -0.000000038649 Rises=F Damp=F
 DIIS: error= 6.41D-06 at cycle   9 NSaved=   9.
 NSaved= 9 IEnMin= 9 EnMin= -862.108582768467     IErMin= 9 ErrMin= 6.41D-06
 ErrMax= 6.41D-06  0.00D+00 EMaxC= 1.00D-01 BMatC= 1.72D-08 BMatP= 1.27D-07
 IDIUse=1 WtCom= 1.00D+00 WtEn= 0.00D+00
 Coeff-Com: -0.232D-03 0.203D-02 0.147D-02-0.340D-02-0.258D-01-0.443D-01
 Coeff-Com:  0.983D-02 0.282D+00 0.778D+00
 Coeff:     -0.232D-03 0.203D-02 0.147D-02-0.340D-02-0.258D-01-0.443D-01
 Coeff:      0.983D-02 0.282D+00 0.778D+00
 Gap=     0.400 Goal=   None    Shift=    0.000
 Gap=     0.370 Goal=   None    Shift=    0.000
 RMSDP=1.18D-06 MaxDP=2.86D-05 DE=-3.86D-08 OVMax= 6.86D-05

 Cycle  10  Pass 1  IDiag  1:
 E= -862.108582776052     Delta-E=       -0.000000007585 Rises=F Damp=F
 DIIS: error= 2.68D-06 at cycle  10 NSaved=  10.
 NSaved=10 IEnMin=10 EnMin= -862.108582776052     IErMin=10 ErrMin= 2.68D-06
 ErrMax= 2.68D-06  0.00D+00 EMaxC= 1.00D-01 BMatC= 1.60D-09 BMatP= 1.72D-08
 IDIUse=1 WtCom= 1.00D+00 WtEn= 0.00D+00
 Coeff-Com:  0.153D-04-0.270D-03 0.485D-03 0.188D-02 0.357D-02-0.304D-02
 Coeff-Com: -0.563D-01-0.646D-01 0.104D+00 0.101D+01
 Coeff:      0.153D-04-0.270D-03 0.485D-03 0.188D-02 0.357D-02-0.304D-02
 Coeff:     -0.563D-01-0.646D-01 0.104D+00 0.101D+01
 Gap=     0.400 Goal=   None    Shift=    0.000
 Gap=     0.370 Goal=   None    Shift=    0.000
 RMSDP=5.45D-07 MaxDP=1.29D-05 DE=-7.59D-09 OVMax= 3.47D-05

 Cycle  11  Pass 1  IDiag  1:
 E= -862.108582777352     Delta-E=       -0.000000001300 Rises=F Damp=F
 DIIS: error= 8.78D-07 at cycle  11 NSaved=  11.
 NSaved=11 IEnMin=11 EnMin= -862.108582777352     IErMin=11 ErrMin= 8.78D-07
 ErrMax= 8.78D-07  0.00D+00 EMaxC= 1.00D-01 BMatC= 6.02D-10 BMatP= 1.60D-09
 IDIUse=1 WtCom= 1.00D+00 WtEn= 0.00D+00
 Coeff-Com:  0.471D-04-0.476D-03-0.479D-04 0.146D-02 0.636D-02 0.605D-02
 Coeff-Com: -0.299D-01-0.805D-01-0.800D-01 0.487D+00 0.690D+00
 Coeff:      0.471D-04-0.476D-03-0.479D-04 0.146D-02 0.636D-02 0.605D-02
 Coeff:     -0.299D-01-0.805D-01-0.800D-01 0.487D+00 0.690D+00
 Gap=     0.400 Goal=   None    Shift=    0.000
 Gap=     0.370 Goal=   None    Shift=    0.000
 RMSDP=1.86D-07 MaxDP=4.07D-06 DE=-1.30D-09 OVMax= 1.11D-05

 Cycle  12  Pass 1  IDiag  1:
 E= -862.108582777572     Delta-E=       -0.000000000220 Rises=F Damp=F
 DIIS: error= 2.20D-07 at cycle  12 NSaved=  12.
 NSaved=12 IEnMin=12 EnMin= -862.108582777572     IErMin=12 ErrMin= 2.20D-07
 ErrMax= 2.20D-07  0.00D+00 EMaxC= 1.00D-01 BMatC= 4.88D-11 BMatP= 6.02D-10
 IDIUse=1 WtCom= 1.00D+00 WtEn= 0.00D+00
 Coeff-Com:  0.568D-05-0.416D-04-0.102D-03-0.384D-04 0.642D-03 0.146D-02
 Coeff-Com:  0.448D-02-0.375D-02-0.351D-01-0.828D-01 0.139D+00 0.977D+00
 Coeff:      0.568D-05-0.416D-04-0.102D-03-0.384D-04 0.642D-03 0.146D-02
 Coeff:      0.448D-02-0.375D-02-0.351D-01-0.828D-01 0.139D+00 0.977D+00
 Gap=     0.400 Goal=   None    Shift=    0.000
 Gap=     0.370 Goal=   None    Shift=    0.000
 RMSDP=7.96D-08 MaxDP=1.40D-06 DE=-2.20D-10 OVMax= 4.56D-06

 Cycle  13  Pass 1  IDiag  1:
 E= -862.108582777603     Delta-E=       -0.000000000030 Rises=F Damp=F
 DIIS: error= 9.99D-08 at cycle  13 NSaved=  13.
 NSaved=13 IEnMin=13 EnMin= -862.108582777603     IErMin=13 ErrMin= 9.99D-08
 ErrMax= 9.99D-08  0.00D+00 EMaxC= 1.00D-01 BMatC= 7.10D-12 BMatP= 4.88D-11
 IDIUse=1 WtCom= 1.00D+00 WtEn= 0.00D+00
 Coeff-Com: -0.481D-05 0.530D-04-0.124D-04-0.204D-03-0.655D-03-0.501D-03
 Coeff-Com:  0.491D-02 0.980D-02 0.268D-02-0.813D-01-0.608D-01 0.209D+00
 Coeff-Com:  0.917D+00
 Coeff:     -0.481D-05 0.530D-04-0.124D-04-0.204D-03-0.655D-03-0.501D-03
 Coeff:      0.491D-02 0.980D-02 0.268D-02-0.813D-01-0.608D-01 0.209D+00
 Coeff:      0.917D+00
 Gap=     0.400 Goal=   None    Shift=    0.000
 Gap=     0.370 Goal=   None    Shift=    0.000
 RMSDP=2.95D-08 MaxDP=7.47D-07 DE=-3.05D-11 OVMax= 1.41D-06

 Cycle  14  Pass 1  IDiag  1:
 E= -862.108582777627     Delta-E=       -0.000000000025 Rises=F Damp=F
 DIIS: error= 4.19D-08 at cycle  14 NSaved=  14.
 NSaved=14 IEnMin=14 EnMin= -862.108582777627     IErMin=14 ErrMin= 4.19D-08
 ErrMax= 4.19D-08  0.00D+00 EMaxC= 1.00D-01 BMatC= 1.35D-12 BMatP= 7.10D-12
 IDIUse=1 WtCom= 1.00D+00 WtEn= 0.00D+00
 Coeff-Com: -0.186D-05 0.173D-04 0.174D-04-0.391D-04-0.247D-03-0.358D-03
 Coeff-Com:  0.295D-03 0.271D-02 0.663D-02-0.335D-02-0.340D-01-0.125D+00
 Coeff-Com:  0.182D+00 0.971D+00
 Coeff:     -0.186D-05 0.173D-04 0.174D-04-0.391D-04-0.247D-03-0.358D-03
 Coeff:      0.295D-03 0.271D-02 0.663D-02-0.335D-02-0.340D-01-0.125D+00
 Coeff:      0.182D+00 0.971D+00
 Gap=     0.400 Goal=   None    Shift=    0.000
 Gap=     0.370 Goal=   None    Shift=    0.000
 RMSDP=1.49D-08 MaxDP=4.55D-07 DE=-2.46D-11 OVMax= 8.69D-07

 Cycle  15  Pass 1  IDiag  1:
 E= -862.108582777635     Delta-E=       -0.000000000007 Rises=F Damp=F
 DIIS: error= 2.28D-08 at cycle  15 NSaved=  15.
 NSaved=15 IEnMin=15 EnMin= -862.108582777635     IErMin=15 ErrMin= 2.28D-08
 ErrMax= 2.28D-08  0.00D+00 EMaxC= 1.00D-01 BMatC= 3.34D-13 BMatP= 1.35D-12
 IDIUse=1 WtCom= 1.00D+00 WtEn= 0.00D+00
 Coeff-Com:  0.405D-06-0.535D-05 0.783D-05 0.274D-04 0.529D-04-0.183D-04
 Coeff-Com: -0.877D-03-0.110D-02 0.146D-02 0.153D-01 0.226D-02-0.787D-01
 Coeff-Com: -0.141D+00 0.327D+00 0.876D+00
 Coeff:      0.405D-06-0.535D-05 0.783D-05 0.274D-04 0.529D-04-0.183D-04
 Coeff:     -0.877D-03-0.110D-02 0.146D-02 0.153D-01 0.226D-02-0.787D-01
 Coeff:     -0.141D+00 0.327D+00 0.876D+00
 Gap=     0.400 Goal=   None    Shift=    0.000
 Gap=     0.370 Goal=   None    Shift=    0.000
 RMSDP=7.23D-09 MaxDP=2.89D-07 DE=-7.28D-12 OVMax= 3.87D-07

 SCF Done:  E(UwB97XD) =  -862.108582778     A.U. after   15 cycles
            NFock= 15  Conv=0.72D-08     -V/T= 2.0018
 <Sx>= 0.0000 <Sy>= 0.0000 <Sz>= 0.5000 <S**2>= 0.7531 S= 0.5016
 <L.S>=  0.00000000000    
 KE= 8.605402368515D+02 PE=-2.924911304381D+03 EE= 7.618193379327D+02
 Annihilation of the first spin contaminant:
 S**2 before annihilation     0.7531,   after     0.7500
 Leave Link  502 at Fri May 23 02:11:30 2025, MaxMem=  3758096384 cpu:              37.1 elap:               7.6
 (Enter /apps/easybuild-2022/easybuild/software/Compiler/NVHPC/22.11-CUDA-11.7.0/Gaussian/g16c01-CUDA-11.7.0/g16/l508.exe)
 QCSCF skips out because SCF is already converged.
 Leave Link  508 at Fri May 23 02:11:30 2025, MaxMem=  3758096384 cpu:               0.1 elap:               0.0
 (Enter /apps/easybuild-2022/easybuild/software/Compiler/NVHPC/22.11-CUDA-11.7.0/Gaussian/g16c01-CUDA-11.7.0/g16/l701.exe)
 ... and contract with generalized density number  0.
 Compute integral first derivatives.
 R6Disp: Adding Grimme-D2 dispersion energy 1st derivatives to the gradient.
 Leave Link  701 at Fri May 23 02:11:31 2025, MaxMem=  3758096384 cpu:               0.5 elap:               0.3
 (Enter /apps/easybuild-2022/easybuild/software/Compiler/NVHPC/22.11-CUDA-11.7.0/Gaussian/g16c01-CUDA-11.7.0/g16/l702.exe)
 L702 exits ... SP integral derivatives will be done elsewhere.
 Leave Link  702 at Fri May 23 02:11:31 2025, MaxMem=  3758096384 cpu:               0.1 elap:               0.0
 (Enter /apps/easybuild-2022/easybuild/software/Compiler/NVHPC/22.11-CUDA-11.7.0/Gaussian/g16c01-CUDA-11.7.0/g16/l703.exe)
 Integral derivatives from FoFJK, PRISM(SPDF).
 Compute integral first derivatives, UseDBF=F ICtDFT=           0.
 Calling FoFJK, ICntrl=      2127 FMM=F ISym2X=0 I1Cent= 0 IOpClX= 1 NMat=1 NMatS=1 NMatT=0.
 FoFJK:  IHMeth= 1 ICntrl=    2127 DoSepK=T KAlg= 0 I1Cent=           0 FoldK=F
 IRaf=         1 NMat=       1 IRICut=       1 DoRegI=T DoRafI=F ISym2E= 0 IDoP0=0 IntGTp=1.
 FoFCou: FMM=F IPFlag=           0 FMFlag=      100000 FMFlg1=         800
         NFxFlg=           0 DoJE=F BraDBF=F KetDBF=F FulRan=T
         wScrn=  0.000000 ICntrl=      2527 IOpCl=  0 I1Cent=           0 NGrid=           0
         NMat0=    1 NMatS0=      1 NMatT0=    0 NMatD0=    1 NMtDS0=    0 NMtDT0=    0
 Symmetry not used in FoFCou.
 Leave Link  703 at Fri May 23 02:11:32 2025, MaxMem=  3758096384 cpu:              10.7 elap:               1.5
 (Enter /apps/easybuild-2022/easybuild/software/Compiler/NVHPC/22.11-CUDA-11.7.0/Gaussian/g16c01-CUDA-11.7.0/g16/l716.exe)
 Dipole        = 2.17208152D-01 7.59289045D-01 1.04098490D+00
 -------------------------------------------------------------------
 Center     Atomic                   Forces (Hartrees/Bohr)
 Number     Number              X              Y              Z
 -------------------------------------------------------------------
      1        6           0.000810868    0.000316396    0.000382073
      2        9          -0.000448619    0.000032429    0.000112424
      3        9           0.000691486   -0.000643727   -0.000603350
      4       16           0.000252500   -0.000130902   -0.001408362
      5        8          -0.000320093   -0.001499460   -0.000983970
      6        8          -0.000191808    0.000561859    0.000539083
      7        8           0.001394813   -0.000189325    0.005053230
      8        1          -0.002189147    0.001552729   -0.003091130
 -------------------------------------------------------------------
 Cartesian Forces:  Max     0.005053230 RMS     0.001481504
 Leave Link  716 at Fri May 23 02:11:32 2025, MaxMem=  3758096384 cpu:               0.1 elap:               0.0
 (Enter /apps/easybuild-2022/easybuild/software/Compiler/NVHPC/22.11-CUDA-11.7.0/Gaussian/g16c01-CUDA-11.7.0/g16/l103.exe)

 GradGradGradGradGradGradGradGradGradGradGradGradGradGradGradGradGradGrad
 Berny optimization.
 Using GEDIIS/GDIIS optimizer.
 FormGI is forming the generalized inverse of G from B-inverse, IUseBI=4.
 Internal  Forces:  Max     0.002621864 RMS     0.001141125
 Search for a local minimum.
 Step number   2 out of a maximum of   36
 All quantities printed in internal units (Hartrees-Bohrs-Radians)
 RMS Force = .11411D-02 SwitMx=.10000D-02 MixMth= 1
 Mixed Optimization -- RFO/linear search
 Update second derivatives using D2CorX and points    1    2
 DE= -5.95D-03 DEPred=-7.69D-03 R= 7.74D-01
 TightC=F SS=  1.41D+00  RLast= 1.01D+00 DXNew= 5.0454D-01 3.0152D+00
 Trust test= 7.74D-01 RLast= 1.01D+00 DXMaxT set to 5.05D-01
 ITU=  1  0
 Use linear search instead of GDIIS.
     Eigenvalues ---    0.00133   0.00238   0.05699   0.12007   0.13015
     Eigenvalues ---    0.13440   0.15159   0.16536   0.21309   0.24437
     Eigenvalues ---    0.26054   0.31815   0.36359   0.45571   0.52624
     Eigenvalues ---    0.53690   0.69283   1.00326
 RFO step:  Lambda=-3.31053234D-04 EMin= 1.32924662D-03
 Quartic linear search produced a step of  0.29548.
 Iteration  1 RMS(Cart)=  0.06165806 RMS(Int)=  0.01933815
 Iteration  2 RMS(Cart)=  0.01623188 RMS(Int)=  0.00051649
 Iteration  3 RMS(Cart)=  0.00043562 RMS(Int)=  0.00004877
 Iteration  4 RMS(Cart)=  0.00000026 RMS(Int)=  0.00004877
 ITry= 1 IFail=0 DXMaxC= 1.98D-01 DCOld= 1.00D+10 DXMaxT= 5.05D-01 DXLimC= 3.00D+00 Rises=F
 Variable       Old X    -DE/DX   Delta X   Delta X   Delta X     New X
                                 (Linear)    (Quad)   (Total)
    R1        2.46950   0.00001  -0.00221   0.00040  -0.00180   2.46770
    R2        2.49841  -0.00106   0.00645  -0.00050   0.00595   2.50436
    R3        3.45349   0.00035   0.00066   0.00094   0.00160   3.45509
    R4        2.69575   0.00125  -0.00539   0.00026  -0.00512   2.69062
    R5        2.71771   0.00022   0.00377   0.00230   0.00607   2.72378
    R6        3.02913   0.00101  -0.00036   0.00227   0.00191   3.03104
    R7        1.82715  -0.00054   0.00065  -0.00138  -0.00073   1.82642
    A1        1.95197  -0.00027  -0.00021  -0.00186  -0.00209   1.94988
    A2        1.98842  -0.00034   0.00363  -0.00251   0.00111   1.98953
    A3        1.97006   0.00064  -0.00836   0.00300  -0.00538   1.96468
    A4        1.87913  -0.00108   0.00762  -0.00739   0.00023   1.87936
    A5        1.89220   0.00086  -0.00800   0.00786  -0.00020   1.89200
    A6        1.72974  -0.00030   0.00174  -0.00201  -0.00029   1.72946
    A7        2.15366  -0.00019  -0.00104  -0.00332  -0.00424   2.14941
    A8        1.84796   0.00195  -0.01702   0.00957  -0.00738   1.84058
    A9        1.91415  -0.00128   0.01709  -0.00465   0.01252   1.92667
   A10        1.93587   0.00166   0.00451   0.01147   0.01598   1.95185
    D1       -1.01180   0.00043  -0.02081  -0.04115  -0.06196  -1.07376
    D2        1.35543  -0.00000  -0.02235  -0.04520  -0.06752   1.28790
    D3       -2.93153  -0.00127  -0.00523  -0.04864  -0.05389  -2.98542
    D4        3.02039   0.00054  -0.01613  -0.03899  -0.05512   2.96527
    D5       -0.89556   0.00011  -0.01767  -0.04303  -0.06069  -0.95625
    D6        1.10067  -0.00115  -0.00055  -0.04648  -0.04705   1.05361
    D7       -1.10606  -0.00262  -0.16683  -0.08827  -0.25517  -1.36123
    D8       -3.05064  -0.00190  -0.17087  -0.08228  -0.25323   2.97931
    D9        0.87306  -0.00223  -0.16951  -0.08199  -0.25135   0.62171
         Item               Value     Threshold  Converged?
 Maximum Force            0.002622     0.000015     NO 
 RMS     Force            0.001141     0.000010     NO 
 Maximum Displacement     0.197583     0.000060     NO 
 RMS     Displacement     0.074306     0.000040     NO 
 Predicted change in Energy=-1.466789D-03
 Lowest energy point so far.  Saving SCF results.
 GradGradGradGradGradGradGradGradGradGradGradGradGradGradGradGradGradGrad

 Leave Link  103 at Fri May 23 02:11:32 2025, MaxMem=  3758096384 cpu:               0.1 elap:               0.1
 (Enter /apps/easybuild-2022/easybuild/software/Compiler/NVHPC/22.11-CUDA-11.7.0/Gaussian/g16c01-CUDA-11.7.0/g16/l202.exe)
                          Input orientation:                          
 ---------------------------------------------------------------------
 Center     Atomic      Atomic             Coordinates (Angstroms)
 Number     Number       Type             X           Y           Z
 ---------------------------------------------------------------------
      1          6           0        2.094891   -0.588928    1.663837
      2          9           0        1.928791   -1.870133    1.854011
      3          9           0        1.622893    0.122570    2.677382
      4         16           0        1.488220    0.007197    0.045359
[...]
     21 -0.553064D-02 -0.101360D-01 -0.773777D-02 -0.116680D-04 -0.401380D-02
     22 -0.117738D-01 -0.237045D-02 -0.116471D-01  0.602749D-02 -0.238245D-02
     23 -0.734242D-02 -0.101428D-01 -0.114984D-01 -0.957772D-02  0.129898D-01
     24 -0.365235D-02  0.338033D-02  0.117504D-02  0.123017D-01 -0.655067D-02
     25 -0.453030D-02 -0.109704D-01 -0.739796D-02 -0.134079D-02  0.108717D-01
     26  0.766703D-02  0.241073D-02  0.395592D-02 -0.691699D-02 -0.630263D-03
                6             7             8             9            10 
      6  0.304597D+00
      7  0.248970D-02  0.529730D+00
      8 -0.594698D-02  0.995754D-03  0.129690D+00
      9  0.125812D-01 -0.164998D-02 -0.895097D-01  0.158706D+00
     10 -0.289184D-03  0.101206D-03 -0.915082D-01 -0.135861D-01  0.165443D+00
     11 -0.112934D-01  0.105263D-02 -0.757985D-02 -0.764895D-02  0.235320D-01
     12 -0.125751D-01  0.226691D-02  0.829394D-02 -0.100756D-01 -0.127713D-01
     13  0.275938D-01 -0.434220D-05 -0.120555D-01  0.326341D-01 -0.844122D-02
     14 -0.410989D-02  0.948247D-03  0.220833D-02  0.735805D-03 -0.309818D-02
     15  0.970972D-02  0.133268D-02  0.324312D-02 -0.433983D-02 -0.146200D-02
     16 -0.145373D-02 -0.573622D-02  0.243334D-02 -0.345636D-02  0.926700D-03
     17  0.436927D-01  0.180088D-01 -0.154930D-02  0.235338D-02  0.112734D-02
     18  0.152892D-01 -0.791580D-03  0.701514D-02  0.866535D-02  0.367846D-02
     19 -0.947818D-02  0.313987D-02  0.103203D-01 -0.467537D-02  0.874728D-02
     20 -0.248443D-02 -0.251343D-02  0.101179D-01  0.315062D-02  0.202192D-02
     21  0.124324D-01 -0.783416D-03 -0.114050D-01  0.246849D-02 -0.525090D-02
     22 -0.123350D-01  0.314804D-02 -0.809985D-02 -0.108722D-01 -0.182081D-03
     23 -0.534122D-02 -0.250526D-02 -0.830223D-02 -0.304624D-02 -0.690745D-02
     24  0.135527D-02 -0.836095D-04 -0.531959D-02 -0.894263D-03  0.139408D-01
     25 -0.267902D-04 -0.159054D-02  0.682053D-02 -0.438647D-02 -0.785315D-02
     26 -0.117801D-02  0.649146D-03 -0.596962D-03  0.834900D-03 -0.334354D-02
               11            12            13            14            15 
     11  0.100505D+00
     12 -0.217685D-02  0.864777D-01
     13 -0.237186D-01 -0.163652D-01  0.188927D+00
     14 -0.393430D-01 -0.317678D-01  0.100944D-01  0.677569D-01
     15 -0.291395D-01 -0.606851D-02 -0.520579D-01 -0.778797D-02  0.884747D-01
     16 -0.389503D-02 -0.278604D-01 -0.629973D-01 -0.106698D-01 -0.299011D-02
     17 -0.236799D-02 -0.852248D-03  0.118358D-01  0.778439D-03  0.130044D-01
     18 -0.115828D-01 -0.175865D-01  0.112400D-01 -0.159089D-01  0.354148D-01
     19  0.170937D-01  0.730472D-02 -0.789711D-02  0.164373D-01 -0.373678D-02
     20  0.138685D-02 -0.429446D-02  0.275236D-02 -0.595740D-03 -0.324548D-01
     21 -0.153389D-01 -0.838198D-02  0.609048D-02 -0.168928D-01  0.361345D-01
     22  0.133376D-01  0.165092D-01 -0.130466D-01  0.154534D-01 -0.301701D-02
     23 -0.236927D-02  0.491004D-02 -0.239716D-02 -0.157963D-02 -0.317350D-01
     24  0.346230D-01 -0.280898D-01 -0.686702D-02 -0.345147D-02  0.415690D-02
     25 -0.570876D-01 -0.175476D-01 -0.420272D-01  0.373917D-01  0.322530D-01
     26  0.210051D-01  0.512262D-01  0.360121D-01 -0.372329D-01 -0.254511D-01
               16            17            18            19            20 
     16  0.945154D-01
     17 -0.192645D-01  0.144664D+00
     18  0.519583D-02  0.696661D-02  0.390992D-01
     19 -0.343763D-01  0.537392D-02 -0.557334D-02  0.361444D-01
     20  0.331794D-01 -0.108617D-01 -0.157266D-03 -0.322872D-02  0.334206D-01
     21  0.405925D-02  0.596952D-02  0.176940D-01 -0.240435D-01 -0.193784D-01
     22 -0.355129D-01  0.437683D-02 -0.269786D-01  0.176743D-01 -0.224499D-01
     23  0.320428D-01 -0.118588D-01 -0.215625D-01 -0.216989D-01  0.141995D-01
     24 -0.984287D-03  0.118437D-02  0.579894D-02  0.731986D-02 -0.552811D-02
     25  0.291399D-01 -0.452200D-02  0.418947D-02 -0.707494D-02  0.772527D-03
     26 -0.293710D-01 -0.610181D-03 -0.712350D-02  0.149686D-02  0.104895D-02
               21            22            23            24            25 
     21  0.365351D-01
     22 -0.520232D-02  0.394505D-01
     23 -0.537249D-03 -0.673631D-03  0.352247D-01
     24  0.139964D-02  0.292056D-02 -0.992742D-02  0.240106D-01
     25  0.572133D-02 -0.554308D-02  0.230439D-02 -0.119954D-01  0.578800D-01
     26 -0.396621D-02  0.465415D-02  0.420624D-02 -0.997195D-02 -0.401349D-01
               26 
     26  0.524465D-01
 Leave Link  716 at Fri May 23 02:13:35 2025, MaxMem=  3758096384 cpu:               0.1 elap:               0.0
 (Enter /apps/easybuild-2022/easybuild/software/Compiler/NVHPC/22.11-CUDA-11.7.0/Gaussian/g16c01-CUDA-11.7.0/g16/l103.exe)

 GradGradGradGradGradGradGradGradGradGradGradGradGradGradGradGradGradGrad
 Berny optimization.
 Red2BG is reusing G-inverse.
 Internal  Forces:  Max     0.000000112 RMS     0.000000060
 Search for a local minimum.
 Step number   1 out of a maximum of    2
 All quantities printed in internal units (Hartrees-Bohrs-Radians)
 Second derivative matrix not updated -- analytic derivatives used.
 ITU=  0
     Eigenvalues ---    0.00191   0.00317   0.05812   0.11275   0.12399
     Eigenvalues ---    0.12790   0.15261   0.16545   0.17833   0.20543
     Eigenvalues ---    0.25790   0.29374   0.33852   0.39907   0.50958
     Eigenvalues ---    0.53071   0.66875   0.71508
 Angle between quadratic step and forces=  76.85 degrees.
 Linear search not attempted -- first point.
 Iteration  1 RMS(Cart)=  0.00000386 RMS(Int)=  0.00000000
 Iteration  2 RMS(Cart)=  0.00000000 RMS(Int)=  0.00000000
 ITry= 1 IFail=0 DXMaxC= 1.10D-05 DCOld= 1.00D+10 DXMaxT= 3.00D-01 DXLimC= 3.00D+00 Rises=F
 Variable       Old X    -DE/DX   Delta X   Delta X   Delta X     New X
                                 (Linear)    (Quad)   (Total)
    R1        2.47428   0.00000   0.00000  -0.00000  -0.00000   2.47428
    R2        2.48558   0.00000   0.00000   0.00000   0.00000   2.48558
    R3        3.44609  -0.00000   0.00000  -0.00000  -0.00000   3.44609
    R4        2.69746  -0.00000   0.00000  -0.00000  -0.00000   2.69746
    R5        2.72324   0.00000   0.00000   0.00000   0.00000   2.72324
    R6        3.03155   0.00000   0.00000   0.00000   0.00000   3.03155
    R7        1.82489   0.00000   0.00000   0.00000   0.00000   1.82489
    A1        1.95128   0.00000   0.00000  -0.00000  -0.00000   1.95128
    A2        1.97953   0.00000   0.00000   0.00000   0.00000   1.97953
    A3        1.98579  -0.00000   0.00000  -0.00000  -0.00000   1.98579
    A4        1.85955   0.00000   0.00000   0.00000   0.00000   1.85955
    A5        1.91737   0.00000   0.00000   0.00000   0.00000   1.91737
    A6        1.71430  -0.00000   0.00000  -0.00000  -0.00000   1.71430
    A7        2.15217  -0.00000   0.00000  -0.00000  -0.00000   2.15217
    A8        1.88284   0.00000   0.00000   0.00000   0.00000   1.88284
    A9        1.88734  -0.00000   0.00000  -0.00000  -0.00000   1.88734
   A10        1.91758  -0.00000   0.00000  -0.00000  -0.00000   1.91758
    D1       -1.00454  -0.00000   0.00000  -0.00001  -0.00001  -1.00454
    D2        1.36487  -0.00000   0.00000  -0.00001  -0.00001   1.36486
    D3       -2.95059  -0.00000   0.00000  -0.00001  -0.00001  -2.95060
    D4        3.02234   0.00000   0.00000  -0.00001  -0.00001   3.02233
    D5       -0.89144   0.00000   0.00000  -0.00001  -0.00001  -0.89145
    D6        1.07628  -0.00000   0.00000  -0.00001  -0.00001   1.07627
    D7       -1.75976  -0.00000   0.00000   0.00000   0.00000  -1.75976
    D8        2.59620  -0.00000   0.00000  -0.00000  -0.00000   2.59620
    D9        0.23182   0.00000   0.00000   0.00000   0.00000   0.23182
         Item               Value     Threshold  Converged?
 Maximum Force            0.000000     0.000015     YES
 RMS     Force            0.000000     0.000010     YES
 Maximum Displacement     0.000011     0.000060     YES
 RMS     Displacement     0.000004     0.000040     YES
 Predicted change in Energy=-6.117748D-13
 Optimization completed.
    -- Stationary point found.
                           ----------------------------
                           !   Optimized Parameters   !
                           ! (Angstroms and Degrees)  !
 --------------------------                            --------------------------
 ! Name  Definition              Value          Derivative Info.                !
 --------------------------------------------------------------------------------
 ! R1    R(1,2)                  1.3093         -DE/DX =    0.0                 !
 ! R2    R(1,3)                  1.3153         -DE/DX =    0.0                 !
 ! R3    R(1,4)                  1.8236         -DE/DX =    0.0                 !
 ! R4    R(4,5)                  1.4274         -DE/DX =    0.0                 !
 ! R5    R(4,6)                  1.4411         -DE/DX =    0.0                 !
 ! R6    R(4,7)                  1.6042         -DE/DX =    0.0                 !
 ! R7    R(7,8)                  0.9657         -DE/DX =    0.0                 !
 ! A1    A(2,1,3)              111.8001         -DE/DX =    0.0                 !
 ! A2    A(2,1,4)              113.4186         -DE/DX =    0.0                 !
 ! A3    A(3,1,4)              113.7775         -DE/DX =    0.0                 !
 ! A4    A(1,4,5)              106.5442         -DE/DX =    0.0                 !
 ! A5    A(1,4,6)              109.8571         -DE/DX =    0.0                 !
 ! A6    A(1,4,7)               98.2222         -DE/DX =    0.0                 !
 ! A7    A(5,4,6)              123.3104         -DE/DX =    0.0                 !
 ! A8    A(5,4,7)              107.879          -DE/DX =    0.0                 !
 ! A9    A(6,4,7)              108.1366         -DE/DX =    0.0                 !
 ! A10   A(4,7,8)              109.8691         -DE/DX =    0.0                 !
 ! D1    D(2,1,4,5)            -57.5557         -DE/DX =    0.0                 !
 ! D2    D(2,1,4,6)             78.2012         -DE/DX =    0.0                 !
 ! D3    D(2,1,4,7)           -169.0566         -DE/DX =    0.0                 !
 ! D4    D(3,1,4,5)            173.1671         -DE/DX =    0.0                 !
 ! D5    D(3,1,4,6)            -51.076          -DE/DX =    0.0                 !
 ! D6    D(3,1,4,7)             61.6662         -DE/DX =    0.0                 !
 ! D7    D(1,4,7,8)           -100.827          -DE/DX =    0.0                 !
 ! D8    D(5,4,7,8)            148.7515         -DE/DX =    0.0                 !
 ! D9    D(6,4,7,8)             13.2822         -DE/DX =    0.0                 !
 --------------------------------------------------------------------------------
 GradGradGradGradGradGradGradGradGradGradGradGradGradGradGradGradGradGrad

 Leave Link  103 at Fri May 23 02:13:35 2025, MaxMem=  3758096384 cpu:               0.1 elap:               0.1
 (Enter /apps/easybuild-2022/easybuild/software/Compiler/NVHPC/22.11-CUDA-11.7.0/Gaussian/g16c01-CUDA-11.7.0/g16/l9999.exe)

 ----------------------------------------------------------------------

 Electric dipole moment (input orientation):
 (Debye = 10**-18 statcoulomb cm , SI units = C m)
                  (au)            (Debye)         (10**-30 SI)
   Tot        0.112593D+01      0.286182D+01      0.954600D+01
   x          0.529118D-01      0.134488D+00      0.448605D+00
   y          0.817037D+00      0.207670D+01      0.692713D+01
   z          0.772891D+00      0.196449D+01      0.655284D+01

 Dipole polarizability, Alpha (input orientation).
 (esu units = cm**3 , SI units = C**2 m**2 J**-1)
 Alpha(0;0):
               (au)            (10**-24 esu)      (10**-40 SI)
   iso        0.420821D+02      0.623592D+01      0.693839D+01
   aniso      0.604723D+01      0.896108D+00      0.997054D+00
   xx         0.397162D+02      0.588533D+01      0.654832D+01
   yx        -0.274179D+01     -0.406291D+00     -0.452060D+00
   yy         0.426238D+02      0.631620D+01      0.702772D+01
   zx         0.176623D+00      0.261729D-01      0.291212D-01
   zy        -0.178964D+00     -0.265198D-01     -0.295072D-01
   zz         0.439062D+02      0.650622D+01      0.723915D+01

 ----------------------------------------------------------------------

 Dipole orientation:
     6          3.84102033         -3.18434371          1.52561802
     9          3.59357251         -5.04434159         -0.08721801
     9          2.84450922         -3.73889589          3.73413898
    16          2.82897557         -0.13892016          0.26994743
     8          4.29703421          0.30301690         -1.94945944
     8          0.11128262          0.02648644          0.32288687
     8          3.92500332          1.62613251          2.47757205
     1          2.57929999          2.10811128          3.61203541

 Electric dipole moment (dipole orientation):
 (Debye = 10**-18 statcoulomb cm , SI units = C m)
                  (au)            (Debye)         (10**-30 SI)
   Tot        0.112593D+01      0.286182D+01      0.954600D+01
   x          0.000000D+00      0.000000D+00      0.000000D+00
   y          0.000000D+00      0.000000D+00      0.000000D+00
   z          0.112593D+01      0.286182D+01      0.954600D+01

 Dipole polarizability, Alpha (dipole orientation).
 (esu units = cm**3 , SI units = C**2 m**2 J**-1)
 Alpha(0;0):
               (au)            (10**-24 esu)      (10**-40 SI)
   iso        0.420821D+02      0.623592D+01      0.693839D+01
   aniso      0.604723D+01      0.896108D+00      0.997054D+00
   xx         0.398205D+02      0.590078D+01      0.656551D+01
   yx        -0.190657D+01     -0.282524D+00     -0.314350D+00
   yy         0.435580D+02      0.645462D+01      0.718174D+01
   zx        -0.203294D+01     -0.301250D+00     -0.335186D+00
   zy        -0.683127D+00     -0.101229D+00     -0.112632D+00
   zz         0.428678D+02      0.635235D+01      0.706794D+01

 ----------------------------------------------------------------------
 Unable to Open any file for archive entry.
 1\1\GINC-SPARTAN-BM163\Freq\UwB97XD\6-311++G(d,p)\C1H1F2O3S1\AKHALILOV
 \23-May-2025\0\\#P Geom=AllCheck Guess=TCheck SCRF=Check GenChk UwB97X
 D/6-311++G(d,p) Freq\\Gaussian input prepared by ASE\\0,2\C,2.10193195
 09,-0.614190554,1.6814595632\F,1.9509542456,-1.9078134168,1.8159874516
 \F,1.6361473302,0.0427209989,2.7214421418\S,1.5032686167,0.0228294591,
 0.0810534253\O,2.2191929962,-0.6842939078,-0.9313656255\O,0.0665572961
 ,0.1324379359,0.1043514541\O,2.1185146964,1.5012169532,0.1779408741\H,
 1.4303863099,2.1266666379,0.4384228478\\Version=ES64L-G16RevC.01\HF=-8
 62.1107047\S2=0.753142\S2-1=0.\S2A=0.750007\RMSD=3.095e-09\RMSF=1.137e
 -06\ZeroPoint=0.0345472\Thermal=0.0416364\ETot=-862.0690683\HTot=-862.
 0681241\GTot=-862.1088703\Dipole=0.0529118,0.8170371,0.7728909\DipoleD
 eriv=0.1454785,-0.0365832,-0.3131283,-0.1500626,1.436888,-0.0005206,-0
 .1272604,0.0489286,1.2228829,-0.0647576,-0.1765105,0.0845119,0.1147734
 ,-1.0858809,0.256423,-0.0121303,0.217786,-0.3330233,-0.1351569,0.16098
 71,0.3614262,0.0560995,-0.4040589,-0.2708623,0.0796223,-0.2626184,-0.9
 992629,2.1394986,0.1243461,-0.2598056,-0.0301013,2.2996631,0.1145969,-
 0.0623287,0.1791407,1.9424924,-0.6612877,0.1494264,0.2677683,0.103459,
 -0.6498508,-0.1916411,0.1611181,-0.1729825,-0.9629059,-1.1771822,0.027
 5049,-0.1672126,0.1327498,-0.6341886,0.0576267,-0.0182096,0.0425219,-0
 .6650363,-0.4886567,-0.1829221,0.0041439,-0.2125349,-1.385517,0.048434
 4,-0.0531412,-0.0623399,-0.5378096,0.2420639,-0.0662487,0.0222962,-0.0
 143829,0.4229451,-0.014057,0.0323298,0.0095637,0.3326626\Polar=39.7162
 085,-2.7417866,42.6238095,0.1766232,-0.1789643,43.9061694\PG=Unknown\N
 Imag=0\\0.19577214,-0.00361193,0.53383766,-0.10856897,0.00660770,0.464
 46885,-0.04448657,-0.06218028,0.02812697,0.02430960,-0.05046167,-0.361
 71512,0.06602734,0.03123053,0.44555641,0.01049664,0.05514220,-0.077964
 73,-0.01243008,-0.03558373,0.07183569,-0.08614674,0.04781540,0.1228067
 2,0.01283920,0.01632578,-0.00486855,0.06392405,0.05300573,-0.11157070,
 -0.09778574,0.01880758,-0.05922362,-0.04726579,-0.06614368,0.16602244,
 0.09667930,-0.09422882,-0.26974323,-0.00490355,-0.03585612,0.00720079,
 -0.10506611,0.14676838,0.29618264,-0.05638491,0.01640972,-0.05136054,0
 .00491593,-0.00545440,0.01160821,0.00176424,-0.00191007,0.02380497,0.9
 9289872,-0.00537129,-0.04334118,0.04565166,0.01334119,-0.02647671,0.02
 246014,0.00933365,-0.00541574,-0.03492065,-0.16766562,0.63035534,0.005
 03059,0.04619814,-0.12698448,-0.01406631,-0.01645004,0.00716783,-0.016
 82541,-0.00198677,-0.01991256,-0.19456529,0.18032499,0.68770532,0.0056
 5868,0.00481883,-0.00335308,-0.00131115,-0.00303888,-0.00095594,0.0013
 3392,0.00021119,-0.00163118,-0.23108091,0.14696791,0.20776880,0.222971
 91,0.00314495,-0.00113726,0.00103905,-0.00012583,0.00698996,-0.0011783
 3,-0.00094614,0.00176664,0.00192032,0.14443809,-0.21575932,-0.19530079
 ,-0.15895783,0.21912057,0.01685125,-0.02560791,-0.00155786,0.00084569,
 0.00891370,-0.00223683,0.00004957,0.00015642,-0.01523137,0.21122265,-0
 .20311080,-0.39264763,-0.22947489,0.23171776,0.39123832,-0.01941975,-0
 .00578238,0.01644773,0.00307126,0.01110500,-0.00316766,0.00726145,-0.0
 0453103,-0.00900296,-0.62122860,0.04623351,0.00875173,-0.00859184,-0.0
 0295278,-0.00633704,0.66165758,0.01352736,0.00559264,-0.00349951,-0.00
 281031,0.00032912,-0.00152353,-0.00356577,0.00305052,0.00561349,0.0505
 4789,-0.09088522,-0.00046812,0.01922582,0.01225992,-0.00498636,-0.0376
 5569,0.06281637,-0.02463334,-0.00295763,0.00418555,0.00309950,0.006393
 60,-0.00059611,0.00346965,-0.00056134,0.00108891,-0.00550976,-0.000726
 15,-0.08747575,0.03196606,-0.00854001,0.01378933,-0.00758422,0.0060141
 9,0.05521266,0.00633327,0.00327814,-0.00297359,0.00041639,0.00117883,-
 0.00160457,-0.00087016,0.00077918,-0.00071038,-0.10783423,-0.03084277,
 0.00739649,0.01105635,0.02187840,0.01002188,-0.01723103,-0.04034057,-0
 .00122493,0.39716929,-0.00860802,-0.01887530,-0.01882418,0.00138974,-0
 .00663077,0.00800959,-0.00303437,0.00504132,0.01035104,-0.06025274,-0.
 21452605,-0.00088512,-0.00642299,-0.02143156,-0.00708460,-0.00884136,-
 0.00035071,-0.00109779,-0.15775961,0.48331261,0.00419760,0.00957134,0.
 00420753,-0.00058342,0.00597983,-0.00386788,-0.00077337,0.00263672,0.0
 0268849,0.00179208,-0.00662175,-0.06594724,-0.00310661,-0.02590742,0.0
 0639824,0.00138188,-0.00340772,0.01561716,-0.10899796,0.10033534,0.078
 37885,-0.00132612,-0.00074750,-0.00112523,0.00024535,-0.00088519,0.000
 92196,-0.00010595,-0.00021889,0.00082990,0.01694976,-0.01199659,-0.003
 49060,-0.00003697,-0.00647885,-0.00317911,-0.00551906,0.00107126,0.000
 41705,-0.28903989,0.24352934,0.10608979,0.27883289,-0.00162515,-0.0027
 9075,0.00078368,0.00034738,0.00117074,-0.00006053,0.00021513,0.0003291
 4,0.00035236,0.02388712,-0.03395112,-0.01143227,-0.00280405,-0.0018089
 5,0.00000178,0.00242474,0.00718737,0.00147513,0.20182839,-0.22653954,-
 0.08258633,-0.22427357,0.25640312,-0.00005306,0.00527498,0.00338836,-0
 .00008879,0.00057542,-0.00153876,0.00120751,-0.00196188,-0.00227368,0.
 00300767,-0.00305744,-0.00190549,-0.00121315,-0.00375057,0.00024780,-0
 .00048947,0.00225757,-0.00182175,0.09809306,-0.09080427,-0.03747516,-0
 .10046376,0.09146619,0.04137866\\0.00000014,0.00000036,0.00000025,0.00
 000192,0.00000004,-0.00000053,-0.00000145,-0.00000081,-0.00000008,0.00
 000040,0.00000024,-0.00000026,0.00000245,0.00000146,0.00000022,0.00000
 054,-0.00000193,-0.00000111,-0.00000146,0.00000080,0.00000089,-0.00000
 254,-0.00000015,0.00000062\\\@
 The archive entry for this job was punched.


 Cherishing children is the mark of a civilized society.
 -- Joan Ganz Cooney
 Job cpu time:       0 days  0 hours  3 minutes 55.5 seconds.
 Elapsed time:       0 days  0 hours  0 minutes 32.9 seconds.
 File lengths (MBytes):  RWF=     61 Int=      0 D2E=      0 Chk=      4 Scr=      1
 Normal termination of Gaussian 16 at Fri May 23 02:13:35 2025.
done
