 Entering Gaussian System, Link 0=g16
 Initial command:
 /apps/easybuild-2022/easybuild/software/Compiler/NVHPC/22.11-CUDA-11.7.0/Gaussian/g16c01-CUDA-11.7.0/g16/l1.exe "/tmp/Gau-96244.inp" -scrdir="/tmp/"
 Entering Link 1 = /apps/easybuild-2022/easybuild/software/Compiler/NVHPC/22.11-CUDA-11.7.0/Gaussian/g16c01-CUDA-11.7.0/g16/l1.exe PID=     96245.
  
 Copyright (c) 1988-2019, Gaussian, Inc.  All Rights Reserved.
  
 This is part of the Gaussian(R) 16 program.  It is based on
 the Gaussian(R) 09 system (copyright 2009, Gaussian, Inc.),
 the Gaussian(R) 03 system (copyright 2003, Gaussian, Inc.),
 the Gaussian(R) 98 system (copyright 1998, Gaussian, Inc.),
 the Gaussian(R) 94 system (copyright 1995, Gaussian, Inc.),
 the Gaussian 92(TM) system (copyright 1992, Gaussian, Inc.),
 the Gaussian 90(TM) system (copyright 1990, Gaussian, Inc.),
 the Gaussian 88(TM) system (copyright 1988, Gaussian, Inc.),
 the Gaussian 86(TM) system (copyright 1986, Carnegie Mellon
 University), and the Gaussian 82(TM) system (copyright 1983,
 Carnegie Mellon University). Gaussian is a federally registered
 trademark of Gaussian, Inc.
  
 This software contains proprietary and confidential information,
 including trade secrets, belonging to Gaussian, Inc.
  
 This software is provided under written license and may be
 used, copied, transmitted, or stored only in accord with that
 written license.
  
 The following legend is applicable only to US Government
 contracts under FAR:
  
                    RESTRICTED RIGHTS LEGEND
  
 Use, reproduction and disclosure by the US Government is
 subject to restrictions as set forth in subparagraphs (a)
 and (c) of the Commercial Computer Software - Restricted
 Rights clause in FAR 52.227-19.
  
 Gaussian, Inc.
 340 Quinnipiac St., Bldg. 40, Wallingford CT 06492
  
  
 ---------------------------------------------------------------
 Warning -- This program may not be used in any manner that
 competes with the business of Gaussian, Inc. or will provide
 assistance to any competitor of Gaussian, Inc.  The licensee
 of this program is prohibited from giving any competitor of
 Gaussian, Inc. access to this program.  By using this program,
 the user acknowledges that Gaussian, Inc. is engaged in the
 business of creating and licensing software in the field of
 computational chemistry and represents and warrants to the
 licensee that it is not a competitor of Gaussian, Inc. and that
 it will not use this program in any manner prohibited above.
 ---------------------------------------------------------------
  

 Cite this work as:
 Gaussian 16, Revision C.01,
 M. J. Frisch, G. W. Trucks, H. B. Schlegel, G. E. Scuseria, 
 M. A. Robb, J. R. Cheeseman, G. Scalmani, V. Barone, 
 G. A. Petersson, H. Nakatsuji, X. Li, M. Caricato, A. V. Marenich, 
 J. Bloino, B. G. Janesko, R. Gomperts, B. Mennucci, H. P. Hratchian, 
 J. V. Ortiz, A. F. Izmaylov, J. L. Sonnenberg, D. Williams-Young, 
 F. Ding, F. Lipparini, F. Egidi, J. Goings, B. Peng, A. Petrone, 
 T. Henderson, D. Ranasinghe, V. G. Zakrzewski, J. Gao, N. Rega, 
 G. Zheng, W. Liang, M. Hada, M. Ehara, K. Toyota, R. Fukuda, 
 J. Hasegawa, M. Ishida, T. Nakajima, Y. Honda, O. Kitao, H. Nakai, 
 T. Vreven, K. Throssell, J. A. Montgomery, Jr., J. E. Peralta, 
 F. Ogliaro, M. J. Bearpark, J. J. Heyd, E. N. Brothers, K. N. Kudin, 
 V. N. Staroverov, T. A. Keith, R. Kobayashi, J. Normand, 
 K. Raghavachari, A. P. Rendell, J. C. Burant, S. S. Iyengar, 
 J. Tomasi, M. Cossi, J. M. Millam, M. Klene, C. Adamo, R. Cammi, 
 J. W. Ochterski, R. L. Martin, K. Morokuma, O. Farkas, 
 J. B. Foresman, and D. J. Fox, Gaussian, Inc., Wallingford CT, 2019.
 
 ******************************************
 Gaussian 16:  ES64L-G16RevC.01  3-Jul-2019
                23-May-2025 
 ******************************************
 %mem=28GB
 %nprocshared=8
 Will use up to    8 processors via shared memory.
 ----------------------------------------------------------------------
 #P wb97xd/6-311++G(d,p) Symm(None) scf(xqc) pop(None) freq opt(CalcFC,
  Tight)
 ----------------------------------------------------------------------
 1/7=10,10=4,18=20,19=15,26=3,38=1/1,3;
 2/9=110,12=2,15=3,17=6,18=5,40=1/2;
 3/5=4,6=6,7=1111,11=2,25=1,30=1,71=2,74=-58,140=1/1,2,3;
 4//1;
 5/5=2,8=3,13=1,38=5/2,8;
 8/6=4,10=90,11=11/1;
 11/6=1,8=1,9=11,15=111,16=1,31=1/1,2,10;
 10/6=1,13=1,31=1/2;
 7/10=1,25=1,30=1/1,2,3,16;
 1/7=10,10=4,18=20,19=15,26=3/3(2);
 2/9=110,15=3/2;
 99//99;
 2/9=110,15=3/2;
 3/5=4,6=6,7=1111,11=2,25=1,30=1,71=1,74=-58/1,2,3;
 4/5=5,16=3,69=1/1;
 5/5=2,8=3,13=1,38=5/2,8;
 7/30=1/1,2,3,16;
 1/7=10,18=20,19=15,26=3/3(-5);
 2/9=110,15=3/2;
 99/9=1/99;
 Leave Link    1 at Fri May 23 05:26:05 2025, MaxMem=  3758096384 cpu:               0.1 elap:               0.1
 (Enter /apps/easybuild-2022/easybuild/software/Compiler/NVHPC/22.11-CUDA-11.7.0/Gaussian/g16c01-CUDA-11.7.0/g16/l101.exe)
 ------------------------------
 Gaussian input prepared by ASE
 ------------------------------
 Symbolic Z-matrix:
 Charge =  0 Multiplicity = 1
 C                    -0.63088  -0.27847  -1.15786 
 S                     1.75034   0.        0. 
 O                     0.        0.        0. 
 O                     2.04197  -0.50095   1.32189 
 O                     1.91131   1.60604   0. 
 F                    -1.93636  -0.21691  -0.95264 
 F                    -0.30967   0.58595  -2.13187 
 F                    -0.32648  -1.50353  -1.61195 
 H                     1.58566   1.99707   0.82451 
 
 ITRead=  0  0  0  0  0  0  0  0  0
 MicOpt= -1 -1 -1 -1 -1 -1 -1 -1 -1
 NAtoms=      9 NQM=        9 NQMF=       0 NMMI=      0 NMMIF=      0
                NMic=       0 NMicF=      0.
                    Isotopes and Nuclear Properties:
 (Nuclear quadrupole moments (NQMom) in fm**2, nuclear magnetic moments (NMagM)
  in nuclear magnetons)

  Atom         1           2           3           4           5           6           7           8           9
 IAtWgt=          12          32          16          16          16          19          19          19           1
 AtmWgt=  12.0000000  31.9720718  15.9949146  15.9949146  15.9949146  18.9984032  18.9984032  18.9984032   1.0078250
 NucSpn=           0           0           0           0           0           1           1           1           1
 AtZEff=  -0.0000000  -0.0000000  -0.0000000  -0.0000000  -0.0000000  -0.0000000  -0.0000000  -0.0000000  -0.0000000
 NQMom=    0.0000000   0.0000000   0.0000000   0.0000000   0.0000000   0.0000000   0.0000000   0.0000000   0.0000000
 NMagM=    0.0000000   0.0000000   0.0000000   0.0000000   0.0000000   2.6288670   2.6288670   2.6288670   2.7928460
 AtZNuc=   6.0000000  16.0000000   8.0000000   8.0000000   8.0000000   9.0000000   9.0000000   9.0000000   1.0000000
 Leave Link  101 at Fri May 23 05:26:06 2025, MaxMem=  3758096384 cpu:               0.6 elap:               0.6
 (Enter /apps/easybuild-2022/easybuild/software/Compiler/NVHPC/22.11-CUDA-11.7.0/Gaussian/g16c01-CUDA-11.7.0/g16/l103.exe)

 GradGradGradGradGradGradGradGradGradGradGradGradGradGradGradGradGradGrad
 Berny optimization.
 Initialization pass.
                           ----------------------------
                           !    Initial Parameters    !
                           ! (Angstroms and Degrees)  !
 --------------------------                            --------------------------
 ! Name  Definition              Value          Derivative Info.                !
 --------------------------------------------------------------------------------
 ! R1    R(1,3)                  1.3477         calculate D2E/DX2 analytically  !
 ! R2    R(1,6)                  1.3229         calculate D2E/DX2 analytically  !
 ! R3    R(1,7)                  1.3413         calculate D2E/DX2 analytically  !
 ! R4    R(1,8)                  1.3415         calculate D2E/DX2 analytically  !
 ! R5    R(2,3)                  1.7503         calculate D2E/DX2 analytically  !
 ! R6    R(2,4)                  1.4434         calculate D2E/DX2 analytically  !
 ! R7    R(2,5)                  1.6141         calculate D2E/DX2 analytically  !
 ! R8    R(5,9)                  0.9689         calculate D2E/DX2 analytically  !
 ! A1    A(3,1,6)              108.6056         calculate D2E/DX2 analytically  !
 ! A2    A(3,1,7)              112.248          calculate D2E/DX2 analytically  !
 ! A3    A(3,1,8)              111.9192         calculate D2E/DX2 analytically  !
 ! A4    A(6,1,7)              108.6009         calculate D2E/DX2 analytically  !
 ! A5    A(6,1,8)              108.5974         calculate D2E/DX2 analytically  !
 ! A6    A(7,1,8)              106.7613         calculate D2E/DX2 analytically  !
 ! A7    A(3,2,4)              101.6566         calculate D2E/DX2 analytically  !
 ! A8    A(3,2,5)               95.7235         calculate D2E/DX2 analytically  !
 ! A9    A(4,2,5)              108.9766         calculate D2E/DX2 analytically  !
 ! A10   A(1,3,2)              117.9129         calculate D2E/DX2 analytically  !
 ! A11   A(2,5,9)              111.5954         calculate D2E/DX2 analytically  !
 ! D1    D(6,1,3,2)           -179.4577         calculate D2E/DX2 analytically  !
 ! D2    D(7,1,3,2)            -59.3685         calculate D2E/DX2 analytically  !
 ! D3    D(8,1,3,2)             60.6622         calculate D2E/DX2 analytically  !
 ! D4    D(4,2,3,1)           -145.722          calculate D2E/DX2 analytically  !
 ! D5    D(5,2,3,1)            103.5232         calculate D2E/DX2 analytically  !
 ! D6    D(3,2,5,9)             66.2368         calculate D2E/DX2 analytically  !
 ! D7    D(4,2,5,9)            -38.193          calculate D2E/DX2 analytically  !
 --------------------------------------------------------------------------------
 Trust Radius=3.00D-01 FncErr=1.00D-07 GrdErr=1.00D-06 EigMax=2.50D+02 EigMin=1.00D-04
 Number of steps in this run=     36 maximum allowed number of steps=    100.
 GradGradGradGradGradGradGradGradGradGradGradGradGradGradGradGradGradGrad

 Leave Link  103 at Fri May 23 05:26:06 2025, MaxMem=  3758096384 cpu:               0.1 elap:               0.0
 (Enter /apps/easybuild-2022/easybuild/software/Compiler/NVHPC/22.11-CUDA-11.7.0/Gaussian/g16c01-CUDA-11.7.0/g16/l202.exe)
                          Input orientation:                          
 ---------------------------------------------------------------------
 Center     Atomic      Atomic             Coordinates (Angstroms)
 Number     Number       Type             X           Y           Z
 ---------------------------------------------------------------------
      1          6           0       -0.630880   -0.278474   -1.157862
      2         16           0        1.750339    0.000000    0.000000
      3          8           0        0.000000    0.000000    0.000000
      4          8           0        2.041971   -0.500949    1.321895
      5          8           0        1.911310    1.606043    0.000000
      6          9           0       -1.936363   -0.216911   -0.952636
      7          9           0       -0.309666    0.585955   -2.131871
      8          9           0       -0.326484   -1.503532   -1.611953
      9          1           0        1.585663    1.997073    0.824510
 ---------------------------------------------------------------------
                    Distance matrix (angstroms):
                    1          2          3          4          5
     1  C    0.000000
     2  S    2.662404   0.000000
     3  O    1.347666   1.750339   0.000000
     4  O    3.652783   1.443401   2.483546   0.000000
     5  O    3.369685   1.614090   2.496493   2.490762   0.000000
     6  F    1.322948   3.813966   2.168886   4.591439   4.362942
     7  F    1.341309   3.021893   2.232512   4.317414   3.243176
     8  F    1.341501   3.028563   2.228361   3.901565   4.156389
     9  H    3.744459   2.166849   2.680008   2.587609   0.968900
                    6          7          8          9
     6  F    0.000000
     7  F    2.163638   0.000000
     8  F    2.163748   2.153266   0.000000
     9  H    4.523786   3.784669   4.674066   0.000000
 Symmetry turned off by external request.
 Stoichiometry    CHF3O3S
 Rotational constants (GHZ):           3.4350625           1.1565973           1.0529231
 Leave Link  202 at Fri May 23 05:26:06 2025, MaxMem=  3758096384 cpu:               0.1 elap:               0.0
 (Enter /apps/easybuild-2022/easybuild/software/Compiler/NVHPC/22.11-CUDA-11.7.0/Gaussian/g16c01-CUDA-11.7.0/g16/l301.exe)
 Standard basis: 6-311++G(d,p) (5D, 7F)
 Ernie: Thresh=  0.10000D-02 Tol=  0.10000D-05 Strict=F.
   191 basis functions,   311 primitive gaussians,   199 cartesian basis functions
    37 alpha electrons       37 beta electrons
       nuclear repulsion energy       538.8372234360 Hartrees.
 IExCor= 4639 DFT=T Ex+Corr=wB97XD ExCW=0 ScaHFX=  1.000000
 ScaDFX=  1.000000  1.000000  1.000000  1.000000 ScalE2=  1.000000  1.000000
 IRadAn=      5 IRanWt=     -1 IRanGd=            0 ICorTp=0 IEmpDi=121
 HFx  wShort=  0.000000 wLong=  0.200000 cFull=  0.222036 cShort=  0.000000 cLong=  0.777964
 DFx  wShort=  0.000000 wLong=  0.200000 cFull=  0.000000 cShort=  0.000000 cLong=  1.000000
 NAtoms=    9 NActive=    9 NUniq=    9 SFac= 1.00D+00 NAtFMM=   60 NAOKFM=F Big=F
 Integral buffers will be    131072 words long.
 Raffenetti 2 integral format.
 Two-electron integral symmetry is turned off.
 R6Disp:  Grimme-D2 Dispersion energy=       -0.0023463812 Hartrees.
 Nuclear repulsion after empirical dispersion term =      538.8348770548 Hartrees.
 Leave Link  301 at Fri May 23 05:26:06 2025, MaxMem=  3758096384 cpu:               0.1 elap:               0.1
 (Enter /apps/easybuild-2022/easybuild/software/Compiler/NVHPC/22.11-CUDA-11.7.0/Gaussian/g16c01-CUDA-11.7.0/g16/l302.exe)
 NPDir=0 NMtPBC=     1 NCelOv=     1 NCel=       1 NClECP=     1 NCelD=      1
         NCelK=      1 NCelE2=     1 NClLst=     1 CellRange=     0.0.
 One-electron integrals computed using PRISM.
 NBasis=   191 RedAO= T EigKep=  6.25D-04  NBF=   191
 NBsUse=   191 1.00D-06 EigRej= -1.00D+00 NBFU=   191
 Precomputing XC quadrature grid using
 IXCGrd= 4 IRadAn=           5 IRanWt=          -1 IRanGd=           0 AccXCQ= 0.00D+00.
 Generated NRdTot=       0 NPtTot=           0 NUsed=           0 NTot=          32
 NSgBfM=   199   199   199   199   199 MxSgAt=     9 MxSgA2=     9.
 Leave Link  302 at Fri May 23 05:26:06 2025, MaxMem=  3758096384 cpu:               0.8 elap:               0.2
 (Enter /apps/easybuild-2022/easybuild/software/Compiler/NVHPC/22.11-CUDA-11.7.0/Gaussian/g16c01-CUDA-11.7.0/g16/l303.exe)
 DipDrv:  MaxL=1.
 Leave Link  303 at Fri May 23 05:26:07 2025, MaxMem=  3758096384 cpu:               0.1 elap:               0.1
 (Enter /apps/easybuild-2022/easybuild/software/Compiler/NVHPC/22.11-CUDA-11.7.0/Gaussian/g16c01-CUDA-11.7.0/g16/l401.exe)
 ExpMin= 3.60D-02 ExpMax= 9.34D+04 ExpMxC= 3.17D+03 IAcc=3 IRadAn=         5 AccDes= 0.00D+00
 Harris functional with IExCor= 4639 and IRadAn=       5 diagonalized for initial guess.
 HarFok:  IExCor= 4639 AccDes= 0.00D+00 IRadAn=         5 IDoV= 1 UseB2=F ITyADJ=14
 ICtDFT=  3500011 ScaDFX=  1.000000  1.000000  1.000000  1.000000
 FoFCou: FMM=F IPFlag=           0 FMFlag=      100000 FMFlg1=           0
         NFxFlg=           0 DoJE=T BraDBF=F KetDBF=T FulRan=T
         wScrn=  0.000000 ICntrl=       500 IOpCl=  0 I1Cent=   200000004 NGrid=           0
         NMat0=    1 NMatS0=      1 NMatT0=    0 NMatD0=    1 NMtDS0=    0 NMtDT0=    0
 Symmetry not used in FoFCou.
 Harris En= -936.967373729970    
 JPrj=0 DoOrth=F DoCkMO=F.
 Leave Link  401 at Fri May 23 05:26:07 2025, MaxMem=  3758096384 cpu:               2.4 elap:               0.4
 (Enter /apps/easybuild-2022/easybuild/software/Compiler/NVHPC/22.11-CUDA-11.7.0/Gaussian/g16c01-CUDA-11.7.0/g16/l502.exe)
 Keep R1 ints in memory in canonical form, NReq=347976339.
 FoFCou: FMM=F IPFlag=           0 FMFlag=           0 FMFlg1=           0
         NFxFlg=           0 DoJE=F BraDBF=F KetDBF=F FulRan=T
         wScrn=  0.000000 ICntrl=       600 IOpCl=  0 I1Cent=           0 NGrid=           0
         NMat0=    1 NMatS0=  18336 NMatT0=    0 NMatD0=    1 NMtDS0=    0 NMtDT0=    0
 Symmetry not used in FoFCou.
 Two-electron integral symmetry not used.
 Closed shell SCF:
 Using DIIS extrapolation, IDIIS=  1040.
 NGot=  3758096384 LenX=  3421786711 LenY=  3421746669
 Requested convergence on RMS density matrix=1.00D-08 within  32 cycles.
 Requested convergence on MAX density matrix=1.00D-06.
 Requested convergence on             energy=1.00D-06.
 No special actions if energy rises.

 Cycle   1  Pass 1  IDiag  1:
 E= -961.562105200889    
 DIIS: error= 1.19D-01 at cycle   1 NSaved=   1.
 NSaved= 1 IEnMin= 1 EnMin= -961.562105200889     IErMin= 1 ErrMin= 1.19D-01
 ErrMax= 1.19D-01  0.00D+00 EMaxC= 1.00D-01 BMatC= 2.64D+00 BMatP= 2.64D+00
 IDIUse=3 WtCom= 0.00D+00 WtEn= 1.00D+00
 Coeff-Com:  0.100D+01
 Coeff-En:   0.100D+01
 Coeff:      0.100D+01
 Gap=     0.563 Goal=   None    Shift=    0.000
 GapD=    0.563 DampG=2.000 DampE=0.250 DampFc=0.5000 IDamp=-1.
 Damping current iteration by 5.00D-01
 RMSDP=5.98D-03 MaxDP=3.31D-01              OVMax= 1.76D-01

 Cycle   2  Pass 1  IDiag  1:
 E= -961.822751141916     Delta-E=       -0.260645941027 Rises=F Damp=T
 DIIS: error= 5.20D-02 at cycle   2 NSaved=   2.
 NSaved= 2 IEnMin= 2 EnMin= -961.822751141916     IErMin= 2 ErrMin= 5.20D-02
 ErrMax= 5.20D-02  0.00D+00 EMaxC= 1.00D-01 BMatC= 3.90D-01 BMatP= 2.64D+00
 IDIUse=3 WtCom= 4.80D-01 WtEn= 5.20D-01
 Coeff-Com: -0.435D+00 0.143D+01
 Coeff-En:   0.000D+00 0.100D+01
 Coeff:     -0.209D+00 0.121D+01
 Gap=     0.487 Goal=   None    Shift=    0.000
 RMSDP=1.96D-03 MaxDP=7.05D-02 DE=-2.61D-01 OVMax= 9.99D-02

 Cycle   3  Pass 1  IDiag  1:
 E= -962.024971322251     Delta-E=       -0.202220180335 Rises=F Damp=F
 DIIS: error= 1.29D-02 at cycle   3 NSaved=   3.
 NSaved= 3 IEnMin= 3 EnMin= -962.024971322251     IErMin= 3 ErrMin= 1.29D-02
 ErrMax= 1.29D-02  0.00D+00 EMaxC= 1.00D-01 BMatC= 6.49D-02 BMatP= 3.90D-01
 IDIUse=3 WtCom= 8.71D-01 WtEn= 1.29D-01
 Coeff-Com: -0.185D+00 0.540D+00 0.645D+00
 Coeff-En:   0.000D+00 0.000D+00 0.100D+01
 Coeff:     -0.161D+00 0.470D+00 0.691D+00
 Gap=     0.429 Goal=   None    Shift=    0.000
 RMSDP=1.54D-03 MaxDP=5.33D-02 DE=-2.02D-01 OVMax= 9.05D-02

 Cycle   4  Pass 1  IDiag  1:
 E= -962.051154075388     Delta-E=       -0.026182753137 Rises=F Damp=F
 DIIS: error= 7.15D-03 at cycle   4 NSaved=   4.
 NSaved= 4 IEnMin= 4 EnMin= -962.051154075388     IErMin= 4 ErrMin= 7.15D-03
 ErrMax= 7.15D-03  0.00D+00 EMaxC= 1.00D-01 BMatC= 2.36D-02 BMatP= 6.49D-02
 IDIUse=3 WtCom= 9.28D-01 WtEn= 7.15D-02
 Coeff-Com: -0.391D-01 0.988D-01 0.387D+00 0.553D+00
 Coeff-En:   0.000D+00 0.000D+00 0.297D+00 0.703D+00
 Coeff:     -0.363D-01 0.917D-01 0.381D+00 0.564D+00
 Gap=     0.428 Goal=   None    Shift=    0.000
 RMSDP=6.96D-04 MaxDP=2.19D-02 DE=-2.62D-02 OVMax= 3.53D-02

 Cycle   5  Pass 1  IDiag  1:
 E= -962.066588914413     Delta-E=       -0.015434839025 Rises=F Damp=F
 DIIS: error= 2.60D-03 at cycle   5 NSaved=   5.
 NSaved= 5 IEnMin= 5 EnMin= -962.066588914413     IErMin= 5 ErrMin= 2.60D-03
 ErrMax= 2.60D-03  0.00D+00 EMaxC= 1.00D-01 BMatC= 9.90D-04 BMatP= 2.36D-02
 IDIUse=3 WtCom= 9.74D-01 WtEn= 2.60D-02
 Coeff-Com: -0.860D-02 0.187D-01 0.160D+00 0.297D+00 0.533D+00
 Coeff-En:   0.000D+00 0.000D+00 0.000D+00 0.000D+00 0.100D+01
 Coeff:     -0.837D-02 0.183D-01 0.155D+00 0.289D+00 0.545D+00
 Gap=     0.422 Goal=   None    Shift=    0.000
 RMSDP=1.08D-04 MaxDP=2.95D-03 DE=-1.54D-02 OVMax= 4.81D-03

 Cycle   6  Pass 1  IDiag  1:
 E= -962.067179417845     Delta-E=       -0.000590503432 Rises=F Damp=F
 DIIS: error= 1.94D-04 at cycle   6 NSaved=   6.
 NSaved= 6 IEnMin= 6 EnMin= -962.067179417845     IErMin= 6 ErrMin= 1.94D-04
 ErrMax= 1.94D-04  0.00D+00 EMaxC= 1.00D-01 BMatC= 2.04D-05 BMatP= 9.90D-04
 IDIUse=3 WtCom= 9.98D-01 WtEn= 1.94D-03
 Coeff-Com:  0.168D-02-0.457D-02 0.716D-03 0.210D-01 0.131D+00 0.850D+00
 Coeff-En:   0.000D+00 0.000D+00 0.000D+00 0.000D+00 0.000D+00 0.100D+01
 Coeff:      0.168D-02-0.456D-02 0.714D-03 0.210D-01 0.131D+00 0.850D+00
 Gap=     0.422 Goal=   None    Shift=    0.000
 RMSDP=3.82D-05 MaxDP=1.28D-03 DE=-5.91D-04 OVMax= 1.85D-03

 Cycle   7  Pass 1  IDiag  1:
 E= -962.067197595634     Delta-E=       -0.000018177789 Rises=F Damp=F
 DIIS: error= 1.00D-04 at cycle   7 NSaved=   7.
 NSaved= 7 IEnMin= 7 EnMin= -962.067197595634     IErMin= 7 ErrMin= 1.00D-04
 ErrMax= 1.00D-04  0.00D+00 EMaxC= 1.00D-01 BMatC= 3.64D-06 BMatP= 2.04D-05
 IDIUse=1 WtCom= 1.00D+00 WtEn= 0.00D+00
 Coeff-Com:  0.147D-02-0.349D-02-0.136D-01-0.175D-01 0.182D-02 0.342D+00
 Coeff-Com:  0.690D+00
 Coeff:      0.147D-02-0.349D-02-0.136D-01-0.175D-01 0.182D-02 0.342D+00
 Coeff:      0.690D+00
 Gap=     0.423 Goal=   None    Shift=    0.000
 RMSDP=1.35D-05 MaxDP=6.72D-04 DE=-1.82D-05 OVMax= 6.20D-04

 Cycle   8  Pass 1  IDiag  1:
 E= -962.067200365466     Delta-E=       -0.000002769832 Rises=F Damp=F
 DIIS: error= 4.26D-05 at cycle   8 NSaved=   8.
 NSaved= 8 IEnMin= 8 EnMin= -962.067200365466     IErMin= 8 ErrMin= 4.26D-05
 ErrMax= 4.26D-05  0.00D+00 EMaxC= 1.00D-01 BMatC= 6.04D-07 BMatP= 3.64D-06
 IDIUse=1 WtCom= 1.00D+00 WtEn= 0.00D+00
 Coeff-Com:  0.476D-03-0.105D-02-0.672D-02-0.118D-01-0.181D-01 0.480D-01
 Coeff-Com:  0.326D+00 0.663D+00
 Coeff:      0.476D-03-0.105D-02-0.672D-02-0.118D-01-0.181D-01 0.480D-01
 Coeff:      0.326D+00 0.663D+00
 Gap=     0.423 Goal=   None    Shift=    0.000
 RMSDP=5.36D-06 MaxDP=1.39D-04 DE=-2.77D-06 OVMax= 2.91D-04

 Cycle   9  Pass 1  IDiag  1:
 E= -962.067200880198     Delta-E=       -0.000000514732 Rises=F Damp=F
 DIIS: error= 7.28D-06 at cycle   9 NSaved=   9.
 NSaved= 9 IEnMin= 9 EnMin= -962.067200880198     IErMin= 9 ErrMin= 7.28D-06
 ErrMax= 7.28D-06  0.00D+00 EMaxC= 1.00D-01 BMatC= 2.66D-08 BMatP= 6.04D-07
 IDIUse=1 WtCom= 1.00D+00 WtEn= 0.00D+00
 Coeff-Com:  0.153D-04-0.218D-04-0.853D-03-0.210D-02-0.546D-02-0.157D-01
 Coeff-Com:  0.235D-01 0.179D+00 0.822D+00
 Coeff:      0.153D-04-0.218D-04-0.853D-03-0.210D-02-0.546D-02-0.157D-01
 Coeff:      0.235D-01 0.179D+00 0.822D+00
 Gap=     0.422 Goal=   None    Shift=    0.000
 RMSDP=2.10D-06 MaxDP=5.76D-05 DE=-5.15D-07 OVMax= 1.23D-04

 Cycle  10  Pass 1  IDiag  1:
 E= -962.067200916204     Delta-E=       -0.000000036006 Rises=F Damp=F
 DIIS: error= 4.17D-06 at cycle  10 NSaved=  10.
 NSaved=10 IEnMin=10 EnMin= -962.067200916204     IErMin=10 ErrMin= 4.17D-06
 ErrMax= 4.17D-06  0.00D+00 EMaxC= 1.00D-01 BMatC= 7.44D-09 BMatP= 2.66D-08
 IDIUse=1 WtCom= 1.00D+00 WtEn= 0.00D+00
 Coeff-Com: -0.635D-04 0.142D-03 0.580D-03 0.866D-03 0.731D-03-0.104D-01
 Coeff-Com: -0.396D-01-0.230D-01 0.373D+00 0.698D+00
 Coeff:     -0.635D-04 0.142D-03 0.580D-03 0.866D-03 0.731D-03-0.104D-01
 Coeff:     -0.396D-01-0.230D-01 0.373D+00 0.698D+00
 Gap=     0.423 Goal=   None    Shift=    0.000
 RMSDP=8.03D-07 MaxDP=1.71D-05 DE=-3.60D-08 OVMax= 3.65D-05

 Cycle  11  Pass 1  IDiag  1:
 E= -962.067200923915     Delta-E=       -0.000000007711 Rises=F Damp=F
 DIIS: error= 1.14D-06 at cycle  11 NSaved=  11.
 NSaved=11 IEnMin=11 EnMin= -962.067200923915     IErMin=11 ErrMin= 1.14D-06
 ErrMax= 1.14D-06  0.00D+00 EMaxC= 1.00D-01 BMatC= 5.69D-10 BMatP= 7.44D-09
 IDIUse=1 WtCom= 1.00D+00 WtEn= 0.00D+00
 Coeff-Com: -0.165D-04 0.355D-04 0.181D-03 0.414D-03 0.767D-03 0.765D-05
 Coeff-Com: -0.125D-01-0.289D-01-0.245D-01 0.184D+00 0.881D+00
 Coeff:     -0.165D-04 0.355D-04 0.181D-03 0.414D-03 0.767D-03 0.765D-05
 Coeff:     -0.125D-01-0.289D-01-0.245D-01 0.184D+00 0.881D+00
 Gap=     0.423 Goal=   None    Shift=    0.000
 RMSDP=3.10D-07 MaxDP=6.01D-06 DE=-7.71D-09 OVMax= 1.63D-05

 Cycle  12  Pass 1  IDiag  1:
 E= -962.067200924827     Delta-E=       -0.000000000912 Rises=F Damp=F
 DIIS: error= 3.78D-07 at cycle  12 NSaved=  12.
 NSaved=12 IEnMin=12 EnMin= -962.067200924827     IErMin=12 ErrMin= 3.78D-07
 ErrMax= 3.78D-07  0.00D+00 EMaxC= 1.00D-01 BMatC= 5.37D-11 BMatP= 5.69D-10
 IDIUse=1 WtCom= 1.00D+00 WtEn= 0.00D+00
 Coeff-Com:  0.373D-06-0.111D-05 0.185D-05 0.428D-04 0.176D-03 0.960D-03
 Coeff-Com:  0.319D-03-0.636D-02-0.490D-01-0.160D-01 0.274D+00 0.795D+00
 Coeff:      0.373D-06-0.111D-05 0.185D-05 0.428D-04 0.176D-03 0.960D-03
 Coeff:      0.319D-03-0.636D-02-0.490D-01-0.160D-01 0.274D+00 0.795D+00
 Gap=     0.423 Goal=   None    Shift=    0.000
 RMSDP=1.02D-07 MaxDP=4.91D-06 DE=-9.12D-10 OVMax= 5.24D-06

 Cycle  13  Pass 1  IDiag  1:
 E= -962.067200924942     Delta-E=       -0.000000000115 Rises=F Damp=F
 DIIS: error= 1.06D-07 at cycle  13 NSaved=  13.
 NSaved=13 IEnMin=13 EnMin= -962.067200924942     IErMin=13 ErrMin= 1.06D-07
 ErrMax= 1.06D-07  0.00D+00 EMaxC= 1.00D-01 BMatC= 4.46D-12 BMatP= 5.37D-11
 IDIUse=1 WtCom= 1.00D+00 WtEn= 0.00D+00
 Coeff-Com:  0.200D-05-0.430D-05-0.126D-04-0.334D-04-0.379D-04 0.783D-04
 Coeff-Com:  0.994D-03 0.198D-02-0.956D-03-0.159D-01-0.490D-01 0.456D-01
 Coeff-Com:  0.102D+01
 Coeff:      0.200D-05-0.430D-05-0.126D-04-0.334D-04-0.379D-04 0.783D-04
 Coeff:      0.994D-03 0.198D-02-0.956D-03-0.159D-01-0.490D-01 0.456D-01
 Coeff:      0.102D+01
 Gap=     0.423 Goal=   None    Shift=    0.000
 RMSDP=3.36D-08 MaxDP=1.33D-06 DE=-1.15D-10 OVMax= 2.01D-06

 Cycle  14  Pass 1  IDiag  1:
 E= -962.067200924968     Delta-E=       -0.000000000026 Rises=F Damp=F
 DIIS: error= 5.41D-08 at cycle  14 NSaved=  14.
 NSaved=14 IEnMin=14 EnMin= -962.067200924968     IErMin=14 ErrMin= 5.41D-08
 ErrMax= 5.41D-08  0.00D+00 EMaxC= 1.00D-01 BMatC= 9.80D-13 BMatP= 4.46D-12
 IDIUse=1 WtCom= 1.00D+00 WtEn= 0.00D+00
 Coeff-Com:  0.907D-06-0.194D-05-0.630D-05-0.192D-04-0.335D-04-0.304D-04
 Coeff-Com:  0.438D-03 0.140D-02 0.364D-02-0.578D-02-0.457D-01-0.532D-01
 Coeff-Com:  0.431D+00 0.669D+00
 Coeff:      0.907D-06-0.194D-05-0.630D-05-0.192D-04-0.335D-04-0.304D-04
 Coeff:      0.438D-03 0.140D-02 0.364D-02-0.578D-02-0.457D-01-0.532D-01
 Coeff:      0.431D+00 0.669D+00
 Gap=     0.423 Goal=   None    Shift=    0.000
 RMSDP=8.56D-09 MaxDP=3.23D-07 DE=-2.61D-11 OVMax= 5.73D-07

 SCF Done:  E(RwB97XD) =  -962.067200925     A.U. after   14 cycles
            NFock= 14  Conv=0.86D-08     -V/T= 2.0019
 KE= 9.602684643663D+02 PE=-3.361244253916D+03 EE= 9.000737115701D+02
 Leave Link  502 at Fri May 23 05:26:14 2025, MaxMem=  3758096384 cpu:              39.7 elap:               7.3
 (Enter /apps/easybuild-2022/easybuild/software/Compiler/NVHPC/22.11-CUDA-11.7.0/Gaussian/g16c01-CUDA-11.7.0/g16/l508.exe)
 QCSCF skips out because SCF is already converged.
 Leave Link  508 at Fri May 23 05:26:14 2025, MaxMem=  3758096384 cpu:               0.1 elap:               0.0
 (Enter /apps/easybuild-2022/easybuild/software/Compiler/NVHPC/22.11-CUDA-11.7.0/Gaussian/g16c01-CUDA-11.7.0/g16/l801.exe)
 DoSCS=F DFT=T ScalE2(SS,OS)=  1.000000  1.000000
 Range of M.O.s used for correlation:     1   191
 NBasis=   191 NAE=    37 NBE=    37 NFC=     0 NFV=     0
 NROrb=    191 NOA=    37 NOB=    37 NVA=   154 NVB=   154
 Leave Link  801 at Fri May 23 05:26:14 2025, MaxMem=  3758096384 cpu:               0.1 elap:               0.0
 (Enter /apps/easybuild-2022/easybuild/software/Compiler/NVHPC/22.11-CUDA-11.7.0/Gaussian/g16c01-CUDA-11.7.0/g16/l1101.exe)
 Using compressed storage, NAtomX=     9.
 Will process     10 centers per pass.
 R6Disp: Adding Grimme-D2 dispersion energy 1st derivatives to the gradient.
 Leave Link 1101 at Fri May 23 05:26:15 2025, MaxMem=  3758096384 cpu:               0.7 elap:               0.1
 (Enter /apps/easybuild-2022/easybuild/software/Compiler/NVHPC/22.11-CUDA-11.7.0/Gaussian/g16c01-CUDA-11.7.0/g16/l1102.exe)
 Symmetrizing basis deriv contribution to polar:
 IMax=3 JMax=2 DiffMx= 0.00D+00
 Leave Link 1102 at Fri May 23 05:26:15 2025, MaxMem=  3758096384 cpu:               0.1 elap:               0.1
 (Enter /apps/easybuild-2022/easybuild/software/Compiler/NVHPC/22.11-CUDA-11.7.0/Gaussian/g16c01-CUDA-11.7.0/g16/l1110.exe)
 Forming Gx(P) for the SCF density, NAtomX=     9.
 Integral derivatives from FoFJK, PRISM(SPDF).
 Do as many integral derivatives as possible in FoFJK.
 G2DrvN: MDV=    3758095321.
 G2DrvN: will do    10 centers at a time, making    1 passes.
 Calling FoFCou, ICntrl=  3107 FMM=F I1Cent=   0 AccDes= 0.00D+00.
 FoFJK:  IHMeth= 1 ICntrl=    3107 DoSepK=T KAlg= 0 I1Cent=           0 FoldK=F
 IRaf=         1 NMat=       1 IRICut=       1 DoRegI=T DoRafI=F ISym2E= 0 IDoP0=0 IntGTp=1.
 FoFCou: FMM=F IPFlag=           0 FMFlag=      100000 FMFlg1=           0
         NFxFlg=           0 DoJE=F BraDBF=F KetDBF=F FulRan=T
         wScrn=  0.000000 ICntrl=      3507 IOpCl=  0 I1Cent=           0 NGrid=           0
         NMat0=    1 NMatS0=      1 NMatT0=    0 NMatD0=    1 NMtDS0=    0 NMtDT0=    0
 Symmetry not used in FoFCou.
 End of G2Drv F.D. properties file   721 does not exist.
 End of G2Drv F.D. properties file   722 does not exist.
 End of G2Drv F.D. properties file   788 does not exist.
 Leave Link 1110 at Fri May 23 05:26:21 2025, MaxMem=  3758096384 cpu:              48.3 elap:               6.2
 (Enter /apps/easybuild-2022/easybuild/software/Compiler/NVHPC/22.11-CUDA-11.7.0/Gaussian/g16c01-CUDA-11.7.0/g16/l1002.exe)
 Minotr:  Closed shell wavefunction.
          IDoAtm=111111111
          Direct CPHF calculation.
          Differentiating once with respect to nuclear coordinates.
          Requested convergence is 1.0D-08 RMS, and 1.0D-07 maximum.
          Secondary convergence is 1.0D-12 RMS, and 1.0D-12 maximum.
          NewPWx=T KeepS1=F KeepF1=F KeepIn=T MapXYZ=F SortEE=F KeepMc=T.
         2781 words used for storage of precomputed grid.
 Keep R1 ints in memory in canonical form, NReq=347957357.
 FoFCou: FMM=F IPFlag=           0 FMFlag=           0 FMFlg1=           0
         NFxFlg=           0 DoJE=F BraDBF=F KetDBF=F FulRan=T
         wScrn=  0.000000 ICntrl=       600 IOpCl=  0 I1Cent=           0 NGrid=           0
         NMat0=    1 NMatS0=  18336 NMatT0=    0 NMatD0=    1 NMtDS0=    0 NMtDT0=    0
 Symmetry not used in FoFCou.
 Two-electron integral symmetry not used.
          MDV=    3758096384 using IRadAn=       1.
          Solving linear equations simultaneously, MaxMat=       0.
          There are    30 degrees of freedom in the 1st order CPHF.  IDoFFX=6 NUNeed=     0.
     24 vectors produced by pass  0 Test12= 1.90D-14 3.33D-09 XBig12= 1.67D-01 8.32D-02.
 AX will form    24 AO Fock derivatives at one time.
     24 vectors produced by pass  1 Test12= 1.90D-14 3.33D-09 XBig12= 3.82D-02 4.27D-02.
     24 vectors produced by pass  2 Test12= 1.90D-14 3.33D-09 XBig12= 2.00D-03 8.25D-03.
     24 vectors produced by pass  3 Test12= 1.90D-14 3.33D-09 XBig12= 4.31D-05 1.17D-03.
     24 vectors produced by pass  4 Test12= 1.90D-14 3.33D-09 XBig12= 5.91D-07 1.20D-04.
     24 vectors produced by pass  5 Test12= 1.90D-14 3.33D-09 XBig12= 8.04D-09 1.43D-05.
     24 vectors produced by pass  6 Test12= 1.90D-14 3.33D-09 XBig12= 6.60D-11 1.09D-06.
     16 vectors produced by pass  7 Test12= 1.90D-14 3.33D-09 XBig12= 4.51D-13 8.84D-08.
      6 vectors produced by pass  8 Test12= 1.90D-14 3.33D-09 XBig12= 2.73D-15 6.44D-09.
 InvSVY:  IOpt=1 It=  1 EMax= 1.33D-15
 Solved reduced A of dimension   190 with    24 vectors.
 End of Minotr F.D. properties file   721 does not exist.
 End of Minotr F.D. properties file   722 does not exist.
 End of Minotr F.D. properties file   788 does not exist.
 Leave Link 1002 at Fri May 23 05:26:33 2025, MaxMem=  3758096384 cpu:              93.1 elap:              12.1
 (Enter /apps/easybuild-2022/easybuild/software/Compiler/NVHPC/22.11-CUDA-11.7.0/Gaussian/g16c01-CUDA-11.7.0/g16/l701.exe)
 ... and contract with generalized density number  0.
 Compute integral second derivatives.
 R6Disp: Adding Grimme-D2 dispersion energy 2nd derivatives to the Hessian.
 Leave Link  701 at Fri May 23 05:26:33 2025, MaxMem=  3758096384 cpu:               0.9 elap:               0.2
 (Enter /apps/easybuild-2022/easybuild/software/Compiler/NVHPC/22.11-CUDA-11.7.0/Gaussian/g16c01-CUDA-11.7.0/g16/l702.exe)
 L702 exits ... SP integral derivatives will be done elsewhere.
 Leave Link  702 at Fri May 23 05:26:33 2025, MaxMem=  3758096384 cpu:               0.1 elap:               0.0
 (Enter /apps/easybuild-2022/easybuild/software/Compiler/NVHPC/22.11-CUDA-11.7.0/Gaussian/g16c01-CUDA-11.7.0/g16/l703.exe)
 Integral derivatives from FoFJK, PRISM(SPDF).
 Compute integral second derivatives, UseDBF=F ICtDFT=           0.
 Calling FoFJK, ICntrl=    100127 FMM=F ISym2X=0 I1Cent= 0 IOpClX= 0 NMat=1 NMatS=1 NMatT=0.
 FoFJK:  IHMeth= 1 ICntrl=  100127 DoSepK=T KAlg= 0 I1Cent=           0 FoldK=F
 IRaf=         1 NMat=       1 IRICut=       1 DoRegI=T DoRafI=F ISym2E= 0 IDoP0=0 IntGTp=1.
 FoFCou: FMM=F IPFlag=           0 FMFlag=      100000 FMFlg1=         800
         NFxFlg=           0 DoJE=F BraDBF=F KetDBF=F FulRan=T
         wScrn=  0.000000 ICntrl=    100527 IOpCl=  0 I1Cent=           0 NGrid=           0
         NMat0=    1 NMatS0=      1 NMatT0=    0 NMatD0=    1 NMtDS0=    0 NMtDT0=    0
 Symmetry not used in FoFCou.
 Leave Link  703 at Fri May 23 05:26:51 2025, MaxMem=  3758096384 cpu:             140.0 elap:              17.8
 (Enter /apps/easybuild-2022/easybuild/software/Compiler/NVHPC/22.11-CUDA-11.7.0/Gaussian/g16c01-CUDA-11.7.0/g16/l716.exe)
 Dipole        = 3.51487644D-01 6.05758636D-01 7.97646053D-03
 Polarizability= 0.00000000D+00 0.00000000D+00 0.00000000D+00
                 0.00000000D+00 0.00000000D+00 0.00000000D+00
 -------------------------------------------------------------------
 Center     Atomic                   Forces (Hartrees/Bohr)
 Number     Number              X              Y              Z
 -------------------------------------------------------------------
      1        6          -0.000002298   -0.000005243    0.000003838
      2       16           0.000014397    0.000001115    0.000014983
      3        8           0.000002465    0.000005763    0.000005568
      4        8          -0.000000981    0.000015165   -0.000013249
      5        8          -0.000013996   -0.000016747   -0.000004872
      6        9           0.000001680    0.000004138    0.000001515
      7        9           0.000004758    0.000000078   -0.000006690
      8        9          -0.000007168   -0.000004491   -0.000002434
      9        1           0.000001143    0.000000222    0.000001342
 -------------------------------------------------------------------
 Cartesian Forces:  Max     0.000016747 RMS     0.000007764
 Force constants in Cartesian coordinates: 
                1             2             3             4             5 
      1  0.607418D+00
      2  0.359880D-02  0.516499D+00
      3  0.139672D-01  0.784178D-02  0.542850D+00
      4 -0.374872D-01 -0.177088D-01 -0.719419D-01  0.221582D+00
      5 -0.125480D-01  0.100525D-01 -0.413080D-02 -0.541253D-01  0.426753D+00
      6 -0.381952D-01 -0.402046D-02 -0.639114D-02  0.596325D-01 -0.950909D-01
      7 -0.118165D+00 -0.717918D-02 -0.213628D-01 -0.922352D-01  0.119329D-01
      8 -0.145135D-01 -0.849612D-01 -0.373270D-01  0.238552D-01 -0.349534D-01
      9 -0.508719D-01 -0.351468D-01 -0.210660D+00  0.600104D-01 -0.922634D-02
     10 -0.325761D-02  0.713747D-02  0.105782D-01 -0.704535D-01  0.416054D-01
     11  0.194597D-02 -0.367082D-02 -0.647882D-02  0.400660D-01 -0.131638D+00
     12  0.818547D-02  0.850516D-02  0.161638D-01 -0.953531D-01  0.175347D+00
     13  0.155247D-02  0.102349D-02  0.112874D-01 -0.457596D-01  0.148747D-01
     14  0.729247D-02 -0.483800D-02  0.185566D-01 -0.981991D-02 -0.221272D+00
     15  0.449939D-02 -0.128080D-03 -0.976774D-03  0.588429D-02 -0.660877D-01
     16 -0.273053D+00  0.992888D-02  0.339369D-01  0.175285D-01  0.175663D-02
     17  0.809308D-02 -0.794523D-01 -0.623879D-03  0.119529D-02  0.731765D-03
     18  0.279106D-01 -0.660376D-03 -0.805490D-01  0.693779D-02  0.690562D-04
     19 -0.887177D-01 -0.216652D-01  0.191870D-01 -0.104226D-02 -0.701785D-03
     20 -0.220295D-01 -0.143267D+00  0.717926D-01 -0.624400D-02 -0.583043D-02
     21  0.246704D-01  0.763360D-01 -0.162713D+00  0.190519D-01  0.482401D-02
     22 -0.876873D-01  0.262452D-01  0.634039D-02 -0.106550D-02  0.246288D-02
     23  0.295694D-01 -0.209373D+00 -0.465946D-01  0.146532D-01 -0.626908D-02
     24  0.110185D-01 -0.519646D-01 -0.961138D-01  0.141483D-01 -0.189308D-02
     25 -0.602460D-03 -0.138069D-02 -0.199234D-02  0.893225D-02 -0.525742D-02
     26 -0.140876D-02 -0.988763D-03 -0.303596D-02  0.812832D-02 -0.375739D-01
     27 -0.118458D-02 -0.762726D-03 -0.161024D-02  0.162990D-02 -0.381122D-02
                6             7             8             9            10 
      6  0.719840D+00
      7  0.325640D-01  0.280877D+00
      8 -0.937623D-02  0.343373D-01  0.118305D+00
      9 -0.538431D-01  0.104352D+00  0.662877D-01  0.371487D+00
     10 -0.774087D-01 -0.944029D-02  0.131279D-03 -0.438436D-01  0.765241D-01
     11  0.148183D+00  0.398669D-02  0.772010D-02  0.113780D-01 -0.467343D-01
     12 -0.577046D+00 -0.219032D-01  0.719869D-03 -0.666772D-02  0.121018D+00
     13  0.169994D-01 -0.126527D-01 -0.305742D-01 -0.117333D-01  0.113504D-01
     14 -0.273066D-02 -0.232777D-01 -0.435607D-02 -0.898266D-02  0.939145D-03
     15 -0.895285D-01 -0.204884D-02  0.373752D-02  0.105133D-01 -0.287584D-02
     16  0.356527D-02 -0.805162D-01 -0.765523D-02 -0.311445D-01 -0.314560D-02
     17  0.923858D-04 -0.124407D-01  0.113880D-01 -0.282741D-02 -0.103925D-02
     18  0.806879D-04 -0.542800D-01 -0.303383D-02 -0.116687D-02 -0.173408D-02
     19  0.253372D-02  0.167653D-01  0.824077D-02 -0.159196D-01  0.593211D-03
     20  0.639565D-03  0.702073D-02  0.108246D-01  0.187415D-01  0.838894D-03
     21 -0.166199D-02 -0.209064D-01  0.309547D-01 -0.731319D-01 -0.359038D-02
     22  0.214265D-02  0.156303D-01 -0.155645D-01 -0.109271D-01  0.557819D-03
     23  0.161456D-02 -0.169063D-01 -0.270237D-01 -0.435500D-01 -0.192343D-02
     24 -0.347252D-03 -0.169780D-01 -0.541873D-01 -0.365767D-01 -0.157566D-02
     25 -0.183355D-02 -0.263038D-03  0.174290D-02  0.775399D-04 -0.272850D-02
     26 -0.393115D-01  0.252635D-02  0.305617D-02  0.332603D-02 -0.955253D-03
     27  0.889672D-02  0.563180D-03  0.222457D-02  0.464917D-04 -0.568002D-03
               11            12            13            14            15 
     11  0.133158D+00
     12 -0.205642D+00  0.564220D+00
     13  0.291324D-03 -0.378112D-02  0.115459D+00
     14 -0.179447D-01  0.200861D-01 -0.354913D-01  0.343950D+00
     15  0.494670D-01  0.142344D-01 -0.151770D+00  0.153063D+00  0.440452D+00
     16  0.188368D-02 -0.587471D-02 -0.164484D-02 -0.477055D-02 -0.702342D-03
     17  0.577560D-03 -0.132419D-02  0.433823D-03  0.646218D-03  0.729750D-04
     18  0.146103D-02 -0.265224D-02 -0.106164D-02 -0.266485D-02  0.419769D-03
     19 -0.204788D-03 -0.105881D-02 -0.341819D-03 -0.538131D-04 -0.104061D-02
     20  0.378706D-03  0.229895D-04 -0.295138D-03  0.363240D-02 -0.561505D-03
     21  0.350064D-03 -0.192560D-02 -0.195691D-02 -0.482578D-02 -0.114136D-03
     22 -0.550400D-03 -0.761906D-03  0.571605D-03 -0.129230D-02 -0.115175D-02
     23  0.220065D-02 -0.315930D-02 -0.291933D-02 -0.150811D-03  0.525717D-03
     24  0.105783D-02 -0.183046D-02 -0.281475D-02 -0.218033D-02  0.358742D-03
     25 -0.684226D-03 -0.470682D-03 -0.685345D-01  0.664740D-01  0.149206D+00
     26  0.921795D-02  0.544425D-02  0.526566D-01 -0.996668D-01 -0.140089D+00
     27  0.223483D-03 -0.449620D-02  0.144831D+00 -0.170321D+00 -0.375359D+00
               16            17            18            19            20 
     16  0.419035D+00
     17 -0.159162D-01  0.824521D-01
     18 -0.536654D-01  0.325249D-02  0.931505D-01
     19 -0.397030D-01 -0.354703D-01  0.493195D-01  0.970492D-01
     20 -0.228003D-01  0.210007D-02  0.177505D-01  0.473648D-01  0.214263D+00
     21  0.341328D-01  0.196467D-01 -0.143475D-01 -0.519894D-01 -0.143053D+00
     22 -0.386002D-01  0.549341D-01  0.263719D-01  0.155036D-01 -0.394635D-02
     23  0.365674D-01 -0.184227D-01 -0.165711D-01  0.216342D-02 -0.820236D-01
     24  0.190755D-01 -0.183295D-01  0.489840D-02 -0.118349D-02  0.345054D-01
     25  0.984339D-04  0.210106D-03  0.201339D-03 -0.106588D-03  0.907509D-04
     26  0.100561D-02 -0.207781D-04  0.397066D-03  0.326838D-03 -0.778010D-04
     27  0.676467D-03  0.404504D-04  0.166242D-03  0.151743D-03  0.162415D-03
               21            22            23            24            25 
     21  0.242311D+00
     22  0.215345D-03  0.951947D-01
     23  0.150427D-01 -0.621893D-01  0.340170D+00
     24  0.113254D-01 -0.223957D-01  0.922187D-01  0.117873D+00
     25  0.372571D-03 -0.105050D-03  0.984930D-03  0.705322D-03  0.633095D-01
     26  0.725078D-03 -0.993661D-04  0.892430D-03  0.772846D-03 -0.621803D-01
     27  0.257053D-03  0.166184D-03  0.473311D-03  0.412465D-03 -0.146266D+00
               26            27 
     26  0.125161D+00
     27  0.171771D+00  0.371686D+00
 FormGI is forming the generalized inverse of G from B-inverse, IUseBI=4.
 Force constants in internal coordinates: 
                1             2             3             4             5 
      1  0.421901D+00
      2  0.567790D-01  0.428407D+00
      3  0.565032D-01  0.525639D-01  0.388934D+00
      4  0.578581D-01  0.526381D-01  0.533587D-01  0.388305D+00
      5  0.341643D-01 -0.119438D-01 -0.139161D-01 -0.134047D-01  0.142517D+00
      6 -0.953853D-02  0.596760D-02  0.180033D-02  0.441121D-02  0.249377D-01
      7 -0.724195D-02  0.351852D-02  0.539593D-02 -0.261961D-03  0.209972D-01
      8  0.778492D-03 -0.899379D-03 -0.170062D-03 -0.519865D-03 -0.160013D-02
      9  0.485865D-01  0.291074D-01 -0.395941D-01 -0.395492D-01 -0.864294D-02
     10  0.367967D-01 -0.364515D-01  0.302452D-01 -0.400710D-01 -0.535369D-02
     11  0.384943D-01 -0.363838D-01 -0.399570D-01  0.316999D-01 -0.825716D-02
     12 -0.417085D-01  0.300422D-01  0.298588D-01 -0.138256D-01  0.691888D-02
     13 -0.418888D-01  0.299425D-01 -0.136132D-01  0.294294D-01  0.709829D-02
     14 -0.466308D-01 -0.129972D-01  0.348540D-01  0.343874D-01  0.934233D-02
     15  0.184428D-02  0.242386D-02  0.510925D-02  0.135383D-02  0.137952D-01
     16 -0.606996D-02  0.177253D-02 -0.360500D-03  0.581990D-02  0.287836D-01
     17  0.210583D-02 -0.131677D-02 -0.615981D-03  0.108106D-02 -0.687474D-02
     18  0.388138D-01  0.264009D-02  0.859621D-03  0.270279D-02  0.370902D-01
     19  0.178163D-02 -0.118687D-02 -0.893035D-03 -0.200308D-02 -0.324899D-02
     20  0.211705D-03 -0.405122D-03 -0.343275D-01  0.350176D-01 -0.509726D-03
     21  0.361531D-02  0.337263D-01 -0.454767D-02 -0.337481D-01 -0.993934D-03
     22 -0.350171D-02 -0.342308D-01  0.333817D-01  0.479683D-02  0.146308D-02
     23  0.264459D-02 -0.553818D-04 -0.910675D-03  0.147846D-02  0.190927D-02
     24  0.168710D-02  0.403420D-03 -0.112529D-02 -0.139939D-02 -0.957063D-03
     25  0.965643D-03  0.132431D-02  0.245748D-02  0.944986D-03  0.130535D-01
     26  0.891042D-03 -0.170305D-02 -0.277817D-02 -0.293416D-02 -0.114158D-01
                6             7             8             9            10 
      6  0.674560D+00
      7  0.260300D-01  0.271766D+00
      8 -0.275714D-02  0.970251D-02  0.515212D+00
      9  0.746095D-02  0.385990D-02 -0.359960D-03  0.243349D+00
     10  0.218829D-02 -0.555938D-03 -0.606657D-03 -0.283272D-01  0.248514D+00
     11  0.235811D-03  0.349690D-02 -0.449847D-03 -0.281128D-01 -0.263623D-01
     12 -0.342017D-02 -0.342391D-02  0.607761D-03 -0.836696D-01 -0.793172D-01
     13 -0.456187D-02 -0.207432D-02  0.437044D-03 -0.827079D-01 -0.349502D-01
     14 -0.245557D-02 -0.167320D-02  0.447095D-03 -0.313467D-01 -0.892090D-01
     15  0.119699D-01 -0.877029D-02  0.152314D-02  0.468802D-02  0.175598D-02
     16 -0.114072D-01  0.135328D-01 -0.654901D-02  0.100541D-02  0.266585D-02
     17  0.202551D-01 -0.254861D-02 -0.535223D-02  0.190337D-02 -0.333462D-02
     18  0.106430D-01  0.461982D-02 -0.130052D-02  0.789001D-02  0.384231D-02
     19  0.495631D-02  0.415436D-01  0.193620D-01 -0.109850D-02 -0.112499D-02
     20 -0.913109D-03  0.173539D-02 -0.756169D-04 -0.640869D-03 -0.390278D-01
     21  0.116882D-02 -0.310450D-03  0.630910D-04  0.396605D-01 -0.139684D-02
     22 -0.293277D-03 -0.389790D-03 -0.103633D-03 -0.404027D-01  0.393789D-01
     23  0.851764D-02  0.133160D-02 -0.366374D-02  0.936147D-03  0.573785D-03
     24 -0.117709D-01  0.210255D-02  0.330177D-02 -0.216806D-02  0.301940D-02
     25  0.402847D-02 -0.924488D-03 -0.114505D-02  0.254740D-02  0.876991D-03
     26 -0.838014D-02  0.383660D-02  0.739701D-03 -0.323940D-02 -0.138542D-02
               11            12            13            14            15 
     11  0.248545D+00
     12 -0.344604D-01  0.176323D+00
     13 -0.791920D-01  0.164455D-01  0.176475D+00
     14 -0.896510D-01  0.164522D-01  0.162771D-01  0.184716D+00
     15 -0.194784D-02 -0.563418D-03 -0.160344D-02 -0.253637D-02  0.145982D+00
     16  0.271315D-02 -0.322948D-02  0.621289D-03 -0.404050D-02 -0.249517D-01
     17 -0.130243D-02  0.141186D-02  0.912949D-03  0.567287D-03 -0.970897D-02
     18  0.182080D-02 -0.381501D-02 -0.454694D-02 -0.586306D-02  0.179480D-01
     19 -0.659407D-03  0.117723D-02  0.695103D-03  0.115549D-02 -0.423305D-02
     20  0.392977D-01 -0.574425D-01  0.580217D-01  0.152824D-03 -0.165473D-02
     21 -0.390147D-01  0.571991D-01  0.143963D-02 -0.560913D-01  0.187199D-02
     22  0.227390D-02 -0.152884D-02 -0.579420D-01  0.560616D-01 -0.153705D-02
     23 -0.833164D-03 -0.237815D-03  0.120793D-03 -0.583794D-03 -0.175833D-02
     24  0.177872D-03 -0.763389D-03 -0.690063D-03  0.342530D-03 -0.122902D-01
     25 -0.106545D-02 -0.668724D-03 -0.214301D-03 -0.157409D-02  0.726531D-01
     26  0.244706D-03  0.895758D-03  0.109712D-02  0.258185D-02 -0.728751D-01
               16            17            18            19            20 
     16  0.278514D+00
     17 -0.187974D-02  0.158875D+00
     18  0.145771D-01  0.420080D-03  0.170520D+00
     19 -0.126139D-01 -0.298821D-01 -0.691392D-03  0.136437D+00
     20  0.238571D-02  0.162611D-03  0.254439D-03  0.140407D-03  0.663405D-01
     21  0.693479D-03  0.110898D-02  0.316546D-02  0.172478D-03 -0.302536D-01
     22 -0.728433D-03 -0.141707D-02 -0.408216D-03  0.406969D-03 -0.297159D-01
     23  0.428180D-01  0.814692D-01  0.787638D-02 -0.176079D-01  0.244037D-03
     24 -0.226298D-01 -0.811169D-01  0.343898D-03  0.174488D-01 -0.234927D-03
     25  0.331713D-01  0.142489D-01  0.130397D-01 -0.471759D-02 -0.370510D-03
     26 -0.457262D-01 -0.510034D-02 -0.118825D-01  0.103727D-01  0.468081D-03
               21            22            23            24            25 
     21  0.667854D-01
     22 -0.339523D-01  0.674759D-01
     23  0.931515D-03 -0.554671D-05  0.507531D-01
     24 -0.745664D-03  0.193830D-02 -0.445381D-01  0.477709D-01
     25  0.104478D-02 -0.111901D-02  0.164757D-01 -0.203564D-01  0.489949D-01
     26 -0.144417D-02  0.108242D-02 -0.135823D-01  0.170438D-01 -0.444586D-01
               26 
     26  0.522589D-01
 Leave Link  716 at Fri May 23 05:26:51 2025, MaxMem=  3758096384 cpu:               0.2 elap:               0.1
 (Enter /apps/easybuild-2022/easybuild/software/Compiler/NVHPC/22.11-CUDA-11.7.0/Gaussian/g16c01-CUDA-11.7.0/g16/l103.exe)

 GradGradGradGradGradGradGradGradGradGradGradGradGradGradGradGradGradGrad
 Berny optimization.
 Red2BG is reusing G-inverse.
 Internal  Forces:  Max     0.000039735 RMS     0.000011364
 Search for a local minimum.
 Step number   1 out of a maximum of   36
 All quantities printed in internal units (Hartrees-Bohrs-Radians)
 RMS Force = .11364D-04 SwitMx=.10000D-02 MixMth= 2
 Mixed Optimization -- En-DIIS/RFO-DIIS
 Second derivative matrix not updated -- analytic derivatives used.
 ITU=  0
     Eigenvalues ---    0.00279   0.00448   0.00534   0.09998   0.11828
     Eigenvalues ---    0.15692   0.18677   0.19066   0.22795   0.23284
     Eigenvalues ---    0.26699   0.27049   0.28879   0.29331   0.33165
     Eigenvalues ---    0.41160   0.42771   0.51003   0.51746   0.57561
     Eigenvalues ---    0.68059
 RFO step:  Lambda=-6.71765711D-08 EMin= 2.78554263D-03
 Linear search not attempted -- first point.
 Iteration  1 RMS(Cart)=  0.00114268 RMS(Int)=  0.00000061
 Iteration  2 RMS(Cart)=  0.00000089 RMS(Int)=  0.00000000
 ITry= 1 IFail=0 DXMaxC= 2.54D-03 DCOld= 1.00D+10 DXMaxT= 3.00D-01 DXLimC= 3.00D+00 Rises=F
 Variable       Old X    -DE/DX   Delta X   Delta X   Delta X     New X
                                 (Linear)    (Quad)   (Total)
    R1        2.54672   0.00001   0.00000   0.00001   0.00001   2.54673
    R2        2.50001  -0.00000   0.00000   0.00000   0.00000   2.50001
    R3        2.53471   0.00001   0.00000   0.00005   0.00005   2.53476
    R4        2.53507   0.00000   0.00000  -0.00003  -0.00003   2.53503
    R5        3.30766  -0.00000   0.00000   0.00001   0.00001   3.30767
    R6        2.72763  -0.00002   0.00000  -0.00003  -0.00003   2.72761
    R7        3.05019  -0.00002   0.00000  -0.00006  -0.00006   3.05013
    R8        1.83096   0.00000   0.00000   0.00001   0.00001   1.83096
    A1        1.89553  -0.00001   0.00000  -0.00001  -0.00001   1.89551
    A2        1.95910  -0.00000   0.00000  -0.00000  -0.00000   1.95909
    A3        1.95336   0.00002   0.00000   0.00004   0.00004   1.95340
    A4        1.89544   0.00000   0.00000   0.00001   0.00001   1.89545
    A5        1.89538  -0.00000   0.00000  -0.00001  -0.00001   1.89537
    A6        1.86334  -0.00000   0.00000  -0.00001  -0.00001   1.86332
    A7        1.77424   0.00001   0.00000  -0.00001  -0.00001   1.77423
    A8        1.67069  -0.00004   0.00000  -0.00006  -0.00006   1.67063
    A9        1.90200  -0.00001   0.00000  -0.00004  -0.00004   1.90196
   A10        2.05797   0.00001   0.00000   0.00007   0.00007   2.05803
   A11        1.94771  -0.00001   0.00000  -0.00007  -0.00007   1.94764
    D1       -3.13213   0.00001   0.00000   0.00214   0.00214  -3.12999
    D2       -1.03618   0.00001   0.00000   0.00214   0.00214  -1.03404
    D3        1.05875   0.00001   0.00000   0.00214   0.00214   1.06090
    D4       -2.54333  -0.00001   0.00000  -0.00111  -0.00111  -2.54444
    D5        1.80682   0.00000   0.00000  -0.00105  -0.00105   1.80577
    D6        1.15605  -0.00000   0.00000   0.00029   0.00029   1.15634
    D7       -0.66659   0.00000   0.00000   0.00034   0.00034  -0.66626
         Item               Value     Threshold  Converged?
 Maximum Force            0.000040     0.000015     NO 
 RMS     Force            0.000011     0.000010     NO 
 Maximum Displacement     0.002542     0.000060     NO 
 RMS     Displacement     0.001143     0.000040     NO 
 Predicted change in Energy=-3.358829D-08
 Lowest energy point so far.  Saving SCF results.
 GradGradGradGradGradGradGradGradGradGradGradGradGradGradGradGradGradGrad

 Leave Link  103 at Fri May 23 05:26:51 2025, MaxMem=  3758096384 cpu:               0.1 elap:               0.1
 (Enter /apps/easybuild-2022/easybuild/software/Compiler/NVHPC/22.11-CUDA-11.7.0/Gaussian/g16c01-CUDA-11.7.0/g16/l202.exe)
                          Input orientation:                          
 ---------------------------------------------------------------------
 Center     Atomic      Atomic             Coordinates (Angstroms)
 Number     Number       Type             X           Y           Z
 ---------------------------------------------------------------------
      1          6           0       -0.630752   -0.278621   -1.157793
      2         16           0        1.750615    0.000168   -0.000168
      3          8           0        0.000271   -0.001042    0.000213
      4          8           0        2.042862   -0.500616    1.321639
      5          8           0        1.910374    1.606301   -0.000062
      6          9           0       -1.936194   -0.215566   -0.952744
      7          9           0       -0.308374    0.585593   -2.131645
      8          9           0       -0.327746   -1.503945   -1.612042
      9          1           0        1.584835    1.996931    0.824685
 ---------------------------------------------------------------------
                    Distance matrix (angstroms):
                    1          2          3          4          5
     1  C    0.000000
     2  S    2.662467   0.000000
     3  O    1.347671   1.750344   0.000000
     4  O    3.653091   1.443387   2.483529   0.000000
     5  O    3.369064   1.614059   2.496406   2.490692   0.000000
     6  F    1.322951   3.813988   2.168881   4.592053   4.361523
     7  F    1.341335   3.020820   2.232537   4.316634   3.241656
     8  F    1.341482   3.029865   2.228380   3.902939   4.157077
     9  H    3.743953   2.166778   2.680017   2.587372   0.968904
                    6          7          8          9
     6  F    0.000000
     7  F    2.163668   0.000000
     8  F    2.163723   2.153261   0.000000
     9  H    4.522393   3.783649   4.674584   0.000000
 Symmetry turned off by external request.
 Stoichiometry    CHF3O3S
 Rotational constants (GHZ):           3.4351895           1.1566091           1.0529594
 Leave Link  202 at Fri May 23 05:26:51 2025, MaxMem=  3758096384 cpu:               0.0 elap:               0.0
 (Enter /apps/easybuild-2022/easybuild/software/Compiler/NVHPC/22.11-CUDA-11.7.0/Gaussian/g16c01-CUDA-11.7.0/g16/l301.exe)
 Standard basis: 6-311++G(d,p) (5D, 7F)
 Ernie: Thresh=  0.10000D-02 Tol=  0.10000D-05 Strict=F.
   191 basis functions,   311 primitive gaussians,   199 cartesian basis functions
    37 alpha electrons       37 beta electrons
       nuclear repulsion energy       538.8419598548 Hartrees.
 IExCor= 4639 DFT=T Ex+Corr=wB97XD ExCW=0 ScaHFX=  1.000000
 ScaDFX=  1.000000  1.000000  1.000000  1.000000 ScalE2=  1.000000  1.000000
 IRadAn=      5 IRanWt=     -1 IRanGd=            0 ICorTp=0 IEmpDi=121
 HFx  wShort=  0.000000 wLong=  0.200000 cFull=  0.222036 cShort=  0.000000 cLong=  0.777964
 DFx  wShort=  0.000000 wLong=  0.200000 cFull=  0.000000 cShort=  0.000000 cLong=  1.000000
 NAtoms=    9 NActive=    9 NUniq=    9 SFac= 1.00D+00 NAtFMM=   60 NAOKFM=F Big=F
 Integral buffers will be    131072 words long.
 Raffenetti 2 integral format.
 Two-electron integral symmetry is turned off.
 R6Disp:  Grimme-D2 Dispersion energy=       -0.0023465811 Hartrees.
 Nuclear repulsion after empirical dispersion term =      538.8396132737 Hartrees.
 Leave Link  301 at Fri May 23 05:26:51 2025, MaxMem=  3758096384 cpu:               0.1 elap:               0.1
 (Enter /apps/easybuild-2022/easybuild/software/Compiler/NVHPC/22.11-CUDA-11.7.0/Gaussian/g16c01-CUDA-11.7.0/g16/l302.exe)
 NPDir=0 NMtPBC=     1 NCelOv=     1 NCel=       1 NClECP=     1 NCelD=      1
         NCelK=      1 NCelE2=     1 NClLst=     1 CellRange=     0.0.
 One-electron integrals computed using PRISM.
 NBasis=   191 RedAO= T EigKep=  6.26D-04  NBF=   191
 NBsUse=   191 1.00D-06 EigRej= -1.00D+00 NBFU=   191
 Precomputing XC quadrature grid using
 IXCGrd= 4 IRadAn=           5 IRanWt=          -1 IRanGd=           0 AccXCQ= 0.00D+00.
 Generated NRdTot=       0 NPtTot=           0 NUsed=           0 NTot=          32
 NSgBfM=   199   199   199   199   199 MxSgAt=     9 MxSgA2=     9.
 Leave Link  302 at Fri May 23 05:26:52 2025, MaxMem=  3758096384 cpu:               0.6 elap:               0.3
 (Enter /apps/easybuild-2022/easybuild/software/Compiler/NVHPC/22.11-CUDA-11.7.0/Gaussian/g16c01-CUDA-11.7.0/g16/l303.exe)
 DipDrv:  MaxL=1.
 Leave Link  303 at Fri May 23 05:26:52 2025, MaxMem=  3758096384 cpu:               0.1 elap:               0.1
 (Enter /apps/easybuild-2022/easybuild/software/Compiler/NVHPC/22.11-CUDA-11.7.0/Gaussian/g16c01-CUDA-11.7.0/g16/l401.exe)
 Initial guess from the checkpoint file:  "/tmp/Gau-96245.chk"
 B after Tr=     0.000240    0.000265   -0.000040
         Rot=    1.000000    0.000045   -0.000018    0.000055 Ang=   0.01 deg.
 Guess basis will be translated and rotated to current coordinates.
 JPrj=2 DoOrth=T DoCkMO=T.
 Leave Link  401 at Fri May 23 05:26:52 2025, MaxMem=  3758096384 cpu:               0.2 elap:               0.1
 (Enter /apps/easybuild-2022/easybuild/software/Compiler/NVHPC/22.11-CUDA-11.7.0/Gaussian/g16c01-CUDA-11.7.0/g16/l502.exe)
 Keep R1 ints in memory in canonical form, NReq=347976339.
 FoFCou: FMM=F IPFlag=           0 FMFlag=           0 FMFlg1=           0
         NFxFlg=           0 DoJE=F BraDBF=F KetDBF=F FulRan=T
         wScrn=  0.000000 ICntrl=       600 IOpCl=  0 I1Cent=           0 NGrid=           0
         NMat0=    1 NMatS0=  18336 NMatT0=    0 NMatD0=    1 NMtDS0=    0 NMtDT0=    0
 Symmetry not used in FoFCou.
 Two-electron integral symmetry not used.
 Closed shell SCF:
 Using DIIS extrapolation, IDIIS=  1040.
 NGot=  3758096384 LenX=  3421786711 LenY=  3421746669
 Requested convergence on RMS density matrix=1.00D-08 within  32 cycles.
 Requested convergence on MAX density matrix=1.00D-06.
 Requested convergence on             energy=1.00D-06.
 No special actions if energy rises.

 Cycle   1  Pass 1  IDiag  1:
 E= -962.067198387345    
 DIIS: error= 5.80D-05 at cycle   1 NSaved=   1.
 NSaved= 1 IEnMin= 1 EnMin= -962.067198387345     IErMin= 1 ErrMin= 5.80D-05
 ErrMax= 5.80D-05  0.00D+00 EMaxC= 1.00D-01 BMatC= 1.61D-06 BMatP= 1.61D-06
 IDIUse=1 WtCom= 1.00D+00 WtEn= 0.00D+00
 Coeff-Com:  0.100D+01
 Coeff:      0.100D+01
 Gap=     0.709 Goal=   None    Shift=    0.000
 RMSDP=9.27D-06 MaxDP=1.36D-04              OVMax= 3.60D-04

 Cycle   2  Pass 1  IDiag  1:
 E= -962.067200823942     Delta-E=       -0.000002436597 Rises=F Damp=F
 DIIS: error= 1.35D-05 at cycle   2 NSaved=   2.
 NSaved= 2 IEnMin= 2 EnMin= -962.067200823942     IErMin= 2 ErrMin= 1.35D-05
 ErrMax= 1.35D-05  0.00D+00 EMaxC= 1.00D-01 BMatC= 6.10D-08 BMatP= 1.61D-06
 IDIUse=1 WtCom= 1.00D+00 WtEn= 0.00D+00
 Coeff-Com: -0.182D+00 0.118D+01
 Coeff:     -0.182D+00 0.118D+01
 Gap=     0.423 Goal=   None    Shift=    0.000
 RMSDP=2.40D-06 MaxDP=3.04D-05 DE=-2.44D-06 OVMax= 1.11D-04

 Cycle   3  Pass 1  IDiag  1:
 E= -962.067200954094     Delta-E=       -0.000000130152 Rises=F Damp=F
 DIIS: error= 2.61D-06 at cycle   3 NSaved=   3.
 NSaved= 3 IEnMin= 3 EnMin= -962.067200954094     IErMin= 3 ErrMin= 2.61D-06
 ErrMax= 2.61D-06  0.00D+00 EMaxC= 1.00D-01 BMatC= 3.08D-09 BMatP= 6.10D-08
 IDIUse=1 WtCom= 1.00D+00 WtEn= 0.00D+00
 Coeff-Com: -0.276D-01 0.114D+00 0.913D+00
 Coeff:     -0.276D-01 0.114D+00 0.913D+00
 Gap=     0.423 Goal=   None    Shift=    0.000
 RMSDP=5.24D-07 MaxDP=1.39D-05 DE=-1.30D-07 OVMax= 2.75D-05

 Cycle   4  Pass 1  IDiag  1:
 E= -962.067200956389     Delta-E=       -0.000000002295 Rises=F Damp=F
 DIIS: error= 2.64D-06 at cycle   4 NSaved=   4.
 NSaved= 4 IEnMin= 4 EnMin= -962.067200956389     IErMin= 3 ErrMin= 2.61D-06
 ErrMax= 2.64D-06  0.00D+00 EMaxC= 1.00D-01 BMatC= 3.00D-09 BMatP= 3.08D-09
 IDIUse=1 WtCom= 1.00D+00 WtEn= 0.00D+00
 Coeff-Com:  0.656D-02-0.818D-01 0.527D+00 0.548D+00
 Coeff:      0.656D-02-0.818D-01 0.527D+00 0.548D+00
 Gap=     0.423 Goal=   None    Shift=    0.000
 RMSDP=2.33D-07 MaxDP=8.25D-06 DE=-2.29D-09 OVMax= 1.12D-05

 Cycle   5  Pass 1  IDiag  1:
 E= -962.067200958475     Delta-E=       -0.000000002086 Rises=F Damp=F
 DIIS: error= 3.91D-07 at cycle   5 NSaved=   5.
 NSaved= 5 IEnMin= 5 EnMin= -962.067200958475     IErMin= 5 ErrMin= 3.91D-07
 ErrMax= 3.91D-07  0.00D+00 EMaxC= 1.00D-01 BMatC= 7.33D-11 BMatP= 3.00D-09
 IDIUse=1 WtCom= 1.00D+00 WtEn= 0.00D+00
 Coeff-Com:  0.446D-02-0.383D-01 0.986D-01 0.163D+00 0.772D+00
 Coeff:      0.446D-02-0.383D-01 0.986D-01 0.163D+00 0.772D+00
 Gap=     0.423 Goal=   None    Shift=    0.000
 RMSDP=8.17D-08 MaxDP=1.66D-06 DE=-2.09D-09 OVMax= 5.49D-06

 Cycle   6  Pass 1  IDiag  1:
 E= -962.067200958562     Delta-E=       -0.000000000087 Rises=F Damp=F
 DIIS: error= 3.16D-07 at cycle   6 NSaved=   6.
 NSaved= 6 IEnMin= 6 EnMin= -962.067200958562     IErMin= 6 ErrMin= 3.16D-07
 ErrMax= 3.16D-07  0.00D+00 EMaxC= 1.00D-01 BMatC= 3.55D-11 BMatP= 7.33D-11
 IDIUse=1 WtCom= 1.00D+00 WtEn= 0.00D+00
 Coeff-Com:  0.158D-02-0.949D-02-0.290D-01 0.341D-02 0.449D+00 0.585D+00
 Coeff:      0.158D-02-0.949D-02-0.290D-01 0.341D-02 0.449D+00 0.585D+00
 Gap=     0.423 Goal=   None    Shift=    0.000
 RMSDP=3.90D-08 MaxDP=8.08D-07 DE=-8.71D-11 OVMax= 2.01D-06

 Cycle   7  Pass 1  IDiag  1:
 E= -962.067200958603     Delta-E=       -0.000000000040 Rises=F Damp=F
 DIIS: error= 5.78D-08 at cycle   7 NSaved=   7.
 NSaved= 7 IEnMin= 7 EnMin= -962.067200958603     IErMin= 7 ErrMin= 5.78D-08
 ErrMax= 5.78D-08  0.00D+00 EMaxC= 1.00D-01 BMatC= 1.50D-12 BMatP= 3.55D-11
 IDIUse=1 WtCom= 1.00D+00 WtEn= 0.00D+00
 Coeff-Com: -0.301D-03 0.374D-02-0.230D-01-0.248D-01-0.820D-04 0.147D+00
 Coeff-Com:  0.897D+00
 Coeff:     -0.301D-03 0.374D-02-0.230D-01-0.248D-01-0.820D-04 0.147D+00
 Coeff:      0.897D+00
 Gap=     0.423 Goal=   None    Shift=    0.000
 RMSDP=1.52D-08 MaxDP=2.99D-07 DE=-4.02D-11 OVMax= 1.22D-06

 Cycle   8  Pass 1  IDiag  1:
 E= -962.067200958595     Delta-E=        0.000000000007 Rises=F Damp=F
 DIIS: error= 4.92D-08 at cycle   8 NSaved=   8.
 NSaved= 8 IEnMin= 7 EnMin= -962.067200958603     IErMin= 8 ErrMin= 4.92D-08
 ErrMax= 4.92D-08  0.00D+00 EMaxC= 1.00D-01 BMatC= 4.29D-13 BMatP= 1.50D-12
 IDIUse=1 WtCom= 1.00D+00 WtEn= 0.00D+00
 Coeff-Com: -0.325D-03 0.296D-02-0.806D-02-0.126D-01-0.470D-01 0.936D-02
 Coeff-Com:  0.439D+00 0.617D+00
 Coeff:     -0.325D-03 0.296D-02-0.806D-02-0.126D-01-0.470D-01 0.936D-02
 Coeff:      0.439D+00 0.617D+00
 Gap=     0.423 Goal=   None    Shift=    0.000
 RMSDP=4.54D-09 MaxDP=1.07D-07 DE= 7.28D-12 OVMax= 2.80D-07

 SCF Done:  E(RwB97XD) =  -962.067200959     A.U. after    8 cycles
            NFock=  8  Conv=0.45D-08     -V/T= 2.0019
 KE= 9.602685318487D+02 PE=-3.361253859075D+03 EE= 9.000785129937D+02
 Leave Link  502 at Fri May 23 05:26:57 2025, MaxMem=  3758096384 cpu:              27.1 elap:               5.1
 (Enter /apps/easybuild-2022/easybuild/software/Compiler/NVHPC/22.11-CUDA-11.7.0/Gaussian/g16c01-CUDA-11.7.0/g16/l508.exe)
 QCSCF skips out because SCF is already converged.
 Leave Link  508 at Fri May 23 05:26:57 2025, MaxMem=  3758096384 cpu:               0.0 elap:               0.0
 (Enter /apps/easybuild-2022/easybuild/software/Compiler/NVHPC/22.11-CUDA-11.7.0/Gaussian/g16c01-CUDA-11.7.0/g16/l701.exe)
 ... and contract with generalized density number  0.
 Compute integral first derivatives.
 R6Disp: Adding Grimme-D2 dispersion energy 1st derivatives to the gradient.
 Leave Link  701 at Fri May 23 05:26:57 2025, MaxMem=  3758096384 cpu:               0.8 elap:               0.3
 (Enter /apps/easybuild-2022/easybuild/software/Compiler/NVHPC/22.11-CUDA-11.7.0/Gaussian/g16c01-CUDA-11.7.0/g16/l702.exe)
 L702 exits ... SP integral derivatives will be done elsewhere.
 Leave Link  702 at Fri May 23 05:26:57 2025, MaxMem=  3758096384 cpu:               0.1 elap:               0.0
 (Enter /apps/easybuild-2022/easybuild/software/Compiler/NVHPC/22.11-CUDA-11.7.0/Gaussian/g16c01-CUDA-11.7.0/g16/l703.exe)
 Integral derivatives from FoFJK, PRISM(SPDF).
 Compute integral first derivatives, UseDBF=F ICtDFT=           0.
 Calling FoFJK, ICntrl=      2127 FMM=F ISym2X=0 I1Cent= 0 IOpClX= 0 NMat=1 NMatS=1 NMatT=0.
 FoFJK:  IHMeth= 1 ICntrl=    2127 DoSepK=T KAlg= 0 I1Cent=           0 FoldK=F
 IRaf=         1 NMat=       1 IRICut=       1 DoRegI=T DoRafI=F ISym2E= 0 IDoP0=0 IntGTp=1.
 FoFCou: FMM=F IPFlag=           0 FMFlag=      100000 FMFlg1=         800
         NFxFlg=           0 DoJE=F BraDBF=F KetDBF=F FulRan=T
         wScrn=  0.000000 ICntrl=      2527 IOpCl=  0 I1Cent=           0 NGrid=           0
         NMat0=    1 NMatS0=      1 NMatT0=    0 NMatD0=    1 NMtDS0=    0 NMtDT0=    0
 Symmetry not used in FoFCou.
 Leave Link  703 at Fri May 23 05:26:59 2025, MaxMem=  3758096384 cpu:              14.4 elap:               2.1
 (Enter /apps/easybuild-2022/easybuild/software/Compiler/NVHPC/22.11-CUDA-11.7.0/Gaussian/g16c01-CUDA-11.7.0/g16/l716.exe)
 Dipole        = 3.51362894D-01 6.05720545D-01 8.06692661D-03
 -------------------------------------------------------------------
 Center     Atomic                   Forces (Hartrees/Bohr)
 Number     Number              X              Y              Z
 -------------------------------------------------------------------
      1        6          -0.000000546   -0.000000869    0.000000848
      2       16           0.000000037    0.000000045    0.000000276
      3        8          -0.000000020    0.000000910    0.000000377
      4        8          -0.000000194    0.000002254    0.000001014
      5        8           0.000000683    0.000000050   -0.000002546
      6        9          -0.000000081    0.000000213    0.000000787
      7        9           0.000000067   -0.000002610   -0.000000582
      8        9          -0.000000894   -0.000001585    0.000002997
      9        1           0.000000949    0.000001591   -0.000003170
 -------------------------------------------------------------------
 Cartesian Forces:  Max     0.000003170 RMS     0.000001354
 Leave Link  716 at Fri May 23 05:26:59 2025, MaxMem=  3758096384 cpu:               0.1 elap:               0.1
 (Enter /apps/easybuild-2022/easybuild/software/Compiler/NVHPC/22.11-CUDA-11.7.0/Gaussian/g16c01-CUDA-11.7.0/g16/l103.exe)

 GradGradGradGradGradGradGradGradGradGradGradGradGradGradGradGradGradGrad
 Berny optimization.
 Using GEDIIS/GDIIS optimizer.
 FormGI is forming the generalized inverse of G from B-inverse, IUseBI=4.
 Internal  Forces:  Max     0.000000160 RMS     0.000000058
 Search for a local minimum.
 Step number   2 out of a maximum of   36
 All quantities printed in internal units (Hartrees-Bohrs-Radians)
 RMS Force = .58351D-07 SwitMx=.10000D-02 MixMth= 2
 Mixed Optimization -- En-DIIS/RFO-DIIS
 Swapping is turned off.
 Update second derivatives using D2CorX and points    1    2
 DE= -3.36D-08 DEPred=-3.36D-08 R= 1.00D+00
 Trust test= 1.00D+00 RLast= 4.04D-03 DXMaxT set to 3.00D-01
 ITU=  0  0
     Eigenvalues ---    0.00278   0.00447   0.00534   0.09998   0.11827
     Eigenvalues ---    0.15692   0.18677   0.19066   0.22794   0.23284
     Eigenvalues ---    0.26699   0.27048   0.28884   0.29329   0.33171
     Eigenvalues ---    0.41160   0.42772   0.51001   0.51746   0.57564
     Eigenvalues ---    0.68057
 En-DIIS/RFO-DIIS/Sim-DIIS IScMMF=       -3 using points:     2    1
 RFO step:  Lambda=-2.81677625D-13.
 NNeg= 0 NGDIIS= 2 SimSw=  2.50D-03 Rises=F DC= -3.36D-08 SmlDif=  1.00D-05
 NRisDI= 0 DoIntr=F SqrtH=F CThrHd= 10.0 CDAdj=  3.0
 RMS Error=  0.2510465505D-05 NUsed= 2 OKEnD=F EnDIS=F
 InvSVX:  RCond= 4.07D-06 Info=           0 Equed=N FErr=  8.94D-16 BErr=  3.58D-17
 DidBck=F Rises=F RFO-DIIS coefs:    1.00315   -0.00315
 Iteration  1 RMS(Cart)=  0.00000361 RMS(Int)=  0.00000000
 Iteration  2 RMS(Cart)=  0.00000000 RMS(Int)=  0.00000000
 ITry= 1 IFail=0 DXMaxC= 7.81D-06 DCOld= 1.00D+10 DXMaxT= 3.00D-01 DXLimC= 3.00D+00 Rises=F
 Variable       Old X    -DE/DX   Delta X   Delta X   Delta X     New X
                                 (Linear)    (Quad)   (Total)
    R1        2.54673   0.00000   0.00000   0.00000   0.00000   2.54673
    R2        2.50001  -0.00000   0.00000  -0.00000  -0.00000   2.50001
    R3        2.53476  -0.00000   0.00000  -0.00000   0.00000   2.53476
    R4        2.53503  -0.00000  -0.00000  -0.00000  -0.00000   2.53503
    R5        3.30767   0.00000   0.00000   0.00000   0.00000   3.30767
    R6        2.72761  -0.00000  -0.00000  -0.00000  -0.00000   2.72761
    R7        3.05013   0.00000  -0.00000   0.00000   0.00000   3.05013
    R8        1.83096   0.00000   0.00000  -0.00000   0.00000   1.83096
    A1        1.89551   0.00000  -0.00000   0.00000   0.00000   1.89551
    A2        1.95909  -0.00000  -0.00000  -0.00000  -0.00000   1.95909
    A3        1.95340  -0.00000   0.00000  -0.00000  -0.00000   1.95340
    A4        1.89545  -0.00000   0.00000  -0.00000  -0.00000   1.89545
    A5        1.89537   0.00000  -0.00000   0.00000   0.00000   1.89537
    A6        1.86332  -0.00000  -0.00000   0.00000  -0.00000   1.86332
    A7        1.77423   0.00000  -0.00000  -0.00000  -0.00000   1.77423
    A8        1.67063  -0.00000  -0.00000   0.00000   0.00000   1.67063
    A9        1.90196  -0.00000  -0.00000  -0.00000  -0.00000   1.90196
   A10        2.05803   0.00000   0.00000  -0.00000   0.00000   2.05803
   A11        1.94764   0.00000  -0.00000   0.00000  -0.00000   1.94764
    D1       -3.12999   0.00000   0.00001   0.00000   0.00001  -3.12998
    D2       -1.03404   0.00000   0.00001   0.00000   0.00001  -1.03403
    D3        1.06090  -0.00000   0.00001  -0.00000   0.00001   1.06090
    D4       -2.54444  -0.00000  -0.00000   0.00000  -0.00000  -2.54444
    D5        1.80577   0.00000  -0.00000   0.00000  -0.00000   1.80576
    D6        1.15634   0.00000   0.00000   0.00000   0.00000   1.15634
    D7       -0.66626   0.00000   0.00000   0.00000   0.00000  -0.66626
         Item               Value     Threshold  Converged?
 Maximum Force            0.000000     0.000015     YES
 RMS     Force            0.000000     0.000010     YES
 Maximum Displacement     0.000008     0.000060     YES
 RMS     Displacement     0.000004     0.000040     YES
 Predicted change in Energy=-4.359193D-13
 Optimization completed.
    -- Stationary point found.
                           ----------------------------
                           !   Optimized Parameters   !
                           ! (Angstroms and Degrees)  !
 --------------------------                            --------------------------
 ! Name  Definition              Value          Derivative Info.                !
 --------------------------------------------------------------------------------
 ! R1    R(1,3)                  1.3477         -DE/DX =    0.0                 !
 ! R2    R(1,6)                  1.323          -DE/DX =    0.0                 !
 ! R3    R(1,7)                  1.3413         -DE/DX =    0.0                 !
 ! R4    R(1,8)                  1.3415         -DE/DX =    0.0                 !
 ! R5    R(2,3)                  1.7503         -DE/DX =    0.0                 !
 ! R6    R(2,4)                  1.4434         -DE/DX =    0.0                 !
 ! R7    R(2,5)                  1.6141         -DE/DX =    0.0                 !
 ! R8    R(5,9)                  0.9689         -DE/DX =    0.0                 !
 ! A1    A(3,1,6)              108.6048         -DE/DX =    0.0                 !
 ! A2    A(3,1,7)              112.2478         -DE/DX =    0.0                 !
 ! A3    A(3,1,8)              111.9214         -DE/DX =    0.0                 !
 ! A4    A(6,1,7)              108.6014         -DE/DX =    0.0                 !
 ! A5    A(6,1,8)              108.5966         -DE/DX =    0.0                 !
 ! A6    A(7,1,8)              106.7605         -DE/DX =    0.0                 !
 ! A7    A(3,2,4)              101.6559         -DE/DX =    0.0                 !
 ! A8    A(3,2,5)               95.72           -DE/DX =    0.0                 !
 ! A9    A(4,2,5)              108.9744         -DE/DX =    0.0                 !
 ! A10   A(1,3,2)              117.9167         -DE/DX =    0.0                 !
 ! A11   A(2,5,9)              111.5915         -DE/DX =    0.0                 !
 ! D1    D(6,1,3,2)           -179.3353         -DE/DX =    0.0                 !
 ! D2    D(7,1,3,2)            -59.2462         -DE/DX =    0.0                 !
 ! D3    D(8,1,3,2)             60.7849         -DE/DX =    0.0                 !
 ! D4    D(4,2,3,1)           -145.7856         -DE/DX =    0.0                 !
 ! D5    D(5,2,3,1)            103.4628         -DE/DX =    0.0                 !
 ! D6    D(3,2,5,9)             66.2535         -DE/DX =    0.0                 !
 ! D7    D(4,2,5,9)            -38.1738         -DE/DX =    0.0                 !
 --------------------------------------------------------------------------------
 Lowest energy point so far.  Saving SCF results.
 Largest change from initial coordinates is atom    7       0.001 Angstoms.
 GradGradGradGradGradGradGradGradGradGradGradGradGradGradGradGradGradGrad

 Leave Link  103 at Fri May 23 05:26:59 2025, MaxMem=  3758096384 cpu:               0.1 elap:               0.0
 (Enter /apps/easybuild-2022/easybuild/software/Compiler/NVHPC/22.11-CUDA-11.7.0/Gaussian/g16c01-CUDA-11.7.0/g16/l202.exe)
                          Input orientation:                          
 ---------------------------------------------------------------------
 Center     Atomic      Atomic             Coordinates (Angstroms)
 Number     Number       Type             X           Y           Z
 ---------------------------------------------------------------------
      1          6           0       -0.630752   -0.278621   -1.157793
      2         16           0        1.750615    0.000168   -0.000168
      3          8           0        0.000271   -0.001042    0.000213
      4          8           0        2.042862   -0.500616    1.321639
      5          8           0        1.910374    1.606301   -0.000062
      6          9           0       -1.936194   -0.215566   -0.952744
      7          9           0       -0.308374    0.585593   -2.131645
      8          9           0       -0.327746   -1.503945   -1.612042
      9          1           0        1.584835    1.996931    0.824685
 ---------------------------------------------------------------------
                    Distance matrix (angstroms):
                    1          2          3          4          5
     1  C    0.000000
     2  S    2.662467   0.000000
     3  O    1.347671   1.750344   0.000000
     4  O    3.653091   1.443387   2.483529   0.000000
     5  O    3.369064   1.614059   2.496406   2.490692   0.000000
     6  F    1.322951   3.813988   2.168881   4.592053   4.361523
     7  F    1.341335   3.020820   2.232537   4.316634   3.241656
     8  F    1.341482   3.029865   2.228380   3.902939   4.157077
     9  H    3.743953   2.166778   2.680017   2.587372   0.968904
                    6          7          8          9
     6  F    0.000000
     7  F    2.163668   0.000000
     8  F    2.163723   2.153261   0.000000
     9  H    4.522393   3.783649   4.674584   0.000000
 Symmetry turned off by external request.
 Stoichiometry    CHF3O3S
 Rotational constants (GHZ):           3.4351895           1.1566091           1.0529594
 Leave Link  202 at Fri May 23 05:27:00 2025, MaxMem=  3758096384 cpu:               0.1 elap:               0.1
 (Enter /apps/easybuild-2022/easybuild/software/Compiler/NVHPC/22.11-CUDA-11.7.0/Gaussian/g16c01-CUDA-11.7.0/g16/l9999.exe)
 Unable to Open any file for archive entry.
 1\1\GINC-SPARTAN-BM190\FOpt\RwB97XD\6-311++G(d,p)\C1H1F3O3S1\AKHALILOV
 \23-May-2025\0\\#P wb97xd/6-311++G(d,p) Symm(None) scf(xqc) pop(None) 
 freq opt(CalcFC, Tight)\\Gaussian input prepared by ASE\\0,1\C,-0.6307
 522734,-0.278620726,-1.1577928443\S,1.7506150868,0.0001682607,-0.00016
 81302\O,0.0002710666,-0.0010418056,0.0002130331\O,2.0428616216,-0.5006
 161098,1.3216385089\O,1.9103738176,1.6063011427,-0.0000622538\F,-1.936
 1937621,-0.2155661751,-0.9527443722\F,-0.3083742743,0.5855927665,-2.13
 16446861\F,-0.3277461617,-1.5039452338,-1.6120416993\H,1.5848346752,1.
 996931046,0.8246851692\\Version=ES64L-G16RevC.01\HF=-962.067201\RMSD=4
 .544e-09\RMSF=1.354e-06\Dipole=0.3513629,0.6057205,0.0080669\PG=Unknow
 n\\@
 The archive entry for this job was punched.


 IT WAS AN ACT OF DESPARATION. FOR SIX YEARS I HAD STRUGGLED WITH THE
 BLACKBODY THEORY. I KNEW THE PROBLEM WAS FUNDAMENTAL, AND I KNEW
 THE ANSWER. I HAD TO FIND A THEORETICAL EXPLANATION AT ANY COST,
 EXCEPT FOR THE INVIOLABLITY OF THE TWO LAWS OF THERMODYNAMICS.
   -- MAX PLANCK, 1931
 Leave Link 9999 at Fri May 23 05:27:00 2025, MaxMem=  3758096384 cpu:               0.1 elap:               0.1
 Job cpu time:       0 days  0 hours  6 minutes 11.9 seconds.
 Elapsed time:       0 days  0 hours  0 minutes 53.9 seconds.
 File lengths (MBytes):  RWF=     44 Int=      0 D2E=      0 Chk=      4 Scr=      1
 Normal termination of Gaussian 16 at Fri May 23 05:27:00 2025.
 (Enter /apps/easybuild-2022/easybuild/software/Compiler/NVHPC/22.11-CUDA-11.7.0/Gaussian/g16c01-CUDA-11.7.0/g16/l1.exe)
 Link1:  Proceeding to internal job step number  2.
 ----------------------------------------------------------------------
 #P Geom=AllCheck Guess=TCheck SCRF=Check GenChk RwB97XD/6-311++G(d,p) 
 Freq
 ----------------------------------------------------------------------
 1/7=10,10=4,29=7,30=1,38=1,40=1/1,3;
 2/12=2,15=3,40=1/2;
 3/5=4,6=6,7=1111,11=2,14=-4,25=1,30=1,70=2,71=2,74=-58,116=1,140=1/1,2,3;
 4/5=101/1;
 5/5=2,8=3,13=1,38=6,98=1/2,8;
 8/6=4,10=90,11=11/1;
 11/6=1,8=1,9=11,15=111,16=1,31=1/1,2,10;
 10/6=1,31=1/2;
 7/8=1,10=1,25=1,30=1/1,2,3,16;
 1/7=10,10=4,30=1/3;
 99//99;
 Leave Link    1 at Fri May 23 05:27:00 2025, MaxMem=  3758096384 cpu:               0.0 elap:               0.0
 (Enter /apps/easybuild-2022/easybuild/software/Compiler/NVHPC/22.11-CUDA-11.7.0/Gaussian/g16c01-CUDA-11.7.0/g16/l101.exe)
 Structure from the checkpoint file:  "/tmp/Gau-96245.chk"
 ------------------------------
 Gaussian input prepared by ASE
 ------------------------------
 Charge =  0 Multiplicity = 1
 Redundant internal coordinates found in file.  (old form).
 C,0,-0.6307522734,-0.278620726,-1.1577928443
 S,0,1.7506150868,0.0001682607,-0.0001681302
 O,0,0.0002710666,-0.0010418056,0.0002130331
 O,0,2.0428616216,-0.5006161098,1.3216385089
 O,0,1.9103738176,1.6063011427,-0.0000622538
 F,0,-1.9361937621,-0.2155661751,-0.9527443722
 F,0,-0.3083742743,0.5855927665,-2.1316446861
 F,0,-0.3277461617,-1.5039452338,-1.6120416993
 H,0,1.5848346752,1.996931046,0.8246851692
 Recover connectivity data from disk.
 ITRead=  0  0  0  0  0  0  0  0  0
 MicOpt= -1 -1 -1 -1 -1 -1 -1 -1 -1
 NAtoms=      9 NQM=        9 NQMF=       0 NMMI=      0 NMMIF=      0
                NMic=       0 NMicF=      0.
                    Isotopes and Nuclear Properties:
 (Nuclear quadrupole moments (NQMom) in fm**2, nuclear magnetic moments (NMagM)
  in nuclear magnetons)

  Atom         1           2           3           4           5           6           7           8           9
 IAtWgt=          12          32          16          16          16          19          19          19           1
 AtmWgt=  12.0000000  31.9720718  15.9949146  15.9949146  15.9949146  18.9984032  18.9984032  18.9984032   1.0078250
 NucSpn=           0           0           0           0           0           1           1           1           1
 AtZEff=   3.6000000  13.6000000   5.6000000   5.6000000   5.6000000   6.7500000   6.7500000   6.7500000   1.0000000
 NQMom=    0.0000000   0.0000000   0.0000000   0.0000000   0.0000000   0.0000000   0.0000000   0.0000000   0.0000000
 NMagM=    0.0000000   0.0000000   0.0000000   0.0000000   0.0000000   2.6288670   2.6288670   2.6288670   2.7928460
 AtZNuc=   6.0000000  16.0000000   8.0000000   8.0000000   8.0000000   9.0000000   9.0000000   9.0000000   1.0000000
 Leave Link  101 at Fri May 23 05:27:00 2025, MaxMem=  3758096384 cpu:               0.4 elap:               0.4
 (Enter /apps/easybuild-2022/easybuild/software/Compiler/NVHPC/22.11-CUDA-11.7.0/Gaussian/g16c01-CUDA-11.7.0/g16/l103.exe)

 GradGradGradGradGradGradGradGradGradGradGradGradGradGradGradGradGradGrad
 Berny optimization.
 Initialization pass.
                           ----------------------------
                           !    Initial Parameters    !
                           ! (Angstroms and Degrees)  !
 --------------------------                            --------------------------
 ! Name  Definition              Value          Derivative Info.                !
 --------------------------------------------------------------------------------
 ! R1    R(1,3)                  1.3477         calculate D2E/DX2 analytically  !
 ! R2    R(1,6)                  1.323          calculate D2E/DX2 analytically  !
[...]
     16 -0.114044D-01  0.135613D-01 -0.654823D-02  0.962650D-03  0.269457D-02
     17  0.202724D-01 -0.254713D-02 -0.535236D-02  0.190196D-02 -0.334857D-02
     18  0.106462D-01  0.461061D-02 -0.129889D-02  0.789128D-02  0.387761D-02
     19  0.495460D-02  0.415471D-01  0.193671D-01 -0.109454D-02 -0.112637D-02
     20 -0.912198D-03  0.173191D-02 -0.754891D-04 -0.667951D-03 -0.390267D-01
     21  0.116918D-02 -0.315952D-03  0.628482D-04  0.396508D-01 -0.139693D-02
     22 -0.296823D-03 -0.392718D-03 -0.104280D-03 -0.404126D-01  0.393871D-01
     23  0.852672D-02  0.133312D-02 -0.366371D-02  0.930472D-03  0.579024D-03
     24 -0.117799D-01  0.209628D-02  0.330147D-02 -0.216433D-02  0.303660D-02
     25  0.403064D-02 -0.926788D-03 -0.114416D-02  0.254898D-02  0.869001D-03
     26 -0.838188D-02  0.383102D-02  0.739581D-03 -0.324180D-02 -0.137453D-02
               11            12            13            14            15 
     11  0.248491D+00
     12 -0.344527D-01  0.176312D+00
     13 -0.791643D-01  0.164461D-01  0.176481D+00
     14 -0.896359D-01  0.164552D-01  0.162721D-01  0.184720D+00
     15 -0.194066D-02 -0.565511D-03 -0.160783D-02 -0.253144D-02  0.145995D+00
     16  0.273437D-02 -0.322119D-02  0.620761D-03 -0.405556D-02 -0.249615D-01
     17 -0.129297D-02  0.141427D-02  0.914306D-03  0.569810D-03 -0.969843D-02
     18  0.178177D-02 -0.383399D-02 -0.451837D-02 -0.586992D-02  0.179529D-01
     19 -0.662932D-03  0.117686D-02  0.695977D-03  0.115602D-02 -0.423429D-02
     20  0.392907D-01 -0.574251D-01  0.580406D-01  0.150203D-03 -0.164818D-02
     21 -0.390077D-01  0.572078D-01  0.144300D-02 -0.560981D-01  0.187296D-02
     22  0.226366D-02 -0.152345D-02 -0.579305D-01  0.560568D-01 -0.154244D-02
     23 -0.831835D-03 -0.235558D-03  0.122604D-03 -0.588660D-03 -0.175641D-02
     24  0.162504D-03 -0.765570D-03 -0.688804D-03  0.337619D-03 -0.122877D-01
     25 -0.105700D-02 -0.668929D-03 -0.216424D-03 -0.157394D-02  0.726559D-01
     26  0.235546D-03  0.894076D-03  0.109973D-02  0.258166D-02 -0.728822D-01
               16            17            18            19            20 
     16  0.278613D+00
     17 -0.188986D-02  0.158899D+00
     18  0.145699D-01  0.411062D-03  0.170486D+00
     19 -0.126094D-01 -0.298901D-01 -0.700703D-03  0.136443D+00
     20  0.238088D-02  0.169565D-03  0.217303D-03  0.138958D-03  0.663365D-01
     21  0.688400D-03  0.110930D-02  0.312740D-02  0.172374D-03 -0.302514D-01
     22 -0.717696D-03 -0.141682D-02 -0.457786D-03  0.404047D-03 -0.297223D-01
     23  0.428229D-01  0.814787D-01  0.787108D-02 -0.176114D-01  0.245955D-03
     24 -0.226270D-01 -0.811302D-01  0.351177D-03  0.174512D-01 -0.240217D-03
     25  0.331791D-01  0.142496D-01  0.130392D-01 -0.471717D-02 -0.367591D-03
     26 -0.457257D-01 -0.509754D-02 -0.118823D-01  0.103705D-01  0.464591D-03
               21            22            23            24            25 
     21  0.667906D-01
     22 -0.339538D-01  0.674707D-01
     23  0.935716D-03 -0.300922D-05  0.507707D-01
     24 -0.740440D-03  0.193861D-02 -0.445286D-01  0.477894D-01
     25  0.104344D-02 -0.111981D-02  0.164756D-01 -0.203517D-01  0.489959D-01
     26 -0.144448D-02  0.108305D-02 -0.135778D-01  0.170379D-01 -0.444580D-01
               26 
     26  0.522607D-01
 Leave Link  716 at Fri May 23 05:27:39 2025, MaxMem=  3758096384 cpu:               0.1 elap:               0.0
 (Enter /apps/easybuild-2022/easybuild/software/Compiler/NVHPC/22.11-CUDA-11.7.0/Gaussian/g16c01-CUDA-11.7.0/g16/l103.exe)

 GradGradGradGradGradGradGradGradGradGradGradGradGradGradGradGradGradGrad
 Berny optimization.
 Red2BG is reusing G-inverse.
 Internal  Forces:  Max     0.000000181 RMS     0.000000072
 Search for a local minimum.
 Step number   1 out of a maximum of    2
 All quantities printed in internal units (Hartrees-Bohrs-Radians)
 Second derivative matrix not updated -- analytic derivatives used.
 ITU=  0
     Eigenvalues ---    0.00280   0.00449   0.00534   0.09998   0.11827
     Eigenvalues ---    0.15690   0.18678   0.19065   0.22797   0.23287
     Eigenvalues ---    0.26698   0.27049   0.28879   0.29337   0.33173
     Eigenvalues ---    0.41158   0.42770   0.51003   0.51745   0.57560
     Eigenvalues ---    0.68068
 Angle between quadratic step and forces=  76.88 degrees.
 Linear search not attempted -- first point.
 Iteration  1 RMS(Cart)=  0.00000358 RMS(Int)=  0.00000000
 Iteration  2 RMS(Cart)=  0.00000000 RMS(Int)=  0.00000000
 ITry= 1 IFail=0 DXMaxC= 7.87D-06 DCOld= 1.00D+10 DXMaxT= 3.00D-01 DXLimC= 3.00D+00 Rises=F
 Variable       Old X    -DE/DX   Delta X   Delta X   Delta X     New X
                                 (Linear)    (Quad)   (Total)
    R1        2.54673   0.00000   0.00000   0.00000   0.00000   2.54673
    R2        2.50001  -0.00000   0.00000  -0.00000  -0.00000   2.50001
    R3        2.53476  -0.00000   0.00000   0.00000   0.00000   2.53476
    R4        2.53503  -0.00000   0.00000  -0.00000  -0.00000   2.53503
    R5        3.30767   0.00000   0.00000   0.00000   0.00000   3.30767
    R6        2.72761  -0.00000   0.00000  -0.00000  -0.00000   2.72761
    R7        3.05013  -0.00000   0.00000  -0.00000  -0.00000   3.05013
    R8        1.83096   0.00000   0.00000   0.00000   0.00000   1.83096
    A1        1.89551   0.00000   0.00000   0.00000   0.00000   1.89551
    A2        1.95909  -0.00000   0.00000  -0.00000  -0.00000   1.95909
    A3        1.95340  -0.00000   0.00000  -0.00000  -0.00000   1.95340
    A4        1.89545  -0.00000   0.00000   0.00000   0.00000   1.89545
    A5        1.89537   0.00000   0.00000   0.00000   0.00000   1.89537
    A6        1.86332   0.00000   0.00000   0.00000   0.00000   1.86332
    A7        1.77423  -0.00000   0.00000  -0.00000  -0.00000   1.77423
    A8        1.67063  -0.00000   0.00000  -0.00000  -0.00000   1.67063
    A9        1.90196   0.00000   0.00000   0.00000   0.00000   1.90196
   A10        2.05803   0.00000   0.00000   0.00000   0.00000   2.05804
   A11        1.94764   0.00000   0.00000  -0.00000  -0.00000   1.94764
    D1       -3.12999   0.00000   0.00000   0.00001   0.00001  -3.12998
    D2       -1.03404   0.00000   0.00000   0.00001   0.00001  -1.03403
    D3        1.06090  -0.00000   0.00000   0.00001   0.00001   1.06090
    D4       -2.54444  -0.00000   0.00000  -0.00000  -0.00000  -2.54444
    D5        1.80577   0.00000   0.00000  -0.00000  -0.00000   1.80576
    D6        1.15634  -0.00000   0.00000   0.00000   0.00000   1.15634
    D7       -0.66626   0.00000   0.00000   0.00000   0.00000  -0.66626
         Item               Value     Threshold  Converged?
 Maximum Force            0.000000     0.000015     YES
 RMS     Force            0.000000     0.000010     YES
 Maximum Displacement     0.000008     0.000060     YES
 RMS     Displacement     0.000004     0.000040     YES
 Predicted change in Energy=-4.825364D-13
 Optimization completed.
    -- Stationary point found.
                           ----------------------------
                           !   Optimized Parameters   !
                           ! (Angstroms and Degrees)  !
 --------------------------                            --------------------------
 ! Name  Definition              Value          Derivative Info.                !
 --------------------------------------------------------------------------------
 ! R1    R(1,3)                  1.3477         -DE/DX =    0.0                 !
 ! R2    R(1,6)                  1.323          -DE/DX =    0.0                 !
 ! R3    R(1,7)                  1.3413         -DE/DX =    0.0                 !
 ! R4    R(1,8)                  1.3415         -DE/DX =    0.0                 !
 ! R5    R(2,3)                  1.7503         -DE/DX =    0.0                 !
 ! R6    R(2,4)                  1.4434         -DE/DX =    0.0                 !
 ! R7    R(2,5)                  1.6141         -DE/DX =    0.0                 !
 ! R8    R(5,9)                  0.9689         -DE/DX =    0.0                 !
 ! A1    A(3,1,6)              108.6048         -DE/DX =    0.0                 !
 ! A2    A(3,1,7)              112.2478         -DE/DX =    0.0                 !
 ! A3    A(3,1,8)              111.9214         -DE/DX =    0.0                 !
 ! A4    A(6,1,7)              108.6014         -DE/DX =    0.0                 !
 ! A5    A(6,1,8)              108.5966         -DE/DX =    0.0                 !
 ! A6    A(7,1,8)              106.7605         -DE/DX =    0.0                 !
 ! A7    A(3,2,4)              101.6559         -DE/DX =    0.0                 !
 ! A8    A(3,2,5)               95.72           -DE/DX =    0.0                 !
 ! A9    A(4,2,5)              108.9744         -DE/DX =    0.0                 !
 ! A10   A(1,3,2)              117.9167         -DE/DX =    0.0                 !
 ! A11   A(2,5,9)              111.5915         -DE/DX =    0.0                 !
 ! D1    D(6,1,3,2)           -179.3353         -DE/DX =    0.0                 !
 ! D2    D(7,1,3,2)            -59.2462         -DE/DX =    0.0                 !
 ! D3    D(8,1,3,2)             60.7849         -DE/DX =    0.0                 !
 ! D4    D(4,2,3,1)           -145.7856         -DE/DX =    0.0                 !
 ! D5    D(5,2,3,1)            103.4628         -DE/DX =    0.0                 !
 ! D6    D(3,2,5,9)             66.2535         -DE/DX =    0.0                 !
 ! D7    D(4,2,5,9)            -38.1738         -DE/DX =    0.0                 !
 --------------------------------------------------------------------------------
 GradGradGradGradGradGradGradGradGradGradGradGradGradGradGradGradGradGrad

 Leave Link  103 at Fri May 23 05:27:39 2025, MaxMem=  3758096384 cpu:               0.1 elap:               0.1
 (Enter /apps/easybuild-2022/easybuild/software/Compiler/NVHPC/22.11-CUDA-11.7.0/Gaussian/g16c01-CUDA-11.7.0/g16/l9999.exe)

 ----------------------------------------------------------------------

 Electric dipole moment (input orientation):
 (Debye = 10**-18 statcoulomb cm , SI units = C m)
                  (au)            (Debye)         (10**-30 SI)
   Tot        0.700299D+00      0.177998D+01      0.593738D+01
   x          0.351364D+00      0.893077D+00      0.297898D+01
   y          0.605720D+00      0.153959D+01      0.513551D+01
   z          0.806662D-02      0.205033D-01      0.683917D-01

 Dipole polarizability, Alpha (input orientation).
 (esu units = cm**3 , SI units = C**2 m**2 J**-1)
 Alpha(0;0):
               (au)            (10**-24 esu)      (10**-40 SI)
   iso        0.453002D+02      0.671279D+01      0.746899D+01
   aniso      0.149234D+02      0.221142D+01      0.246053D+01
   xx         0.490288D+02      0.726532D+01      0.808375D+01
   yx         0.170490D+01      0.252640D+00      0.281100D+00
   yy         0.433596D+02      0.642523D+01      0.714903D+01
   zx         0.765718D+01      0.113468D+01      0.126250D+01
   zy        -0.150466D+01     -0.222967D+00     -0.248084D+00
   zz         0.435121D+02      0.644783D+01      0.717418D+01

 ----------------------------------------------------------------------

 Dipole orientation:
     6          0.42833155          2.26670728         -1.07865145
    16          2.48489882         -1.41895314          1.66009796
     8          0.00102742         -0.00108061         -0.00144120
     8          2.05247662         -4.06281591          1.14742355
     8          1.40939296         -0.75833132          4.43681418
     9         -1.67018738          3.02096668         -2.20886488
     9          1.10861073          4.02235791          0.61837516
     9          2.28255019          2.16058213         -2.80405263
     1         -0.15136548         -1.65024385          4.78459895

 Electric dipole moment (dipole orientation):
 (Debye = 10**-18 statcoulomb cm , SI units = C m)
                  (au)            (Debye)         (10**-30 SI)
   Tot        0.700299D+00      0.177998D+01      0.593738D+01
   x          0.000000D+00      0.000000D+00      0.000000D+00
   y          0.000000D+00      0.000000D+00      0.000000D+00
   z          0.700299D+00      0.177998D+01      0.593738D+01

 Dipole polarizability, Alpha (dipole orientation).
 (esu units = cm**3 , SI units = C**2 m**2 J**-1)
 Alpha(0;0):
               (au)            (10**-24 esu)      (10**-40 SI)
   iso        0.453002D+02      0.671279D+01      0.746899D+01
   aniso      0.149234D+02      0.221142D+01      0.246053D+01
   xx         0.390784D+02      0.579083D+01      0.644316D+01
   yx        -0.480174D+01     -0.711545D+00     -0.791700D+00
   yy         0.504970D+02      0.748289D+01      0.832584D+01
   zx         0.167537D+01      0.248265D+00      0.276232D+00
   zy        -0.387147D+01     -0.573692D+00     -0.638319D+00
   zz         0.463250D+02      0.686466D+01      0.763797D+01

 ----------------------------------------------------------------------
 Unable to Open any file for archive entry.
 1\1\GINC-SPARTAN-BM190\Freq\RwB97XD\6-311++G(d,p)\C1H1F3O3S1\AKHALILOV
 \23-May-2025\0\\#P Geom=AllCheck Guess=TCheck SCRF=Check GenChk RwB97X
 D/6-311++G(d,p) Freq\\Gaussian input prepared by ASE\\0,1\C,-0.6307522
 734,-0.278620726,-1.1577928443\S,1.7506150868,0.0001682607,-0.00016813
 02\O,0.0002710666,-0.0010418056,0.0002130331\O,2.0428616216,-0.5006161
 098,1.3216385089\O,1.9103738176,1.6063011427,-0.0000622538\F,-1.936193
 7621,-0.2155661751,-0.9527443722\F,-0.3083742743,0.5855927665,-2.13164
 46861\F,-0.3277461617,-1.5039452338,-1.6120416993\H,1.5848346752,1.996
 931046,0.8246851692\\Version=ES64L-G16RevC.01\HF=-962.067201\RMSD=2.29
 3e-09\RMSF=1.355e-06\ZeroPoint=0.0379671\Thermal=0.0459947\ETot=-962.0
 212062\HTot=-962.020262\GTot=-962.0637455\Dipole=0.3513635,0.6057205,0
 .0080666\DipoleDeriv=2.3035037,0.0921429,0.2171155,0.213568,1.9834366,
 0.1231609,0.8185405,0.1704682,2.3337277,2.0595776,0.0947681,0.5691324,
 0.0954874,2.0403803,-0.1880889,0.5156399,-0.2421362,1.4522445,-1.81080
 42,-0.247341,-0.7553317,-0.1137198,-0.5575495,-0.1147032,-0.6082298,-0
 .1502924,-1.001415,-0.4954801,0.0525632,-0.0512278,0.1285198,-0.625877
 4,0.0661955,-0.4377576,0.3961948,-1.0325481,-0.4857368,0.0179709,-0.12
 0739,-0.2568769,-1.4081991,0.0173406,-0.1270093,-0.2430239,-0.380951,-
 1.1669822,-0.0072448,-0.0074447,-0.0063055,-0.3082019,-0.0211506,-0.05
 00709,-0.0267029,-0.3760046,-0.3840613,-0.0878832,0.0597002,-0.0438385
 ,-0.5653012,0.3105373,-0.0833355,0.2778658,-0.7787044,-0.3806717,0.098
 6816,0.0156186,-0.0122896,-0.8888232,-0.277427,-0.0981487,-0.2592319,-
 0.4831446,0.3606551,-0.0136577,0.0731765,-0.0045449,0.3301355,0.084135
 4,0.0703714,0.0768585,0.2667954\Polar=49.0287813,1.7048996,43.359607,7
 .6571809,-1.5046565,43.512143\PG=Unknown\NImag=0\\0.60740030,0.0035324
 0,0.51650837,0.01397310,0.00787727,0.54282027,-0.03749416,-0.01765201,
 -0.07194581,0.22166962,-0.01253597,0.01003315,-0.00418760,-0.05430287,
 0.42673166,-0.03819133,-0.00404208,-0.00636999,0.05981509,-0.09509395,
 0.71989639,-0.11817135,-0.00718386,-0.02136654,-0.09223199,0.01185264,
 0.03258472,0.28089588,-0.01448877,-0.08490907,-0.03720731,0.02377405,-
 0.03490955,-0.00933189,0.03439434,0.11820495,-0.05088378,-0.03502846,-
 0.21069807,0.06003735,-0.00915694,-0.05387240,0.10435068,0.06605483,0.
 37155407,-0.00326129,0.00712331,0.01058982,-0.07055070,0.04168851,-0.0
 7762359,-0.00944527,0.00013601,-0.04385877,0.07664092,0.00194159,-0.00
 365362,-0.00647412,0.04014938,-0.13160450,0.14816679,0.00397840,0.0077
 1374,0.01134672,-0.04682906,0.13312885,0.00818610,0.00849208,0.0161648
 9,-0.09559759,0.17532540,-0.57706671,-0.02189526,0.00070878,-0.0066596
 6,0.12127518,-0.20560140,0.56423033,0.00155703,0.00102197,0.01127198,-
 0.04575162,0.01496528,0.01698067,-0.01263633,-0.03057927,-0.01171800,0
 .01134829,0.00032752,-0.00379260,0.11537146,0.00729691,-0.00484825,0.0
 1856772,-0.00969539,-0.22131651,-0.00272522,-0.02330074,-0.00439253,-0
 .00898538,0.00096454,-0.01795362,0.02008237,-0.03553223,0.34389479,0.0
 0449841,-0.00012025,-0.00097868,0.00591738,-0.06610868,-0.08954129,-0.
 00204885,0.00374317,0.01051861,-0.00291151,0.04947265,0.01423421,-0.15
 172499,0.15292642,0.44065239,-0.27303135,0.01015056,0.03390858,0.01752
 664,0.00179139,0.00355870,-0.08052735,-0.00759578,-0.03115033,-0.00315
 380,0.00188011,-0.00587658,-0.00163386,-0.00477084,-0.00070293,0.41900
 433,0.00830972,-0.07947253,-0.00066201,0.00117330,0.00073363,0.0000900
 1,-0.01233184,0.01140780,-0.00279423,-0.00103603,0.00057263,-0.0013162
 1,0.00043487,0.00065351,0.00007211,-0.01629454,0.08249236,0.02788241,-
 0.00069391,-0.08053836,0.00693811,0.00008938,0.00007848,-0.05429662,-0
 .00300139,-0.00117302,-0.00173968,0.00146013,-0.00265539,-0.00105420,-
 0.00266410,0.00041914,-0.05361549,0.00332426,0.09313165,-0.08877080,-0
 .02173261,0.01926128,-0.00106325,-0.00070253,0.00253247,0.01679041,0.0
 0822982,-0.01587285,0.00059616,-0.00020586,-0.00106094,-0.00034158,-0.
 00005294,-0.00104395,-0.03977681,-0.03542707,0.04932797,0.09717225,-0.
 02209314,-0.14321434,0.07174298,-0.00624644,-0.00583790,0.00064613,0.0
 0701658,0.01080676,0.01877105,0.00083962,0.00037884,0.00002274,-0.0002
 9932,0.00363298,-0.00056593,-0.02275821,0.00216222,0.01769070,0.047519
 01,0.21417886,0.02474443,0.07627594,-0.16267180,0.01904192,0.00483266,
 -0.00166353,-0.02084112,0.03098058,-0.07312332,-0.00358475,0.00034726,
 -0.00192236,-0.00195773,-0.00482808,-0.00011466,0.03414485,0.01959925,
 -0.01432805,-0.05215386,-0.14296230,0.24223343,-0.08762760,0.02611883,
 0.00630016,-0.00103506,0.00245991,0.00214521,0.01559365,-0.01561099,-0
 .01098109,0.00055438,-0.00054755,-0.00076202,0.00056640,-0.00128953,-0
 .00114754,-0.03850504,0.05496138,0.02635599,0.01550187,-0.00406776,0.0
 0023323,0.09505463,0.02944848,-0.20945644,-0.04662185,0.01465290,-0.00
 625664,0.00161558,-0.01695085,-0.02697921,-0.04353300,-0.00192416,0.00
 219840,-0.00315801,-0.00292033,-0.00015451,0.00052461,0.03659192,-0.01
 852742,-0.01660137,0.00204520,-0.08203042,0.01502980,-0.06192688,0.340
 31330,0.01097573,-0.05199838,-0.09611731,0.01415963,-0.00188758,-0.000
 35338,-0.01705042,-0.05417055,-0.03659302,-0.00157799,0.00105807,-0.00
 182960,-0.00281761,-0.00218526,0.00036056,0.01905758,-0.01835308,0.004
 89946,-0.00114161,0.03449230,0.01133287,-0.02231021,0.09227083,0.11788
 785,-0.00060079,-0.00137860,-0.00199258,0.00893052,-0.00521636,-0.0018
 0193,-0.00026765,0.00174059,0.00007678,-0.00272869,-0.00069453,-0.0004
 7630,-0.06847978,0.06638021,0.14916397,0.00009725,0.00021022,0.0002015
 2,-0.00010824,0.00008966,0.00037303,-0.00010324,0.00098370,0.00070490,
 0.06326061,-0.00141122,-0.00098727,-0.00303508,0.00814706,-0.03757333,
 -0.03932538,0.00252532,0.00305712,0.00332540,-0.00096275,0.00921930,0.
 00544425,0.05258151,-0.09951586,-0.13994409,0.00100539,-0.00002219,0.0
 0039631,0.00032699,-0.00007700,0.00072489,-0.00009741,0.00089296,0.000
 77365,-0.06211488,0.12500628,-0.00118509,-0.00076220,-0.00161094,0.001
 63392,-0.00381268,0.00889243,0.00056341,0.00222377,0.00004680,-0.00056
 869,0.00022390,-0.00449570,0.14481247,-0.17018846,-0.37555029,0.000675
 61,0.00003989,0.00016609,0.00015149,0.00016232,0.00025742,0.00016627,0
 .00047341,0.00041257,-0.14624939,0.17164005,0.37188162\\0.00000060,0.0
 0000092,-0.00000071,-0.00000014,-0.00000008,-0.00000032,0.00000003,-0.
 00000093,-0.00000045,0.00000022,-0.00000226,-0.00000098,-0.00000067,-0
 .00000002,0.00000255,0.00000008,-0.00000022,-0.00000081,-0.00000007,0.
 00000261,0.00000057,0.00000088,0.00000157,-0.00000301,-0.00000094,-0.0
 0000159,0.00000317\\\@
 The archive entry for this job was punched.


 CONFIDENCE IS WHAT YOU FEEL BEFORE YOU FULLY
 COMPREHEND THE SITUATION.
 Job cpu time:       0 days  0 hours  4 minutes 51.5 seconds.
 Elapsed time:       0 days  0 hours  0 minutes 39.5 seconds.
 File lengths (MBytes):  RWF=     45 Int=      0 D2E=      0 Chk=      4 Scr=      1
 Normal termination of Gaussian 16 at Fri May 23 05:27:39 2025.
done
