9
energy = -962.0288438720002
C -0.62238800 -0.78915600 0.82440900
S 1.91108800 -0.23329900 0.12316200
O 0.20154100 0.13928900 0.29553500
O 2.43653500 -0.31551400 1.46589800
O 2.18927400 1.22902800 -0.48744600
F -1.86599400 -0.50655700 0.46094300
F -0.32291900 -2.02670300 0.38967200
F -0.57110000 -0.81558800 2.15615000
H 1.98215600 1.93163800 0.14652300
9
energy = -962.0253564580001
C -0.69020800 -0.86879100 0.79025300
S 1.81108700 0.03769900 0.52822300
O 0.05023000 0.23963200 0.60482500
O 2.36001500 0.41631400 1.79874200
O 1.94085700 1.36832600 -0.39436700
F -1.96049200 -0.51981500 0.91731100
F -0.58823900 -1.71624100 -0.25086500
F -0.31991300 -1.55219300 1.88067300
H 1.31388100 1.35063100 -1.12871700
9
energy = -962.0288640880001
C -0.69648000 -0.90391900 0.86876200
S 1.75575300 -0.04074300 0.18992400
O 0.02924500 0.15641300 0.45703800
O 2.33754600 -0.24998600 1.49512000
O 1.88868200 1.50702500 -0.22895700
F -1.97231700 -0.67738800 0.58704500
F -0.31865800 -2.03696300 0.24942200
F -0.58846800 -1.11652800 2.18030400
H 1.65058700 2.10074500 0.49857000
9
energy = -962.026847466
C -0.59888000 1.19126600 0.31336300
S 1.77844500 -0.11440900 -0.10646100
O 0.05646600 0.12941700 -0.19522100
O 2.08034800 -0.48859100 1.25605300
O 2.26949400 1.41523100 -0.32934200
F -1.83400800 0.83206700 0.62647300
F -0.00543000 1.67708100 1.42255900
F -0.66578000 2.19763400 -0.56181500
H 2.25753800 1.91342600 0.50191700
9
energy = -962.0231712750001
C -0.75732400 1.14997400 0.38671900
S 1.71224700 -0.02401800 0.05131700
O -0.00153400 0.17377400 -0.16996000
O 1.99456700 -0.32051400 1.42822200
O 2.14389900 1.54734900 -0.10351300
F -2.02899800 0.77878200 0.32460300
F -0.44281200 1.39547600 1.65484400
F -0.63343900 2.30353700 -0.29261100
H 1.93061200 1.89118600 -0.98086600
9
energy = -962.0286031990001
C -0.76691300 1.03187100 0.51105200
S 1.73271700 -0.00825500 0.28148400
O 0.04241000 0.13741600 -0.09571100
O 1.89007400 0.28247500 1.69074100
O 2.26783500 1.26358200 -0.56284900
F -1.88305200 1.13587000 -0.19469700
F -1.08327600 0.67888200 1.75259900
F -0.19867300 2.25689200 0.57612300
H 2.08476900 2.09990600 -0.10883800
9
energy = -962.0292330450002
C -0.59962600 -0.23323200 -1.11649600
S 1.89246400 -0.12419100 -0.18647400
O 0.16019000 0.08647900 -0.05035600
O 2.24481100 -0.51918100 1.15636200
O 2.23017200 1.44239300 -0.37879300
F -1.86637100 0.00535200 -0.81886800
F -0.27400400 0.48048300 -2.20449400
F -0.47491700 -1.52645700 -1.45058300
H 2.02547300 1.95204100 0.41940300
9
energy = -962.0253984470002
C -0.63356600 -0.29100300 -1.13259500
S 1.73802200 -0.02943000 0.03777200
O -0.02636200 -0.17057200 0.05298500
O 2.09740800 -0.36245500 1.38541900
O 1.78535800 1.59392100 -0.01337200
F -1.94168700 -0.21998800 -0.97433800
F -0.25685700 0.70438700 -1.98413100
F -0.33750800 -1.43904100 -1.75537800
H 1.49241100 1.92028800 -0.87542800
9
energy = -962.0292339590002
C -0.63075200 -0.27862100 -1.15779300
S 1.75061500 0.00016800 -0.00016800
O 0.00027100 -0.00104200 0.00021300
O 2.04286200 -0.50061600 1.32163900
O 1.91037400 1.60630100 -0.00006200
F -1.93619400 -0.21556600 -0.95274400
F -0.30837400 0.58559300 -2.13164500
F -0.32774600 -1.50394500 -1.61204200
H 1.58483500 1.99693100 0.82468500
