1
energy = -75.0634134327
O 2.28256200 -0.51306800 1.19466100
