2
energy = -75.7257352564
O 2.03176900 1.62625600 -0.03877600
H 2.06706600 1.95802400 0.87289600
