 Entering Gaussian System, Link 0=g16
 Initial command:
 /apps/easybuild-2022/easybuild/software/Compiler/NVHPC/22.11-CUDA-11.7.0/Gaussian/g16c01-CUDA-11.7.0/g16/l1.exe "/tmp/Gau-143279.inp" -scrdir="/tmp/"
 Entering Link 1 = /apps/easybuild-2022/easybuild/software/Compiler/NVHPC/22.11-CUDA-11.7.0/Gaussian/g16c01-CUDA-11.7.0/g16/l1.exe PID=    143283.
  
 Copyright (c) 1988-2019, Gaussian, Inc.  All Rights Reserved.
  
 This is part of the Gaussian(R) 16 program.  It is based on
 the Gaussian(R) 09 system (copyright 2009, Gaussian, Inc.),
 the Gaussian(R) 03 system (copyright 2003, Gaussian, Inc.),
 the Gaussian(R) 98 system (copyright 1998, Gaussian, Inc.),
 the Gaussian(R) 94 system (copyright 1995, Gaussian, Inc.),
 the Gaussian 92(TM) system (copyright 1992, Gaussian, Inc.),
 the Gaussian 90(TM) system (copyright 1990, Gaussian, Inc.),
 the Gaussian 88(TM) system (copyright 1988, Gaussian, Inc.),
 the Gaussian 86(TM) system (copyright 1986, Carnegie Mellon
 University), and the Gaussian 82(TM) system (copyright 1983,
 Carnegie Mellon University). Gaussian is a federally registered
 trademark of Gaussian, Inc.
  
 This software contains proprietary and confidential information,
 including trade secrets, belonging to Gaussian, Inc.
  
 This software is provided under written license and may be
 used, copied, transmitted, or stored only in accord with that
 written license.
  
 The following legend is applicable only to US Government
 contracts under FAR:
  
                    RESTRICTED RIGHTS LEGEND
  
 Use, reproduction and disclosure by the US Government is
 subject to restrictions as set forth in subparagraphs (a)
 and (c) of the Commercial Computer Software - Restricted
 Rights clause in FAR 52.227-19.
  
 Gaussian, Inc.
 340 Quinnipiac St., Bldg. 40, Wallingford CT 06492
  
  
 ---------------------------------------------------------------
 Warning -- This program may not be used in any manner that
 competes with the business of Gaussian, Inc. or will provide
 assistance to any competitor of Gaussian, Inc.  The licensee
 of this program is prohibited from giving any competitor of
 Gaussian, Inc. access to this program.  By using this program,
 the user acknowledges that Gaussian, Inc. is engaged in the
 business of creating and licensing software in the field of
 computational chemistry and represents and warrants to the
 licensee that it is not a competitor of Gaussian, Inc. and that
 it will not use this program in any manner prohibited above.
 ---------------------------------------------------------------
  

 Cite this work as:
 Gaussian 16, Revision C.01,
 M. J. Frisch, G. W. Trucks, H. B. Schlegel, G. E. Scuseria, 
 M. A. Robb, J. R. Cheeseman, G. Scalmani, V. Barone, 
 G. A. Petersson, H. Nakatsuji, X. Li, M. Caricato, A. V. Marenich, 
 J. Bloino, B. G. Janesko, R. Gomperts, B. Mennucci, H. P. Hratchian, 
 J. V. Ortiz, A. F. Izmaylov, J. L. Sonnenberg, D. Williams-Young, 
 F. Ding, F. Lipparini, F. Egidi, J. Goings, B. Peng, A. Petrone, 
 T. Henderson, D. Ranasinghe, V. G. Zakrzewski, J. Gao, N. Rega, 
 G. Zheng, W. Liang, M. Hada, M. Ehara, K. Toyota, R. Fukuda, 
 J. Hasegawa, M. Ishida, T. Nakajima, Y. Honda, O. Kitao, H. Nakai, 
 T. Vreven, K. Throssell, J. A. Montgomery, Jr., J. E. Peralta, 
 F. Ogliaro, M. J. Bearpark, J. J. Heyd, E. N. Brothers, K. N. Kudin, 
 V. N. Staroverov, T. A. Keith, R. Kobayashi, J. Normand, 
 K. Raghavachari, A. P. Rendell, J. C. Burant, S. S. Iyengar, 
 J. Tomasi, M. Cossi, J. M. Millam, M. Klene, C. Adamo, R. Cammi, 
 J. W. Ochterski, R. L. Martin, K. Morokuma, O. Farkas, 
 J. B. Foresman, and D. J. Fox, Gaussian, Inc., Wallingford CT, 2019.
 
 ******************************************
 Gaussian 16:  ES64L-G16RevC.01  3-Jul-2019
                23-May-2025 
 ******************************************
 %mem=28GB
 %nprocshared=8
 Will use up to    8 processors via shared memory.
 ----------------------------------------------------------------------
 #P wb97xd/6-311++G(d,p) Symm(None) scf(xqc) pop(None) freq opt(CalcFC,
  Tight)
 ----------------------------------------------------------------------
 1/7=10,10=4,18=20,19=15,26=3,38=1/1,3;
 2/9=110,12=2,15=3,17=6,18=5,40=1/2;
 3/5=4,6=6,7=1111,11=2,25=1,30=1,71=2,74=-58,140=1/1,2,3;
 4//1;
 5/5=2,8=3,13=1,38=5/2,8;
 8/6=4,10=90,11=11/1;
 11/6=1,8=1,9=11,15=111,16=1,31=1/1,2,10;
 10/6=1,13=1,31=1/2;
 7/10=1,25=1,30=1/1,2,3,16;
 1/7=10,10=4,18=20,19=15,26=3/3(2);
 2/9=110,15=3/2;
 99//99;
 2/9=110,15=3/2;
 3/5=4,6=6,7=1111,11=2,25=1,30=1,71=1,74=-58/1,2,3;
 4/5=5,16=3,69=1/1;
 5/5=2,8=3,13=1,38=5/2,8;
 7/30=1/1,2,3,16;
 1/7=10,18=20,19=15,26=3/3(-5);
 2/9=110,15=3/2;
 99/9=1/99;
 Leave Link    1 at Fri May 23 02:16:08 2025, MaxMem=  3758096384 cpu:               0.1 elap:               0.0
 (Enter /apps/easybuild-2022/easybuild/software/Compiler/NVHPC/22.11-CUDA-11.7.0/Gaussian/g16c01-CUDA-11.7.0/g16/l101.exe)
 ------------------------------
 Gaussian input prepared by ASE
 ------------------------------
 Symbolic Z-matrix:
 Charge =  0 Multiplicity = 2
 C                     3.39343  -0.90826   1.91041 
 C                     1.9574   -0.53591   1.61108 
 F                     1.25071  -0.09198   2.61929 
 S                     1.42683   0.        0. 
 O                     2.23883  -0.71166  -0.9475 
 O                     0.        0.        0. 
 O                     1.87143   1.5477    0. 
 F                     3.72791  -2.05474   1.33127 
 F                     4.23662   0.04034   1.45361 
 F                     3.56976  -1.01749   3.22143 
 H                     1.82576   1.90533   0.89682 
 
 ITRead=  0  0  0  0  0  0  0  0  0  0  0
 MicOpt= -1 -1 -1 -1 -1 -1 -1 -1 -1 -1 -1
 NAtoms=     11 NQM=       11 NQMF=       0 NMMI=      0 NMMIF=      0
                NMic=       0 NMicF=      0.
                    Isotopes and Nuclear Properties:
 (Nuclear quadrupole moments (NQMom) in fm**2, nuclear magnetic moments (NMagM)
  in nuclear magnetons)

  Atom         1           2           3           4           5           6           7           8           9          10
 IAtWgt=          12          12          19          32          16          16          16          19          19          19
 AtmWgt=  12.0000000  12.0000000  18.9984032  31.9720718  15.9949146  15.9949146  15.9949146  18.9984032  18.9984032  18.9984032
 NucSpn=           0           0           1           0           0           0           0           1           1           1
 AtZEff=  -0.0000000  -0.0000000  -0.0000000  -0.0000000  -0.0000000  -0.0000000  -0.0000000  -0.0000000  -0.0000000  -0.0000000
 NQMom=    0.0000000   0.0000000   0.0000000   0.0000000   0.0000000   0.0000000   0.0000000   0.0000000   0.0000000   0.0000000
 NMagM=    0.0000000   0.0000000   2.6288670   0.0000000   0.0000000   0.0000000   0.0000000   2.6288670   2.6288670   2.6288670
 AtZNuc=   6.0000000   6.0000000   9.0000000  16.0000000   8.0000000   8.0000000   8.0000000   9.0000000   9.0000000   9.0000000

  Atom        11
 IAtWgt=           1
 AtmWgt=   1.0078250
 NucSpn=           1
 AtZEff=  -0.0000000
 NQMom=    0.0000000
 NMagM=    2.7928460
 AtZNuc=   1.0000000
 Leave Link  101 at Fri May 23 02:16:08 2025, MaxMem=  3758096384 cpu:               0.2 elap:               0.2
 (Enter /apps/easybuild-2022/easybuild/software/Compiler/NVHPC/22.11-CUDA-11.7.0/Gaussian/g16c01-CUDA-11.7.0/g16/l103.exe)

 GradGradGradGradGradGradGradGradGradGradGradGradGradGradGradGradGradGrad
 Berny optimization.
 Initialization pass.
                           ----------------------------
                           !    Initial Parameters    !
                           ! (Angstroms and Degrees)  !
 --------------------------                            --------------------------
 ! Name  Definition              Value          Derivative Info.                !
 --------------------------------------------------------------------------------
 ! R1    R(1,2)                  1.5134         calculate D2E/DX2 analytically  !
 ! R2    R(1,8)                  1.3273         calculate D2E/DX2 analytically  !
 ! R3    R(1,9)                  1.3489         calculate D2E/DX2 analytically  !
 ! R4    R(1,10)                 1.3273         calculate D2E/DX2 analytically  !
 ! R5    R(2,3)                  1.3088         calculate D2E/DX2 analytically  !
 ! R6    R(2,4)                  1.7788         calculate D2E/DX2 analytically  !
 ! R7    R(4,5)                  1.4365         calculate D2E/DX2 analytically  !
 ! R8    R(4,6)                  1.4268         calculate D2E/DX2 analytically  !
 ! R9    R(4,7)                  1.6103         calculate D2E/DX2 analytically  !
 ! R10   R(7,11)                 0.9666         calculate D2E/DX2 analytically  !
 ! A1    A(2,1,8)              111.4283         calculate D2E/DX2 analytically  !
 ! A2    A(2,1,9)              110.6793         calculate D2E/DX2 analytically  !
 ! A3    A(2,1,10)             109.9774         calculate D2E/DX2 analytically  !
 ! A4    A(8,1,9)              107.5875         calculate D2E/DX2 analytically  !
 ! A5    A(8,1,10)             109.0513         calculate D2E/DX2 analytically  !
 ! A6    A(9,1,10)             108.0181         calculate D2E/DX2 analytically  !
 ! A7    A(1,2,3)              116.3237         calculate D2E/DX2 analytically  !
 ! A8    A(1,2,4)              122.4297         calculate D2E/DX2 analytically  !
 ! A9    A(3,2,4)              115.7494         calculate D2E/DX2 analytically  !
 ! A10   A(2,4,5)              106.2319         calculate D2E/DX2 analytically  !
 ! A11   A(2,4,6)              107.3536         calculate D2E/DX2 analytically  !
 ! A12   A(2,4,7)              101.9588         calculate D2E/DX2 analytically  !
 ! A13   A(5,4,6)              124.4204         calculate D2E/DX2 analytically  !
 ! A14   A(5,4,7)              108.668          calculate D2E/DX2 analytically  !
 ! A15   A(6,4,7)              106.0276         calculate D2E/DX2 analytically  !
 ! A16   A(4,7,11)             110.0334         calculate D2E/DX2 analytically  !
 ! D1    D(8,1,2,3)            136.296          calculate D2E/DX2 analytically  !
 ! D2    D(8,1,2,4)            -71.0074         calculate D2E/DX2 analytically  !
 ! D3    D(9,1,2,3)           -104.0281         calculate D2E/DX2 analytically  !
 ! D4    D(9,1,2,4)             48.6685         calculate D2E/DX2 analytically  !
 ! D5    D(10,1,2,3)            15.2468         calculate D2E/DX2 analytically  !
 ! D6    D(10,1,2,4)           167.9434         calculate D2E/DX2 analytically  !
 ! D7    D(1,2,4,5)             33.2546         calculate D2E/DX2 analytically  !
 ! D8    D(1,2,4,6)            168.3093         calculate D2E/DX2 analytically  !
 ! D9    D(1,2,4,7)            -80.4756         calculate D2E/DX2 analytically  !
 ! D10   D(3,2,4,5)           -173.9044         calculate D2E/DX2 analytically  !
 ! D11   D(3,2,4,6)            -38.8498         calculate D2E/DX2 analytically  !
 ! D12   D(3,2,4,7)             72.3654         calculate D2E/DX2 analytically  !
 ! D13   D(2,4,7,11)           -31.2504         calculate D2E/DX2 analytically  !
 ! D14   D(5,4,7,11)          -143.1607         calculate D2E/DX2 analytically  !
 ! D15   D(6,4,7,11)            80.9631         calculate D2E/DX2 analytically  !
 --------------------------------------------------------------------------------
 Trust Radius=3.00D-01 FncErr=1.00D-07 GrdErr=1.00D-06 EigMax=2.50D+02 EigMin=1.00D-04
 Number of steps in this run=     51 maximum allowed number of steps=    100.
 GradGradGradGradGradGradGradGradGradGradGradGradGradGradGradGradGradGrad

 Leave Link  103 at Fri May 23 02:16:08 2025, MaxMem=  3758096384 cpu:               0.1 elap:               0.0
 (Enter /apps/easybuild-2022/easybuild/software/Compiler/NVHPC/22.11-CUDA-11.7.0/Gaussian/g16c01-CUDA-11.7.0/g16/l202.exe)
                          Input orientation:                          
 ---------------------------------------------------------------------
 Center     Atomic      Atomic             Coordinates (Angstroms)
 Number     Number       Type             X           Y           Z
 ---------------------------------------------------------------------
      1          6           0        3.393433   -0.908264    1.910407
      2          6           0        1.957400   -0.535914    1.611085
      3          9           0        1.250709   -0.091984    2.619285
      4         16           0        1.426828    0.000000    0.000000
      5          8           0        2.238833   -0.711661   -0.947499
      6          8           0        0.000000    0.000000    0.000000
      7          8           0        1.871430    1.547702    0.000000
      8          9           0        3.727913   -2.054739    1.331271
      9          9           0        4.236621    0.040342    1.453608
     10          9           0        3.569763   -1.017488    3.221428
     11          1           0        1.825761    1.905331    0.896820
 ---------------------------------------------------------------------
                    Distance matrix (angstroms):
                    1          2          3          4          5
     1  C    0.000000
     2  C    1.513416   0.000000
     3  F    2.400018   1.308799   0.000000
     4  S    2.888275   1.778849   2.626810   0.000000
     5  O    3.088589   2.580008   3.752644   1.436512   0.000000
     6  O    3.998748   2.591180   2.904030   1.426828   2.533099
     7  O    3.463801   2.635231   3.151907   1.610296   2.477390
     8  F    1.327283   2.349434   3.412906   3.359944   3.035459
     9  F    1.348882   2.356208   3.208112   3.163785   3.212784
    10  F    1.327328   2.329127   2.568492   4.000632   4.386897
    11  H    3.376576   2.546994   2.699414   2.143296   3.228124
                    6          7          8          9         10
     6  O    0.000000
     7  O    2.428504   0.000000
     8  F    4.459996   4.265723   0.000000
     9  F    4.479236   3.158993   2.159425   0.000000
    10  F    4.914885   4.454451   2.161850   2.165385   0.000000
    11  H    2.787108   0.966576   4.414644   3.098458   4.121677
                   11
    11  H    0.000000
 Symmetry turned off by external request.
 Stoichiometry    C2HF4O3S
 Rotational constants (GHZ):           1.9613248           0.9071625           0.8081852
 Leave Link  202 at Fri May 23 02:16:08 2025, MaxMem=  3758096384 cpu:               0.1 elap:               0.0
 (Enter /apps/easybuild-2022/easybuild/software/Compiler/NVHPC/22.11-CUDA-11.7.0/Gaussian/g16c01-CUDA-11.7.0/g16/l301.exe)
 Standard basis: 6-311++G(d,p) (5D, 7F)
 Ernie: Thresh=  0.10000D-02 Tol=  0.10000D-05 Strict=F.
   235 basis functions,   383 primitive gaussians,   245 cartesian basis functions
    45 alpha electrons       44 beta electrons
       nuclear repulsion energy       760.7353780200 Hartrees.
 IExCor= 4639 DFT=T Ex+Corr=wB97XD ExCW=0 ScaHFX=  1.000000
 ScaDFX=  1.000000  1.000000  1.000000  1.000000 ScalE2=  1.000000  1.000000
 IRadAn=      5 IRanWt=     -1 IRanGd=            0 ICorTp=0 IEmpDi=121
 HFx  wShort=  0.000000 wLong=  0.200000 cFull=  0.222036 cShort=  0.000000 cLong=  0.777964
 DFx  wShort=  0.000000 wLong=  0.200000 cFull=  0.000000 cShort=  0.000000 cLong=  1.000000
 NAtoms=   11 NActive=   11 NUniq=   11 SFac= 1.00D+00 NAtFMM=   60 NAOKFM=F Big=F
 Integral buffers will be    131072 words long.
 Raffenetti 2 integral format.
 Two-electron integral symmetry is turned off.
 R6Disp:  Grimme-D2 Dispersion energy=       -0.0046597914 Hartrees.
 Nuclear repulsion after empirical dispersion term =      760.7307182287 Hartrees.
 Leave Link  301 at Fri May 23 02:16:08 2025, MaxMem=  3758096384 cpu:               0.0 elap:               0.0
 (Enter /apps/easybuild-2022/easybuild/software/Compiler/NVHPC/22.11-CUDA-11.7.0/Gaussian/g16c01-CUDA-11.7.0/g16/l302.exe)
 NPDir=0 NMtPBC=     1 NCelOv=     1 NCel=       1 NClECP=     1 NCelD=      1
         NCelK=      1 NCelE2=     1 NClLst=     1 CellRange=     0.0.
 One-electron integrals computed using PRISM.
 NBasis=   235 RedAO= T EigKep=  5.88D-05  NBF=   235
 NBsUse=   235 1.00D-06 EigRej= -1.00D+00 NBFU=   235
 Precomputing XC quadrature grid using
 IXCGrd= 4 IRadAn=           5 IRanWt=          -1 IRanGd=           0 AccXCQ= 0.00D+00.
 Generated NRdTot=       0 NPtTot=           0 NUsed=           0 NTot=          32
 NSgBfM=   245   245   245   245   245 MxSgAt=    11 MxSgA2=    11.
 Leave Link  302 at Fri May 23 02:16:08 2025, MaxMem=  3758096384 cpu:               0.7 elap:               0.2
 (Enter /apps/easybuild-2022/easybuild/software/Compiler/NVHPC/22.11-CUDA-11.7.0/Gaussian/g16c01-CUDA-11.7.0/g16/l303.exe)
 DipDrv:  MaxL=1.
 Leave Link  303 at Fri May 23 02:16:08 2025, MaxMem=  3758096384 cpu:               0.1 elap:               0.0
 (Enter /apps/easybuild-2022/easybuild/software/Compiler/NVHPC/22.11-CUDA-11.7.0/Gaussian/g16c01-CUDA-11.7.0/g16/l401.exe)
 ExpMin= 3.60D-02 ExpMax= 9.34D+04 ExpMxC= 3.17D+03 IAcc=3 IRadAn=         5 AccDes= 0.00D+00
 Harris functional with IExCor= 4639 and IRadAn=       5 diagonalized for initial guess.
 HarFok:  IExCor= 4639 AccDes= 0.00D+00 IRadAn=         5 IDoV= 1 UseB2=F ITyADJ=14
 ICtDFT=  3500011 ScaDFX=  1.000000  1.000000  1.000000  1.000000
 FoFCou: FMM=F IPFlag=           0 FMFlag=      100000 FMFlg1=           0
         NFxFlg=           0 DoJE=T BraDBF=F KetDBF=T FulRan=T
         wScrn=  0.000000 ICntrl=       500 IOpCl=  0 I1Cent=   200000004 NGrid=           0
         NMat0=    1 NMatS0=      1 NMatT0=    0 NMatD0=    1 NMtDS0=    0 NMtDT0=    0
 Symmetry not used in FoFCou.
 Harris En= -1070.17070826204    
 JPrj=0 DoOrth=F DoCkMO=F.
 Initial guess <Sx>= 0.0000 <Sy>= 0.0000 <Sz>= 0.5000 <S**2>= 0.7500 S= 0.5000
 Leave Link  401 at Fri May 23 02:16:08 2025, MaxMem=  3758096384 cpu:               2.0 elap:               0.3
 (Enter /apps/easybuild-2022/easybuild/software/Compiler/NVHPC/22.11-CUDA-11.7.0/Gaussian/g16c01-CUDA-11.7.0/g16/l502.exe)
 Keep R1 and R2 ints in memory in canonical form, NReq=1553140779.
 FoFCou: FMM=F IPFlag=           0 FMFlag=           0 FMFlg1=           0
         NFxFlg=           0 DoJE=F BraDBF=F KetDBF=F FulRan=T
         wScrn=  0.000000 ICntrl=       600 IOpCl=  0 I1Cent=           0 NGrid=           0
         NMat0=    1 NMatS0=  27730 NMatT0=    0 NMatD0=    1 NMtDS0=    0 NMtDT0=    0
 Symmetry not used in FoFCou.
 Two-electron integral symmetry not used.
 UHF open shell SCF:
 Using DIIS extrapolation, IDIIS=  1040.
 NGot=  3758096384 LenX=  2220011129 LenY=  2219950663
 Requested convergence on RMS density matrix=1.00D-08 within  32 cycles.
 Requested convergence on MAX density matrix=1.00D-06.
 Requested convergence on             energy=1.00D-06.
 No special actions if energy rises.

 Cycle   1  Pass 1  IDiag  1:
 E= -1099.26490517984    
 DIIS: error= 1.03D-01 at cycle   1 NSaved=   1.
 NSaved= 1 IEnMin= 1 EnMin= -1099.26490517984     IErMin= 1 ErrMin= 1.03D-01
 ErrMax= 1.03D-01  0.00D+00 EMaxC= 1.00D-01 BMatC= 1.24D+01 BMatP= 1.24D+01
 IDIUse=3 WtCom= 0.00D+00 WtEn= 1.00D+00
 Coeff-Com:  0.100D+01
 Coeff-En:   0.100D+01
 Coeff:      0.100D+01
 Gap=     0.549 Goal=   None    Shift=    0.000
 Gap=     0.375 Goal=   None    Shift=    0.000
 GapD=    0.375 DampG=1.000 DampE=0.250 DampFc=0.2500 IDamp=-1.
 Damping current iteration by 2.50D-01
 RMSDP=8.37D-03 MaxDP=3.88D-01              OVMax= 2.00D-01

 Cycle   2  Pass 1  IDiag  1:
 E= -1099.47867223975     Delta-E=       -0.213767059908 Rises=F Damp=T
 DIIS: error= 7.38D-02 at cycle   2 NSaved=   2.
 NSaved= 2 IEnMin= 2 EnMin= -1099.47867223975     IErMin= 2 ErrMin= 7.38D-02
 ErrMax= 7.38D-02  0.00D+00 EMaxC= 1.00D-01 BMatC= 5.58D+00 BMatP= 1.24D+01
 IDIUse=3 WtCom= 2.62D-01 WtEn= 7.38D-01
 Coeff-Com: -0.176D+01 0.276D+01
 Coeff-En:   0.000D+00 0.100D+01
 Coeff:     -0.461D+00 0.146D+01
 Gap=     0.472 Goal=   None    Shift=    0.000
 Gap=     0.299 Goal=   None    Shift=    0.000
 RMSDP=4.08D-03 MaxDP=2.54D-01 DE=-2.14D-01 OVMax= 6.94D-02

 Cycle   3  Pass 1  IDiag  1:
 E= -1099.87515555504     Delta-E=       -0.396483315295 Rises=F Damp=F
 DIIS: error= 1.96D-02 at cycle   3 NSaved=   3.
 NSaved= 3 IEnMin= 3 EnMin= -1099.87515555504     IErMin= 3 ErrMin= 1.96D-02
 ErrMax= 1.96D-02  0.00D+00 EMaxC= 1.00D-01 BMatC= 3.06D-01 BMatP= 5.58D+00
 IDIUse=3 WtCom= 8.04D-01 WtEn= 1.96D-01
 Coeff-Com:  0.630D+00-0.744D+00 0.111D+01
 Coeff-En:   0.000D+00 0.000D+00 0.100D+01
 Coeff:      0.506D+00-0.598D+00 0.109D+01
 Gap=     0.444 Goal=   None    Shift=    0.000
 Gap=     0.325 Goal=   None    Shift=    0.000
 RMSDP=1.44D-03 MaxDP=9.77D-02 DE=-3.96D-01 OVMax= 2.71D-02

 Cycle   4  Pass 1  IDiag  1:
 E= -1099.90065363732     Delta-E=       -0.025498082278 Rises=F Damp=F
 DIIS: error= 4.89D-03 at cycle   4 NSaved=   4.
 NSaved= 4 IEnMin= 4 EnMin= -1099.90065363732     IErMin= 4 ErrMin= 4.89D-03
 ErrMax= 4.89D-03  0.00D+00 EMaxC= 1.00D-01 BMatC= 4.07D-02 BMatP= 3.06D-01
 IDIUse=3 WtCom= 9.51D-01 WtEn= 4.89D-02
 Coeff-Com:  0.321D+00-0.415D+00 0.484D+00 0.609D+00
 Coeff-En:   0.000D+00 0.000D+00 0.000D+00 0.100D+01
 Coeff:      0.306D+00-0.394D+00 0.460D+00 0.628D+00
 Gap=     0.416 Goal=   None    Shift=    0.000
 Gap=     0.340 Goal=   None    Shift=    0.000
 RMSDP=1.03D-03 MaxDP=6.19D-02 DE=-2.55D-02 OVMax= 2.04D-02

 Cycle   5  Pass 1  IDiag  1:
 E= -1099.90611028864     Delta-E=       -0.005456651319 Rises=F Damp=F
 DIIS: error= 1.53D-03 at cycle   5 NSaved=   5.
 NSaved= 5 IEnMin= 5 EnMin= -1099.90611028864     IErMin= 5 ErrMin= 1.53D-03
 ErrMax= 1.53D-03  0.00D+00 EMaxC= 1.00D-01 BMatC= 5.13D-03 BMatP= 4.07D-02
 IDIUse=3 WtCom= 9.85D-01 WtEn= 1.53D-02
 Coeff-Com:  0.119D+00-0.159D+00 0.158D+00 0.320D+00 0.562D+00
 Coeff-En:   0.000D+00 0.000D+00 0.000D+00 0.000D+00 0.100D+01
 Coeff:      0.118D+00-0.157D+00 0.156D+00 0.315D+00 0.569D+00
 Gap=     0.419 Goal=   None    Shift=    0.000
 Gap=     0.333 Goal=   None    Shift=    0.000
 RMSDP=2.41D-04 MaxDP=1.15D-02 DE=-5.46D-03 OVMax= 6.58D-03

 Cycle   6  Pass 1  IDiag  1:
 E= -1099.90691808807     Delta-E=       -0.000807799434 Rises=F Damp=F
 DIIS: error= 6.48D-04 at cycle   6 NSaved=   6.
 NSaved= 6 IEnMin= 6 EnMin= -1099.90691808807     IErMin= 6 ErrMin= 6.48D-04
 ErrMax= 6.48D-04  0.00D+00 EMaxC= 1.00D-01 BMatC= 1.70D-04 BMatP= 5.13D-03
 IDIUse=3 WtCom= 9.94D-01 WtEn= 6.48D-03
 Coeff-Com: -0.126D-01 0.159D-01-0.207D-01-0.388D-02 0.130D+00 0.891D+00
 Coeff-En:   0.000D+00 0.000D+00 0.000D+00 0.000D+00 0.000D+00 0.100D+01
 Coeff:     -0.125D-01 0.158D-01-0.206D-01-0.386D-02 0.129D+00 0.892D+00
 Gap=     0.419 Goal=   None    Shift=    0.000
 Gap=     0.334 Goal=   None    Shift=    0.000
 RMSDP=8.97D-05 MaxDP=6.82D-03 DE=-8.08D-04 OVMax= 4.33D-03

 Cycle   7  Pass 1  IDiag  1:
 E= -1099.90698586611     Delta-E=       -0.000067778039 Rises=F Damp=F
 DIIS: error= 1.59D-04 at cycle   7 NSaved=   7.
 NSaved= 7 IEnMin= 7 EnMin= -1099.90698586611     IErMin= 7 ErrMin= 1.59D-04
 ErrMax= 1.59D-04  0.00D+00 EMaxC= 1.00D-01 BMatC= 2.48D-05 BMatP= 1.70D-04
 IDIUse=3 WtCom= 9.98D-01 WtEn= 1.59D-03
 Coeff-Com: -0.150D-01 0.199D-01-0.206D-01-0.373D-01-0.558D-01 0.166D+00
 Coeff-Com:  0.943D+00
 Coeff-En:   0.000D+00 0.000D+00 0.000D+00 0.000D+00 0.000D+00 0.000D+00
 Coeff-En:   0.100D+01
 Coeff:     -0.150D-01 0.199D-01-0.205D-01-0.372D-01-0.557D-01 0.166D+00
 Coeff:      0.943D+00
 Gap=     0.419 Goal=   None    Shift=    0.000
 Gap=     0.335 Goal=   None    Shift=    0.000
 RMSDP=3.48D-05 MaxDP=1.79D-03 DE=-6.78D-05 OVMax= 2.04D-03

 Cycle   8  Pass 1  IDiag  1:
 E= -1099.90699938327     Delta-E=       -0.000013517152 Rises=F Damp=F
 DIIS: error= 1.15D-04 at cycle   8 NSaved=   8.
 NSaved= 8 IEnMin= 8 EnMin= -1099.90699938327     IErMin= 8 ErrMin= 1.15D-04
 ErrMax= 1.15D-04  0.00D+00 EMaxC= 1.00D-01 BMatC= 7.70D-06 BMatP= 2.48D-05
 IDIUse=3 WtCom= 9.99D-01 WtEn= 1.15D-03
 Coeff-Com: -0.463D-02 0.623D-02-0.632D-02-0.172D-01-0.510D-01-0.740D-01
 Coeff-Com:  0.411D+00 0.736D+00
 Coeff-En:   0.000D+00 0.000D+00 0.000D+00 0.000D+00 0.000D+00 0.000D+00
 Coeff-En:   0.000D+00 0.100D+01
 Coeff:     -0.462D-02 0.623D-02-0.631D-02-0.172D-01-0.510D-01-0.739D-01
 Coeff:      0.410D+00 0.737D+00
 Gap=     0.420 Goal=   None    Shift=    0.000
 Gap=     0.335 Goal=   None    Shift=    0.000
 RMSDP=1.47D-05 MaxDP=5.94D-04 DE=-1.35D-05 OVMax= 9.27D-04

 Cycle   9  Pass 1  IDiag  1:
 E= -1099.90700237439     Delta-E=       -0.000002991123 Rises=F Damp=F
 DIIS: error= 3.26D-05 at cycle   9 NSaved=   9.
 NSaved= 9 IEnMin= 9 EnMin= -1099.90700237439     IErMin= 9 ErrMin= 3.26D-05
 ErrMax= 3.26D-05  0.00D+00 EMaxC= 1.00D-01 BMatC= 1.62D-06 BMatP= 7.70D-06
 IDIUse=1 WtCom= 1.00D+00 WtEn= 0.00D+00
 Coeff-Com:  0.185D-02-0.245D-02 0.215D-02 0.134D-02-0.761D-02-0.666D-01
 Coeff-Com: -0.603D-01 0.313D+00 0.818D+00
 Coeff:      0.185D-02-0.245D-02 0.215D-02 0.134D-02-0.761D-02-0.666D-01
 Coeff:     -0.603D-01 0.313D+00 0.818D+00
 Gap=     0.420 Goal=   None    Shift=    0.000
 Gap=     0.335 Goal=   None    Shift=    0.000
 RMSDP=7.66D-06 MaxDP=3.18D-04 DE=-2.99D-06 OVMax= 5.11D-04

 Cycle  10  Pass 1  IDiag  1:
 E= -1099.90700300110     Delta-E=       -0.000000626710 Rises=F Damp=F
 DIIS: error= 1.39D-05 at cycle  10 NSaved=  10.
 NSaved=10 IEnMin=10 EnMin= -1099.90700300110     IErMin=10 ErrMin= 1.39D-05
 ErrMax= 1.39D-05  0.00D+00 EMaxC= 1.00D-01 BMatC= 3.50D-07 BMatP= 1.62D-06
 IDIUse=1 WtCom= 1.00D+00 WtEn= 0.00D+00
 Coeff-Com:  0.185D-02-0.246D-02 0.228D-02 0.337D-02 0.386D-02-0.258D-01
 Coeff-Com: -0.904D-01 0.508D-01 0.406D+00 0.650D+00
 Coeff:      0.185D-02-0.246D-02 0.228D-02 0.337D-02 0.386D-02-0.258D-01
 Coeff:     -0.904D-01 0.508D-01 0.406D+00 0.650D+00
 Gap=     0.420 Goal=   None    Shift=    0.000
 Gap=     0.335 Goal=   None    Shift=    0.000
 RMSDP=3.26D-06 MaxDP=1.74D-04 DE=-6.27D-07 OVMax= 2.17D-04

 Cycle  11  Pass 1  IDiag  1:
 E= -1099.90700310466     Delta-E=       -0.000000103557 Rises=F Damp=F
 DIIS: error= 1.02D-05 at cycle  11 NSaved=  11.
 NSaved=11 IEnMin=11 EnMin= -1099.90700310466     IErMin=11 ErrMin= 1.02D-05
 ErrMax= 1.02D-05  0.00D+00 EMaxC= 1.00D-01 BMatC= 3.99D-08 BMatP= 3.50D-07
 IDIUse=1 WtCom= 1.00D+00 WtEn= 0.00D+00
 Coeff-Com:  0.196D-03-0.258D-03 0.280D-03 0.689D-03 0.295D-02 0.575D-02
 Coeff-Com: -0.144D-01-0.461D-01-0.377D-01 0.216D+00 0.873D+00
 Coeff:      0.196D-03-0.258D-03 0.280D-03 0.689D-03 0.295D-02 0.575D-02
 Coeff:     -0.144D-01-0.461D-01-0.377D-01 0.216D+00 0.873D+00
 Gap=     0.420 Goal=   None    Shift=    0.000
 Gap=     0.335 Goal=   None    Shift=    0.000
 RMSDP=1.60D-06 MaxDP=1.05D-04 DE=-1.04D-07 OVMax= 1.36D-04

 Cycle  12  Pass 1  IDiag  1:
 E= -1099.90700312497     Delta-E=       -0.000000020317 Rises=F Damp=F
 DIIS: error= 3.15D-06 at cycle  12 NSaved=  12.
 NSaved=12 IEnMin=12 EnMin= -1099.90700312497     IErMin=12 ErrMin= 3.15D-06
 ErrMax= 3.15D-06  0.00D+00 EMaxC= 1.00D-01 BMatC= 6.75D-09 BMatP= 3.99D-08
 IDIUse=1 WtCom= 1.00D+00 WtEn= 0.00D+00
 Coeff-Com: -0.161D-03 0.217D-03-0.180D-03-0.200D-03 0.568D-03 0.549D-02
 Coeff-Com:  0.697D-02-0.229D-01-0.727D-01-0.233D-01 0.301D+00 0.805D+00
 Coeff:     -0.161D-03 0.217D-03-0.180D-03-0.200D-03 0.568D-03 0.549D-02
 Coeff:      0.697D-02-0.229D-01-0.727D-01-0.233D-01 0.301D+00 0.805D+00
 Gap=     0.420 Goal=   None    Shift=    0.000
 Gap=     0.335 Goal=   None    Shift=    0.000
 RMSDP=7.94D-07 MaxDP=7.04D-05 DE=-2.03D-08 OVMax= 6.65D-05

 Cycle  13  Pass 1  IDiag  1:
 E= -1099.90700312925     Delta-E=       -0.000000004279 Rises=F Damp=F
 DIIS: error= 1.57D-06 at cycle  13 NSaved=  13.
 NSaved=13 IEnMin=13 EnMin= -1099.90700312925     IErMin=13 ErrMin= 1.57D-06
 ErrMax= 1.57D-06  0.00D+00 EMaxC= 1.00D-01 BMatC= 8.38D-10 BMatP= 6.75D-09
 IDIUse=1 WtCom= 1.00D+00 WtEn= 0.00D+00
 Coeff-Com: -0.509D-04 0.675D-04-0.685D-04-0.162D-03-0.457D-03-0.362D-03
 Coeff-Com:  0.369D-02 0.579D-02-0.260D-02-0.436D-01-0.134D+00 0.966D-01
 Coeff-Com:  0.107D+01
 Coeff:     -0.509D-04 0.675D-04-0.685D-04-0.162D-03-0.457D-03-0.362D-03
 Coeff:      0.369D-02 0.579D-02-0.260D-02-0.436D-01-0.134D+00 0.966D-01
 Coeff:      0.107D+01
 Gap=     0.420 Goal=   None    Shift=    0.000
 Gap=     0.335 Goal=   None    Shift=    0.000
 RMSDP=4.85D-07 MaxDP=4.94D-05 DE=-4.28D-09 OVMax= 4.56D-05

 Cycle  14  Pass 1  IDiag  1:
 E= -1099.90700313029     Delta-E=       -0.000000001043 Rises=F Damp=F
 DIIS: error= 6.00D-07 at cycle  14 NSaved=  14.
 NSaved=14 IEnMin=14 EnMin= -1099.90700313029     IErMin=14 ErrMin= 6.00D-07
 ErrMax= 6.00D-07  0.00D+00 EMaxC= 1.00D-01 BMatC= 2.62D-10 BMatP= 8.38D-10
 IDIUse=1 WtCom= 1.00D+00 WtEn= 0.00D+00
 Coeff-Com: -0.138D-04 0.178D-04-0.250D-04-0.697D-04-0.288D-03-0.678D-03
 Coeff-Com:  0.126D-02 0.475D-02 0.505D-02-0.174D-01-0.852D-01-0.287D-01
 Coeff-Com:  0.448D+00 0.674D+00
 Coeff:     -0.138D-04 0.178D-04-0.250D-04-0.697D-04-0.288D-03-0.678D-03
 Coeff:      0.126D-02 0.475D-02 0.505D-02-0.174D-01-0.852D-01-0.287D-01
 Coeff:      0.448D+00 0.674D+00
 Gap=     0.420 Goal=   None    Shift=    0.000
 Gap=     0.335 Goal=   None    Shift=    0.000
 RMSDP=1.14D-07 MaxDP=7.12D-06 DE=-1.04D-09 OVMax= 1.19D-05

 Cycle  15  Pass 1  IDiag  1:
 E= -1099.90700313042     Delta-E=       -0.000000000130 Rises=F Damp=F
 DIIS: error= 4.53D-07 at cycle  15 NSaved=  15.
 NSaved=15 IEnMin=15 EnMin= -1099.90700313042     IErMin=15 ErrMin= 4.53D-07
 ErrMax= 4.53D-07  0.00D+00 EMaxC= 1.00D-01 BMatC= 4.66D-11 BMatP= 2.62D-10
 IDIUse=1 WtCom= 1.00D+00 WtEn= 0.00D+00
 Coeff-Com:  0.112D-04-0.152D-04 0.118D-04 0.368D-04 0.940D-04-0.199D-05
 Coeff-Com: -0.107D-02-0.982D-03 0.240D-02 0.123D-01 0.279D-01-0.460D-01
 Coeff-Com: -0.319D+00 0.140D+00 0.118D+01
 Coeff:      0.112D-04-0.152D-04 0.118D-04 0.368D-04 0.940D-04-0.199D-05
 Coeff:     -0.107D-02-0.982D-03 0.240D-02 0.123D-01 0.279D-01-0.460D-01
 Coeff:     -0.319D+00 0.140D+00 0.118D+01
 Gap=     0.420 Goal=   None    Shift=    0.000
 Gap=     0.335 Goal=   None    Shift=    0.000
 RMSDP=1.19D-07 MaxDP=6.64D-06 DE=-1.30D-10 OVMax= 1.35D-05

 Cycle  16  Pass 1  IDiag  1:
 E= -1099.90700313043     Delta-E=       -0.000000000009 Rises=F Damp=F
 DIIS: error= 8.46D-08 at cycle  16 NSaved=  16.
 NSaved=16 IEnMin=16 EnMin= -1099.90700313043     IErMin=16 ErrMin= 8.46D-08
 ErrMax= 8.46D-08  0.00D+00 EMaxC= 1.00D-01 BMatC= 3.45D-12 BMatP= 4.66D-11
 IDIUse=1 WtCom= 1.00D+00 WtEn= 0.00D+00
 Coeff-Com:  0.442D-05-0.577D-05 0.733D-05 0.143D-04 0.436D-04 0.349D-04
 Coeff-Com: -0.284D-03-0.493D-03-0.870D-04 0.293D-02 0.102D-01-0.169D-02
 Coeff-Com: -0.678D-01-0.386D-01 0.736D-01 0.102D+01
 Coeff:      0.442D-05-0.577D-05 0.733D-05 0.143D-04 0.436D-04 0.349D-04
 Coeff:     -0.284D-03-0.493D-03-0.870D-04 0.293D-02 0.102D-01-0.169D-02
 Coeff:     -0.678D-01-0.386D-01 0.736D-01 0.102D+01
 Gap=     0.420 Goal=   None    Shift=    0.000
 Gap=     0.335 Goal=   None    Shift=    0.000
 RMSDP=2.95D-08 MaxDP=2.61D-06 DE=-9.32D-12 OVMax= 2.64D-06

 Cycle  17  Pass 1  IDiag  1:
 E= -1099.90700313044     Delta-E=       -0.000000000008 Rises=F Damp=F
 DIIS: error= 2.57D-08 at cycle  17 NSaved=  17.
 NSaved=17 IEnMin=17 EnMin= -1099.90700313044     IErMin=17 ErrMin= 2.57D-08
 ErrMax= 2.57D-08  0.00D+00 EMaxC= 1.00D-01 BMatC= 8.03D-13 BMatP= 3.45D-12
 IDIUse=1 WtCom= 1.00D+00 WtEn= 0.00D+00
 Coeff-Com: -0.710D-06 0.103D-05-0.206D-07-0.336D-05-0.519D-05 0.159D-05
 Coeff-Com:  0.994D-04 0.950D-04-0.257D-03-0.139D-02-0.356D-02 0.602D-02
 Coeff-Com:  0.436D-01-0.232D-01-0.197D+00 0.269D+00 0.906D+00
 Coeff:     -0.710D-06 0.103D-05-0.206D-07-0.336D-05-0.519D-05 0.159D-05
 Coeff:      0.994D-04 0.950D-04-0.257D-03-0.139D-02-0.356D-02 0.602D-02
 Coeff:      0.436D-01-0.232D-01-0.197D+00 0.269D+00 0.906D+00
 Gap=     0.420 Goal=   None    Shift=    0.000
 Gap=     0.335 Goal=   None    Shift=    0.000
 RMSDP=9.73D-09 MaxDP=8.65D-07 DE=-8.19D-12 OVMax= 7.34D-07

 SCF Done:  E(UwB97XD) =  -1099.90700313     A.U. after   17 cycles
            NFock= 17  Conv=0.97D-08     -V/T= 2.0019
 <Sx>= 0.0000 <Sy>= 0.0000 <Sz>= 0.5000 <S**2>= 0.7546 S= 0.5023
 <L.S>=  0.00000000000    
 KE= 1.097767633649D+03 PE=-4.129774485492D+03 EE= 1.171369130484D+03
 Annihilation of the first spin contaminant:
 S**2 before annihilation     0.7546,   after     0.7500
 Leave Link  502 at Fri May 23 02:16:29 2025, MaxMem=  3758096384 cpu:              89.4 elap:              20.0
 (Enter /apps/easybuild-2022/easybuild/software/Compiler/NVHPC/22.11-CUDA-11.7.0/Gaussian/g16c01-CUDA-11.7.0/g16/l508.exe)
 QCSCF skips out because SCF is already converged.
 Leave Link  508 at Fri May 23 02:16:29 2025, MaxMem=  3758096384 cpu:               0.1 elap:               0.0
 (Enter /apps/easybuild-2022/easybuild/software/Compiler/NVHPC/22.11-CUDA-11.7.0/Gaussian/g16c01-CUDA-11.7.0/g16/l801.exe)
 DoSCS=F DFT=T ScalE2(SS,OS)=  1.000000  1.000000
 Range of M.O.s used for correlation:     1   235
 NBasis=   235 NAE=    45 NBE=    44 NFC=     0 NFV=     0
 NROrb=    235 NOA=    45 NOB=    44 NVA=   190 NVB=   191

 **** Warning!!: The largest alpha MO coefficient is  0.32656960D+02


 **** Warning!!: The largest beta MO coefficient is  0.34022747D+02

 Leave Link  801 at Fri May 23 02:16:29 2025, MaxMem=  3758096384 cpu:               0.1 elap:               0.0
 (Enter /apps/easybuild-2022/easybuild/software/Compiler/NVHPC/22.11-CUDA-11.7.0/Gaussian/g16c01-CUDA-11.7.0/g16/l1101.exe)
 Using compressed storage, NAtomX=    11.
 Will process     12 centers per pass.
 R6Disp: Adding Grimme-D2 dispersion energy 1st derivatives to the gradient.
 Leave Link 1101 at Fri May 23 02:16:29 2025, MaxMem=  3758096384 cpu:               0.8 elap:               0.2
 (Enter /apps/easybuild-2022/easybuild/software/Compiler/NVHPC/22.11-CUDA-11.7.0/Gaussian/g16c01-CUDA-11.7.0/g16/l1102.exe)
 Symmetrizing basis deriv contribution to polar:
 IMax=3 JMax=2 DiffMx= 0.00D+00
 Leave Link 1102 at Fri May 23 02:16:29 2025, MaxMem=  3758096384 cpu:               0.1 elap:               0.0
 (Enter /apps/easybuild-2022/easybuild/software/Compiler/NVHPC/22.11-CUDA-11.7.0/Gaussian/g16c01-CUDA-11.7.0/g16/l1110.exe)
 Forming Gx(P) for the SCF density, NAtomX=    11.
 Integral derivatives from FoFJK, PRISM(SPDF).
 Do as many integral derivatives as possible in FoFJK.
 G2DrvN: MDV=    3758095115.
 G2DrvN: will do    12 centers at a time, making    1 passes.
 Calling FoFCou, ICntrl=  3107 FMM=F I1Cent=   0 AccDes= 0.00D+00.
 FoFJK:  IHMeth= 1 ICntrl=    3107 DoSepK=T KAlg= 0 I1Cent=           0 FoldK=F
 IRaf=         1 NMat=       1 IRICut=       1 DoRegI=T DoRafI=F ISym2E= 0 IDoP0=0 IntGTp=1.
 FoFCou: FMM=F IPFlag=           0 FMFlag=      100000 FMFlg1=           0
         NFxFlg=           0 DoJE=F BraDBF=F KetDBF=F FulRan=T
         wScrn=  0.000000 ICntrl=      3507 IOpCl=  0 I1Cent=           0 NGrid=           0
         NMat0=    1 NMatS0=      1 NMatT0=    0 NMatD0=    1 NMtDS0=    0 NMtDT0=    0
 Symmetry not used in FoFCou.
 End of G2Drv F.D. properties file   721 does not exist.
 End of G2Drv F.D. properties file   722 does not exist.
 End of G2Drv F.D. properties file   788 does not exist.
 Leave Link 1110 at Fri May 23 02:16:44 2025, MaxMem=  3758096384 cpu:             117.6 elap:              14.9
 (Enter /apps/easybuild-2022/easybuild/software/Compiler/NVHPC/22.11-CUDA-11.7.0/Gaussian/g16c01-CUDA-11.7.0/g16/l1002.exe)
 Minotr:  UHF open shell wavefunction.
          IDoAtm=11111111111
          Direct CPHF calculation.
          Differentiating once with respect to nuclear coordinates.
          Requested convergence is 1.0D-08 RMS, and 1.0D-07 maximum.
          Secondary convergence is 1.0D-12 RMS, and 1.0D-12 maximum.
          NewPWx=T KeepS1=F KeepF1=F KeepIn=T MapXYZ=F SortEE=F KeepMc=T.
         3398 words used for storage of precomputed grid.
 Keep R1 and R2 ints in memory in canonical form, NReq=1553124341.
 FoFCou: FMM=F IPFlag=           0 FMFlag=           0 FMFlg1=           0
         NFxFlg=           0 DoJE=F BraDBF=F KetDBF=F FulRan=T
         wScrn=  0.000000 ICntrl=       600 IOpCl=  0 I1Cent=           0 NGrid=           0
         NMat0=    1 NMatS0=  27730 NMatT0=    0 NMatD0=    1 NMtDS0=    0 NMtDT0=    0
 Symmetry not used in FoFCou.
 Two-electron integral symmetry not used.
          MDV=    3758096384 using IRadAn=       1.
          Solving linear equations simultaneously, MaxMat=       0.
          There are    36 degrees of freedom in the 1st order CPHF.  IDoFFX=6 NUNeed=     0.
     30 vectors produced by pass  0 Test12= 4.71D-14 2.78D-09 XBig12= 6.13D-01 1.11D-01.
 AX will form    30 AO Fock derivatives at one time.
     30 vectors produced by pass  1 Test12= 4.71D-14 2.78D-09 XBig12= 1.40D-01 4.25D-02.
     30 vectors produced by pass  2 Test12= 4.71D-14 2.78D-09 XBig12= 4.84D-03 2.06D-02.
     30 vectors produced by pass  3 Test12= 4.71D-14 2.78D-09 XBig12= 1.25D-04 2.63D-03.
     30 vectors produced by pass  4 Test12= 4.71D-14 2.78D-09 XBig12= 2.45D-06 3.97D-04.
     30 vectors produced by pass  5 Test12= 4.71D-14 2.78D-09 XBig12= 4.36D-08 3.52D-05.
     30 vectors produced by pass  6 Test12= 4.71D-14 2.78D-09 XBig12= 4.98D-10 2.84D-06.
     30 vectors produced by pass  7 Test12= 4.71D-14 2.78D-09 XBig12= 5.50D-12 2.99D-07.
     14 vectors produced by pass  8 Test12= 4.71D-14 2.78D-09 XBig12= 6.37D-14 3.35D-08.
      2 vectors produced by pass  9 Test12= 4.71D-14 2.78D-09 XBig12= 7.76D-16 3.38D-09.
 InvSVY:  IOpt=1 It=  1 EMax= 9.99D-16
 Solved reduced A of dimension   256 with    30 vectors.
 End of Minotr F.D. properties file   721 does not exist.
 End of Minotr F.D. properties file   722 does not exist.
 End of Minotr F.D. properties file   788 does not exist.
 Leave Link 1002 at Fri May 23 02:17:17 2025, MaxMem=  3758096384 cpu:             256.8 elap:              33.3
 (Enter /apps/easybuild-2022/easybuild/software/Compiler/NVHPC/22.11-CUDA-11.7.0/Gaussian/g16c01-CUDA-11.7.0/g16/l701.exe)
 ... and contract with generalized density number  0.
 Compute integral second derivatives.
 R6Disp: Adding Grimme-D2 dispersion energy 2nd derivatives to the Hessian.
 Leave Link  701 at Fri May 23 02:17:17 2025, MaxMem=  3758096384 cpu:               0.9 elap:               0.2
 (Enter /apps/easybuild-2022/easybuild/software/Compiler/NVHPC/22.11-CUDA-11.7.0/Gaussian/g16c01-CUDA-11.7.0/g16/l702.exe)
 L702 exits ... SP integral derivatives will be done elsewhere.
 Leave Link  702 at Fri May 23 02:17:17 2025, MaxMem=  3758096384 cpu:               0.1 elap:               0.0
 (Enter /apps/easybuild-2022/easybuild/software/Compiler/NVHPC/22.11-CUDA-11.7.0/Gaussian/g16c01-CUDA-11.7.0/g16/l703.exe)
 Integral derivatives from FoFJK, PRISM(SPDF).
 Compute integral second derivatives, UseDBF=F ICtDFT=           0.
 Calling FoFJK, ICntrl=    100127 FMM=F ISym2X=0 I1Cent= 0 IOpClX= 1 NMat=1 NMatS=1 NMatT=0.
 FoFJK:  IHMeth= 1 ICntrl=  100127 DoSepK=T KAlg= 0 I1Cent=           0 FoldK=F
 IRaf=         1 NMat=       1 IRICut=       1 DoRegI=T DoRafI=F ISym2E= 0 IDoP0=0 IntGTp=1.
 FoFCou: FMM=F IPFlag=           0 FMFlag=      100000 FMFlg1=         800
         NFxFlg=           0 DoJE=F BraDBF=F KetDBF=F FulRan=T
         wScrn=  0.000000 ICntrl=    100527 IOpCl=  0 I1Cent=           0 NGrid=           0
         NMat0=    1 NMatS0=      1 NMatT0=    0 NMatD0=    1 NMtDS0=    0 NMtDT0=    0
 Symmetry not used in FoFCou.
 Leave Link  703 at Fri May 23 02:17:47 2025, MaxMem=  3758096384 cpu:             227.1 elap:              29.3
 (Enter /apps/easybuild-2022/easybuild/software/Compiler/NVHPC/22.11-CUDA-11.7.0/Gaussian/g16c01-CUDA-11.7.0/g16/l716.exe)
 Dipole        = 1.75160133D-01 6.09020819D-01 1.16488595D+00
 Polarizability= 0.00000000D+00 0.00000000D+00 0.00000000D+00
                 0.00000000D+00 0.00000000D+00 0.00000000D+00
 -------------------------------------------------------------------
 Center     Atomic                   Forces (Hartrees/Bohr)
 Number     Number              X              Y              Z
 -------------------------------------------------------------------
      1        6           0.005282534    0.000963346   -0.003362224
      2        6           0.004640530   -0.003453811   -0.002914001
      3        9          -0.002723933    0.002180327    0.003984825
      4       16           0.003752926   -0.003144711   -0.003577680
      5        8          -0.006326131    0.008680697    0.004167623
      6        8          -0.008839895   -0.007102251   -0.000499508
      7        8           0.012225474    0.000283116    0.001356360
      8        9          -0.001078494    0.000163171    0.000543386
      9        9          -0.002819543   -0.002181585    0.002435142
     10        9          -0.000548064   -0.000233802    0.001643643
     11        1          -0.003565405    0.003845503   -0.003777566
 -------------------------------------------------------------------
 Cartesian Forces:  Max     0.012225474 RMS     0.004351349
 Force constants in Cartesian coordinates: 
                1             2             3             4             5 
      1  0.554359D+00
      2 -0.499592D-01  0.494078D+00
      3  0.233376D-01  0.934976D-02  0.551281D+00
      4 -0.178269D+00  0.275597D-01 -0.507539D-01  0.469379D+00
      5  0.535584D-01 -0.541993D-01  0.187028D-01 -0.166815D+00  0.178141D+00
      6 -0.656772D-02 -0.260971D-02 -0.701051D-01 -0.695909D-01  0.533171D-01
      7 -0.906268D-02  0.140099D-01  0.389053D-01 -0.158231D+00  0.879683D-01
      8 -0.251558D-02  0.105056D-02 -0.150006D-01  0.902424D-01 -0.580409D-01
      9 -0.498874D-02 -0.168514D-03 -0.145269D-01  0.152939D+00 -0.973287D-01
     10  0.276168D-02  0.138970D-01 -0.328050D-01 -0.625234D-01  0.107184D-01
     11  0.844212D-02  0.136813D-01  0.808915D-02  0.189890D-01 -0.506383D-01
     12 -0.375806D-01  0.186576D-01  0.116586D-01 -0.226252D-01  0.752360D-02
     13 -0.664281D-02  0.159180D-02  0.950036D-02  0.566028D-02  0.407929D-03
     14  0.130980D-02 -0.664730D-02 -0.419659D-02  0.220244D-02  0.322809D-02
     15  0.907739D-02 -0.340996D-02 -0.128551D-02  0.185511D-01 -0.156635D-01
     16  0.725277D-02 -0.325194D-02 -0.668481D-03 -0.263854D-01  0.549365D-02
     17 -0.274509D-02 -0.773195D-03  0.521013D-03  0.960672D-02  0.569706D-02
     18  0.909038D-02 -0.205539D-02 -0.644116D-02 -0.261001D-01  0.312522D-02
     19 -0.418565D-02 -0.588021D-02  0.361270D-02  0.730671D-02  0.427671D-02
     20 -0.140888D-01 -0.320482D-02 -0.320012D-03  0.506369D-02 -0.198964D-01
     21  0.658160D-02 -0.471889D-02 -0.156786D-02 -0.236956D-02  0.252494D-01
     22 -0.104841D+00  0.720995D-01  0.263619D-01 -0.120066D-01  0.269241D-01
     23  0.646711D-01 -0.229537D+00 -0.694350D-01  0.156861D-01 -0.149494D-01
     24  0.234816D-01 -0.716894D-01 -0.107302D+00  0.692461D-02 -0.643353D-02
     25 -0.169345D+00 -0.824088D-01  0.333679D-01 -0.363692D-01 -0.287472D-01
     26 -0.703877D-01 -0.136385D+00  0.288922D-01 -0.870708D-02  0.259854D-02
     27  0.312305D-01  0.324529D-01 -0.871170D-01  0.588685D-02  0.318628D-02
     28 -0.941246D-01  0.878536D-02 -0.496198D-01 -0.928959D-02  0.759371D-02
     29  0.856444D-02 -0.755960D-01  0.225124D-01  0.583609D-02  0.561415D-02
     30 -0.546927D-01  0.234210D-01 -0.275244D+00 -0.107562D-01  0.403352D-02
     31  0.209712D-02  0.355698D-02 -0.123855D-02  0.729141D-03 -0.137948D-02
     32  0.315055D-02 -0.246734D-02  0.884789D-03  0.335470D-03  0.244589D-02
     33  0.103071D-02  0.770617D-03  0.649789D-03 -0.210569D-02  0.428779D-02
                6             7             8             9            10 
      6  0.526703D+00
      7  0.142174D+00  0.181726D+00
      8 -0.998479D-01 -0.986435D-01  0.562907D-01
      9 -0.280403D+00 -0.177703D+00  0.106874D+00  0.315808D+00
     10 -0.472713D-01 -0.729103D-02  0.385595D-02  0.343392D-01  0.108487D+01
     11  0.529332D-01  0.355923D-02 -0.760208D-03 -0.281507D-01 -0.141037D+00
     12 -0.147280D+00 -0.224266D-02  0.113399D-01 -0.170032D-01 -0.171452D+00
     13  0.317324D-03  0.236495D-02  0.327445D-03 -0.715436D-03 -0.265701D+00
     14  0.335849D-05 -0.773693D-03  0.210067D-02  0.882024D-03  0.153871D+00
     15 -0.718128D-02 -0.308597D-03 -0.249850D-04 -0.149134D-01  0.212819D+00
     16  0.931049D-02  0.591754D-02 -0.362767D-02 -0.722780D-02 -0.674246D+00
     17 -0.613402D-03 -0.152296D-02  0.787058D-03  0.347295D-02  0.991642D-02
     18  0.281506D-02 -0.160041D-02  0.675130D-03  0.259091D-02 -0.126776D-01
     19 -0.132052D-02  0.899307D-03 -0.833654D-03 -0.152025D-02 -0.745835D-01
     20 -0.652426D-02 -0.511579D-02  0.466969D-02  0.110035D-01 -0.486017D-01
     21  0.110586D-03  0.111566D-02 -0.344097D-02  0.432848D-03  0.691884D-02
     22  0.124283D-01 -0.751160D-02  0.638939D-02  0.233079D-02 -0.895033D-03
     23 -0.125865D-01  0.581637D-02 -0.487400D-02  0.223084D-03 -0.166688D-03
     24  0.764064D-02 -0.618590D-03  0.109228D-03  0.127056D-02  0.334887D-02
     25  0.426333D-02 -0.812376D-02  0.349383D-02  0.476286D-02 -0.155134D-03
     26  0.210976D-02 -0.430632D-02  0.285666D-03  0.891245D-03 -0.314121D-02
     27  0.934536D-02 -0.171528D-02 -0.770039D-03  0.100729D-02  0.439757D-02
     28 -0.420345D-01  0.161241D-03  0.686629D-04 -0.287693D-02 -0.415289D-02
     29  0.119607D-01 -0.711219D-03 -0.407062D-03  0.166568D-02  0.286022D-03
     30 -0.443656D-01  0.682130D-03  0.144163D-02  0.877757D-02  0.148105D-02
     31 -0.170835D-02 -0.848181D-03  0.124269D-02  0.659982D-03  0.191831D-02
     32  0.185774D-02 -0.280263D-03 -0.110216D-02  0.635595D-03  0.401490D-03
     33  0.272056D-02  0.131127D-02 -0.135526D-02 -0.304126D-02  0.900904D-03
               11            12            13            14            15 
     11  0.557922D+00
     12  0.158485D+00  0.673474D+00
     13  0.151627D+00  0.200605D+00  0.257752D+00
     14 -0.204179D+00 -0.167222D+00 -0.165287D+00  0.209049D+00
     15 -0.178867D+00 -0.339610D+00 -0.229760D+00  0.204203D+00  0.340535D+00
     16  0.757819D-02  0.263820D-02 -0.786618D-02 -0.569461D-02 -0.675198D-02
     17 -0.753905D-01  0.164232D-03  0.190641D-01  0.127920D-01 -0.521362D-02
     18 -0.203971D-02 -0.899088D-01  0.301046D-01 -0.672480D-02  0.159634D-01
     19 -0.357343D-01  0.106732D-01  0.101878D-01  0.117908D-01  0.380688D-02
     20 -0.208428D+00  0.146757D-01 -0.639077D-02 -0.145079D-01 -0.510644D-02
     21 -0.374665D-02 -0.867456D-01 -0.129265D-02 -0.352450D-01  0.424013D-02
     22 -0.157026D-02  0.677524D-02  0.728538D-03  0.422949D-03 -0.323506D-02
     23 -0.415091D-02 -0.766067D-02 -0.925019D-03  0.205058D-02  0.309842D-02
     24 -0.412562D-02 -0.753229D-02 -0.383314D-02  0.370250D-02  0.223012D-03
     25 -0.389472D-02  0.131770D-01  0.164020D-02 -0.140334D-03 -0.360090D-02
     26 -0.721726D-02  0.313331D-02  0.515609D-03  0.166283D-02 -0.833876D-03
     27  0.151484D-02 -0.564496D-02 -0.295896D-02 -0.158325D-03  0.537507D-03
     28 -0.216767D-02  0.937896D-02  0.171157D-02 -0.499822D-03 -0.204042D-02
     29 -0.331725D-03 -0.306851D-02 -0.485472D-03  0.771545D-03  0.695331D-03
     30 -0.324963D-02  0.665302D-02 -0.659426D-03  0.449317D-03 -0.119135D-02
     31 -0.579178D-02 -0.934777D-02  0.164465D-03  0.279872D-02  0.144230D-02
     32 -0.205071D-01 -0.360289D-01 -0.445295D-03 -0.632085D-02  0.112173D-02
     33 -0.843692D-03  0.193933D-02 -0.130817D-02  0.430574D-02  0.268271D-02
               16            17            18            19            20 
     16  0.719844D+00
     17  0.750490D-02  0.651636D-01
     18  0.784779D-02  0.278579D-02  0.551666D-01
     19 -0.157958D-01 -0.434617D-01 -0.262481D-02  0.751645D-01
     20 -0.111885D-01 -0.101442D-01 -0.710394D-03  0.676439D-01  0.336171D+00
     21 -0.362556D-02 -0.484647D-02  0.190910D-01 -0.330421D-01  0.168038D+00
     22 -0.111612D-02  0.423107D-03 -0.173992D-02  0.584585D-03  0.249862D-02
     23  0.148821D-02  0.330644D-03  0.189628D-02  0.922590D-03 -0.215947D-03
     24  0.995320D-04  0.332773D-03  0.173697D-02 -0.272948D-04 -0.122783D-04
     25 -0.130967D-02  0.111462D-02 -0.213673D-02  0.339213D-03  0.555448D-02
     26  0.382301D-04  0.126057D-02 -0.930007D-03  0.366405D-02  0.335842D-02
     27 -0.290693D-03 -0.421358D-03  0.146831D-02 -0.217987D-02 -0.793610D-03
     28 -0.279328D-02  0.886385D-03 -0.315480D-02  0.108175D-02  0.295535D-02
     29  0.103036D-02 -0.172438D-03  0.981710D-03  0.417530D-03  0.155338D-03
     30 -0.400284D-02  0.956634D-03 -0.203344D-02 -0.314538D-03  0.281811D-02
     31 -0.350189D-02 -0.786496D-03  0.299157D-02 -0.999006D-03  0.166962D-02
     32  0.629221D-03  0.449370D-03  0.299617D-02 -0.280561D-02 -0.879565D-01
     33  0.267136D-02  0.286146D-02 -0.448856D-03  0.229366D-01 -0.183068D+00
               21            22            23            24            25 
     21  0.517596D+00
     22 -0.127703D-02  0.939645D-01
     23  0.194887D-02 -0.714983D-01  0.335184D+00
     24  0.154659D-02 -0.398374D-01  0.130035D+00  0.146587D+00
     25 -0.293795D-02  0.160418D-01 -0.161558D-01 -0.259218D-02  0.188272D+00
     26  0.776680D-03 -0.324659D-01 -0.810442D-01  0.278144D-03  0.130905D+00
     27  0.282169D-03 -0.623759D-02 -0.996201D-02  0.147926D-01 -0.644966D-01
     28 -0.109710D-02  0.152970D-01  0.913316D-03  0.131592D-01  0.994474D-02
     29  0.386165D-03 -0.254549D-02 -0.354899D-02 -0.524730D-01 -0.833534D-02
     30 -0.707858D-03  0.449009D-02 -0.373173D-01 -0.587953D-01  0.205181D-01
     31  0.310258D-01 -0.246125D-03 -0.751881D-03 -0.105140D-03 -0.935800D-03
     32 -0.144401D+00 -0.677716D-03  0.755208D-03  0.276019D-03 -0.138571D-02
     33 -0.454278D+00 -0.592594D-04 -0.240484D-03 -0.167793D-03 -0.324865D-03
               26            27            28            29            30 
     26  0.224087D+00
     27 -0.702353D-01  0.113934D+00
     28 -0.141602D-01  0.356896D-01  0.825591D-01
     29 -0.879498D-02  0.453236D-01 -0.371518D-02  0.820576D-01
     30  0.361475D-01 -0.483362D-01  0.429285D-01 -0.278542D-01  0.415935D+00
     31 -0.195437D-02  0.674468D-03 -0.395086D-03 -0.341728D-03  0.325820D-03
     32  0.187617D-03 -0.137081D-03 -0.659861D-03  0.252580D-03 -0.846635D-03
     33 -0.229744D-03 -0.268861D-03 -0.332684D-03 -0.129828D-03 -0.691681D-03
               31            32            33 
     31  0.201705D-02
     32  0.173772D-02  0.114263D+00
     33 -0.247201D-01  0.173642D+00  0.450904D+00
 FormGI is forming the generalized inverse of G from B-inverse, IUseBI=4.
 Leave Link  716 at Fri May 23 02:17:47 2025, MaxMem=  3758096384 cpu:               0.1 elap:               0.0
 (Enter /apps/easybuild-2022/easybuild/software/Compiler/NVHPC/22.11-CUDA-11.7.0/Gaussian/g16c01-CUDA-11.7.0/g16/l103.exe)

 GradGradGradGradGradGradGradGradGradGradGradGradGradGradGradGradGradGrad
 Berny optimization.
 Red2BG is reusing G-inverse.
 Internal  Forces:  Max     0.010626215 RMS     0.003988895
 Search for a local minimum.
 Step number   1 out of a maximum of   51
 All quantities printed in internal units (Hartrees-Bohrs-Radians)
 RMS Force = .39889D-02 SwitMx=.10000D-02 MixMth= 1
 Mixed Optimization -- RFO/linear search
 Second derivative matrix not updated -- analytic derivatives used.
 ITU=  0
     Eigenvalues ---   -0.00428   0.00035   0.00245   0.00902   0.11406
     Eigenvalues ---    0.11676   0.12214   0.13570   0.14732   0.16666
     Eigenvalues ---    0.17081   0.17665   0.20103   0.22317   0.23085
     Eigenvalues ---    0.24396   0.25196   0.29820   0.32875   0.36367
     Eigenvalues ---    0.39442   0.41190   0.50043   0.52616   0.54921
     Eigenvalues ---    0.68274   0.72398
 Eigenvalue     1 is  -4.28D-03 should be greater than     0.000000 Eigenvector:
                          D15       D13       D14       D10       D11
   1                   -0.57458  -0.56847  -0.56487  -0.08498  -0.06698
                          D12       D7        D8        A16       D9
   1                   -0.06297  -0.06240  -0.04439  -0.04069  -0.04039
 RFO step:  Lambda=-8.50801295D-03 EMin=-4.27564805D-03
 Linear search not attempted -- first point.
 Iteration  1 RMS(Cart)=  0.07336641 RMS(Int)=  0.10146718
 Iteration  2 RMS(Cart)=  0.04851686 RMS(Int)=  0.04757474
 Iteration  3 RMS(Cart)=  0.04275425 RMS(Int)=  0.00381342
 Iteration  4 RMS(Cart)=  0.00342238 RMS(Int)=  0.00012854
 Iteration  5 RMS(Cart)=  0.00001639 RMS(Int)=  0.00012811
 Iteration  6 RMS(Cart)=  0.00000000 RMS(Int)=  0.00012811
 ITry= 1 IFail=0 DXMaxC= 6.67D-01 DCOld= 1.00D+10 DXMaxT= 3.00D-01 DXLimC= 3.00D+00 Rises=F
 Variable       Old X    -DE/DX   Delta X   Delta X   Delta X     New X
                                 (Linear)    (Quad)   (Total)
    R1        2.85994   0.00136   0.00000   0.00370   0.00370   2.86364
    R2        2.50820  -0.00065   0.00000   0.00325   0.00325   2.51145
    R3        2.54902  -0.00412   0.00000  -0.02381  -0.02381   2.52521
    R4        2.50829   0.00157   0.00000   0.00798   0.00798   2.51626
    R5        2.47327   0.00528   0.00000   0.01438   0.01438   2.48765
    R6        3.36154   0.00370   0.00000   0.00149   0.00149   3.36303
    R7        2.71461  -0.01063   0.00000  -0.01873  -0.01873   2.69589
    R8        2.69631   0.00884   0.00000   0.01337   0.01337   2.70969
    R9        3.04302   0.00636   0.00000   0.00044   0.00044   3.04346
   R10        1.82656  -0.00191   0.00000   0.00104   0.00104   1.82760
    A1        1.94479  -0.00091   0.00000  -0.01347  -0.01355   1.93124
    A2        1.93172   0.00030   0.00000   0.01629   0.01632   1.94804
    A3        1.91947  -0.00143   0.00000  -0.01166  -0.01175   1.90772
    A4        1.87776   0.00145   0.00000   0.00919   0.00922   1.88698
    A5        1.90330   0.00053   0.00000  -0.00292  -0.00313   1.90018
    A6        1.88527   0.00016   0.00000   0.00329   0.00332   1.88859
    A7        2.03023  -0.00176   0.00000  -0.00346  -0.00344   2.02679
    A8        2.13680   0.00427   0.00000   0.02658   0.02657   2.16337
    A9        2.02021  -0.00196   0.00000  -0.01875  -0.01879   2.00142
   A10        1.85410   0.00204   0.00000   0.02240   0.02242   1.87652
   A11        1.87367  -0.00257   0.00000  -0.01828  -0.01851   1.85516
   A12        1.77952   0.00468   0.00000   0.00866   0.00860   1.78812
   A13        2.17155  -0.00249   0.00000  -0.00151  -0.00121   2.17034
   A14        1.89661  -0.00773   0.00000  -0.06214  -0.06194   1.83468
   A15        1.85053   0.00755   0.00000   0.05283   0.05300   1.90353
   A16        1.92045   0.00655   0.00000   0.00850   0.00850   1.92895
    D1        2.37881  -0.00074   0.00000   0.02111   0.02116   2.39997
    D2       -1.23931  -0.00012   0.00000   0.02575   0.02588  -1.21343
    D3       -1.81563   0.00068   0.00000   0.03469   0.03465  -1.78098
    D4        0.84942   0.00131   0.00000   0.03933   0.03937   0.88880
    D5        0.26611   0.00016   0.00000   0.04158   0.04145   0.30755
    D6        2.93116   0.00079   0.00000   0.04622   0.04617   2.97733
    D7        0.58040  -0.00146   0.00000  -0.07764  -0.07761   0.50279
    D8        2.93755  -0.00500   0.00000  -0.07637  -0.07629   2.86126
    D9       -1.40456   0.00439   0.00000  -0.02079  -0.02079  -1.42535
   D10       -3.03520  -0.00080   0.00000  -0.06927  -0.06931  -3.10452
   D11       -0.67806  -0.00434   0.00000  -0.06800  -0.06800  -0.74605
   D12        1.26301   0.00506   0.00000  -0.01242  -0.01249   1.25053
   D13       -0.54542  -0.00290   0.00000  -0.57096  -0.57121  -1.11664
   D14       -2.49863  -0.00447   0.00000  -0.57724  -0.57746  -3.07609
   D15        1.41307  -0.00125   0.00000  -0.56928  -0.56881   0.84426
         Item               Value     Threshold  Converged?
 Maximum Force            0.010626     0.000015     NO 
 RMS     Force            0.003989     0.000010     NO 
 Maximum Displacement     0.666928     0.000060     NO 
 RMS     Displacement     0.152444     0.000040     NO 
 Predicted change in Energy=-8.529154D-03
 Lowest energy point so far.  Saving SCF results.
 GradGradGradGradGradGradGradGradGradGradGradGradGradGradGradGradGradGrad

 Leave Link  103 at Fri May 23 02:17:47 2025, MaxMem=  3758096384 cpu:               0.1 elap:               0.0
 (Enter /apps/easybuild-2022/easybuild/software/Compiler/NVHPC/22.11-CUDA-11.7.0/Gaussian/g16c01-CUDA-11.7.0/g16/l202.exe)
                          Input orientation:                          
 ---------------------------------------------------------------------
 Center     Atomic      Atomic             Coordinates (Angstroms)
 Number     Number       Type             X           Y           Z
 ---------------------------------------------------------------------
      1          6           0        3.427264   -0.964755    1.927681
      2          6           0        2.008617   -0.525357    1.626459
      3          9           0        1.325143   -0.037749    2.640379
      4         16           0        1.456687    0.023328    0.026014
      5          8           0        2.262315   -0.630177   -0.953317
      6          8           0        0.023867   -0.023062    0.056917
      7          8           0        1.932831    1.561693    0.003082
      8          9           0        3.697458   -2.119773    1.328369
      9          9           0        4.320815   -0.062133    1.512366
     10          9           0        3.570856   -1.117859    3.242583
     11          1           0        1.472838    2.069169    0.685872
 ---------------------------------------------------------------------
                    Distance matrix (angstroms):
                    1          2          3          4          5
     1  C    0.000000
     2  C    1.515375   0.000000
     3  F    2.405450   1.316409   0.000000
     4  S    2.911326   1.779637   2.618385   0.000000
     5  O    3.125572   2.594339   3.760839   1.426602   0.000000
     6  O    3.996205   2.579728   2.892717   1.433904   2.529785
     7  O    3.510036   2.645161   3.143698   1.610530   2.414032
     8  F    1.329002   2.341624   3.418197   3.363044   3.079711
     9  F    1.336282   2.360901   3.201103   3.227968   3.261853
    10  F    1.331550   2.324544   2.563691   4.014764   4.422181
    11  H    3.816617   2.811286   2.877675   2.149683   3.255254
                    6          7          8          9         10
     6  O    0.000000
     7  O    2.481631   0.000000
     8  F    4.416793   4.292259   0.000000
     9  F    4.536918   3.258407   2.157849   0.000000
    10  F    4.891643   4.511927   2.164272   2.161168   0.000000
    11  H    2.621552   0.967124   4.786332   3.651919   4.592994
                   11
    11  H    0.000000
 Symmetry turned off by external request.
 Stoichiometry    C2HF4O3S
 Rotational constants (GHZ):           1.9596889           0.8950066           0.7989263
 Leave Link  202 at Fri May 23 02:17:47 2025, MaxMem=  3758096384 cpu:               0.1 elap:               0.0
 (Enter /apps/easybuild-2022/easybuild/software/Compiler/NVHPC/22.11-CUDA-11.7.0/Gaussian/g16c01-CUDA-11.7.0/g16/l301.exe)
 Standard basis: 6-311++G(d,p) (5D, 7F)
 Ernie: Thresh=  0.10000D-02 Tol=  0.10000D-05 Strict=F.
   235 basis functions,   383 primitive gaussians,   245 cartesian basis functions
    45 alpha electrons       44 beta electrons
       nuclear repulsion energy       758.4982691294 Hartrees.
 IExCor= 4639 DFT=T Ex+Corr=wB97XD ExCW=0 ScaHFX=  1.000000
 ScaDFX=  1.000000  1.000000  1.000000  1.000000 ScalE2=  1.000000  1.000000
 IRadAn=      5 IRanWt=     -1 IRanGd=            0 ICorTp=0 IEmpDi=121
 HFx  wShort=  0.000000 wLong=  0.200000 cFull=  0.222036 cShort=  0.000000 cLong=  0.777964
 DFx  wShort=  0.000000 wLong=  0.200000 cFull=  0.000000 cShort=  0.000000 cLong=  1.000000
 NAtoms=   11 NActive=   11 NUniq=   11 SFac= 1.00D+00 NAtFMM=   60 NAOKFM=F Big=F
 Integral buffers will be    131072 words long.
 Raffenetti 2 integral format.
 Two-electron integral symmetry is turned off.
 R6Disp:  Grimme-D2 Dispersion energy=       -0.0045164743 Hartrees.
 Nuclear repulsion after empirical dispersion term =      758.4937526551 Hartrees.
 Leave Link  301 at Fri May 23 02:17:47 2025, MaxMem=  3758096384 cpu:               0.1 elap:               0.0
 (Enter /apps/easybuild-2022/easybuild/software/Compiler/NVHPC/22.11-CUDA-11.7.0/Gaussian/g16c01-CUDA-11.7.0/g16/l302.exe)
 NPDir=0 NMtPBC=     1 NCelOv=     1 NCel=       1 NClECP=     1 NCelD=      1
         NCelK=      1 NCelE2=     1 NClLst=     1 CellRange=     0.0.
 One-electron integrals computed using PRISM.
 NBasis=   235 RedAO= T EigKep=  6.06D-05  NBF=   235
 NBsUse=   235 1.00D-06 EigRej= -1.00D+00 NBFU=   235
 Precomputing XC quadrature grid using
 IXCGrd= 4 IRadAn=           5 IRanWt=          -1 IRanGd=           0 AccXCQ= 0.00D+00.
 Generated NRdTot=       0 NPtTot=           0 NUsed=           0 NTot=          32
 NSgBfM=   245   245   245   245   245 MxSgAt=    11 MxSgA2=    11.
 Leave Link  302 at Fri May 23 02:17:47 2025, MaxMem=  3758096384 cpu:               0.7 elap:               0.2
 (Enter /apps/easybuild-2022/easybuild/software/Compiler/NVHPC/22.11-CUDA-11.7.0/Gaussian/g16c01-CUDA-11.7.0/g16/l303.exe)
 DipDrv:  MaxL=1.
 Leave Link  303 at Fri May 23 02:17:47 2025, MaxMem=  3758096384 cpu:               0.1 elap:               0.0
 (Enter /apps/easybuild-2022/easybuild/software/Compiler/NVHPC/22.11-CUDA-11.7.0/Gaussian/g16c01-CUDA-11.7.0/g16/l401.exe)
 Initial guess from the checkpoint file:  "/tmp/Gau-143283.chk"
 B after Tr=     0.067080    0.100700    0.055190
         Rot=    0.999914   -0.004351   -0.001494    0.012293 Ang=  -1.50 deg.
 Guess basis will be translated and rotated to current coordinates.
 JPrj=2 DoOrth=T DoCkMO=T.
 Initial guess <Sx>= 0.0000 <Sy>= 0.0000 <Sz>= 0.5000 <S**2>= 0.7547 S= 0.5023
 Generating alternative initial guess.
 ExpMin= 3.60D-02 ExpMax= 9.34D+04 ExpMxC= 3.17D+03 IAcc=3 IRadAn=         5 AccDes= 0.00D+00
 Harris functional with IExCor= 4639 and IRadAn=       5 diagonalized for initial guess.
 HarFok:  IExCor= 4639 AccDes= 0.00D+00 IRadAn=         5 IDoV= 1 UseB2=F ITyADJ=14
 ICtDFT=  3500011 ScaDFX=  1.000000  1.000000  1.000000  1.000000
 FoFCou: FMM=F IPFlag=           0 FMFlag=      100000 FMFlg1=           0
         NFxFlg=           0 DoJE=T BraDBF=F KetDBF=T FulRan=T
         wScrn=  0.000000 ICntrl=       500 IOpCl=  0 I1Cent=   200000004 NGrid=           0
         NMat0=    1 NMatS0=      1 NMatT0=    0 NMatD0=    1 NMtDS0=    0 NMtDT0=    0
 Symmetry not used in FoFCou.
 Harris En= -1070.17414485833    
 Leave Link  401 at Fri May 23 02:17:47 2025, MaxMem=  3758096384 cpu:               2.0 elap:               0.3
 (Enter /apps/easybuild-2022/easybuild/software/Compiler/NVHPC/22.11-CUDA-11.7.0/Gaussian/g16c01-CUDA-11.7.0/g16/l502.exe)
 Keep R1 and R2 ints in memory in canonical form, NReq=1553140779.
 FoFCou: FMM=F IPFlag=           0 FMFlag=           0 FMFlg1=           0
         NFxFlg=           0 DoJE=F BraDBF=F KetDBF=F FulRan=T
         wScrn=  0.000000 ICntrl=       600 IOpCl=  0 I1Cent=           0 NGrid=           0
         NMat0=    1 NMatS0=  27730 NMatT0=    0 NMatD0=    1 NMtDS0=    0 NMtDT0=    0
 Symmetry not used in FoFCou.
 Two-electron integral symmetry not used.
 UHF open shell SCF:
 Using DIIS extrapolation, IDIIS=  1040.
 NGot=  3758096384 LenX=  2220011129 LenY=  2219950663
 Requested convergence on RMS density matrix=1.00D-08 within  32 cycles.
 Requested convergence on MAX density matrix=1.00D-06.
 Requested convergence on             energy=1.00D-06.
 No special actions if energy rises.

 Cycle   1  Pass 1  IDiag  1:
 E= -1099.86366768350    
 DIIS: error= 9.05D-03 at cycle   1 NSaved=   1.
 NSaved= 1 IEnMin= 1 EnMin= -1099.86366768350     IErMin= 1 ErrMin= 9.05D-03
 ErrMax= 9.05D-03  0.00D+00 EMaxC= 1.00D-01 BMatC= 1.51D-01 BMatP= 1.51D-01
 IDIUse=3 WtCom= 9.10D-01 WtEn= 9.05D-02
 Coeff-Com:  0.100D+01
 Coeff-En:   0.100D+01
 Coeff:      0.100D+01
 Gap=     0.636 Goal=   None    Shift=    0.000
 Gap=     0.681 Goal=   None    Shift=    0.000
 GapD=    0.636 DampG=2.000 DampE=1.000 DampFc=2.0000 IDamp=-1.
 RMSDP=3.81D-03 MaxDP=2.55D-01              OVMax= 6.96D-02

 Cycle   2  Pass 1  IDiag  1:
 E= -1099.91079756819     Delta-E=       -0.047129884692 Rises=F Damp=F
 DIIS: error= 2.54D-03 at cycle   2 NSaved=   2.
 NSaved= 2 IEnMin= 2 EnMin= -1099.91079756819     IErMin= 2 ErrMin= 2.54D-03
 ErrMax= 2.54D-03  0.00D+00 EMaxC= 1.00D-01 BMatC= 6.39D-03 BMatP= 1.51D-01
 IDIUse=3 WtCom= 9.75D-01 WtEn= 2.54D-02
 Coeff-Com: -0.889D-01 0.109D+01
 Coeff-En:   0.000D+00 0.100D+01
 Coeff:     -0.866D-01 0.109D+01
 Gap=     0.417 Goal=   None    Shift=    0.000
 Gap=     0.351 Goal=   None    Shift=    0.000
 RMSDP=8.55D-04 MaxDP=6.22D-02 DE=-4.71D-02 OVMax= 2.12D-02

 Cycle   3  Pass 1  IDiag  1:
 E= -1099.91247287645     Delta-E=       -0.001675308252 Rises=F Damp=F
 DIIS: error= 1.69D-03 at cycle   3 NSaved=   3.
 NSaved= 3 IEnMin= 3 EnMin= -1099.91247287645     IErMin= 3 ErrMin= 1.69D-03
 ErrMax= 1.69D-03  0.00D+00 EMaxC= 1.00D-01 BMatC= 5.76D-03 BMatP= 6.39D-03
 IDIUse=3 WtCom= 9.83D-01 WtEn= 1.69D-02
 Coeff-Com: -0.785D-01 0.572D+00 0.506D+00
 Coeff-En:   0.000D+00 0.000D+00 0.100D+01
 Coeff:     -0.772D-01 0.562D+00 0.515D+00
 Gap=     0.417 Goal=   None    Shift=    0.000
 Gap=     0.351 Goal=   None    Shift=    0.000
 RMSDP=2.93D-04 MaxDP=1.01D-02 DE=-1.68D-03 OVMax= 8.66D-03

 Cycle   4  Pass 1  IDiag  1:
 E= -1099.91343588074     Delta-E=       -0.000963004292 Rises=F Damp=F
 DIIS: error= 4.33D-04 at cycle   4 NSaved=   4.
 NSaved= 4 IEnMin= 4 EnMin= -1099.91343588074     IErMin= 4 ErrMin= 4.33D-04
 ErrMax= 4.33D-04  0.00D+00 EMaxC= 1.00D-01 BMatC= 4.25D-04 BMatP= 5.76D-03
 IDIUse=3 WtCom= 9.96D-01 WtEn= 4.33D-03
 Coeff-Com: -0.123D-01 0.148D-01 0.204D+00 0.793D+00
 Coeff-En:   0.000D+00 0.000D+00 0.000D+00 0.100D+01
 Coeff:     -0.123D-01 0.147D-01 0.203D+00 0.794D+00
 Gap=     0.417 Goal=   None    Shift=    0.000
 Gap=     0.349 Goal=   None    Shift=    0.000
 RMSDP=1.00D-04 MaxDP=5.51D-03 DE=-9.63D-04 OVMax= 2.93D-03

 Cycle   5  Pass 1  IDiag  1:
 E= -1099.91352976135     Delta-E=       -0.000093880612 Rises=F Damp=F
 DIIS: error= 1.44D-04 at cycle   5 NSaved=   5.
 NSaved= 5 IEnMin= 5 EnMin= -1099.91352976135     IErMin= 5 ErrMin= 1.44D-04
 ErrMax= 1.44D-04  0.00D+00 EMaxC= 1.00D-01 BMatC= 4.83D-05 BMatP= 4.25D-04
 IDIUse=3 WtCom= 9.99D-01 WtEn= 1.44D-03
 Coeff-Com:  0.405D-02-0.592D-01 0.315D-01 0.331D+00 0.693D+00
 Coeff-En:   0.000D+00 0.000D+00 0.000D+00 0.000D+00 0.100D+01
 Coeff:      0.405D-02-0.591D-01 0.315D-01 0.330D+00 0.693D+00
 Gap=     0.417 Goal=   None    Shift=    0.000
 Gap=     0.350 Goal=   None    Shift=    0.000
 RMSDP=4.17D-05 MaxDP=2.34D-03 DE=-9.39D-05 OVMax= 1.16D-03

 Cycle   6  Pass 1  IDiag  1:
 E= -1099.91354039523     Delta-E=       -0.000010633878 Rises=F Damp=F
 DIIS: error= 6.91D-05 at cycle   6 NSaved=   6.
 NSaved= 6 IEnMin= 6 EnMin= -1099.91354039523     IErMin= 6 ErrMin= 6.91D-05
 ErrMax= 6.91D-05  0.00D+00 EMaxC= 1.00D-01 BMatC= 7.38D-06 BMatP= 4.83D-05
 IDIUse=1 WtCom= 1.00D+00 WtEn= 0.00D+00
 Coeff-Com:  0.331D-02-0.269D-01-0.170D-01 0.203D-01 0.315D+00 0.706D+00
 Coeff:      0.331D-02-0.269D-01-0.170D-01 0.203D-01 0.315D+00 0.706D+00
 Gap=     0.417 Goal=   None    Shift=    0.000
 Gap=     0.350 Goal=   None    Shift=    0.000
 RMSDP=1.29D-05 MaxDP=8.12D-04 DE=-1.06D-05 OVMax= 5.38D-04

 Cycle   7  Pass 1  IDiag  1:
 E= -1099.91354229551     Delta-E=       -0.000001900281 Rises=F Damp=F
 DIIS: error= 2.41D-05 at cycle   7 NSaved=   7.
 NSaved= 7 IEnMin= 7 EnMin= -1099.91354229551     IErMin= 7 ErrMin= 2.41D-05
 ErrMax= 2.41D-05  0.00D+00 EMaxC= 1.00D-01 BMatC= 3.24D-07 BMatP= 7.38D-06
 IDIUse=1 WtCom= 1.00D+00 WtEn= 0.00D+00
 Coeff-Com:  0.399D-03-0.125D-02-0.660D-02-0.223D-01 0.968D-02 0.142D+00
 Coeff-Com:  0.878D+00
 Coeff:      0.399D-03-0.125D-02-0.660D-02-0.223D-01 0.968D-02 0.142D+00
 Coeff:      0.878D+00
 Gap=     0.417 Goal=   None    Shift=    0.000
 Gap=     0.350 Goal=   None    Shift=    0.000
 RMSDP=5.89D-06 MaxDP=2.97D-04 DE=-1.90D-06 OVMax= 2.63D-04

 Cycle   8  Pass 1  IDiag  1:
 E= -1099.91354246788     Delta-E=       -0.000000172375 Rises=F Damp=F
 DIIS: error= 1.26D-05 at cycle   8 NSaved=   8.
 NSaved= 8 IEnMin= 8 EnMin= -1099.91354246788     IErMin= 8 ErrMin= 1.26D-05
 ErrMax= 1.26D-05  0.00D+00 EMaxC= 1.00D-01 BMatC= 1.12D-07 BMatP= 3.24D-07
 IDIUse=1 WtCom= 1.00D+00 WtEn= 0.00D+00
 Coeff-Com: -0.397D-03 0.413D-02 0.307D-04-0.137D-01-0.498D-01-0.552D-01
 Coeff-Com:  0.382D+00 0.733D+00
 Coeff:     -0.397D-03 0.413D-02 0.307D-04-0.137D-01-0.498D-01-0.552D-01
 Coeff:      0.382D+00 0.733D+00
 Gap=     0.417 Goal=   None    Shift=    0.000
 Gap=     0.350 Goal=   None    Shift=    0.000
 RMSDP=2.22D-06 MaxDP=1.23D-04 DE=-1.72D-07 OVMax= 1.36D-04

 Cycle   9  Pass 1  IDiag  1:
 E= -1099.91354251072     Delta-E=       -0.000000042838 Rises=F Damp=F
 DIIS: error= 5.80D-06 at cycle   9 NSaved=   9.
 NSaved= 9 IEnMin= 9 EnMin= -1099.91354251072     IErMin= 9 ErrMin= 5.80D-06
 ErrMax= 5.80D-06  0.00D+00 EMaxC= 1.00D-01 BMatC= 2.16D-08 BMatP= 1.12D-07
 IDIUse=1 WtCom= 1.00D+00 WtEn= 0.00D+00
 Coeff-Com: -0.225D-03 0.190D-02 0.134D-02-0.162D-02-0.230D-01-0.478D-01
 Coeff-Com:  0.676D-02 0.322D+00 0.741D+00
 Coeff:     -0.225D-03 0.190D-02 0.134D-02-0.162D-02-0.230D-01-0.478D-01
 Coeff:      0.676D-02 0.322D+00 0.741D+00
 Gap=     0.417 Goal=   None    Shift=    0.000
 Gap=     0.350 Goal=   None    Shift=    0.000
 RMSDP=1.25D-06 MaxDP=8.93D-05 DE=-4.28D-08 OVMax= 6.24D-05

 Cycle  10  Pass 1  IDiag  1:
 E= -1099.91354252053     Delta-E=       -0.000000009804 Rises=F Damp=F
 DIIS: error= 2.72D-06 at cycle  10 NSaved=  10.
 NSaved=10 IEnMin=10 EnMin= -1099.91354252053     IErMin=10 ErrMin= 2.72D-06
 ErrMax= 2.72D-06  0.00D+00 EMaxC= 1.00D-01 BMatC= 2.51D-09 BMatP= 2.16D-08
 IDIUse=1 WtCom= 1.00D+00 WtEn= 0.00D+00
 Coeff-Com:  0.246D-04-0.373D-03 0.402D-03 0.235D-02 0.428D-02 0.831D-03
 Coeff-Com: -0.754D-01-0.787D-01 0.144D+00 0.100D+01
 Coeff:      0.246D-04-0.373D-03 0.402D-03 0.235D-02 0.428D-02 0.831D-03
 Coeff:     -0.754D-01-0.787D-01 0.144D+00 0.100D+01
 Gap=     0.417 Goal=   None    Shift=    0.000
 Gap=     0.350 Goal=   None    Shift=    0.000
 RMSDP=6.09D-07 MaxDP=1.98D-05 DE=-9.80D-09 OVMax= 4.37D-05

 Cycle  11  Pass 1  IDiag  1:
 E= -1099.91354252286     Delta-E=       -0.000000002332 Rises=F Damp=F
 DIIS: error= 9.24D-07 at cycle  11 NSaved=  11.
 NSaved=11 IEnMin=11 EnMin= -1099.91354252286     IErMin=11 ErrMin= 9.24D-07
 ErrMax= 9.24D-07  0.00D+00 EMaxC= 1.00D-01 BMatC= 7.22D-10 BMatP= 2.51D-09
 IDIUse=1 WtCom= 1.00D+00 WtEn= 0.00D+00
 Coeff-Com:  0.467D-04-0.471D-03-0.536D-04 0.125D-02 0.573D-02 0.838D-02
 Coeff-Com: -0.359D-01-0.866D-01-0.556D-01 0.435D+00 0.729D+00
 Coeff:      0.467D-04-0.471D-03-0.536D-04 0.125D-02 0.573D-02 0.838D-02
 Coeff:     -0.359D-01-0.866D-01-0.556D-01 0.435D+00 0.729D+00
 Gap=     0.417 Goal=   None    Shift=    0.000
 Gap=     0.350 Goal=   None    Shift=    0.000
 RMSDP=2.33D-07 MaxDP=1.52D-05 DE=-2.33D-09 OVMax= 1.79D-05

 Cycle  12  Pass 1  IDiag  1:
 E= -1099.91354252321     Delta-E=       -0.000000000351 Rises=F Damp=F
 DIIS: error= 4.61D-07 at cycle  12 NSaved=  12.
 NSaved=12 IEnMin=12 EnMin= -1099.91354252321     IErMin=12 ErrMin= 4.61D-07
 ErrMax= 4.61D-07  0.00D+00 EMaxC= 1.00D-01 BMatC= 1.06D-10 BMatP= 7.22D-10
 IDIUse=1 WtCom= 1.00D+00 WtEn= 0.00D+00
 Coeff-Com:  0.912D-05-0.690D-04-0.108D-03-0.116D-03 0.968D-03 0.251D-02
 Coeff-Com:  0.455D-02-0.111D-01-0.501D-01-0.626D-01 0.242D+00 0.874D+00
 Coeff:      0.912D-05-0.690D-04-0.108D-03-0.116D-03 0.968D-03 0.251D-02
 Coeff:      0.455D-02-0.111D-01-0.501D-01-0.626D-01 0.242D+00 0.874D+00
 Gap=     0.417 Goal=   None    Shift=    0.000
 Gap=     0.350 Goal=   None    Shift=    0.000
 RMSDP=9.51D-08 MaxDP=3.80D-06 DE=-3.51D-10 OVMax= 1.04D-05

 Cycle  13  Pass 1  IDiag  1:
 E= -1099.91354252330     Delta-E=       -0.000000000091 Rises=F Damp=F
 DIIS: error= 2.45D-07 at cycle  13 NSaved=  13.
 NSaved=13 IEnMin=13 EnMin= -1099.91354252330     IErMin=13 ErrMin= 2.45D-07
 ErrMax= 2.45D-07  0.00D+00 EMaxC= 1.00D-01 BMatC= 1.45D-11 BMatP= 1.06D-10
 IDIUse=1 WtCom= 1.00D+00 WtEn= 0.00D+00
 Coeff-Com: -0.509D-05 0.576D-04-0.128D-04-0.227D-03-0.642D-03-0.660D-03
 Coeff-Com:  0.637D-02 0.110D-01-0.336D-02-0.792D-01-0.696D-01 0.197D+00
 Coeff-Com:  0.939D+00
 Coeff:     -0.509D-05 0.576D-04-0.128D-04-0.227D-03-0.642D-03-0.660D-03
 Coeff:      0.637D-02 0.110D-01-0.336D-02-0.792D-01-0.696D-01 0.197D+00
 Coeff:      0.939D+00
 Gap=     0.417 Goal=   None    Shift=    0.000
 Gap=     0.350 Goal=   None    Shift=    0.000
 RMSDP=4.32D-08 MaxDP=1.78D-06 DE=-9.09D-11 OVMax= 4.97D-06

 Cycle  14  Pass 1  IDiag  1:
 E= -1099.91354252334     Delta-E=       -0.000000000043 Rises=F Damp=F
 DIIS: error= 8.01D-08 at cycle  14 NSaved=  14.
 NSaved=14 IEnMin=14 EnMin= -1099.91354252334     IErMin=14 ErrMin= 8.01D-08
 ErrMax= 8.01D-08  0.00D+00 EMaxC= 1.00D-01 BMatC= 3.24D-12 BMatP= 1.45D-11
 IDIUse=1 WtCom= 1.00D+00 WtEn= 0.00D+00
 Coeff-Com: -0.301D-05 0.286D-04 0.166D-04-0.501D-04-0.368D-03-0.590D-03
 Coeff-Com:  0.113D-02 0.531D-02 0.652D-02-0.116D-01-0.566D-01-0.998D-01
 Coeff-Com:  0.264D+00 0.892D+00
 Coeff:     -0.301D-05 0.286D-04 0.166D-04-0.501D-04-0.368D-03-0.590D-03
 Coeff:      0.113D-02 0.531D-02 0.652D-02-0.116D-01-0.566D-01-0.998D-01
 Coeff:      0.264D+00 0.892D+00
 Gap=     0.417 Goal=   None    Shift=    0.000
 Gap=     0.350 Goal=   None    Shift=    0.000
 RMSDP=1.86D-08 MaxDP=6.55D-07 DE=-4.32D-11 OVMax= 2.15D-06

 Cycle  15  Pass 1  IDiag  1:
 E= -1099.91354252332     Delta-E=        0.000000000025 Rises=F Damp=F
 DIIS: error= 5.19D-08 at cycle  15 NSaved=  15.
 NSaved=15 IEnMin=14 EnMin= -1099.91354252334     IErMin=15 ErrMin= 5.19D-08
 ErrMax= 5.19D-08  0.00D+00 EMaxC= 1.00D-01 BMatC= 7.14D-13 BMatP= 3.24D-12
 IDIUse=1 WtCom= 1.00D+00 WtEn= 0.00D+00
 Coeff-Com:  0.266D-06-0.468D-05 0.872D-05 0.370D-04 0.314D-04-0.287D-04
 Coeff-Com: -0.124D-02-0.810D-03 0.286D-02 0.154D-01-0.129D-02-0.834D-01
 Coeff-Com: -0.138D+00 0.303D+00 0.903D+00
 Coeff:      0.266D-06-0.468D-05 0.872D-05 0.370D-04 0.314D-04-0.287D-04
 Coeff:     -0.124D-02-0.810D-03 0.286D-02 0.154D-01-0.129D-02-0.834D-01
 Coeff:     -0.138D+00 0.303D+00 0.903D+00
 Gap=     0.417 Goal=   None    Shift=    0.000
 Gap=     0.350 Goal=   None    Shift=    0.000
 RMSDP=9.51D-09 MaxDP=3.79D-07 DE= 2.46D-11 OVMax= 1.07D-06

 SCF Done:  E(UwB97XD) =  -1099.91354252     A.U. after   15 cycles
            NFock= 15  Conv=0.95D-08     -V/T= 2.0020
 <Sx>= 0.0000 <Sy>= 0.0000 <Sz>= 0.5000 <S**2>= 0.7547 S= 0.5023
 <L.S>=  0.00000000000    
 KE= 1.097750642963D+03 PE=-4.125470431615D+03 EE= 1.169312493474D+03
 Annihilation of the first spin contaminant:
 S**2 before annihilation     0.7547,   after     0.7500
 Leave Link  502 at Fri May 23 02:18:05 2025, MaxMem=  3758096384 cpu:              77.7 elap:              17.2
 (Enter /apps/easybuild-2022/easybuild/software/Compiler/NVHPC/22.11-CUDA-11.7.0/Gaussian/g16c01-CUDA-11.7.0/g16/l508.exe)
 QCSCF skips out because SCF is already converged.
 Leave Link  508 at Fri May 23 02:18:05 2025, MaxMem=  3758096384 cpu:               0.1 elap:               0.0
 (Enter /apps/easybuild-2022/easybuild/software/Compiler/NVHPC/22.11-CUDA-11.7.0/Gaussian/g16c01-CUDA-11.7.0/g16/l701.exe)
 ... and contract with generalized density number  0.
 Compute integral first derivatives.
 R6Disp: Adding Grimme-D2 dispersion energy 1st derivatives to the gradient.
 Leave Link  701 at Fri May 23 02:18:05 2025, MaxMem=  3758096384 cpu:               0.5 elap:               0.1
 (Enter /apps/easybuild-2022/easybuild/software/Compiler/NVHPC/22.11-CUDA-11.7.0/Gaussian/g16c01-CUDA-11.7.0/g16/l702.exe)
 L702 exits ... SP integral derivatives will be done elsewhere.
 Leave Link  702 at Fri May 23 02:18:05 2025, MaxMem=  3758096384 cpu:               0.1 elap:               0.0
 (Enter /apps/easybuild-2022/easybuild/software/Compiler/NVHPC/22.11-CUDA-11.7.0/Gaussian/g16c01-CUDA-11.7.0/g16/l703.exe)
 Integral derivatives from FoFJK, PRISM(SPDF).
 Compute integral first derivatives, UseDBF=F ICtDFT=           0.
 Calling FoFJK, ICntrl=      2127 FMM=F ISym2X=0 I1Cent= 0 IOpClX= 1 NMat=1 NMatS=1 NMatT=0.
 FoFJK:  IHMeth= 1 ICntrl=    2127 DoSepK=T KAlg= 0 I1Cent=           0 FoldK=F
 IRaf=         1 NMat=       1 IRICut=       1 DoRegI=T DoRafI=F ISym2E= 0 IDoP0=0 IntGTp=1.
 FoFCou: FMM=F IPFlag=           0 FMFlag=      100000 FMFlg1=         800
         NFxFlg=           0 DoJE=F BraDBF=F KetDBF=F FulRan=T
         wScrn=  0.000000 ICntrl=      2527 IOpCl=  0 I1Cent=           0 NGrid=           0
         NMat0=    1 NMatS0=      1 NMatT0=    0 NMatD0=    1 NMtDS0=    0 NMtDT0=    0
 Symmetry not used in FoFCou.
 Leave Link  703 at Fri May 23 02:18:08 2025, MaxMem=  3758096384 cpu:              27.0 elap:               3.6
 (Enter /apps/easybuild-2022/easybuild/software/Compiler/NVHPC/22.11-CUDA-11.7.0/Gaussian/g16c01-CUDA-11.7.0/g16/l716.exe)
 Dipole        =-6.38619556D-02 7.72662481D-01 9.85333750D-01
 -------------------------------------------------------------------
 Center     Atomic                   Forces (Hartrees/Bohr)
 Number     Number              X              Y              Z
 -------------------------------------------------------------------
      1        6          -0.001059370   -0.001836549    0.000229253
      2        6           0.000744947    0.000827696    0.000575922
      3        9           0.000759344    0.000076554   -0.000622333
      4       16          -0.000018838   -0.000195435   -0.001149267
      5        8          -0.000074646   -0.001898315   -0.001227014
      6        8          -0.000159301    0.000405894    0.000583590
      7        8           0.001280167    0.000241839    0.005464988
      8        9           0.000233633    0.000177148   -0.000154328
      9        9           0.000521164    0.000906817   -0.000048678
     10        9           0.000024140   -0.000184902   -0.000112834
     11        1          -0.002251241    0.001479254   -0.003539299
 -------------------------------------------------------------------
 Cartesian Forces:  Max     0.005464988 RMS     0.001421629
 Leave Link  716 at Fri May 23 02:18:08 2025, MaxMem=  3758096384 cpu:               0.1 elap:               0.0
 (Enter /apps/easybuild-2022/easybuild/software/Compiler/NVHPC/22.11-CUDA-11.7.0/Gaussian/g16c01-CUDA-11.7.0/g16/l103.exe)

 GradGradGradGradGradGradGradGradGradGradGradGradGradGradGradGradGradGrad
 Berny optimization.
 Using GEDIIS/GDIIS optimizer.
 FormGI is forming the generalized inverse of G from B-inverse, IUseBI=4.
 Internal  Forces:  Max     0.002800470 RMS     0.001022080
 Search for a local minimum.
 Step number   2 out of a maximum of   51
 All quantities printed in internal units (Hartrees-Bohrs-Radians)
 RMS Force = .10221D-02 SwitMx=.10000D-02 MixMth= 1
 Mixed Optimization -- RFO/linear search
 Update second derivatives using D2CorX and points    1    2
 DE= -6.54D-03 DEPred=-8.53D-03 R= 7.67D-01
 TightC=F SS=  1.41D+00  RLast= 1.01D+00 DXNew= 5.0454D-01 3.0353D+00
 Trust test= 7.67D-01 RLast= 1.01D+00 DXMaxT set to 5.05D-01
 ITU=  1  0
 Use linear search instead of GDIIS.
     Eigenvalues ---    0.00035   0.00240   0.00263   0.00918   0.11421
     Eigenvalues ---    0.11718   0.13297   0.13592   0.14747   0.16683
     Eigenvalues ---    0.17130   0.20103   0.22158   0.23021   0.23497
     Eigenvalues ---    0.24522   0.26453   0.31391   0.35692   0.38742
     Eigenvalues ---    0.40865   0.41837   0.51734   0.53677   0.54933
     Eigenvalues ---    0.70292   1.00415
 RFO step:  Lambda=-5.93903193D-04 EMin= 3.49707992D-04
 Quartic linear search produced a step of  0.30496.
 Iteration  1 RMS(Cart)=  0.11172319 RMS(Int)=  0.01444580
 Iteration  2 RMS(Cart)=  0.01258316 RMS(Int)=  0.00031455
 Iteration  3 RMS(Cart)=  0.00027920 RMS(Int)=  0.00008336
 Iteration  4 RMS(Cart)=  0.00000013 RMS(Int)=  0.00008336
 ITry= 1 IFail=0 DXMaxC= 3.39D-01 DCOld= 1.00D+10 DXMaxT= 5.05D-01 DXLimC= 3.00D+00 Rises=F
 Variable       Old X    -DE/DX   Delta X   Delta X   Delta X     New X
                                 (Linear)    (Quad)   (Total)
[...]
    R6        3.35807   0.00000   0.00000  -0.00000  -0.00000   3.35807
    R7        2.69785   0.00000   0.00000   0.00000   0.00000   2.69785
    R8        2.71513   0.00000   0.00000   0.00000   0.00000   2.71513
    R9        3.04346   0.00000   0.00000  -0.00000  -0.00000   3.04346
   R10        1.82546   0.00000   0.00000   0.00000   0.00000   1.82546
    A1        1.93768   0.00000   0.00000  -0.00000  -0.00000   1.93768
    A2        1.94543  -0.00000   0.00000   0.00000   0.00000   1.94544
    A3        1.90396   0.00000   0.00000   0.00000   0.00000   1.90396
    A4        1.88952   0.00000   0.00000  -0.00000  -0.00000   1.88952
    A5        1.90140  -0.00000   0.00000  -0.00000  -0.00000   1.90140
    A6        1.88463  -0.00000   0.00000   0.00000   0.00000   1.88464
    A7        2.02250  -0.00000   0.00000   0.00000   0.00000   2.02251
    A8        2.17526   0.00000   0.00000   0.00000   0.00000   2.17526
    A9        1.99903  -0.00000   0.00000   0.00000   0.00000   1.99903
   A10        1.86824   0.00000   0.00000   0.00000   0.00000   1.86825
   A11        1.87247   0.00000   0.00000   0.00000   0.00000   1.87247
   A12        1.76633  -0.00000   0.00000  -0.00000  -0.00000   1.76632
   A13        2.16482  -0.00000   0.00000  -0.00000  -0.00000   2.16482
   A14        1.87203   0.00000   0.00000   0.00000   0.00000   1.87203
   A15        1.87998  -0.00000   0.00000  -0.00000  -0.00000   1.87998
   A16        1.91721   0.00000   0.00000   0.00000   0.00000   1.91721
    D1        2.59580  -0.00000   0.00000  -0.00004  -0.00004   2.59576
    D2       -1.00578  -0.00000   0.00000  -0.00002  -0.00002  -1.00579
    D3       -1.57929  -0.00000   0.00000  -0.00004  -0.00004  -1.57933
    D4        1.10232   0.00000   0.00000  -0.00002  -0.00002   1.10230
    D5        0.50027  -0.00000   0.00000  -0.00003  -0.00003   0.50023
    D6       -3.10131  -0.00000   0.00000  -0.00001  -0.00001  -3.10132
    D7        0.35110  -0.00000   0.00000  -0.00003  -0.00003   0.35106
    D8        2.70924   0.00000   0.00000  -0.00003  -0.00003   2.70920
    D9       -1.60633  -0.00000   0.00000  -0.00004  -0.00004  -1.60637
   D10        3.03814   0.00000   0.00000  -0.00001  -0.00001   3.03813
   D11       -0.88690   0.00000   0.00000  -0.00001  -0.00001  -0.88691
   D12        1.08072  -0.00000   0.00000  -0.00002  -0.00002   1.08070
   D13       -1.72842   0.00000   0.00000   0.00001   0.00001  -1.72841
   D14        2.60022  -0.00000   0.00000   0.00000   0.00000   2.60023
   D15        0.23351   0.00000   0.00000   0.00001   0.00001   0.23351
         Item               Value     Threshold  Converged?
 Maximum Force            0.000001     0.000015     YES
 RMS     Force            0.000000     0.000010     YES
 Maximum Displacement     0.000057     0.000060     YES
 RMS     Displacement     0.000026     0.000040     YES
 Predicted change in Energy=-2.178441D-11
 Optimization completed.
    -- Stationary point found.
                           ----------------------------
                           !   Optimized Parameters   !
                           ! (Angstroms and Degrees)  !
 --------------------------                            --------------------------
 ! Name  Definition              Value          Derivative Info.                !
 --------------------------------------------------------------------------------
 ! R1    R(1,2)                  1.5127         -DE/DX =    0.0                 !
 ! R2    R(1,8)                  1.3267         -DE/DX =    0.0                 !
 ! R3    R(1,9)                  1.3393         -DE/DX =    0.0                 !
 ! R4    R(1,10)                 1.3324         -DE/DX =    0.0                 !
 ! R5    R(2,3)                  1.3139         -DE/DX =    0.0                 !
 ! R6    R(2,4)                  1.777          -DE/DX =    0.0                 !
 ! R7    R(4,5)                  1.4276         -DE/DX =    0.0                 !
 ! R8    R(4,6)                  1.4368         -DE/DX =    0.0                 !
 ! R9    R(4,7)                  1.6105         -DE/DX =    0.0                 !
 ! R10   R(7,11)                 0.966          -DE/DX =    0.0                 !
 ! A1    A(2,1,8)              111.0211         -DE/DX =    0.0                 !
 ! A2    A(2,1,9)              111.4652         -DE/DX =    0.0                 !
 ! A3    A(2,1,10)             109.0891         -DE/DX =    0.0                 !
 ! A4    A(8,1,9)              108.2613         -DE/DX =    0.0                 !
 ! A5    A(8,1,10)             108.9423         -DE/DX =    0.0                 !
 ! A6    A(9,1,10)             107.9816         -DE/DX =    0.0                 !
 ! A7    A(1,2,3)              115.881          -DE/DX =    0.0                 !
 ! A8    A(1,2,4)              124.6332         -DE/DX =    0.0                 !
 ! A9    A(3,2,4)              114.5359         -DE/DX =    0.0                 !
 ! A10   A(2,4,5)              107.0425         -DE/DX =    0.0                 !
 ! A11   A(2,4,6)              107.2845         -DE/DX =    0.0                 !
 ! A12   A(2,4,7)              101.2031         -DE/DX =    0.0                 !
 ! A13   A(5,4,6)              124.0352         -DE/DX =    0.0                 !
 ! A14   A(5,4,7)              107.2594         -DE/DX =    0.0                 !
 ! A15   A(6,4,7)              107.7148         -DE/DX =    0.0                 !
 ! A16   A(4,7,11)             109.8479         -DE/DX =    0.0                 !
 ! D1    D(8,1,2,3)            148.7283         -DE/DX =    0.0                 !
 ! D2    D(8,1,2,4)            -57.6268         -DE/DX =    0.0                 !
 ! D3    D(9,1,2,3)            -90.4869         -DE/DX =    0.0                 !
 ! D4    D(9,1,2,4)             63.158          -DE/DX =    0.0                 !
 ! D5    D(10,1,2,3)            28.6632         -DE/DX =    0.0                 !
 ! D6    D(10,1,2,4)          -177.6919         -DE/DX =    0.0                 !
 ! D7    D(1,2,4,5)             20.1163         -DE/DX =    0.0                 !
 ! D8    D(1,2,4,6)            155.2278         -DE/DX =    0.0                 !
 ! D9    D(1,2,4,7)            -92.0359         -DE/DX =    0.0                 !
 ! D10   D(3,2,4,5)            174.0728         -DE/DX =    0.0                 !
 ! D11   D(3,2,4,6)            -50.8158         -DE/DX =    0.0                 !
 ! D12   D(3,2,4,7)             61.9206         -DE/DX =    0.0                 !
 ! D13   D(2,4,7,11)           -99.031          -DE/DX =    0.0                 !
 ! D14   D(5,4,7,11)           148.9819         -DE/DX =    0.0                 !
 ! D15   D(6,4,7,11)            13.3789         -DE/DX =    0.0                 !
 --------------------------------------------------------------------------------
 GradGradGradGradGradGradGradGradGradGradGradGradGradGradGradGradGradGrad

 Leave Link  103 at Fri May 23 02:22:49 2025, MaxMem=  3758096384 cpu:               0.1 elap:               0.0
 (Enter /apps/easybuild-2022/easybuild/software/Compiler/NVHPC/22.11-CUDA-11.7.0/Gaussian/g16c01-CUDA-11.7.0/g16/l9999.exe)

 ----------------------------------------------------------------------

 Electric dipole moment (input orientation):
 (Debye = 10**-18 statcoulomb cm , SI units = C m)
                  (au)            (Debye)         (10**-30 SI)
   Tot        0.109779D+01      0.279030D+01      0.930744D+01
   x         -0.283495D+00     -0.720573D+00     -0.240357D+01
   y          0.822363D+00      0.209024D+01      0.697228D+01
   z          0.669694D+00      0.170219D+01      0.567790D+01

 Dipole polarizability, Alpha (input orientation).
 (esu units = cm**3 , SI units = C**2 m**2 J**-1)
 Alpha(0;0):
               (au)            (10**-24 esu)      (10**-40 SI)
   iso        0.536161D+02      0.794509D+01      0.884011D+01
   aniso      0.997994D+01      0.147887D+01      0.164547D+01
   xx         0.550225D+02      0.815349D+01      0.907198D+01
   yx        -0.471167D+01     -0.698198D+00     -0.776850D+00
   yy         0.505601D+02      0.749224D+01      0.833624D+01
   zx         0.180117D+01      0.266905D+00      0.296972D+00
   zy        -0.858195D+00     -0.127171D+00     -0.141497D+00
   zz         0.552658D+02      0.818955D+01      0.911210D+01

 ----------------------------------------------------------------------

 Dipole orientation:
     6          6.95882615         -3.24858927         -0.90531858
     6          4.46500936         -2.47271263          0.25683610
     9          4.04028118         -3.29551070          2.56061180
    16          2.74994607          0.29197395         -0.57484816
     8          3.62633540          1.06449231         -3.00662365
     8          0.14189957         -0.16534624          0.02589209
     8          3.83033963          2.28982726          1.45097676
     9          6.75514268         -3.49158605         -3.39228053
     9          8.77403579         -1.55303004         -0.42018937
     9          7.67351953         -5.45459667          0.07563903
     1          2.66269783          2.45215125          2.84473359

 Electric dipole moment (dipole orientation):
 (Debye = 10**-18 statcoulomb cm , SI units = C m)
                  (au)            (Debye)         (10**-30 SI)
   Tot        0.109779D+01      0.279030D+01      0.930744D+01
   x          0.000000D+00      0.000000D+00      0.000000D+00
   y          0.000000D+00      0.000000D+00      0.000000D+00
   z          0.109779D+01      0.279030D+01      0.930744D+01

 Dipole polarizability, Alpha (dipole orientation).
 (esu units = cm**3 , SI units = C**2 m**2 J**-1)
 Alpha(0;0):
               (au)            (10**-24 esu)      (10**-40 SI)
   iso        0.536161D+02      0.794509D+01      0.884011D+01
   aniso      0.997994D+01      0.147887D+01      0.164547D+01
   xx         0.547274D+02      0.810976D+01      0.902333D+01
   yx        -0.471134D+01     -0.698149D+00     -0.776795D+00
   yy         0.530410D+02      0.785986D+01      0.874528D+01
   zx        -0.289624D+01     -0.429178D+00     -0.477525D+00
   zy        -0.129932D+01     -0.192539D+00     -0.214229D+00
   zz         0.530800D+02      0.786565D+01      0.875171D+01

 ----------------------------------------------------------------------
 Unable to Open any file for archive entry.
 1\1\GINC-SPARTAN-BM169\Freq\UwB97XD\6-311++G(d,p)\C2H1F4O3S1\AKHALILOV
 \23-May-2025\0\\#P Geom=AllCheck Guess=TCheck SCRF=Check GenChk UwB97X
 D/6-311++G(d,p) Freq\\Gaussian input prepared by ASE\\0,2\C,3.44708671
 96,-1.0363313629,1.94648674\C,2.0725942454,-0.4667290767,1.6732915533\
 F,1.4900076376,0.1358583302,2.6851184032\S,1.4920537344,0.0476261705,0
 .0744825729\O,2.3180442375,-0.5943174196,-0.8970114684\O,0.0579283374,
 -0.0377148765,0.0932949275\O,1.8902797396,1.608114847,0.0841279343\F,3
 .6681740645,-2.1189113656,1.2121406774\F,4.4093787483,-0.144082355,1.6
 790161066\F,3.5353043101,-1.3625210447,3.2353110199\H,1.1178396998,2.1
 423332972,0.3101468307\\Version=ES64L-G16RevC.01\HF=-1099.9160907\S2=0
 .754578\S2-1=0.\S2A=0.750015\RMSD=2.956e-09\RMSF=1.332e-06\ZeroPoint=0
 .047075\Thermal=0.0569484\ETot=-1099.8591423\HTot=-1099.8581981\GTot=-
 1099.9065637\Dipole=-0.2834952,0.8223626,0.6696941\DipoleDeriv=1.73735
 64,-0.050738,0.2694284,0.0063383,1.7576694,-0.1395678,-0.0198897,-0.01
 57886,1.6530665,0.0349464,-0.1353013,-0.3708905,-0.1779377,0.0064053,0
 .3299706,-0.2453453,0.2194842,0.6571482,-0.3033148,0.1833928,0.2286738
 ,0.2298683,-0.2126844,-0.3211332,0.1862715,-0.1542502,-0.8348052,2.214
 6715,-0.0083244,-0.0222011,-0.0897167,2.3070597,0.0419297,0.0957735,0.
 0073461,1.9996573,-0.6959482,0.1616255,0.2216661,0.1032327,-0.5991051,
 -0.1502909,0.1238613,-0.1450997,-0.9148339,-1.2143458,-0.0582208,-0.14
 61606,0.0600732,-0.6092555,0.0240197,-0.0533722,0.0270723,-0.600844,-0
 .4664385,-0.0243147,-0.0491454,-0.0079158,-1.4246657,0.1678158,-0.0785
 574,-0.008643,-0.5711868,-0.38185,0.1845339,0.0360573,0.1145341,-0.730
 3359,-0.2484023,0.032341,-0.2456959,-0.4248625,-0.7996862,-0.2481881,-
 0.0137685,-0.254517,-0.5485996,0.0783599,0.0501341,0.0810596,-0.302892
 1,-0.3879027,0.0878462,-0.1925122,0.0545004,-0.354727,0.2297728,-0.119
 0653,0.2181762,-0.9815131,0.2625118,-0.0923112,0.0388527,-0.0384599,0.
 408239,-0.0124745,0.0278484,0.016339,0.3210655\Polar=55.0224593,-4.711
 674,50.5601376,1.8011674,-0.8581947,55.265813\PG=Unknown\NImag=0\\0.54
 923511,-0.04900680,0.51591720,0.01310970,0.00884945,0.54223271,-0.1658
 2609,0.04705139,-0.04463122,0.41620791,0.07170525,-0.06541530,0.021756
 82,-0.19833171,0.24179129,-0.00754930,-0.00313050,-0.06621354,-0.02893
 380,0.08786672,0.51408503,-0.00494110,0.01744707,0.03678122,-0.1167291
 9,0.09263591,0.10429011,0.13070816,-0.00297588,-0.00382740,-0.02093282
 ,0.09690799,-0.10358598,-0.13148227,-0.10858405,0.10612982,-0.00478993
 ,-0.00114919,-0.01588414,0.11675561,-0.12899914,-0.26890074,-0.1373830
 9,0.14438421,0.30698696,0.00102003,0.01138523,-0.03059810,-0.06467147,
 0.01053590,-0.04786020,-0.00443689,0.00716635,0.03159298,1.07110280,0.
 00831693,0.00927084,0.01246691,0.02545556,-0.04320077,0.05213855,0.001
 58863,-0.00589997,-0.03297928,-0.14026715,0.57189081,-0.03383561,0.022
 62156,0.01261402,-0.03120397,0.00629074,-0.14589614,-0.00081237,0.0092
 1033,-0.02111604,-0.20752610,0.14995569,0.68101346,-0.00605743,0.00217
 303,0.00944252,0.00557496,0.00082611,-0.00085199,0.00236271,-0.0001412
 4,-0.00125630,-0.28270845,0.15194102,0.22600267,0.27673094,0.00166353,
 -0.00665368,-0.00531031,0.00075265,0.00472735,0.00005589,0.00025869,0.
 00209156,0.00080559,0.15182650,-0.18848385,-0.17061844,-0.16757149,0.1
 9455039,0.00956336,-0.00472481,-0.00148317,0.01872317,-0.01479303,-0.0
 0624478,-0.00030057,-0.00015135,-0.01527458,0.23882562,-0.17716885,-0.
 37002846,-0.25746973,0.20221046,0.37066416,0.00683090,-0.00510592,-0.0
 0083584,-0.02436618,0.00639375,0.00914775,0.00446114,-0.00412210,-0.00
 787485,-0.63555986,-0.02642924,0.01180431,-0.00906802,-0.00726351,-0.0
 0651682,0.67977232,-0.00247815,-0.00019990,-0.00026447,0.00782668,0.00
 446610,-0.00049169,-0.00145489,0.00198773,0.00427604,-0.02288891,-0.08
 795327,0.00001199,0.01795503,0.01364779,-0.00610351,0.04230533,0.06803
 683,0.00826328,-0.00378152,-0.00615120,-0.02478465,0.00342371,0.003353
 39,-0.00097911,0.00083218,0.00179943,-0.00518429,-0.00198487,-0.088645
 10,0.03084909,-0.00350976,0.01519292,-0.00225776,0.00220055,0.05870569
 ,-0.00048555,-0.00286264,0.00230469,0.00655200,0.00801137,-0.00294147,
 0.00116080,-0.00132728,-0.00329124,-0.09623429,-0.00718826,0.00915440,
 0.00810000,0.02641264,0.00933775,-0.01103263,-0.04305155,0.00069546,0.
 44385082,-0.01372824,-0.00063964,-0.00095927,0.00644156,-0.02380442,-0
 .00809649,-0.00393706,0.00707420,0.00954785,-0.04742878,-0.21488733,0.
 00317468,-0.00194090,-0.02040975,-0.00316407,-0.00976171,-0.00870786,-
 0.00092526,-0.17099127,0.43224305,0.00598552,-0.00359705,-0.00239534,-
 0.00335538,0.01916200,-0.00172687,-0.00063505,-0.00061152,0.00286048,0
 .00887400,0.00366548,-0.06095452,0.00124465,-0.02511823,0.00696517,0.0
 0112740,-0.00179425,0.01635607,-0.11083407,0.06366961,0.06697376,-0.09
 386578,0.05497120,0.02613745,-0.00659168,0.02439152,0.01768686,-0.0068
 6096,0.00726410,0.00180469,-0.00015805,-0.00187686,0.00492841,0.000355
 60,0.00091286,-0.00316631,-0.00087399,0.00048851,-0.00130555,0.0000625
 7,0.00201915,-0.00091505,0.08411740,0.05036565,-0.22184724,-0.08664391
 ,0.01235254,-0.01837157,-0.02008289,0.00657137,-0.00541597,0.00058420,
 -0.00017100,-0.00352722,-0.00743398,-0.00061454,0.00165325,0.00362942,
 0.00139339,0.00027651,0.00171677,0.00039371,-0.00046704,0.00176514,-0.
 04423628,0.30747354,0.02355206,-0.09043995,-0.12933311,0.00747355,-0.0
 0905587,0.00330953,0.00013384,-0.00080386,0.00169672,0.00375734,-0.004
 70686,-0.00864674,-0.00457278,0.00475284,0.00046774,0.00003672,0.00037
 703,0.00187753,-0.00008002,0.00009892,0.00169605,-0.03430498,0.1570259
 2,0.18809205,-0.19894004,-0.09156690,0.02332837,-0.04354403,-0.0269370
 9,-0.00507788,-0.00525930,0.00568099,0.00560936,0.00061804,-0.00561080
 ,0.01473568,0.00178043,-0.00022007,-0.00413285,-0.00200146,0.00157977,
 -0.00283501,-0.00021845,0.00518039,-0.00192839,0.00964402,-0.02506818,
 -0.00698718,0.23408045,-0.07931000,-0.13503367,0.01783881,-0.00553262,
 0.00485516,-0.00072724,-0.00315804,0.00117442,0.00133924,-0.00216016,-
 0.00529963,0.00205739,0.00045249,0.00143006,-0.00063357,-0.00011312,0.
 00094549,-0.00077354,0.00105890,0.00224425,0.00029302,-0.04124611,-0.0
 6933557,-0.01427354,0.15460538,0.21679155,0.02111766,0.01910312,-0.077
 73286,0.00195375,-0.00017557,0.00935272,-0.00268682,0.00034865,0.00164
 867,0.00357552,0.00028731,-0.00348349,-0.00219807,0.00016950,0.0003846
 7,-0.00008492,-0.00020348,0.00106115,-0.00054987,-0.00009265,0.0002847
 5,-0.01416262,-0.02304981,0.01057129,-0.04777681,-0.04177017,0.0919051
 2,-0.08600288,0.01502005,-0.03482472,-0.00664053,0.01236037,-0.0378367
 7,-0.00016336,0.00004309,-0.00205374,-0.00296677,-0.00056409,0.0085219
 5,0.00154464,-0.00062276,-0.00199139,-0.00241654,0.00044455,-0.0025759
 2,0.00033041,0.00307617,-0.00138278,0.01401251,-0.00081959,0.01099860,
 0.00348943,-0.02460645,0.04085155,0.07860210,0.01454606,-0.09072694,0.
 05297868,0.00809506,0.00000239,0.02288349,-0.00097119,-0.00002251,0.00
 161591,0.00067362,-0.00017166,-0.00503842,-0.00060002,0.00075242,0.001
 07613,0.00201992,-0.00018830,0.00157414,0.00008232,-0.00083294,0.00061
 049,-0.00244328,0.00925834,-0.04304206,-0.01727598,-0.01795182,0.04551
 864,-0.00400771,0.09959146,-0.03622882,0.05646768,-0.25588289,-0.01069
 124,0.00955357,-0.04295056,0.00029091,0.00121946,0.00847163,0.00226638
 ,-0.00248629,0.00602002,-0.00088643,0.00060415,-0.00119320,-0.00386690
 ,0.00065270,-0.00165890,-0.00040623,0.00335652,-0.00067566,0.00329277,
 -0.02739559,-0.06967071,0.02542704,0.03675367,-0.03392788,0.02048200,-
 0.07824053,0.39187175,-0.00096718,0.00049428,-0.00021408,0.00003431,-0
 .00159137,-0.00007330,-0.00030200,0.00008804,0.00088652,0.01399490,-0.
 00536573,-0.00176938,0.00138462,-0.00614905,-0.00287224,-0.00574568,-0
 .00072637,0.00011445,-0.35208568,0.23107069,0.10181915,0.00015835,-0.0
 0016708,-0.00000714,0.00035089,0.00000974,-0.00003937,0.00021100,-0.00
 011880,0.00032052,0.34296646,0.00090165,-0.00084427,0.00022013,-0.0010
 1910,-0.00146425,0.00106643,-0.00039643,0.00029408,0.00057458,0.031328
 41,-0.03173796,-0.01023156,-0.00247949,-0.00330553,-0.00017683,0.00068
 320,0.00768888,0.00122760,0.18946207,-0.17181254,-0.05804469,-0.000244
 82,0.00030297,0.00006743,-0.00036752,0.00017974,-0.00013556,-0.0003236
 3,0.00028956,-0.00048535,-0.21754434,0.20040933,0.00081207,-0.00021880
 ,0.00022951,-0.00130583,0.00497005,0.00183197,0.00130092,-0.00201302,-
 0.00228839,0.00227685,0.00081219,-0.00087701,-0.00030362,-0.00404169,0
 .00054953,-0.00067909,0.00133909,-0.00189098,0.09661059,-0.06660985,-0
 .02938388,0.00000434,-0.00011526,-0.00006032,-0.00036232,-0.00010406,-
 0.00006414,-0.00018878,0.00006352,-0.00040359,-0.09816513,0.06591782,0
 .03235729\\0.00000022,0.00000098,0.00000118,-0.00000041,-0.00000066,0.
 00000009,-0.00000110,-0.00000052,-0.00000079,-0.00000040,-0.00000073,-
 0.00000097,0.00000192,-0.00000025,0.00000085,0.00000060,-0.00000307,-0
 .00000117,-0.00000111,-0.00000052,-0.00000103,0.00000203,0.00000179,0.
 00000134,0.00000009,0.00000293,0.00000116,-0.00000005,0.00000200,0.000
 00096,-0.00000180,-0.00000195,-0.00000161\\\@
 The archive entry for this job was punched.


 EVERYBODY NEEDS BEAUTY AS WELL AS BREAD, PLACES TO PLAY IN AND PRAY IN,
 WHERE NATURE MAY HEAL AND CHEER AND GIVE STRENGTH TO BODY AND SOUL ALIKE.

                                    -- JOHN MUIR
 Job cpu time:       0 days  0 hours 10 minutes 55.5 seconds.
 Elapsed time:       0 days  0 hours  1 minutes 25.8 seconds.
 File lengths (MBytes):  RWF=    147 Int=      0 D2E=      0 Chk=      6 Scr=      1
 Normal termination of Gaussian 16 at Fri May 23 02:22:49 2025.
done
