10
energy = -1123.9349337600001
C -0.72130900 0.30174500 1.33762000
C -0.08736200 -0.08333900 -0.02529000
F -0.39609700 -1.33061100 -0.34732700
F -0.50548900 0.74721600 -0.97125400
S 1.85531200 0.07389500 0.00592600
O 2.28791500 -0.70675300 1.16144300
O 2.25027300 -0.26387400 -1.35741600
F -0.48131800 -0.62375700 2.24847800
F -0.21522600 1.46566100 1.74336600
F -2.03511300 0.43356800 1.18862500
