 Entering Gaussian System, Link 0=g16
 Initial command:
 /apps/easybuild-2022/easybuild/software/Compiler/NVHPC/22.11-CUDA-11.7.0/Gaussian/g16c01-CUDA-11.7.0/g16/l1.exe "/tmp/Gau-160655.inp" -scrdir="/tmp/"
 Entering Link 1 = /apps/easybuild-2022/easybuild/software/Compiler/NVHPC/22.11-CUDA-11.7.0/Gaussian/g16c01-CUDA-11.7.0/g16/l1.exe PID=    160656.
  
 Copyright (c) 1988-2019, Gaussian, Inc.  All Rights Reserved.
  
 This is part of the Gaussian(R) 16 program.  It is based on
 the Gaussian(R) 09 system (copyright 2009, Gaussian, Inc.),
 the Gaussian(R) 03 system (copyright 2003, Gaussian, Inc.),
 the Gaussian(R) 98 system (copyright 1998, Gaussian, Inc.),
 the Gaussian(R) 94 system (copyright 1995, Gaussian, Inc.),
 the Gaussian 92(TM) system (copyright 1992, Gaussian, Inc.),
 the Gaussian 90(TM) system (copyright 1990, Gaussian, Inc.),
 the Gaussian 88(TM) system (copyright 1988, Gaussian, Inc.),
 the Gaussian 86(TM) system (copyright 1986, Carnegie Mellon
 University), and the Gaussian 82(TM) system (copyright 1983,
 Carnegie Mellon University). Gaussian is a federally registered
 trademark of Gaussian, Inc.
  
 This software contains proprietary and confidential information,
 including trade secrets, belonging to Gaussian, Inc.
  
 This software is provided under written license and may be
 used, copied, transmitted, or stored only in accord with that
 written license.
  
 The following legend is applicable only to US Government
 contracts under FAR:
  
                    RESTRICTED RIGHTS LEGEND
  
 Use, reproduction and disclosure by the US Government is
 subject to restrictions as set forth in subparagraphs (a)
 and (c) of the Commercial Computer Software - Restricted
 Rights clause in FAR 52.227-19.
  
 Gaussian, Inc.
 340 Quinnipiac St., Bldg. 40, Wallingford CT 06492
  
  
 ---------------------------------------------------------------
 Warning -- This program may not be used in any manner that
 competes with the business of Gaussian, Inc. or will provide
 assistance to any competitor of Gaussian, Inc.  The licensee
 of this program is prohibited from giving any competitor of
 Gaussian, Inc. access to this program.  By using this program,
 the user acknowledges that Gaussian, Inc. is engaged in the
 business of creating and licensing software in the field of
 computational chemistry and represents and warrants to the
 licensee that it is not a competitor of Gaussian, Inc. and that
 it will not use this program in any manner prohibited above.
 ---------------------------------------------------------------
  

 Cite this work as:
 Gaussian 16, Revision C.01,
 M. J. Frisch, G. W. Trucks, H. B. Schlegel, G. E. Scuseria, 
 M. A. Robb, J. R. Cheeseman, G. Scalmani, V. Barone, 
 G. A. Petersson, H. Nakatsuji, X. Li, M. Caricato, A. V. Marenich, 
 J. Bloino, B. G. Janesko, R. Gomperts, B. Mennucci, H. P. Hratchian, 
 J. V. Ortiz, A. F. Izmaylov, J. L. Sonnenberg, D. Williams-Young, 
 F. Ding, F. Lipparini, F. Egidi, J. Goings, B. Peng, A. Petrone, 
 T. Henderson, D. Ranasinghe, V. G. Zakrzewski, J. Gao, N. Rega, 
 G. Zheng, W. Liang, M. Hada, M. Ehara, K. Toyota, R. Fukuda, 
 J. Hasegawa, M. Ishida, T. Nakajima, Y. Honda, O. Kitao, H. Nakai, 
 T. Vreven, K. Throssell, J. A. Montgomery, Jr., J. E. Peralta, 
 F. Ogliaro, M. J. Bearpark, J. J. Heyd, E. N. Brothers, K. N. Kudin, 
 V. N. Staroverov, T. A. Keith, R. Kobayashi, J. Normand, 
 K. Raghavachari, A. P. Rendell, J. C. Burant, S. S. Iyengar, 
 J. Tomasi, M. Cossi, J. M. Millam, M. Klene, C. Adamo, R. Cammi, 
 J. W. Ochterski, R. L. Martin, K. Morokuma, O. Farkas, 
 J. B. Foresman, and D. J. Fox, Gaussian, Inc., Wallingford CT, 2019.
 
 ******************************************
 Gaussian 16:  ES64L-G16RevC.01  3-Jul-2019
                23-May-2025 
 ******************************************
 %mem=28GB
 %nprocshared=8
 Will use up to    8 processors via shared memory.
 ----------------------------------------------------------------------
 #P wb97xd/6-311++G(d,p) Symm(None) scf(xqc) pop(None) freq opt(CalcFC,
  Tight)
 ----------------------------------------------------------------------
 1/7=10,10=4,18=20,19=15,26=3,38=1/1,3;
 2/9=110,12=2,15=3,17=6,18=5,40=1/2;
 3/5=4,6=6,7=1111,11=2,25=1,30=1,71=2,74=-58,140=1/1,2,3;
 4//1;
 5/5=2,8=3,13=1,38=5/2,8;
 8/6=4,10=90,11=11/1;
 11/6=1,8=1,9=11,15=111,16=1,31=1/1,2,10;
 10/6=1,13=1,31=1/2;
 7/10=1,25=1,30=1/1,2,3,16;
 1/7=10,10=4,18=20,19=15,26=3/3(2);
 2/9=110,15=3/2;
 99//99;
 2/9=110,15=3/2;
 3/5=4,6=6,7=1111,11=2,25=1,30=1,71=1,74=-58/1,2,3;
 4/5=5,16=3,69=1/1;
 5/5=2,8=3,13=1,38=5/2,8;
 7/30=1/1,2,3,16;
 1/7=10,18=20,19=15,26=3/3(-5);
 2/9=110,15=3/2;
 99/9=1/99;
 Leave Link    1 at Fri May 23 02:18:11 2025, MaxMem=  3758096384 cpu:               0.0 elap:               0.0
 (Enter /apps/easybuild-2022/easybuild/software/Compiler/NVHPC/22.11-CUDA-11.7.0/Gaussian/g16c01-CUDA-11.7.0/g16/l101.exe)
 ------------------------------
 Gaussian input prepared by ASE
 ------------------------------
 Symbolic Z-matrix:
 Charge =  0 Multiplicity = 1
 C                    -0.65668   0.66993  -1.23656 
 C                     0.        0.        0. 
 F                    -0.32287   0.71381   1.09047 
 F                    -0.44899  -1.24125   0.14141 
 S                     1.90444   0.        0. 
 O                     2.26115  -0.50597  -1.32287 
 O                     1.90658   1.66073   0. 
 F                     0.0343    1.77093  -1.55649 
 F                    -0.67869  -0.14241  -2.2791 
 F                    -1.90545   1.02698  -0.95012 
 H                     1.23837   1.97657   0.61719 
 
 ITRead=  0  0  0  0  0  0  0  0  0  0  0
 MicOpt= -1 -1 -1 -1 -1 -1 -1 -1 -1 -1 -1
 NAtoms=     11 NQM=       11 NQMF=       0 NMMI=      0 NMMIF=      0
                NMic=       0 NMicF=      0.
                    Isotopes and Nuclear Properties:
 (Nuclear quadrupole moments (NQMom) in fm**2, nuclear magnetic moments (NMagM)
  in nuclear magnetons)

  Atom         1           2           3           4           5           6           7           8           9          10
 IAtWgt=          12          12          19          19          32          16          16          19          19          19
 AtmWgt=  12.0000000  12.0000000  18.9984032  18.9984032  31.9720718  15.9949146  15.9949146  18.9984032  18.9984032  18.9984032
 NucSpn=           0           0           1           1           0           0           0           1           1           1
 AtZEff=  -0.0000000  -0.0000000  -0.0000000  -0.0000000  -0.0000000  -0.0000000  -0.0000000  -0.0000000  -0.0000000  -0.0000000
 NQMom=    0.0000000   0.0000000   0.0000000   0.0000000   0.0000000   0.0000000   0.0000000   0.0000000   0.0000000   0.0000000
 NMagM=    0.0000000   0.0000000   2.6288670   2.6288670   0.0000000   0.0000000   0.0000000   2.6288670   2.6288670   2.6288670
 AtZNuc=   6.0000000   6.0000000   9.0000000   9.0000000  16.0000000   8.0000000   8.0000000   9.0000000   9.0000000   9.0000000

  Atom        11
 IAtWgt=           1
 AtmWgt=   1.0078250
 NucSpn=           1
 AtZEff=  -0.0000000
 NQMom=    0.0000000
 NMagM=    2.7928460
 AtZNuc=   1.0000000
 Leave Link  101 at Fri May 23 02:18:11 2025, MaxMem=  3758096384 cpu:               0.2 elap:               0.2
 (Enter /apps/easybuild-2022/easybuild/software/Compiler/NVHPC/22.11-CUDA-11.7.0/Gaussian/g16c01-CUDA-11.7.0/g16/l103.exe)

 GradGradGradGradGradGradGradGradGradGradGradGradGradGradGradGradGradGrad
 Berny optimization.
 Initialization pass.
                           ----------------------------
                           !    Initial Parameters    !
                           ! (Angstroms and Degrees)  !
 --------------------------                            --------------------------
 ! Name  Definition              Value          Derivative Info.                !
 --------------------------------------------------------------------------------
 ! R1    R(1,2)                  1.5521         calculate D2E/DX2 analytically  !
 ! R2    R(1,8)                  1.3387         calculate D2E/DX2 analytically  !
 ! R3    R(1,9)                  1.3218         calculate D2E/DX2 analytically  !
 ! R4    R(1,10)                 1.33           calculate D2E/DX2 analytically  !
 ! R5    R(2,3)                  1.3427         calculate D2E/DX2 analytically  !
 ! R6    R(2,4)                  1.3275         calculate D2E/DX2 analytically  !
 ! R7    R(2,5)                  1.9044         calculate D2E/DX2 analytically  !
 ! R8    R(5,6)                  1.4606         calculate D2E/DX2 analytically  !
 ! R9    R(5,7)                  1.6607         calculate D2E/DX2 analytically  !
 ! R10   R(7,11)                 0.9629         calculate D2E/DX2 analytically  !
 ! A1    A(2,1,8)              109.0878         calculate D2E/DX2 analytically  !
 ! A2    A(2,1,9)              111.7244         calculate D2E/DX2 analytically  !
 ! A3    A(2,1,10)             109.97           calculate D2E/DX2 analytically  !
 ! A4    A(8,1,9)              108.9987         calculate D2E/DX2 analytically  !
 ! A5    A(8,1,10)             108.3797         calculate D2E/DX2 analytically  !
 ! A6    A(9,1,10)             108.6143         calculate D2E/DX2 analytically  !
 ! A7    A(1,2,3)              108.4106         calculate D2E/DX2 analytically  !
 ! A8    A(1,2,4)              110.2028         calculate D2E/DX2 analytically  !
 ! A9    A(1,2,5)              115.0292         calculate D2E/DX2 analytically  !
 ! A10   A(3,2,4)              109.2223         calculate D2E/DX2 analytically  !
 ! A11   A(3,2,5)              103.9139         calculate D2E/DX2 analytically  !
 ! A12   A(4,2,5)              109.7682         calculate D2E/DX2 analytically  !
 ! A13   A(2,5,6)              104.1362         calculate D2E/DX2 analytically  !
 ! A14   A(2,5,7)               90.0739         calculate D2E/DX2 analytically  !
 ! A15   A(6,5,7)              110.2493         calculate D2E/DX2 analytically  !
 ! A16   A(5,7,11)             109.0935         calculate D2E/DX2 analytically  !
 ! D1    D(8,1,2,3)             75.6454         calculate D2E/DX2 analytically  !
 ! D2    D(8,1,2,4)           -164.8674         calculate D2E/DX2 analytically  !
 ! D3    D(8,1,2,5)            -40.1477         calculate D2E/DX2 analytically  !
 ! D4    D(9,1,2,3)           -163.7771         calculate D2E/DX2 analytically  !
 ! D5    D(9,1,2,4)            -44.2899         calculate D2E/DX2 analytically  !
 ! D6    D(9,1,2,5)             80.4297         calculate D2E/DX2 analytically  !
 ! D7    D(10,1,2,3)           -43.0889         calculate D2E/DX2 analytically  !
 ! D8    D(10,1,2,4)            76.3983         calculate D2E/DX2 analytically  !
 ! D9    D(10,1,2,5)          -158.882          calculate D2E/DX2 analytically  !
 ! D10   D(1,2,5,6)            -49.3782         calculate D2E/DX2 analytically  !
 ! D11   D(1,2,5,7)             61.5525         calculate D2E/DX2 analytically  !
 ! D12   D(3,2,5,6)           -167.7224         calculate D2E/DX2 analytically  !
 ! D13   D(3,2,5,7)            -56.7916         calculate D2E/DX2 analytically  !
 ! D14   D(4,2,5,6)             75.5686         calculate D2E/DX2 analytically  !
 ! D15   D(4,2,5,7)           -173.5007         calculate D2E/DX2 analytically  !
 ! D16   D(2,5,7,11)            42.7092         calculate D2E/DX2 analytically  !
 ! D17   D(6,5,7,11)           147.8263         calculate D2E/DX2 analytically  !
 --------------------------------------------------------------------------------
 Trust Radius=3.00D-01 FncErr=1.00D-07 GrdErr=1.00D-06 EigMax=2.50D+02 EigMin=1.00D-04
 Number of steps in this run=     53 maximum allowed number of steps=    100.
 GradGradGradGradGradGradGradGradGradGradGradGradGradGradGradGradGradGrad

 Leave Link  103 at Fri May 23 02:18:11 2025, MaxMem=  3758096384 cpu:               0.0 elap:               0.0
 (Enter /apps/easybuild-2022/easybuild/software/Compiler/NVHPC/22.11-CUDA-11.7.0/Gaussian/g16c01-CUDA-11.7.0/g16/l202.exe)
                          Input orientation:                          
 ---------------------------------------------------------------------
 Center     Atomic      Atomic             Coordinates (Angstroms)
 Number     Number       Type             X           Y           Z
 ---------------------------------------------------------------------
      1          6           0       -0.656676    0.669929   -1.236557
      2          6           0        0.000000    0.000000    0.000000
      3          9           0       -0.322875    0.713811    1.090471
      4          9           0       -0.448987   -1.241254    0.141408
      5         16           0        1.904440    0.000000    0.000000
      6          8           0        2.261151   -0.505970   -1.322874
      7          8           0        1.906583    1.660733    0.000000
      8          9           0        0.034298    1.770933   -1.556493
      9          9           0       -0.678691   -0.142413   -2.279102
     10          9           0       -1.905449    1.026976   -0.950120
     11          1           0        1.238367    1.976572    0.617186
 ---------------------------------------------------------------------
                    Distance matrix (angstroms):
                    1          2          3          4          5
     1  C    0.000000
     2  C    1.552128   0.000000
     3  F    2.351257   1.342722   0.000000
     4  F    2.365279   1.327516   2.176903   0.000000
     5  S    2.921848   1.904440   2.580618   2.664457   0.000000
     6  O    3.147046   2.668108   3.740225   3.166956   1.460562
     7  O    3.013480   2.528457   2.656364   3.740353   1.660735
     8  F    1.338661   2.357976   2.872542   3.491376   3.009370
     9  F    1.321849   2.382270   3.494818   2.668162   3.447776
    10  F    1.330024   2.363926   2.601274   2.908193   4.058654
    11  H    2.955480   2.412739   2.063017   3.664415   2.175181
                    6          7          8          9         10
     6  O    0.000000
     7  O    2.563263   0.000000
     8  F    3.193390   2.437266   0.000000
     9  F    3.112751   3.889638   2.165967   0.000000
    10  F    4.455269   3.979443   2.164204   2.153741   0.000000
    11  H    3.312542   0.962905   2.493381   4.068623   3.638923
                   11
    11  H    0.000000
 Symmetry turned off by external request.
 Stoichiometry    C2HF5O2S
 Rotational constants (GHZ):           1.6449611           1.0304174           0.9955599
 Leave Link  202 at Fri May 23 02:18:11 2025, MaxMem=  3758096384 cpu:               0.0 elap:               0.0
 (Enter /apps/easybuild-2022/easybuild/software/Compiler/NVHPC/22.11-CUDA-11.7.0/Gaussian/g16c01-CUDA-11.7.0/g16/l301.exe)
 Standard basis: 6-311++G(d,p) (5D, 7F)
 Ernie: Thresh=  0.10000D-02 Tol=  0.10000D-05 Strict=F.
   235 basis functions,   383 primitive gaussians,   245 cartesian basis functions
    45 alpha electrons       45 beta electrons
       nuclear repulsion energy       785.1542964935 Hartrees.
 IExCor= 4639 DFT=T Ex+Corr=wB97XD ExCW=0 ScaHFX=  1.000000
 ScaDFX=  1.000000  1.000000  1.000000  1.000000 ScalE2=  1.000000  1.000000
 IRadAn=      5 IRanWt=     -1 IRanGd=            0 ICorTp=0 IEmpDi=121
 HFx  wShort=  0.000000 wLong=  0.200000 cFull=  0.222036 cShort=  0.000000 cLong=  0.777964
 DFx  wShort=  0.000000 wLong=  0.200000 cFull=  0.000000 cShort=  0.000000 cLong=  1.000000
 NAtoms=   11 NActive=   11 NUniq=   11 SFac= 1.00D+00 NAtFMM=   60 NAOKFM=F Big=F
 Integral buffers will be    131072 words long.
 Raffenetti 2 integral format.
 Two-electron integral symmetry is turned off.
 R6Disp:  Grimme-D2 Dispersion energy=       -0.0048893852 Hartrees.
 Nuclear repulsion after empirical dispersion term =      785.1494071083 Hartrees.
 Leave Link  301 at Fri May 23 02:18:11 2025, MaxMem=  3758096384 cpu:               0.0 elap:               0.0
 (Enter /apps/easybuild-2022/easybuild/software/Compiler/NVHPC/22.11-CUDA-11.7.0/Gaussian/g16c01-CUDA-11.7.0/g16/l302.exe)
 NPDir=0 NMtPBC=     1 NCelOv=     1 NCel=       1 NClECP=     1 NCelD=      1
         NCelK=      1 NCelE2=     1 NClLst=     1 CellRange=     0.0.
 One-electron integrals computed using PRISM.
 NBasis=   235 RedAO= T EigKep=  6.51D-05  NBF=   235
 NBsUse=   235 1.00D-06 EigRej= -1.00D+00 NBFU=   235
 Precomputing XC quadrature grid using
 IXCGrd= 4 IRadAn=           5 IRanWt=          -1 IRanGd=           0 AccXCQ= 0.00D+00.
 Generated NRdTot=       0 NPtTot=           0 NUsed=           0 NTot=          32
 NSgBfM=   245   245   245   245   245 MxSgAt=    11 MxSgA2=    11.
 Leave Link  302 at Fri May 23 02:18:11 2025, MaxMem=  3758096384 cpu:               0.5 elap:               0.1
 (Enter /apps/easybuild-2022/easybuild/software/Compiler/NVHPC/22.11-CUDA-11.7.0/Gaussian/g16c01-CUDA-11.7.0/g16/l303.exe)
 DipDrv:  MaxL=1.
 Leave Link  303 at Fri May 23 02:18:11 2025, MaxMem=  3758096384 cpu:               0.1 elap:               0.0
 (Enter /apps/easybuild-2022/easybuild/software/Compiler/NVHPC/22.11-CUDA-11.7.0/Gaussian/g16c01-CUDA-11.7.0/g16/l401.exe)
 ExpMin= 3.60D-02 ExpMax= 9.34D+04 ExpMxC= 3.17D+03 IAcc=3 IRadAn=         5 AccDes= 0.00D+00
 Harris functional with IExCor= 4639 and IRadAn=       5 diagonalized for initial guess.
 HarFok:  IExCor= 4639 AccDes= 0.00D+00 IRadAn=         5 IDoV= 1 UseB2=F ITyADJ=14
 ICtDFT=  3500011 ScaDFX=  1.000000  1.000000  1.000000  1.000000
 FoFCou: FMM=F IPFlag=           0 FMFlag=      100000 FMFlg1=           0
         NFxFlg=           0 DoJE=T BraDBF=F KetDBF=T FulRan=T
         wScrn=  0.000000 ICntrl=       500 IOpCl=  0 I1Cent=   200000004 NGrid=           0
         NMat0=    1 NMatS0=      1 NMatT0=    0 NMatD0=    1 NMtDS0=    0 NMtDT0=    0
 Symmetry not used in FoFCou.
 Harris En= -1094.37523561800    
 JPrj=0 DoOrth=F DoCkMO=F.
 Leave Link  401 at Fri May 23 02:18:11 2025, MaxMem=  3758096384 cpu:               2.3 elap:               0.3
 (Enter /apps/easybuild-2022/easybuild/software/Compiler/NVHPC/22.11-CUDA-11.7.0/Gaussian/g16c01-CUDA-11.7.0/g16/l502.exe)
 Keep R1 ints in memory in canonical form, NReq=784160149.
 FoFCou: FMM=F IPFlag=           0 FMFlag=           0 FMFlg1=           0
         NFxFlg=           0 DoJE=F BraDBF=F KetDBF=F FulRan=T
         wScrn=  0.000000 ICntrl=       600 IOpCl=  0 I1Cent=           0 NGrid=           0
         NMat0=    1 NMatS0=  27730 NMatT0=    0 NMatD0=    1 NMtDS0=    0 NMtDT0=    0
 Symmetry not used in FoFCou.
 Two-electron integral symmetry not used.
 Closed shell SCF:
 Using DIIS extrapolation, IDIIS=  1040.
 NGot=  3758096384 LenX=  2988991759 LenY=  2988931293
 Requested convergence on RMS density matrix=1.00D-08 within  32 cycles.
 Requested convergence on MAX density matrix=1.00D-06.
 Requested convergence on             energy=1.00D-06.
 No special actions if energy rises.

 Cycle   1  Pass 1  IDiag  1:
 E= -1123.96513112408    
 DIIS: error= 1.19D-01 at cycle   1 NSaved=   1.
 NSaved= 1 IEnMin= 1 EnMin= -1123.96513112408     IErMin= 1 ErrMin= 1.19D-01
 ErrMax= 1.19D-01  0.00D+00 EMaxC= 1.00D-01 BMatC= 3.12D+00 BMatP= 3.12D+00
 IDIUse=3 WtCom= 0.00D+00 WtEn= 1.00D+00
 Coeff-Com:  0.100D+01
 Coeff-En:   0.100D+01
 Coeff:      0.100D+01
 Gap=     0.540 Goal=   None    Shift=    0.000
 GapD=    0.540 DampG=2.000 DampE=0.250 DampFc=0.5000 IDamp=-1.
 Damping current iteration by 5.00D-01
 RMSDP=7.82D-03 MaxDP=4.62D-01              OVMax= 1.89D-01

 Cycle   2  Pass 1  IDiag  1:
 E= -1124.29434474908     Delta-E=       -0.329213625005 Rises=F Damp=T
 DIIS: error= 5.14D-02 at cycle   2 NSaved=   2.
 NSaved= 2 IEnMin= 2 EnMin= -1124.29434474908     IErMin= 2 ErrMin= 5.14D-02
 ErrMax= 5.14D-02  0.00D+00 EMaxC= 1.00D-01 BMatC= 4.49D-01 BMatP= 3.12D+00
 IDIUse=3 WtCom= 4.86D-01 WtEn= 5.14D-01
 Coeff-Com: -0.397D+00 0.140D+01
 Coeff-En:   0.000D+00 0.100D+01
 Coeff:     -0.193D+00 0.119D+01
 Gap=     0.459 Goal=   None    Shift=    0.000
 RMSDP=2.73D-03 MaxDP=1.45D-01 DE=-3.29D-01 OVMax= 9.93D-02

 Cycle   3  Pass 1  IDiag  1:
 E= -1124.55897052790     Delta-E=       -0.264625778817 Rises=F Damp=F
 DIIS: error= 1.04D-02 at cycle   3 NSaved=   3.
 NSaved= 3 IEnMin= 3 EnMin= -1124.55897052790     IErMin= 3 ErrMin= 1.04D-02
 ErrMax= 1.04D-02  0.00D+00 EMaxC= 1.00D-01 BMatC= 6.90D-02 BMatP= 4.49D-01
 IDIUse=3 WtCom= 8.96D-01 WtEn= 1.04D-01
 Coeff-Com: -0.166D+00 0.489D+00 0.677D+00
 Coeff-En:   0.000D+00 0.000D+00 0.100D+01
 Coeff:     -0.149D+00 0.438D+00 0.711D+00
 Gap=     0.384 Goal=   None    Shift=    0.000
 RMSDP=1.51D-03 MaxDP=5.18D-02 DE=-2.65D-01 OVMax= 8.98D-02

 Cycle   4  Pass 1  IDiag  1:
 E= -1124.58720564668     Delta-E=       -0.028235118774 Rises=F Damp=F
 DIIS: error= 6.26D-03 at cycle   4 NSaved=   4.
 NSaved= 4 IEnMin= 4 EnMin= -1124.58720564668     IErMin= 4 ErrMin= 6.26D-03
 ErrMax= 6.26D-03  0.00D+00 EMaxC= 1.00D-01 BMatC= 2.29D-02 BMatP= 6.90D-02
 IDIUse=3 WtCom= 9.37D-01 WtEn= 6.26D-02
 Coeff-Com: -0.392D-01 0.995D-01 0.384D+00 0.556D+00
 Coeff-En:   0.000D+00 0.000D+00 0.278D+00 0.722D+00
 Coeff:     -0.367D-01 0.932D-01 0.377D+00 0.566D+00
 Gap=     0.386 Goal=   None    Shift=    0.000
 RMSDP=6.38D-04 MaxDP=2.27D-02 DE=-2.82D-02 OVMax= 4.12D-02

 Cycle   5  Pass 1  IDiag  1:
 E= -1124.60209980743     Delta-E=       -0.014894160756 Rises=F Damp=F
 DIIS: error= 1.65D-03 at cycle   5 NSaved=   5.
 NSaved= 5 IEnMin= 5 EnMin= -1124.60209980743     IErMin= 5 ErrMin= 1.65D-03
 ErrMax= 1.65D-03  0.00D+00 EMaxC= 1.00D-01 BMatC= 1.44D-03 BMatP= 2.29D-02
 IDIUse=3 WtCom= 9.84D-01 WtEn= 1.65D-02
 Coeff-Com: -0.882D-02 0.192D-01 0.165D+00 0.317D+00 0.508D+00
 Coeff-En:   0.000D+00 0.000D+00 0.000D+00 0.000D+00 0.100D+01
 Coeff:     -0.867D-02 0.189D-01 0.162D+00 0.311D+00 0.517D+00
 Gap=     0.378 Goal=   None    Shift=    0.000
 RMSDP=1.45D-04 MaxDP=3.56D-03 DE=-1.49D-02 OVMax= 7.14D-03

 Cycle   6  Pass 1  IDiag  1:
 E= -1124.60299844891     Delta-E=       -0.000898641479 Rises=F Damp=F
 DIIS: error= 2.02D-04 at cycle   6 NSaved=   6.
 NSaved= 6 IEnMin= 6 EnMin= -1124.60299844891     IErMin= 6 ErrMin= 2.02D-04
 ErrMax= 2.02D-04  0.00D+00 EMaxC= 1.00D-01 BMatC= 2.05D-05 BMatP= 1.44D-03
 IDIUse=3 WtCom= 9.98D-01 WtEn= 2.02D-03
 Coeff-Com:  0.183D-02-0.502D-02 0.185D-02 0.244D-01 0.108D+00 0.869D+00
 Coeff-En:   0.000D+00 0.000D+00 0.000D+00 0.000D+00 0.000D+00 0.100D+01
 Coeff:      0.183D-02-0.501D-02 0.184D-02 0.243D-01 0.108D+00 0.869D+00
 Gap=     0.378 Goal=   None    Shift=    0.000
 RMSDP=6.80D-05 MaxDP=2.89D-03 DE=-8.99D-04 OVMax= 2.10D-03

 Cycle   7  Pass 1  IDiag  1:
 E= -1124.60302118966     Delta-E=       -0.000022740750 Rises=F Damp=F
 DIIS: error= 5.12D-05 at cycle   7 NSaved=   7.
 NSaved= 7 IEnMin= 7 EnMin= -1124.60302118966     IErMin= 7 ErrMin= 5.12D-05
 ErrMax= 5.12D-05  0.00D+00 EMaxC= 1.00D-01 BMatC= 2.58D-06 BMatP= 2.05D-05
 IDIUse=1 WtCom= 1.00D+00 WtEn= 0.00D+00
 Coeff-Com:  0.145D-02-0.333D-02-0.138D-01-0.214D-01-0.218D-01 0.244D+00
 Coeff-Com:  0.815D+00
 Coeff:      0.145D-02-0.333D-02-0.138D-01-0.214D-01-0.218D-01 0.244D+00
 Coeff:      0.815D+00
 Gap=     0.378 Goal=   None    Shift=    0.000
 RMSDP=2.17D-05 MaxDP=8.49D-04 DE=-2.27D-05 OVMax= 7.56D-04

 Cycle   8  Pass 1  IDiag  1:
 E= -1124.60302376779     Delta-E=       -0.000002578127 Rises=F Damp=F
 DIIS: error= 2.29D-05 at cycle   8 NSaved=   8.
 NSaved= 8 IEnMin= 8 EnMin= -1124.60302376779     IErMin= 8 ErrMin= 2.29D-05
 ErrMax= 2.29D-05  0.00D+00 EMaxC= 1.00D-01 BMatC= 3.80D-07 BMatP= 2.58D-06
 IDIUse=1 WtCom= 1.00D+00 WtEn= 0.00D+00
 Coeff-Com:  0.476D-03-0.103D-02-0.591D-02-0.114D-01-0.186D-01 0.280D-01
 Coeff-Com:  0.339D+00 0.670D+00
 Coeff:      0.476D-03-0.103D-02-0.591D-02-0.114D-01-0.186D-01 0.280D-01
 Coeff:      0.339D+00 0.670D+00
 Gap=     0.378 Goal=   None    Shift=    0.000
 RMSDP=6.48D-06 MaxDP=2.73D-04 DE=-2.58D-06 OVMax= 2.65D-04

 Cycle   9  Pass 1  IDiag  1:
 E= -1124.60302411512     Delta-E=       -0.000000347329 Rises=F Damp=F
 DIIS: error= 7.39D-06 at cycle   9 NSaved=   9.
 NSaved= 9 IEnMin= 9 EnMin= -1124.60302411512     IErMin= 9 ErrMin= 7.39D-06
 ErrMax= 7.39D-06  0.00D+00 EMaxC= 1.00D-01 BMatC= 3.58D-08 BMatP= 3.80D-07
 IDIUse=1 WtCom= 1.00D+00 WtEn= 0.00D+00
 Coeff-Com: -0.276D-04 0.749D-04-0.190D-03-0.106D-02-0.266D-02-0.167D-01
 Coeff-Com:  0.884D-02 0.236D+00 0.776D+00
 Coeff:     -0.276D-04 0.749D-04-0.190D-03-0.106D-02-0.266D-02-0.167D-01
 Coeff:      0.884D-02 0.236D+00 0.776D+00
 Gap=     0.378 Goal=   None    Shift=    0.000
 RMSDP=2.02D-06 MaxDP=7.74D-05 DE=-3.47D-07 OVMax= 1.17D-04

 Cycle  10  Pass 1  IDiag  1:
 E= -1124.60302415580     Delta-E=       -0.000000040682 Rises=F Damp=F
 DIIS: error= 2.28D-06 at cycle  10 NSaved=  10.
 NSaved=10 IEnMin=10 EnMin= -1124.60302415580     IErMin=10 ErrMin= 2.28D-06
 ErrMax= 2.28D-06  0.00D+00 EMaxC= 1.00D-01 BMatC= 4.78D-09 BMatP= 3.58D-08
 IDIUse=1 WtCom= 1.00D+00 WtEn= 0.00D+00
 Coeff-Com: -0.716D-04 0.160D-03 0.684D-03 0.115D-02 0.159D-02-0.967D-02
 Coeff-Com: -0.480D-01-0.297D-02 0.290D+00 0.767D+00
 Coeff:     -0.716D-04 0.160D-03 0.684D-03 0.115D-02 0.159D-02-0.967D-02
 Coeff:     -0.480D-01-0.297D-02 0.290D+00 0.767D+00
 Gap=     0.378 Goal=   None    Shift=    0.000
 RMSDP=9.26D-07 MaxDP=3.44D-05 DE=-4.07D-08 OVMax= 5.26D-05

 Cycle  11  Pass 1  IDiag  1:
 E= -1124.60302416291     Delta-E=       -0.000000007106 Rises=F Damp=F
 DIIS: error= 5.75D-07 at cycle  11 NSaved=  11.
 NSaved=11 IEnMin=11 EnMin= -1124.60302416291     IErMin=11 ErrMin= 5.75D-07
 ErrMax= 5.75D-07  0.00D+00 EMaxC= 1.00D-01 BMatC= 3.28D-10 BMatP= 4.78D-09
 IDIUse=1 WtCom= 1.00D+00 WtEn= 0.00D+00
 Coeff-Com: -0.100D-04 0.211D-04 0.115D-03 0.301D-03 0.523D-03 0.337D-03
 Coeff-Com: -0.826D-02-0.252D-01-0.473D-01 0.150D+00 0.930D+00
 Coeff:     -0.100D-04 0.211D-04 0.115D-03 0.301D-03 0.523D-03 0.337D-03
 Coeff:     -0.826D-02-0.252D-01-0.473D-01 0.150D+00 0.930D+00
 Gap=     0.378 Goal=   None    Shift=    0.000
 RMSDP=2.84D-07 MaxDP=7.74D-06 DE=-7.11D-09 OVMax= 1.89D-05

 Cycle  12  Pass 1  IDiag  1:
 E= -1124.60302416354     Delta-E=       -0.000000000638 Rises=F Damp=F
 DIIS: error= 3.00D-07 at cycle  12 NSaved=  12.
 NSaved=12 IEnMin=12 EnMin= -1124.60302416354     IErMin=12 ErrMin= 3.00D-07
 ErrMax= 3.00D-07  0.00D+00 EMaxC= 1.00D-01 BMatC= 5.32D-11 BMatP= 3.28D-10
 IDIUse=1 WtCom= 1.00D+00 WtEn= 0.00D+00
 Coeff-Com:  0.848D-06-0.220D-05-0.346D-06 0.358D-04 0.962D-04 0.594D-03
 Coeff-Com:  0.280D-03-0.921D-02-0.403D-01 0.158D-01 0.365D+00 0.667D+00
 Coeff:      0.848D-06-0.220D-05-0.346D-06 0.358D-04 0.962D-04 0.594D-03
 Coeff:      0.280D-03-0.921D-02-0.403D-01 0.158D-01 0.365D+00 0.667D+00
 Gap=     0.378 Goal=   None    Shift=    0.000
 RMSDP=7.08D-08 MaxDP=3.05D-06 DE=-6.38D-10 OVMax= 4.53D-06

 Cycle  13  Pass 1  IDiag  1:
 E= -1124.60302416360     Delta-E=       -0.000000000057 Rises=F Damp=F
 DIIS: error= 1.43D-07 at cycle  13 NSaved=  13.
 NSaved=13 IEnMin=13 EnMin= -1124.60302416360     IErMin=13 ErrMin= 1.43D-07
 ErrMax= 1.43D-07  0.00D+00 EMaxC= 1.00D-01 BMatC= 7.92D-12 BMatP= 5.32D-11
 IDIUse=1 WtCom= 1.00D+00 WtEn= 0.00D+00
 Coeff-Com:  0.245D-05-0.528D-05-0.188D-04-0.441D-04-0.518D-04 0.718D-04
 Coeff-Com:  0.169D-02 0.203D-02-0.425D-02-0.190D-01-0.869D-01 0.180D+00
 Coeff-Com:  0.926D+00
 Coeff:      0.245D-05-0.528D-05-0.188D-04-0.441D-04-0.518D-04 0.718D-04
 Coeff:      0.169D-02 0.203D-02-0.425D-02-0.190D-01-0.869D-01 0.180D+00
 Coeff:      0.926D+00
 Gap=     0.378 Goal=   None    Shift=    0.000
 RMSDP=5.24D-08 MaxDP=1.91D-06 DE=-5.73D-11 OVMax= 3.58D-06

 Cycle  14  Pass 1  IDiag  1:
 E= -1124.60302416364     Delta-E=       -0.000000000041 Rises=F Damp=F
 DIIS: error= 2.86D-08 at cycle  14 NSaved=  14.
 NSaved=14 IEnMin=14 EnMin= -1124.60302416364     IErMin=14 ErrMin= 2.86D-08
 ErrMax= 2.86D-08  0.00D+00 EMaxC= 1.00D-01 BMatC= 6.58D-13 BMatP= 7.92D-12
 IDIUse=1 WtCom= 1.00D+00 WtEn= 0.00D+00
 Coeff-Com:  0.600D-06-0.129D-05-0.480D-05-0.140D-04-0.236D-04-0.280D-04
 Coeff-Com:  0.397D-03 0.139D-02 0.259D-02-0.376D-02-0.552D-01-0.421D-01
 Coeff-Com:  0.139D+00 0.957D+00
 Coeff:      0.600D-06-0.129D-05-0.480D-05-0.140D-04-0.236D-04-0.280D-04
 Coeff:      0.397D-03 0.139D-02 0.259D-02-0.376D-02-0.552D-01-0.421D-01
 Coeff:      0.139D+00 0.957D+00
 Gap=     0.378 Goal=   None    Shift=    0.000
 RMSDP=2.09D-08 MaxDP=6.44D-07 DE=-4.14D-11 OVMax= 1.46D-06

 Cycle  15  Pass 1  IDiag  1:
 E= -1124.60302416363     Delta-E=        0.000000000015 Rises=F Damp=F
 DIIS: error= 1.65D-08 at cycle  15 NSaved=  15.
 NSaved=15 IEnMin=14 EnMin= -1124.60302416364     IErMin=15 ErrMin= 1.65D-08
 ErrMax= 1.65D-08  0.00D+00 EMaxC= 1.00D-01 BMatC= 1.46D-13 BMatP= 6.58D-13
 IDIUse=1 WtCom= 1.00D+00 WtEn= 0.00D+00
 Coeff-Com: -0.167D-06 0.350D-06 0.102D-05 0.178D-05-0.192D-05-0.228D-04
 Coeff-Com: -0.874D-04 0.175D-03 0.130D-02 0.183D-02-0.673D-02-0.417D-01
 Coeff-Com: -0.858D-01 0.315D+00 0.816D+00
 Coeff:     -0.167D-06 0.350D-06 0.102D-05 0.178D-05-0.192D-05-0.228D-04
 Coeff:     -0.874D-04 0.175D-03 0.130D-02 0.183D-02-0.673D-02-0.417D-01
 Coeff:     -0.858D-01 0.315D+00 0.816D+00
 Gap=     0.378 Goal=   None    Shift=    0.000
 RMSDP=6.93D-09 MaxDP=2.41D-07 DE= 1.55D-11 OVMax= 5.29D-07

 SCF Done:  E(RwB97XD) =  -1124.60302416     A.U. after   15 cycles
            NFock= 15  Conv=0.69D-08     -V/T= 2.0019
 KE= 1.122523974337D+03 PE=-4.240843177501D+03 EE= 1.208566771892D+03
 Leave Link  502 at Fri May 23 02:18:22 2025, MaxMem=  3758096384 cpu:              54.5 elap:              10.4
 (Enter /apps/easybuild-2022/easybuild/software/Compiler/NVHPC/22.11-CUDA-11.7.0/Gaussian/g16c01-CUDA-11.7.0/g16/l508.exe)
 QCSCF skips out because SCF is already converged.
 Leave Link  508 at Fri May 23 02:18:22 2025, MaxMem=  3758096384 cpu:               0.0 elap:               0.0
 (Enter /apps/easybuild-2022/easybuild/software/Compiler/NVHPC/22.11-CUDA-11.7.0/Gaussian/g16c01-CUDA-11.7.0/g16/l801.exe)
 DoSCS=F DFT=T ScalE2(SS,OS)=  1.000000  1.000000
 Range of M.O.s used for correlation:     1   235
 NBasis=   235 NAE=    45 NBE=    45 NFC=     0 NFV=     0
 NROrb=    235 NOA=    45 NOB=    45 NVA=   190 NVB=   190

 **** Warning!!: The largest alpha MO coefficient is  0.31577902D+02

 Leave Link  801 at Fri May 23 02:18:22 2025, MaxMem=  3758096384 cpu:               0.0 elap:               0.0
 (Enter /apps/easybuild-2022/easybuild/software/Compiler/NVHPC/22.11-CUDA-11.7.0/Gaussian/g16c01-CUDA-11.7.0/g16/l1101.exe)
 Using compressed storage, NAtomX=    11.
 Will process     12 centers per pass.
 R6Disp: Adding Grimme-D2 dispersion energy 1st derivatives to the gradient.
 Leave Link 1101 at Fri May 23 02:18:22 2025, MaxMem=  3758096384 cpu:               0.5 elap:               0.1
 (Enter /apps/easybuild-2022/easybuild/software/Compiler/NVHPC/22.11-CUDA-11.7.0/Gaussian/g16c01-CUDA-11.7.0/g16/l1102.exe)
 Symmetrizing basis deriv contribution to polar:
 IMax=3 JMax=2 DiffMx= 0.00D+00
 Leave Link 1102 at Fri May 23 02:18:22 2025, MaxMem=  3758096384 cpu:               0.1 elap:               0.0
 (Enter /apps/easybuild-2022/easybuild/software/Compiler/NVHPC/22.11-CUDA-11.7.0/Gaussian/g16c01-CUDA-11.7.0/g16/l1110.exe)
 Forming Gx(P) for the SCF density, NAtomX=    11.
 Integral derivatives from FoFJK, PRISM(SPDF).
 Do as many integral derivatives as possible in FoFJK.
 G2DrvN: MDV=    3758095115.
 G2DrvN: will do    12 centers at a time, making    1 passes.
 Calling FoFCou, ICntrl=  3107 FMM=F I1Cent=   0 AccDes= 0.00D+00.
 FoFJK:  IHMeth= 1 ICntrl=    3107 DoSepK=T KAlg= 0 I1Cent=           0 FoldK=F
 IRaf=         1 NMat=       1 IRICut=       1 DoRegI=T DoRafI=F ISym2E= 0 IDoP0=0 IntGTp=1.
 FoFCou: FMM=F IPFlag=           0 FMFlag=      100000 FMFlg1=           0
         NFxFlg=           0 DoJE=F BraDBF=F KetDBF=F FulRan=T
         wScrn=  0.000000 ICntrl=      3507 IOpCl=  0 I1Cent=           0 NGrid=           0
         NMat0=    1 NMatS0=      1 NMatT0=    0 NMatD0=    1 NMtDS0=    0 NMtDT0=    0
 Symmetry not used in FoFCou.
 End of G2Drv F.D. properties file   721 does not exist.
 End of G2Drv F.D. properties file   722 does not exist.
 End of G2Drv F.D. properties file   788 does not exist.
 Leave Link 1110 at Fri May 23 02:18:32 2025, MaxMem=  3758096384 cpu:              83.2 elap:              10.5
 (Enter /apps/easybuild-2022/easybuild/software/Compiler/NVHPC/22.11-CUDA-11.7.0/Gaussian/g16c01-CUDA-11.7.0/g16/l1002.exe)
 Minotr:  Closed shell wavefunction.
          IDoAtm=11111111111
          Direct CPHF calculation.
          Differentiating once with respect to nuclear coordinates.
          Requested convergence is 1.0D-08 RMS, and 1.0D-07 maximum.
          Secondary convergence is 1.0D-12 RMS, and 1.0D-12 maximum.
          NewPWx=T KeepS1=F KeepF1=F KeepIn=T MapXYZ=F SortEE=F KeepMc=T.
         3398 words used for storage of precomputed grid.
 Keep R1 ints in memory in canonical form, NReq=784143476.
 FoFCou: FMM=F IPFlag=           0 FMFlag=           0 FMFlg1=           0
         NFxFlg=           0 DoJE=F BraDBF=F KetDBF=F FulRan=T
         wScrn=  0.000000 ICntrl=       600 IOpCl=  0 I1Cent=           0 NGrid=           0
         NMat0=    1 NMatS0=  27730 NMatT0=    0 NMatD0=    1 NMtDS0=    0 NMtDT0=    0
 Symmetry not used in FoFCou.
 Two-electron integral symmetry not used.
          MDV=    3758096384 using IRadAn=       1.
          Solving linear equations simultaneously, MaxMat=       0.
          There are    36 degrees of freedom in the 1st order CPHF.  IDoFFX=6 NUNeed=     0.
     30 vectors produced by pass  0 Test12= 2.37D-14 2.78D-09 XBig12= 1.33D-01 9.42D-02.
 AX will form    30 AO Fock derivatives at one time.
     30 vectors produced by pass  1 Test12= 2.37D-14 2.78D-09 XBig12= 2.08D-02 2.17D-02.
     30 vectors produced by pass  2 Test12= 2.37D-14 2.78D-09 XBig12= 1.61D-03 6.00D-03.
     30 vectors produced by pass  3 Test12= 2.37D-14 2.78D-09 XBig12= 2.77D-05 1.01D-03.
     30 vectors produced by pass  4 Test12= 2.37D-14 2.78D-09 XBig12= 4.13D-07 9.07D-05.
     30 vectors produced by pass  5 Test12= 2.37D-14 2.78D-09 XBig12= 5.46D-09 1.11D-05.
     30 vectors produced by pass  6 Test12= 2.37D-14 2.78D-09 XBig12= 4.49D-11 8.75D-07.
     21 vectors produced by pass  7 Test12= 2.37D-14 2.78D-09 XBig12= 2.97D-13 7.54D-08.
      4 vectors produced by pass  8 Test12= 2.37D-14 2.78D-09 XBig12= 1.97D-15 5.78D-09.
 InvSVY:  IOpt=1 It=  1 EMax= 1.67D-15
 Solved reduced A of dimension   235 with    30 vectors.
 End of Minotr F.D. properties file   721 does not exist.
 End of Minotr F.D. properties file   722 does not exist.
 End of Minotr F.D. properties file   788 does not exist.
 Leave Link 1002 at Fri May 23 02:18:50 2025, MaxMem=  3758096384 cpu:             137.9 elap:              17.7
 (Enter /apps/easybuild-2022/easybuild/software/Compiler/NVHPC/22.11-CUDA-11.7.0/Gaussian/g16c01-CUDA-11.7.0/g16/l701.exe)
 ... and contract with generalized density number  0.
 Compute integral second derivatives.
 R6Disp: Adding Grimme-D2 dispersion energy 2nd derivatives to the Hessian.
 Leave Link  701 at Fri May 23 02:18:50 2025, MaxMem=  3758096384 cpu:               0.5 elap:               0.1
 (Enter /apps/easybuild-2022/easybuild/software/Compiler/NVHPC/22.11-CUDA-11.7.0/Gaussian/g16c01-CUDA-11.7.0/g16/l702.exe)
 L702 exits ... SP integral derivatives will be done elsewhere.
 Leave Link  702 at Fri May 23 02:18:50 2025, MaxMem=  3758096384 cpu:               0.0 elap:               0.0
 (Enter /apps/easybuild-2022/easybuild/software/Compiler/NVHPC/22.11-CUDA-11.7.0/Gaussian/g16c01-CUDA-11.7.0/g16/l703.exe)
 Integral derivatives from FoFJK, PRISM(SPDF).
 Compute integral second derivatives, UseDBF=F ICtDFT=           0.
 Calling FoFJK, ICntrl=    100127 FMM=F ISym2X=0 I1Cent= 0 IOpClX= 0 NMat=1 NMatS=1 NMatT=0.
 FoFJK:  IHMeth= 1 ICntrl=  100127 DoSepK=T KAlg= 0 I1Cent=           0 FoldK=F
 IRaf=         1 NMat=       1 IRICut=       1 DoRegI=T DoRafI=F ISym2E= 0 IDoP0=0 IntGTp=1.
 FoFCou: FMM=F IPFlag=           0 FMFlag=      100000 FMFlg1=         800
         NFxFlg=           0 DoJE=F BraDBF=F KetDBF=F FulRan=T
         wScrn=  0.000000 ICntrl=    100527 IOpCl=  0 I1Cent=           0 NGrid=           0
         NMat0=    1 NMatS0=      1 NMatT0=    0 NMatD0=    1 NMtDS0=    0 NMtDT0=    0
 Symmetry not used in FoFCou.
 Leave Link  703 at Fri May 23 02:19:20 2025, MaxMem=  3758096384 cpu:             233.6 elap:              29.4
 (Enter /apps/easybuild-2022/easybuild/software/Compiler/NVHPC/22.11-CUDA-11.7.0/Gaussian/g16c01-CUDA-11.7.0/g16/l716.exe)
 Dipole        =-3.36325650D-01 2.66720663D-01 1.14590499D+00
 Polarizability= 0.00000000D+00 0.00000000D+00 0.00000000D+00
                 0.00000000D+00 0.00000000D+00 0.00000000D+00
 -------------------------------------------------------------------
 Center     Atomic                   Forces (Hartrees/Bohr)
 Number     Number              X              Y              Z
 -------------------------------------------------------------------
      1        6           0.005553001    0.006000530   -0.006948548
      2        6           0.003519125   -0.004244387   -0.004312150
      3        9          -0.008895001    0.004908981    0.010784070
      4        9          -0.000826124   -0.003973137    0.000636473
      5       16          -0.010455654   -0.006344412   -0.003653531
      6        8           0.005566410    0.006789314    0.000958353
      7        8           0.018668231   -0.002180709    0.002142729
      8        9          -0.014421881   -0.003802062   -0.005650010
      9        9           0.001447221   -0.001725746    0.002052265
     10        9          -0.002189114   -0.000192872    0.001608824
     11        1           0.002033786    0.004764499    0.002381525
 -------------------------------------------------------------------
 Cartesian Forces:  Max     0.018668231 RMS     0.006283347
 Force constants in Cartesian coordinates: 
                1             2             3             4             5 
      1  0.541100D+00
      2 -0.146572D-01  0.548795D+00
      3  0.236492D-01  0.633966D-02  0.582467D+00
      4 -0.855955D-01  0.143108D-01 -0.210044D-01  0.417190D+00
      5  0.341403D-01 -0.657301D-01  0.439083D-01  0.286308D-01  0.540698D+00
      6 -0.662959D-01  0.481144D-01 -0.123138D+00 -0.179392D-01 -0.110696D-01
      7  0.152797D-03 -0.860492D-03 -0.879346D-02 -0.872755D-01  0.345981D-01
      8  0.115836D-02 -0.138530D-02 -0.260925D-02  0.326842D-01 -0.105682D+00
      9  0.209745D-01 -0.352931D-01 -0.370827D-01  0.530580D-01 -0.757508D-01
     10  0.287714D-02  0.396751D-02 -0.375089D-02 -0.108394D+00 -0.941825D-01
     11 -0.235552D-01 -0.395526D-01 -0.633584D-03 -0.871720D-01 -0.281347D+00
     12  0.170158D-01  0.253184D-01  0.965225D-03  0.133382D-01  0.414522D-01
     13 -0.212007D-01  0.166587D-02 -0.631938D-02 -0.115832D+00  0.275999D-01
     14  0.151598D-01  0.209128D-01 -0.210475D-02  0.544004D-02 -0.177803D-01
     15 -0.270753D-01 -0.369144D-02  0.270223D-01 -0.199434D-01  0.253808D-01
     16  0.687091D-02 -0.207704D-02 -0.453712D-02  0.106421D-01  0.536415D-02
     17 -0.249283D-02 -0.220761D-02 -0.313545D-02  0.523685D-03 -0.545553D-02
     18  0.689903D-02  0.146233D-02 -0.184335D-01  0.160733D-02 -0.181874D-01
     19  0.758919D-02  0.969165D-02 -0.178014D-02  0.355663D-02 -0.255253D-01
     20 -0.321742D-02 -0.148812D-01  0.713740D-02  0.281260D-02 -0.258142D-01
     21  0.525435D-02  0.490700D-02 -0.232526D-02  0.599627D-03 -0.558628D-02
     22 -0.108402D+00 -0.681923D-01  0.268421D-01  0.423180D-02 -0.282878D-02
     23 -0.611633D-01 -0.211068D+00  0.597937D-01 -0.222619D-01 -0.284467D-01
     24  0.241860D-01  0.578386D-01 -0.104127D+00  0.167925D-01  0.263184D-01
     25 -0.785576D-01 -0.386409D-02 -0.182360D-01  0.823523D-02 -0.112003D-01
     26 -0.784960D-02 -0.141248D+00 -0.102912D+00 -0.496299D-03 -0.328217D-02
     27 -0.191633D-01 -0.945328D-01 -0.244324D+00 -0.135625D-02 -0.328660D-01
     28 -0.263367D+00  0.633416D-01  0.158423D-01 -0.484378D-01  0.116739D-01
     29  0.637755D-01 -0.953869D-01 -0.382538D-02  0.299081D-01 -0.299490D-02
     30  0.190474D-01 -0.595232D-02 -0.798163D-01 -0.231717D-01  0.507954D-02
     31 -0.146746D-02 -0.332635D-02 -0.191224D-02  0.167934D-02 -0.827032D-02
     32 -0.129839D-02  0.175207D-02 -0.195895D-02 -0.438014D-02 -0.416547D-02
     33 -0.449177D-02 -0.451065D-02 -0.120792D-02 -0.198086D-02  0.132073D-02
                6             7             8             9            10 
      6  0.515361D+00
      7  0.697264D-01  0.911084D-01
      8 -0.867669D-01 -0.373053D-01  0.161548D+00
      9 -0.234981D+00 -0.761131D-01  0.141093D+00  0.290458D+00
     10  0.187694D-01  0.139828D-01  0.344034D-02 -0.633085D-02  0.931305D-01
     11  0.536682D-01 -0.732195D-02 -0.594744D-01 -0.324406D-01  0.115685D+00
     12 -0.801814D-01 -0.131777D-01 -0.456630D-01  0.504131D-02 -0.133398D-01
     13 -0.522101D-01 -0.952262D-04 -0.801541D-03  0.484322D-02  0.534412D-02
     14  0.163030D-01  0.140407D-01 -0.123918D-01 -0.131794D-01 -0.306961D-01
     15 -0.616130D-01  0.290347D-01 -0.115178D-01 -0.109854D-01  0.188985D-02
     16  0.390727D-01 -0.149275D-01  0.615550D-02  0.720582D-02 -0.225680D-02
     17 -0.348220D-02  0.360802D-02 -0.495857D-03 -0.327819D-02  0.405816D-02
     18  0.625982D-02  0.408498D-02 -0.227567D-02 -0.361579D-02  0.441235D-02
     19  0.119090D-01 -0.296702D-02 -0.697387D-02 -0.123591D-02 -0.112143D-01
     20 -0.900470D-02 -0.453804D-02  0.841912D-02  0.617078D-02 -0.829529D-02
     21 -0.243127D-02  0.190445D-02  0.433050D-02  0.389191D-02 -0.208448D-02
     22  0.259582D-03  0.123431D-02  0.546702D-03 -0.586181D-03  0.145054D-02
     23  0.363753D-02  0.170855D-02  0.372991D-02  0.642362D-02  0.369321D-02
     24  0.104749D-02 -0.101927D-02 -0.950248D-03 -0.269772D-03 -0.243641D-02
     25 -0.648622D-02 -0.733233D-03  0.322579D-03 -0.564340D-02  0.668712D-03
     26 -0.310878D-02 -0.744307D-03  0.167376D-02  0.167939D-02  0.165249D-02
     27 -0.280370D-01 -0.410569D-02  0.136512D-02 -0.114773D-01  0.747441D-03
     28  0.849219D-02  0.565462D-02 -0.159874D-02 -0.128526D-02  0.458712D-02
     29 -0.355632D-02 -0.313782D-02  0.224294D-02  0.183892D-02 -0.142393D-02
     30  0.103619D-02 -0.379631D-02  0.283867D-02  0.312245D-02  0.702624D-03
     31 -0.529798D-02 -0.613452D-02  0.237178D-02  0.511318D-02 -0.176044D-03
     32 -0.473458D-02 -0.473994D-04  0.181472D-02  0.273679D-02  0.210104D-02
     33  0.667729D-02  0.225509D-02  0.156036D-03 -0.410172D-02  0.142077D-02
               11            12            13            14            15 
     11  0.390126D+00
     12 -0.327427D-01  0.745416D-01
     13 -0.145418D-02  0.230973D-02  0.253029D+00
     14 -0.182416D-01  0.221052D-02 -0.654755D-01  0.352784D+00
     15 -0.824453D-02  0.439588D-02 -0.870516D-01  0.125688D+00  0.624207D+00
     16 -0.158434D-02 -0.216663D-02 -0.817333D-01  0.460611D-01  0.974769D-01
     17  0.635934D-02 -0.719966D-03  0.420350D-01 -0.103243D+00 -0.132411D+00
     18  0.966943D-02 -0.178719D-03  0.123781D+00 -0.154656D+00 -0.509543D+00
     19 -0.568910D-02 -0.204295D-04 -0.455126D-01  0.170537D-01  0.921641D-02
     20 -0.239122D-02  0.634060D-03 -0.227244D-01 -0.190063D+00  0.214807D-01
     21 -0.132701D-02  0.150067D-02  0.849452D-02  0.258157D-01 -0.501993D-01
     22  0.183293D-02 -0.674797D-03  0.632693D-05 -0.637815D-02  0.221969D-02
     23 -0.564439D-02  0.741606D-02 -0.152409D-02 -0.794979D-02  0.173538D-02
     24  0.775602D-02 -0.648043D-02  0.116411D-02 -0.605306D-03 -0.474956D-02
     25  0.264446D-02 -0.639226D-03  0.772829D-03 -0.582104D-05  0.290612D-02
     26  0.574554D-02  0.250820D-02  0.893270D-03 -0.455185D-02 -0.312627D-02
     27  0.271047D-02  0.121748D-02  0.265884D-02 -0.187152D-02 -0.770768D-02
     28  0.470934D-02 -0.303673D-02  0.107777D-02  0.185607D-02 -0.616832D-02
     29  0.247020D-02 -0.500318D-03 -0.969921D-04 -0.389480D-02  0.492505D-02
     30  0.702526D-03  0.435032D-03 -0.818270D-05  0.196826D-02 -0.642944D-02
     31  0.190493D-02  0.391637D-03  0.414387D-02  0.294414D-02 -0.250500D-02
     32  0.195033D-02  0.864964D-04  0.198827D-01 -0.155799D-01 -0.202188D-01
     33  0.881733D-03 -0.125659D-02  0.233762D-02  0.431768D-03 -0.439814D-02
               16            17            18            19            20 
     16  0.838850D-01
     17 -0.597939D-01  0.107850D+00
     18 -0.141981D+00  0.174106D+00  0.500812D+00
     19  0.191304D-02  0.139004D-01  0.432086D-02  0.323533D+00
     20  0.305102D-02  0.185406D-02 -0.103044D-01 -0.933440D-01  0.285304D+00
     21  0.528771D-02 -0.317014D-01  0.960285D-02 -0.242481D+00  0.984361D-01
     22 -0.975153D-03  0.110320D-02 -0.113306D-02 -0.187195D-01  0.672270D-02
     23  0.103696D-02  0.444237D-03 -0.859953D-03 -0.300939D-02  0.100399D-01
     24  0.266833D-04 -0.319933D-03  0.337278D-02 -0.157681D-01  0.111498D-02
     25 -0.391291D-02  0.180352D-03 -0.248653D-02 -0.550148D-03  0.934470D-05
     26  0.125100D-02  0.150670D-02  0.294232D-02 -0.210738D-02  0.305682D-02
     27 -0.561389D-03  0.173433D-02  0.645876D-02 -0.107666D-02  0.444245D-03
     28  0.743657D-03  0.117347D-02  0.295650D-02 -0.113639D-03 -0.211396D-02
     29 -0.521674D-03 -0.159140D-03 -0.213860D-02 -0.146926D-02  0.326173D-02
     30  0.109767D-02  0.587137D-03  0.374454D-02  0.117710D-02 -0.196299D-02
     31 -0.249069D-03 -0.429561D-02 -0.246134D-02 -0.257514D+00  0.121637D+00
     32  0.105722D-02 -0.645245D-02  0.242084D-03  0.974725D-01 -0.787860D-01
     33 -0.921041D-03 -0.137916D-02  0.152011D-02  0.235738D+00 -0.114146D+00
               21            22            23            24            25 
     21  0.263386D+00
     22 -0.182222D-01  0.181366D+00
     23 -0.209187D-02  0.135168D+00  0.291932D+00
     24 -0.991177D-02 -0.283832D-01 -0.614417D-01  0.103576D+00
     25 -0.411694D-03  0.302318D-02 -0.288785D-01 -0.166138D-01  0.821006D-01
     26 -0.890595D-03 -0.256618D-01 -0.623839D-01 -0.395215D-01  0.411290D-02
     27  0.912154D-04 -0.100164D-01 -0.234244D-01  0.116871D-01 -0.104960D-02
     28 -0.184205D-02 -0.626011D-01 -0.259431D-01  0.225001D-01 -0.112814D-01
     29 -0.401715D-03 -0.423508D-01  0.103343D-01  0.915507D-02  0.364718D-01
     30  0.896739D-03  0.283175D-01  0.632175D-02  0.572513D-02  0.482329D-01
     31  0.243500D+00 -0.614240D-03  0.117406D-02 -0.448562D-03  0.234771D-03
     32 -0.914904D-01  0.385836D-04 -0.988534D-03  0.655578D-03  0.207298D-03
     33 -0.214502D+00  0.137693D-02  0.248982D-02  0.130092D-03  0.427376D-03
               26            27            28            29            30 
     26  0.215543D+00
     27  0.176358D+00  0.293028D+00
     28  0.281151D-01  0.327697D-01  0.374047D+00
     29 -0.158506D-01 -0.305821D-01 -0.817910D-01  0.100447D+00
     30 -0.349694D-01 -0.214842D-01 -0.717589D-01  0.250857D-01  0.929940D-01
     31  0.834604D-03  0.115327D-02 -0.309369D-03  0.636002D-03  0.159738D-03
     32 -0.209506D-03  0.665090D-03  0.577326D-03 -0.470084D-03  0.301114D-03
     33  0.104076D-02  0.548062D-03  0.153046D-02  0.000000D+00 -0.224028D-03
               31            32            33 
     31  0.260407D+00
     32 -0.115611D+00  0.101135D+00
     33 -0.237693D+00  0.113716D+00  0.216815D+00
 FormGI is forming the generalized inverse of G from B-inverse, IUseBI=4.
 Leave Link  716 at Fri May 23 02:19:20 2025, MaxMem=  3758096384 cpu:               0.0 elap:               0.0
 (Enter /apps/easybuild-2022/easybuild/software/Compiler/NVHPC/22.11-CUDA-11.7.0/Gaussian/g16c01-CUDA-11.7.0/g16/l103.exe)

 GradGradGradGradGradGradGradGradGradGradGradGradGradGradGradGradGradGrad
 Berny optimization.
 Red2BG is reusing G-inverse.
 Internal  Forces:  Max     0.063867156 RMS     0.013422667
 Search for a local minimum.
 Step number   1 out of a maximum of   53
 All quantities printed in internal units (Hartrees-Bohrs-Radians)
 RMS Force = .13423D-01 SwitMx=.10000D-02 MixMth= 1
 Mixed Optimization -- RFO/linear search
 Second derivative matrix not updated -- analytic derivatives used.
 ITU=  0
     Eigenvalues ---   -0.00334  -0.00243   0.00841   0.05530   0.09159
     Eigenvalues ---    0.09627   0.09851   0.10404   0.13079   0.13226
     Eigenvalues ---    0.14678   0.16708   0.20912   0.22491   0.22776
     Eigenvalues ---    0.23953   0.25072   0.33221   0.36740   0.37593
     Eigenvalues ---    0.39082   0.41054   0.48880   0.53835   0.55568
     Eigenvalues ---    0.62005   0.89970
 Eigenvalue     1 is  -3.34D-03 should be greater than     0.000000 Eigenvector:
                          D16       D17       D3        D1        D6
   1                   -0.51533  -0.50891  -0.24823  -0.23540  -0.23479
                          D2        D4        D5        D9        D7
   1                   -0.23221  -0.22196  -0.21877  -0.21466  -0.20183
 Eigenvalue     2 is  -2.43D-03 should be greater than     0.000000 Eigenvector:
                          D17       D16       D2        D1        D8
   1                   -0.48397  -0.45841   0.24086   0.23759   0.23294
                          D7        D5        D3        D4        D9
   1                    0.22967   0.22296   0.22164   0.21969   0.21373
 RFO step:  Lambda=-1.28547754D-02 EMin=-3.34447289D-03
 Linear search not attempted -- first point.
 Iteration  1 RMS(Cart)=  0.17321138 RMS(Int)=  0.04953095
 Iteration  2 RMS(Cart)=  0.06840002 RMS(Int)=  0.00302522
 Iteration  3 RMS(Cart)=  0.00300156 RMS(Int)=  0.00112521
 Iteration  4 RMS(Cart)=  0.00000559 RMS(Int)=  0.00112520
 Iteration  5 RMS(Cart)=  0.00000000 RMS(Int)=  0.00112520
 ITry= 1 IFail=0 DXMaxC= 6.13D-01 DCOld= 1.00D+10 DXMaxT= 3.00D-01 DXLimC= 3.00D+00 Rises=F
 Variable       Old X    -DE/DX   Delta X   Delta X   Delta X     New X
                                 (Linear)    (Quad)   (Total)
    R1        2.93310   0.01131   0.00000  -0.01891  -0.01891   2.91419
    R2        2.52970  -0.00922   0.00000  -0.00407  -0.00407   2.52563
    R3        2.49793  -0.00058   0.00000  -0.00892  -0.00892   2.48901
    R4        2.51338   0.00235   0.00000   0.00937   0.00937   2.52276
    R5        2.53738   0.01351   0.00000   0.01986   0.01986   2.55724
    R6        2.50864   0.00406   0.00000   0.01166   0.01166   2.52031
    R7        3.59887   0.01581   0.00000   0.01751   0.01751   3.61638
    R8        2.76006  -0.00186   0.00000  -0.00773  -0.00773   2.75233
    R9        3.13833   0.00261   0.00000  -0.01992  -0.01992   3.11841
   R10        1.81963   0.00168   0.00000   0.00348   0.00348   1.82311
    A1        1.90394   0.02494   0.00000  -0.00341  -0.00351   1.90044
    A2        1.94996  -0.00875   0.00000   0.00319   0.00317   1.95313
    A3        1.91934  -0.00562   0.00000  -0.01192  -0.01199   1.90735
    A4        1.90239  -0.00573   0.00000   0.02208   0.02203   1.92442
    A5        1.89158  -0.00820   0.00000  -0.01510  -0.01526   1.87632
    A6        1.89568   0.00313   0.00000   0.00487   0.00488   1.90055
    A7        1.89212  -0.00407   0.00000  -0.01818  -0.01931   1.87281
    A8        1.92340  -0.01221   0.00000  -0.00566  -0.00489   1.91852
    A9        2.00764   0.02822   0.00000   0.06003   0.05995   2.06759
   A10        1.90629   0.00198   0.00000   0.01066   0.01076   1.91705
   A11        1.81364  -0.00142   0.00000   0.02143   0.02101   1.83465
   A12        1.91582  -0.01239   0.00000  -0.06717  -0.06670   1.84912
   A13        1.81752   0.00053   0.00000   0.05216   0.05442   1.87194
   A14        1.57209   0.06387   0.00000   0.10406   0.10353   1.67561
   A15        1.92421  -0.01205   0.00000  -0.07859  -0.08246   1.84176
   A16        1.90404   0.00812   0.00000   0.08248   0.08248   1.98652
    D1        1.32026   0.00488   0.00000  -0.29275  -0.29280   1.02746
    D2       -2.87748  -0.00241   0.00000  -0.29421  -0.29420   3.11151
    D3       -0.70071  -0.00737   0.00000  -0.34301  -0.34286  -1.04357
    D4       -2.85845   0.00878   0.00000  -0.26537  -0.26544  -3.12389
    D5       -0.77301   0.00149   0.00000  -0.26683  -0.26684  -1.03985
    D6        1.40376  -0.00347   0.00000  -0.31563  -0.31550   1.08826
    D7       -0.75204   0.00314   0.00000  -0.26521  -0.26535  -1.01739
    D8        1.33340  -0.00414   0.00000  -0.26668  -0.26675   1.06665
    D9       -2.77301  -0.00911   0.00000  -0.31547  -0.31541  -3.08842
   D10       -0.86181   0.00664   0.00000  -0.00510  -0.00568  -0.86749
   D11        1.07429   0.01146   0.00000  -0.05330  -0.05107   1.02323
   D12       -2.92731  -0.00248   0.00000  -0.02908  -0.03104  -2.95835
   D13       -0.99120   0.00234   0.00000  -0.07727  -0.07643  -1.06763
   D14        1.31892   0.00166   0.00000  -0.02193  -0.02360   1.29532
   D15       -3.02816   0.00648   0.00000  -0.07013  -0.06899  -3.09715
   D16        0.74542  -0.00920   0.00000  -0.17869  -0.17571   0.56970
   D17        2.58006   0.01458   0.00000  -0.09098  -0.09395   2.48610
         Item               Value     Threshold  Converged?
 Maximum Force            0.063867     0.000015     NO 
 RMS     Force            0.013423     0.000010     NO 
 Maximum Displacement     0.612842     0.000060     NO 
 RMS     Displacement     0.228788     0.000040     NO 
 Predicted change in Energy=-9.263222D-03
 Lowest energy point so far.  Saving SCF results.
 GradGradGradGradGradGradGradGradGradGradGradGradGradGradGradGradGradGrad

 Leave Link  103 at Fri May 23 02:19:20 2025, MaxMem=  3758096384 cpu:               0.0 elap:               0.0
 (Enter /apps/easybuild-2022/easybuild/software/Compiler/NVHPC/22.11-CUDA-11.7.0/Gaussian/g16c01-CUDA-11.7.0/g16/l202.exe)
                          Input orientation:                          
 ---------------------------------------------------------------------
 Center     Atomic      Atomic             Coordinates (Angstroms)
 Number     Number       Type             X           Y           Z
 ---------------------------------------------------------------------
      1          6           0       -0.713109    0.693793   -1.217329
      2          6           0       -0.045123    0.029198    0.003427
      3          9           0       -0.390026    0.752073    1.094175
      4          9           0       -0.482050   -1.224074    0.134310
      5         16           0        1.865207   -0.071879    0.055273
      6          8           0        2.303679   -0.618889   -1.221374
      7          8           0        2.126991    1.554162   -0.047635
      8          9           0       -0.290004    1.958391   -1.306905
      9          9           0       -0.452349    0.045410   -2.333767
     10          9           0       -2.035092    0.724693   -1.034049
     11          1           0        1.444034    2.086439    0.377794
 ---------------------------------------------------------------------
                    Distance matrix (angstroms):
                    1          2          3          4          5
     1  C    0.000000
     2  C    1.542121   0.000000
     3  F    2.334702   1.353233   0.000000
     4  F    2.357653   1.333688   2.198856   0.000000
     5  S    2.975481   1.913705   2.616160   2.615993   0.000000
     6  O    3.290009   2.727091   3.807539   3.156647   1.456470
     7  O    3.189763   2.654468   2.877924   3.815599   1.650191
     8  F    1.336507   2.344936   2.688939   3.498866   3.259211
     9  F    1.317129   2.372461   3.500578   2.775586   3.330516
    10  F    1.334985   2.349478   2.690043   2.752216   4.127164
    11  H    3.022772   2.567096   2.378553   3.837784   2.222554
                    6          7          8          9         10
     6  O    0.000000
     7  O    2.476092   0.000000
     8  F    3.657442   2.755181   0.000000
     9  F    3.045390   3.762410   2.177223   0.000000
    10  F    4.545903   4.357059   2.154482   2.157723   0.000000
    11  H    3.258087   0.964748   2.421052   3.887754   3.993992
                   11
    11  H    0.000000
 Symmetry turned off by external request.
 Stoichiometry    C2HF5O2S
 Rotational constants (GHZ):           1.6712166           0.9795228           0.9515244
 Leave Link  202 at Fri May 23 02:19:20 2025, MaxMem=  3758096384 cpu:               0.0 elap:               0.0
 (Enter /apps/easybuild-2022/easybuild/software/Compiler/NVHPC/22.11-CUDA-11.7.0/Gaussian/g16c01-CUDA-11.7.0/g16/l301.exe)
 Standard basis: 6-311++G(d,p) (5D, 7F)
 Ernie: Thresh=  0.10000D-02 Tol=  0.10000D-05 Strict=F.
   235 basis functions,   383 primitive gaussians,   245 cartesian basis functions
    45 alpha electrons       45 beta electrons
       nuclear repulsion energy       777.5771450040 Hartrees.
 IExCor= 4639 DFT=T Ex+Corr=wB97XD ExCW=0 ScaHFX=  1.000000
 ScaDFX=  1.000000  1.000000  1.000000  1.000000 ScalE2=  1.000000  1.000000
 IRadAn=      5 IRanWt=     -1 IRanGd=            0 ICorTp=0 IEmpDi=121
 HFx  wShort=  0.000000 wLong=  0.200000 cFull=  0.222036 cShort=  0.000000 cLong=  0.777964
 DFx  wShort=  0.000000 wLong=  0.200000 cFull=  0.000000 cShort=  0.000000 cLong=  1.000000
 NAtoms=   11 NActive=   11 NUniq=   11 SFac= 1.00D+00 NAtFMM=   60 NAOKFM=F Big=F
 Integral buffers will be    131072 words long.
 Raffenetti 2 integral format.
 Two-electron integral symmetry is turned off.
 R6Disp:  Grimme-D2 Dispersion energy=       -0.0050257531 Hartrees.
 Nuclear repulsion after empirical dispersion term =      777.5721192509 Hartrees.
 Leave Link  301 at Fri May 23 02:19:20 2025, MaxMem=  3758096384 cpu:               0.0 elap:               0.0
 (Enter /apps/easybuild-2022/easybuild/software/Compiler/NVHPC/22.11-CUDA-11.7.0/Gaussian/g16c01-CUDA-11.7.0/g16/l302.exe)
 NPDir=0 NMtPBC=     1 NCelOv=     1 NCel=       1 NClECP=     1 NCelD=      1
         NCelK=      1 NCelE2=     1 NClLst=     1 CellRange=     0.0.
 One-electron integrals computed using PRISM.
 NBasis=   235 RedAO= T EigKep=  6.58D-05  NBF=   235
 NBsUse=   235 1.00D-06 EigRej= -1.00D+00 NBFU=   235
 Precomputing XC quadrature grid using
 IXCGrd= 4 IRadAn=           5 IRanWt=          -1 IRanGd=           0 AccXCQ= 0.00D+00.
 Generated NRdTot=       0 NPtTot=           0 NUsed=           0 NTot=          32
 NSgBfM=   245   245   245   245   245 MxSgAt=    11 MxSgA2=    11.
 Leave Link  302 at Fri May 23 02:19:20 2025, MaxMem=  3758096384 cpu:               0.4 elap:               0.1
 (Enter /apps/easybuild-2022/easybuild/software/Compiler/NVHPC/22.11-CUDA-11.7.0/Gaussian/g16c01-CUDA-11.7.0/g16/l303.exe)
 DipDrv:  MaxL=1.
 Leave Link  303 at Fri May 23 02:19:20 2025, MaxMem=  3758096384 cpu:               0.0 elap:               0.0
 (Enter /apps/easybuild-2022/easybuild/software/Compiler/NVHPC/22.11-CUDA-11.7.0/Gaussian/g16c01-CUDA-11.7.0/g16/l401.exe)
 Initial guess from the checkpoint file:  "/tmp/Gau-160656.chk"
 B after Tr=    -0.050393   -0.065569    0.011187
         Rot=    0.999829   -0.015136    0.009197   -0.005260 Ang=  -2.12 deg.
 Guess basis will be translated and rotated to current coordinates.
 JPrj=2 DoOrth=T DoCkMO=T.
 Generating alternative initial guess.
 ExpMin= 3.60D-02 ExpMax= 9.34D+04 ExpMxC= 3.17D+03 IAcc=3 IRadAn=         5 AccDes= 0.00D+00
 Harris functional with IExCor= 4639 and IRadAn=       5 diagonalized for initial guess.
 HarFok:  IExCor= 4639 AccDes= 0.00D+00 IRadAn=         5 IDoV= 1 UseB2=F ITyADJ=14
 ICtDFT=  3500011 ScaDFX=  1.000000  1.000000  1.000000  1.000000
 FoFCou: FMM=F IPFlag=           0 FMFlag=      100000 FMFlg1=           0
         NFxFlg=           0 DoJE=T BraDBF=F KetDBF=T FulRan=T
         wScrn=  0.000000 ICntrl=       500 IOpCl=  0 I1Cent=   200000004 NGrid=           0
         NMat0=    1 NMatS0=      1 NMatT0=    0 NMatD0=    1 NMtDS0=    0 NMtDT0=    0
 Symmetry not used in FoFCou.
 Harris En= -1094.38937703018    
 Leave Link  401 at Fri May 23 02:19:20 2025, MaxMem=  3758096384 cpu:               2.3 elap:               0.3
 (Enter /apps/easybuild-2022/easybuild/software/Compiler/NVHPC/22.11-CUDA-11.7.0/Gaussian/g16c01-CUDA-11.7.0/g16/l502.exe)
 Keep R1 ints in memory in canonical form, NReq=784160149.
 FoFCou: FMM=F IPFlag=           0 FMFlag=           0 FMFlg1=           0
         NFxFlg=           0 DoJE=F BraDBF=F KetDBF=F FulRan=T
         wScrn=  0.000000 ICntrl=       600 IOpCl=  0 I1Cent=           0 NGrid=           0
         NMat0=    1 NMatS0=  27730 NMatT0=    0 NMatD0=    1 NMtDS0=    0 NMtDT0=    0
 Symmetry not used in FoFCou.
 Two-electron integral symmetry not used.
 Closed shell SCF:
 Using DIIS extrapolation, IDIIS=  1040.
 NGot=  3758096384 LenX=  2988991759 LenY=  2988931293
 Requested convergence on RMS density matrix=1.00D-08 within  32 cycles.
 Requested convergence on MAX density matrix=1.00D-06.
 Requested convergence on             energy=1.00D-06.
 No special actions if energy rises.

 Cycle   1  Pass 1  IDiag  1:
 E= -1124.47499548391    
 DIIS: error= 1.26D-02 at cycle   1 NSaved=   1.
 NSaved= 1 IEnMin= 1 EnMin= -1124.47499548391     IErMin= 1 ErrMin= 1.26D-02
 ErrMax= 1.26D-02  0.00D+00 EMaxC= 1.00D-01 BMatC= 8.92D-02 BMatP= 8.92D-02
 IDIUse=3 WtCom= 8.74D-01 WtEn= 1.26D-01
 Coeff-Com:  0.100D+01
 Coeff-En:   0.100D+01
 Coeff:      0.100D+01
 Recover alternate guess density for next cycle.
 RMSDP=8.19D-03 MaxDP=4.33D-01              OVMax= 0.00D+00

 Cycle   2  Pass 1  IDiag  1:
 E= -1123.96549410074     Delta-E=        0.509501383172 Rises=F Damp=F
 Switch densities from cycles 1 and 2 for lowest energy.
 DIIS: error= 1.42D-01 at cycle   2 NSaved=   2.
 NSaved= 2 IEnMin= 1 EnMin= -1124.47499548391     IErMin= 1 ErrMin= 1.26D-02
 ErrMax= 1.42D-01  0.00D+00 EMaxC= 1.00D+00 BMatC= 3.13D+00 BMatP= 8.92D-02
 IDIUse=1 WtCom= 1.00D+00 WtEn= 0.00D+00
 Coeff-Com:  0.971D+00 0.294D-01
 Coeff:      0.971D+00 0.294D-01
 Gap=     0.422 Goal=   None    Shift=    0.000
 RMSDP=2.68D-03 MaxDP=9.91D-02 DE= 5.10D-01 OVMax= 1.55D-01

 Cycle   3  Pass 1  IDiag  1:
 E= -1124.60361285281     Delta-E=       -0.638118752069 Rises=F Damp=F
 DIIS: error= 3.27D-03 at cycle   3 NSaved=   3.
 NSaved= 3 IEnMin= 3 EnMin= -1124.60361285281     IErMin= 3 ErrMin= 3.27D-03
 ErrMax= 3.27D-03  0.00D+00 EMaxC= 1.00D+00 BMatC= 4.71D-03 BMatP= 8.92D-02
 IDIUse=1 WtCom= 1.00D+00 WtEn= 0.00D+00
 Coeff-Com: -0.114D+00 0.783D-02 0.111D+01
 Coeff:     -0.114D+00 0.783D-02 0.111D+01
 Gap=     0.390 Goal=   None    Shift=    0.000
 RMSDP=6.60D-04 MaxDP=1.56D-02 DE=-6.38D-01 OVMax= 2.29D-02

 Cycle   4  Pass 1  IDiag  1:
 E= -1124.60847912737     Delta-E=       -0.004866274557 Rises=F Damp=F
 DIIS: error= 2.36D-03 at cycle   4 NSaved=   4.
 NSaved= 4 IEnMin= 4 EnMin= -1124.60847912737     IErMin= 4 ErrMin= 2.36D-03
 ErrMax= 2.36D-03  0.00D+00 EMaxC= 1.00D+00 BMatC= 3.44D-03 BMatP= 4.71D-03
 IDIUse=1 WtCom= 1.00D+00 WtEn= 0.00D+00
 Coeff-Com: -0.939D-01 0.320D-02 0.564D+00 0.526D+00
 Coeff:     -0.939D-01 0.320D-02 0.564D+00 0.526D+00
 Gap=     0.384 Goal=   None    Shift=    0.000
 RMSDP=2.68D-04 MaxDP=6.54D-03 DE=-4.87D-03 OVMax= 1.32D-02

 Cycle   5  Pass 1  IDiag  1:
 E= -1124.61071729214     Delta-E=       -0.002238164772 Rises=F Damp=F
 DIIS: error= 5.18D-04 at cycle   5 NSaved=   5.
 NSaved= 5 IEnMin= 5 EnMin= -1124.61071729214     IErMin= 5 ErrMin= 5.18D-04
 ErrMax= 5.18D-04  0.00D+00 EMaxC= 1.00D+00 BMatC= 1.73D-04 BMatP= 3.44D-03
 IDIUse=1 WtCom= 1.00D+00 WtEn= 0.00D+00
 Coeff-Com: -0.129D-01-0.315D-03 0.321D-01 0.181D+00 0.800D+00
 Coeff:     -0.129D-01-0.315D-03 0.321D-01 0.181D+00 0.800D+00
 Gap=     0.385 Goal=   None    Shift=    0.000
 RMSDP=7.87D-05 MaxDP=2.22D-03 DE=-2.24D-03 OVMax= 3.69D-03

 Cycle   6  Pass 1  IDiag  1:
 E= -1124.61083357696     Delta-E=       -0.000116284822 Rises=F Damp=F
 DIIS: error= 2.35D-04 at cycle   6 NSaved=   6.
 NSaved= 6 IEnMin= 6 EnMin= -1124.61083357696     IErMin= 6 ErrMin= 2.35D-04
 ErrMax= 2.35D-04  0.00D+00 EMaxC= 1.00D+00 BMatC= 3.98D-05 BMatP= 1.73D-04
 IDIUse=1 WtCom= 1.00D+00 WtEn= 0.00D+00
 Coeff-Com:  0.224D-02-0.533D-03-0.367D-01 0.511D-01 0.427D+00 0.557D+00
 Coeff:      0.224D-02-0.533D-03-0.367D-01 0.511D-01 0.427D+00 0.557D+00
 Gap=     0.385 Goal=   None    Shift=    0.000
 RMSDP=2.98D-05 MaxDP=7.77D-04 DE=-1.16D-04 OVMax= 1.63D-03

 Cycle   7  Pass 1  IDiag  1:
 E= -1124.61086127245     Delta-E=       -0.000027695486 Rises=F Damp=F
 DIIS: error= 6.55D-05 at cycle   7 NSaved=   7.
 NSaved= 7 IEnMin= 7 EnMin= -1124.61086127245     IErMin= 7 ErrMin= 6.55D-05
 ErrMax= 6.55D-05  0.00D+00 EMaxC= 1.00D+00 BMatC= 2.73D-06 BMatP= 3.98D-05
 IDIUse=1 WtCom= 1.00D+00 WtEn= 0.00D+00
 Coeff-Com:  0.263D-02-0.626D-05-0.215D-01-0.333D-02 0.658D-01 0.229D+00
 Coeff-Com:  0.728D+00
 Coeff:      0.263D-02-0.626D-05-0.215D-01-0.333D-02 0.658D-01 0.229D+00
 Coeff:      0.728D+00
 Gap=     0.385 Goal=   None    Shift=    0.000
 RMSDP=1.15D-05 MaxDP=2.58D-04 DE=-2.77D-05 OVMax= 6.45D-04

 Cycle   8  Pass 1  IDiag  1:
 E= -1124.61086383634     Delta-E=       -0.000002563891 Rises=F Damp=F
 DIIS: error= 1.83D-05 at cycle   8 NSaved=   8.
 NSaved= 8 IEnMin= 8 EnMin= -1124.61086383634     IErMin= 8 ErrMin= 1.83D-05
 ErrMax= 1.83D-05  0.00D+00 EMaxC= 1.00D+00 BMatC= 2.25D-07 BMatP= 2.73D-06
 IDIUse=1 WtCom= 1.00D+00 WtEn= 0.00D+00
 Coeff-Com:  0.797D-03 0.414D-04-0.543D-02-0.508D-02-0.917D-02 0.437D-01
 Coeff-Com:  0.267D+00 0.709D+00
 Coeff:      0.797D-03 0.414D-04-0.543D-02-0.508D-02-0.917D-02 0.437D-01
 Coeff:      0.267D+00 0.709D+00
 Gap=     0.385 Goal=   None    Shift=    0.000
 RMSDP=4.98D-06 MaxDP=1.55D-04 DE=-2.56D-06 OVMax= 2.83D-04

 Cycle   9  Pass 1  IDiag  1:
 E= -1124.61086413663     Delta-E=       -0.000000300287 Rises=F Damp=F
 DIIS: error= 9.43D-06 at cycle   9 NSaved=   9.
 NSaved= 9 IEnMin= 9 EnMin= -1124.61086413663     IErMin= 9 ErrMin= 9.43D-06
 ErrMax= 9.43D-06  0.00D+00 EMaxC= 1.00D+00 BMatC= 4.46D-08 BMatP= 2.25D-07
 IDIUse=1 WtCom= 1.00D+00 WtEn= 0.00D+00
 Coeff-Com: -0.284D-03-0.150D-05 0.307D-02-0.889D-03-0.197D-01-0.376D-01
 Coeff-Com: -0.753D-01 0.268D+00 0.862D+00
 Coeff:     -0.284D-03-0.150D-05 0.307D-02-0.889D-03-0.197D-01-0.376D-01
 Coeff:     -0.753D-01 0.268D+00 0.862D+00
 Gap=     0.385 Goal=   None    Shift=    0.000
 RMSDP=3.27D-06 MaxDP=8.64D-05 DE=-3.00D-07 OVMax= 2.46D-04

 Cycle  10  Pass 1  IDiag  1:
 E= -1124.61086422784     Delta-E=       -0.000000091213 Rises=F Damp=F
 DIIS: error= 1.81D-06 at cycle  10 NSaved=  10.
 NSaved=10 IEnMin=10 EnMin= -1124.61086422784     IErMin=10 ErrMin= 1.81D-06
 ErrMax= 1.81D-06  0.00D+00 EMaxC= 1.00D+00 BMatC= 2.51D-09 BMatP= 4.46D-08
 IDIUse=1 WtCom= 1.00D+00 WtEn= 0.00D+00
 Coeff-Com: -0.109D-03 0.785D-07 0.849D-03 0.741D-03-0.797D-03-0.742D-02
 Coeff-Com: -0.326D-01-0.514D-01 0.607D-01 0.103D+01
 Coeff:     -0.109D-03 0.785D-07 0.849D-03 0.741D-03-0.797D-03-0.742D-02
 Coeff:     -0.326D-01-0.514D-01 0.607D-01 0.103D+01
 Gap=     0.385 Goal=   None    Shift=    0.000
 RMSDP=1.28D-06 MaxDP=3.27D-05 DE=-9.12D-08 OVMax= 9.59D-05

 Cycle  11  Pass 1  IDiag  1:
 E= -1124.61086423778     Delta-E=       -0.000000009937 Rises=F Damp=F
 DIIS: error= 7.57D-07 at cycle  11 NSaved=  11.
 NSaved=11 IEnMin=11 EnMin= -1124.61086423778     IErMin=11 ErrMin= 7.57D-07
 ErrMax= 7.57D-07  0.00D+00 EMaxC= 1.00D+00 BMatC= 4.38D-10 BMatP= 2.51D-09
 IDIUse=1 WtCom= 1.00D+00 WtEn= 0.00D+00
 Coeff-Com: -0.772D-05 0.460D-06-0.390D-04 0.306D-03 0.153D-02 0.142D-02
 Coeff-Com: -0.179D-02-0.433D-01-0.718D-01 0.286D+00 0.827D+00
 Coeff:     -0.772D-05 0.460D-06-0.390D-04 0.306D-03 0.153D-02 0.142D-02
 Coeff:     -0.179D-02-0.433D-01-0.718D-01 0.286D+00 0.827D+00
 Gap=     0.385 Goal=   None    Shift=    0.000
 RMSDP=3.91D-07 MaxDP=9.92D-06 DE=-9.94D-09 OVMax= 2.70D-05

 Cycle  12  Pass 1  IDiag  1:
 E= -1124.61086423874     Delta-E=       -0.000000000970 Rises=F Damp=F
 DIIS: error= 4.34D-07 at cycle  12 NSaved=  12.
 NSaved=12 IEnMin=12 EnMin= -1124.61086423874     IErMin=12 ErrMin= 4.34D-07
 ErrMax= 4.34D-07  0.00D+00 EMaxC= 1.00D+00 BMatC= 1.01D-10 BMatP= 4.38D-10
 IDIUse=1 WtCom= 1.00D+00 WtEn= 0.00D+00
 Coeff-Com:  0.176D-04-0.421D-07-0.179D-03-0.190D-04 0.786D-03 0.199D-02
 Coeff-Com:  0.568D-02-0.924D-02-0.415D-01-0.624D-01 0.349D+00 0.756D+00
 Coeff:      0.176D-04-0.421D-07-0.179D-03-0.190D-04 0.786D-03 0.199D-02
 Coeff:      0.568D-02-0.924D-02-0.415D-01-0.624D-01 0.349D+00 0.756D+00
 Gap=     0.385 Goal=   None    Shift=    0.000
 RMSDP=1.41D-07 MaxDP=3.32D-06 DE=-9.70D-10 OVMax= 9.94D-06

 Cycle  13  Pass 1  IDiag  1:
 E= -1124.61086423887     Delta-E=       -0.000000000123 Rises=F Damp=F
 DIIS: error= 9.92D-08 at cycle  13 NSaved=  13.
 NSaved=13 IEnMin=13 EnMin= -1124.61086423887     IErMin=13 ErrMin= 9.92D-08
 ErrMax= 9.92D-08  0.00D+00 EMaxC= 1.00D+00 BMatC= 7.92D-12 BMatP= 1.01D-10
 IDIUse=1 WtCom= 1.00D+00 WtEn= 0.00D+00
 Coeff-Com:  0.590D-05-0.573D-07-0.498D-04-0.316D-04 0.113D-03 0.459D-03
 Coeff-Com:  0.192D-02 0.900D-03-0.554D-02-0.421D-01 0.338D-01 0.236D+00
 Coeff-Com:  0.774D+00
 Coeff:      0.590D-05-0.573D-07-0.498D-04-0.316D-04 0.113D-03 0.459D-03
 Coeff:      0.192D-02 0.900D-03-0.554D-02-0.421D-01 0.338D-01 0.236D+00
 Coeff:      0.774D+00
 Gap=     0.385 Goal=   None    Shift=    0.000
 RMSDP=2.99D-08 MaxDP=6.77D-07 DE=-1.23D-10 OVMax= 2.04D-06

 Cycle  14  Pass 1  IDiag  1:
 E= -1124.61086423889     Delta-E=       -0.000000000020 Rises=F Damp=F
 DIIS: error= 4.66D-08 at cycle  14 NSaved=  14.
 NSaved=14 IEnMin=14 EnMin= -1124.61086423889     IErMin=14 ErrMin= 4.66D-08
 ErrMax= 4.66D-08  0.00D+00 EMaxC= 1.00D+00 BMatC= 1.38D-12 BMatP= 7.92D-12
 IDIUse=1 WtCom= 1.00D+00 WtEn= 0.00D+00
 Coeff-Com: -0.138D-05-0.172D-07 0.179D-04-0.799D-05-0.120D-03-0.248D-03
 Coeff-Com: -0.439D-03 0.219D-02 0.654D-02-0.590D-02-0.605D-01-0.632D-01
 Coeff-Com:  0.281D+00 0.840D+00
 Coeff:     -0.138D-05-0.172D-07 0.179D-04-0.799D-05-0.120D-03-0.248D-03
 Coeff:     -0.439D-03 0.219D-02 0.654D-02-0.590D-02-0.605D-01-0.632D-01
 Coeff:      0.281D+00 0.840D+00
 Gap=     0.385 Goal=   None    Shift=    0.000
 RMSDP=1.74D-08 MaxDP=6.42D-07 DE=-2.00D-11 OVMax= 1.08D-06

 Cycle  15  Pass 1  IDiag  1:
 E= -1124.61086423894     Delta-E=       -0.000000000055 Rises=F Damp=F
 DIIS: error= 5.49D-09 at cycle  15 NSaved=  15.
 NSaved=15 IEnMin=15 EnMin= -1124.61086423894     IErMin=15 ErrMin= 5.49D-09
 ErrMax= 5.49D-09  0.00D+00 EMaxC= 1.00D+00 BMatC= 2.78D-14 BMatP= 1.38D-12
 IDIUse=1 WtCom= 1.00D+00 WtEn= 0.00D+00
 Coeff-Com: -0.231D-06 0.664D-08 0.188D-05 0.191D-05-0.328D-05-0.194D-04
 Coeff-Com: -0.626D-04-0.102D-03 0.180D-03 0.226D-02-0.865D-03-0.989D-02
 Coeff-Com: -0.349D-01 0.439D-02 0.104D+01
 Coeff:     -0.231D-06 0.664D-08 0.188D-05 0.191D-05-0.328D-05-0.194D-04
 Coeff:     -0.626D-04-0.102D-03 0.180D-03 0.226D-02-0.865D-03-0.989D-02
 Coeff:     -0.349D-01 0.439D-02 0.104D+01
 Gap=     0.385 Goal=   None    Shift=    0.000
 RMSDP=3.00D-09 MaxDP=5.07D-08 DE=-5.46D-11 OVMax= 1.65D-07

 SCF Done:  E(RwB97XD) =  -1124.61086424     A.U. after   15 cycles
            NFock= 15  Conv=0.30D-08     -V/T= 2.0019
 KE= 1.122452528188D+03 PE=-4.225507862721D+03 EE= 1.200872351043D+03
 Leave Link  502 at Fri May 23 02:19:31 2025, MaxMem=  3758096384 cpu:              53.9 elap:              10.2
 (Enter /apps/easybuild-2022/easybuild/software/Compiler/NVHPC/22.11-CUDA-11.7.0/Gaussian/g16c01-CUDA-11.7.0/g16/l508.exe)
 QCSCF skips out because SCF is already converged.
 Leave Link  508 at Fri May 23 02:19:31 2025, MaxMem=  3758096384 cpu:               0.0 elap:               0.0
 (Enter /apps/easybuild-2022/easybuild/software/Compiler/NVHPC/22.11-CUDA-11.7.0/Gaussian/g16c01-CUDA-11.7.0/g16/l701.exe)
 ... and contract with generalized density number  0.
 Compute integral first derivatives.
 R6Disp: Adding Grimme-D2 dispersion energy 1st derivatives to the gradient.
 Leave Link  701 at Fri May 23 02:19:31 2025, MaxMem=  3758096384 cpu:               0.3 elap:               0.1
 (Enter /apps/easybuild-2022/easybuild/software/Compiler/NVHPC/22.11-CUDA-11.7.0/Gaussian/g16c01-CUDA-11.7.0/g16/l702.exe)
 L702 exits ... SP integral derivatives will be done elsewhere.
 Leave Link  702 at Fri May 23 02:19:31 2025, MaxMem=  3758096384 cpu:               0.0 elap:               0.0
 (Enter /apps/easybuild-2022/easybuild/software/Compiler/NVHPC/22.11-CUDA-11.7.0/Gaussian/g16c01-CUDA-11.7.0/g16/l703.exe)
 Integral derivatives from FoFJK, PRISM(SPDF).
 Compute integral first derivatives, UseDBF=F ICtDFT=           0.
 Calling FoFJK, ICntrl=      2127 FMM=F ISym2X=0 I1Cent= 0 IOpClX= 0 NMat=1 NMatS=1 NMatT=0.
 FoFJK:  IHMeth= 1 ICntrl=    2127 DoSepK=T KAlg= 0 I1Cent=           0 FoldK=F
 IRaf=         1 NMat=       1 IRICut=       1 DoRegI=T DoRafI=F ISym2E= 0 IDoP0=0 IntGTp=1.
 FoFCou: FMM=F IPFlag=           0 FMFlag=      100000 FMFlg1=         800
         NFxFlg=           0 DoJE=F BraDBF=F KetDBF=F FulRan=T
         wScrn=  0.000000 ICntrl=      2527 IOpCl=  0 I1Cent=           0 NGrid=           0
         NMat0=    1 NMatS0=      1 NMatT0=    0 NMatD0=    1 NMtDS0=    0 NMtDT0=    0
 Symmetry not used in FoFCou.
 Leave Link  703 at Fri May 23 02:19:34 2025, MaxMem=  3758096384 cpu:              25.3 elap:               3.2
 (Enter /apps/easybuild-2022/easybuild/software/Compiler/NVHPC/22.11-CUDA-11.7.0/Gaussian/g16c01-CUDA-11.7.0/g16/l716.exe)
 Dipole        =-4.09833561D-01 4.54840931D-01 9.75807839D-01
 -------------------------------------------------------------------
 Center     Atomic                   Forces (Hartrees/Bohr)
 Number     Number              X              Y              Z
 -------------------------------------------------------------------
      1        6          -0.004282750    0.002543784    0.002400661
      2        6           0.002374591    0.000993657    0.000250293
      3        9          -0.001168957   -0.001903536    0.002010258
      4        9          -0.000978901    0.000357474    0.001134941
      5       16           0.000067575   -0.001891193   -0.002578628
      6        8           0.000431408   -0.001766836    0.000011559
      7        8           0.000914013    0.002612790    0.001251211
      8        9          -0.000410866   -0.000827411   -0.004091646
      9        9           0.001808244    0.000704350   -0.000852900
     10        9           0.000009206   -0.001459658   -0.000848099
     11        1           0.001236436    0.000636579    0.001312351
 -------------------------------------------------------------------
 Cartesian Forces:  Max     0.004282750 RMS     0.001741041
 Leave Link  716 at Fri May 23 02:19:34 2025, MaxMem=  3758096384 cpu:               0.0 elap:               0.0
 (Enter /apps/easybuild-2022/easybuild/software/Compiler/NVHPC/22.11-CUDA-11.7.0/Gaussian/g16c01-CUDA-11.7.0/g16/l103.exe)

 GradGradGradGradGradGradGradGradGradGradGradGradGradGradGradGradGradGrad
 Berny optimization.
 Using GEDIIS/GDIIS optimizer.
 FormGI is forming the generalized inverse of G from B-inverse, IUseBI=4.
 Internal  Forces:  Max     0.007025756 RMS     0.002312588
 Search for a local minimum.
 Step number   2 out of a maximum of   53
 All quantities printed in internal units (Hartrees-Bohrs-Radians)
 RMS Force = .23126D-02 SwitMx=.10000D-02 MixMth= 1
 Mixed Optimization -- RFO/linear search
 Update second derivatives using D2CorX and points    1    2
 DE= -7.84D-03 DEPred=-9.26D-03 R= 8.46D-01
 TightC=F SS=  1.41D+00  RLast= 9.30D-01 DXNew= 5.0454D-01 2.7911D+00
 Trust test= 8.46D-01 RLast= 9.30D-01 DXMaxT set to 5.05D-01
 ITU=  1  0
 Use linear search instead of GDIIS.
     Eigenvalues ---   -0.00827  -0.00263   0.00850   0.05341   0.09119
     Eigenvalues ---    0.09212   0.09737   0.10718   0.13073   0.13515
     Eigenvalues ---    0.14469   0.16709   0.20808   0.22025   0.22828
     Eigenvalues ---    0.23927   0.24933   0.33176   0.35258   0.36828
     Eigenvalues ---    0.38739   0.39168   0.47442   0.53254   0.54493
     Eigenvalues ---    0.61066   0.62665
 Eigenvalue     1 is  -8.27D-03 should be greater than     0.000000 Eigenvector:
                          D1        D2        D4        D5        D3
   1                    0.33500   0.32535   0.31264   0.30299   0.29132
                          D7        D8        D6        D17       D9
   1                    0.28744   0.27779   0.26896   0.25736   0.24376
 Eigenvalue     2 is  -2.63D-03 should be greater than     0.000000 Eigenvector:
                          D17       D16       D8        D11       D7
   1                   -0.65916  -0.64775   0.11458   0.11425   0.11045
                          D13       D2        D1        D5        D15
   1                    0.10973   0.10692   0.10278   0.09766   0.09451
 RFO step:  Lambda=-8.56665736D-03 EMin=-8.26703971D-03
 I=     1 Eig=   -8.27D-03 Dot1=  8.92D-04
 I=     1 Stepn=  6.00D-01 RXN=   6.00D-01 EDone=F
 I=     2 Eig=   -2.63D-03 Dot1= -4.08D-04
 I=     2 Stepn= -3.00D-01 RXN=   6.71D-01 EDone=F
 Mixed    2 eigenvectors in step.  Raw Step.Grad=  1.30D-03.
 RFO eigenvector is Hessian eigenvector with negative curvature.
 Taking step of  6.00D-01 in eigenvector direction(s).  Step.Grad=  2.39D-04.
 Quartic linear search produced a step of  0.05685.
 Iteration  1 RMS(Cart)=  0.10107944 RMS(Int)=  0.02286144
 Iteration  2 RMS(Cart)=  0.02445263 RMS(Int)=  0.00119163
 Iteration  3 RMS(Cart)=  0.00108268 RMS(Int)=  0.00017082
 Iteration  4 RMS(Cart)=  0.00000196 RMS(Int)=  0.00017081
 Iteration  5 RMS(Cart)=  0.00000000 RMS(Int)=  0.00017081
 ITry= 1 IFail=0 DXMaxC= 4.35D-01 DCOld= 1.00D+10 DXMaxT= 5.05D-01 DXLimC= 3.00D+00 Rises=F
 Variable       Old X    -DE/DX   Delta X   Delta X   Delta X     New X
                                 (Linear)    (Quad)   (Total)
    R1        2.91419   0.00435  -0.00107   0.00974   0.00867   2.92286
    R2        2.52563  -0.00064  -0.00023  -0.01922  -0.01945   2.50618
    R3        2.48901   0.00073  -0.00051   0.00924   0.00873   2.49775
    R4        2.52276  -0.00016   0.00053   0.00182   0.00236   2.52511
    R5        2.55724   0.00090   0.00113   0.00937   0.01050   2.56774
    R6        2.52031   0.00010   0.00066   0.00605   0.00672   2.52702
    R7        3.61638   0.00267   0.00100  -0.00462  -0.00363   3.61275
    R8        2.75233   0.00078  -0.00044  -0.00332  -0.00376   2.74857
    R9        3.11841   0.00338  -0.00113   0.00902   0.00788   3.12629
   R10        1.82311   0.00005   0.00020   0.00564   0.00584   1.82895
    A1        1.90044   0.00634  -0.00020   0.02782   0.02761   1.92804
    A2        1.95313  -0.00202   0.00018  -0.02998  -0.02980   1.92333
    A3        1.90735  -0.00002  -0.00068   0.00053  -0.00038   1.90697
    A4        1.92442  -0.00367   0.00125  -0.00715  -0.00569   1.91873
    A5        1.87632  -0.00078  -0.00087   0.00955   0.00843   1.88475
    A6        1.90055   0.00019   0.00028   0.00074   0.00081   1.90136
    A7        1.87281   0.00178  -0.00110   0.01658   0.01536   1.88817
    A8        1.91852  -0.00192  -0.00028  -0.00391  -0.00414   1.91438
    A9        2.06759   0.00235   0.00341  -0.00167   0.00166   2.06925
   A10        1.91705  -0.00140   0.00061  -0.01156  -0.01091   1.90614
   A11        1.83465  -0.00022   0.00119   0.00362   0.00468   1.83933
   A12        1.84912  -0.00078  -0.00379  -0.00421  -0.00798   1.84113
   A13        1.87194  -0.00113   0.00309   0.01959   0.02302   1.89496
   A14        1.67561   0.00703   0.00589   0.01891   0.02473   1.70034
   A15        1.84176   0.00109  -0.00469  -0.02967  -0.03482   1.80694
   A16        1.98652   0.00143   0.00469  -0.01943  -0.01474   1.97178
    D1        1.02746   0.00253  -0.01664   0.15220   0.13571   1.16317
    D2        3.11151   0.00082  -0.01672   0.14591   0.12930  -3.04238
    D3       -1.04357  -0.00012  -0.01949   0.13549   0.11610  -0.92747
    D4       -3.12389   0.00094  -0.01509   0.14269   0.12751  -2.99638
    D5       -1.03985  -0.00077  -0.01517   0.13640   0.12111  -0.91874
    D6        1.08826  -0.00170  -0.01793   0.12597   0.10791   1.19617
    D7       -1.01739  -0.00014  -0.01508   0.12462   0.10955  -0.90784
    D8        1.06665  -0.00185  -0.01516   0.11833   0.10315   1.16980
    D9       -3.08842  -0.00279  -0.01793   0.10790   0.08994  -2.99848
   D10       -0.86749   0.00079  -0.00032   0.06040   0.05995  -0.80754
[...]
    R9        3.13664   0.00000   0.00000   0.00000   0.00000   3.13664
   R10        1.81900  -0.00000   0.00000  -0.00000  -0.00000   1.81900
    A1        1.93970   0.00000   0.00000   0.00000   0.00000   1.93970
    A2        1.92829  -0.00000   0.00000   0.00000   0.00000   1.92830
    A3        1.89911  -0.00000   0.00000  -0.00000  -0.00000   1.89911
    A4        1.91152  -0.00000   0.00000  -0.00000  -0.00000   1.91152
    A5        1.88882   0.00000   0.00000   0.00000   0.00000   1.88882
    A6        1.89538   0.00000   0.00000   0.00000   0.00000   1.89538
    A7        1.90490  -0.00000   0.00000  -0.00000  -0.00000   1.90490
    A8        1.89837   0.00000   0.00000   0.00000   0.00000   1.89837
    A9        2.06989  -0.00000   0.00000  -0.00000  -0.00000   2.06989
   A10        1.90289   0.00000   0.00000   0.00000   0.00000   1.90289
   A11        1.85682   0.00000   0.00000   0.00000   0.00000   1.85682
   A12        1.82500  -0.00000   0.00000  -0.00000  -0.00000   1.82500
   A13        1.87109  -0.00000   0.00000   0.00000   0.00000   1.87109
   A14        1.58285   0.00000   0.00000  -0.00000  -0.00000   1.58285
   A15        1.92865  -0.00000   0.00000  -0.00000  -0.00000   1.92865
   A16        1.90883   0.00000   0.00000   0.00000   0.00000   1.90883
    D1        0.77790  -0.00000   0.00000  -0.00001  -0.00001   0.77790
    D2        2.85214   0.00000   0.00000  -0.00001  -0.00001   2.85213
    D3       -1.35076   0.00000   0.00000  -0.00001  -0.00001  -1.35076
    D4        2.90362  -0.00000   0.00000  -0.00001  -0.00001   2.90361
    D5       -1.30533  -0.00000   0.00000  -0.00001  -0.00001  -1.30534
    D6        0.77496  -0.00000   0.00000  -0.00001  -0.00001   0.77495
    D7       -1.30024  -0.00000   0.00000  -0.00001  -0.00001  -1.30024
    D8        0.77400   0.00000   0.00000  -0.00001  -0.00001   0.77399
    D9        2.85429   0.00000   0.00000  -0.00001  -0.00001   2.85429
   D10       -1.20854   0.00000   0.00000   0.00001   0.00001  -1.20853
   D11        0.74174  -0.00000   0.00000   0.00001   0.00001   0.74174
   D12        2.92195   0.00000   0.00000   0.00001   0.00001   2.92196
   D13       -1.41097   0.00000   0.00000   0.00001   0.00001  -1.41096
   D14        0.90940   0.00000   0.00000   0.00001   0.00001   0.90941
   D15        2.85967   0.00000   0.00000   0.00001   0.00001   2.85968
   D16        2.70345   0.00000   0.00000   0.00002   0.00002   2.70347
   D17       -1.68285   0.00000   0.00000   0.00002   0.00002  -1.68283
         Item               Value     Threshold  Converged?
 Maximum Force            0.000000     0.000015     YES
 RMS     Force            0.000000     0.000010     YES
 Maximum Displacement     0.000018     0.000060     YES
 RMS     Displacement     0.000006     0.000040     YES
 Predicted change in Energy=-4.289436D-12
 Optimization completed.
    -- Stationary point found.
                           ----------------------------
                           !   Optimized Parameters   !
                           ! (Angstroms and Degrees)  !
 --------------------------                            --------------------------
 ! Name  Definition              Value          Derivative Info.                !
 --------------------------------------------------------------------------------
 ! R1    R(1,2)                  1.5559         -DE/DX =    0.0                 !
 ! R2    R(1,8)                  1.3245         -DE/DX =    0.0                 !
 ! R3    R(1,9)                  1.3263         -DE/DX =    0.0                 !
 ! R4    R(1,10)                 1.3346         -DE/DX =    0.0                 !
 ! R5    R(2,3)                  1.3412         -DE/DX =    0.0                 !
 ! R6    R(2,4)                  1.3375         -DE/DX =    0.0                 !
 ! R7    R(2,5)                  1.9016         -DE/DX =    0.0                 !
 ! R8    R(5,6)                  1.4592         -DE/DX =    0.0                 !
 ! R9    R(5,7)                  1.6598         -DE/DX =    0.0                 !
 ! R10   R(7,11)                 0.9626         -DE/DX =    0.0                 !
 ! A1    A(2,1,8)              111.1369         -DE/DX =    0.0                 !
 ! A2    A(2,1,9)              110.4832         -DE/DX =    0.0                 !
 ! A3    A(2,1,10)             108.8112         -DE/DX =    0.0                 !
 ! A4    A(8,1,9)              109.5223         -DE/DX =    0.0                 !
 ! A5    A(8,1,10)             108.2212         -DE/DX =    0.0                 !
 ! A6    A(9,1,10)             108.5974         -DE/DX =    0.0                 !
 ! A7    A(1,2,3)              109.1429         -DE/DX =    0.0                 !
 ! A8    A(1,2,4)              108.7684         -DE/DX =    0.0                 !
 ! A9    A(1,2,5)              118.5959         -DE/DX =    0.0                 !
 ! A10   A(3,2,4)              109.0274         -DE/DX =    0.0                 !
 ! A11   A(3,2,5)              106.3882         -DE/DX =    0.0                 !
 ! A12   A(4,2,5)              104.5648         -DE/DX =    0.0                 !
 ! A13   A(2,5,6)              107.2057         -DE/DX =    0.0                 !
 ! A14   A(2,5,7)               90.6906         -DE/DX =    0.0                 !
 ! A15   A(6,5,7)              110.5036         -DE/DX =    0.0                 !
 ! A16   A(5,7,11)             109.3681         -DE/DX =    0.0                 !
 ! D1    D(8,1,2,3)             44.5705         -DE/DX =    0.0                 !
 ! D2    D(8,1,2,4)            163.4154         -DE/DX =    0.0                 !
 ! D3    D(8,1,2,5)            -77.3927         -DE/DX =    0.0                 !
 ! D4    D(9,1,2,3)            166.3651         -DE/DX =    0.0                 !
 ! D5    D(9,1,2,4)            -74.79           -DE/DX =    0.0                 !
 ! D6    D(9,1,2,5)             44.4019         -DE/DX =    0.0                 !
 ! D7    D(10,1,2,3)           -74.498          -DE/DX =    0.0                 !
 ! D8    D(10,1,2,4)            44.3469         -DE/DX =    0.0                 !
 ! D9    D(10,1,2,5)           163.5388         -DE/DX =    0.0                 !
 ! D10   D(1,2,5,6)            -69.2442         -DE/DX =    0.0                 !
 ! D11   D(1,2,5,7)             42.4983         -DE/DX =    0.0                 !
 ! D12   D(3,2,5,6)            167.4152         -DE/DX =    0.0                 !
 ! D13   D(3,2,5,7)            -80.8424         -DE/DX =    0.0                 !
 ! D14   D(4,2,5,6)             52.1047         -DE/DX =    0.0                 !
 ! D15   D(4,2,5,7)            163.8472         -DE/DX =    0.0                 !
 ! D16   D(2,5,7,11)           154.8962         -DE/DX =    0.0                 !
 ! D17   D(6,5,7,11)           -96.4203         -DE/DX =    0.0                 !
 --------------------------------------------------------------------------------
 GradGradGradGradGradGradGradGradGradGradGradGradGradGradGradGradGradGrad

 Leave Link  103 at Fri May 23 02:24:09 2025, MaxMem=  3758096384 cpu:               0.1 elap:               0.0
 (Enter /apps/easybuild-2022/easybuild/software/Compiler/NVHPC/22.11-CUDA-11.7.0/Gaussian/g16c01-CUDA-11.7.0/g16/l9999.exe)

 ----------------------------------------------------------------------

 Electric dipole moment (input orientation):
 (Debye = 10**-18 statcoulomb cm , SI units = C m)
                  (au)            (Debye)         (10**-30 SI)
   Tot        0.133431D+01      0.339147D+01      0.113127D+02
   x          0.567347D+00      0.144205D+01      0.481017D+01
   y          0.770168D+00      0.195757D+01      0.652975D+01
   z          0.930232D+00      0.236441D+01      0.788684D+01

 Dipole polarizability, Alpha (input orientation).
 (esu units = cm**3 , SI units = C**2 m**2 J**-1)
 Alpha(0;0):
               (au)            (10**-24 esu)      (10**-40 SI)
   iso        0.545837D+02      0.808846D+01      0.899963D+01
   aniso      0.135819D+02      0.201262D+01      0.223935D+01
   xx         0.612369D+02      0.907437D+01      0.100966D+02
   yx        -0.959806D+00     -0.142229D+00     -0.158251D+00
   yy         0.555900D+02      0.823759D+01      0.916556D+01
   zx        -0.547751D+00     -0.811683D-01     -0.903120D-01
   zy         0.287984D+01      0.426748D+00      0.474821D+00
   zz         0.469240D+02      0.695342D+01      0.773673D+01

 ----------------------------------------------------------------------

 Dipole orientation:
     6         -0.53683230          2.68060011         -1.42256967
     6         -0.32083522          0.09679144         -0.03611981
     9         -2.21248766         -0.10869491          1.63825083
     9         -0.52285138         -1.75952156         -1.73952969
    16          2.70420226         -0.64610926          1.75555845
     8          4.69680920         -0.99648711         -0.11806872
     8          2.78161926          2.26948904          2.90960063
     9         -1.01893868          4.53278002          0.19030570
     9          1.57722010          3.18574432         -2.67045652
     9         -2.43745212          2.55995347         -3.07587420
     1          3.71146588          2.27497174          4.47296535

 Electric dipole moment (dipole orientation):
 (Debye = 10**-18 statcoulomb cm , SI units = C m)
                  (au)            (Debye)         (10**-30 SI)
   Tot        0.133431D+01      0.339147D+01      0.113127D+02
   x          0.000000D+00      0.000000D+00      0.000000D+00
   y          0.000000D+00      0.000000D+00      0.000000D+00
   z          0.133431D+01      0.339147D+01      0.113127D+02

 Dipole polarizability, Alpha (dipole orientation).
 (esu units = cm**3 , SI units = C**2 m**2 J**-1)
 Alpha(0;0):
               (au)            (10**-24 esu)      (10**-40 SI)
   iso        0.545837D+02      0.808846D+01      0.899963D+01
   aniso      0.135819D+02      0.201262D+01      0.223935D+01
   xx         0.595495D+02      0.882432D+01      0.981838D+01
   yx        -0.406071D+01     -0.601736D+00     -0.669521D+00
   yy         0.502807D+02      0.745083D+01      0.829017D+01
   zx         0.303892D+01      0.450321D+00      0.501050D+00
   zy         0.373595D+01      0.553611D+00      0.615975D+00
   zz         0.539208D+02      0.799024D+01      0.889034D+01

 ----------------------------------------------------------------------
 Unable to Open any file for archive entry.
 1\1\GINC-SPARTAN-BM169\Freq\RwB97XD\6-311++G(d,p)\C2H1F5O2S1\AKHALILOV
 \23-May-2025\0\\#P Geom=AllCheck Guess=TCheck SCRF=Check GenChk RwB97X
 D/6-311++G(d,p) Freq\\Gaussian input prepared by ASE\\0,1\C,-0.7790356
 09,0.746614959,-1.2228014524\C,-0.1672266399,0.0546842006,0.0293001478
 \F,-0.6691410379,0.6234749506,1.1354138943\F,-0.5039654912,-1.23963483
 77,0.0133249164\S,1.7230155596,0.054498588,0.2365551819\O,2.2703650022
 ,-0.8192861584,-0.7959993758\O,1.7961708895,1.6410616398,-0.2456607734
 \F,-0.7858079652,2.0638751315,-1.0850322933\F,-0.0989389876,0.41851520
 63,-2.313144997\F,-2.0404299108,0.3357571557,-1.3682431724\H,2.5871544
 602,2.0497570151,0.1202061176\\Version=ES64L-G16RevC.01\HF=-1124.61646
 29\RMSD=2.728e-09\RMSF=1.224e-06\ZeroPoint=0.0459584\Thermal=0.0559331
 \ETot=-1124.5605298\HTot=-1124.5595856\GTot=-1124.6067236\Dipole=0.567
 3474,0.7701678,0.9302324\DipoleDeriv=1.68385,0.0675992,-0.0813091,-0.1
 597645,1.5654551,0.0862239,0.3099149,0.0716255,1.4643228,0.8435277,0.1
 350104,-0.2112444,0.4018794,1.1182741,0.1754461,-0.5853506,0.1944592,0
 .9002861,-0.5119706,0.127077,0.2434725,0.1342395,-0.3568191,-0.1627931
 ,0.3439823,-0.2358526,-0.7365063,-0.4012102,-0.2142865,-0.0080169,-0.3
 029691,-0.8369074,-0.0073406,0.0035078,0.0680085,-0.268826,0.9889375,-
 0.2751695,-0.0685434,-0.2743591,1.7274443,0.077081,-0.4520536,0.136794
 4,0.9148018,-0.6501386,0.218908,0.0611326,0.3670916,-0.7154774,-0.1099
 332,0.4500544,-0.4338709,-0.6931748,-0.4331335,-0.1155579,0.0948246,-0
 .274241,-1.3266317,0.0107228,0.1286914,0.2462096,-0.4567444,-0.3118512
 ,0.0687088,-0.0288815,0.0795734,-0.903583,-0.0524836,-0.0724501,0.0229
 513,-0.3164562,-0.4322971,0.0768494,0.1722857,0.0809029,-0.2991786,-0.
 0658102,0.1932284,-0.115305,-0.760091,-1.0776168,-0.1686199,-0.1187209
 ,-0.1289627,-0.3381223,0.0090915,-0.2771795,-0.0003896,-0.3566365,0.30
 19028,0.079481,-0.0549991,0.0766096,0.3655461,0.0397955,-0.0423455,0.0
 453695,0.3090246\Polar=61.2369084,-0.9598064,55.5900356,-0.5477511,2.8
 79836,46.9240285\PG=Unknown\NImag=0\\0.53521451,-0.01559100,0.56941900
 ,0.00633452,-0.00719646,0.57454296,-0.07934391,0.01225601,-0.02374593,
 0.41835466,0.03511094,-0.06319438,0.04680406,0.00550029,0.50925956,-0.
 06276840,0.04560851,-0.12391709,-0.01576485,-0.00603482,0.51529544,0.0
 0098216,0.00199148,-0.00317571,-0.10928498,0.03352801,0.08470295,0.103
 91416,-0.00128089,-0.00061454,-0.00011028,0.03301032,-0.09096115,-0.06
 578205,-0.05266748,0.13457410,0.03081049,-0.02620090,-0.03710830,0.073
 71532,-0.05432752,-0.23372383,-0.10407179,0.11618965,0.29289205,-0.000
 35451,0.00527918,-0.00469848,-0.09201131,-0.07407683,0.00684725,0.0147
 1206,0.01540494,-0.00097966,0.08702525,-0.01741761,-0.04349568,-0.0072
 4630,-0.06421098,-0.27780638,0.02715382,0.00466211,-0.04999784,-0.0382
 1155,0.08225061,0.38944359,0.01022654,0.02491293,0.00621828,-0.0006694
 9,0.01275894,-0.07419008,-0.00539935,-0.05022056,-0.00431589,-0.000164
 35,0.00686492,0.07039952,-0.01463781,0.00226720,-0.01017635,-0.1129978
 5,0.01562947,-0.05808391,-0.00063957,0.00189227,0.00297868,-0.00440950
 ,-0.00521484,0.00315253,0.30873783,0.00856247,0.01520578,0.00531863,0.
 00351477,-0.01062746,-0.00125047,0.01568796,-0.00430925,-0.00682382,-0
 .03194660,-0.02834324,-0.00221647,-0.09871666,0.45545824,-0.02699176,-
 0.00657956,0.02286567,-0.02280554,0.02506696,-0.07299126,0.03240014,-0
 .00788783,-0.00826446,0.00098946,-0.00816318,0.00475731,-0.10183884,0.
 17174177,0.50123689,0.00328889,-0.00254255,0.00202992,0.00550938,0.012
 78003,0.02647627,-0.01410418,0.00389947,0.00632247,-0.00047533,-0.0004
 4211,-0.00173132,-0.12360001,0.11547378,0.12883297,0.12508748,0.000646
 47,0.00038984,-0.00763295,-0.00060132,-0.01581861,0.00151365,0.0040572
 6,-0.00029544,-0.00377828,0.00213842,0.01068037,0.00073354,0.12203758,
 -0.22889477,-0.21805982,-0.13916377,0.25232957,0.00747164,0.00122478,-
 0.01544400,0.00043398,-0.01590409,0.01587172,-0.00059321,0.00008902,-0
 .00060004,0.00141281,0.00771056,0.00059178,0.15000585,-0.23629275,-0.3
 5921013,-0.15702208,0.24390574,0.32582109,0.00268609,0.00369002,0.0007
 0108,0.00684703,-0.02661615,0.01738676,-0.00406766,0.00095912,0.000837
 76,-0.01053786,-0.00595044,-0.00218273,-0.05564099,-0.01349163,-0.0103
 3607,0.00866292,0.00470129,-0.00175794,0.42471469,0.00003131,-0.010874
 04,0.00397628,0.00727973,-0.01476276,-0.00090277,-0.00495735,0.0043595
 5,0.00423993,-0.00607492,-0.00179037,-0.00033569,-0.01025818,-0.171235
 98,0.05419104,0.00578171,-0.01714762,-0.00385239,0.19695102,0.31263427
 ,0.00324943,0.00335039,-0.00389460,0.00045130,-0.00940815,0.00453701,-
 0.00014102,0.00166136,0.00129040,-0.00417106,-0.00269347,0.00013926,-0
 .00637978,0.06723605,-0.07661812,-0.00113389,-0.02227126,0.02312619,0.
 18213297,0.02917487,0.13836204,-0.07724090,0.01330754,-0.00580905,0.00
 715067,0.01146982,0.00544388,0.00098236,-0.00114419,-0.00245043,-0.000
 13915,0.00421864,-0.00322311,0.00049560,-0.00209049,0.00143473,-0.0002
 6301,0.00028238,-0.00018627,-0.00656859,0.00138336,-0.00270196,0.08561
 872,0.01710268,-0.29689272,0.00782257,0.00072113,-0.03850775,-0.011733
 83,-0.00138868,0.00485450,0.00337945,0.00303800,-0.00645866,0.00731620
 ,-0.00158022,-0.00618338,0.00278058,0.00063698,0.00032824,-0.00010602,
 -0.00019825,0.00680770,-0.00114955,0.00334450,0.42300245,-0.00301961,-
 0.00057886,-0.08172231,-0.00011856,0.01916835,0.00527783,-0.00128110,0
 .00346640,0.00152971,-0.00086559,0.00665873,-0.00382370,0.00133533,-0.
 00135109,-0.00263050,-0.00027919,0.00095646,0.00189052,-0.00288598,-0.
 00015842,0.00032486,-0.00195242,0.04039780,0.07955754,-0.11638633,0.01
 896161,0.08243536,0.00412135,0.00099183,0.00288811,0.00161348,-0.00034
 144,-0.00206314,0.00096254,0.00017044,-0.00073337,-0.00089589,0.001156
 54,0.00580847,-0.00160545,-0.00053106,-0.00514591,-0.00046754,-0.00076
 350,-0.00148203,0.00376507,0.02187160,0.01587735,0.17288569,0.01901821
 ,-0.08360869,-0.03209782,-0.00270112,0.00605220,0.00379127,-0.00012786
 ,0.00063502,0.00400868,0.00002423,0.00325417,-0.00050345,0.00013791,-0
 .00347824,-0.00147937,0.00149594,0.00084430,0.00249921,-0.00055324,0.0
 0165935,-0.00077099,0.02887695,-0.03837920,-0.05507654,-0.04202611,0.0
 9894875,0.07655331,-0.02858167,-0.25409775,0.02799955,-0.01881466,-0.0
 3207997,-0.00342103,0.00314361,-0.01314322,-0.00143574,0.00643802,-0.0
 0024453,0.00430639,-0.00189448,-0.00583048,-0.00256797,0.00270562,0.00
 467168,-0.00173628,-0.00104313,0.00115588,0.01508242,-0.03905522,-0.01
 239885,-0.14903505,0.07400264,0.30977824,-0.25484516,-0.04059326,-0.04
 323595,-0.04880384,-0.01222586,-0.00705275,0.00497658,-0.00000106,-0.0
 0486318,0.00537733,0.00176688,0.00059962,0.00201215,-0.00070886,-0.005
 94085,-0.00095450,0.00283704,0.00292111,0.00045043,-0.00106285,0.00026
 991,-0.01328150,-0.04338945,-0.00678699,-0.06399349,-0.00412721,0.0339
 2352,0.36875114,-0.04486236,-0.08656914,-0.00869577,0.00408528,0.00060
 602,0.00297049,-0.00006113,0.00124393,0.00161664,0.00492814,0.00467251
 ,0.00128809,-0.00002143,-0.00217336,0.00140715,0.00012642,0.00015838,-
 0.00036507,-0.00052382,0.00172770,-0.00056225,-0.06041907,-0.04816082,
 -0.01379771,0.00012195,0.01411126,0.00297586,0.09671401,0.11436166,-0.
 04260775,-0.00702993,-0.08710995,-0.03686077,-0.00492832,-0.00421049,0
 .00096455,0.00035390,0.00191346,0.00028476,0.00018081,0.00012574,0.001
 45533,0.00024390,-0.00785968,-0.00053026,0.00223659,0.00420783,0.00046
 018,-0.00152146,0.00111105,-0.00533376,-0.00911140,0.01201429,0.051667
 10,0.00585109,0.00231845,0.03020453,0.01334465,0.07743814,0.00063698,0
 .00097378,-0.00065940,0.00045878,-0.00209155,-0.00007533,0.00091558,0.
 00026894,-0.00023651,-0.00014952,0.00016729,0.00012501,0.00157605,0.00
 255873,-0.00155270,-0.00154621,0.00359571,0.00246001,-0.36607852,-0.18
 831033,-0.17009386,-0.00051928,-0.00015828,-0.00002324,0.00000059,-0.0
 0001769,0.00033088,0.00031085,-0.00008799,0.00029609,0.36439471,-0.001
 32021,0.00023456,-0.00094195,0.00114588,-0.00423929,0.00466620,-0.0007
 2431,0.00051113,-0.00009227,-0.00096517,-0.00015846,-0.00059844,-0.026
 17310,-0.01541834,-0.01301772,0.00195410,-0.00257425,0.00109101,-0.158
 96792,-0.11137780,-0.06456699,0.00077058,-0.00041034,0.00031488,0.0003
 8814,-0.00003893,0.00012342,0.00079061,0.00002186,0.00038017,0.1831013
 9,0.13344986,0.00074157,0.00107078,-0.00033292,-0.00263501,0.00561925,
 0.00013071,0.00001557,-0.00090321,-0.00046987,0.00278061,0.00130765,0.
 00034231,0.01324477,0.00528873,0.00454476,-0.00039692,-0.00030928,-0.0
 0092664,-0.18261974,-0.08376826,-0.08953396,-0.00030403,-0.00054058,-0
 .00001939,-0.00021689,-0.00022470,-0.00012946,-0.00003896,-0.00018209,
 0.00005116,0.16942904,0.07264169,0.08634330\\0.00000024,0.00000110,-0.
 00000006,-0.00000043,0.00000054,-0.00000065,-0.00000068,-0.00000116,-0
 .00000031,-0.00000152,-0.00000033,-0.00000220,-0.00000047,-0.00000153,
 0.00000015,-0.00000071,-0.00000115,-0.00000053,0.00000050,-0.00000129,
 0.00000160,0.00000120,0.00000148,0.00000114,0.00000068,0.00000192,-0.0
 0000050,0.00000042,0.00000248,-0.00000126,0.00000078,-0.00000206,0.000
 00261\\\@
 The archive entry for this job was punched.


 IT TAKES GREATER CHARACTER TO CARRY OFF GOOD FORTUNE THAN BAD.
                     FRENCH PROVERB.
 Job cpu time:       0 days  0 hours  7 minutes 37.9 seconds.
 Elapsed time:       0 days  0 hours  0 minutes 58.8 seconds.
 File lengths (MBytes):  RWF=     78 Int=      0 D2E=      0 Chk=      5 Scr=      1
 Normal termination of Gaussian 16 at Fri May 23 02:24:09 2025.
done
