1
energy = -99.73140805200002
F -0.49220900 -0.68576500 2.20933900
