11
energy = -1199.10098807
C -0.73083600 0.29598800 1.34623600
C -0.06060100 -0.03143000 -0.01996500
F -0.35331100 -1.28556000 -0.36440400
F -0.52002000 0.80565400 -0.94700900
S 1.80695300 0.11268900 -0.00681100
O 2.29144200 -0.61066100 1.13585400
O 2.22489100 -0.38872100 -1.33545700
O 2.12051000 1.55639000 -0.06770500
F -0.46292500 -0.64724100 2.23441900
F -0.28799400 1.46531500 1.79848700
F -2.04467400 0.36833600 1.17381800
