 Entering Gaussian System, Link 0=g16
 Initial command:
 /apps/easybuild-2022/easybuild/software/Compiler/NVHPC/22.11-CUDA-11.7.0/Gaussian/g16c01-CUDA-11.7.0/g16/l1.exe "/tmp/Gau-217697.inp" -scrdir="/tmp/"
 Entering Link 1 = /apps/easybuild-2022/easybuild/software/Compiler/NVHPC/22.11-CUDA-11.7.0/Gaussian/g16c01-CUDA-11.7.0/g16/l1.exe PID=    217747.
  
 Copyright (c) 1988-2019, Gaussian, Inc.  All Rights Reserved.
  
 This is part of the Gaussian(R) 16 program.  It is based on
 the Gaussian(R) 09 system (copyright 2009, Gaussian, Inc.),
 the Gaussian(R) 03 system (copyright 2003, Gaussian, Inc.),
 the Gaussian(R) 98 system (copyright 1998, Gaussian, Inc.),
 the Gaussian(R) 94 system (copyright 1995, Gaussian, Inc.),
 the Gaussian 92(TM) system (copyright 1992, Gaussian, Inc.),
 the Gaussian 90(TM) system (copyright 1990, Gaussian, Inc.),
 the Gaussian 88(TM) system (copyright 1988, Gaussian, Inc.),
 the Gaussian 86(TM) system (copyright 1986, Carnegie Mellon
 University), and the Gaussian 82(TM) system (copyright 1983,
 Carnegie Mellon University). Gaussian is a federally registered
 trademark of Gaussian, Inc.
  
 This software contains proprietary and confidential information,
 including trade secrets, belonging to Gaussian, Inc.
  
 This software is provided under written license and may be
 used, copied, transmitted, or stored only in accord with that
 written license.
  
 The following legend is applicable only to US Government
 contracts under FAR:
  
                    RESTRICTED RIGHTS LEGEND
  
 Use, reproduction and disclosure by the US Government is
 subject to restrictions as set forth in subparagraphs (a)
 and (c) of the Commercial Computer Software - Restricted
 Rights clause in FAR 52.227-19.
  
 Gaussian, Inc.
 340 Quinnipiac St., Bldg. 40, Wallingford CT 06492
  
  
 ---------------------------------------------------------------
 Warning -- This program may not be used in any manner that
 competes with the business of Gaussian, Inc. or will provide
 assistance to any competitor of Gaussian, Inc.  The licensee
 of this program is prohibited from giving any competitor of
 Gaussian, Inc. access to this program.  By using this program,
 the user acknowledges that Gaussian, Inc. is engaged in the
 business of creating and licensing software in the field of
 computational chemistry and represents and warrants to the
 licensee that it is not a competitor of Gaussian, Inc. and that
 it will not use this program in any manner prohibited above.
 ---------------------------------------------------------------
  

 Cite this work as:
 Gaussian 16, Revision C.01,
 M. J. Frisch, G. W. Trucks, H. B. Schlegel, G. E. Scuseria, 
 M. A. Robb, J. R. Cheeseman, G. Scalmani, V. Barone, 
 G. A. Petersson, H. Nakatsuji, X. Li, M. Caricato, A. V. Marenich, 
 J. Bloino, B. G. Janesko, R. Gomperts, B. Mennucci, H. P. Hratchian, 
 J. V. Ortiz, A. F. Izmaylov, J. L. Sonnenberg, D. Williams-Young, 
 F. Ding, F. Lipparini, F. Egidi, J. Goings, B. Peng, A. Petrone, 
 T. Henderson, D. Ranasinghe, V. G. Zakrzewski, J. Gao, N. Rega, 
 G. Zheng, W. Liang, M. Hada, M. Ehara, K. Toyota, R. Fukuda, 
 J. Hasegawa, M. Ishida, T. Nakajima, Y. Honda, O. Kitao, H. Nakai, 
 T. Vreven, K. Throssell, J. A. Montgomery, Jr., J. E. Peralta, 
 F. Ogliaro, M. J. Bearpark, J. J. Heyd, E. N. Brothers, K. N. Kudin, 
 V. N. Staroverov, T. A. Keith, R. Kobayashi, J. Normand, 
 K. Raghavachari, A. P. Rendell, J. C. Burant, S. S. Iyengar, 
 J. Tomasi, M. Cossi, J. M. Millam, M. Klene, C. Adamo, R. Cammi, 
 J. W. Ochterski, R. L. Martin, K. Morokuma, O. Farkas, 
 J. B. Foresman, and D. J. Fox, Gaussian, Inc., Wallingford CT, 2019.
 
 ******************************************
 Gaussian 16:  ES64L-G16RevC.01  3-Jul-2019
                23-May-2025 
 ******************************************
 %mem=28GB
 %nprocshared=8
 Will use up to    8 processors via shared memory.
 ------------------------------------------
 #P am1 Symm(None) scf(xqc) pop(None) force
 ------------------------------------------
 1/10=7,30=1,38=1/1,3;
 2/12=2,15=3,17=6,18=5,40=1/2;
 3/5=2,25=1,41=700000,71=1/1,2,3;
 4/35=1/1;
 5/5=2,8=3,13=1,35=1,38=5/2,8;
 7/29=1,30=1/1,2,3,16;
 1/10=7,30=1/3;
 99//99;
 Leave Link    1 at Fri May 23 05:16:38 2025, MaxMem=  3758096384 cpu:               0.1 elap:               0.0
 (Enter /apps/easybuild-2022/easybuild/software/Compiler/NVHPC/22.11-CUDA-11.7.0/Gaussian/g16c01-CUDA-11.7.0/g16/l101.exe)
 ------------------------------
 Gaussian input prepared by ASE
 ------------------------------
 Symbolic Z-matrix:
 Charge =  0 Multiplicity = 1
 C                     1.87185  -0.79264  -1.15884 
 C                     1.8781    0.01316   0.10951 
 F                    -0.83441   0.75532   0.0619 
 F                     2.01972  -0.70199   1.22292 
 S                     1.8006    1.67338   0.20343 
 O                     0.29953   2.03789   0.1744 
 O                     2.47962   2.41305   1.2136 
 O                     2.18707   2.27604  -1.19271 
 F                     1.67663  -0.04483  -2.25163 
 F                     3.00742  -1.45906  -1.39904 
 F                     0.91367  -1.71704  -1.20555 
 H                     1.62695   2.17944  -1.98036 
 
 ITRead=  0  0  0  0  0  0  0  0  0  0  0  0
 MicOpt= -1 -1 -1 -1 -1 -1 -1 -1 -1 -1 -1 -1
 NAtoms=     12 NQM=       12 NQMF=       0 NMMI=      0 NMMIF=      0
                NMic=       0 NMicF=      0.
                    Isotopes and Nuclear Properties:
 (Nuclear quadrupole moments (NQMom) in fm**2, nuclear magnetic moments (NMagM)
  in nuclear magnetons)

  Atom         1           2           3           4           5           6           7           8           9          10
 IAtWgt=          12          12          19          19          32          16          16          16          19          19
 AtmWgt=  12.0000000  12.0000000  18.9984032  18.9984032  31.9720718  15.9949146  15.9949146  15.9949146  18.9984032  18.9984032
 NucSpn=           0           0           1           1           0           0           0           0           1           1
 AtZEff=  -0.0000000  -0.0000000  -0.0000000  -0.0000000  -0.0000000  -0.0000000  -0.0000000  -0.0000000  -0.0000000  -0.0000000
 NQMom=    0.0000000   0.0000000   0.0000000   0.0000000   0.0000000   0.0000000   0.0000000   0.0000000   0.0000000   0.0000000
 NMagM=    0.0000000   0.0000000   2.6288670   2.6288670   0.0000000   0.0000000   0.0000000   0.0000000   2.6288670   2.6288670
 AtZNuc=   6.0000000   6.0000000   9.0000000   9.0000000  16.0000000   8.0000000   8.0000000   8.0000000   9.0000000   9.0000000

  Atom        11          12
 IAtWgt=          19           1
 AtmWgt=  18.9984032   1.0078250
 NucSpn=           1           1
 AtZEff=  -0.0000000  -0.0000000
 NQMom=    0.0000000   0.0000000
 NMagM=    2.6288670   2.7928460
 AtZNuc=   9.0000000   1.0000000
 Leave Link  101 at Fri May 23 05:16:38 2025, MaxMem=  3758096384 cpu:               0.1 elap:               0.1
 (Enter /apps/easybuild-2022/easybuild/software/Compiler/NVHPC/22.11-CUDA-11.7.0/Gaussian/g16c01-CUDA-11.7.0/g16/l103.exe)

 GradGradGradGradGradGradGradGradGradGradGradGradGradGradGradGradGradGrad
 Berny optimization.
 Initialization pass.
 Trust Radius=3.00D-01 FncErr=1.00D-07 GrdErr=1.00D-07 EigMax=2.50D+02 EigMin=1.00D-04
 Number of steps in this run=      2 maximum allowed number of steps=      2.
 GradGradGradGradGradGradGradGradGradGradGradGradGradGradGradGradGradGrad

 Leave Link  103 at Fri May 23 05:16:38 2025, MaxMem=  3758096384 cpu:               0.1 elap:               0.0
 (Enter /apps/easybuild-2022/easybuild/software/Compiler/NVHPC/22.11-CUDA-11.7.0/Gaussian/g16c01-CUDA-11.7.0/g16/l202.exe)
                          Input orientation:                          
 ---------------------------------------------------------------------
 Center     Atomic      Atomic             Coordinates (Angstroms)
 Number     Number       Type             X           Y           Z
 ---------------------------------------------------------------------
      1          6           0        1.871855   -0.792640   -1.158841
      2          6           0        1.878100    0.013161    0.109505
      3          9           0       -0.834415    0.755317    0.061901
      4          9           0        2.019718   -0.701989    1.222919
      5         16           0        1.800599    1.673378    0.203433
      6          8           0        0.299530    2.037887    0.174404
      7          8           0        2.479624    2.413051    1.213603
      8          8           0        2.187067    2.276038   -1.192706
      9          9           0        1.676629   -0.044826   -2.251627
     10          9           0        3.007420   -1.459060   -1.399044
     11          9           0        0.913671   -1.717039   -1.205552
     12          1           0        1.626952    2.179443   -1.980357
 ---------------------------------------------------------------------
                    Distance matrix (angstroms):
                    1          2          3          4          5
     1  C    0.000000
     2  C    1.502683   0.000000
     3  F    3.348175   2.812614   0.000000
     4  F    2.388067   1.330859   3.408486   0.000000
     5  S    2.818175   1.664677   2.793952   2.594172   0.000000
     6  O    3.501661   2.568192   1.715656   3.400787   1.544965
     7  O    4.034145   2.709306   3.880381   3.148821   1.424302
     8  O    3.085010   2.629035   3.607767   3.838215   1.568999
     9  F    1.338477   2.370422   3.506848   3.552752   2.999152
    10  F    1.338402   2.391342   4.668781   2.902309   3.719746
    11  F    1.332221   2.377623   3.282497   2.855020   3.777142
    12  H    3.093242   3.020493   3.501040   4.326418   2.248376
                    6          7          8          9         10
     6  O    0.000000
     7  O    2.444073   0.000000
     8  O    2.342754   2.427897   0.000000
     9  F    3.481339   4.323630   2.601590   0.000000
    10  F    4.694363   4.700823   3.829688   2.120840   0.000000
    11  F    4.047335   5.036086   4.191225   2.114870   2.118437
    12  H    2.534774   3.314061   0.971316   2.241301   3.934759
                   11         12
    11  F    0.000000
    12  H    4.036294   0.000000
 Symmetry turned off by external request.
 Stoichiometry    C2HF5O3S
 Rotational constants (GHZ):           1.3540445           0.7734630           0.7313548
 Leave Link  202 at Fri May 23 05:16:38 2025, MaxMem=  3758096384 cpu:               0.0 elap:               0.0
 (Enter /apps/easybuild-2022/easybuild/software/Compiler/NVHPC/22.11-CUDA-11.7.0/Gaussian/g16c01-CUDA-11.7.0/g16/l301.exe)
 Standard basis: VSTO-6G (5D, 7F)
 Ernie: Thresh=  0.10000D-02 Tol=  0.10000D-05 Strict=F.
  NNHCO=     0 NNPyr=     0 NCTC=     0               EPep=         0.000000000
    EC=       381.962612372  ECS=         2.467854749   EG=         0.731767384
   EHC=         0.000000000  EAt=      -139.813231795  AtH=         1.168761636
 EPDDG=         0.000000000  ECC=       385.162234504 EAtT=       140.981993432
    45 basis functions,   270 primitive gaussians,    45 cartesian basis functions
    34 alpha electrons       34 beta electrons
       nuclear repulsion energy       527.0619609729 Hartrees.



 Warning!  S  atom    5 may be hypervalent but has no d functions.



 IExCor=    0 DFT=F Ex=HF Corr=None ExCW=0 ScaHFX=  1.000000
 ScaDFX=  1.000000  1.000000  1.000000  1.000000 ScalE2=  1.000000  1.000000
 IRadAn=      5 IRanWt=     -1 IRanGd=            0 ICorTp=0 IEmpDi=  4
 Integral buffers will be    131072 words long.
 Regular integral format.
 Two-electron integral symmetry is turned off.
 Leave Link  301 at Fri May 23 05:16:38 2025, MaxMem=  3758096384 cpu:               0.1 elap:               0.1
 (Enter /apps/easybuild-2022/easybuild/software/Compiler/NVHPC/22.11-CUDA-11.7.0/Gaussian/g16c01-CUDA-11.7.0/g16/l302.exe)
 Do NDO integrals.
 NPDir=0 NMtPBC=     1 NCelOv=     1 NCel=       1 NClECP=     1 NCelD=      1
         NCelK=      1 NCelE2=     1 NClLst=     1 CellRange=     0.0.
 One-electron integrals computed using PRISM.
 NBasis=    45 RedAO= F EigKep=  0.00D+00  NBF=    45
 NBsUse=    45 1.00D-04 EigRej=  0.00D+00 NBFU=    45
 Leave Link  302 at Fri May 23 05:16:39 2025, MaxMem=  3758096384 cpu:               0.1 elap:               0.1
 (Enter /apps/easybuild-2022/easybuild/software/Compiler/NVHPC/22.11-CUDA-11.7.0/Gaussian/g16c01-CUDA-11.7.0/g16/l303.exe)
 DipDrv:  MaxL=1.
 Leave Link  303 at Fri May 23 05:16:39 2025, MaxMem=  3758096384 cpu:               0.1 elap:               0.0
 (Enter /apps/easybuild-2022/easybuild/software/Compiler/NVHPC/22.11-CUDA-11.7.0/Gaussian/g16c01-CUDA-11.7.0/g16/l401.exe)
 Simple Huckel Guess.
 JPrj=0 DoOrth=F DoCkMO=F.
 Leave Link  401 at Fri May 23 05:16:39 2025, MaxMem=  3758096384 cpu:               0.1 elap:               0.0
 (Enter /apps/easybuild-2022/easybuild/software/Compiler/NVHPC/22.11-CUDA-11.7.0/Gaussian/g16c01-CUDA-11.7.0/g16/l502.exe)
 Keep J ints in memory in canonical form, NReq=865860.
 FoFCou: FMM=F IPFlag=           0 FMFlag=           0 FMFlg1=           0
         NFxFlg=           0 DoJE=F BraDBF=F KetDBF=F FulRan=T
         wScrn=  0.000000 ICntrl=       600 IOpCl=  2 I1Cent=           0 NGrid=           0
         NMat0=    1 NMatS0=    111 NMatT0=    0 NMatD0=    1 NMtDS0=    0 NMtDT0=    0
 Symmetry not used in FoFCou.
 Two-electron integral symmetry not used.
 Closed shell SCF:
 Using DIIS extrapolation, IDIIS=  1040.
 Overlap will be assumed to be unity.
 NGot=  3758096384 LenX=  3758025843 LenY=  3758023377
 Requested convergence on RMS density matrix=1.00D-08 within  32 cycles.
 Requested convergence on MAX density matrix=1.00D-06.
 Requested convergence on             energy=1.00D-06.
 No special actions if energy rises.

 Cycle   1  Pass 1  IDiag  1:
 E=  2.17087255826038    
 DIIS: error= 1.02D-01 at cycle   1 NSaved=   1.
 NSaved= 1 IEnMin= 1 EnMin=  2.17087255826038     IErMin= 1 ErrMin= 1.02D-01
 ErrMax= 1.02D-01  0.00D+00 EMaxC= 1.00D-01 BMatC= 3.93D-01 BMatP= 3.93D-01
 IDIUse=3 WtCom= 0.00D+00 WtEn= 1.00D+00
 Coeff-Com:  0.100D+01
 Coeff-En:   0.100D+01
 Coeff:      0.100D+01
 GapD=    2.000 DampG=2.000 DampE=0.250 DampFc=0.5000 IDamp=-1.
 Damping current iteration by 5.00D-01
 RMSDP=5.81D-02 MaxDP=9.89D-01              OVMax= 0.00D+00

 Cycle   2  Pass 1  IDiag  1:
 E=  2.76917212269154     Delta-E=        0.598299564431 Rises=F Damp=T
 DIIS: error= 5.27D-02 at cycle   2 NSaved=   2.
 NSaved= 2 IEnMin= 1 EnMin=  2.17087255826038     IErMin= 2 ErrMin= 5.27D-02
 ErrMax= 5.27D-02  0.00D+00 EMaxC= 1.00D-01 BMatC= 1.73D-01 BMatP= 3.93D-01
 IDIUse=3 WtCom= 4.73D-01 WtEn= 5.27D-01
 Coeff-Com: -0.241D+00 0.124D+01
 Coeff-En:   0.680D+00 0.320D+00
 Coeff:      0.245D+00 0.755D+00
 RMSDP=3.02D-02 MaxDP=4.94D-01 DE= 5.98D-01 OVMax= 0.00D+00

 Cycle   3  Pass 1  IDiag  1:
 E=  1.09284981160829     Delta-E=       -1.676322311083 Rises=F Damp=F
 DIIS: error= 3.25D-02 at cycle   3 NSaved=   3.
 NSaved= 3 IEnMin= 3 EnMin=  1.09284981160829     IErMin= 3 ErrMin= 3.25D-02
 ErrMax= 3.25D-02  0.00D+00 EMaxC= 1.00D-01 BMatC= 5.74D-02 BMatP= 1.73D-01
 IDIUse=3 WtCom= 6.75D-01 WtEn= 3.25D-01
 Coeff-Com: -0.508D+00 0.529D+00 0.979D+00
 Coeff-En:   0.000D+00 0.000D+00 0.100D+01
 Coeff:     -0.343D+00 0.357D+00 0.986D+00
 RMSDP=9.71D-03 MaxDP=1.08D-01 DE=-1.68D+00 OVMax= 0.00D+00

 Cycle   4  Pass 1  IDiag  1:
 E= 0.881455679645114     Delta-E=       -0.211394131963 Rises=F Damp=F
 DIIS: error= 1.74D-02 at cycle   4 NSaved=   4.
 NSaved= 4 IEnMin= 4 EnMin= 0.881455679645114     IErMin= 4 ErrMin= 1.74D-02
 ErrMax= 1.74D-02  0.00D+00 EMaxC= 1.00D-01 BMatC= 1.41D-02 BMatP= 5.74D-02
 IDIUse=3 WtCom= 8.26D-01 WtEn= 1.74D-01
 Coeff-Com: -0.146D-01 0.154D+00-0.590D+00 0.145D+01
 Coeff-En:   0.000D+00 0.000D+00 0.000D+00 0.100D+01
 Coeff:     -0.121D-01 0.127D+00-0.488D+00 0.137D+01
 RMSDP=1.37D-02 MaxDP=2.38D-01 DE=-2.11D-01 OVMax= 0.00D+00

 Cycle   5  Pass 1  IDiag  3:
 E= 0.736457611444507     Delta-E=       -0.144998068201 Rises=F Damp=F
 DIIS: error= 2.09D-02 at cycle   5 NSaved=   5.
 NSaved= 5 IEnMin= 5 EnMin= 0.736457611444507     IErMin= 4 ErrMin= 1.74D-02
 ErrMax= 2.09D-02  0.00D+00 EMaxC= 1.00D-01 BMatC= 4.38D-03 BMatP= 1.41D-02
 IDIUse=3 WtCom= 7.91D-01 WtEn= 2.09D-01
 Coeff-Com: -0.408D-01 0.809D-01-0.784D-01 0.377D+00 0.661D+00
 Coeff-En:   0.000D+00 0.000D+00 0.000D+00 0.000D+00 0.100D+01
 Coeff:     -0.323D-01 0.640D-01-0.620D-01 0.298D+00 0.732D+00
 Gap=     0.098 Goal=   None    Shift=    0.000
 RMSDP=1.05D-02 MaxDP=2.14D-01 DE=-1.45D-01 OVMax= 3.21D-01

 Cycle   6  Pass 1  IDiag  1:
 E= 0.675965889940130     Delta-E=       -0.060491721504 Rises=F Damp=F
 DIIS: error= 1.05D-02 at cycle   6 NSaved=   6.
 NSaved= 6 IEnMin= 6 EnMin= 0.675965889940130     IErMin= 6 ErrMin= 1.05D-02
 ErrMax= 1.05D-02  0.00D+00 EMaxC= 1.00D-01 BMatC= 4.01D-03 BMatP= 4.38D-03
 IDIUse=3 WtCom= 8.95D-01 WtEn= 1.05D-01
 Coeff-Com:  0.417D-01-0.332D-01-0.145D+00 0.554D+00-0.222D+00 0.805D+00
 Coeff-En:   0.000D+00 0.000D+00 0.000D+00 0.000D+00 0.000D+00 0.100D+01
 Coeff:      0.373D-01-0.297D-01-0.130D+00 0.496D+00-0.199D+00 0.825D+00
 RMSDP=7.72D-03 MaxDP=1.71D-01 DE=-6.05D-02 OVMax= 3.21D-01

 Cycle   7  Pass 1  IDiag  3:
 E= 0.669508100883718     Delta-E=       -0.006457789056 Rises=F Damp=F
 DIIS: error= 1.63D-02 at cycle   7 NSaved=   7.
 NSaved= 7 IEnMin= 7 EnMin= 0.669508100883718     IErMin= 6 ErrMin= 1.05D-02
 ErrMax= 1.63D-02  0.00D+00 EMaxC= 1.00D-01 BMatC= 9.32D-03 BMatP= 4.01D-03
 IDIUse=2 WtCom= 0.00D+00 WtEn= 1.00D+00
 Coeff-En:   0.000D+00 0.000D+00 0.000D+00 0.000D+00 0.000D+00 0.000D+00
 Coeff-En:   0.100D+01
 Coeff:      0.000D+00 0.000D+00 0.000D+00 0.000D+00 0.000D+00 0.000D+00
 Coeff:      0.100D+01
 Gap=     0.178 Goal=   None    Shift=    0.000
 RMSDP=7.45D-03 MaxDP=1.34D-01 DE=-6.46D-03 OVMax= 1.38D-01

 Cycle   8  Pass 1  IDiag  3:
 E= 0.644227899536986     Delta-E=       -0.025280201347 Rises=F Damp=F
 DIIS: error= 1.12D-02 at cycle   8 NSaved=   8.
 NSaved= 8 IEnMin= 8 EnMin= 0.644227899536986     IErMin= 6 ErrMin= 1.05D-02
 ErrMax= 1.12D-02  0.00D+00 EMaxC= 1.00D-01 BMatC= 2.10D-03 BMatP= 4.01D-03
 IDIUse=3 WtCom= 8.95D-01 WtEn= 1.05D-01
 Coeff-Com:  0.414D-01-0.291D-01-0.178D+00 0.424D+00-0.369D+00 0.196D+00
 Coeff-Com:  0.249D+00 0.666D+00
 Coeff-En:   0.000D+00 0.000D+00 0.000D+00 0.000D+00 0.000D+00 0.000D+00
 Coeff-En:   0.000D+00 0.100D+01
 Coeff:      0.370D-01-0.260D-01-0.159D+00 0.379D+00-0.330D+00 0.175D+00
 Coeff:      0.223D+00 0.701D+00
 Gap=     0.188 Goal=   None    Shift=    0.000
 RMSDP=7.44D-03 MaxDP=1.63D-01 DE=-2.53D-02 OVMax= 2.28D-01

 Cycle   9  Pass 1  IDiag  3:
 E= 0.636511944509152     Delta-E=       -0.007715955028 Rises=F Damp=F
 DIIS: error= 8.14D-03 at cycle   9 NSaved=   9.
 NSaved= 9 IEnMin= 9 EnMin= 0.636511944509152     IErMin= 9 ErrMin= 8.14D-03
 ErrMax= 8.14D-03  0.00D+00 EMaxC= 1.00D-01 BMatC= 3.03D-03 BMatP= 2.10D-03
 IDIUse=3 WtCom= 8.95D-01 WtEn= 1.05D-01
 Coeff-Com:  0.896D-02-0.178D-01 0.454D-02 0.152D+00-0.394D+00 0.954D+00
 Coeff-Com: -0.123D+01 0.670D-02 0.151D+01
 Coeff-En:   0.000D+00 0.000D+00 0.000D+00 0.000D+00 0.000D+00 0.000D+00
 Coeff-En:   0.000D+00 0.000D+00 0.100D+01
 Coeff:      0.802D-02-0.159D-01 0.406D-02 0.136D+00-0.352D+00 0.854D+00
 Coeff:     -0.110D+01 0.599D-02 0.146D+01
 Gap=     0.209 Goal=   None    Shift=    0.000
 RMSDP=3.02D-03 MaxDP=4.69D-02 DE=-7.72D-03 OVMax= 4.16D-02

 Cycle  10  Pass 1  IDiag  3:
 E= 0.623767047671322     Delta-E=       -0.012744896838 Rises=F Damp=F
 DIIS: error= 4.12D-03 at cycle  10 NSaved=  10.
 NSaved=10 IEnMin=10 EnMin= 0.623767047671322     IErMin=10 ErrMin= 4.12D-03
 ErrMax= 4.12D-03  0.00D+00 EMaxC= 1.00D-01 BMatC= 8.13D-04 BMatP= 2.10D-03
 IDIUse=3 WtCom= 9.59D-01 WtEn= 4.12D-02
 Coeff-Com: -0.615D-02-0.503D-02 0.415D-01 0.714D-02 0.686D-01-0.123D+00
 Coeff-Com:  0.504D+00-0.103D+00-0.184D+01 0.246D+01
 Coeff-En:   0.000D+00 0.000D+00 0.000D+00 0.000D+00 0.000D+00 0.000D+00
 Coeff-En:   0.000D+00 0.000D+00 0.000D+00 0.100D+01
 Coeff:     -0.590D-02-0.482D-02 0.398D-01 0.684D-02 0.657D-01-0.118D+00
 Coeff:      0.483D+00-0.988D-01-0.177D+01 0.240D+01
 Gap=     0.205 Goal=   None    Shift=    0.000
 RMSDP=3.15D-03 MaxDP=3.94D-02 DE=-1.27D-02 OVMax= 5.25D-02

 Cycle  11  Pass 1  IDiag  3:
 E= 0.618040956228128     Delta-E=       -0.005726091443 Rises=F Damp=F
 DIIS: error= 1.84D-03 at cycle  11 NSaved=  11.
 NSaved=11 IEnMin=11 EnMin= 0.618040956228128     IErMin=11 ErrMin= 1.84D-03
 ErrMax= 1.84D-03  0.00D+00 EMaxC= 1.00D-01 BMatC= 2.12D-04 BMatP= 8.13D-04
 IDIUse=3 WtCom= 9.82D-01 WtEn= 1.84D-02
 Coeff-Com:  0.236D-02-0.517D-02 0.118D-01-0.210D-02-0.306D-01 0.125D+00
 Coeff-Com: -0.178D+00-0.245D-01 0.483D+00-0.147D+01 0.209D+01
 Coeff-En:   0.000D+00 0.000D+00 0.000D+00 0.000D+00 0.000D+00 0.000D+00
 Coeff-En:   0.000D+00 0.000D+00 0.000D+00 0.000D+00 0.100D+01
 Coeff:      0.232D-02-0.508D-02 0.116D-01-0.206D-02-0.300D-01 0.122D+00
 Coeff:     -0.174D+00-0.241D-01 0.475D+00-0.144D+01 0.207D+01
 Gap=     0.215 Goal=   None    Shift=    0.000
 RMSDP=2.71D-03 MaxDP=3.08D-02 DE=-5.73D-03 OVMax= 5.12D-02

 Cycle  12  Pass 1  IDiag  3:
 E= 0.615988615106744     Delta-E=       -0.002052341121 Rises=F Damp=F
 DIIS: error= 7.37D-04 at cycle  12 NSaved=  12.
 NSaved=12 IEnMin=12 EnMin= 0.615988615106744     IErMin=12 ErrMin= 7.37D-04
 ErrMax= 7.37D-04  0.00D+00 EMaxC= 1.00D-01 BMatC= 3.74D-05 BMatP= 2.12D-04
 IDIUse=3 WtCom= 9.93D-01 WtEn= 7.37D-03
 Coeff-Com: -0.116D-02-0.357D-02 0.918D-02 0.949D-02-0.474D-01 0.173D+00
 Coeff-Com: -0.136D+00-0.418D-01-0.374D-02 0.610D+00-0.137D+01 0.180D+01
 Coeff-En:   0.000D+00 0.000D+00 0.000D+00 0.000D+00 0.000D+00 0.000D+00
 Coeff-En:   0.000D+00 0.000D+00 0.000D+00 0.000D+00 0.000D+00 0.100D+01
 Coeff:     -0.115D-02-0.354D-02 0.911D-02 0.942D-02-0.471D-01 0.172D+00
 Coeff:     -0.135D+00-0.415D-01-0.372D-02 0.606D+00-0.136D+01 0.179D+01
 Gap=     0.211 Goal=   None    Shift=    0.000
 RMSDP=6.05D-04 MaxDP=5.73D-03 DE=-2.05D-03 OVMax= 1.03D-02

 Cycle  13  Pass 1  IDiag  3:
 E= 0.615787943437795     Delta-E=       -0.000200671669 Rises=F Damp=F
 DIIS: error= 5.87D-04 at cycle  13 NSaved=  13.
 NSaved=13 IEnMin=13 EnMin= 0.615787943437795     IErMin=13 ErrMin= 5.87D-04
 ErrMax= 5.87D-04  0.00D+00 EMaxC= 1.00D-01 BMatC= 2.46D-05 BMatP= 3.74D-05
 IDIUse=3 WtCom= 9.94D-01 WtEn= 5.87D-03
 Coeff-Com: -0.100D-02 0.273D-02-0.388D-02 0.138D-01-0.227D-01-0.281D-01
 Coeff-Com:  0.134D+00 0.272D-01-0.499D+00 0.480D+00-0.720D-01-0.822D+00
 Coeff-Com:  0.179D+01
 Coeff-En:   0.000D+00 0.000D+00 0.000D+00 0.000D+00 0.000D+00 0.000D+00
 Coeff-En:   0.000D+00 0.000D+00 0.000D+00 0.000D+00 0.000D+00 0.000D+00
 Coeff-En:   0.100D+01
 Coeff:     -0.994D-03 0.272D-02-0.385D-02 0.137D-01-0.226D-01-0.279D-01
 Coeff:      0.134D+00 0.270D-01-0.496D+00 0.477D+00-0.715D-01-0.817D+00
 Coeff:      0.179D+01
 Gap=     0.214 Goal=   None    Shift=    0.000
 RMSDP=7.07D-04 MaxDP=8.04D-03 DE=-2.01D-04 OVMax= 9.74D-03

 Cycle  14  Pass 1  IDiag  3:
 E= 0.615620822078313     Delta-E=       -0.000167121359 Rises=F Damp=F
 DIIS: error= 4.73D-04 at cycle  14 NSaved=  14.
 NSaved=14 IEnMin=14 EnMin= 0.615620822078313     IErMin=14 ErrMin= 4.73D-04
 ErrMax= 4.73D-04  0.00D+00 EMaxC= 1.00D-01 BMatC= 5.21D-06 BMatP= 2.46D-05
 IDIUse=3 WtCom= 9.95D-01 WtEn= 4.73D-03
 Coeff-Com: -0.176D-02 0.182D-02 0.294D-02-0.881D-03 0.629D-02-0.339D-01
 Coeff-Com: -0.341D-01 0.232D-01 0.358D+00-0.521D+00 0.304D+00-0.132D+00
 Coeff-Com: -0.455D+00 0.148D+01
 Coeff-En:   0.000D+00 0.000D+00 0.000D+00 0.000D+00 0.000D+00 0.000D+00
 Coeff-En:   0.000D+00 0.000D+00 0.000D+00 0.000D+00 0.000D+00 0.000D+00
 Coeff-En:   0.000D+00 0.100D+01
 Coeff:     -0.175D-02 0.181D-02 0.293D-02-0.877D-03 0.626D-02-0.337D-01
 Coeff:     -0.339D-01 0.231D-01 0.357D+00-0.519D+00 0.303D+00-0.131D+00
 Coeff:     -0.453D+00 0.148D+01
 Gap=     0.213 Goal=   None    Shift=    0.000
 RMSDP=2.42D-04 MaxDP=3.32D-03 DE=-1.67D-04 OVMax= 3.74D-03

 Cycle  15  Pass 1  IDiag  3:
 E= 0.615580942115798     Delta-E=       -0.000039879963 Rises=F Damp=F
 DIIS: error= 2.18D-04 at cycle  15 NSaved=  15.
 NSaved=15 IEnMin=15 EnMin= 0.615580942115798     IErMin=15 ErrMin= 2.18D-04
 ErrMax= 2.18D-04  0.00D+00 EMaxC= 1.00D-01 BMatC= 1.16D-06 BMatP= 5.21D-06
 IDIUse=3 WtCom= 9.98D-01 WtEn= 2.18D-03
 Coeff-Com: -0.147D-03-0.101D-03 0.571D-03 0.119D-02-0.323D-02 0.374D-02
 Coeff-Com:  0.171D-01-0.120D-01-0.115D+00 0.215D+00-0.136D+00 0.125D+00
 Coeff-Com: -0.705D-01-0.747D+00 0.172D+01
 Coeff-En:   0.000D+00 0.000D+00 0.000D+00 0.000D+00 0.000D+00 0.000D+00
 Coeff-En:   0.000D+00 0.000D+00 0.000D+00 0.000D+00 0.000D+00 0.000D+00
 Coeff-En:   0.000D+00 0.000D+00 0.100D+01
 Coeff:     -0.147D-03-0.101D-03 0.570D-03 0.119D-02-0.323D-02 0.373D-02
 Coeff:      0.170D-01-0.120D-01-0.115D+00 0.214D+00-0.135D+00 0.124D+00
 Coeff:     -0.704D-01-0.745D+00 0.172D+01
 Gap=     0.215 Goal=   None    Shift=    0.000
 RMSDP=1.66D-04 MaxDP=3.68D-03 DE=-3.99D-05 OVMax= 3.86D-03

 Cycle  16  Pass 1  IDiag  3:
 E= 0.615567990855084     Delta-E=       -0.000012951261 Rises=F Damp=F
 DIIS: error= 1.19D-04 at cycle  16 NSaved=  16.
 NSaved=16 IEnMin=16 EnMin= 0.615567990855084     IErMin=16 ErrMin= 1.19D-04
 ErrMax= 1.19D-04  0.00D+00 EMaxC= 1.00D-01 BMatC= 3.22D-07 BMatP= 1.16D-06
 IDIUse=3 WtCom= 9.99D-01 WtEn= 1.19D-03
 Coeff-Com:  0.341D-03-0.367D-03-0.430D-03 0.161D-02-0.713D-02 0.150D-01
 Coeff-Com: -0.188D-01 0.186D-02 0.549D-01-0.936D-01 0.486D-01-0.430D-01
 Coeff-Com: -0.268D-01 0.468D+00-0.126D+01 0.186D+01
 Coeff-En:   0.000D+00 0.000D+00 0.000D+00 0.000D+00 0.000D+00 0.000D+00
 Coeff-En:   0.000D+00 0.000D+00 0.000D+00 0.000D+00 0.000D+00 0.000D+00
 Coeff-En:   0.000D+00 0.000D+00 0.000D+00 0.100D+01
 Coeff:      0.340D-03-0.367D-03-0.429D-03 0.160D-02-0.713D-02 0.150D-01
 Coeff:     -0.188D-01 0.186D-02 0.548D-01-0.935D-01 0.485D-01-0.429D-01
 Coeff:     -0.268D-01 0.467D+00-0.126D+01 0.186D+01
 Gap=     0.215 Goal=   None    Shift=    0.000
 RMSDP=1.08D-04 MaxDP=1.15D-03 DE=-1.30D-05 OVMax= 2.18D-03

 Cycle  17  Pass 1  IDiag  3:
 E= 0.615563585667473     Delta-E=       -0.000004405188 Rises=F Damp=F
 DIIS: error= 6.49D-05 at cycle  17 NSaved=  17.
 NSaved=17 IEnMin=17 EnMin= 0.615563585667473     IErMin=17 ErrMin= 6.49D-05
 ErrMax= 6.49D-05  0.00D+00 EMaxC= 1.00D-01 BMatC= 9.87D-08 BMatP= 3.22D-07
 IDIUse=1 WtCom= 1.00D+00 WtEn= 0.00D+00
 Coeff-Com: -0.119D-03-0.651D-04 0.618D-03-0.856D-03 0.401D-03-0.214D-02
 Coeff-Com:  0.386D-02 0.976D-03-0.140D-01 0.229D-01-0.769D-02-0.583D-02
 Coeff-Com:  0.119D-01-0.214D+00 0.556D+00-0.130D+01 0.195D+01
 Coeff:     -0.119D-03-0.651D-04 0.618D-03-0.856D-03 0.401D-03-0.214D-02
 Coeff:      0.386D-02 0.976D-03-0.140D-01 0.229D-01-0.769D-02-0.583D-02
 Coeff:      0.119D-01-0.214D+00 0.556D+00-0.130D+01 0.195D+01
 Gap=     0.214 Goal=   None    Shift=    0.000
 RMSDP=8.16D-05 MaxDP=8.06D-04 DE=-4.41D-06 OVMax= 1.50D-03

 Cycle  18  Pass 1  IDiag  3:
 E= 0.615562124098801     Delta-E=       -0.000001461569 Rises=F Damp=F
 DIIS: error= 1.92D-05 at cycle  18 NSaved=  18.
 NSaved=18 IEnMin=18 EnMin= 0.615562124098801     IErMin=18 ErrMin= 1.92D-05
 ErrMax= 1.92D-05  0.00D+00 EMaxC= 1.00D-01 BMatC= 2.09D-08 BMatP= 9.87D-08
 IDIUse=1 WtCom= 1.00D+00 WtEn= 0.00D+00
 Coeff-Com: -0.624D-04 0.733D-04 0.311D-03-0.602D-03 0.724D-03-0.136D-02
 Coeff-Com:  0.197D-02 0.483D-03-0.377D-02-0.181D-03 0.362D-02-0.203D-01
 Coeff-Com:  0.304D-01 0.385D-01-0.222D+00 0.434D+00-0.848D+00 0.159D+01
 Coeff:     -0.624D-04 0.733D-04 0.311D-03-0.602D-03 0.724D-03-0.136D-02
 Coeff:      0.197D-02 0.483D-03-0.377D-02-0.181D-03 0.362D-02-0.203D-01
 Coeff:      0.304D-01 0.385D-01-0.222D+00 0.434D+00-0.848D+00 0.159D+01
 Gap=     0.214 Goal=   None    Shift=    0.000
 RMSDP=3.33D-05 MaxDP=3.59D-04 DE=-1.46D-06 OVMax= 5.68D-04

 Cycle  19  Pass 1  IDiag  3:
 E= 0.615561939097461     Delta-E=       -0.000000185001 Rises=F Damp=F
 DIIS: error= 9.17D-06 at cycle  19 NSaved=  19.
 NSaved=19 IEnMin=19 EnMin= 0.615561939097461     IErMin=19 ErrMin= 9.17D-06
 ErrMax= 9.17D-06  0.00D+00 EMaxC= 1.00D-01 BMatC= 7.38D-09 BMatP= 2.09D-08
 IDIUse=1 WtCom= 1.00D+00 WtEn= 0.00D+00
 Coeff-Com: -0.419D-04 0.222D-04 0.474D-04-0.281D-03 0.622D-03-0.934D-03
 Coeff-Com:  0.487D-04-0.355D-03 0.784D-03-0.252D-03 0.593D-02-0.219D-02
 Coeff-Com: -0.512D-02-0.390D-01 0.193D+00-0.497D+00 0.926D+00-0.152D+01
 Coeff-Com:  0.194D+01
 Coeff:     -0.419D-04 0.222D-04 0.474D-04-0.281D-03 0.622D-03-0.934D-03
 Coeff:      0.487D-04-0.355D-03 0.784D-03-0.252D-03 0.593D-02-0.219D-02
 Coeff:     -0.512D-02-0.390D-01 0.193D+00-0.497D+00 0.926D+00-0.152D+01
 Coeff:      0.194D+01
 Gap=     0.214 Goal=   None    Shift=    0.000
 RMSDP=8.52D-06 MaxDP=8.81D-05 DE=-1.85D-07 OVMax= 1.17D-04

 Cycle  20  Pass 1  IDiag  3:
 E= 0.615561890863319     Delta-E=       -0.000000048234 Rises=F Damp=F
 DIIS: error= 6.04D-06 at cycle  20 NSaved=  20.
 NSaved=20 IEnMin=20 EnMin= 0.615561890863319     IErMin=20 ErrMin= 6.04D-06
 ErrMax= 6.04D-06  0.00D+00 EMaxC= 1.00D-01 BMatC= 2.24D-09 BMatP= 7.38D-09
 IDIUse=1 WtCom= 1.00D+00 WtEn= 0.00D+00
 Coeff-Com:  0.137D-04 0.931D-05-0.318D-04 0.385D-04 0.694D-04-0.620D-04
 Coeff-Com:  0.616D-03-0.239D-03-0.236D-02 0.306D-02-0.257D-02 0.838D-03
 Coeff-Com:  0.516D-02-0.287D-02-0.324D-01 0.139D+00-0.309D+00 0.695D+00
 Coeff-Com: -0.134D+01 0.185D+01
 Coeff:      0.137D-04 0.931D-05-0.318D-04 0.385D-04 0.694D-04-0.620D-04
 Coeff:      0.616D-03-0.239D-03-0.236D-02 0.306D-02-0.257D-02 0.838D-03
 Coeff:      0.516D-02-0.287D-02-0.324D-01 0.139D+00-0.309D+00 0.695D+00
 Coeff:     -0.134D+01 0.185D+01
 Gap=     0.214 Goal=   None    Shift=    0.000
 RMSDP=7.75D-06 MaxDP=7.64D-05 DE=-4.82D-08 OVMax= 1.34D-04

 Cycle  21  Pass 1  IDiag  3:
 E= 0.615561872970488     Delta-E=       -0.000000017893 Rises=F Damp=F
 DIIS: error= 2.98D-06 at cycle  21 NSaved=  20.
 NSaved=20 IEnMin=20 EnMin= 0.615561872970488     IErMin=20 ErrMin= 2.98D-06
 ErrMax= 2.98D-06  0.00D+00 EMaxC= 1.00D-01 BMatC= 3.83D-10 BMatP= 2.24D-09
 IDIUse=1 WtCom= 1.00D+00 WtEn= 0.00D+00
 Coeff-Com: -0.278D-05-0.215D-04-0.196D-04 0.173D-03-0.519D-03 0.300D-03
 Coeff-Com:  0.119D-03 0.659D-03-0.158D-02 0.158D-02 0.624D-03-0.601D-02
 Coeff-Com:  0.610D-02 0.144D-01-0.646D-01 0.132D+00-0.319D+00 0.737D+00
 Coeff-Com: -0.123D+01 0.173D+01
 Coeff:     -0.278D-05-0.215D-04-0.196D-04 0.173D-03-0.519D-03 0.300D-03
 Coeff:      0.119D-03 0.659D-03-0.158D-02 0.158D-02 0.624D-03-0.601D-02
 Coeff:      0.610D-02 0.144D-01-0.646D-01 0.132D+00-0.319D+00 0.737D+00
 Coeff:     -0.123D+01 0.173D+01
 Gap=     0.214 Goal=   None    Shift=    0.000
 RMSDP=3.18D-06 MaxDP=5.78D-05 DE=-1.79D-08 OVMax= 6.56D-05

 Cycle  22  Pass 1  IDiag  3:
 E= 0.615561868781242     Delta-E=       -0.000000004189 Rises=F Damp=F
 DIIS: error= 2.68D-06 at cycle  22 NSaved=  20.
 NSaved=20 IEnMin=20 EnMin= 0.615561868781242     IErMin=20 ErrMin= 2.68D-06
 ErrMax= 2.68D-06  0.00D+00 EMaxC= 1.00D-01 BMatC= 2.10D-10 BMatP= 3.83D-10
 IDIUse=1 WtCom= 1.00D+00 WtEn= 0.00D+00
 Coeff-Com:  0.226D-04-0.659D-04 0.173D-03-0.307D-03 0.347D-03-0.194D-04
 Coeff-Com: -0.735D-03 0.957D-03 0.134D-03-0.227D-02 0.477D-02-0.757D-02
 Coeff-Com:  0.539D-02 0.452D-02-0.138D-01 0.530D-01-0.282D+00 0.579D+00
 Coeff-Com: -0.127D+01 0.192D+01
 Coeff:      0.226D-04-0.659D-04 0.173D-03-0.307D-03 0.347D-03-0.194D-04
 Coeff:     -0.735D-03 0.957D-03 0.134D-03-0.227D-02 0.477D-02-0.757D-02
 Coeff:      0.539D-02 0.452D-02-0.138D-01 0.530D-01-0.282D+00 0.579D+00
 Coeff:     -0.127D+01 0.192D+01
 Gap=     0.214 Goal=   None    Shift=    0.000
 RMSDP=2.96D-06 MaxDP=4.45D-05 DE=-4.19D-09 OVMax= 8.47D-05

 Cycle  23  Pass 1  IDiag  3:
 E= 0.615561864976257     Delta-E=       -0.000000003805 Rises=F Damp=F
 DIIS: error= 1.98D-06 at cycle  23 NSaved=  20.
 NSaved=20 IEnMin=20 EnMin= 0.615561864976257     IErMin=20 ErrMin= 1.98D-06
 ErrMax= 1.98D-06  0.00D+00 EMaxC= 1.00D-01 BMatC= 8.75D-11 BMatP= 2.10D-10
 IDIUse=1 WtCom= 1.00D+00 WtEn= 0.00D+00
 Coeff-Com: -0.327D-04 0.802D-04-0.121D-03 0.350D-04 0.348D-04 0.177D-03
 Coeff-Com: -0.133D-03-0.399D-03 0.180D-02-0.398D-02 0.367D-02-0.114D-02
 Coeff-Com: -0.373D-02-0.789D-03 0.114D-01 0.925D-02-0.136D+00 0.430D+00
 Coeff-Com: -0.146D+01 0.215D+01
 Coeff:     -0.327D-04 0.802D-04-0.121D-03 0.350D-04 0.348D-04 0.177D-03
 Coeff:     -0.133D-03-0.399D-03 0.180D-02-0.398D-02 0.367D-02-0.114D-02
 Coeff:     -0.373D-02-0.789D-03 0.114D-01 0.925D-02-0.136D+00 0.430D+00
 Coeff:     -0.146D+01 0.215D+01
 Gap=     0.214 Goal=   None    Shift=    0.000
 RMSDP=3.46D-06 MaxDP=5.45D-05 DE=-3.80D-09 OVMax= 1.03D-04

 Cycle  24  Pass 1  IDiag  3:
 E= 0.615561862278014     Delta-E=       -0.000000002698 Rises=F Damp=F
 DIIS: error= 1.25D-06 at cycle  24 NSaved=  20.
 NSaved=20 IEnMin=20 EnMin= 0.615561862278014     IErMin=20 ErrMin= 1.25D-06
 ErrMax= 1.25D-06  0.00D+00 EMaxC= 1.00D-01 BMatC= 4.89D-11 BMatP= 8.75D-11
 IDIUse=1 WtCom= 1.00D+00 WtEn= 0.00D+00
 Coeff-Com:  0.122D-04-0.782D-05 0.862D-04 0.946D-05-0.342D-03 0.626D-03
 Coeff-Com: -0.603D-03 0.642D-04 0.107D-02-0.259D-02 0.145D-03 0.722D-02
 Coeff-Com: -0.115D-01 0.238D-01-0.690D-01 0.427D-01-0.637D-01 0.366D+00
 Coeff-Com: -0.103D+01 0.174D+01
 Coeff:      0.122D-04-0.782D-05 0.862D-04 0.946D-05-0.342D-03 0.626D-03
 Coeff:     -0.603D-03 0.642D-04 0.107D-02-0.259D-02 0.145D-03 0.722D-02
 Coeff:     -0.115D-01 0.238D-01-0.690D-01 0.427D-01-0.637D-01 0.366D+00
 Coeff:     -0.103D+01 0.174D+01
 Gap=     0.214 Goal=   None    Shift=    0.000
 RMSDP=2.14D-06 MaxDP=3.20D-05 DE=-2.70D-09 OVMax= 5.91D-05

 Cycle  25  Pass 1  IDiag  3:
 E= 0.615561861156152     Delta-E=       -0.000000001122 Rises=F Damp=F
 DIIS: error= 7.58D-07 at cycle  25 NSaved=  20.
 NSaved=20 IEnMin=20 EnMin= 0.615561861156152     IErMin=20 ErrMin= 7.58D-07
 ErrMax= 7.58D-07  0.00D+00 EMaxC= 1.00D-01 BMatC= 2.24D-11 BMatP= 4.89D-11
 IDIUse=1 WtCom= 1.00D+00 WtEn= 0.00D+00
 Coeff-Com: -0.295D-05-0.278D-05 0.193D-04 0.686D-04-0.118D-03-0.942D-04
 Coeff-Com:  0.369D-03-0.519D-03 0.732D-03-0.513D-03-0.327D-02 0.546D-02
 Coeff-Com:  0.268D-02-0.233D-01 0.725D-01-0.173D+00 0.169D+00 0.117D+00
 Coeff-Com: -0.118D+01 0.202D+01
 Coeff:     -0.295D-05-0.278D-05 0.193D-04 0.686D-04-0.118D-03-0.942D-04
 Coeff:      0.369D-03-0.519D-03 0.732D-03-0.513D-03-0.327D-02 0.546D-02
 Coeff:      0.268D-02-0.233D-01 0.725D-01-0.173D+00 0.169D+00 0.117D+00
 Coeff:     -0.118D+01 0.202D+01
 Gap=     0.214 Goal=   None    Shift=    0.000
 RMSDP=1.65D-06 MaxDP=2.63D-05 DE=-1.12D-09 OVMax= 4.86D-05

 Cycle  26  Pass 1  IDiag  3:
 E= 0.615561860662524     Delta-E=       -0.000000000494 Rises=F Damp=F
 DIIS: error= 4.47D-07 at cycle  26 NSaved=  20.
 NSaved=20 IEnMin=20 EnMin= 0.615561860662524     IErMin=20 ErrMin= 4.47D-07
 ErrMax= 4.47D-07  0.00D+00 EMaxC= 1.00D-01 BMatC= 7.79D-12 BMatP= 2.24D-11
 IDIUse=1 WtCom= 1.00D+00 WtEn= 0.00D+00
 Coeff-Com:  0.293D-04-0.156D-05-0.137D-03 0.256D-03-0.277D-03 0.227D-03
 Coeff-Com:  0.125D-04-0.571D-03 0.788D-03-0.374D-03 0.461D-03-0.217D-02
 Coeff-Com: -0.123D-01 0.180D-01-0.145D-02-0.811D-01 0.281D+00-0.211D+00
 Coeff-Com: -0.735D+00 0.174D+01
 Coeff:      0.293D-04-0.156D-05-0.137D-03 0.256D-03-0.277D-03 0.227D-03
 Coeff:      0.125D-04-0.571D-03 0.788D-03-0.374D-03 0.461D-03-0.217D-02
 Coeff:     -0.123D-01 0.180D-01-0.145D-02-0.811D-01 0.281D+00-0.211D+00
 Coeff:     -0.735D+00 0.174D+01
 Gap=     0.214 Goal=   None    Shift=    0.000
 RMSDP=8.61D-07 MaxDP=1.35D-05 DE=-4.94D-10 OVMax= 2.44D-05

 Cycle  27  Pass 1  IDiag  3:
 E= 0.615561860532694     Delta-E=       -0.000000000130 Rises=F Damp=F
 DIIS: error= 2.24D-07 at cycle  27 NSaved=  20.
 NSaved=20 IEnMin=20 EnMin= 0.615561860532694     IErMin=20 ErrMin= 2.24D-07
 ErrMax= 2.24D-07  0.00D+00 EMaxC= 1.00D-01 BMatC= 2.26D-12 BMatP= 7.79D-12
 IDIUse=1 WtCom= 1.00D+00 WtEn= 0.00D+00
 Coeff-Com: -0.454D-05-0.107D-05 0.142D-04 0.371D-05 0.641D-04-0.150D-03
 Coeff-Com: -0.102D-03 0.548D-03-0.129D-02 0.168D-02 0.796D-04-0.432D-02
 Coeff-Com:  0.528D-02-0.177D-01 0.464D-01-0.213D-01-0.123D-01 0.950D-01
 Coeff-Com: -0.848D+00 0.176D+01
 Coeff:     -0.454D-05-0.107D-05 0.142D-04 0.371D-05 0.641D-04-0.150D-03
 Coeff:     -0.102D-03 0.548D-03-0.129D-02 0.168D-02 0.796D-04-0.432D-02
 Coeff:      0.528D-02-0.177D-01 0.464D-01-0.213D-01-0.123D-01 0.950D-01
 Coeff:     -0.848D+00 0.176D+01
 Gap=     0.214 Goal=   None    Shift=    0.000
 RMSDP=3.93D-07 MaxDP=5.97D-06 DE=-1.30D-10 OVMax= 1.04D-05

 Cycle  28  Pass 1  IDiag  3:
 E= 0.615561860510638     Delta-E=       -0.000000000022 Rises=F Damp=F
 DIIS: error= 7.57D-08 at cycle  28 NSaved=  20.
 NSaved=20 IEnMin=20 EnMin= 0.615561860510638     IErMin=20 ErrMin= 7.57D-08
 ErrMax= 7.57D-08  0.00D+00 EMaxC= 1.00D-01 BMatC= 4.52D-13 BMatP= 2.26D-12
 IDIUse=1 WtCom= 1.00D+00 WtEn= 0.00D+00
 Coeff-Com:  0.196D-05 0.345D-05-0.199D-04 0.311D-04 0.382D-05-0.605D-05
 Coeff-Com: -0.850D-04 0.124D-03 0.156D-03-0.148D-02 0.131D-02 0.582D-03
 Coeff-Com: -0.602D-02-0.766D-02 0.362D-01-0.214D-01-0.108D-02 0.125D+00
 Coeff-Com: -0.751D+00 0.163D+01
 Coeff:      0.196D-05 0.345D-05-0.199D-04 0.311D-04 0.382D-05-0.605D-05
 Coeff:     -0.850D-04 0.124D-03 0.156D-03-0.148D-02 0.131D-02 0.582D-03
 Coeff:     -0.602D-02-0.766D-02 0.362D-01-0.214D-01-0.108D-02 0.125D+00
 Coeff:     -0.751D+00 0.163D+01
 Gap=     0.214 Goal=   None    Shift=    0.000
 RMSDP=1.06D-07 MaxDP=1.38D-06 DE=-2.21D-11 OVMax= 2.26D-06

 Cycle  29  Pass 1  IDiag  3:
 E= 0.615561860504044     Delta-E=       -0.000000000007 Rises=F Damp=F
 DIIS: error= 3.01D-08 at cycle  29 NSaved=  20.
 NSaved=20 IEnMin=20 EnMin= 0.615561860504044     IErMin=20 ErrMin= 3.01D-08
 ErrMax= 3.01D-08  0.00D+00 EMaxC= 1.00D-01 BMatC= 8.11D-14 BMatP= 4.52D-13
 IDIUse=1 WtCom= 1.00D+00 WtEn= 0.00D+00
 Coeff-Com:  0.462D-06 0.650D-06-0.105D-05-0.224D-04 0.529D-04-0.627D-04
 Coeff-Com:  0.633D-04-0.313D-03 0.136D-02-0.180D-02 0.105D-02 0.138D-02
 Coeff-Com:  0.703D-03-0.846D-02 0.152D-02 0.113D-01-0.416D-01 0.281D+00
 Coeff-Com: -0.983D+00 0.174D+01
 Coeff:      0.462D-06 0.650D-06-0.105D-05-0.224D-04 0.529D-04-0.627D-04
 Coeff:      0.633D-04-0.313D-03 0.136D-02-0.180D-02 0.105D-02 0.138D-02
 Coeff:      0.703D-03-0.846D-02 0.152D-02 0.113D-01-0.416D-01 0.281D+00
 Coeff:     -0.983D+00 0.174D+01
 Gap=     0.214 Goal=   None    Shift=    0.000
 RMSDP=3.16D-08 MaxDP=2.80D-07 DE=-6.59D-12 OVMax= 5.74D-07

 Cycle  30  Pass 1  IDiag  3:
 E= 0.615561860507228     Delta-E=        0.000000000003 Rises=F Damp=F
 DIIS: error= 1.81D-08 at cycle  30 NSaved=  20.
 NSaved=20 IEnMin=19 EnMin= 0.615561860504044     IErMin=20 ErrMin= 1.81D-08
 ErrMax= 1.81D-08  0.00D+00 EMaxC= 1.00D-01 BMatC= 1.73D-14 BMatP= 8.11D-14
 IDIUse=1 WtCom= 1.00D+00 WtEn= 0.00D+00
 Large coefficients: NSaved= 20 BigCof=    0.00 CofMax=   10.00 Det=-3.14D-15
 Inversion failed.  Reducing to 19 matrices.
 Large coefficients: NSaved= 19 BigCof=    0.00 CofMax=   10.00 Det=-3.18D-15
 Inversion failed.  Reducing to 18 matrices.
 Large coefficients: NSaved= 18 BigCof=    0.00 CofMax=   10.00 Det=-3.18D-15
 Inversion failed.  Reducing to 17 matrices.
 Large coefficients: NSaved= 17 BigCof=    0.00 CofMax=   10.00 Det=-3.58D-15
 Inversion failed.  Reducing to 16 matrices.
 Large coefficients: NSaved= 16 BigCof=    0.00 CofMax=   10.00 Det=-3.59D-15
 Inversion failed.  Reducing to 15 matrices.
 Coeff-Com: -0.411D-04 0.263D-03-0.103D-02 0.222D-02-0.286D-02 0.240D-02
 Coeff-Com: -0.327D-02 0.450D-02 0.684D-03-0.517D-02 0.613D-02-0.931D-01
 Coeff-Com:  0.435D+00-0.122D+01 0.187D+01
 Coeff:     -0.411D-04 0.263D-03-0.103D-02 0.222D-02-0.286D-02 0.240D-02
 Coeff:     -0.327D-02 0.450D-02 0.684D-03-0.517D-02 0.613D-02-0.931D-01
 Coeff:      0.435D+00-0.122D+01 0.187D+01
 Gap=     0.214 Goal=   None    Shift=    0.000
 RMSDP=1.75D-08 MaxDP=1.85D-07 DE= 3.18D-12 OVMax= 3.84D-07

 Cycle  31  Pass 1  IDiag  3:
 E= 0.615561860503590     Delta-E=       -0.000000000004 Rises=F Damp=F
 DIIS: error= 1.01D-08 at cycle  31 NSaved=  16.
 NSaved=16 IEnMin=16 EnMin= 0.615561860503590     IErMin=16 ErrMin= 1.01D-08
 ErrMax= 1.01D-08  0.00D+00 EMaxC= 1.00D-01 BMatC= 4.07D-15 BMatP= 1.73D-14
 IDIUse=1 WtCom= 1.00D+00 WtEn= 0.00D+00
 Large coefficients: NSaved= 16 BigCof=    0.00 CofMax=   10.00 Det=-5.99D-16
 Inversion failed.  Reducing to 15 matrices.
 Coeff-Com: -0.115D-03 0.498D-03-0.929D-03 0.102D-02-0.721D-03 0.152D-02
 Coeff-Com: -0.257D-02 0.645D-03 0.154D-02-0.303D-02 0.368D-01-0.190D+00
 Coeff-Com:  0.569D+00-0.132D+01 0.191D+01
 Coeff:     -0.115D-03 0.498D-03-0.929D-03 0.102D-02-0.721D-03 0.152D-02
 Coeff:     -0.257D-02 0.645D-03 0.154D-02-0.303D-02 0.368D-01-0.190D+00
 Coeff:      0.569D+00-0.132D+01 0.191D+01
 Gap=     0.214 Goal=   None    Shift=    0.000
 RMSDP=1.03D-08 MaxDP=1.22D-07 DE=-3.64D-12 OVMax= 2.54D-07

 Cycle  32  Pass 1  IDiag  3:
 E= 0.615561860503931     Delta-E=        0.000000000000 Rises=F Damp=F
 DIIS: error= 4.92D-09 at cycle  32 NSaved=  16.
 NSaved=16 IEnMin=15 EnMin= 0.615561860503590     IErMin=16 ErrMin= 4.92D-09
 ErrMax= 4.92D-09  0.00D+00 EMaxC= 1.00D-01 BMatC= 9.68D-16 BMatP= 4.07D-15
 IDIUse=1 WtCom= 1.00D+00 WtEn= 0.00D+00
 Large coefficients: NSaved= 16 BigCof=    0.00 CofMax=   10.00 Det=-1.44D-16
 Inversion failed.  Reducing to 15 matrices.
 Coeff-Com:  0.152D-04-0.783D-04 0.148D-03-0.679D-04-0.275D-03 0.720D-03
 Coeff-Com: -0.496D-03 0.930D-03-0.429D-02 0.594D-02 0.503D-02-0.958D-01
 Coeff-Com:  0.381D+00-0.110D+01 0.180D+01
 Coeff:      0.152D-04-0.783D-04 0.148D-03-0.679D-04-0.275D-03 0.720D-03
 Coeff:     -0.496D-03 0.930D-03-0.429D-02 0.594D-02 0.503D-02-0.958D-01
 Coeff:      0.381D+00-0.110D+01 0.180D+01
 Gap=     0.214 Goal=   None    Shift=    0.000
 RMSDP=5.78D-09 MaxDP=7.35D-08 DE= 3.41D-13 OVMax= 1.49D-07

 >>>>>>>>>> Convergence criterion not met.
 SCF Done:  E(RAM1) =  0.615561860504     A.U. after   33 cycles
            NFock= 32  Conv=0.58D-08     -V/T= 1.0026
 KE=-2.359130524847D+02 PE=-7.562279401838D+02 EE= 4.656945935561D+02
 Leave Link  502 at Fri May 23 05:16:39 2025, MaxMem=  3758096384 cpu:               0.2 elap:               0.1
 (Enter /apps/easybuild-2022/easybuild/software/Compiler/NVHPC/22.11-CUDA-11.7.0/Gaussian/g16c01-CUDA-11.7.0/g16/l508.exe)
 Keep J ints in memory in canonical form, NReq=866260.
 FoFCou: FMM=F IPFlag=           0 FMFlag=           0 FMFlg1=           0
         NFxFlg=           0 DoJE=F BraDBF=F KetDBF=F FulRan=T
         wScrn=  0.000000 ICntrl=       600 IOpCl=  2 I1Cent=           0 NGrid=           0
         NMat0=    1 NMatS0=    111 NMatT0=    0 NMatD0=    1 NMtDS0=    0 NMtDT0=    0
 Symmetry not used in FoFCou.
 Two-electron integral symmetry not used.
 Tight linear equation convergence will be used.
 RAM1 wavefunction.
 Quadratic Convergence SCF Method.
 Line search only if initial step raises energy.
 Iteration   1 EE= 0.615561860501089                                    Grad=1.909D-08 Max rot=    0.0000 deg.
 Rotation gradient small -- convergence achieved.
 SCF Done:  E(RAM1) =  0.615561860501     a.u. after    1 cycles
            Convg  =    0.1909D-07                     1 Fock formations.
              S**2 =  0.0000                  -V/T =  1.0026
 Leave Link  508 at Fri May 23 05:16:39 2025, MaxMem=  3758096384 cpu:               0.2 elap:               0.1
 (Enter /apps/easybuild-2022/easybuild/software/Compiler/NVHPC/22.11-CUDA-11.7.0/Gaussian/g16c01-CUDA-11.7.0/g16/l701.exe)
 ... and contract with generalized density number  0.
 Compute integral first derivatives.
 Leave Link  701 at Fri May 23 05:16:39 2025, MaxMem=  3758096384 cpu:               0.1 elap:               0.0
 (Enter /apps/easybuild-2022/easybuild/software/Compiler/NVHPC/22.11-CUDA-11.7.0/Gaussian/g16c01-CUDA-11.7.0/g16/l702.exe)
 L702 exits ... SP integral derivatives will be done elsewhere.
 Leave Link  702 at Fri May 23 05:16:39 2025, MaxMem=  3758096384 cpu:               0.1 elap:               0.0
 (Enter /apps/easybuild-2022/easybuild/software/Compiler/NVHPC/22.11-CUDA-11.7.0/Gaussian/g16c01-CUDA-11.7.0/g16/l703.exe)
 Integral derivatives from FoFJK, PRISM(SPDF).
 Compute integral first derivatives, UseDBF=F ICtDFT=           0.
 Calling FoFJK, ICntrl=      2127 FMM=F ISym2X=0 I1Cent= 0 IOpClX= 0 NMat=1 NMatS=1 NMatT=0.
 FoFJK:  IHMeth= 8 ICntrl=    2127 DoSepK=F KAlg= 0 I1Cent=           0 FoldK=F
 IRaf=         0 NMat=       1 IRICut=       1 DoRegI=T DoRafI=F ISym2E= 0 IDoP0=3 IntGTp=3.
 FoFCou: FMM=F IPFlag=           0 FMFlag=      100000 FMFlg1=         800
         NFxFlg=           0 DoJE=F BraDBF=F KetDBF=F FulRan=T
         wScrn=  0.000000 ICntrl=      2127 IOpCl=  0 I1Cent=           0 NGrid=           0
         NMat0=    1 NMatS0=      1 NMatT0=    0 NMatD0=    1 NMtDS0=    0 NMtDT0=    0
 Symmetry not used in FoFCou.
 Leave Link  703 at Fri May 23 05:16:39 2025, MaxMem=  3758096384 cpu:               0.1 elap:               0.0
 (Enter /apps/easybuild-2022/easybuild/software/Compiler/NVHPC/22.11-CUDA-11.7.0/Gaussian/g16c01-CUDA-11.7.0/g16/l716.exe)
 Dipole        =-6.32018215D-01 6.93713559D-01-7.18827452D-01
 -------------------------------------------------------------------
 Center     Atomic                   Forces (Hartrees/Bohr)
 Number     Number              X              Y              Z
 -------------------------------------------------------------------
      1        6           0.008006646    0.016618158    0.041694427
      2        6          -0.005877254    0.084421618   -0.008152706
      3        9           0.066979018    0.076135513    0.006273855
      4        9           0.004083006   -0.019455842    0.030299166
      5       16           0.048414344   -0.051208466    0.045704015
      6        8          -0.101515113   -0.067873975   -0.006832202
      7        8          -0.018037080   -0.019431479   -0.026485390
      8        8           0.003884733    0.009146051   -0.024869621
      9        9          -0.009259055    0.034292831   -0.049898883
     10        9           0.040793579   -0.023789461   -0.008867928
     11        9          -0.040162384   -0.038720247   -0.001840121
     12        1           0.002689559   -0.000134702    0.002975387
 -------------------------------------------------------------------
 Cartesian Forces:  Max     0.101515113 RMS     0.038826475
 Z-matrix is all fixed cartesians, so copy forces.
 Force constants in Cartesian coordinates: 
                1             2             3             4             5 
      1  0.945841D+00
      2  0.128474D-02  0.944003D+00
      3 -0.610040D-03 -0.625809D-01  0.867561D+00
      4 -0.112704D+00  0.406493D-02 -0.302445D-02  0.219753D+00
      5  0.519450D-02 -0.212270D+00 -0.695922D-01 -0.524002D-01  0.849351D+00
      6 -0.179322D-02 -0.779598D-01 -0.271119D+00  0.594014D-01 -0.115542D+00
      7  0.000000D+00  0.000000D+00  0.000000D+00 -0.430712D-05 -0.748447D-05
      8  0.000000D+00  0.000000D+00  0.000000D+00 -0.748447D-05 -0.130058D-04
      9  0.000000D+00  0.000000D+00  0.000000D+00  0.128738D-03  0.223708D-03
     10  0.793341D-02 -0.699421D-03  0.405293D-03 -0.507007D-01  0.336338D-01
     11 -0.277177D-02  0.246508D-01 -0.156474D-01  0.330439D-01 -0.250428D+00
     12 -0.278939D-02  0.159222D-01 -0.101019D-01 -0.477565D-01  0.215778D+00
     13  0.130228D-01 -0.159965D-03  0.375090D-04 -0.101234D+00  0.128761D-01
     14  0.516327D-03  0.132438D-02 -0.843942D-03  0.127195D-01 -0.403168D+00
     15  0.161898D-02 -0.235411D-01  0.149480D-01 -0.116767D-01 -0.193622D-01
     16 -0.111228D-03 -0.541799D-05  0.398978D-05  0.641128D-02  0.305157D-03
     17 -0.193281D-03 -0.941484D-05  0.693304D-05  0.264860D-01  0.122146D-02
     18  0.332457D-02  0.161941D-03 -0.119253D-03  0.105527D-02 -0.441831D-03
     19  0.330028D-02  0.160758D-03 -0.118382D-03  0.927594D-02  0.926708D-04
     20  0.291651D-03  0.142065D-04 -0.104616D-04 -0.148550D-01  0.476537D-03
     21 -0.243197D-02 -0.118462D-03  0.872351D-04  0.464204D-02 -0.411225D-03
     22 -0.319387D-02 -0.155575D-03  0.114565D-03  0.837145D-02  0.463076D-03
     23 -0.967133D-04 -0.471096D-05  0.346913D-05 -0.140829D-01 -0.188486D-02
     24 -0.925850D-03 -0.450986D-04  0.332104D-04 -0.376175D-02 -0.685439D-03
     25 -0.820305D-01  0.418687D-01 -0.593451D-01  0.180846D-02 -0.156161D-02
     26  0.405967D-01 -0.232885D+00  0.216043D+00 -0.427841D-02  0.238894D-01
     27 -0.603728D-01  0.226961D+00 -0.417032D+00 -0.325088D-02  0.166270D-01
     28 -0.432971D+00  0.208590D+00  0.709757D-01  0.129278D-01 -0.369011D-02
     29  0.214290D+00 -0.200460D+00 -0.505910D-01  0.121367D-01 -0.282244D-02
     30  0.799684D-01 -0.548015D-01 -0.997455D-01  0.274440D-01 -0.961449D-02
     31 -0.339087D+00 -0.254949D+00 -0.843913D-02  0.910454D-02  0.518519D-02
     32 -0.259112D+00 -0.324363D+00 -0.167875D-01 -0.819000D-02 -0.451447D-02
     33 -0.159886D-01 -0.239989D-01 -0.845118D-01 -0.246833D-01 -0.170236D-01
     34  0.000000D+00  0.000000D+00  0.000000D+00 -0.300896D-02 -0.911139D-04
     35  0.000000D+00  0.000000D+00  0.000000D+00  0.536290D-02  0.162393D-03
     36  0.000000D+00  0.000000D+00  0.000000D+00  0.148205D-02  0.448777D-04
                6             7             8             9            10 
      6  0.838740D+00
      7  0.128738D-03  0.888470D-01
      8  0.223708D-03  0.735831D-01  0.106998D+00
      9 -0.384793D-02  0.684169D-02  0.797213D-02  0.129093D-01
     10 -0.490974D-01  0.000000D+00  0.000000D+00  0.000000D+00  0.313187D-01
     11  0.220052D+00  0.000000D+00  0.000000D+00  0.000000D+00 -0.335425D-01
     12 -0.445447D+00  0.000000D+00  0.000000D+00  0.000000D+00  0.499015D-01
     13 -0.123264D-01 -0.463504D-02  0.410255D-02 -0.527175D-04  0.114434D-01
     14 -0.190935D-01 -0.192028D-01  0.169594D-01  0.207520D-03  0.604397D-03
     15 -0.153909D+00 -0.144951D-02  0.813851D-03  0.533178D-02 -0.124091D-02
     16 -0.103763D-03 -0.842098D-01 -0.776820D-01 -0.685205D-02  0.116954D-03
     17  0.263983D-03 -0.543692D-01 -0.123938D+00 -0.851342D-02  0.203232D-03
     18  0.868031D-02 -0.536108D-02 -0.873194D-02 -0.191708D-01 -0.349572D-02
     19  0.601570D-02  0.293153D-04  0.509412D-04 -0.876222D-03 -0.347018D-02
     20 -0.206801D-01  0.112587D-03  0.195643D-03 -0.336519D-02 -0.306665D-03
     21  0.110988D-01 -0.102145D-03 -0.177497D-03  0.305307D-02  0.255717D-02
     22 -0.127770D-02 -0.271183D-04 -0.471235D-04  0.810556D-03  0.335830D-02
     23  0.216958D-01 -0.116270D-03 -0.202042D-03  0.347525D-02  0.101692D-03
     24  0.901160D-02 -0.576959D-04 -0.100258D-03  0.172451D-02  0.973514D-03
     25  0.983214D-03  0.000000D+00  0.000000D+00  0.000000D+00  0.134710D-02
     26 -0.151563D-01  0.000000D+00  0.000000D+00  0.000000D+00  0.177341D-03
     27 -0.105474D-01  0.000000D+00  0.000000D+00  0.000000D+00 -0.119300D-03
     28  0.228073D-02  0.000000D+00  0.000000D+00  0.000000D+00 -0.491623D-03
     29  0.173338D-02  0.000000D+00  0.000000D+00  0.000000D+00 -0.108765D-02
     30  0.597312D-02  0.000000D+00  0.000000D+00  0.000000D+00  0.693421D-03
     31 -0.333907D-02  0.000000D+00  0.000000D+00  0.000000D+00 -0.855324D-03
     32  0.290844D-02  0.000000D+00  0.000000D+00  0.000000D+00  0.915770D-03
     33  0.109369D-01  0.000000D+00  0.000000D+00  0.000000D+00 -0.577592D-03
     34 -0.872246D-03  0.000000D+00  0.000000D+00  0.000000D+00  0.000000D+00
     35  0.155461D-02  0.000000D+00  0.000000D+00  0.000000D+00  0.000000D+00
     36  0.429620D-03  0.000000D+00  0.000000D+00  0.000000D+00  0.000000D+00
               11            12            13            14            15 
     11  0.227116D+00
     12 -0.230763D+00  0.438465D+00
     13  0.327003D-02  0.644832D-03  0.108614D+01
     14 -0.133852D-02 -0.936608D-03  0.164722D+00  0.104350D+01
     15  0.263571D-01  0.170871D-01  0.264153D+00  0.223419D+00  0.124226D+01
     16  0.608023D-05 -0.109704D-04 -0.598632D+00  0.142375D+00 -0.116476D-01
     17  0.105656D-04 -0.190633D-04  0.126232D+00 -0.145575D+00 -0.933677D-02
     18 -0.181736D-03  0.327901D-03 -0.165935D-01 -0.784964D-02 -0.703451D-01
     19 -0.180408D-03  0.325506D-03 -0.304779D+00 -0.244205D+00 -0.340408D+00
     20 -0.159429D-04  0.287655D-04 -0.249536D+00 -0.362849D+00 -0.373429D+00
     21  0.132942D-03 -0.239864D-03 -0.341023D+00 -0.363847D+00 -0.581682D+00
     22  0.174591D-03 -0.315011D-03 -0.120369D+00 -0.594009D-01  0.945727D-01
     23  0.528678D-05 -0.953882D-05 -0.698889D-01 -0.163839D+00  0.166288D+00
     24  0.506111D-04 -0.913164D-04  0.119725D+00  0.172112D+00 -0.468288D+00
     25  0.128918D-03 -0.885364D-04 -0.120898D-02 -0.588899D-04  0.433662D-04
     26  0.169717D-04 -0.116556D-04 -0.159158D-03 -0.775269D-05  0.570904D-05
     27 -0.114172D-04  0.784089D-05  0.107068D-03  0.521536D-05 -0.384056D-05
     28 -0.470487D-04  0.323114D-04  0.441216D-03  0.214919D-04 -0.158265D-04
     29 -0.104089D-03  0.714845D-04  0.976130D-03  0.475478D-04 -0.350140D-04
     30  0.663610D-04 -0.455743D-04 -0.622323D-03 -0.303137D-04  0.223229D-04
     31 -0.818552D-04  0.562152D-04  0.767626D-03  0.373915D-04 -0.275349D-04
     32  0.876400D-04 -0.601880D-04 -0.821874D-03 -0.400339D-04  0.294808D-04
     33 -0.552761D-04  0.379616D-04  0.518371D-03  0.252501D-04 -0.185941D-04
     34  0.000000D+00  0.000000D+00  0.190389D-01  0.187062D-02  0.607766D-02
     35  0.000000D+00  0.000000D+00  0.838674D-02  0.149874D-01  0.879107D-02
     36  0.000000D+00  0.000000D+00 -0.145674D-01 -0.316824D-02 -0.540005D-02
               16            17            18            19            20 
     16  0.683644D+00
     17 -0.688882D-01  0.252027D+00
     18  0.177939D-01  0.139260D-01  0.767330D-01
     19 -0.382097D-02 -0.173076D-01 -0.197468D-01  0.291396D+00
     20  0.213926D-02  0.997954D-02  0.146907D-01  0.251736D+00  0.340773D+00
     21  0.100199D-02  0.432668D-02  0.251665D-02  0.348408D+00  0.374949D+00
     22 -0.405859D-02 -0.149917D-01  0.216196D-01  0.524219D-02  0.127225D-01
     23  0.292566D-02  0.113256D-01 -0.907167D-02  0.146903D-01  0.731821D-02
     24  0.139433D-03  0.738940D-03  0.206868D-02  0.779236D-02  0.668075D-02
     25  0.000000D+00  0.000000D+00  0.000000D+00  0.000000D+00  0.000000D+00
     26  0.000000D+00  0.000000D+00  0.000000D+00  0.000000D+00  0.000000D+00
     27  0.000000D+00  0.000000D+00  0.000000D+00  0.000000D+00  0.000000D+00
     28  0.000000D+00  0.000000D+00  0.000000D+00  0.000000D+00  0.000000D+00
     29  0.000000D+00  0.000000D+00  0.000000D+00  0.000000D+00  0.000000D+00
     30  0.000000D+00  0.000000D+00  0.000000D+00  0.000000D+00  0.000000D+00
     31  0.000000D+00  0.000000D+00  0.000000D+00  0.000000D+00  0.000000D+00
     32  0.000000D+00  0.000000D+00  0.000000D+00  0.000000D+00  0.000000D+00
     33  0.000000D+00  0.000000D+00  0.000000D+00  0.000000D+00  0.000000D+00
     34  0.659766D-03  0.282874D-02  0.140369D-02  0.282698D-02 -0.230503D-02
     35 -0.117591D-02 -0.504169D-02 -0.250181D-02 -0.503855D-02  0.410829D-02
     36 -0.324964D-03 -0.139328D-02 -0.691381D-03 -0.139241D-02  0.113533D-02
               21            22            23            24            25 
     21  0.575191D+00
     22 -0.128395D-01  0.336383D+00
     23 -0.152333D-01  0.100269D+00  0.207058D+00
     24 -0.101298D-01  0.109693D+00 -0.133385D+00  0.825096D+00
     25  0.000000D+00  0.000000D+00  0.000000D+00  0.000000D+00  0.669035D-01
     26  0.000000D+00  0.000000D+00  0.000000D+00  0.000000D+00 -0.429248D-01
     27  0.000000D+00  0.000000D+00  0.000000D+00  0.000000D+00  0.614821D-01
     28  0.000000D+00  0.000000D+00  0.000000D+00  0.000000D+00  0.255048D-02
     29  0.000000D+00  0.000000D+00  0.000000D+00  0.000000D+00  0.148889D-01
     30  0.000000D+00  0.000000D+00  0.000000D+00  0.000000D+00 -0.292503D-01
     31  0.000000D+00  0.000000D+00  0.000000D+00  0.000000D+00  0.106300D-01
     32  0.000000D+00  0.000000D+00  0.000000D+00  0.000000D+00 -0.123412D-01
     33  0.000000D+00  0.000000D+00  0.000000D+00  0.000000D+00  0.261752D-01
     34 -0.212456D-03 -0.225706D+00 -0.338024D-01 -0.233577D+00  0.000000D+00
     35  0.378662D-03 -0.390343D-01 -0.597764D-01 -0.453664D-01  0.000000D+00
     36  0.104644D-03 -0.212378D+00 -0.337626D-01 -0.359425D+00  0.000000D+00
               26            27            28            29            30 
     26  0.224025D+00
     27 -0.232836D+00  0.405158D+00
     28 -0.957340D-03 -0.111077D-02  0.431503D+00
     29 -0.625026D-02 -0.693706D-02 -0.218188D+00  0.186054D+00
     30  0.128149D-01  0.139951D-01 -0.760942D-01  0.493952D-01  0.788652D-01
     31  0.754563D-02  0.326457D-02 -0.139595D-01 -0.230157D-01 -0.213893D-02
     32 -0.878858D-02 -0.380944D-02  0.142710D-01  0.235353D-01  0.216984D-02
     33  0.191401D-01  0.842173D-02  0.393206D-02  0.636302D-02  0.935317D-03
     34  0.000000D+00  0.000000D+00  0.000000D+00  0.000000D+00  0.000000D+00
     35  0.000000D+00  0.000000D+00  0.000000D+00  0.000000D+00  0.000000D+00
     36  0.000000D+00  0.000000D+00  0.000000D+00  0.000000D+00  0.000000D+00
               31            32            33            34            35 
     31  0.333399D+00
     32  0.265278D+00  0.314083D+00
     33  0.106239D-01  0.155494D-01  0.641985D-01
     34  0.000000D+00  0.000000D+00  0.000000D+00  0.206189D+00
     35  0.000000D+00  0.000000D+00  0.000000D+00  0.314992D-01  0.455600D-01
     36  0.000000D+00  0.000000D+00  0.000000D+00  0.227181D+00  0.371439D-01
               36 
     36  0.364983D+00
 Leave Link  716 at Fri May 23 05:16:39 2025, MaxMem=  3758096384 cpu:               0.1 elap:               0.0
 (Enter /apps/easybuild-2022/easybuild/software/Compiler/NVHPC/22.11-CUDA-11.7.0/Gaussian/g16c01-CUDA-11.7.0/g16/l103.exe)

 GradGradGradGradGradGradGradGradGradGradGradGradGradGradGradGradGradGrad
 Berny optimization.
 Search for a local minimum.
 Step number   1 out of a maximum of    2
 All quantities printed in internal units (Hartrees-Bohrs-Radians)
 Second derivative matrix not updated -- first step.
 ITU=  0
     Eigenvalues ---    0.00262   0.00517   0.00802   0.01264   0.01648
     Eigenvalues ---    0.03587   0.04568   0.05673   0.06331   0.07040
     Eigenvalues ---    0.07944   0.10974   0.11335   0.13438   0.13992
     Eigenvalues ---    0.15168   0.19774   0.22792   0.27815   0.31384
     Eigenvalues ---    0.42448   0.70959   0.93655   1.17230   1.35814
     Eigenvalues ---    1.42117   1.44818   1.50563   1.63183   2.50230
 Quadratic step=5.908D-01 exceeds max=3.000D-01 adjusted using Lamda=-1.964D-01.
 Angle between NR and scaled steps=  31.33 degrees.
 Angle between quadratic step and forces=  29.18 degrees.
 Linear search not attempted -- first point.
 B after Tr=     0.000423    0.001063   -0.000012
         Rot=    1.000000   -0.000079   -0.000088    0.000228 Ang=  -0.03 deg.
 Variable       Old X    -DE/DX   Delta X   Delta X   Delta X     New X
                                 (Linear)    (Quad)   (Total)
    X1        3.53729   0.00801   0.00000   0.00419   0.00355   3.54084
    Y1       -1.49787   0.01662   0.00000   0.01438   0.01417  -1.48370
    Z1       -2.18989   0.04169   0.00000   0.00935   0.00848  -2.18141
    X2        3.54909  -0.00588   0.00000   0.00445   0.00495   3.55405
    Y2        0.02487   0.08442   0.00000   0.06250   0.06191   0.08678
    Z2        0.20693  -0.00815   0.00000   0.02209   0.02147   0.22840
    X3       -1.57682   0.06698   0.00000   0.14038   0.14154  -1.43528
    Y3        1.42734   0.07614   0.00000   0.14180   0.14350   1.57084
    Z3        0.11698   0.00627   0.00000   0.01082   0.01131   0.12829
    X4        3.81671   0.00408   0.00000   0.00615   0.00638   3.82310
    Y4       -1.32657  -0.01946   0.00000   0.00146   0.00040  -1.32616
    Z4        2.31098   0.03030   0.00000   0.04193   0.04104   2.35202
    X5        3.40264   0.04841   0.00000  -0.01570  -0.01378   3.38886
    Y5        3.16223  -0.05121   0.00000  -0.04388  -0.04443   3.11780
    Z5        0.38443   0.04570   0.00000   0.01802   0.01791   0.40234
    X6        0.56603  -0.10152   0.00000  -0.10281  -0.10063   0.46540
    Y6        3.85105  -0.06787   0.00000  -0.12178  -0.12098   3.73006
    Z6        0.32958  -0.00683   0.00000  -0.00302  -0.00252   0.32705
    X7        4.68581  -0.01804   0.00000  -0.03558  -0.03270   4.65311
    Y7        4.56001  -0.01943   0.00000  -0.02573  -0.02714   4.53286
    Z7        2.29338  -0.02649   0.00000  -0.01952  -0.01963   2.27374
    X8        4.13296   0.00388   0.00000  -0.00802  -0.00604   4.12692
    Y8        4.30109   0.00915   0.00000  -0.00183  -0.00229   4.29880
    Z8       -2.25389  -0.02487   0.00000  -0.00710  -0.00716  -2.26105
    X9        3.16837  -0.00926   0.00000  -0.01207  -0.01242   3.15595
    Y9       -0.08471   0.03429   0.00000   0.04419   0.04450  -0.04021
    Z9       -4.25496  -0.04990   0.00000  -0.06438  -0.06496  -4.31991
   X10        5.68320   0.04079   0.00000   0.05353   0.05222   5.73542
   Y10       -2.75722  -0.02379   0.00000  -0.02381  -0.02495  -2.78217
   Z10       -2.64381  -0.00887   0.00000  -0.00597  -0.00743  -2.65124
   X11        1.72659  -0.04016   0.00000  -0.04517  -0.04664   1.67995
   Y11       -3.24473  -0.03872   0.00000  -0.04119  -0.04054  -3.28527
   Z11       -2.27816  -0.00184   0.00000   0.00604   0.00521  -2.27295
   X12        3.07449   0.00269   0.00000   0.00192   0.00356   3.07806
   Y12        4.11855  -0.00013   0.00000  -0.00440  -0.00415   4.11440
   Z12       -3.74233   0.00298   0.00000  -0.00381  -0.00371  -3.74604
         Item               Value     Threshold  Converged?
 Maximum Force            0.101515     0.000450     NO 
 RMS     Force            0.038826     0.000300     NO 
 Maximum Displacement     0.143498     0.001800     NO 
 RMS     Displacement     0.050074     0.001200     NO 
 Predicted change in Energy=-3.942926D-02
 GradGradGradGradGradGradGradGradGradGradGradGradGradGradGradGradGradGrad

 Leave Link  103 at Fri May 23 05:16:39 2025, MaxMem=  3758096384 cpu:               0.1 elap:               0.0
 (Enter /apps/easybuild-2022/easybuild/software/Compiler/NVHPC/22.11-CUDA-11.7.0/Gaussian/g16c01-CUDA-11.7.0/g16/l9999.exe)
 Unable to Open any file for archive entry.
 1\1\GINC-SPARTAN-BM141\Force\RAM1\ZDO\C2H1F5O3S1\AKHALILOV\23-May-2025
 \0\\#P am1 Symm(None) scf(xqc) pop(None) force\\Gaussian input prepare
 d by ASE\\0,1\C,1.8718549895,-0.7926399459,-1.1588408681\C,1.878099815
 1,0.0131608563,0.1095050618\F,-0.8344149241,0.7553165485,0.0619008446\
 F,2.0197181479,-0.7019886746,1.2229191772\S,1.8005989558,1.6733775217,
 0.2034326425\O,0.2995300499,2.0378867632,0.1744037722\O,2.4796243565,2
 .413051217,1.2136026724\O,2.1870666918,2.2760379491,-1.192705567\F,1.6
 766289975,-0.0448259727,-2.2516271202\F,3.0074195458,-1.4590603065,-1.
 3990435027\F,0.9136714303,-1.717039398,-1.2055520706\H,1.626951944,2.1
 794434421,-1.980357042\\Version=ES64L-G16RevC.01\HF=0.6155619\RMSD=6.9
 79e-10\RMSF=3.883e-02\Dipole=-0.6320182,0.6937136,-0.7188275\PG=Unknow
 n\\@
 The archive entry for this job was punched.


 IT IS BY LOGIC THAT WE PROVE, BUT BY INTUITION THAT WE DISCOVER.
     -- J.H.POINCARE (1854-1912)
 Job cpu time:       0 days  0 hours  0 minutes  1.4 seconds.
 Elapsed time:       0 days  0 hours  0 minutes  0.6 seconds.
 File lengths (MBytes):  RWF=      6 Int=      0 D2E=      0 Chk=      2 Scr=      1
 Normal termination of Gaussian 16 at Fri May 23 05:16:39 2025.
done
