 Entering Gaussian System, Link 0=g16
 Initial command:
 /apps/easybuild-2022/easybuild/software/Compiler/NVHPC/22.11-CUDA-11.7.0/Gaussian/g16c01-CUDA-11.7.0/g16/l1.exe "/tmp/Gau-273211.inp" -scrdir="/tmp/"
 Entering Link 1 = /apps/easybuild-2022/easybuild/software/Compiler/NVHPC/22.11-CUDA-11.7.0/Gaussian/g16c01-CUDA-11.7.0/g16/l1.exe PID=    273212.
  
 Copyright (c) 1988-2019, Gaussian, Inc.  All Rights Reserved.
  
 This is part of the Gaussian(R) 16 program.  It is based on
 the Gaussian(R) 09 system (copyright 2009, Gaussian, Inc.),
 the Gaussian(R) 03 system (copyright 2003, Gaussian, Inc.),
 the Gaussian(R) 98 system (copyright 1998, Gaussian, Inc.),
 the Gaussian(R) 94 system (copyright 1995, Gaussian, Inc.),
 the Gaussian 92(TM) system (copyright 1992, Gaussian, Inc.),
 the Gaussian 90(TM) system (copyright 1990, Gaussian, Inc.),
 the Gaussian 88(TM) system (copyright 1988, Gaussian, Inc.),
 the Gaussian 86(TM) system (copyright 1986, Carnegie Mellon
 University), and the Gaussian 82(TM) system (copyright 1983,
 Carnegie Mellon University). Gaussian is a federally registered
 trademark of Gaussian, Inc.
  
 This software contains proprietary and confidential information,
 including trade secrets, belonging to Gaussian, Inc.
  
 This software is provided under written license and may be
 used, copied, transmitted, or stored only in accord with that
 written license.
  
 The following legend is applicable only to US Government
 contracts under FAR:
  
                    RESTRICTED RIGHTS LEGEND
  
 Use, reproduction and disclosure by the US Government is
 subject to restrictions as set forth in subparagraphs (a)
 and (c) of the Commercial Computer Software - Restricted
 Rights clause in FAR 52.227-19.
  
 Gaussian, Inc.
 340 Quinnipiac St., Bldg. 40, Wallingford CT 06492
  
  
 ---------------------------------------------------------------
 Warning -- This program may not be used in any manner that
 competes with the business of Gaussian, Inc. or will provide
 assistance to any competitor of Gaussian, Inc.  The licensee
 of this program is prohibited from giving any competitor of
 Gaussian, Inc. access to this program.  By using this program,
 the user acknowledges that Gaussian, Inc. is engaged in the
 business of creating and licensing software in the field of
 computational chemistry and represents and warrants to the
 licensee that it is not a competitor of Gaussian, Inc. and that
 it will not use this program in any manner prohibited above.
 ---------------------------------------------------------------
  

 Cite this work as:
 Gaussian 16, Revision C.01,
 M. J. Frisch, G. W. Trucks, H. B. Schlegel, G. E. Scuseria, 
 M. A. Robb, J. R. Cheeseman, G. Scalmani, V. Barone, 
 G. A. Petersson, H. Nakatsuji, X. Li, M. Caricato, A. V. Marenich, 
 J. Bloino, B. G. Janesko, R. Gomperts, B. Mennucci, H. P. Hratchian, 
 J. V. Ortiz, A. F. Izmaylov, J. L. Sonnenberg, D. Williams-Young, 
 F. Ding, F. Lipparini, F. Egidi, J. Goings, B. Peng, A. Petrone, 
 T. Henderson, D. Ranasinghe, V. G. Zakrzewski, J. Gao, N. Rega, 
 G. Zheng, W. Liang, M. Hada, M. Ehara, K. Toyota, R. Fukuda, 
 J. Hasegawa, M. Ishida, T. Nakajima, Y. Honda, O. Kitao, H. Nakai, 
 T. Vreven, K. Throssell, J. A. Montgomery, Jr., J. E. Peralta, 
 F. Ogliaro, M. J. Bearpark, J. J. Heyd, E. N. Brothers, K. N. Kudin, 
 V. N. Staroverov, T. A. Keith, R. Kobayashi, J. Normand, 
 K. Raghavachari, A. P. Rendell, J. C. Burant, S. S. Iyengar, 
 J. Tomasi, M. Cossi, J. M. Millam, M. Klene, C. Adamo, R. Cammi, 
 J. W. Ochterski, R. L. Martin, K. Morokuma, O. Farkas, 
 J. B. Foresman, and D. J. Fox, Gaussian, Inc., Wallingford CT, 2019.
 
 ******************************************
 Gaussian 16:  ES64L-G16RevC.01  3-Jul-2019
                23-May-2025 
 ******************************************
 %mem=28GB
 %nprocshared=8
 Will use up to    8 processors via shared memory.
 ----------------------------------------------------------------------
 #P wb97xd/6-311++G(d,p) Symm(None) scf(xqc) pop(None) opt(NoFreeze,TS,
 CalcAll,NoEigentest,MaxCycle=999)
 ----------------------------------------------------------------------
 1/5=1,6=999,10=4,11=1,18=20,26=3,29=2000,38=1/1,3;
 2/9=110,12=2,15=3,17=6,18=5,40=1/2;
 3/5=4,6=6,7=1111,11=2,25=1,30=1,71=2,74=-58,140=1/1,2,3;
 4//1;
 5/5=2,8=3,13=1,38=5/2,8;
 8/6=4,10=90,11=11/1;
 11/6=1,8=1,9=11,15=111,16=1,31=1/1,2,10;
 10/6=1,31=1/2;
 7/10=1,25=1,30=1/1,2,3,16;
 1/5=1,6=999,10=4,11=1,18=20,26=3/3(3);
 2/9=110,15=3/2;
 7/8=1,9=1,25=1,30=1,44=-1/16;
 99//99;
 2/9=110,15=3/2;
 3/5=4,6=6,7=1111,11=2,25=1,30=1,71=2,74=-58,140=1/1,2,3;
 4/5=5,16=3,69=1/1;
 5/5=2,8=3,13=1,38=5/2,8;
 8/6=4,10=90,11=11/1;
 11/6=1,8=1,9=11,15=111,16=1,31=1/1,2,10;
 10/6=1,31=1/2;
 7/10=1,25=1,30=1/1,2,3,16;
 1/5=1,6=999,10=4,11=1,18=20,26=3/3(-8);
 2/9=110,15=3/2;
 7/8=1,9=1,25=1,30=1,44=-1/16;
 99//99;
 Leave Link    1 at Fri May 23 04:53:02 2025, MaxMem=  3758096384 cpu:               0.0 elap:               0.0
 (Enter /apps/easybuild-2022/easybuild/software/Compiler/NVHPC/22.11-CUDA-11.7.0/Gaussian/g16c01-CUDA-11.7.0/g16/l101.exe)
 ------------------------------
 Gaussian input prepared by ASE
 ------------------------------
 Symbolic Z-matrix:
 Charge =  0 Multiplicity = 1
 C                    -0.35316  -1.34501   0.13848 
 C                     0.        0.        0. 
 F                    -0.28225   0.63536  -1.11878 
 F                    -0.2593    0.83604   0.99582 
 S                     2.40253   0.        0. 
 O                     2.7034   -0.35832   1.36262 
 O                     2.8792   -0.44558  -1.27356 
 O                     2.90801   1.579     0. 
 F                    -0.39417  -1.97018   1.24876 
 F                     1.69938  -1.74631  -0.07467 
 F                    -0.55564  -2.15222  -0.8252 
 H                     2.9145    2.06037   0.83725 
 
 Add virtual bond connecting atoms F10        and C1         Dist= 3.97D+00.
 ITRead=  0  0  0  0  0  0  0  0  0  0  0  0
 MicOpt= -1 -1 -1 -1 -1 -1 -1 -1 -1 -1 -1 -1
 NAtoms=     12 NQM=       12 NQMF=       0 NMMI=      0 NMMIF=      0
                NMic=       0 NMicF=      0.
                    Isotopes and Nuclear Properties:
 (Nuclear quadrupole moments (NQMom) in fm**2, nuclear magnetic moments (NMagM)
  in nuclear magnetons)

  Atom         1           2           3           4           5           6           7           8           9          10
 IAtWgt=          12          12          19          19          32          16          16          16          19          19
 AtmWgt=  12.0000000  12.0000000  18.9984032  18.9984032  31.9720718  15.9949146  15.9949146  15.9949146  18.9984032  18.9984032
 NucSpn=           0           0           1           1           0           0           0           0           1           1
 AtZEff=  -0.0000000  -0.0000000  -0.0000000  -0.0000000  -0.0000000  -0.0000000  -0.0000000  -0.0000000  -0.0000000  -0.0000000
 NQMom=    0.0000000   0.0000000   0.0000000   0.0000000   0.0000000   0.0000000   0.0000000   0.0000000   0.0000000   0.0000000
 NMagM=    0.0000000   0.0000000   2.6288670   2.6288670   0.0000000   0.0000000   0.0000000   0.0000000   2.6288670   2.6288670
 AtZNuc=   6.0000000   6.0000000   9.0000000   9.0000000  16.0000000   8.0000000   8.0000000   8.0000000   9.0000000   9.0000000

  Atom        11          12
 IAtWgt=          19           1
 AtmWgt=  18.9984032   1.0078250
 NucSpn=           1           1
 AtZEff=  -0.0000000  -0.0000000
 NQMom=    0.0000000   0.0000000
 NMagM=    2.6288670   2.7928460
 AtZNuc=   9.0000000   1.0000000
 Leave Link  101 at Fri May 23 04:53:03 2025, MaxMem=  3758096384 cpu:               0.2 elap:               0.2
 (Enter /apps/easybuild-2022/easybuild/software/Compiler/NVHPC/22.11-CUDA-11.7.0/Gaussian/g16c01-CUDA-11.7.0/g16/l103.exe)

 GradGradGradGradGradGradGradGradGradGradGradGradGradGradGradGradGradGrad
 Berny optimization.
 Initialization pass.
                           ----------------------------
                           !    Initial Parameters    !
                           ! (Angstroms and Degrees)  !
 --------------------------                            --------------------------
 ! Name  Definition              Value          Derivative Info.                !
 --------------------------------------------------------------------------------
 ! R1    R(1,2)                  1.3975         calculate D2E/DX2 analytically  !
 ! R2    R(1,9)                  1.2748         calculate D2E/DX2 analytically  !
 ! R3    R(1,10)                 2.1022         calculate D2E/DX2 analytically  !
 ! R4    R(1,11)                 1.2733         calculate D2E/DX2 analytically  !
 ! R5    R(2,3)                  1.3172         calculate D2E/DX2 analytically  !
 ! R6    R(2,4)                  1.3258         calculate D2E/DX2 analytically  !
 ! R7    R(5,6)                  1.4407         calculate D2E/DX2 analytically  !
 ! R8    R(5,7)                  1.431          calculate D2E/DX2 analytically  !
 ! R9    R(5,8)                  1.6579         calculate D2E/DX2 analytically  !
 ! R10   R(5,10)                 1.884          calculate D2E/DX2 analytically  !
 ! R11   R(8,12)                 0.9658         calculate D2E/DX2 analytically  !
 ! A1    A(2,1,9)              124.5001         calculate D2E/DX2 analytically  !
 ! A2    A(2,1,10)              85.8102         calculate D2E/DX2 analytically  !
 ! A3    A(2,1,11)             125.1236         calculate D2E/DX2 analytically  !
 ! A4    A(9,1,10)              91.4956         calculate D2E/DX2 analytically  !
 ! A5    A(9,1,11)             110.0683         calculate D2E/DX2 analytically  !
 ! A6    A(10,1,11)             87.5643         calculate D2E/DX2 analytically  !
 ! A7    A(1,2,3)              119.6212         calculate D2E/DX2 analytically  !
 ! A8    A(1,2,4)              118.8844         calculate D2E/DX2 analytically  !
 ! A9    A(3,2,4)              106.9701         calculate D2E/DX2 analytically  !
 ! A10   A(6,5,7)              134.007          calculate D2E/DX2 analytically  !
 ! A11   A(6,5,8)               99.9738         calculate D2E/DX2 analytically  !
 ! A12   A(6,5,10)              83.3904         calculate D2E/DX2 analytically  !
 ! A13   A(7,5,8)              101.2444         calculate D2E/DX2 analytically  !
 ! A14   A(7,5,10)              78.4881         calculate D2E/DX2 analytically  !
 ! A15   A(5,8,12)             118.4732         calculate D2E/DX2 analytically  !
 ! A16   A(1,10,5)             100.5697         calculate D2E/DX2 analytically  !
 ! A17   L(8,5,10,6,-1)        183.3642         calculate D2E/DX2 analytically  !
 ! A18   L(8,5,10,6,-2)        176.6009         calculate D2E/DX2 analytically  !
 ! D1    D(9,1,2,3)           -164.2174         calculate D2E/DX2 analytically  !
 ! D2    D(9,1,2,4)            -30.021          calculate D2E/DX2 analytically  !
 ! D3    D(10,1,2,3)           106.8479         calculate D2E/DX2 analytically  !
 ! D4    D(10,1,2,4)          -118.9557         calculate D2E/DX2 analytically  !
 ! D5    D(11,1,2,3)            22.7961         calculate D2E/DX2 analytically  !
 ! D6    D(11,1,2,4)           156.9925         calculate D2E/DX2 analytically  !
 ! D7    D(2,1,10,5)             8.7159         calculate D2E/DX2 analytically  !
 ! D8    D(9,1,10,5)          -115.7703         calculate D2E/DX2 analytically  !
 ! D9    D(11,1,10,5)          134.2031         calculate D2E/DX2 analytically  !
 ! D10   D(6,5,8,12)           -25.7284         calculate D2E/DX2 analytically  !
 ! D11   D(7,5,8,12)          -164.6817         calculate D2E/DX2 analytically  !
 ! D12   D(6,5,10,1)           100.4185         calculate D2E/DX2 analytically  !
 ! D13   D(7,5,10,1)          -122.075          calculate D2E/DX2 analytically  !
 --------------------------------------------------------------------------------
 Trust Radius=3.00D-01 FncErr=1.00D-07 GrdErr=1.00D-06 EigMax=2.50D+02 EigMin=1.00D-04
 Number of steps in this run=    100 maximum allowed number of steps=    100.
 Search for a saddle point of order  1.
 GradGradGradGradGradGradGradGradGradGradGradGradGradGradGradGradGradGrad

 Leave Link  103 at Fri May 23 04:53:03 2025, MaxMem=  3758096384 cpu:               0.1 elap:               0.0
 (Enter /apps/easybuild-2022/easybuild/software/Compiler/NVHPC/22.11-CUDA-11.7.0/Gaussian/g16c01-CUDA-11.7.0/g16/l202.exe)
                          Input orientation:                          
 ---------------------------------------------------------------------
 Center     Atomic      Atomic             Coordinates (Angstroms)
 Number     Number       Type             X           Y           Z
 ---------------------------------------------------------------------
      1          6           0       -0.353161   -1.345008    0.138481
      2          6           0        0.000000    0.000000    0.000000
      3          9           0       -0.282246    0.635362   -1.118778
      4          9           0       -0.259302    0.836036    0.995815
      5         16           0        2.402529    0.000000    0.000000
      6          8           0        2.703396   -0.358318    1.362624
      7          8           0        2.879197   -0.445577   -1.273563
      8          8           0        2.908012    1.578997    0.000000
      9          9           0       -0.394170   -1.970178    1.248755
     10          9           0        1.699384   -1.746312   -0.074673
     11          9           0       -0.555637   -2.152218   -0.825196
     12          1           0        2.914500    2.060375    0.837245
 ---------------------------------------------------------------------
                    Distance matrix (angstroms):
                    1          2          3          4          5
     1  C    0.000000
     2  C    1.397479   0.000000
     3  F    2.346827   1.317199   0.000000
     4  F    2.345375   1.325836   2.124218   0.000000
     5  S    3.069536   2.402529   2.977141   2.962423   0.000000
     6  O    3.437241   3.048522   4.007345   3.215371   1.440714
     7  O    3.640190   3.179666   3.344713   4.079557   1.430983
     8  O    4.382263   3.309043   3.509965   3.402281   1.657934
     9  F    1.274844   2.365663   3.522297   2.820816   3.641774
    10  F    2.102242   2.437845   3.269462   3.413344   1.884037
    11  F    1.273286   2.371017   2.816298   3.511916   3.750165
    12  H    4.771008   3.666120   4.009473   3.405462   2.282156
                    6          7          8          9         10
     6  O    0.000000
     7  O    2.643483   0.000000
     8  O    2.377352   2.392006   0.000000
     9  F    3.493705   4.404705   5.006040   0.000000
    10  F    2.236155   2.126313   3.538932   2.486875   0.000000
    11  F    4.315776   3.861572   5.157497   2.088177   2.411050
    12  H    2.484082   3.276667   0.965788   5.230870   4.098654
                   11         12
    11  F    0.000000
    12  H    5.705392   0.000000
 Symmetry turned off by external request.
 Stoichiometry    C2HF5O3S
 Rotational constants (GHZ):           1.4350547           0.8149950           0.7326838
 Leave Link  202 at Fri May 23 04:53:03 2025, MaxMem=  3758096384 cpu:               0.1 elap:               0.0
 (Enter /apps/easybuild-2022/easybuild/software/Compiler/NVHPC/22.11-CUDA-11.7.0/Gaussian/g16c01-CUDA-11.7.0/g16/l301.exe)
 Standard basis: 6-311++G(d,p) (5D, 7F)
 Ernie: Thresh=  0.10000D-02 Tol=  0.10000D-05 Strict=F.
   257 basis functions,   419 primitive gaussians,   268 cartesian basis functions
    49 alpha electrons       49 beta electrons
       nuclear repulsion energy       904.2300512201 Hartrees.
 IExCor= 4639 DFT=T Ex+Corr=wB97XD ExCW=0 ScaHFX=  1.000000
 ScaDFX=  1.000000  1.000000  1.000000  1.000000 ScalE2=  1.000000  1.000000
 IRadAn=      5 IRanWt=     -1 IRanGd=            0 ICorTp=0 IEmpDi=121
 HFx  wShort=  0.000000 wLong=  0.200000 cFull=  0.222036 cShort=  0.000000 cLong=  0.777964
 DFx  wShort=  0.000000 wLong=  0.200000 cFull=  0.000000 cShort=  0.000000 cLong=  1.000000
 NAtoms=   12 NActive=   12 NUniq=   12 SFac= 1.00D+00 NAtFMM=   60 NAOKFM=F Big=F
 Integral buffers will be    131072 words long.
 Raffenetti 2 integral format.
 Two-electron integral symmetry is turned off.
 R6Disp:  Grimme-D2 Dispersion energy=       -0.0054937859 Hartrees.
 Nuclear repulsion after empirical dispersion term =      904.2245574342 Hartrees.
 Leave Link  301 at Fri May 23 04:53:03 2025, MaxMem=  3758096384 cpu:               0.1 elap:               0.0
 (Enter /apps/easybuild-2022/easybuild/software/Compiler/NVHPC/22.11-CUDA-11.7.0/Gaussian/g16c01-CUDA-11.7.0/g16/l302.exe)
 NPDir=0 NMtPBC=     1 NCelOv=     1 NCel=       1 NClECP=     1 NCelD=      1
         NCelK=      1 NCelE2=     1 NClLst=     1 CellRange=     0.0.
 One-electron integrals computed using PRISM.
 NBasis=   257 RedAO= T EigKep=  5.15D-05  NBF=   257
 NBsUse=   257 1.00D-06 EigRej= -1.00D+00 NBFU=   257
 Precomputing XC quadrature grid using
 IXCGrd= 4 IRadAn=           5 IRanWt=          -1 IRanGd=           0 AccXCQ= 0.00D+00.
 Generated NRdTot=       0 NPtTot=           0 NUsed=           0 NTot=          32
 NSgBfM=   268   268   268   268   268 MxSgAt=    12 MxSgA2=    12.
 Leave Link  302 at Fri May 23 04:53:03 2025, MaxMem=  3758096384 cpu:               0.6 elap:               0.1
 (Enter /apps/easybuild-2022/easybuild/software/Compiler/NVHPC/22.11-CUDA-11.7.0/Gaussian/g16c01-CUDA-11.7.0/g16/l303.exe)
 DipDrv:  MaxL=1.
 Leave Link  303 at Fri May 23 04:53:03 2025, MaxMem=  3758096384 cpu:               0.1 elap:               0.0
 (Enter /apps/easybuild-2022/easybuild/software/Compiler/NVHPC/22.11-CUDA-11.7.0/Gaussian/g16c01-CUDA-11.7.0/g16/l401.exe)
 ExpMin= 3.60D-02 ExpMax= 9.34D+04 ExpMxC= 3.17D+03 IAcc=3 IRadAn=         5 AccDes= 0.00D+00
 Harris functional with IExCor= 4639 and IRadAn=       5 diagonalized for initial guess.
 HarFok:  IExCor= 4639 AccDes= 0.00D+00 IRadAn=         5 IDoV= 1 UseB2=F ITyADJ=14
 ICtDFT=  3500011 ScaDFX=  1.000000  1.000000  1.000000  1.000000
 FoFCou: FMM=F IPFlag=           0 FMFlag=      100000 FMFlg1=           0
         NFxFlg=           0 DoJE=T BraDBF=F KetDBF=T FulRan=T
         wScrn=  0.000000 ICntrl=       500 IOpCl=  0 I1Cent=   200000004 NGrid=           0
         NMat0=    1 NMatS0=      1 NMatT0=    0 NMatD0=    1 NMtDS0=    0 NMtDT0=    0
 Symmetry not used in FoFCou.
 Harris En= -1166.98715611789    
 JPrj=0 DoOrth=F DoCkMO=F.
 Leave Link  401 at Fri May 23 04:53:03 2025, MaxMem=  3758096384 cpu:               2.3 elap:               0.3
 (Enter /apps/easybuild-2022/easybuild/software/Compiler/NVHPC/22.11-CUDA-11.7.0/Gaussian/g16c01-CUDA-11.7.0/g16/l502.exe)
 Keep R1 ints in memory in canonical form, NReq=1117474609.
 FoFCou: FMM=F IPFlag=           0 FMFlag=           0 FMFlg1=           0
         NFxFlg=           0 DoJE=F BraDBF=F KetDBF=F FulRan=T
         wScrn=  0.000000 ICntrl=       600 IOpCl=  0 I1Cent=           0 NGrid=           0
         NMat0=    1 NMatS0=  33153 NMatT0=    0 NMatD0=    1 NMtDS0=    0 NMtDT0=    0
 Symmetry not used in FoFCou.
 Two-electron integral symmetry not used.
 Closed shell SCF:
 Using DIIS extrapolation, IDIIS=  1040.
 NGot=  3758096384 LenX=  2658793876 LenY=  2658721611
 Requested convergence on RMS density matrix=1.00D-08 within  32 cycles.
 Requested convergence on MAX density matrix=1.00D-06.
 Requested convergence on             energy=1.00D-06.
 No special actions if energy rises.

 Cycle   1  Pass 1  IDiag  1:
 E= -1198.85365452014    
 DIIS: error= 1.00D-01 at cycle   1 NSaved=   1.
 NSaved= 1 IEnMin= 1 EnMin= -1198.85365452014     IErMin= 1 ErrMin= 1.00D-01
 ErrMax= 1.00D-01  0.00D+00 EMaxC= 1.00D-01 BMatC= 3.39D+00 BMatP= 3.39D+00
 IDIUse=3 WtCom= 0.00D+00 WtEn= 1.00D+00
 Coeff-Com:  0.100D+01
 Coeff-En:   0.100D+01
 Coeff:      0.100D+01
 Gap=     0.309 Goal=   None    Shift=    0.000
 GapD=    0.309 DampG=1.000 DampE=0.250 DampFc=0.2500 IDamp=-1.
 Damping current iteration by 2.50D-01
 RMSDP=1.03D-02 MaxDP=6.14D-01              OVMax= 3.15D-01

 Cycle   2  Pass 1  IDiag  1:
 E= -1199.10372106925     Delta-E=       -0.250066549106 Rises=F Damp=T
 DIIS: error= 7.15D-02 at cycle   2 NSaved=   2.
 NSaved= 2 IEnMin= 2 EnMin= -1199.10372106925     IErMin= 2 ErrMin= 7.15D-02
 ErrMax= 7.15D-02  0.00D+00 EMaxC= 1.00D-01 BMatC= 1.51D+00 BMatP= 3.39D+00
 IDIUse=3 WtCom= 2.85D-01 WtEn= 7.15D-01
 Coeff-Com: -0.170D+01 0.270D+01
 Coeff-En:   0.000D+00 0.100D+01
 Coeff:     -0.486D+00 0.149D+01
 Gap=     0.236 Goal=   None    Shift=    0.000
 RMSDP=5.86D-03 MaxDP=5.83D-01 DE=-2.50D-01 OVMax= 1.30D-01

 Cycle   3  Pass 1  IDiag  1:
 E= -1199.57328676980     Delta-E=       -0.469565700551 Rises=F Damp=F
 DIIS: error= 1.62D-02 at cycle   3 NSaved=   3.
 NSaved= 3 IEnMin= 3 EnMin= -1199.57328676980     IErMin= 3 ErrMin= 1.62D-02
 ErrMax= 1.62D-02  0.00D+00 EMaxC= 1.00D-01 BMatC= 8.38D-02 BMatP= 1.51D+00
 IDIUse=3 WtCom= 8.38D-01 WtEn= 1.62D-01
 Coeff-Com:  0.254D+00-0.211D+00 0.957D+00
 Coeff-En:   0.000D+00 0.000D+00 0.100D+01
 Coeff:      0.213D+00-0.177D+00 0.964D+00
 Gap=     0.260 Goal=   None    Shift=    0.000
 RMSDP=1.89D-03 MaxDP=1.23D-01 DE=-4.70D-01 OVMax= 3.91D-02

 Cycle   4  Pass 1  IDiag  1:
 E= -1199.59039863633     Delta-E=       -0.017111866533 Rises=F Damp=F
 DIIS: error= 1.03D-02 at cycle   4 NSaved=   4.
 NSaved= 4 IEnMin= 4 EnMin= -1199.59039863633     IErMin= 4 ErrMin= 1.03D-02
 ErrMax= 1.03D-02  0.00D+00 EMaxC= 1.00D-01 BMatC= 3.04D-02 BMatP= 8.38D-02
 IDIUse=3 WtCom= 8.97D-01 WtEn= 1.03D-01
 Coeff-Com:  0.272D+00-0.339D+00 0.518D+00 0.550D+00
 Coeff-En:   0.000D+00 0.000D+00 0.283D+00 0.717D+00
 Coeff:      0.243D+00-0.304D+00 0.494D+00 0.567D+00
 Gap=     0.262 Goal=   None    Shift=    0.000
 RMSDP=1.46D-03 MaxDP=1.04D-01 DE=-1.71D-02 OVMax= 3.01D-02

 Cycle   5  Pass 1  IDiag  1:
 E= -1199.60826315522     Delta-E=       -0.017864518891 Rises=F Damp=F
 DIIS: error= 2.45D-03 at cycle   5 NSaved=   5.
 NSaved= 5 IEnMin= 5 EnMin= -1199.60826315522     IErMin= 5 ErrMin= 2.45D-03
 ErrMax= 2.45D-03  0.00D+00 EMaxC= 1.00D-01 BMatC= 2.14D-03 BMatP= 3.04D-02
 IDIUse=3 WtCom= 9.75D-01 WtEn= 2.45D-02
 Coeff-Com:  0.102D+00-0.136D+00 0.162D+00 0.279D+00 0.593D+00
 Coeff-En:   0.000D+00 0.000D+00 0.000D+00 0.000D+00 0.100D+01
 Coeff:      0.999D-01-0.133D+00 0.158D+00 0.272D+00 0.603D+00
 Gap=     0.248 Goal=   None    Shift=    0.000
 RMSDP=2.14D-04 MaxDP=9.08D-03 DE=-1.79D-02 OVMax= 8.92D-03

 Cycle   6  Pass 1  IDiag  1:
 E= -1199.60961785533     Delta-E=       -0.001354700111 Rises=F Damp=F
 DIIS: error= 3.63D-04 at cycle   6 NSaved=   6.
 NSaved= 6 IEnMin= 6 EnMin= -1199.60961785533     IErMin= 6 ErrMin= 3.63D-04
 ErrMax= 3.63D-04  0.00D+00 EMaxC= 1.00D-01 BMatC= 7.34D-05 BMatP= 2.14D-03
 IDIUse=3 WtCom= 9.96D-01 WtEn= 3.63D-03
 Coeff-Com:  0.995D-02-0.142D-01 0.912D-02 0.330D-01 0.185D+00 0.777D+00
 Coeff-En:   0.000D+00 0.000D+00 0.000D+00 0.000D+00 0.000D+00 0.100D+01
 Coeff:      0.991D-02-0.141D-01 0.909D-02 0.328D-01 0.184D+00 0.778D+00
 Gap=     0.248 Goal=   None    Shift=    0.000
 RMSDP=1.11D-04 MaxDP=8.68D-03 DE=-1.35D-03 OVMax= 3.69D-03

 Cycle   7  Pass 1  IDiag  1:
 E= -1199.60971795394     Delta-E=       -0.000100098605 Rises=F Damp=F
 DIIS: error= 1.68D-04 at cycle   7 NSaved=   7.
 NSaved= 7 IEnMin= 7 EnMin= -1199.60971795394     IErMin= 7 ErrMin= 1.68D-04
 ErrMax= 1.68D-04  0.00D+00 EMaxC= 1.00D-01 BMatC= 1.48D-05 BMatP= 7.34D-05
 IDIUse=3 WtCom= 9.98D-01 WtEn= 1.68D-03
 Coeff-Com: -0.824D-02 0.106D-01-0.166D-01-0.200D-01 0.439D-02 0.321D+00
 Coeff-Com:  0.709D+00
 Coeff-En:   0.000D+00 0.000D+00 0.000D+00 0.000D+00 0.000D+00 0.000D+00
 Coeff-En:   0.100D+01
 Coeff:     -0.823D-02 0.106D-01-0.166D-01-0.200D-01 0.438D-02 0.320D+00
 Coeff:      0.710D+00
 Gap=     0.248 Goal=   None    Shift=    0.000
 RMSDP=5.39D-05 MaxDP=3.40D-03 DE=-1.00D-04 OVMax= 3.73D-03

 Cycle   8  Pass 1  IDiag  1:
 E= -1199.60975033605     Delta-E=       -0.000032382107 Rises=F Damp=F
 DIIS: error= 1.20D-04 at cycle   8 NSaved=   8.
 NSaved= 8 IEnMin= 8 EnMin= -1199.60975033605     IErMin= 8 ErrMin= 1.20D-04
 ErrMax= 1.20D-04  0.00D+00 EMaxC= 1.00D-01 BMatC= 5.34D-06 BMatP= 1.48D-05
 IDIUse=3 WtCom= 9.99D-01 WtEn= 1.20D-03
 Coeff-Com: -0.489D-02 0.657D-02-0.862D-02-0.149D-01-0.461D-01-0.836D-01
 Coeff-Com:  0.367D+00 0.784D+00
 Coeff-En:   0.000D+00 0.000D+00 0.000D+00 0.000D+00 0.000D+00 0.000D+00
 Coeff-En:   0.000D+00 0.100D+01
 Coeff:     -0.489D-02 0.656D-02-0.861D-02-0.149D-01-0.461D-01-0.835D-01
 Coeff:      0.367D+00 0.785D+00
 Gap=     0.249 Goal=   None    Shift=    0.000
 RMSDP=3.64D-05 MaxDP=1.48D-03 DE=-3.24D-05 OVMax= 2.80D-03

 Cycle   9  Pass 1  IDiag  1:
 E= -1199.60976697164     Delta-E=       -0.000016635598 Rises=F Damp=F
 DIIS: error= 5.58D-05 at cycle   9 NSaved=   9.
 NSaved= 9 IEnMin= 9 EnMin= -1199.60976697164     IErMin= 9 ErrMin= 5.58D-05
 ErrMax= 5.58D-05  0.00D+00 EMaxC= 1.00D-01 BMatC= 1.09D-06 BMatP= 5.34D-06
 IDIUse=1 WtCom= 1.00D+00 WtEn= 0.00D+00
 Coeff-Com:  0.175D-02-0.227D-02 0.268D-02 0.162D-02-0.171D-01-0.141D+00
 Coeff-Com: -0.876D-01 0.267D+00 0.975D+00
 Coeff:      0.175D-02-0.227D-02 0.268D-02 0.162D-02-0.171D-01-0.141D+00
 Coeff:     -0.876D-01 0.267D+00 0.975D+00
 Gap=     0.249 Goal=   None    Shift=    0.000
 RMSDP=2.67D-05 MaxDP=7.52D-04 DE=-1.66D-05 OVMax= 1.98D-03

 Cycle  10  Pass 1  IDiag  1:
 E= -1199.60977314120     Delta-E=       -0.000006169555 Rises=F Damp=F
 DIIS: error= 3.36D-05 at cycle  10 NSaved=  10.
 NSaved=10 IEnMin=10 EnMin= -1199.60977314120     IErMin=10 ErrMin= 3.36D-05
 ErrMax= 3.36D-05  0.00D+00 EMaxC= 1.00D-01 BMatC= 2.74D-07 BMatP= 1.09D-06
 IDIUse=1 WtCom= 1.00D+00 WtEn= 0.00D+00
 Coeff-Com:  0.219D-02-0.291D-02 0.328D-02 0.436D-02 0.539D-02-0.392D-01
 Coeff-Com: -0.128D+00-0.698D-01 0.446D+00 0.779D+00
 Coeff:      0.219D-02-0.291D-02 0.328D-02 0.436D-02 0.539D-02-0.392D-01
 Coeff:     -0.128D+00-0.698D-01 0.446D+00 0.779D+00
 Gap=     0.249 Goal=   None    Shift=    0.000
 RMSDP=1.08D-05 MaxDP=3.06D-04 DE=-6.17D-06 OVMax= 9.40D-04

 Cycle  11  Pass 1  IDiag  1:
 E= -1199.60977439665     Delta-E=       -0.000001255454 Rises=F Damp=F
 DIIS: error= 1.36D-05 at cycle  11 NSaved=  11.
 NSaved=11 IEnMin=11 EnMin= -1199.60977439665     IErMin=11 ErrMin= 1.36D-05
 ErrMax= 1.36D-05  0.00D+00 EMaxC= 1.00D-01 BMatC= 5.16D-08 BMatP= 2.74D-07
 IDIUse=1 WtCom= 1.00D+00 WtEn= 0.00D+00
 Coeff-Com:  0.474D-03-0.630D-03 0.740D-03 0.132D-02 0.557D-02 0.116D-01
 Coeff-Com: -0.263D-01-0.699D-01-0.405D-01 0.257D+00 0.860D+00
 Coeff:      0.474D-03-0.630D-03 0.740D-03 0.132D-02 0.557D-02 0.116D-01
 Coeff:     -0.263D-01-0.699D-01-0.405D-01 0.257D+00 0.860D+00
 Gap=     0.249 Goal=   None    Shift=    0.000
 RMSDP=5.81D-06 MaxDP=3.55D-04 DE=-1.26D-06 OVMax= 3.78D-04

 Cycle  12  Pass 1  IDiag  1:
 E= -1199.60977467198     Delta-E=       -0.000000275321 Rises=F Damp=F
 DIIS: error= 8.05D-06 at cycle  12 NSaved=  12.
 NSaved=12 IEnMin=12 EnMin= -1199.60977467198     IErMin=12 ErrMin= 8.05D-06
 ErrMax= 8.05D-06  0.00D+00 EMaxC= 1.00D-01 BMatC= 2.25D-08 BMatP= 5.16D-08
 IDIUse=1 WtCom= 1.00D+00 WtEn= 0.00D+00
 Coeff-Com: -0.367D-03 0.490D-03-0.401D-03-0.335D-03 0.162D-02 0.160D-01
 Coeff-Com:  0.194D-01-0.220D-01-0.158D+00-0.106D+00 0.482D+00 0.767D+00
 Coeff:     -0.367D-03 0.490D-03-0.401D-03-0.335D-03 0.162D-02 0.160D-01
 Coeff:      0.194D-01-0.220D-01-0.158D+00-0.106D+00 0.482D+00 0.767D+00
 Gap=     0.249 Goal=   None    Shift=    0.000
 RMSDP=3.50D-06 MaxDP=1.30D-04 DE=-2.75D-07 OVMax= 2.34D-04

 Cycle  13  Pass 1  IDiag  1:
 E= -1199.60977476415     Delta-E=       -0.000000092177 Rises=F Damp=F
 DIIS: error= 2.67D-06 at cycle  13 NSaved=  13.
 NSaved=13 IEnMin=13 EnMin= -1199.60977476415     IErMin=13 ErrMin= 2.67D-06
 ErrMax= 2.67D-06  0.00D+00 EMaxC= 1.00D-01 BMatC= 2.25D-09 BMatP= 2.25D-08
 IDIUse=1 WtCom= 1.00D+00 WtEn= 0.00D+00
 Coeff-Com: -0.197D-03 0.262D-03-0.230D-03-0.255D-03-0.970D-03-0.102D-03
 Coeff-Com:  0.716D-02 0.124D-01 0.491D-02-0.649D-01-0.134D+00 0.645D-01
 Coeff-Com:  0.111D+01
 Coeff:     -0.197D-03 0.262D-03-0.230D-03-0.255D-03-0.970D-03-0.102D-03
 Coeff:      0.716D-02 0.124D-01 0.491D-02-0.649D-01-0.134D+00 0.645D-01
 Coeff:      0.111D+01
 Gap=     0.249 Goal=   None    Shift=    0.000
 RMSDP=1.35D-06 MaxDP=5.67D-05 DE=-9.22D-08 OVMax= 8.81D-05

 Cycle  14  Pass 1  IDiag  1:
 E= -1199.60977477664     Delta-E=       -0.000000012486 Rises=F Damp=F
 DIIS: error= 9.55D-07 at cycle  14 NSaved=  14.
 NSaved=14 IEnMin=14 EnMin= -1199.60977477664     IErMin=14 ErrMin= 9.55D-07
 ErrMax= 9.55D-07  0.00D+00 EMaxC= 1.00D-01 BMatC= 4.68D-10 BMatP= 2.25D-09
 IDIUse=1 WtCom= 1.00D+00 WtEn= 0.00D+00
 Coeff-Com: -0.535D-04 0.704D-04-0.718D-04-0.714D-04-0.645D-03-0.183D-02
 Coeff-Com:  0.696D-03 0.715D-02 0.183D-01-0.144D-01-0.102D+00-0.794D-01
 Coeff-Com:  0.406D+00 0.766D+00
 Coeff:     -0.535D-04 0.704D-04-0.718D-04-0.714D-04-0.645D-03-0.183D-02
 Coeff:      0.696D-03 0.715D-02 0.183D-01-0.144D-01-0.102D+00-0.794D-01
 Coeff:      0.406D+00 0.766D+00
 Gap=     0.249 Goal=   None    Shift=    0.000
 RMSDP=4.71D-07 MaxDP=2.12D-05 DE=-1.25D-08 OVMax= 3.52D-05

 Cycle  15  Pass 1  IDiag  1:
 E= -1199.60977477842     Delta-E=       -0.000000001783 Rises=F Damp=F
 DIIS: error= 4.51D-07 at cycle  15 NSaved=  15.
 NSaved=15 IEnMin=15 EnMin= -1199.60977477842     IErMin=15 ErrMin= 4.51D-07
 ErrMax= 4.51D-07  0.00D+00 EMaxC= 1.00D-01 BMatC= 9.71D-11 BMatP= 4.68D-10
 IDIUse=1 WtCom= 1.00D+00 WtEn= 0.00D+00
 Coeff-Com:  0.185D-04-0.253D-04 0.161D-04 0.297D-04 0.315D-04-0.229D-03
 Coeff-Com: -0.128D-02-0.129D-02 0.557D-03 0.927D-02 0.203D-01-0.401D-01
 Coeff-Com: -0.168D+00 0.205D+00 0.975D+00
 Coeff:      0.185D-04-0.253D-04 0.161D-04 0.297D-04 0.315D-04-0.229D-03
 Coeff:     -0.128D-02-0.129D-02 0.557D-03 0.927D-02 0.203D-01-0.401D-01
 Coeff:     -0.168D+00 0.205D+00 0.975D+00
 Gap=     0.249 Goal=   None    Shift=    0.000
 RMSDP=2.68D-07 MaxDP=1.21D-05 DE=-1.78D-09 OVMax= 2.24D-05

 Cycle  16  Pass 1  IDiag  1:
 E= -1199.60977477886     Delta-E=       -0.000000000436 Rises=F Damp=F
 DIIS: error= 1.83D-07 at cycle  16 NSaved=  16.
 NSaved=16 IEnMin=16 EnMin= -1199.60977477886     IErMin=16 ErrMin= 1.83D-07
 ErrMax= 1.83D-07  0.00D+00 EMaxC= 1.00D-01 BMatC= 2.44D-11 BMatP= 9.71D-11
 IDIUse=1 WtCom= 1.00D+00 WtEn= 0.00D+00
 Coeff-Com:  0.145D-04-0.193D-04 0.160D-04 0.208D-04 0.104D-03 0.206D-03
 Coeff-Com: -0.541D-03-0.112D-02-0.221D-02 0.481D-02 0.282D-01-0.745D-02
 Coeff-Com: -0.136D+00-0.533D-01 0.371D+00 0.796D+00
 Coeff:      0.145D-04-0.193D-04 0.160D-04 0.208D-04 0.104D-03 0.206D-03
 Coeff:     -0.541D-03-0.112D-02-0.221D-02 0.481D-02 0.282D-01-0.745D-02
 Coeff:     -0.136D+00-0.533D-01 0.371D+00 0.796D+00
 Gap=     0.249 Goal=   None    Shift=    0.000
 RMSDP=1.09D-07 MaxDP=5.74D-06 DE=-4.36D-10 OVMax= 6.84D-06

 Cycle  17  Pass 1  IDiag  1:
 E= -1199.60977477897     Delta-E=       -0.000000000118 Rises=F Damp=F
 DIIS: error= 1.21D-07 at cycle  17 NSaved=  17.
 NSaved=17 IEnMin=17 EnMin= -1199.60977477897     IErMin=17 ErrMin= 1.21D-07
 ErrMax= 1.21D-07  0.00D+00 EMaxC= 1.00D-01 BMatC= 6.57D-12 BMatP= 2.44D-11
 IDIUse=1 WtCom= 1.00D+00 WtEn= 0.00D+00
 Coeff-Com: -0.351D-06 0.759D-06 0.325D-05 0.244D-05 0.375D-04 0.184D-03
 Coeff-Com: -0.408D-05-0.808D-04-0.919D-03-0.228D-02 0.654D-02 0.613D-02
 Coeff-Com:  0.145D-02-0.709D-01-0.101D+00 0.283D+00 0.877D+00
 Coeff:     -0.351D-06 0.759D-06 0.325D-05 0.244D-05 0.375D-04 0.184D-03
 Coeff:     -0.408D-05-0.808D-04-0.919D-03-0.228D-02 0.654D-02 0.613D-02
 Coeff:      0.145D-02-0.709D-01-0.101D+00 0.283D+00 0.877D+00
 Gap=     0.249 Goal=   None    Shift=    0.000
 RMSDP=5.00D-08 MaxDP=1.71D-06 DE=-1.18D-10 OVMax= 4.93D-06

 Cycle  18  Pass 1  IDiag  1:
 E= -1199.60977477900     Delta-E=       -0.000000000030 Rises=F Damp=F
 DIIS: error= 5.47D-08 at cycle  18 NSaved=  18.
 NSaved=18 IEnMin=18 EnMin= -1199.60977477900     IErMin=18 ErrMin= 5.47D-08
 ErrMax= 5.47D-08  0.00D+00 EMaxC= 1.00D-01 BMatC= 1.26D-12 BMatP= 6.57D-12
 IDIUse=1 WtCom= 1.00D+00 WtEn= 0.00D+00
 Coeff-Com: -0.202D-05 0.275D-05-0.117D-05-0.242D-05-0.152D-04-0.214D-04
 Coeff-Com:  0.237D-04 0.307D-03 0.594D-03-0.194D-02-0.426D-02 0.193D-02
 Coeff-Com:  0.326D-01-0.965D-02-0.984D-01-0.172D+00 0.100D+00 0.115D+01
 Coeff:     -0.202D-05 0.275D-05-0.117D-05-0.242D-05-0.152D-04-0.214D-04
 Coeff:      0.237D-04 0.307D-03 0.594D-03-0.194D-02-0.426D-02 0.193D-02
 Coeff:      0.326D-01-0.965D-02-0.984D-01-0.172D+00 0.100D+00 0.115D+01
 Gap=     0.249 Goal=   None    Shift=    0.000
 RMSDP=3.47D-08 MaxDP=9.99D-07 DE=-2.96D-11 OVMax= 3.66D-06

 Cycle  19  Pass 1  IDiag  1:
 E= -1199.60977477894     Delta-E=        0.000000000065 Rises=F Damp=F
 DIIS: error= 1.81D-08 at cycle  19 NSaved=  19.
 NSaved=19 IEnMin=18 EnMin= -1199.60977477900     IErMin=19 ErrMin= 1.81D-08
 ErrMax= 1.81D-08  0.00D+00 EMaxC= 1.00D-01 BMatC= 2.13D-13 BMatP= 1.26D-12
 IDIUse=1 WtCom= 1.00D+00 WtEn= 0.00D+00
 Coeff-Com: -0.704D-06 0.902D-06-0.145D-05-0.210D-05-0.120D-04-0.272D-04
 Coeff-Com:  0.205D-04 0.151D-03 0.293D-03-0.413D-03-0.202D-02-0.553D-03
 Coeff-Com:  0.104D-01 0.371D-02-0.960D-02-0.966D-01-0.966D-01 0.333D+00
 Coeff-Com:  0.858D+00
 Coeff:     -0.704D-06 0.902D-06-0.145D-05-0.210D-05-0.120D-04-0.272D-04
 Coeff:      0.205D-04 0.151D-03 0.293D-03-0.413D-03-0.202D-02-0.553D-03
 Coeff:      0.104D-01 0.371D-02-0.960D-02-0.966D-01-0.966D-01 0.333D+00
 Coeff:      0.858D+00
 Gap=     0.249 Goal=   None    Shift=    0.000
 RMSDP=1.10D-08 MaxDP=3.58D-07 DE= 6.55D-11 OVMax= 1.02D-06

 Cycle  20  Pass 1  IDiag  1:
 E= -1199.60977477903     Delta-E=       -0.000000000095 Rises=F Damp=F
 DIIS: error= 9.49D-09 at cycle  20 NSaved=  20.
 NSaved=20 IEnMin=20 EnMin= -1199.60977477903     IErMin=20 ErrMin= 9.49D-09
 ErrMax= 9.49D-09  0.00D+00 EMaxC= 1.00D-01 BMatC= 5.32D-14 BMatP= 2.13D-13
 IDIUse=1 WtCom= 1.00D+00 WtEn= 0.00D+00
 Coeff-Com:  0.116D-06-0.191D-06-0.671D-06-0.739D-06-0.726D-06 0.213D-05
 Coeff-Com:  0.120D-04-0.298D-04-0.169D-03 0.316D-03 0.816D-03-0.573D-03
 Coeff-Com: -0.563D-02 0.259D-02 0.291D-01 0.106D-01-0.653D-01-0.208D+00
 Coeff-Com:  0.334D+00 0.903D+00
 Coeff:      0.116D-06-0.191D-06-0.671D-06-0.739D-06-0.726D-06 0.213D-05
 Coeff:      0.120D-04-0.298D-04-0.169D-03 0.316D-03 0.816D-03-0.573D-03
 Coeff:     -0.563D-02 0.259D-02 0.291D-01 0.106D-01-0.653D-01-0.208D+00
 Coeff:      0.334D+00 0.903D+00
 Gap=     0.249 Goal=   None    Shift=    0.000
 RMSDP=5.40D-09 MaxDP=2.07D-07 DE=-9.55D-11 OVMax= 5.62D-07

 SCF Done:  E(RwB97XD) =  -1199.60977478     A.U. after   20 cycles
            NFock= 20  Conv=0.54D-08     -V/T= 2.0018
 KE= 1.197467719636D+03 PE=-4.656154020375D+03 EE= 1.354851968525D+03
 Leave Link  502 at Fri May 23 04:53:21 2025, MaxMem=  3758096384 cpu:              77.3 elap:              17.4
 (Enter /apps/easybuild-2022/easybuild/software/Compiler/NVHPC/22.11-CUDA-11.7.0/Gaussian/g16c01-CUDA-11.7.0/g16/l508.exe)
 QCSCF skips out because SCF is already converged.
 Leave Link  508 at Fri May 23 04:53:21 2025, MaxMem=  3758096384 cpu:               0.0 elap:               0.0
 (Enter /apps/easybuild-2022/easybuild/software/Compiler/NVHPC/22.11-CUDA-11.7.0/Gaussian/g16c01-CUDA-11.7.0/g16/l801.exe)
 DoSCS=F DFT=T ScalE2(SS,OS)=  1.000000  1.000000
 Range of M.O.s used for correlation:     1   257
 NBasis=   257 NAE=    49 NBE=    49 NFC=     0 NFV=     0
 NROrb=    257 NOA=    49 NOB=    49 NVA=   208 NVB=   208

 **** Warning!!: The largest alpha MO coefficient is  0.35442490D+02

 Leave Link  801 at Fri May 23 04:53:21 2025, MaxMem=  3758096384 cpu:               0.1 elap:               0.0
 (Enter /apps/easybuild-2022/easybuild/software/Compiler/NVHPC/22.11-CUDA-11.7.0/Gaussian/g16c01-CUDA-11.7.0/g16/l1101.exe)
 Using compressed storage, NAtomX=    12.
 Will process     13 centers per pass.
 R6Disp: Adding Grimme-D2 dispersion energy 1st derivatives to the gradient.
 Leave Link 1101 at Fri May 23 04:53:21 2025, MaxMem=  3758096384 cpu:               0.5 elap:               0.1
 (Enter /apps/easybuild-2022/easybuild/software/Compiler/NVHPC/22.11-CUDA-11.7.0/Gaussian/g16c01-CUDA-11.7.0/g16/l1102.exe)
 Symmetrizing basis deriv contribution to polar:
 IMax=3 JMax=2 DiffMx= 0.00D+00
 Leave Link 1102 at Fri May 23 04:53:21 2025, MaxMem=  3758096384 cpu:               0.1 elap:               0.0
 (Enter /apps/easybuild-2022/easybuild/software/Compiler/NVHPC/22.11-CUDA-11.7.0/Gaussian/g16c01-CUDA-11.7.0/g16/l1110.exe)
 Forming Gx(P) for the SCF density, NAtomX=    12.
 Integral derivatives from FoFJK, PRISM(SPDF).
 Do as many integral derivatives as possible in FoFJK.
 G2DrvN: MDV=    3758095012.
 G2DrvN: will do    13 centers at a time, making    1 passes.
 Calling FoFCou, ICntrl=  3107 FMM=F I1Cent=   0 AccDes= 0.00D+00.
 FoFJK:  IHMeth= 1 ICntrl=    3107 DoSepK=T KAlg= 0 I1Cent=           0 FoldK=F
 IRaf=         1 NMat=       1 IRICut=       1 DoRegI=T DoRafI=F ISym2E= 0 IDoP0=0 IntGTp=1.
 FoFCou: FMM=F IPFlag=           0 FMFlag=      100000 FMFlg1=           0
         NFxFlg=           0 DoJE=F BraDBF=F KetDBF=F FulRan=T
         wScrn=  0.000000 ICntrl=      3507 IOpCl=  0 I1Cent=           0 NGrid=           0
         NMat0=    1 NMatS0=      1 NMatT0=    0 NMatD0=    1 NMtDS0=    0 NMtDT0=    0
 Symmetry not used in FoFCou.
 End of G2Drv F.D. properties file   721 does not exist.
 End of G2Drv F.D. properties file   722 does not exist.
 End of G2Drv F.D. properties file   788 does not exist.
 Leave Link 1110 at Fri May 23 04:53:32 2025, MaxMem=  3758096384 cpu:              85.5 elap:              10.8
 (Enter /apps/easybuild-2022/easybuild/software/Compiler/NVHPC/22.11-CUDA-11.7.0/Gaussian/g16c01-CUDA-11.7.0/g16/l1002.exe)
 Minotr:  Closed shell wavefunction.
          IDoAtm=111111111111
          Direct CPHF calculation.
          Differentiating once with respect to electric field.
                with respect to dipole field.
          Differentiating once with respect to nuclear coordinates.
          Requested convergence is 1.0D-08 RMS, and 1.0D-07 maximum.
          Secondary convergence is 1.0D-12 RMS, and 1.0D-12 maximum.
          NewPWx=T KeepS1=F KeepF1=F KeepIn=T MapXYZ=F SortEE=F KeepMc=T.
         3731 words used for storage of precomputed grid.
 Keep R1 ints in memory in canonical form, NReq=1117480323.
 FoFCou: FMM=F IPFlag=           0 FMFlag=           0 FMFlg1=           0
         NFxFlg=           0 DoJE=F BraDBF=F KetDBF=F FulRan=T
         wScrn=  0.000000 ICntrl=       600 IOpCl=  0 I1Cent=           0 NGrid=           0
         NMat0=    1 NMatS0=  33153 NMatT0=    0 NMatD0=    1 NMtDS0=    0 NMtDT0=    0
 Symmetry not used in FoFCou.
 Two-electron integral symmetry not used.
          MDV=    3758096384 using IRadAn=       1.
          Solving linear equations simultaneously, MaxMat=       0.
          There are    39 degrees of freedom in the 1st order CPHF.  IDoFFX=6 NUNeed=     3.
     36 vectors produced by pass  0 Test12= 2.61D-14 2.56D-09 XBig12= 6.98D+01 6.23D+00.
 AX will form    36 AO Fock derivatives at one time.
     36 vectors produced by pass  1 Test12= 2.61D-14 2.56D-09 XBig12= 7.62D+00 3.34D-01.
     36 vectors produced by pass  2 Test12= 2.61D-14 2.56D-09 XBig12= 3.13D-01 1.38D-01.
     36 vectors produced by pass  3 Test12= 2.61D-14 2.56D-09 XBig12= 1.01D-02 1.92D-02.
     36 vectors produced by pass  4 Test12= 2.61D-14 2.56D-09 XBig12= 1.93D-04 1.89D-03.
     36 vectors produced by pass  5 Test12= 2.61D-14 2.56D-09 XBig12= 2.84D-06 2.05D-04.
     36 vectors produced by pass  6 Test12= 2.61D-14 2.56D-09 XBig12= 2.27D-08 2.01D-05.
     31 vectors produced by pass  7 Test12= 2.61D-14 2.56D-09 XBig12= 1.50D-10 1.33D-06.
      8 vectors produced by pass  8 Test12= 2.61D-14 2.56D-09 XBig12= 9.46D-13 1.10D-07.
      3 vectors produced by pass  9 Test12= 2.61D-14 2.56D-09 XBig12= 6.61D-15 9.24D-09.
 InvSVY:  IOpt=1 It=  1 EMax= 5.33D-15
 Solved reduced A of dimension   294 with    39 vectors.
 FullF1:  Do perturbations      1 to       3.
 Isotropic polarizability for W=    0.000000       77.19 Bohr**3.
 End of Minotr F.D. properties file   721 does not exist.
 End of Minotr F.D. properties file   722 does not exist.
 End of Minotr F.D. properties file   788 does not exist.
 Leave Link 1002 at Fri May 23 04:53:56 2025, MaxMem=  3758096384 cpu:             194.3 elap:              24.8
 (Enter /apps/easybuild-2022/easybuild/software/Compiler/NVHPC/22.11-CUDA-11.7.0/Gaussian/g16c01-CUDA-11.7.0/g16/l701.exe)
 ... and contract with generalized density number  0.
 Compute integral second derivatives.
 R6Disp: Adding Grimme-D2 dispersion energy 2nd derivatives to the Hessian.
 Leave Link  701 at Fri May 23 04:53:57 2025, MaxMem=  3758096384 cpu:               0.7 elap:               0.2
 (Enter /apps/easybuild-2022/easybuild/software/Compiler/NVHPC/22.11-CUDA-11.7.0/Gaussian/g16c01-CUDA-11.7.0/g16/l702.exe)
 L702 exits ... SP integral derivatives will be done elsewhere.
 Leave Link  702 at Fri May 23 04:53:57 2025, MaxMem=  3758096384 cpu:               0.1 elap:               0.0
 (Enter /apps/easybuild-2022/easybuild/software/Compiler/NVHPC/22.11-CUDA-11.7.0/Gaussian/g16c01-CUDA-11.7.0/g16/l703.exe)
 Integral derivatives from FoFJK, PRISM(SPDF).
 Compute integral second derivatives, UseDBF=F ICtDFT=           0.
 Calling FoFJK, ICntrl=    100127 FMM=F ISym2X=0 I1Cent= 0 IOpClX= 0 NMat=1 NMatS=1 NMatT=0.
 FoFJK:  IHMeth= 1 ICntrl=  100127 DoSepK=T KAlg= 0 I1Cent=           0 FoldK=F
 IRaf=         1 NMat=       1 IRICut=       1 DoRegI=T DoRafI=F ISym2E= 0 IDoP0=0 IntGTp=1.
 FoFCou: FMM=F IPFlag=           0 FMFlag=      100000 FMFlg1=         800
         NFxFlg=           0 DoJE=F BraDBF=F KetDBF=F FulRan=T
         wScrn=  0.000000 ICntrl=    100527 IOpCl=  0 I1Cent=           0 NGrid=           0
         NMat0=    1 NMatS0=      1 NMatT0=    0 NMatD0=    1 NMtDS0=    0 NMtDT0=    0
 Symmetry not used in FoFCou.
 Leave Link  703 at Fri May 23 04:54:28 2025, MaxMem=  3758096384 cpu:             251.5 elap:              31.7
 (Enter /apps/easybuild-2022/easybuild/software/Compiler/NVHPC/22.11-CUDA-11.7.0/Gaussian/g16c01-CUDA-11.7.0/g16/l716.exe)
 Dipole        =-1.75602404D+00 7.29752430D-01 6.14836682D-01
 Polarizability= 9.99926351D+01 2.06908092D+01 7.21075188D+01
                -1.21676167D+00 1.64294071D+00 5.94656817D+01
 -------------------------------------------------------------------
 Center     Atomic                   Forces (Hartrees/Bohr)
 Number     Number              X              Y              Z
 -------------------------------------------------------------------
      1        6           0.041499791   -0.060257314    0.001536174
      2        6           0.020418638    0.065008181   -0.002829631
      3        9          -0.006658648   -0.011039967   -0.015383103
      4        9          -0.004110805   -0.008540338    0.015363783
      5       16           0.007175636   -0.021782330    0.016689007
      6        8           0.007487212    0.013807495    0.022930143
      7        8           0.020912376    0.038380047   -0.027774658
      8        8          -0.016632332    0.004389988   -0.022462463
      9        9          -0.011366840    0.019497887    0.010825362
     10        9          -0.038146771   -0.043111772    0.009593421
     11        9          -0.015331750    0.015896141   -0.013173307
     12        1          -0.005246506   -0.012248018    0.004685273
 -------------------------------------------------------------------
 Cartesian Forces:  Max     0.065008181 RMS     0.023972019
 Force constants in Cartesian coordinates: 
                1             2             3             4             5 
      1  0.945127D-01
      2  0.161979D+00  0.760300D+00
      3  0.346502D-01 -0.163540D-01  0.707612D+00
      4 -0.929829D-01  0.865312D-01 -0.314141D-02  0.491220D-01
      5 -0.108015D+00 -0.278799D+00  0.287969D-01 -0.127555D+00  0.683193D+00
      6  0.823473D-02  0.212574D-01 -0.536731D-01  0.258217D-01 -0.202072D-01
      7  0.833402D-02 -0.358160D-01  0.518358D-02 -0.393571D-01  0.642952D-01
      8  0.152405D-01 -0.230753D-01  0.431975D-01  0.418613D-01 -0.142758D+00
      9 -0.279288D-02  0.116685D-01 -0.251264D-01 -0.547046D-01  0.122711D+00
     10  0.839716D-02 -0.372095D-01 -0.161407D-02 -0.338944D-01  0.702227D-01
     11  0.141225D-01 -0.335857D-01 -0.419426D-01  0.443362D-01 -0.183741D+00
     12  0.390373D-05 -0.995306D-02 -0.140476D-01  0.377914D-01 -0.126105D+00
     13  0.957642D-02 -0.887785D-01  0.666763D-02  0.464849D-01  0.782285D-01
     14 -0.931855D-01  0.708526D-01  0.370023D-02 -0.477854D-01 -0.481394D-01
     15 -0.111423D-02 -0.229767D-02  0.116408D-01 -0.373360D-02  0.391967D-02
     16 -0.139314D-02  0.156181D-01 -0.951603D-03 -0.442795D-02 -0.132751D-01
     17  0.157944D-01 -0.141270D-01 -0.239127D-03  0.737942D-02  0.831645D-02
     18  0.733366D-02 -0.476023D-03 -0.601214D-02  0.108008D-01 -0.276046D-02
     19  0.245171D-02  0.103060D-01 -0.144753D-02  0.270312D-02 -0.106660D-01
     20  0.177183D-01 -0.136620D-01  0.000000D+00  0.533500D-02  0.821569D-02
     21 -0.106603D-01  0.831167D-02 -0.282407D-02 -0.143700D-01 -0.374331D-02
     22 -0.470459D-02  0.119777D-01 -0.326294D-03 -0.108109D-02 -0.121894D-01
     23  0.210483D-02  0.913699D-02 -0.519608D-03  0.363857D-02 -0.153131D-01
     24 -0.107721D-02  0.367210D-02 -0.191286D-02  0.397619D-03 -0.453452D-02
     25 -0.429433D-01 -0.152383D-01  0.562539D-02  0.203379D-01 -0.260378D-02
     26 -0.192853D-01 -0.178532D+00  0.159704D+00 -0.193749D-01 -0.148896D-01
     27  0.252132D-02  0.147431D+00 -0.332085D+00  0.312207D-01  0.185371D-01
     28  0.653684D-01 -0.622168D-01 -0.359822D-02  0.340086D-01  0.676001D-01
     29  0.396744D-01 -0.577458D-01 -0.332379D-02  0.331325D-01  0.376244D-02
     30 -0.376416D-02  0.279986D-02 -0.141875D-01 -0.888771D-03 -0.486964D-02
     31 -0.461000D-01 -0.478730D-01 -0.407515D-01  0.189740D-01 -0.216235D-02
     32 -0.467447D-01 -0.236959D+00 -0.172853D+00 -0.299816D-01 -0.233603D-01
     33 -0.344901D-01 -0.162460D+00 -0.269777D+00 -0.305141D-01 -0.151700D-01
     34 -0.516519D-03  0.720173D-03 -0.296143D-03  0.112964D-03 -0.387909D-02
     35  0.596982D-03 -0.380242D-02 -0.166532D-03  0.248300D-02  0.351269D-02
     36  0.115506D-02 -0.359946D-02  0.392696D-03  0.132029D-02  0.342590D-02
                6             7             8             9            10 
      6  0.545152D+00
      7 -0.717750D-01  0.459909D-01
      8  0.121300D+00 -0.405291D-01  0.149018D+00
      9 -0.256201D+00  0.678207D-01 -0.147931D+00  0.369777D+00
     10  0.500708D-01  0.885647D-02 -0.760669D-02 -0.803452D-02  0.425575D-01
     11 -0.125813D+00 -0.559400D-02  0.209487D-01  0.889989D-03 -0.449246D-01
     12 -0.198832D+00  0.687227D-02 -0.219933D-01 -0.891337D-01 -0.487807D-01
     13 -0.828975D-02 -0.659664D-02 -0.136779D-01  0.118722D-01 -0.774954D-02
     14  0.880487D-02  0.104477D-01  0.261481D-02 -0.870728D-03  0.127304D-01
     15 -0.419331D-02 -0.154571D-01  0.877299D-02 -0.129708D-01  0.149824D-01
     16 -0.501612D-02 -0.490180D-02  0.508169D-02 -0.640273D-02  0.124903D-02
     17  0.860679D-04  0.479861D-03 -0.144989D-02  0.210336D-02 -0.143016D-02
     18 -0.600646D-02 -0.344996D-02  0.139682D-02 -0.135831D-02 -0.388922D-02
     19  0.613514D-02  0.711733D-05  0.195487D-02 -0.357249D-02 -0.472137D-02
     20 -0.370973D-02 -0.683977D-03 -0.125071D-02  0.207547D-02  0.137798D-02
     21 -0.415735D-02  0.453575D-02 -0.302694D-02  0.573178D-02  0.304017D-02
     22  0.196853D-02 -0.766097D-03  0.309190D-02 -0.265917D-02 -0.174560D-03
     23  0.772499D-03 -0.266673D-02  0.518039D-02 -0.497903D-02 -0.259512D-02
     24 -0.685471D-03  0.714337D-03  0.778519D-04  0.371364D-03 -0.177367D-02
     25  0.702723D-02  0.125483D-02 -0.214704D-02 -0.260430D-02 -0.410494D-02
     26  0.392131D-01  0.529952D-03 -0.677438D-02  0.374677D-02  0.590970D-02
     27 -0.192465D-01 -0.525543D-02  0.861525D-03 -0.115216D-02 -0.832973D-02
     28 -0.363651D-02 -0.900586D-02 -0.232931D-02  0.948733D-03 -0.108962D-01
     29 -0.568476D-02  0.169540D-02 -0.386402D-02  0.632054D-02  0.284236D-02
     30  0.437276D-02  0.296785D-02 -0.177909D-02  0.193367D-02 -0.870501D-03
     31 -0.927469D-02 -0.359086D-02 -0.177869D-02  0.494707D-03  0.975578D-03
     32 -0.356202D-01  0.780335D-02  0.223844D-02  0.366768D-02  0.109076D-02
     33 -0.662404D-02  0.784355D-02 -0.387305D-03  0.772035D-02  0.506556D-02
     34 -0.126613D-02 -0.225023D-03  0.838426D-03 -0.365681D-03 -0.494760D-03
     35 -0.399253D-03  0.383241D-04 -0.827767D-03  0.597400D-03 -0.407849D-03
     36  0.947121D-04  0.000000D+00 -0.489446D-03  0.408812D-03  0.133405D-03
               11            12            13            14            15 
     11  0.203573D+00
     12  0.169537D+00  0.299252D+00
     13 -0.161860D-01 -0.984914D-02  0.254819D+00
     14 -0.450961D-03 -0.296673D-02 -0.307568D-01  0.302104D+00
     15 -0.128117D-01 -0.135777D-01 -0.628864D-01  0.388565D-01  0.119315D+01
     16  0.223056D-02  0.236638D-02 -0.814038D-01  0.292321D-01 -0.112808D+00
     17 -0.318867D-03 -0.534701D-03  0.160246D-01 -0.831317D-01  0.125652D+00
     18  0.516811D-02  0.678025D-02 -0.835094D-01  0.129630D+00 -0.539139D+00
     19  0.577841D-02  0.529335D-02 -0.117010D+00  0.646796D-01  0.175929D+00
     20 -0.215554D-02 -0.205228D-02  0.407149D-01 -0.847888D-01 -0.149825D+00
     21 -0.241783D-03  0.137167D-03  0.144288D+00 -0.160795D+00 -0.514216D+00
     22  0.298734D-02  0.128165D-02 -0.437592D-01 -0.464570D-01  0.159166D-01
     23  0.683853D-02  0.469476D-02 -0.126184D-01 -0.137460D+00  0.152639D-01
     24  0.270508D-02  0.274739D-02  0.553431D-02 -0.196894D-01 -0.885563D-01
     25 -0.173693D-02  0.840405D-03 -0.634694D-02  0.197414D-01  0.131616D-02
     26  0.178223D-02 -0.269834D-02  0.147237D-01 -0.515671D-02  0.259027D-02
     27  0.128569D-02  0.794984D-02 -0.153687D-01 -0.641996D-02 -0.528249D-02
     28 -0.985168D-03  0.193837D-03 -0.405497D-01  0.669995D-01  0.768123D-03
     29 -0.526730D-02 -0.510139D-02 -0.601144D-02  0.573712D-03 -0.644404D-03
     30  0.175746D-02  0.893168D-03  0.452781D-03  0.108997D-02 -0.311203D-01
     31 -0.219197D-02  0.226305D-02 -0.548468D-02  0.239401D-01  0.430937D-03
     32 -0.709613D-02 -0.286773D-02  0.169398D-01 -0.417114D-02  0.166649D-03
     33  0.353804D-03 -0.124085D-02  0.128702D-01  0.442916D-02 -0.160370D-02
     34  0.216360D-02  0.172364D-02 -0.197931D-02 -0.958588D-02 -0.133437D-01
     35 -0.527314D-03  0.409651D-04  0.139760D-02 -0.128472D-01 -0.296427D-01
     36 -0.888209D-03 -0.927956D-03 -0.178166D-02  0.423127D-02  0.586679D-02
               16            17            18            19            20 
     16  0.665088D-01
     17  0.324250D-02  0.141681D+00
     18  0.127599D+00 -0.128886D+00  0.583426D+00
     19  0.135660D-01  0.809044D-03 -0.113639D-01  0.119262D+00
     20  0.168471D-02  0.725040D-02  0.616442D-02 -0.115305D-01  0.152702D+00
     21  0.138730D-01 -0.839285D-02 -0.630201D-02 -0.207310D+00  0.141054D+00
     22  0.144372D-01  0.405856D-02 -0.632892D-02  0.601478D-02  0.115355D-01
     23 -0.158223D-01 -0.347681D-01  0.237213D-01 -0.100737D-01 -0.237447D-01
     24  0.588946D-02  0.482628D-01 -0.973667D-02 -0.468773D-02 -0.407187D-01
     25  0.919505D-03 -0.325913D-02 -0.206343D-02 -0.157756D-03 -0.542906D-02
     26 -0.304389D-02  0.139386D-02 -0.221876D-02 -0.218385D-02  0.588720D-04
     27  0.279096D-02  0.522676D-03  0.399489D-02  0.252396D-02  0.346316D-02
     28 -0.325776D-02 -0.407500D-01 -0.324896D-01 -0.236974D-01 -0.579920D-01
     29 -0.225755D-01 -0.314585D-01 -0.337367D-01 -0.441842D-01 -0.387596D-01
     30 -0.257888D-01 -0.402340D-01 -0.225668D-01  0.407630D-01  0.429967D-01
     31  0.104514D-02 -0.464944D-02 -0.203081D-02 -0.526897D-03 -0.442553D-02
     32 -0.303057D-02  0.771344D-03 -0.931569D-04 -0.305114D-02  0.456776D-03
     33 -0.218954D-02 -0.850652D-03  0.344275D-03 -0.228983D-02 -0.181537D-02
     34 -0.234126D-02  0.230034D-02 -0.607904D-03  0.210834D-02  0.169471D-02
     35  0.657666D-03  0.584060D-02  0.209123D-02 -0.183848D-02 -0.432192D-02
     36  0.638091D-03  0.251105D-02 -0.342433D-02  0.271485D-04  0.236684D-02
               21            22            23            24            25 
     21  0.548462D+00
     22  0.653920D-02  0.287943D-01
     23 -0.149896D-01  0.445606D-01  0.338591D+00
     24 -0.111644D-01 -0.183268D-01  0.199765D+00  0.511685D+00
     25  0.274038D-02  0.971927D-03 -0.143473D-03  0.493695D-03  0.421385D-01
     26 -0.963490D-03 -0.210292D-02 -0.186536D-02 -0.767978D-03  0.184360D-01
     27  0.897057D-04  0.175783D-02  0.235110D-02  0.790688D-03 -0.146579D-01
     28  0.510675D-01  0.611091D-02 -0.349461D-04 -0.185433D-03 -0.266457D-01
     29  0.441753D-01 -0.139404D-02 -0.293563D-02 -0.649399D-03 -0.111888D-01
     30 -0.208366D-01 -0.185256D-02 -0.284554D-03  0.736620D-02  0.131101D-01
     31  0.359169D-02  0.133199D-02 -0.295843D-03 -0.103192D-03  0.142208D-01
     32  0.620080D-03 -0.218934D-02 -0.243465D-02 -0.672766D-03  0.368467D-02
     33  0.177737D-02 -0.130286D-02 -0.217397D-02 -0.159879D-03 -0.114867D-01
     34  0.266431D-02 -0.717565D-02 -0.605353D-02  0.131246D-01  0.355248D-03
     35 -0.200863D-02 -0.138788D-01 -0.141226D+00 -0.187450D+00 -0.115528D-03
     36  0.330306D-02  0.333281D-02 -0.223622D+00 -0.410745D+00 -0.341039D-03
               26            27            28            29            30 
     26  0.169761D+00
     27 -0.171621D+00  0.447204D+00
     28  0.377612D-02  0.111514D-01  0.492849D-01
     29  0.919229D-02  0.203134D-03  0.269334D-01  0.116683D+00
     30 -0.519502D-03 -0.123155D-02 -0.140427D-01 -0.140882D-02  0.749136D-01
     31  0.249333D-02 -0.812217D-02 -0.403944D-01 -0.184503D-01 -0.116190D-01
     32  0.243209D-01  0.419539D-02 -0.241122D-03  0.958839D-02 -0.171416D-02
     33 -0.270956D-01 -0.100411D+00 -0.906104D-02 -0.105601D-03  0.638108D-03
     34  0.122006D-03 -0.232149D-03 -0.325773D-03 -0.473735D-03  0.153273D-02
     35  0.709085D-03 -0.809834D-03 -0.759594D-03  0.230921D-03  0.216573D-02
     36  0.630526D-03 -0.620140D-03 -0.111610D-02 -0.440779D-04 -0.174802D-03
               31            32            33            34            35 
     31  0.595669D-01
     32  0.556674D-01  0.235817D+00
     33  0.654328D-01  0.204529D+00  0.368947D+00
     34 -0.175058D-04  0.526296D-04  0.122109D-03  0.104993D-01
     35 -0.273636D-03  0.828366D-03  0.746543D-03  0.121004D-01  0.152431D+00
     36 -0.311801D-03  0.642354D-03  0.388352D-03 -0.305566D-02  0.214835D+00
               36 
     36  0.405438D+00
 FormGI is forming the generalized inverse of G from B-inverse, IUseBI=4.
 GSVD:  received Info=                   1 from GESDD.
 Leave Link  716 at Fri May 23 04:54:29 2025, MaxMem=  3758096384 cpu:               0.1 elap:               0.0
 (Enter /apps/easybuild-2022/easybuild/software/Compiler/NVHPC/22.11-CUDA-11.7.0/Gaussian/g16c01-CUDA-11.7.0/g16/l103.exe)

 GradGradGradGradGradGradGradGradGradGradGradGradGradGradGradGradGradGrad
 Berny optimization.
 Red2BG is reusing G-inverse.
 Internal  Forces:  Max     0.112676071 RMS     0.029888528
 Search for a saddle point.
 Step number   1 out of a maximum of  100
 All quantities printed in internal units (Hartrees-Bohrs-Radians)
 Swapping is turned off.
 Second derivative matrix not updated -- analytic derivatives used.
 ITU=  0
     Eigenvalues ---   -0.29976  -0.02069   0.00675   0.00956   0.01592
     Eigenvalues ---    0.02763   0.05325   0.06145   0.07065   0.09421
     Eigenvalues ---    0.10235   0.11347   0.13661   0.17939   0.20976
     Eigenvalues ---    0.21279   0.22450   0.23131   0.24671   0.36717
     Eigenvalues ---    0.41848   0.47500   0.47661   0.48304   0.52970
     Eigenvalues ---    0.56932   0.60991   0.62399   0.66127   0.69952
 Eigenvectors required to have negative eigenvalues:
                          A16       R3        R1        D6        R10
   1                    0.64828   0.47863  -0.30460   0.19409  -0.16974
                          D1        A8        D4        A2        A7
   1                   -0.16852   0.13605   0.13349   0.13190   0.12933
 Eigenvalue     2 is  -2.07D-02 should be greater than     0.000000 Eigenvector:
                          R10       A18       R3        A16       D2
   1                    0.47571   0.46915  -0.36806   0.35795   0.20785
                          A17       A12       D5        A14       D12
   1                   -0.20545  -0.18956  -0.18726  -0.17971  -0.16323
 RFO step:  Lambda0=3.028180166D-02 Lambda=-1.20993249D-01.
 Linear search not attempted -- option 19 set.
 Maximum step size (   0.300) exceeded in Quadratic search.
    -- Step size scaled by   0.268
 Iteration  1 RMS(Cart)=  0.17015817 RMS(Int)=  0.00984659
 Iteration  2 RMS(Cart)=  0.01955213 RMS(Int)=  0.00157687
 Iteration  3 RMS(Cart)=  0.00013284 RMS(Int)=  0.00157583
 Iteration  4 RMS(Cart)=  0.00000040 RMS(Int)=  0.00157583
 ITry= 1 IFail=0 DXMaxC= 7.36D-01 DCOld= 1.00D+10 DXMaxT= 3.00D-01 DXLimC= 3.00D+00 Rises=F
 Variable       Old X    -DE/DX   Delta X   Delta X   Delta X     New X
                                 (Linear)    (Quad)   (Total)
    R1        2.64085   0.04644   0.00000  -0.01093  -0.01093   2.62992
    R2        2.40911   0.00023   0.00000  -0.00451  -0.00451   2.40459
    R3        3.97266  -0.02032   0.00000   0.13032   0.13032   4.10298
    R4        2.40616   0.00233   0.00000  -0.00482  -0.00482   2.40134
    R5        2.48914   0.00917   0.00000   0.00360   0.00360   2.49275
    R6        2.50547   0.00696   0.00000   0.00358   0.00358   2.50905
    R7        2.72255   0.01981   0.00000   0.00041   0.00041   2.72296
    R8        2.70417   0.01974   0.00000   0.00032   0.00032   2.70449
    R9        3.13304  -0.01415   0.00000  -0.00700  -0.00700   3.12604
   R10        3.56031   0.02578   0.00000  -0.12150  -0.12150   3.43881
   R11        1.82507  -0.00208   0.00000  -0.00006  -0.00006   1.82501
    A1        2.17294  -0.01061   0.00000  -0.00889  -0.00891   2.16403
    A2        1.49767  -0.00207   0.00000   0.01616   0.01618   1.51385
    A3        2.18382  -0.00977   0.00000  -0.00916  -0.00918   2.17464
    A4        1.59690   0.00898   0.00000  -0.02007  -0.02004   1.57686
    A5        1.92105   0.02241   0.00000   0.01582   0.01561   1.93667
    A6        1.52829   0.01154   0.00000  -0.01994  -0.01991   1.50837
    A7        2.08778  -0.02255   0.00000  -0.00067  -0.00071   2.08708
    A8        2.07492  -0.01906   0.00000   0.00221   0.00218   2.07710
    A9        1.86698   0.02824   0.00000   0.01028   0.01023   1.87721
   A10        2.33886   0.02407   0.00000   0.00583   0.00184   2.34071
   A11        1.74487  -0.00940   0.00000   0.00146   0.00189   1.74676
   A12        1.45544   0.03347   0.00000   0.07005   0.07081   1.52625
   A13        1.76705  -0.04245   0.00000  -0.01424  -0.01236   1.75469
   A14        1.36988   0.07668   0.00000   0.08357   0.08564   1.45551
   A15        2.06775  -0.02548   0.00000  -0.02698  -0.02698   2.04077
   A16        1.75527  -0.11268   0.00000  -0.07281  -0.07281   1.68247
   A17        3.20031   0.02407   0.00000   0.07151   0.07270   3.27301
   A18        3.08227  -0.07784   0.00000  -0.18201  -0.18131   2.90096
    D1       -2.86613   0.01494   0.00000  -0.02022  -0.02023  -2.88636
    D2       -0.52397   0.00927   0.00000  -0.00015  -0.00015  -0.52412
    D3        1.86485   0.00453   0.00000  -0.00770  -0.00771   1.85714
    D4       -2.07617  -0.00114   0.00000   0.01236   0.01237  -2.06380
    D5        0.39787  -0.00964   0.00000   0.00396   0.00396   0.40183
    D6        2.74004  -0.01531   0.00000   0.02402   0.02404   2.76407
    D7        0.15212   0.00024   0.00000   0.00130   0.00131   0.15343
    D8       -2.02057   0.01147   0.00000   0.00909   0.00928  -2.01129
    D9        2.34229  -0.01078   0.00000  -0.00722  -0.00741   2.33488
   D10       -0.44904   0.00037   0.00000  -0.00241  -0.00407  -0.45312
   D11       -2.87424  -0.00113   0.00000  -0.00270  -0.00104  -2.87528
   D12        1.75263   0.01337   0.00000   0.03190   0.02589   1.77852
   D13       -2.13061  -0.00482   0.00000  -0.02461  -0.01860  -2.14921
         Item               Value     Threshold  Converged?
 Maximum Force            0.112676     0.000450     NO 
 RMS     Force            0.029889     0.000300     NO 
 Maximum Displacement     0.736254     0.001800     NO 
 RMS     Displacement     0.182659     0.001200     NO 
 Predicted change in Energy=-2.896852D-02
 Lowest energy point so far.  Saving SCF results.
 GradGradGradGradGradGradGradGradGradGradGradGradGradGradGradGradGradGrad

 Leave Link  103 at Fri May 23 04:54:29 2025, MaxMem=  3758096384 cpu:               0.1 elap:               0.0
 (Enter /apps/easybuild-2022/easybuild/software/Compiler/NVHPC/22.11-CUDA-11.7.0/Gaussian/g16c01-CUDA-11.7.0/g16/l202.exe)
                          Input orientation:                          
 ---------------------------------------------------------------------
 Center     Atomic      Atomic             Coordinates (Angstroms)
 Number     Number       Type             X           Y           Z
 ---------------------------------------------------------------------
      1          6           0       -0.328634   -1.264702    0.153196
      2          6           0        0.090666    0.054667    0.010853
      3          9           0       -0.163920    0.701495   -1.110235
      4          9           0       -0.099772    0.902659    1.014604
      5         16           0        2.428352   -0.133718   -0.008296
      6          8           0        2.809077   -0.418165    1.352003
      7          8           0        2.976301   -0.469379   -1.287080
      8          8           0        2.611872    1.510235   -0.022647
      9          9           0       -0.373232   -1.880865    1.265625
     10          9           0        1.755786   -1.822757   -0.087404
     11          9           0       -0.568887   -2.053729   -0.813489
     12          1           0        2.524891    1.967419    0.823580
 ---------------------------------------------------------------------
                    Distance matrix (angstroms):
                    1          2          3          4          5
     1  C    0.000000
     2  C    1.391693   0.000000
     3  F    2.342929   1.319105   0.000000
     4  F    2.343471   1.327732   2.135304   0.000000
     5  S    2.984322   2.345343   2.937979   2.917501   0.000000
     6  O    3.463957   3.067900   4.019323   3.212447   1.440928
     7  O    3.691819   3.207202   3.356070   4.079517   1.431155
     8  O    4.046947   2.911405   3.089001   2.966151   1.654228
     9  F    1.272456   2.352858   3.515267   2.808166   3.538964
    10  F    2.171203   2.511375   3.332161   3.476408   1.819741
    11  F    1.270733   2.357941   2.800591   3.507452   3.649413
    12  H    4.363328   3.200718   3.545689   2.838849   2.261884
                    6          7          8          9         10
     6  O    0.000000
     7  O    2.644871   0.000000
     8  O    2.376401   2.377072   0.000000
     9  F    3.503433   4.441617   4.697878   0.000000
    10  F    2.270285   2.181860   3.441790   2.523248   0.000000
    11  F    4.333020   3.911881   4.841952   2.095441   2.446355
    12  H    2.459879   3.255248   0.965755   4.837749   3.973268
                   11         12
    11  F    0.000000
    12  H    5.331144   0.000000
 Symmetry turned off by external request.
 Stoichiometry    C2HF5O3S
 Rotational constants (GHZ):           1.3931385           0.8691405           0.7653740
 Leave Link  202 at Fri May 23 04:54:29 2025, MaxMem=  3758096384 cpu:               0.1 elap:               0.0
 (Enter /apps/easybuild-2022/easybuild/software/Compiler/NVHPC/22.11-CUDA-11.7.0/Gaussian/g16c01-CUDA-11.7.0/g16/l301.exe)
 Standard basis: 6-311++G(d,p) (5D, 7F)
 Ernie: Thresh=  0.10000D-02 Tol=  0.10000D-05 Strict=F.
   257 basis functions,   419 primitive gaussians,   268 cartesian basis functions
    49 alpha electrons       49 beta electrons
       nuclear repulsion energy       912.7092047726 Hartrees.
 IExCor= 4639 DFT=T Ex+Corr=wB97XD ExCW=0 ScaHFX=  1.000000
 ScaDFX=  1.000000  1.000000  1.000000  1.000000 ScalE2=  1.000000  1.000000
 IRadAn=      5 IRanWt=     -1 IRanGd=            0 ICorTp=0 IEmpDi=121
 HFx  wShort=  0.000000 wLong=  0.200000 cFull=  0.222036 cShort=  0.000000 cLong=  0.777964
 DFx  wShort=  0.000000 wLong=  0.200000 cFull=  0.000000 cShort=  0.000000 cLong=  1.000000
 NAtoms=   12 NActive=   12 NUniq=   12 SFac= 1.00D+00 NAtFMM=   60 NAOKFM=F Big=F
 Integral buffers will be    131072 words long.
 Raffenetti 2 integral format.
 Two-electron integral symmetry is turned off.
 R6Disp:  Grimme-D2 Dispersion energy=       -0.0057765818 Hartrees.
 Nuclear repulsion after empirical dispersion term =      912.7034281908 Hartrees.
 Leave Link  301 at Fri May 23 04:54:29 2025, MaxMem=  3758096384 cpu:               0.1 elap:               0.0
 (Enter /apps/easybuild-2022/easybuild/software/Compiler/NVHPC/22.11-CUDA-11.7.0/Gaussian/g16c01-CUDA-11.7.0/g16/l302.exe)
 NPDir=0 NMtPBC=     1 NCelOv=     1 NCel=       1 NClECP=     1 NCelD=      1
         NCelK=      1 NCelE2=     1 NClLst=     1 CellRange=     0.0.
 One-electron integrals computed using PRISM.
 NBasis=   257 RedAO= T EigKep=  4.69D-05  NBF=   257
 NBsUse=   257 1.00D-06 EigRej= -1.00D+00 NBFU=   257
 Precomputing XC quadrature grid using
 IXCGrd= 4 IRadAn=           5 IRanWt=          -1 IRanGd=           0 AccXCQ= 0.00D+00.
 Generated NRdTot=       0 NPtTot=           0 NUsed=           0 NTot=          32
 NSgBfM=   268   268   268   268   268 MxSgAt=    12 MxSgA2=    12.
 Leave Link  302 at Fri May 23 04:54:29 2025, MaxMem=  3758096384 cpu:               0.5 elap:               0.2
 (Enter /apps/easybuild-2022/easybuild/software/Compiler/NVHPC/22.11-CUDA-11.7.0/Gaussian/g16c01-CUDA-11.7.0/g16/l303.exe)
 DipDrv:  MaxL=1.
 Leave Link  303 at Fri May 23 04:54:29 2025, MaxMem=  3758096384 cpu:               0.1 elap:               0.0
 (Enter /apps/easybuild-2022/easybuild/software/Compiler/NVHPC/22.11-CUDA-11.7.0/Gaussian/g16c01-CUDA-11.7.0/g16/l401.exe)
 Initial guess from the checkpoint file:  "/tmp/Gau-273212.chk"
 B after Tr=     0.075962    0.039235    0.018275
         Rot=    0.999927   -0.000466   -0.004091    0.011400 Ang=  -1.39 deg.
 Guess basis will be translated and rotated to current coordinates.
 JPrj=2 DoOrth=T DoCkMO=T.
 Generating alternative initial guess.
 ExpMin= 3.60D-02 ExpMax= 9.34D+04 ExpMxC= 3.17D+03 IAcc=3 IRadAn=         5 AccDes= 0.00D+00
 Harris functional with IExCor= 4639 and IRadAn=       5 diagonalized for initial guess.
 HarFok:  IExCor= 4639 AccDes= 0.00D+00 IRadAn=         5 IDoV= 1 UseB2=F ITyADJ=14
 ICtDFT=  3500011 ScaDFX=  1.000000  1.000000  1.000000  1.000000
 FoFCou: FMM=F IPFlag=           0 FMFlag=      100000 FMFlg1=           0
         NFxFlg=           0 DoJE=T BraDBF=F KetDBF=T FulRan=T
         wScrn=  0.000000 ICntrl=       500 IOpCl=  0 I1Cent=   200000004 NGrid=           0
         NMat0=    1 NMatS0=      1 NMatT0=    0 NMatD0=    1 NMtDS0=    0 NMtDT0=    0
 Symmetry not used in FoFCou.
 Harris En= -1167.00370793420    
 Leave Link  401 at Fri May 23 04:54:29 2025, MaxMem=  3758096384 cpu:               2.4 elap:               0.5
 (Enter /apps/easybuild-2022/easybuild/software/Compiler/NVHPC/22.11-CUDA-11.7.0/Gaussian/g16c01-CUDA-11.7.0/g16/l502.exe)
 Keep R1 ints in memory in canonical form, NReq=1117474609.
 FoFCou: FMM=F IPFlag=           0 FMFlag=           0 FMFlg1=           0
         NFxFlg=           0 DoJE=F BraDBF=F KetDBF=F FulRan=T
         wScrn=  0.000000 ICntrl=       600 IOpCl=  0 I1Cent=           0 NGrid=           0
         NMat0=    1 NMatS0=  33153 NMatT0=    0 NMatD0=    1 NMtDS0=    0 NMtDT0=    0
 Symmetry not used in FoFCou.
 Two-electron integral symmetry not used.
 Closed shell SCF:
 Using DIIS extrapolation, IDIIS=  1040.
 NGot=  3758096384 LenX=  2658793876 LenY=  2658721611
 Requested convergence on RMS density matrix=1.00D-08 within  32 cycles.
 Requested convergence on MAX density matrix=1.00D-06.
 Requested convergence on             energy=1.00D-06.
 No special actions if energy rises.

 Cycle   1  Pass 1  IDiag  1:
 E= -1199.58255358253    
 DIIS: error= 7.14D-03 at cycle   1 NSaved=   1.
 NSaved= 1 IEnMin= 1 EnMin= -1199.58255358253     IErMin= 1 ErrMin= 7.14D-03
 ErrMax= 7.14D-03  0.00D+00 EMaxC= 1.00D-01 BMatC= 3.15D-02 BMatP= 3.15D-02
 IDIUse=3 WtCom= 9.29D-01 WtEn= 7.14D-02
 Coeff-Com:  0.100D+01
 Coeff-En:   0.100D+01
 Coeff:      0.100D+01
 Gap=     0.698 Goal=   None    Shift=    0.000
 GapD=    0.698 DampG=2.000 DampE=1.000 DampFc=2.0000 IDamp=-1.
 RMSDP=2.79D-03 MaxDP=1.21D-01              OVMax= 6.15D-02

 Cycle   2  Pass 1  IDiag  1:
 E= -1199.63202937107     Delta-E=       -0.049475788536 Rises=F Damp=F
 DIIS: error= 1.84D-03 at cycle   2 NSaved=   2.
 NSaved= 2 IEnMin= 2 EnMin= -1199.63202937107     IErMin= 2 ErrMin= 1.84D-03
 ErrMax= 1.84D-03  0.00D+00 EMaxC= 1.00D-01 BMatC= 2.32D-03 BMatP= 3.15D-02
 IDIUse=3 WtCom= 9.82D-01 WtEn= 1.84D-02
 Coeff-Com: -0.653D-01 0.107D+01
 Coeff-En:   0.000D+00 0.100D+01
 Coeff:     -0.641D-01 0.106D+01
 Gap=     0.267 Goal=   None    Shift=    0.000
 RMSDP=8.62D-04 MaxDP=5.04D-02 DE=-4.95D-02 OVMax= 2.68D-02

 Cycle   3  Pass 1  IDiag  1:
 E= -1199.63493366223     Delta-E=       -0.002904291162 Rises=F Damp=F
 DIIS: error= 1.89D-03 at cycle   3 NSaved=   3.
 NSaved= 3 IEnMin= 3 EnMin= -1199.63493366223     IErMin= 2 ErrMin= 1.84D-03
 ErrMax= 1.89D-03  0.00D+00 EMaxC= 1.00D-01 BMatC= 2.50D-03 BMatP= 2.32D-03
 IDIUse=3 WtCom= 9.81D-01 WtEn= 1.89D-02
 Coeff-Com: -0.964D-01 0.588D+00 0.508D+00
 Coeff-En:   0.000D+00 0.000D+00 0.100D+01
 Coeff:     -0.946D-01 0.577D+00 0.518D+00
 Gap=     0.267 Goal=   None    Shift=    0.000
 RMSDP=2.40D-04 MaxDP=7.41D-03 DE=-2.90D-03 OVMax= 1.51D-02

 Cycle   4  Pass 1  IDiag  1:
 E= -1199.63690471175     Delta-E=       -0.001971049522 Rises=F Damp=F
 DIIS: error= 4.70D-04 at cycle   4 NSaved=   4.
 NSaved= 4 IEnMin= 4 EnMin= -1199.63690471175     IErMin= 4 ErrMin= 4.70D-04
 ErrMax= 4.70D-04  0.00D+00 EMaxC= 1.00D-01 BMatC= 1.38D-04 BMatP= 2.32D-03
 IDIUse=3 WtCom= 9.95D-01 WtEn= 4.70D-03
 Coeff-Com: -0.442D-02-0.720D-01 0.132D+00 0.945D+00
 Coeff-En:   0.000D+00 0.000D+00 0.000D+00 0.100D+01
 Coeff:     -0.439D-02-0.716D-01 0.131D+00 0.945D+00
 Gap=     0.267 Goal=   None    Shift=    0.000
 RMSDP=2.39D-04 MaxDP=1.57D-02 DE=-1.97D-03 OVMax= 1.14D-02

 Cycle   5  Pass 1  IDiag  1:
 E= -1199.63723772920     Delta-E=       -0.000333017450 Rises=F Damp=F
 DIIS: error= 3.03D-04 at cycle   5 NSaved=   5.
 NSaved= 5 IEnMin= 5 EnMin= -1199.63723772920     IErMin= 5 ErrMin= 3.03D-04
 ErrMax= 3.03D-04  0.00D+00 EMaxC= 1.00D-01 BMatC= 3.24D-05 BMatP= 1.38D-04
 IDIUse=3 WtCom= 9.97D-01 WtEn= 3.03D-03
 Coeff-Com:  0.992D-02-0.106D+00 0.996D-02 0.445D+00 0.641D+00
 Coeff-En:   0.000D+00 0.000D+00 0.000D+00 0.000D+00 0.100D+01
 Coeff:      0.989D-02-0.106D+00 0.993D-02 0.444D+00 0.642D+00
 Gap=     0.267 Goal=   None    Shift=    0.000
 RMSDP=7.11D-05 MaxDP=3.52D-03 DE=-3.33D-04 OVMax= 4.92D-03

 Cycle   6  Pass 1  IDiag  1:
 E= -1199.63732113068     Delta-E=       -0.000083401478 Rises=F Damp=F
 DIIS: error= 2.31D-04 at cycle   6 NSaved=   6.
 NSaved= 6 IEnMin= 6 EnMin= -1199.63732113068     IErMin= 6 ErrMin= 2.31D-04
 ErrMax= 2.31D-04  0.00D+00 EMaxC= 1.00D-01 BMatC= 7.99D-06 BMatP= 3.24D-05
 IDIUse=3 WtCom= 9.98D-01 WtEn= 2.31D-03
 Coeff-Com:  0.522D-02-0.182D-01-0.395D-01-0.181D+00 0.258D+00 0.975D+00
 Coeff-En:   0.000D+00 0.000D+00 0.000D+00 0.000D+00 0.000D+00 0.100D+01
 Coeff:      0.521D-02-0.182D-01-0.395D-01-0.180D+00 0.258D+00 0.975D+00
 Gap=     0.267 Goal=   None    Shift=    0.000
 RMSDP=7.13D-05 MaxDP=3.01D-03 DE=-8.34D-05 OVMax= 6.18D-03

 Cycle   7  Pass 1  IDiag  1:
 E= -1199.63736834726     Delta-E=       -0.000047216578 Rises=F Damp=F
 DIIS: error= 7.96D-05 at cycle   7 NSaved=   7.
 NSaved= 7 IEnMin= 7 EnMin= -1199.63736834726     IErMin= 7 ErrMin= 7.96D-05
 ErrMax= 7.96D-05  0.00D+00 EMaxC= 1.00D-01 BMatC= 1.52D-06 BMatP= 7.99D-06
 IDIUse=1 WtCom= 1.00D+00 WtEn= 0.00D+00
 Coeff-Com: -0.103D-02 0.207D-01-0.941D-02-0.157D+00-0.114D+00 0.226D+00
 Coeff-Com:  0.103D+01
 Coeff:     -0.103D-02 0.207D-01-0.941D-02-0.157D+00-0.114D+00 0.226D+00
 Coeff:      0.103D+01
 Gap=     0.266 Goal=   None    Shift=    0.000
 RMSDP=3.73D-05 MaxDP=1.00D-03 DE=-4.72D-05 OVMax= 3.31D-03

 Cycle   8  Pass 1  IDiag  1:
 E= -1199.63737816140     Delta-E=       -0.000009814138 Rises=F Damp=F
 DIIS: error= 3.83D-05 at cycle   8 NSaved=   8.
 NSaved= 8 IEnMin= 8 EnMin= -1199.63737816140     IErMin= 8 ErrMin= 3.83D-05
 ErrMax= 3.83D-05  0.00D+00 EMaxC= 1.00D-01 BMatC= 4.33D-07 BMatP= 1.52D-06
 IDIUse=1 WtCom= 1.00D+00 WtEn= 0.00D+00
 Coeff-Com: -0.153D-02 0.151D-01 0.321D-02-0.540D-01-0.108D+00-0.221D-01
 Coeff-Com:  0.521D+00 0.647D+00
 Coeff:     -0.153D-02 0.151D-01 0.321D-02-0.540D-01-0.108D+00-0.221D-01
 Coeff:      0.521D+00 0.647D+00
 Gap=     0.266 Goal=   None    Shift=    0.000
 RMSDP=9.69D-06 MaxDP=2.93D-04 DE=-9.81D-06 OVMax= 8.23D-04

 Cycle   9  Pass 1  IDiag  1:
 E= -1199.63737905066     Delta-E=       -0.000000889266 Rises=F Damp=F
 DIIS: error= 1.22D-05 at cycle   9 NSaved=   9.
 NSaved= 9 IEnMin= 9 EnMin= -1199.63737905066     IErMin= 9 ErrMin= 1.22D-05
 ErrMax= 1.22D-05  0.00D+00 EMaxC= 1.00D-01 BMatC= 5.78D-08 BMatP= 4.33D-07
 IDIUse=1 WtCom= 1.00D+00 WtEn= 0.00D+00
 Coeff-Com: -0.308D-03 0.120D-02 0.298D-02 0.893D-02-0.218D-01-0.342D-01
 Coeff-Com: -0.306D-01 0.234D+00 0.840D+00
 Coeff:     -0.308D-03 0.120D-02 0.298D-02 0.893D-02-0.218D-01-0.342D-01
 Coeff:     -0.306D-01 0.234D+00 0.840D+00
 Gap=     0.266 Goal=   None    Shift=    0.000
 RMSDP=3.99D-06 MaxDP=1.10D-04 DE=-8.89D-07 OVMax= 3.03D-04

 Cycle  10  Pass 1  IDiag  1:
 E= -1199.63737917423     Delta-E=       -0.000000123565 Rises=F Damp=F
 DIIS: error= 3.38D-06 at cycle  10 NSaved=  10.
 NSaved=10 IEnMin=10 EnMin= -1199.63737917423     IErMin=10 ErrMin= 3.38D-06
 ErrMax= 3.38D-06  0.00D+00 EMaxC= 1.00D-01 BMatC= 5.46D-09 BMatP= 5.78D-08
 IDIUse=1 WtCom= 1.00D+00 WtEn= 0.00D+00
 Coeff-Com:  0.824D-04-0.153D-02 0.493D-03 0.980D-02 0.671D-02-0.372D-02
 Coeff-Com: -0.905D-01 0.355D-02 0.234D+00 0.841D+00
 Coeff:      0.824D-04-0.153D-02 0.493D-03 0.980D-02 0.671D-02-0.372D-02
 Coeff:     -0.905D-01 0.355D-02 0.234D+00 0.841D+00
 Gap=     0.266 Goal=   None    Shift=    0.000
 RMSDP=1.57D-06 MaxDP=6.30D-05 DE=-1.24D-07 OVMax= 1.27D-04

 Cycle  11  Pass 1  IDiag  1:
 E= -1199.63737918998     Delta-E=       -0.000000015753 Rises=F Damp=F
 DIIS: error= 1.38D-06 at cycle  11 NSaved=  11.
 NSaved=11 IEnMin=11 EnMin= -1199.63737918998     IErMin=11 ErrMin= 1.38D-06
 ErrMax= 1.38D-06  0.00D+00 EMaxC= 1.00D-01 BMatC= 1.24D-09 BMatP= 5.46D-09
 IDIUse=1 WtCom= 1.00D+00 WtEn= 0.00D+00
 Coeff-Com:  0.645D-04-0.641D-03-0.232D-03 0.218D-02 0.482D-02 0.446D-02
 Coeff-Com: -0.274D-01-0.195D-01-0.406D-01 0.310D+00 0.767D+00
 Coeff:      0.645D-04-0.641D-03-0.232D-03 0.218D-02 0.482D-02 0.446D-02
 Coeff:     -0.274D-01-0.195D-01-0.406D-01 0.310D+00 0.767D+00
 Gap=     0.266 Goal=   None    Shift=    0.000
 RMSDP=4.96D-07 MaxDP=1.75D-05 DE=-1.58D-08 OVMax= 3.50D-05

 Cycle  12  Pass 1  IDiag  1:
 E= -1199.63737919305     Delta-E=       -0.000000003071 Rises=F Damp=F
 DIIS: error= 8.75D-07 at cycle  12 NSaved=  12.
 NSaved=12 IEnMin=12 EnMin= -1199.63737919305     IErMin=12 ErrMin= 8.75D-07
 ErrMax= 8.75D-07  0.00D+00 EMaxC= 1.00D-01 BMatC= 2.66D-10 BMatP= 1.24D-09
 IDIUse=1 WtCom= 1.00D+00 WtEn= 0.00D+00
 Coeff-Com:  0.322D-05 0.149D-03-0.220D-03-0.169D-02 0.732D-04 0.338D-02
 Coeff-Com:  0.987D-02-0.602D-02-0.790D-01-0.827D-01 0.267D+00 0.889D+00
 Coeff:      0.322D-05 0.149D-03-0.220D-03-0.169D-02 0.732D-04 0.338D-02
 Coeff:      0.987D-02-0.602D-02-0.790D-01-0.827D-01 0.267D+00 0.889D+00
 Gap=     0.266 Goal=   None    Shift=    0.000
 RMSDP=3.86D-07 MaxDP=1.93D-05 DE=-3.07D-09 OVMax= 3.27D-05

 Cycle  13  Pass 1  IDiag  1:
 E= -1199.63737919411     Delta-E=       -0.000000001059 Rises=F Damp=F
 DIIS: error= 4.74D-07 at cycle  13 NSaved=  13.
 NSaved=13 IEnMin=13 EnMin= -1199.63737919411     IErMin=13 ErrMin= 4.74D-07
 ErrMax= 4.74D-07  0.00D+00 EMaxC= 1.00D-01 BMatC= 8.03D-11 BMatP= 2.66D-10
 IDIUse=1 WtCom= 1.00D+00 WtEn= 0.00D+00
 Coeff-Com: -0.940D-05 0.176D-03-0.650D-04-0.119D-02-0.900D-03 0.980D-03
 Coeff-Com:  0.900D-02 0.103D-02-0.316D-01-0.868D-01-0.229D-01 0.436D+00
 Coeff-Com:  0.696D+00
 Coeff:     -0.940D-05 0.176D-03-0.650D-04-0.119D-02-0.900D-03 0.980D-03
 Coeff:      0.900D-02 0.103D-02-0.316D-01-0.868D-01-0.229D-01 0.436D+00
 Coeff:      0.696D+00
 Gap=     0.266 Goal=   None    Shift=    0.000
 RMSDP=1.54D-07 MaxDP=5.14D-06 DE=-1.06D-09 OVMax= 1.57D-05

 Cycle  14  Pass 1  IDiag  1:
 E= -1199.63737919439     Delta-E=       -0.000000000281 Rises=F Damp=F
 DIIS: error= 2.81D-07 at cycle  14 NSaved=  14.
 NSaved=14 IEnMin=14 EnMin= -1199.63737919439     IErMin=14 ErrMin= 2.81D-07
 ErrMax= 2.81D-07  0.00D+00 EMaxC= 1.00D-01 BMatC= 2.03D-11 BMatP= 8.03D-11
 IDIUse=1 WtCom= 1.00D+00 WtEn= 0.00D+00
 Coeff-Com: -0.399D-05 0.204D-04 0.371D-04 0.342D-04-0.385D-03-0.521D-03
 Coeff-Com:  0.615D-03 0.217D-02 0.101D-01-0.594D-02-0.111D+00-0.951D-01
 Coeff-Com:  0.328D+00 0.872D+00
 Coeff:     -0.399D-05 0.204D-04 0.371D-04 0.342D-04-0.385D-03-0.521D-03
 Coeff:      0.615D-03 0.217D-02 0.101D-01-0.594D-02-0.111D+00-0.951D-01
 Coeff:      0.328D+00 0.872D+00
 Gap=     0.266 Goal=   None    Shift=    0.000
 RMSDP=1.01D-07 MaxDP=4.04D-06 DE=-2.81D-10 OVMax= 1.02D-05

 Cycle  15  Pass 1  IDiag  1:
 E= -1199.63737919449     Delta-E=       -0.000000000095 Rises=F Damp=F
 DIIS: error= 1.25D-07 at cycle  15 NSaved=  15.
 NSaved=15 IEnMin=15 EnMin= -1199.63737919449     IErMin=15 ErrMin= 1.25D-07
 ErrMax= 1.25D-07  0.00D+00 EMaxC= 1.00D-01 BMatC= 3.12D-12 BMatP= 2.03D-11
 IDIUse=1 WtCom= 1.00D+00 WtEn= 0.00D+00
 Coeff-Com: -0.211D-06-0.216D-04 0.264D-04 0.233D-03 0.145D-04-0.406D-03
 Coeff-Com: -0.140D-02 0.922D-03 0.104D-01 0.143D-01-0.459D-01-0.113D+00
 Coeff-Com:  0.229D-01 0.295D+00 0.816D+00
 Coeff:     -0.211D-06-0.216D-04 0.264D-04 0.233D-03 0.145D-04-0.406D-03
 Coeff:     -0.140D-02 0.922D-03 0.104D-01 0.143D-01-0.459D-01-0.113D+00
 Coeff:      0.229D-01 0.295D+00 0.816D+00
 Gap=     0.266 Goal=   None    Shift=    0.000
 RMSDP=3.63D-08 MaxDP=1.21D-06 DE=-9.50D-11 OVMax= 3.48D-06

 Cycle  16  Pass 1  IDiag  1:
 E= -1199.63737919442     Delta-E=        0.000000000071 Rises=F Damp=F
 DIIS: error= 7.41D-08 at cycle  16 NSaved=  16.
 NSaved=16 IEnMin=15 EnMin= -1199.63737919449     IErMin=16 ErrMin= 7.41D-08
 ErrMax= 7.41D-08  0.00D+00 EMaxC= 1.00D-01 BMatC= 7.33D-13 BMatP= 3.12D-12
 IDIUse=1 WtCom= 1.00D+00 WtEn= 0.00D+00
 Coeff-Com:  0.163D-05-0.203D-04-0.118D-05 0.114D-03 0.146D-03-0.734D-04
 Coeff-Com: -0.933D-03-0.317D-03 0.132D-02 0.834D-02 0.143D-01-0.138D-01
 Coeff-Com: -0.809D-01-0.175D+00 0.280D+00 0.967D+00
 Coeff:      0.163D-05-0.203D-04-0.118D-05 0.114D-03 0.146D-03-0.734D-04
 Coeff:     -0.933D-03-0.317D-03 0.132D-02 0.834D-02 0.143D-01-0.138D-01
 Coeff:     -0.809D-01-0.175D+00 0.280D+00 0.967D+00
 Gap=     0.266 Goal=   None    Shift=    0.000
 RMSDP=2.12D-08 MaxDP=6.45D-07 DE= 7.14D-11 OVMax= 2.40D-06

 Cycle  17  Pass 1  IDiag  1:
 E= -1199.63737919453     Delta-E=       -0.000000000114 Rises=F Damp=F
 DIIS: error= 2.19D-08 at cycle  17 NSaved=  17.
 NSaved=17 IEnMin=17 EnMin= -1199.63737919453     IErMin=17 ErrMin= 2.19D-08
 ErrMax= 2.19D-08  0.00D+00 EMaxC= 1.00D-01 BMatC= 7.15D-14 BMatP= 7.33D-13
 IDIUse=1 WtCom= 1.00D+00 WtEn= 0.00D+00
 Coeff-Com: -0.532D-07 0.342D-05-0.390D-05-0.332D-04-0.282D-05 0.438D-04
 Coeff-Com:  0.237D-03-0.158D-03-0.127D-02-0.202D-02 0.544D-02 0.154D-01
 Coeff-Com:  0.174D-02-0.437D-01-0.124D+00-0.718D-02 0.116D+01
 Coeff:     -0.532D-07 0.342D-05-0.390D-05-0.332D-04-0.282D-05 0.438D-04
[...]
     18  0.225938D-02  0.376413D-02 -0.220843D+00  0.382941D-01 -0.447355D+00
     19  0.529579D-02  0.544019D-02 -0.937300D-01  0.270862D-01  0.122006D+00
     20  0.936667D-03  0.117851D-03  0.196738D-01 -0.903065D-01 -0.104744D+00
     21 -0.165351D-02 -0.147717D-02  0.956898D-01 -0.111469D+00 -0.588079D+00
     22 -0.416232D-02  0.477313D-03 -0.412943D-01 -0.131686D-01 -0.111058D-01
     23  0.105073D-01  0.771067D-02  0.516345D-01 -0.149957D+00  0.179084D-01
     24  0.515249D-02  0.383480D-02 -0.606052D-02 -0.116711D-01 -0.912677D-01
     25 -0.182631D-02 -0.183401D-02  0.416944D-03  0.152164D-01 -0.115923D-02
     26  0.165658D-02 -0.337604D-03  0.187815D-01 -0.128174D-01  0.140528D-02
     27  0.485897D-04  0.888903D-02 -0.242735D-01  0.677173D-02 -0.322748D-02
     28  0.538821D-03 -0.192394D-03 -0.553625D-01  0.628720D-01 -0.933691D-02
     29 -0.648706D-02 -0.858612D-02 -0.283910D-01 -0.183474D-01  0.392449D-03
     30  0.264178D-02  0.234016D-02 -0.703176D-03 -0.841001D-03 -0.456294D-01
     31 -0.348175D-02  0.115176D-02 -0.482578D-03  0.130917D-01 -0.298191D-02
     32 -0.848001D-02 -0.365354D-02  0.217639D-01 -0.137327D-01 -0.134987D-02
     33 -0.159037D-02 -0.115301D-02  0.225530D-01 -0.457630D-02 -0.451958D-02
     34  0.302659D-02  0.281400D-02  0.642147D-02  0.651666D-03  0.727388D-02
     35  0.428148D-03  0.857886D-03 -0.640334D-02 -0.219032D-01 -0.408625D-01
     36 -0.121190D-02 -0.194673D-02 -0.127306D-02 -0.207476D-03  0.459977D-02
               16            17            18            19            20 
     16  0.227616D+00
     17 -0.285813D-01  0.104763D+00
     18  0.276643D+00 -0.545201D-01  0.455242D+00
     19  0.134353D-01 -0.244457D-02 -0.211109D-01  0.771111D-01
     20  0.132095D-02  0.140853D-01  0.274975D-02 -0.248247D-01  0.114912D+00
     21  0.116458D-01 -0.640536D-02 -0.101345D-01 -0.134105D+00  0.120452D+00
     22  0.103557D-02  0.341650D-01 -0.197734D-01  0.874005D-02  0.110897D-01
     23  0.864299D-02 -0.243269D-01  0.133860D-01 -0.325910D-02 -0.180265D-01
     24 -0.173517D-01  0.362981D-01  0.286271D-03  0.108770D-01 -0.442940D-01
     25 -0.726427D-03 -0.222372D-02 -0.100198D-02  0.352136D-03 -0.188909D-02
     26 -0.222195D-02  0.179559D-02 -0.125957D-02 -0.311297D-02  0.195930D-02
     27  0.254486D-02 -0.843164D-03  0.228387D-02  0.360310D-02 -0.106100D-02
     28 -0.133588D-01 -0.380371D-01 -0.131727D-01  0.380868D-02 -0.231473D-01
     29 -0.141241D-01 -0.181283D-01 -0.228196D-02 -0.388885D-02 -0.108846D-01
     30 -0.170267D-01 -0.182059D-01  0.531617D-02  0.156828D-01  0.250286D-01
     31 -0.199989D-03 -0.216798D-02 -0.284207D-03  0.437509D-03 -0.153375D-02
     32 -0.209516D-02  0.194511D-02 -0.235779D-03 -0.357901D-02  0.247650D-02
     33 -0.195523D-02  0.267496D-03  0.625862D-04 -0.322824D-02  0.134909D-02
     34 -0.341177D-02 -0.912490D-03 -0.207225D-02 -0.546473D-03  0.593896D-02
     35 -0.223383D-02  0.626902D-02  0.249608D-02  0.240900D-02 -0.563613D-02
     36 -0.234543D-02  0.431773D-02 -0.408250D-02 -0.112616D-02  0.168232D-02
               21            22            23            24            25 
     21  0.616705D+00
     22  0.790381D-02  0.776158D-01
     23 -0.736053D-02 -0.208243D-02  0.288822D+00
     24 -0.102016D-01  0.105284D+00  0.150509D+00  0.538686D+00
     25  0.412181D-03  0.150613D-02  0.864797D-03 -0.935383D-04  0.723351D-01
     26  0.958005D-03 -0.515508D-02 -0.583992D-02 -0.612747D-03  0.621711D-01
     27 -0.488133D-03  0.548114D-02  0.686196D-02  0.125412D-02 -0.101956D+00
     28  0.153807D-01  0.126747D-01  0.731398D-02  0.173081D-02 -0.312759D-01
     29  0.528036D-02  0.226616D-02  0.152301D-02  0.153840D-02 -0.788680D-02
     30 -0.890333D-02  0.142754D-02  0.928531D-03  0.461145D-02  0.104105D-01
     31  0.122702D-02  0.139907D-02  0.114377D-02  0.275661D-03  0.108232D-01
     32  0.313577D-02 -0.570754D-02 -0.612347D-02 -0.416945D-03  0.554956D-02
     33  0.406473D-02 -0.490038D-02 -0.546151D-02 -0.378145D-03  0.258081D-02
     34  0.339668D-02 -0.212037D-01 -0.324143D-01 -0.907753D-01  0.533912D-04
     35  0.899385D-04 -0.214440D-01 -0.930481D-01 -0.131928D+00  0.303050D-03
     36  0.259574D-02 -0.821005D-01 -0.171454D+00 -0.447142D+00 -0.635719D-04
               26            27            28            29            30 
     26  0.164231D+00
     27 -0.166959D+00  0.412356D+00
     28  0.833886D-02  0.548518D-02  0.418954D-01
     29  0.129107D-01 -0.689571D-02 -0.736085D-02  0.852845D-01
     30 -0.230653D-02  0.209775D-02  0.526680D-02 -0.138275D-01  0.498420D-01
     31  0.682687D-02  0.914972D-02 -0.232425D-01 -0.735431D-02 -0.991061D-02
     32  0.235819D-01  0.751412D-02  0.749194D-02  0.128002D-01  0.635164D-03
     33 -0.181326D-01 -0.754348D-01 -0.864367D-02  0.432146D-02 -0.147270D-02
     34 -0.333610D-03  0.576272D-03 -0.516757D-04  0.457185D-03 -0.348261D-03
     35  0.265003D-03 -0.323139D-03  0.119352D-02  0.138170D-02  0.138320D-02
     36  0.125932D-02 -0.166381D-02 -0.188662D-02 -0.135739D-02 -0.284666D-03
               31            32            33            34            35 
     31  0.498837D-01
     32  0.476693D-01  0.210505D+00
     33  0.498679D-01  0.202957D+00  0.394342D+00
     34  0.225178D-03 -0.162822D-03 -0.252907D-03  0.221158D-01
     35  0.216522D-03  0.248593D-03  0.348447D-03  0.280254D-01  0.114167D+00
     36 -0.223889D-03  0.125554D-02  0.121263D-02  0.832971D-01  0.167336D+00
               36 
     36  0.444269D+00
 Red2BG is reusing G-inverse.
 Leave Link  716 at Fri May 23 05:03:08 2025, MaxMem=  3758096384 cpu:               0.1 elap:               0.0
 (Enter /apps/easybuild-2022/easybuild/software/Compiler/NVHPC/22.11-CUDA-11.7.0/Gaussian/g16c01-CUDA-11.7.0/g16/l9999.exe)

 ----------------------------------------------------------------------

 Electric dipole moment (input orientation):
 (Debye = 10**-18 statcoulomb cm , SI units = C m)
                  (au)            (Debye)         (10**-30 SI)
   Tot        0.172287D+01      0.437910D+01      0.146071D+02
   x         -0.155200D+01     -0.394479D+01     -0.131584D+02
   y          0.563849D+00      0.143316D+01      0.478051D+01
   z          0.491578D+00      0.124947D+01      0.416778D+01

 Dipole polarizability, Alpha (input orientation).
 (esu units = cm**3 , SI units = C**2 m**2 J**-1)
 Alpha(0;0):
               (au)            (10**-24 esu)      (10**-40 SI)
   iso        0.726092D+02      0.107596D+02      0.119716D+02
   aniso      0.381666D+02      0.565571D+01      0.629282D+01
   xx         0.920426D+02      0.136393D+02      0.151758D+02
   yx         0.134065D+02      0.198664D+01      0.221043D+01
   yy         0.676278D+02      0.100214D+02      0.111503D+02
   zx         0.311365D+00      0.461395D-01      0.513371D-01
   zy         0.259246D+00      0.384163D-01      0.427440D-01
   zz         0.581573D+02      0.861802D+01      0.958884D+01

 ----------------------------------------------------------------------

 Dipole orientation:
     6         -0.57083997         -2.30613181         -0.27602224
     6          0.16993304          0.22438350         -0.12818283
     9         -1.63115791          1.93462250          0.03602552
     9          2.14738088          0.73196056          1.32418743
    16          1.67832817          0.73837798         -4.37910917
     8          4.21315276          0.12984560         -5.16479170
     8         -0.54535610          1.22766796         -5.83812738
     8          2.13684937          3.50909795         -2.99024742
     9          0.81729480         -4.10368770          0.52752943
     9          0.92301367         -2.71222008         -3.93442162
     9         -2.79354804         -2.92814063         -0.95606279
     1          3.91029506          3.64255663         -2.58038926

 Electric dipole moment (dipole orientation):
 (Debye = 10**-18 statcoulomb cm , SI units = C m)
                  (au)            (Debye)         (10**-30 SI)
   Tot        0.172287D+01      0.437910D+01      0.146071D+02
   x          0.000000D+00      0.000000D+00      0.000000D+00
   y          0.000000D+00      0.000000D+00      0.000000D+00
   z          0.172287D+01      0.437910D+01      0.146071D+02

 Dipole polarizability, Alpha (dipole orientation).
 (esu units = cm**3 , SI units = C**2 m**2 J**-1)
 Alpha(0;0):
               (au)            (10**-24 esu)      (10**-40 SI)
   iso        0.726092D+02      0.107596D+02      0.119716D+02
   aniso      0.381666D+02      0.565571D+01      0.629282D+01
   xx         0.658420D+02      0.975678D+01      0.108559D+02
   yx         0.103138D+02      0.152834D+01      0.170051D+01
   yy         0.733332D+02      0.108669D+02      0.120910D+02
   zx        -0.118213D+02     -0.175173D+01     -0.194907D+01
   zy        -0.140722D+02     -0.208528D+01     -0.232019D+01
   zz         0.786524D+02      0.116551D+02      0.129680D+02

 ----------------------------------------------------------------------
 Unable to Open any file for archive entry.
 1\1\GINC-SPARTAN-BM197\Freq\RwB97XD\6-311++G(d,p)\C2H1F5O3S1\AKHALILOV
 \23-May-2025\0\\#P wb97xd/6-311++G(d,p) Symm(None) scf(xqc) pop(None) 
 opt(NoFreeze,TS,CalcAll,NoEigentest,MaxCycle=999)\\Gaussian input prep
 ared by ASE\\0,1\C,-0.2596959452,-1.2357490862,0.0855960568\C,0.121490
 5109,0.107270628,0.0227922247\F,-0.1005676162,0.7467005813,-1.10717376
 98\F,-0.1234689408,0.8450330982,1.0968165786\S,2.5045374734,-0.1965144
 244,0.0109826713\O,3.2997115985,-0.3200998903,1.2060812451\O,2.8256261
 368,-0.4817552476,-1.3540679745\O,2.2682273188,1.4436918753,-0.0405900
 41\F,-0.5901238006,-1.8000563048,1.1799497906\F,1.7263823749,-1.884996
 0563,0.3156638771\F,-0.44463807,-1.9250329031,-0.9689124187\H,2.435020
 8886,1.7946677163,0.843572916\\Version=ES64L-G16RevC.01\HF=-1199.66366
 96\RMSD=4.597e-09\RMSF=6.679e-07\ZeroPoint=0.0484816\Thermal=0.0593079
 \ETot=-1199.6043617\HTot=-1199.6034175\GTot=-1199.6526806\Dipole=-1.55
 20006,0.563849,0.4915785\DipoleDeriv=1.0192958,0.2044581,-0.049598,2.3
 912174,2.1155318,-0.030589,-0.1942995,-0.0319229,1.6315328,-1.1413476,
 -1.1799729,0.0765535,-1.6776117,0.3860226,0.0618099,0.0302785,0.007079
 ,1.2164621,-0.0956351,0.3005154,-0.176643,0.3879063,-0.3725606,0.26516
 16,-0.4466201,0.2888884,-0.6522313,-0.1235666,0.3146953,0.1398778,0.39
 69496,-0.4465921,-0.2973911,0.410243,-0.3146864,-0.6239238,3.3784086,0
 .6672085,0.0763341,-0.1695431,2.5073889,0.0253769,0.0787127,0.019922,2
 .0936274,-0.9049568,0.0058453,-0.2236681,0.024151,-0.5807193,-0.015386
 7,-0.3558377,0.0273637,-0.8240456,-0.8434192,-0.0632153,0.1021968,0.07
 3019,-0.5218993,-0.0721589,0.3314278,-0.0568933,-0.9031705,-0.8114501,
 -0.1397713,0.0069154,-0.5095963,-1.3189991,-0.0536484,-0.0486126,-0.17
 33356,-0.420336,-0.2289745,-0.0923318,0.1730593,-0.5841852,-0.5293454,
 0.3056039,0.7865089,0.4873876,-0.6926046,-0.385215,0.0257058,-0.004176
 4,0.2417446,-0.9641636,0.1089458,-0.0208107,0.1096579,-0.4379938,-0.14
 26028,-0.0628252,-0.1094671,-0.6119314,-0.6228743,-0.3347205,-0.648026
 ,-0.5080039,-0.6322516,0.2794633,0.0196882,-0.0113843,0.0378798,0.3482
 105,0.0369965,0.0770358,0.1445436,0.2449348\Polar=92.042571,13.4064951
 ,67.6277562,0.3113648,0.2592464,58.157263\PG=Unknown\NImag=1\\0.154515
 96,0.19723213,0.70285871,-0.04966154,0.01825188,0.74543608,-0.07039404
 ,0.08943673,-0.00783836,0.04346730,-0.09593570,-0.30496293,0.01027090,
 -0.06036051,0.72491419,0.00487805,0.01572354,-0.05364172,-0.00305770,-
 0.01660351,0.58147711,0.00067879,-0.03355056,0.00696203,-0.02626157,0.
 04694422,-0.05175092,0.04047171,0.01253560,-0.02512775,0.04527127,0.03
 568416,-0.15769100,0.13051313,-0.02708342,0.17042635,-0.00660781,0.014
 71685,-0.02645897,-0.04145097,0.13262549,-0.26154045,0.04602851,-0.164
 81996,0.34844472,-0.00081099,-0.03316945,-0.00172377,-0.03031764,0.053
 40437,0.05159260,0.00422194,-0.00644820,-0.00389248,0.04340502,0.01507
 976,-0.02905320,-0.04492289,0.03921783,-0.17554786,-0.12687119,-0.0064
 6780,0.02017851,0.00649675,-0.03388517,0.19410164,0.00692734,-0.013942
 85,-0.02222922,0.03914830,-0.13033504,-0.22275086,0.00580570,-0.014544
 57,-0.06439327,-0.04923322,0.16746285,0.30408462,-0.00808925,-0.107881
 02,0.00700509,0.06759014,0.07766264,-0.00332270,-0.00943867,-0.0137199
 8,0.01465884,-0.00697508,-0.01595834,-0.01395159,0.36725317,-0.0683585
 4,0.09094832,-0.01062426,-0.05458935,-0.02596463,0.00011961,0.01338635
 ,-0.00711608,0.00482192,0.01340602,-0.01019264,-0.00593702,-0.04336179
 ,0.33789885,0.00817700,-0.00583007,0.01270138,0.00809482,-0.00019606,-
 0.00358251,-0.01347170,0.00904311,-0.01440818,0.01060545,-0.00781198,-
 0.00896247,0.13052080,0.09531881,1.18973027,0.00266625,0.00885645,-0.0
 0029725,0.00261941,-0.00924973,-0.00241352,-0.00255517,0.00329488,-0.0
 0426831,-0.00081098,0.00262290,0.00344663,-0.22630936,0.03376789,-0.24
 862218,0.22761594,0.00977208,-0.01303867,0.00184218,0.00717989,0.00179
 468,0.00016985,-0.00136675,0.00139897,-0.00083440,-0.00158224,0.001951
 98,0.00118747,0.02619919,-0.07850979,0.03672617,-0.02858131,0.10476300
 ,0.00171954,0.00200054,-0.00316854,0.00254157,-0.00275062,-0.00290414,
 -0.00042128,-0.00013772,0.00068962,-0.00222434,0.00225938,0.00376413,-
 0.22084300,0.03829406,-0.44735530,0.27664298,-0.05452012,0.45524230,-0
 .00027402,0.01757907,-0.00137639,-0.00754436,-0.01323585,0.00584311,0.
 00131042,0.00197492,-0.00250525,-0.00310034,0.00529579,0.00544019,-0.0
 9373000,0.02708625,0.12200575,0.01343532,-0.00244457,-0.02111094,0.077
 11108,0.00832152,-0.01373503,0.00066863,0.00721926,0.00317408,-0.00134
 226,-0.00156817,0.00104432,-0.00060721,-0.00060123,0.00093667,0.000117
 85,0.01967378,-0.09030646,-0.10474374,0.00132095,0.01408534,0.00274975
 ,-0.02482468,0.11491246,-0.00292054,-0.00728449,-0.00452708,-0.0028059
 3,0.00783818,-0.00684011,0.00212851,-0.00358122,0.00728545,0.00204687,
 -0.00165351,-0.00147717,0.09568978,-0.11146902,-0.58807879,0.01164583,
 -0.00640536,-0.01013447,-0.13410494,0.12045190,0.61670475,-0.00756346,
 0.02885710,-0.00233353,-0.03261117,-0.02270234,0.00228533,0.00005403,-
 0.00195566,-0.00264590,-0.00035287,-0.00416232,0.00047731,-0.04129426,
 -0.01316861,-0.01110577,0.00103557,0.03416498,-0.01977343,0.00874005,0
 .01108974,0.00790381,0.07761581,-0.00461338,0.03420733,-0.00301760,-0.
 02848002,-0.04676092,-0.00223119,-0.00077629,0.00902342,-0.00778015,0.
 00202542,0.01050726,0.00771067,0.05163455,-0.14995682,0.01790844,0.008
 64299,-0.02432689,0.01338596,-0.00325910,-0.01802647,-0.00736053,-0.00
 208243,0.28882156,-0.00002708,0.00335133,-0.00166809,-0.00421338,-0.00
 533941,-0.00070376,0.00012371,-0.00258737,0.00268864,0.00023007,0.0051
 5249,0.00383480,-0.00606052,-0.01167105,-0.09126769,-0.01735172,0.0362
 9807,0.00028627,0.01087696,-0.04429396,-0.01020160,0.10528433,0.150509
 16,0.53868624,-0.06381161,-0.06090565,0.07790984,0.00862411,-0.0057123
 1,0.01539446,0.00303914,-0.00366106,-0.00059960,-0.00133621,-0.0018263
 1,-0.00183401,0.00041694,0.01521640,-0.00115923,-0.00072643,-0.0022237
 2,-0.00100198,0.00035214,-0.00188909,0.00041218,0.00150613,0.00086480,
 -0.00009354,0.07233513,-0.06006203,-0.16878819,0.14379396,-0.02966241,
 -0.01155155,0.03800431,-0.00144327,-0.00740326,0.00418739,0.00587300,0
 .00165658,-0.00033760,0.01878146,-0.01281744,0.00140528,-0.00222195,0.
 00179559,-0.00125957,-0.00311297,0.00195930,0.00095800,-0.00515508,-0.
 00583992,-0.00061275,0.06217114,0.16423133,0.06977341,0.14065517,-0.32
 541050,0.04332925,0.01235638,-0.01830639,-0.00427674,0.00187430,-0.002
 34943,-0.00943688,0.00004859,0.00888903,-0.02427348,0.00677173,-0.0032
 2748,0.00254486,-0.00084316,0.00228387,0.00360310,-0.00106100,-0.00048
 813,0.00548114,0.00686196,0.00125412,-0.10195584,-0.16695925,0.4123558
 1,0.04555059,-0.06510930,0.00930751,0.03646913,0.04502015,-0.00349022,
 -0.00929556,0.00088525,-0.00044854,-0.00781168,0.00053882,-0.00019239,
 -0.05536252,0.06287200,-0.00933691,-0.01335878,-0.03803708,-0.01317267
 ,0.00380868,-0.02314730,0.01538073,0.01267475,0.00731398,0.00173081,-0
 .03127590,0.00833886,0.00548518,0.04189545,0.03382630,-0.06647498,0.00
 800214,0.02642889,0.01310951,0.00419401,0.00378526,-0.00668727,0.00921
 983,0.00224211,-0.00648706,-0.00858612,-0.02839100,-0.01834738,0.00039
 245,-0.01412410,-0.01812835,-0.00228196,-0.00388885,-0.01088456,0.0052
 8036,0.00226616,0.00152301,0.00153840,-0.00788680,0.01291066,-0.006895
 71,-0.00736085,0.08528449,-0.00171572,0.00394727,-0.01308255,-0.001168
 48,0.00141680,0.00476894,0.00100821,-0.00080045,0.00039625,-0.00292293
 ,0.00264178,0.00234016,-0.00070318,-0.00084100,-0.04562945,-0.01702666
 ,-0.01820592,0.00531617,0.01568282,0.02502862,-0.00890333,0.00142754,0
 .00092853,0.00461145,0.01041047,-0.00230653,0.00209775,0.00526680,-0.0
 1382747,0.04984196,-0.05198111,-0.04404473,-0.03782093,0.01181339,-0.0
 0854160,-0.01141212,-0.00227263,-0.00182404,0.00096159,0.00359681,-0.0
 0348175,0.00115176,-0.00048258,0.01309172,-0.00298191,-0.00019999,-0.0
 0216798,-0.00028421,0.00043751,-0.00153375,0.00122702,0.00139907,0.001
 14377,0.00027566,0.01082316,0.00682687,0.00914972,-0.02324248,-0.00735
 431,-0.00991061,0.04988367,-0.04671185,-0.20639523,-0.16910854,-0.0300
 4932,-0.01889651,-0.04216526,0.00667234,0.00207056,0.00143272,-0.00084
 128,-0.00848001,-0.00365354,0.02176385,-0.01373274,-0.00134987,-0.0020
 9516,0.00194511,-0.00023578,-0.00357901,0.00247650,0.00313577,-0.00570
 754,-0.00612347,-0.00041694,0.00554956,0.02358191,0.00751412,0.0074919
 4,0.01280024,0.00063516,0.04766929,0.21050504,-0.03135353,-0.16474547,
 -0.30881291,-0.03758291,-0.01530611,-0.01685655,0.00833249,0.00056923,
 0.00894533,0.00458266,-0.00159037,-0.00115301,0.02255301,-0.00457630,-
 0.00451958,-0.00195523,0.00026750,0.00006259,-0.00322824,0.00134909,0.
 00406473,-0.00490038,-0.00546151,-0.00037814,0.00258081,-0.01813257,-0
 .07543484,-0.00864367,0.00432146,-0.00147270,0.04986791,0.20295661,0.3
 9434246,-0.00048710,0.00269923,-0.00013271,-0.00345471,-0.00729335,-0.
 00454636,0.00004757,0.00031755,0.00076991,0.00029201,0.00302659,0.0028
 1400,0.00642147,0.00065167,0.00727388,-0.00341177,-0.00091249,-0.00207
 225,-0.00054647,0.00593896,0.00339668,-0.02120365,-0.03241428,-0.09077
 531,0.00005339,-0.00033361,0.00057627,-0.00005168,0.00045719,-0.000348
 26,0.00022518,-0.00016282,-0.00025291,0.02211576,-0.00108590,-0.000438
 39,-0.00042768,-0.00202515,-0.00161707,0.00048895,0.00146810,-0.000116
 76,0.00054077,-0.00042336,0.00042815,0.00085789,-0.00640334,-0.0219032
 1,-0.04086253,-0.00223383,0.00626902,0.00249608,0.00240900,-0.00563613
 ,0.00008994,-0.02144399,-0.09304809,-0.13192798,0.00030305,0.00026500,
 -0.00032314,0.00119352,0.00138170,0.00138320,0.00021652,0.00024859,0.0
 0034845,0.02802537,0.11416718,0.00081089,-0.00684370,0.00086212,0.0050
 0379,0.00602301,0.00088043,-0.00046853,-0.00079976,0.00070029,0.000375
 98,-0.00121190,-0.00194673,-0.00127306,-0.00020748,0.00459977,-0.00234
 543,0.00431773,-0.00408250,-0.00112616,0.00168232,0.00259574,-0.082100
 45,-0.17145375,-0.44714224,-0.00006357,0.00125932,-0.00166381,-0.00188
 662,-0.00135739,-0.00028467,-0.00022389,0.00125554,0.00121263,0.083297
 05,0.16733606,0.44426896\\-0.00000014,0.00000033,0.,-0.00000027,-0.000
 00011,0.00000044,-0.00000024,0.00000042,0.00000137,0.00000032,-0.00000
 062,0.00000112,0.00000027,-0.00000024,0.00000018,0.00000044,-0.0000003
 0,-0.00000099,-0.00000077,0.00000155,-0.00000033,-0.00000065,-0.000000
 09,-0.00000028,0.00000073,-0.00000098,-0.00000030,0.00000093,0.0000003
 0,-0.00000161,-0.00000002,0.00000031,-0.00000043,-0.00000060,-0.000000
 55,0.00000081\\\@
 The archive entry for this job was punched.


 SUCCESS IS NEVER CERTAIN,
 FAILURE IS NEVER FINAL.
 Job cpu time:       0 days  1 hours 12 minutes 41.9 seconds.
 Elapsed time:       0 days  0 hours 10 minutes  5.0 seconds.
 File lengths (MBytes):  RWF=    104 Int=      0 D2E=      0 Chk=      6 Scr=      1
 Normal termination of Gaussian 16 at Fri May 23 05:03:08 2025.
done
