12
energy = -1199.5954203
C -1.62717300 0.10817500 0.99188500
C 0.16013900 0.51884000 0.40071100
F -0.09109900 0.11106500 -0.84751300
F 0.01735000 1.81777700 0.60260200
S 2.05093100 0.25126700 0.53138000
O 2.52217500 0.88420600 1.72315600
O 2.34235800 -1.11325000 0.18188500
O 2.50411700 1.19496100 -0.70137300
F -0.01031100 -0.49597900 1.70271500
F -2.17936900 0.65415200 2.01347700
F -2.22729700 -0.99363800 0.71998100
H 2.58860800 0.66045300 -1.50061500
