 Entering Gaussian System, Link 0=g16
 Initial command:
 /apps/easybuild-2022/easybuild/software/Compiler/NVHPC/22.11-CUDA-11.7.0/Gaussian/g16c01-CUDA-11.7.0/g16/l1.exe "/tmp/Gau-201555.inp" -scrdir="/tmp/"
 Entering Link 1 = /apps/easybuild-2022/easybuild/software/Compiler/NVHPC/22.11-CUDA-11.7.0/Gaussian/g16c01-CUDA-11.7.0/g16/l1.exe PID=    201617.
  
 Copyright (c) 1988-2019, Gaussian, Inc.  All Rights Reserved.
  
 This is part of the Gaussian(R) 16 program.  It is based on
 the Gaussian(R) 09 system (copyright 2009, Gaussian, Inc.),
 the Gaussian(R) 03 system (copyright 2003, Gaussian, Inc.),
 the Gaussian(R) 98 system (copyright 1998, Gaussian, Inc.),
 the Gaussian(R) 94 system (copyright 1995, Gaussian, Inc.),
 the Gaussian 92(TM) system (copyright 1992, Gaussian, Inc.),
 the Gaussian 90(TM) system (copyright 1990, Gaussian, Inc.),
 the Gaussian 88(TM) system (copyright 1988, Gaussian, Inc.),
 the Gaussian 86(TM) system (copyright 1986, Carnegie Mellon
 University), and the Gaussian 82(TM) system (copyright 1983,
 Carnegie Mellon University). Gaussian is a federally registered
 trademark of Gaussian, Inc.
  
 This software contains proprietary and confidential information,
 including trade secrets, belonging to Gaussian, Inc.
  
 This software is provided under written license and may be
 used, copied, transmitted, or stored only in accord with that
 written license.
  
 The following legend is applicable only to US Government
 contracts under FAR:
  
                    RESTRICTED RIGHTS LEGEND
  
 Use, reproduction and disclosure by the US Government is
 subject to restrictions as set forth in subparagraphs (a)
 and (c) of the Commercial Computer Software - Restricted
 Rights clause in FAR 52.227-19.
  
 Gaussian, Inc.
 340 Quinnipiac St., Bldg. 40, Wallingford CT 06492
  
  
 ---------------------------------------------------------------
 Warning -- This program may not be used in any manner that
 competes with the business of Gaussian, Inc. or will provide
 assistance to any competitor of Gaussian, Inc.  The licensee
 of this program is prohibited from giving any competitor of
 Gaussian, Inc. access to this program.  By using this program,
 the user acknowledges that Gaussian, Inc. is engaged in the
 business of creating and licensing software in the field of
 computational chemistry and represents and warrants to the
 licensee that it is not a competitor of Gaussian, Inc. and that
 it will not use this program in any manner prohibited above.
 ---------------------------------------------------------------
  

 Cite this work as:
 Gaussian 16, Revision C.01,
 M. J. Frisch, G. W. Trucks, H. B. Schlegel, G. E. Scuseria, 
 M. A. Robb, J. R. Cheeseman, G. Scalmani, V. Barone, 
 G. A. Petersson, H. Nakatsuji, X. Li, M. Caricato, A. V. Marenich, 
 J. Bloino, B. G. Janesko, R. Gomperts, B. Mennucci, H. P. Hratchian, 
 J. V. Ortiz, A. F. Izmaylov, J. L. Sonnenberg, D. Williams-Young, 
 F. Ding, F. Lipparini, F. Egidi, J. Goings, B. Peng, A. Petrone, 
 T. Henderson, D. Ranasinghe, V. G. Zakrzewski, J. Gao, N. Rega, 
 G. Zheng, W. Liang, M. Hada, M. Ehara, K. Toyota, R. Fukuda, 
 J. Hasegawa, M. Ishida, T. Nakajima, Y. Honda, O. Kitao, H. Nakai, 
 T. Vreven, K. Throssell, J. A. Montgomery, Jr., J. E. Peralta, 
 F. Ogliaro, M. J. Bearpark, J. J. Heyd, E. N. Brothers, K. N. Kudin, 
 V. N. Staroverov, T. A. Keith, R. Kobayashi, J. Normand, 
 K. Raghavachari, A. P. Rendell, J. C. Burant, S. S. Iyengar, 
 J. Tomasi, M. Cossi, J. M. Millam, M. Klene, C. Adamo, R. Cammi, 
 J. W. Ochterski, R. L. Martin, K. Morokuma, O. Farkas, 
 J. B. Foresman, and D. J. Fox, Gaussian, Inc., Wallingford CT, 2019.
 
 ******************************************
 Gaussian 16:  ES64L-G16RevC.01  3-Jul-2019
                23-May-2025 
 ******************************************
 %mem=28GB
 %nprocshared=8
 Will use up to    8 processors via shared memory.
 ----------------------------------------------------------------------
 #P wb97xd/6-311++G(d,p) Symm(None) scf(xqc) pop(None) freq opt(CalcFC,
  Tight)
 ----------------------------------------------------------------------
 1/7=10,10=4,18=20,19=15,26=3,38=1/1,3;
 2/9=110,12=2,15=3,17=6,18=5,40=1/2;
 3/5=4,6=6,7=1111,11=2,25=1,30=1,71=2,74=-58,140=1/1,2,3;
 4//1;
 5/5=2,8=3,13=1,38=5/2,8;
 8/6=4,10=90,11=11/1;
 11/6=1,8=1,9=11,15=111,16=1,31=1/1,2,10;
 10/6=1,13=1,31=1/2;
 7/10=1,25=1,30=1/1,2,3,16;
 1/7=10,10=4,18=20,19=15,26=3/3(2);
 2/9=110,15=3/2;
 99//99;
 2/9=110,15=3/2;
 3/5=4,6=6,7=1111,11=2,25=1,30=1,71=1,74=-58/1,2,3;
 4/5=5,16=3,69=1/1;
 5/5=2,8=3,13=1,38=5/2,8;
 7/30=1/1,2,3,16;
 1/7=10,18=20,19=15,26=3/3(-5);
 2/9=110,15=3/2;
 99/9=1/99;
 Leave Link    1 at Fri May 23 05:19:58 2025, MaxMem=  3758096384 cpu:               0.0 elap:               0.0
 (Enter /apps/easybuild-2022/easybuild/software/Compiler/NVHPC/22.11-CUDA-11.7.0/Gaussian/g16c01-CUDA-11.7.0/g16/l101.exe)
 ------------------------------
 Gaussian input prepared by ASE
 ------------------------------
 Symbolic Z-matrix:
 Charge =  0 Multiplicity = 1
 C                     5.13188   0.89505  -1.02709 
 C                     3.83776   0.99234  -0.1772 
 F                     3.55632  -0.20435   0.33115 
 F                     4.03911   1.87318   0.8089 
 S                     2.38057   1.65272  -1.23132 
 O                     0.96567   0.        0. 
 O                     2.21717   0.6545   -2.28539 
 O                     1.24224   1.39434   0. 
 F                     5.04922  -0.08936  -1.90711 
 F                     5.31561   2.047    -1.67961 
 F                     6.17775   0.68161  -0.23679 
 H                     0.        0.        0. 
 
 ITRead=  0  0  0  0  0  0  0  0  0  0  0  0
 MicOpt= -1 -1 -1 -1 -1 -1 -1 -1 -1 -1 -1 -1
 NAtoms=     12 NQM=       12 NQMF=       0 NMMI=      0 NMMIF=      0
                NMic=       0 NMicF=      0.
                    Isotopes and Nuclear Properties:
 (Nuclear quadrupole moments (NQMom) in fm**2, nuclear magnetic moments (NMagM)
  in nuclear magnetons)

  Atom         1           2           3           4           5           6           7           8           9          10
 IAtWgt=          12          12          19          19          32          16          16          16          19          19
 AtmWgt=  12.0000000  12.0000000  18.9984032  18.9984032  31.9720718  15.9949146  15.9949146  15.9949146  18.9984032  18.9984032
 NucSpn=           0           0           1           1           0           0           0           0           1           1
 AtZEff=  -0.0000000  -0.0000000  -0.0000000  -0.0000000  -0.0000000  -0.0000000  -0.0000000  -0.0000000  -0.0000000  -0.0000000
 NQMom=    0.0000000   0.0000000   0.0000000   0.0000000   0.0000000   0.0000000   0.0000000   0.0000000   0.0000000   0.0000000
 NMagM=    0.0000000   0.0000000   2.6288670   2.6288670   0.0000000   0.0000000   0.0000000   0.0000000   2.6288670   2.6288670
 AtZNuc=   6.0000000   6.0000000   9.0000000   9.0000000  16.0000000   8.0000000   8.0000000   8.0000000   9.0000000   9.0000000

  Atom        11          12
 IAtWgt=          19           1
 AtmWgt=  18.9984032   1.0078250
 NucSpn=           1           1
 AtZEff=  -0.0000000  -0.0000000
 NQMom=    0.0000000   0.0000000
 NMagM=    2.6288670   2.7928460
 AtZNuc=   9.0000000   1.0000000
 Leave Link  101 at Fri May 23 05:19:59 2025, MaxMem=  3758096384 cpu:               0.2 elap:               0.2
 (Enter /apps/easybuild-2022/easybuild/software/Compiler/NVHPC/22.11-CUDA-11.7.0/Gaussian/g16c01-CUDA-11.7.0/g16/l103.exe)

 GradGradGradGradGradGradGradGradGradGradGradGradGradGradGradGradGradGrad
 Berny optimization.
 Initialization pass.
                           ----------------------------
                           !    Initial Parameters    !
                           ! (Angstroms and Degrees)  !
 --------------------------                            --------------------------
 ! Name  Definition              Value          Derivative Info.                !
 --------------------------------------------------------------------------------
 ! R1    R(1,2)                  1.5513         calculate D2E/DX2 analytically  !
 ! R2    R(1,9)                  1.323          calculate D2E/DX2 analytically  !
 ! R3    R(1,10)                 1.3366         calculate D2E/DX2 analytically  !
 ! R4    R(1,11)                 1.3281         calculate D2E/DX2 analytically  !
 ! R5    R(2,3)                  1.3303         calculate D2E/DX2 analytically  !
 ! R6    R(2,4)                  1.3375         calculate D2E/DX2 analytically  !
 ! R7    R(2,5)                  1.9159         calculate D2E/DX2 analytically  !
 ! R8    R(5,7)                  1.4609         calculate D2E/DX2 analytically  !
 ! R9    R(5,8)                  1.6967         calculate D2E/DX2 analytically  !
 ! R10   R(6,8)                  1.4215         calculate D2E/DX2 analytically  !
 ! R11   R(6,12)                 0.9657         calculate D2E/DX2 analytically  !
 ! A1    A(2,1,9)              111.036          calculate D2E/DX2 analytically  !
 ! A2    A(2,1,10)             109.1519         calculate D2E/DX2 analytically  !
 ! A3    A(2,1,11)             109.9378         calculate D2E/DX2 analytically  !
 ! A4    A(9,1,10)             108.9736         calculate D2E/DX2 analytically  !
 ! A5    A(9,1,11)             108.9918         calculate D2E/DX2 analytically  !
 ! A6    A(10,1,11)            108.7087         calculate D2E/DX2 analytically  !
 ! A7    A(1,2,3)              109.2341         calculate D2E/DX2 analytically  !
 ! A8    A(1,2,4)              108.6414         calculate D2E/DX2 analytically  !
 ! A9    A(1,2,5)              110.7739         calculate D2E/DX2 analytically  !
 ! A10   A(3,2,4)              110.0321         calculate D2E/DX2 analytically  !
 ! A11   A(3,2,5)              111.0636         calculate D2E/DX2 analytically  !
 ! A12   A(4,2,5)              107.0466         calculate D2E/DX2 analytically  !
 ! A13   A(2,5,7)              104.2723         calculate D2E/DX2 analytically  !
 ! A14   A(2,5,8)               93.3541         calculate D2E/DX2 analytically  !
 ! A15   A(7,5,8)              110.1532         calculate D2E/DX2 analytically  !
 ! A16   A(8,6,12)             101.219          calculate D2E/DX2 analytically  !
 ! A17   A(5,8,6)              106.2548         calculate D2E/DX2 analytically  !
 ! D1    D(9,1,2,3)             51.6637         calculate D2E/DX2 analytically  !
 ! D2    D(9,1,2,4)            171.7024         calculate D2E/DX2 analytically  !
 ! D3    D(9,1,2,5)            -70.9841         calculate D2E/DX2 analytically  !
 ! D4    D(10,1,2,3)           171.8175         calculate D2E/DX2 analytically  !
 ! D5    D(10,1,2,4)           -68.1438         calculate D2E/DX2 analytically  !
 ! D6    D(10,1,2,5)            49.1698         calculate D2E/DX2 analytically  !
 ! D7    D(11,1,2,3)           -69.0272         calculate D2E/DX2 analytically  !
 ! D8    D(11,1,2,4)            51.0115         calculate D2E/DX2 analytically  !
 ! D9    D(11,1,2,5)           168.325          calculate D2E/DX2 analytically  !
 ! D10   D(1,2,5,7)             61.5066         calculate D2E/DX2 analytically  !
 ! D11   D(1,2,5,8)            173.2853         calculate D2E/DX2 analytically  !
 ! D12   D(3,2,5,7)            -60.0716         calculate D2E/DX2 analytically  !
 ! D13   D(3,2,5,8)             51.7071         calculate D2E/DX2 analytically  !
 ! D14   D(4,2,5,7)            179.7939         calculate D2E/DX2 analytically  !
 ! D15   D(4,2,5,8)            -68.4274         calculate D2E/DX2 analytically  !
 ! D16   D(2,5,8,6)            -77.5573         calculate D2E/DX2 analytically  !
 ! D17   D(7,5,8,6)             28.9758         calculate D2E/DX2 analytically  !
 ! D18   D(12,6,8,5)          -130.8922         calculate D2E/DX2 analytically  !
 --------------------------------------------------------------------------------
 Trust Radius=3.00D-01 FncErr=1.00D-07 GrdErr=1.00D-06 EigMax=2.50D+02 EigMin=1.00D-04
 Number of steps in this run=     56 maximum allowed number of steps=    100.
 GradGradGradGradGradGradGradGradGradGradGradGradGradGradGradGradGradGrad

 Leave Link  103 at Fri May 23 05:19:59 2025, MaxMem=  3758096384 cpu:               0.0 elap:               0.0
 (Enter /apps/easybuild-2022/easybuild/software/Compiler/NVHPC/22.11-CUDA-11.7.0/Gaussian/g16c01-CUDA-11.7.0/g16/l202.exe)
                          Input orientation:                          
 ---------------------------------------------------------------------
 Center     Atomic      Atomic             Coordinates (Angstroms)
 Number     Number       Type             X           Y           Z
 ---------------------------------------------------------------------
      1          6           0        5.131884    0.895048   -1.027090
      2          6           0        3.837761    0.992336   -0.177204
      3          9           0        3.556321   -0.204347    0.331149
      4          9           0        4.039111    1.873180    0.808901
      5         16           0        2.380569    1.652715   -1.231318
      6          8           0        0.965673    0.000000    0.000000
      7          8           0        2.217166    0.654499   -2.285391
      8          8           0        1.242239    1.394335    0.000000
      9          9           0        5.049215   -0.089356   -1.907112
     10          9           0        5.315607    2.046999   -1.679608
     11          9           0        6.177749    0.681605   -0.236790
     12          1           0        0.000000    0.000000    0.000000
 ---------------------------------------------------------------------
                    Distance matrix (angstroms):
                    1          2          3          4          5
     1  C    0.000000
     2  C    1.551298   0.000000
     3  F    2.352845   1.330294   0.000000
     4  F    2.349843   1.337472   2.185738   0.000000
     5  S    2.861032   1.915899   2.696735   2.638534   0.000000
     6  O    4.383302   3.043850   2.619709   3.689057   2.499908
     7  O    3.183829   2.680470   3.062227   3.792007   1.460892
     8  O    4.053830   2.632440   2.832035   2.950611   1.696673
     9  F    1.322998   2.372817   2.692910   3.499798   3.257788
    10  F    1.336609   2.356599   3.493821   2.802202   2.995142
    11  F    1.328143   2.361281   2.824774   2.662160   4.043602
    12  H    5.309638   3.967939   3.577546   4.525212   3.148765
                    6          7          8          9         10
     6  O    0.000000
     7  O    2.686562   0.000000
     8  O    1.421499   2.592461   0.000000
     9  F    4.507813   2.952443   4.509044   0.000000
    10  F    5.092466   3.450561   4.454142   2.164886   0.000000
    11  F    5.261786   4.459117   4.992325   2.158227   2.165482
    12  H    0.965673   3.250724   1.867439   5.398114   5.938600
                   11         12
    11  F    0.000000
    12  H    6.219746   0.000000
 Symmetry turned off by external request.
 Stoichiometry    C2HF5O3S
 Rotational constants (GHZ):           1.6772650           0.7531031           0.6928796
 Leave Link  202 at Fri May 23 05:19:59 2025, MaxMem=  3758096384 cpu:               0.0 elap:               0.0
 (Enter /apps/easybuild-2022/easybuild/software/Compiler/NVHPC/22.11-CUDA-11.7.0/Gaussian/g16c01-CUDA-11.7.0/g16/l301.exe)
 Standard basis: 6-311++G(d,p) (5D, 7F)
 Ernie: Thresh=  0.10000D-02 Tol=  0.10000D-05 Strict=F.
   257 basis functions,   419 primitive gaussians,   268 cartesian basis functions
    49 alpha electrons       49 beta electrons
       nuclear repulsion energy       896.6404524006 Hartrees.
 IExCor= 4639 DFT=T Ex+Corr=wB97XD ExCW=0 ScaHFX=  1.000000
 ScaDFX=  1.000000  1.000000  1.000000  1.000000 ScalE2=  1.000000  1.000000
 IRadAn=      5 IRanWt=     -1 IRanGd=            0 ICorTp=0 IEmpDi=121
 HFx  wShort=  0.000000 wLong=  0.200000 cFull=  0.222036 cShort=  0.000000 cLong=  0.777964
 DFx  wShort=  0.000000 wLong=  0.200000 cFull=  0.000000 cShort=  0.000000 cLong=  1.000000
 NAtoms=   12 NActive=   12 NUniq=   12 SFac= 1.00D+00 NAtFMM=   60 NAOKFM=F Big=F
 Integral buffers will be    131072 words long.
 Raffenetti 2 integral format.
 Two-electron integral symmetry is turned off.
 R6Disp:  Grimme-D2 Dispersion energy=       -0.0050828010 Hartrees.
 Nuclear repulsion after empirical dispersion term =      896.6353695995 Hartrees.
 Leave Link  301 at Fri May 23 05:19:59 2025, MaxMem=  3758096384 cpu:               0.0 elap:               0.0
 (Enter /apps/easybuild-2022/easybuild/software/Compiler/NVHPC/22.11-CUDA-11.7.0/Gaussian/g16c01-CUDA-11.7.0/g16/l302.exe)
 NPDir=0 NMtPBC=     1 NCelOv=     1 NCel=       1 NClECP=     1 NCelD=      1
         NCelK=      1 NCelE2=     1 NClLst=     1 CellRange=     0.0.
 One-electron integrals computed using PRISM.
 NBasis=   257 RedAO= T EigKep=  6.31D-05  NBF=   257
 NBsUse=   257 1.00D-06 EigRej= -1.00D+00 NBFU=   257
 Precomputing XC quadrature grid using
 IXCGrd= 4 IRadAn=           5 IRanWt=          -1 IRanGd=           0 AccXCQ= 0.00D+00.
 Generated NRdTot=       0 NPtTot=           0 NUsed=           0 NTot=          32
 NSgBfM=   268   268   268   268   268 MxSgAt=    12 MxSgA2=    12.
 Leave Link  302 at Fri May 23 05:19:59 2025, MaxMem=  3758096384 cpu:               0.5 elap:               0.1
 (Enter /apps/easybuild-2022/easybuild/software/Compiler/NVHPC/22.11-CUDA-11.7.0/Gaussian/g16c01-CUDA-11.7.0/g16/l303.exe)
 DipDrv:  MaxL=1.
 Leave Link  303 at Fri May 23 05:19:59 2025, MaxMem=  3758096384 cpu:               0.1 elap:               0.0
 (Enter /apps/easybuild-2022/easybuild/software/Compiler/NVHPC/22.11-CUDA-11.7.0/Gaussian/g16c01-CUDA-11.7.0/g16/l401.exe)
 ExpMin= 3.60D-02 ExpMax= 9.34D+04 ExpMxC= 3.17D+03 IAcc=3 IRadAn=         5 AccDes= 0.00D+00
 Harris functional with IExCor= 4639 and IRadAn=       5 diagonalized for initial guess.
 HarFok:  IExCor= 4639 AccDes= 0.00D+00 IRadAn=         5 IDoV= 1 UseB2=F ITyADJ=14
 ICtDFT=  3500011 ScaDFX=  1.000000  1.000000  1.000000  1.000000
 FoFCou: FMM=F IPFlag=           0 FMFlag=      100000 FMFlg1=           0
         NFxFlg=           0 DoJE=T BraDBF=F KetDBF=T FulRan=T
         wScrn=  0.000000 ICntrl=       500 IOpCl=  0 I1Cent=   200000004 NGrid=           0
         NMat0=    1 NMatS0=      1 NMatT0=    0 NMatD0=    1 NMtDS0=    0 NMtDT0=    0
 Symmetry not used in FoFCou.
 Harris En= -1167.05183295876    
 JPrj=0 DoOrth=F DoCkMO=F.
 Leave Link  401 at Fri May 23 05:19:59 2025, MaxMem=  3758096384 cpu:               2.4 elap:               0.3
 (Enter /apps/easybuild-2022/easybuild/software/Compiler/NVHPC/22.11-CUDA-11.7.0/Gaussian/g16c01-CUDA-11.7.0/g16/l502.exe)
 Keep R1 ints in memory in canonical form, NReq=1117474609.
 FoFCou: FMM=F IPFlag=           0 FMFlag=           0 FMFlg1=           0
         NFxFlg=           0 DoJE=F BraDBF=F KetDBF=F FulRan=T
         wScrn=  0.000000 ICntrl=       600 IOpCl=  0 I1Cent=           0 NGrid=           0
         NMat0=    1 NMatS0=  33153 NMatT0=    0 NMatD0=    1 NMtDS0=    0 NMtDT0=    0
 Symmetry not used in FoFCou.
 Two-electron integral symmetry not used.
 Closed shell SCF:
 Using DIIS extrapolation, IDIIS=  1040.
 NGot=  3758096384 LenX=  2658793876 LenY=  2658721611
 Requested convergence on RMS density matrix=1.00D-08 within  32 cycles.
 Requested convergence on MAX density matrix=1.00D-06.
 Requested convergence on             energy=1.00D-06.
 No special actions if energy rises.

 Cycle   1  Pass 1  IDiag  1:
 E= -1199.02634408121    
 DIIS: error= 1.30D-01 at cycle   1 NSaved=   1.
 NSaved= 1 IEnMin= 1 EnMin= -1199.02634408121     IErMin= 1 ErrMin= 1.30D-01
 ErrMax= 1.30D-01  0.00D+00 EMaxC= 1.00D-01 BMatC= 3.34D+00 BMatP= 3.34D+00
 IDIUse=3 WtCom= 0.00D+00 WtEn= 1.00D+00
 Coeff-Com:  0.100D+01
 Coeff-En:   0.100D+01
 Coeff:      0.100D+01
 Gap=     0.561 Goal=   None    Shift=    0.000
 GapD=    0.561 DampG=2.000 DampE=0.250 DampFc=0.5000 IDamp=-1.
 Damping current iteration by 5.00D-01
 RMSDP=5.99D-03 MaxDP=2.92D-01              OVMax= 2.45D-01

 Cycle   2  Pass 1  IDiag  1:
 E= -1199.37568005496     Delta-E=       -0.349335973745 Rises=F Damp=T
 DIIS: error= 5.64D-02 at cycle   2 NSaved=   2.
 NSaved= 2 IEnMin= 2 EnMin= -1199.37568005496     IErMin= 2 ErrMin= 5.64D-02
 ErrMax= 5.64D-02  0.00D+00 EMaxC= 1.00D-01 BMatC= 4.88D-01 BMatP= 3.34D+00
 IDIUse=3 WtCom= 4.36D-01 WtEn= 5.64D-01
 Coeff-Com: -0.367D+00 0.137D+01
 Coeff-En:   0.000D+00 0.100D+01
 Coeff:     -0.160D+00 0.116D+01
 Gap=     0.484 Goal=   None    Shift=    0.000
 RMSDP=2.57D-03 MaxDP=1.12D-01 DE=-3.49D-01 OVMax= 1.49D-01

 Cycle   3  Pass 1  IDiag  1:
 E= -1199.63875196945     Delta-E=       -0.263071914491 Rises=F Damp=F
 DIIS: error= 1.54D-02 at cycle   3 NSaved=   3.
 NSaved= 3 IEnMin= 3 EnMin= -1199.63875196945     IErMin= 3 ErrMin= 1.54D-02
 ErrMax= 1.54D-02  0.00D+00 EMaxC= 1.00D-01 BMatC= 1.39D-01 BMatP= 4.88D-01
 IDIUse=3 WtCom= 8.46D-01 WtEn= 1.54D-01
 Coeff-Com: -0.192D+00 0.584D+00 0.608D+00
 Coeff-En:   0.000D+00 0.000D+00 0.100D+01
 Coeff:     -0.162D+00 0.494D+00 0.668D+00
 Gap=     0.423 Goal=   None    Shift=    0.000
 RMSDP=2.25D-03 MaxDP=7.82D-02 DE=-2.63D-01 OVMax= 1.38D-01

 Cycle   4  Pass 1  IDiag  1:
 E= -1199.69812785607     Delta-E=       -0.059375886622 Rises=F Damp=F
 DIIS: error= 1.04D-02 at cycle   4 NSaved=   4.
 NSaved= 4 IEnMin= 4 EnMin= -1199.69812785607     IErMin= 4 ErrMin= 1.04D-02
 ErrMax= 1.04D-02  0.00D+00 EMaxC= 1.00D-01 BMatC= 5.01D-02 BMatP= 1.39D-01
 IDIUse=3 WtCom= 8.96D-01 WtEn= 1.04D-01
 Coeff-Com: -0.457D-01 0.118D+00 0.388D+00 0.539D+00
 Coeff-En:   0.000D+00 0.000D+00 0.295D+00 0.705D+00
 Coeff:     -0.409D-01 0.106D+00 0.379D+00 0.556D+00
 Gap=     0.389 Goal=   None    Shift=    0.000
 RMSDP=9.65D-04 MaxDP=3.39D-02 DE=-5.94D-02 OVMax= 5.51D-02

 Cycle   5  Pass 1  IDiag  1:
 E= -1199.73084441136     Delta-E=       -0.032716555290 Rises=F Damp=F
 DIIS: error= 2.17D-03 at cycle   5 NSaved=   5.
 NSaved= 5 IEnMin= 5 EnMin= -1199.73084441136     IErMin= 5 ErrMin= 2.17D-03
 ErrMax= 2.17D-03  0.00D+00 EMaxC= 1.00D-01 BMatC= 2.40D-03 BMatP= 5.01D-02
 IDIUse=3 WtCom= 9.78D-01 WtEn= 2.17D-02
 Coeff-Com: -0.766D-02 0.157D-01 0.153D+00 0.297D+00 0.543D+00
 Coeff-En:   0.000D+00 0.000D+00 0.000D+00 0.000D+00 0.100D+01
 Coeff:     -0.750D-02 0.154D-01 0.149D+00 0.290D+00 0.553D+00
 Gap=     0.380 Goal=   None    Shift=    0.000
 RMSDP=1.59D-04 MaxDP=4.17D-03 DE=-3.27D-02 OVMax= 5.65D-03

 Cycle   6  Pass 1  IDiag  1:
 E= -1199.73230926312     Delta-E=       -0.001464851760 Rises=F Damp=F
 DIIS: error= 2.60D-04 at cycle   6 NSaved=   6.
 NSaved= 6 IEnMin= 6 EnMin= -1199.73230926312     IErMin= 6 ErrMin= 2.60D-04
 ErrMax= 2.60D-04  0.00D+00 EMaxC= 1.00D-01 BMatC= 3.79D-05 BMatP= 2.40D-03
 IDIUse=3 WtCom= 9.97D-01 WtEn= 2.60D-03
 Coeff-Com:  0.256D-02-0.672D-02-0.867D-02 0.347D-02 0.109D+00 0.900D+00
 Coeff-En:   0.000D+00 0.000D+00 0.000D+00 0.000D+00 0.000D+00 0.100D+01
 Coeff:      0.255D-02-0.670D-02-0.865D-02 0.346D-02 0.109D+00 0.900D+00
 Gap=     0.380 Goal=   None    Shift=    0.000
 RMSDP=5.35D-05 MaxDP=1.77D-03 DE=-1.46D-03 OVMax= 2.22D-03

 Cycle   7  Pass 1  IDiag  1:
 E= -1199.73234821168     Delta-E=       -0.000038948565 Rises=F Damp=F
 DIIS: error= 1.07D-04 at cycle   7 NSaved=   7.
 NSaved= 7 IEnMin= 7 EnMin= -1199.73234821168     IErMin= 7 ErrMin= 1.07D-04
 ErrMax= 1.07D-04  0.00D+00 EMaxC= 1.00D-01 BMatC= 4.83D-06 BMatP= 3.79D-05
 IDIUse=3 WtCom= 9.99D-01 WtEn= 1.07D-03
 Coeff-Com:  0.129D-02-0.301D-02-0.107D-01-0.151D-01 0.241D-02 0.317D+00
 Coeff-Com:  0.708D+00
 Coeff-En:   0.000D+00 0.000D+00 0.000D+00 0.000D+00 0.000D+00 0.000D+00
 Coeff-En:   0.100D+01
 Coeff:      0.129D-02-0.301D-02-0.107D-01-0.151D-01 0.241D-02 0.317D+00
 Coeff:      0.708D+00
 Gap=     0.380 Goal=   None    Shift=    0.000
 RMSDP=1.57D-05 MaxDP=4.57D-04 DE=-3.89D-05 OVMax= 8.52D-04

 Cycle   8  Pass 1  IDiag  1:
 E= -1199.73235229410     Delta-E=       -0.000004082413 Rises=F Damp=F
 DIIS: error= 4.97D-05 at cycle   8 NSaved=   8.
 NSaved= 8 IEnMin= 8 EnMin= -1199.73235229410     IErMin= 8 ErrMin= 4.97D-05
 ErrMax= 4.97D-05  0.00D+00 EMaxC= 1.00D-01 BMatC= 1.15D-06 BMatP= 4.83D-06
 IDIUse=1 WtCom= 1.00D+00 WtEn= 0.00D+00
 Coeff-Com:  0.411D-03-0.862D-03-0.516D-02-0.988D-02-0.177D-01 0.361D-01
 Coeff-Com:  0.350D+00 0.647D+00
 Coeff:      0.411D-03-0.862D-03-0.516D-02-0.988D-02-0.177D-01 0.361D-01
 Coeff:      0.350D+00 0.647D+00
 Gap=     0.380 Goal=   None    Shift=    0.000
 RMSDP=7.50D-06 MaxDP=2.51D-04 DE=-4.08D-06 OVMax= 3.80D-04

 Cycle   9  Pass 1  IDiag  1:
 E= -1199.73235337155     Delta-E=       -0.000001077451 Rises=F Damp=F
 DIIS: error= 9.54D-06 at cycle   9 NSaved=   9.
 NSaved= 9 IEnMin= 9 EnMin= -1199.73235337155     IErMin= 9 ErrMin= 9.54D-06
 ErrMax= 9.54D-06  0.00D+00 EMaxC= 1.00D-01 BMatC= 7.73D-08 BMatP= 1.15D-06
 IDIUse=1 WtCom= 1.00D+00 WtEn= 0.00D+00
 Coeff-Com: -0.707D-04 0.176D-03-0.644D-04-0.820D-03-0.562D-02-0.309D-01
 Coeff-Com:  0.988D-02 0.198D+00 0.829D+00
 Coeff:     -0.707D-04 0.176D-03-0.644D-04-0.820D-03-0.562D-02-0.309D-01
 Coeff:      0.988D-02 0.198D+00 0.829D+00
 Gap=     0.380 Goal=   None    Shift=    0.000
 RMSDP=4.01D-06 MaxDP=1.22D-04 DE=-1.08D-06 OVMax= 2.70D-04

 Cycle  10  Pass 1  IDiag  1:
 E= -1199.73235352518     Delta-E=       -0.000000153635 Rises=F Damp=F
 DIIS: error= 5.58D-06 at cycle  10 NSaved=  10.
 NSaved=10 IEnMin=10 EnMin= -1199.73235352518     IErMin=10 ErrMin= 5.58D-06
 ErrMax= 5.58D-06  0.00D+00 EMaxC= 1.00D-01 BMatC= 1.96D-08 BMatP= 7.73D-08
 IDIUse=1 WtCom= 1.00D+00 WtEn= 0.00D+00
 Coeff-Com: -0.854D-04 0.187D-03 0.613D-03 0.102D-02 0.312D-03-0.177D-01
 Coeff-Com: -0.494D-01-0.275D-01 0.358D+00 0.734D+00
 Coeff:     -0.854D-04 0.187D-03 0.613D-03 0.102D-02 0.312D-03-0.177D-01
 Coeff:     -0.494D-01-0.275D-01 0.358D+00 0.734D+00
 Gap=     0.380 Goal=   None    Shift=    0.000
 RMSDP=1.70D-06 MaxDP=4.09D-05 DE=-1.54D-07 OVMax= 1.06D-04

 Cycle  11  Pass 1  IDiag  1:
 E= -1199.73235355737     Delta-E=       -0.000000032185 Rises=F Damp=F
 DIIS: error= 1.63D-06 at cycle  11 NSaved=  11.
 NSaved=11 IEnMin=11 EnMin= -1199.73235355737     IErMin=11 ErrMin= 1.63D-06
 ErrMax= 1.63D-06  0.00D+00 EMaxC= 1.00D-01 BMatC= 1.78D-09 BMatP= 1.96D-08
 IDIUse=1 WtCom= 1.00D+00 WtEn= 0.00D+00
 Coeff-Com: -0.119D-04 0.244D-04 0.136D-03 0.374D-03 0.114D-02 0.150D-02
 Coeff-Com: -0.112D-01-0.436D-01-0.586D-01 0.169D+00 0.942D+00
 Coeff:     -0.119D-04 0.244D-04 0.136D-03 0.374D-03 0.114D-02 0.150D-02
 Coeff:     -0.112D-01-0.436D-01-0.586D-01 0.169D+00 0.942D+00
 Gap=     0.380 Goal=   None    Shift=    0.000
 RMSDP=8.46D-07 MaxDP=2.07D-05 DE=-3.22D-08 OVMax= 5.75D-05

 Cycle  12  Pass 1  IDiag  1:
 E= -1199.73235356195     Delta-E=       -0.000000004581 Rises=F Damp=F
 DIIS: error= 6.08D-07 at cycle  12 NSaved=  12.
 NSaved=12 IEnMin=12 EnMin= -1199.73235356195     IErMin=12 ErrMin= 6.08D-07
 ErrMax= 6.08D-07  0.00D+00 EMaxC= 1.00D-01 BMatC= 3.72D-10 BMatP= 1.78D-09
 IDIUse=1 WtCom= 1.00D+00 WtEn= 0.00D+00
 Coeff-Com:  0.475D-05-0.105D-04-0.181D-04 0.125D-04 0.372D-03 0.239D-02
 Coeff-Com:  0.208D-02-0.116D-01-0.691D-01-0.158D-01 0.382D+00 0.710D+00
 Coeff:      0.475D-05-0.105D-04-0.181D-04 0.125D-04 0.372D-03 0.239D-02
 Coeff:      0.208D-02-0.116D-01-0.691D-01-0.158D-01 0.382D+00 0.710D+00
 Gap=     0.380 Goal=   None    Shift=    0.000
 RMSDP=2.11D-07 MaxDP=6.21D-06 DE=-4.58D-09 OVMax= 1.66D-05

 Cycle  13  Pass 1  IDiag  1:
 E= -1199.73235356250     Delta-E=       -0.000000000552 Rises=F Damp=F
 DIIS: error= 1.89D-07 at cycle  13 NSaved=  13.
 NSaved=13 IEnMin=13 EnMin= -1199.73235356250     IErMin=13 ErrMin= 1.89D-07
 ErrMax= 1.89D-07  0.00D+00 EMaxC= 1.00D-01 BMatC= 3.01D-11 BMatP= 3.72D-10
 IDIUse=1 WtCom= 1.00D+00 WtEn= 0.00D+00
 Coeff-Com:  0.344D-05-0.730D-05-0.193D-04-0.512D-04-0.102D-03 0.163D-03
 Coeff-Com:  0.203D-02 0.542D-02-0.501D-02-0.235D-01-0.846D-01 0.890D-01
 Coeff-Com:  0.102D+01
 Coeff:      0.344D-05-0.730D-05-0.193D-04-0.512D-04-0.102D-03 0.163D-03
 Coeff:      0.203D-02 0.542D-02-0.501D-02-0.235D-01-0.846D-01 0.890D-01
 Coeff:      0.102D+01
 Gap=     0.380 Goal=   None    Shift=    0.000
 RMSDP=1.03D-07 MaxDP=2.28D-06 DE=-5.52D-10 OVMax= 8.95D-06

 Cycle  14  Pass 1  IDiag  1:
 E= -1199.73235356266     Delta-E=       -0.000000000156 Rises=F Damp=F
 DIIS: error= 7.79D-08 at cycle  14 NSaved=  14.
 NSaved=14 IEnMin=14 EnMin= -1199.73235356266     IErMin=14 ErrMin= 7.79D-08
 ErrMax= 7.79D-08  0.00D+00 EMaxC= 1.00D-01 BMatC= 5.25D-12 BMatP= 3.01D-11
 IDIUse=1 WtCom= 1.00D+00 WtEn= 0.00D+00
 Coeff-Com:  0.978D-06-0.209D-05-0.653D-05-0.208D-04-0.752D-04-0.139D-03
 Coeff-Com:  0.649D-03 0.292D-02 0.428D-02-0.682D-02-0.649D-01-0.409D-01
 Coeff-Com:  0.352D+00 0.753D+00
 Coeff:      0.978D-06-0.209D-05-0.653D-05-0.208D-04-0.752D-04-0.139D-03
 Coeff:      0.649D-03 0.292D-02 0.428D-02-0.682D-02-0.649D-01-0.409D-01
 Coeff:      0.352D+00 0.753D+00
 Gap=     0.380 Goal=   None    Shift=    0.000
 RMSDP=2.76D-08 MaxDP=8.13D-07 DE=-1.56D-10 OVMax= 2.38D-06

 Cycle  15  Pass 1  IDiag  1:
 E= -1199.73235356274     Delta-E=       -0.000000000085 Rises=F Damp=F
 DIIS: error= 3.74D-08 at cycle  15 NSaved=  15.
 NSaved=15 IEnMin=15 EnMin= -1199.73235356274     IErMin=15 ErrMin= 3.74D-08
 ErrMax= 3.74D-08  0.00D+00 EMaxC= 1.00D-01 BMatC= 1.12D-12 BMatP= 5.25D-12
 IDIUse=1 WtCom= 1.00D+00 WtEn= 0.00D+00
 Coeff-Com: -0.272D-06 0.549D-06 0.544D-06 0.131D-05-0.122D-04-0.814D-04
 Coeff-Com: -0.746D-04 0.123D-04 0.237D-02 0.161D-02-0.849D-02-0.358D-01
 Coeff-Com: -0.587D-01 0.310D+00 0.789D+00
 Coeff:     -0.272D-06 0.549D-06 0.544D-06 0.131D-05-0.122D-04-0.814D-04
 Coeff:     -0.746D-04 0.123D-04 0.237D-02 0.161D-02-0.849D-02-0.358D-01
 Coeff:     -0.587D-01 0.310D+00 0.789D+00
 Gap=     0.380 Goal=   None    Shift=    0.000
 RMSDP=1.30D-08 MaxDP=4.06D-07 DE=-8.55D-11 OVMax= 1.04D-06

 Cycle  16  Pass 1  IDiag  1:
 E= -1199.73235356268     Delta-E=        0.000000000056 Rises=F Damp=F
 DIIS: error= 8.75D-09 at cycle  16 NSaved=  16.
 NSaved=16 IEnMin=15 EnMin= -1199.73235356274     IErMin=16 ErrMin= 8.75D-09
 ErrMax= 8.75D-09  0.00D+00 EMaxC= 1.00D-01 BMatC= 4.02D-14 BMatP= 1.12D-12
 IDIUse=1 WtCom= 1.00D+00 WtEn= 0.00D+00
 Coeff-Com: -0.150D-06 0.321D-06 0.745D-06 0.227D-05 0.495D-05-0.478D-05
 Coeff-Com: -0.686D-04-0.259D-03-0.621D-04 0.923D-03 0.472D-02-0.228D-02
 Coeff-Com: -0.353D-01-0.272D-01 0.834D-01 0.976D+00
 Coeff:     -0.150D-06 0.321D-06 0.745D-06 0.227D-05 0.495D-05-0.478D-05
 Coeff:     -0.686D-04-0.259D-03-0.621D-04 0.923D-03 0.472D-02-0.228D-02
 Coeff:     -0.353D-01-0.272D-01 0.834D-01 0.976D+00
 Gap=     0.380 Goal=   None    Shift=    0.000
 RMSDP=3.94D-09 MaxDP=1.21D-07 DE= 5.64D-11 OVMax= 2.79D-07

 SCF Done:  E(RwB97XD) =  -1199.73235356     A.U. after   16 cycles
            NFock= 16  Conv=0.39D-08     -V/T= 2.0019
 KE= 1.197417319886D+03 PE=-4.642057689727D+03 EE= 1.348272646679D+03
 Leave Link  502 at Fri May 23 05:20:13 2025, MaxMem=  3758096384 cpu:              67.4 elap:              13.6
 (Enter /apps/easybuild-2022/easybuild/software/Compiler/NVHPC/22.11-CUDA-11.7.0/Gaussian/g16c01-CUDA-11.7.0/g16/l508.exe)
 QCSCF skips out because SCF is already converged.
 Leave Link  508 at Fri May 23 05:20:13 2025, MaxMem=  3758096384 cpu:               0.0 elap:               0.0
 (Enter /apps/easybuild-2022/easybuild/software/Compiler/NVHPC/22.11-CUDA-11.7.0/Gaussian/g16c01-CUDA-11.7.0/g16/l801.exe)
 DoSCS=F DFT=T ScalE2(SS,OS)=  1.000000  1.000000
 Range of M.O.s used for correlation:     1   257
 NBasis=   257 NAE=    49 NBE=    49 NFC=     0 NFV=     0
 NROrb=    257 NOA=    49 NOB=    49 NVA=   208 NVB=   208

 **** Warning!!: The largest alpha MO coefficient is  0.37566747D+02

 Leave Link  801 at Fri May 23 05:20:13 2025, MaxMem=  3758096384 cpu:               0.0 elap:               0.0
 (Enter /apps/easybuild-2022/easybuild/software/Compiler/NVHPC/22.11-CUDA-11.7.0/Gaussian/g16c01-CUDA-11.7.0/g16/l1101.exe)
 Using compressed storage, NAtomX=    12.
 Will process     13 centers per pass.
 R6Disp: Adding Grimme-D2 dispersion energy 1st derivatives to the gradient.
 Leave Link 1101 at Fri May 23 05:20:13 2025, MaxMem=  3758096384 cpu:               0.5 elap:               0.1
 (Enter /apps/easybuild-2022/easybuild/software/Compiler/NVHPC/22.11-CUDA-11.7.0/Gaussian/g16c01-CUDA-11.7.0/g16/l1102.exe)
 Symmetrizing basis deriv contribution to polar:
 IMax=3 JMax=2 DiffMx= 0.00D+00
 Leave Link 1102 at Fri May 23 05:20:13 2025, MaxMem=  3758096384 cpu:               0.1 elap:               0.0
 (Enter /apps/easybuild-2022/easybuild/software/Compiler/NVHPC/22.11-CUDA-11.7.0/Gaussian/g16c01-CUDA-11.7.0/g16/l1110.exe)
 Forming Gx(P) for the SCF density, NAtomX=    12.
 Integral derivatives from FoFJK, PRISM(SPDF).
 Do as many integral derivatives as possible in FoFJK.
 G2DrvN: MDV=    3758095012.
 G2DrvN: will do    13 centers at a time, making    1 passes.
 Calling FoFCou, ICntrl=  3107 FMM=F I1Cent=   0 AccDes= 0.00D+00.
 FoFJK:  IHMeth= 1 ICntrl=    3107 DoSepK=T KAlg= 0 I1Cent=           0 FoldK=F
 IRaf=         1 NMat=       1 IRICut=       1 DoRegI=T DoRafI=F ISym2E= 0 IDoP0=0 IntGTp=1.
 FoFCou: FMM=F IPFlag=           0 FMFlag=      100000 FMFlg1=           0
         NFxFlg=           0 DoJE=F BraDBF=F KetDBF=F FulRan=T
         wScrn=  0.000000 ICntrl=      3507 IOpCl=  0 I1Cent=           0 NGrid=           0
         NMat0=    1 NMatS0=      1 NMatT0=    0 NMatD0=    1 NMtDS0=    0 NMtDT0=    0
 Symmetry not used in FoFCou.
 End of G2Drv F.D. properties file   721 does not exist.
 End of G2Drv F.D. properties file   722 does not exist.
 End of G2Drv F.D. properties file   788 does not exist.
 Leave Link 1110 at Fri May 23 05:20:26 2025, MaxMem=  3758096384 cpu:             100.3 elap:              12.7
 (Enter /apps/easybuild-2022/easybuild/software/Compiler/NVHPC/22.11-CUDA-11.7.0/Gaussian/g16c01-CUDA-11.7.0/g16/l1002.exe)
 Minotr:  Closed shell wavefunction.
          IDoAtm=111111111111
          Direct CPHF calculation.
          Differentiating once with respect to nuclear coordinates.
          Requested convergence is 1.0D-08 RMS, and 1.0D-07 maximum.
          Secondary convergence is 1.0D-12 RMS, and 1.0D-12 maximum.
          NewPWx=T KeepS1=F KeepF1=F KeepIn=T MapXYZ=F SortEE=F KeepMc=T.
         3738 words used for storage of precomputed grid.
 Keep R1 ints in memory in canonical form, NReq=1117480330.
 FoFCou: FMM=F IPFlag=           0 FMFlag=           0 FMFlg1=           0
         NFxFlg=           0 DoJE=F BraDBF=F KetDBF=F FulRan=T
         wScrn=  0.000000 ICntrl=       600 IOpCl=  0 I1Cent=           0 NGrid=           0
         NMat0=    1 NMatS0=  33153 NMatT0=    0 NMatD0=    1 NMtDS0=    0 NMtDT0=    0
 Symmetry not used in FoFCou.
 Two-electron integral symmetry not used.
          MDV=    3758096384 using IRadAn=       1.
          Solving linear equations simultaneously, MaxMat=       0.
          There are    39 degrees of freedom in the 1st order CPHF.  IDoFFX=6 NUNeed=     0.
     33 vectors produced by pass  0 Test12= 2.61D-14 2.56D-09 XBig12= 1.38D-01 7.98D-02.
 AX will form    33 AO Fock derivatives at one time.
     33 vectors produced by pass  1 Test12= 2.61D-14 2.56D-09 XBig12= 1.76D-02 2.63D-02.
     33 vectors produced by pass  2 Test12= 2.61D-14 2.56D-09 XBig12= 1.61D-03 6.85D-03.
     33 vectors produced by pass  3 Test12= 2.61D-14 2.56D-09 XBig12= 2.74D-05 9.54D-04.
     33 vectors produced by pass  4 Test12= 2.61D-14 2.56D-09 XBig12= 5.82D-07 9.43D-05.
     33 vectors produced by pass  5 Test12= 2.61D-14 2.56D-09 XBig12= 6.29D-09 1.07D-05.
     33 vectors produced by pass  6 Test12= 2.61D-14 2.56D-09 XBig12= 4.95D-11 1.07D-06.
     23 vectors produced by pass  7 Test12= 2.61D-14 2.56D-09 XBig12= 3.63D-13 5.38D-08.
      6 vectors produced by pass  8 Test12= 2.61D-14 2.56D-09 XBig12= 2.26D-15 5.26D-09.
 InvSVY:  IOpt=1 It=  1 EMax= 2.00D-15
 Solved reduced A of dimension   260 with    33 vectors.
 End of Minotr F.D. properties file   721 does not exist.
 End of Minotr F.D. properties file   722 does not exist.
 End of Minotr F.D. properties file   788 does not exist.
 Leave Link 1002 at Fri May 23 05:20:48 2025, MaxMem=  3758096384 cpu:             178.2 elap:              22.8
 (Enter /apps/easybuild-2022/easybuild/software/Compiler/NVHPC/22.11-CUDA-11.7.0/Gaussian/g16c01-CUDA-11.7.0/g16/l701.exe)
 ... and contract with generalized density number  0.
 Compute integral second derivatives.
 R6Disp: Adding Grimme-D2 dispersion energy 2nd derivatives to the Hessian.
 Leave Link  701 at Fri May 23 05:20:49 2025, MaxMem=  3758096384 cpu:               0.5 elap:               0.1
 (Enter /apps/easybuild-2022/easybuild/software/Compiler/NVHPC/22.11-CUDA-11.7.0/Gaussian/g16c01-CUDA-11.7.0/g16/l702.exe)
 L702 exits ... SP integral derivatives will be done elsewhere.
 Leave Link  702 at Fri May 23 05:20:49 2025, MaxMem=  3758096384 cpu:               0.0 elap:               0.0
 (Enter /apps/easybuild-2022/easybuild/software/Compiler/NVHPC/22.11-CUDA-11.7.0/Gaussian/g16c01-CUDA-11.7.0/g16/l703.exe)
 Integral derivatives from FoFJK, PRISM(SPDF).
 Compute integral second derivatives, UseDBF=F ICtDFT=           0.
 Calling FoFJK, ICntrl=    100127 FMM=F ISym2X=0 I1Cent= 0 IOpClX= 0 NMat=1 NMatS=1 NMatT=0.
 FoFJK:  IHMeth= 1 ICntrl=  100127 DoSepK=T KAlg= 0 I1Cent=           0 FoldK=F
 IRaf=         1 NMat=       1 IRICut=       1 DoRegI=T DoRafI=F ISym2E= 0 IDoP0=0 IntGTp=1.
 FoFCou: FMM=F IPFlag=           0 FMFlag=      100000 FMFlg1=         800
         NFxFlg=           0 DoJE=F BraDBF=F KetDBF=F FulRan=T
         wScrn=  0.000000 ICntrl=    100527 IOpCl=  0 I1Cent=           0 NGrid=           0
         NMat0=    1 NMatS0=      1 NMatT0=    0 NMatD0=    1 NMtDS0=    0 NMtDT0=    0
 Symmetry not used in FoFCou.
 Leave Link  703 at Fri May 23 05:21:24 2025, MaxMem=  3758096384 cpu:             284.4 elap:              35.8
 (Enter /apps/easybuild-2022/easybuild/software/Compiler/NVHPC/22.11-CUDA-11.7.0/Gaussian/g16c01-CUDA-11.7.0/g16/l716.exe)
 Dipole        =-6.80025621D-01 4.38348170D-01 3.06139580D-01
 Polarizability= 0.00000000D+00 0.00000000D+00 0.00000000D+00
                 0.00000000D+00 0.00000000D+00 0.00000000D+00
 -------------------------------------------------------------------
 Center     Atomic                   Forces (Hartrees/Bohr)
 Number     Number              X              Y              Z
 -------------------------------------------------------------------
      1        6          -0.001792993   -0.001316921    0.001202199
      2        6           0.001559124   -0.002826587   -0.004222240
      3        9           0.002768932    0.002203283    0.000636178
      4        9          -0.001620153    0.000841155    0.001618351
      5       16           0.003065031    0.001137740    0.000459942
      6        8          -0.007945185   -0.004874515    0.011387065
      7        8          -0.001263543    0.004440765   -0.001931069
      8        8           0.001274945   -0.002547226   -0.006040250
      9        9           0.000742665    0.000200135    0.000176722
     10        9           0.000338952    0.000804659   -0.000471918
     11        9           0.001348913    0.000060169    0.000090115
     12        1           0.001523312    0.001877344   -0.002905094
 -------------------------------------------------------------------
 Cartesian Forces:  Max     0.011387065 RMS     0.003198700
 Force constants in Cartesian coordinates: 
                1             2             3             4             5 
      1  0.581092D+00
      2 -0.534638D-02  0.553281D+00
      3 -0.175289D-01  0.160489D-01  0.561208D+00
      4 -0.150746D+00  0.159794D-01  0.354543D-01  0.418373D+00
      5  0.809443D-02 -0.403170D-01  0.372110D-02  0.282522D-01  0.519587D+00
      6  0.740404D-01 -0.422749D-02 -0.874490D-01 -0.450277D-01  0.232197D-02
      7 -0.421399D-03 -0.338160D-01  0.144943D-01 -0.798540D-01 -0.375616D-01
      8 -0.204136D-02 -0.263493D-01  0.106506D-01 -0.519388D-01 -0.249046D+00
      9 -0.914471D-03  0.297855D-01 -0.104628D-01  0.315204D-01  0.971917D-01
     10  0.628088D-02  0.147060D-01  0.178219D-01 -0.730591D-01 -0.219499D-01
     11 -0.609027D-02 -0.164470D-01 -0.184930D-01 -0.110265D-01 -0.142093D+00
     12 -0.176393D-01 -0.290874D-01 -0.295227D-01 -0.143382D-01 -0.108406D+00
     13 -0.256156D-01  0.108368D-01 -0.661134D-02 -0.611836D-01  0.507520D-01
     14  0.747755D-02  0.116904D-01  0.808421D-02  0.440776D-02 -0.585359D-01
     15  0.419570D-03 -0.153540D-02  0.308114D-01 -0.486182D-02  0.285402D-01
     16  0.806911D-03 -0.138211D-02  0.129559D-02  0.315622D-02 -0.782831D-03
     17  0.989135D-03 -0.112257D-02  0.185160D-03  0.305249D-02  0.154920D-02
     18 -0.913432D-03  0.641973D-03 -0.475247D-03 -0.211547D-02 -0.163084D-02
     19  0.414855D-02  0.198921D-02  0.470280D-02  0.615696D-02 -0.219961D-01
     20  0.238918D-03 -0.552181D-02 -0.114126D-01  0.161271D-02  0.542214D-02
     21  0.339208D-02  0.642009D-03 -0.132063D-01 -0.268221D-02 -0.227653D-01
     22  0.372048D-02  0.165291D-02 -0.946242D-02 -0.275951D-01 -0.797342D-02
     23  0.714604D-04 -0.268977D-02  0.311036D-02  0.108799D-01  0.390248D-02
     24 -0.221003D-02 -0.118928D-02  0.146023D-03  0.468311D-02  0.122439D-02
     25 -0.846431D-01  0.522227D-02  0.109153D-01  0.110822D-01  0.170861D-01
     26  0.126842D-01 -0.190911D+00 -0.116257D+00 -0.760818D-02 -0.179945D-01
     27  0.161885D-01 -0.110959D+00 -0.188062D+00 -0.517547D-02 -0.295735D-01
     28 -0.959124D-01 -0.397241D-01  0.325983D-01  0.344536D-02 -0.292459D-01
     29 -0.452558D-01 -0.201645D+00  0.879952D-01  0.641953D-03 -0.217008D-01
     30  0.349030D-01  0.833649D-01 -0.134669D+00  0.173897D-02  0.297930D-01
     31 -0.237971D+00  0.297602D-01 -0.841553D-01 -0.498624D-01  0.139666D-01
     32  0.294673D-01 -0.798906D-01  0.160184D-01  0.616299D-02  0.119034D-02
     33 -0.898855D-01  0.163503D-01 -0.128329D+00  0.105252D-02 -0.816232D-03
     34 -0.739233D-03  0.121718D-03  0.475402D-03  0.874139D-04  0.135842D-02
     35 -0.289139D-03 -0.774013D-04  0.348270D-03 -0.416024D-03 -0.196443D-02
     36  0.148067D-03  0.165438D-03  0.114347D-04 -0.248349D-03  0.399664D-03
                6             7             8             9            10 
      6  0.523573D+00
      7  0.262964D-01  0.837215D-01
      8  0.104304D+00  0.770820D-01  0.348091D+00
      9 -0.125937D+00 -0.351963D-01 -0.115415D+00  0.118673D+00
     10 -0.279458D-01  0.584812D-02 -0.159121D-01 -0.734159D-02  0.661950D-01
     11 -0.110023D+00 -0.188897D-01 -0.662447D-01 -0.298346D-01  0.333425D-01
     12 -0.225935D+00 -0.338493D-02 -0.119613D-01  0.220939D-01  0.302417D-01
     13 -0.330568D-01 -0.111994D-02 -0.146501D-02  0.187745D-02  0.220738D-02
     14  0.846659D-02  0.203810D-01 -0.374854D-01  0.293249D-01 -0.146028D-01
     15 -0.449002D-01 -0.100852D-01  0.116305D-01 -0.995081D-02 -0.144137D-01
     16 -0.270106D-03 -0.858633D-02  0.162219D-02 -0.245869D-02 -0.660742D-03
     17  0.147528D-02 -0.109055D-02  0.332832D-02 -0.252743D-02 -0.406695D-03
     18 -0.875345D-03 -0.187963D-03 -0.136038D-02  0.202403D-02 -0.893123D-04
     19 -0.937859D-02  0.137319D-02 -0.310716D-04  0.132182D-02 -0.670502D-02
     20  0.430645D-02 -0.317266D-02  0.130039D-01 -0.659638D-02  0.239165D-03
     21 -0.650676D-02  0.124488D-02  0.462212D-02  0.169096D-02 -0.918100D-02
     22  0.280963D-01  0.497473D-02 -0.603807D-03 -0.298877D-03  0.766857D-03
     23 -0.659935D-02 -0.213161D-02  0.221950D-02 -0.169889D-02 -0.136935D-03
     24 -0.741624D-02 -0.121116D-02 -0.383939D-02  0.287733D-02  0.232354D-03
     25  0.136669D-01 -0.616558D-03 -0.693288D-04  0.109216D-02 -0.464373D-02
     26 -0.126067D-01  0.178788D-02  0.669781D-02  0.142812D-03  0.468016D-02
     27 -0.156516D-01  0.538972D-03  0.904768D-03  0.107376D-02  0.673609D-02
     28  0.127533D-01 -0.718002D-02 -0.322234D-02  0.664482D-02 -0.443141D-03
     29  0.816187D-02 -0.491498D-02  0.103791D-02  0.262109D-02 -0.680550D-03
     30 -0.754208D-02  0.776056D-02  0.224366D-02 -0.475171D-02  0.657686D-03
     31 -0.375740D-01  0.245084D-02 -0.230200D-02  0.321253D-02  0.395828D-02
     32  0.404317D-02  0.107523D-02  0.382408D-02 -0.274288D-02  0.716737D-03
     33 -0.141563D-02  0.235641D-03 -0.200783D-02  0.272555D-02  0.336935D-02
     34 -0.160022D-02 -0.590113D-03 -0.111837D-02  0.540809D-03  0.255175D-03
     35  0.377206D-03  0.125097D-02  0.922568D-03 -0.250672D-03  0.440371D-05
     36  0.568322D-04 -0.505227D-03  0.228719D-03 -0.558199D-04 -0.876886D-04
               11            12            13            14            15 
     11  0.215121D+00
     12  0.165579D+00  0.256620D+00
     13 -0.332426D-02  0.319499D-02  0.245265D+00
     14  0.254472D-02 -0.207717D-01  0.508208D-01  0.503729D+00
     15 -0.305215D-02 -0.177508D-01  0.223306D-01  0.209464D+00  0.448628D+00
     16 -0.618388D-04 -0.359573D-03 -0.130580D-01 -0.386101D-01  0.117458D-01
     17 -0.521640D-03 -0.963045D-03 -0.254486D-01 -0.324238D-01  0.281520D-01
     18  0.608430D-03  0.726824D-03  0.177381D-01  0.284591D-01 -0.155595D-01
     19  0.183894D-03 -0.864754D-02 -0.624520D-01 -0.478001D-01 -0.528998D-01
     20 -0.107352D-02  0.153820D-02 -0.448655D-01 -0.326127D+00 -0.282818D+00
     21 -0.366466D-02 -0.103412D-01 -0.459591D-01 -0.239814D+00 -0.312122D+00
     22 -0.250092D-03 -0.256302D-02 -0.879153D-01  0.189882D-01  0.380793D-01
     23  0.882628D-03  0.186594D-02 -0.305204D-01 -0.487932D-01  0.136357D-01
     24  0.155193D-02  0.475707D-02  0.331729D-01 -0.235670D-01 -0.623158D-01
     25  0.371953D-02  0.742166D-02  0.709248D-03 -0.197106D-02 -0.126309D-02
     26 -0.399608D-03 -0.316558D-02 -0.225728D-02 -0.314946D-02 -0.387733D-02
     27 -0.312387D-02 -0.590636D-02 -0.146278D-02 -0.278919D-02 -0.816019D-02
     28  0.240166D-02  0.247208D-02  0.959196D-03  0.289552D-03  0.366152D-03
     29  0.579514D-02  0.298855D-02 -0.103071D-02 -0.293179D-02  0.199636D-02
     30 -0.872392D-03  0.547074D-03  0.749381D-03 -0.675712D-03 -0.465294D-02
     31  0.322070D-04  0.326312D-02  0.406621D-02 -0.264243D-03  0.843656D-02
     32  0.210520D-02  0.224115D-02 -0.106208D-02 -0.124771D-02 -0.817880D-03
     33  0.148385D-02  0.496055D-02  0.167399D-02 -0.928609D-03 -0.316527D-02
     34 -0.371958D-04  0.338950D-03 -0.186306D-02  0.883444D-03  0.214556D-02
     35  0.331145D-03  0.141889D-03 -0.243571D-02 -0.726959D-02 -0.131836D-02
     36 -0.160331D-03 -0.249369D-03  0.635269D-02  0.474706D-02 -0.862272D-03
               16            17            18            19            20 
     16  0.619996D+00
     17  0.391596D-01  0.311270D+00
     18 -0.217283D-01 -0.176471D-01  0.239611D-01
     19  0.138858D-02  0.476046D-02  0.591507D-03  0.531831D-01
     20  0.282445D-02  0.820066D-02  0.486552D-02  0.495758D-01  0.296446D+00
     21 -0.243255D-02 -0.394827D-02  0.273391D-02  0.503068D-01  0.281330D+00
     22 -0.754764D-01 -0.151571D-01  0.655280D-02  0.746268D-02 -0.470211D-02
     23 -0.622405D-01 -0.249033D+00 -0.135543D-01  0.131066D-01  0.325924D-02
     24  0.172614D-01 -0.116059D-01 -0.140378D-01  0.186303D-01  0.330453D-02
     25 -0.122842D-03 -0.139937D-03  0.568156D-04 -0.353608D-02  0.235572D-02
     26  0.192961D-03  0.238995D-03 -0.102544D-03  0.661392D-05  0.329438D-02
     27 -0.875653D-04  0.988402D-04  0.321388D-04 -0.133790D-02  0.425361D-02
     28 -0.534991D-03 -0.446109D-03  0.310290D-03 -0.816386D-03 -0.546493D-03
     29  0.541064D-03  0.295432D-03 -0.259887D-03 -0.490269D-03  0.640697D-03
     30 -0.234575D-03 -0.462521D-04  0.163697D-03 -0.486885D-03  0.142257D-02
     31 -0.911143D-04 -0.522097D-03  0.349019D-03 -0.486390D-03 -0.244016D-02
     32  0.203465D-03  0.230969D-03 -0.132589D-03 -0.149843D-03  0.879234D-03
     33 -0.320364D-03 -0.234201D-03  0.225141D-03 -0.883369D-03  0.142828D-02
     34 -0.526817D+00 -0.475066D-02 -0.564019D-03  0.282816D-03 -0.111981D-02
     35  0.585335D-01 -0.420121D-01  0.112606D-03  0.844822D-03  0.157624D-02
     36 -0.241103D-02  0.706094D-02  0.108103D-02 -0.191907D-02 -0.162170D-02
               21            22            23            24            25 
     21  0.354531D+00
     22  0.105716D-01  0.176855D+00
     23 -0.162798D-01  0.637922D-01  0.310210D+00
     24 -0.253103D-01 -0.718879D-01  0.283748D-01  0.100680D+00
     25 -0.387132D-03 -0.466667D-03  0.112821D-04  0.700941D-03  0.770708D-01
     26  0.225323D-02  0.988860D-03  0.335898D-03  0.301599D-03  0.166509D-01
     27  0.478597D-02  0.172317D-02 -0.200764D-03  0.756734D-03  0.208475D-01
     28 -0.349301D-03 -0.187171D-03 -0.423451D-03 -0.193551D-03  0.123221D-01
     29 -0.145175D-02 -0.837822D-03  0.111743D-02  0.600139D-03 -0.137934D-01
     30  0.270285D-02  0.947434D-03 -0.559145D-03 -0.235555D-04 -0.562908D-02
     31 -0.328171D-02 -0.517736D-02  0.129143D-02  0.158752D-02 -0.729870D-02
     32  0.319710D-03  0.490377D-03  0.202138D-03 -0.926052D-04 -0.291541D-01
     33  0.164828D-02  0.162403D-03 -0.251800D-03  0.531113D-03 -0.473653D-01
     34 -0.124242D-02  0.303837D-02  0.629994D-02 -0.765743D-03  0.143275D-03
     35 -0.124285D-02 -0.563882D-01 -0.216127D-01  0.493687D-02  0.820648D-04
     36 -0.606784D-03 -0.192081D-02 -0.784278D-02 -0.644519D-03 -0.567229D-04
               26            27            28            29            30 
     26  0.277613D+00
     27  0.174447D+00  0.234625D+00
     28 -0.838861D-02 -0.261909D-02  0.820816D-01
     29 -0.814487D-01 -0.266004D-02  0.432389D-01  0.321358D+00
     30 -0.189081D-01  0.225274D-01 -0.200808D-01 -0.137963D+00  0.155588D+00
     31 -0.186086D-01 -0.352239D-01  0.607556D-02  0.226231D-01 -0.202989D-01
     32  0.573764D-02 -0.303048D-01  0.359903D-01 -0.227102D-01  0.423752D-01
     33 -0.221459D-01 -0.459578D-01 -0.319274D-01  0.380903D-01 -0.299241D-01
     34 -0.128915D-03 -0.127525D-03  0.190251D-03 -0.414050D-04 -0.267877D-04
     35 -0.143279D-04 -0.926600D-04  0.765850D-04  0.192306D-03 -0.175136D-03
     36 -0.818605D-04 -0.626795D-04  0.251564D-04 -0.119136D-03  0.338518D-04
               31            32            33            34            35 
     31  0.283766D+00
     32 -0.436484D-01  0.896788D-01
     33  0.163812D+00 -0.309164D-01  0.198745D+00
     34  0.569268D-03 -0.919929D-04  0.761589D-04  0.525443D+00
     35  0.111853D-03  0.000000D+00 -0.517388D-04 -0.137518D-02  0.699283D-01
     36 -0.126842D-03  0.941623D-05 -0.436927D-04  0.749832D-03 -0.278543D-02
               36 
     36  0.134199D-02
 FormGI is forming the generalized inverse of G from B-inverse, IUseBI=4.
 Leave Link  716 at Fri May 23 05:21:24 2025, MaxMem=  3758096384 cpu:               0.0 elap:               0.0
 (Enter /apps/easybuild-2022/easybuild/software/Compiler/NVHPC/22.11-CUDA-11.7.0/Gaussian/g16c01-CUDA-11.7.0/g16/l103.exe)

 GradGradGradGradGradGradGradGradGradGradGradGradGradGradGradGradGradGrad
 Berny optimization.
 Red2BG is reusing G-inverse.
 Internal  Forces:  Max     0.028750215 RMS     0.005092765
 Search for a local minimum.
 Step number   1 out of a maximum of   56
 All quantities printed in internal units (Hartrees-Bohrs-Radians)
 RMS Force = .50928D-02 SwitMx=.10000D-02 MixMth= 1
 Mixed Optimization -- RFO/linear search
 Second derivative matrix not updated -- analytic derivatives used.
 ITU=  0
     Eigenvalues ---   -0.00039   0.00085   0.00328   0.01509   0.05227
     Eigenvalues ---    0.08812   0.09812   0.10170   0.11414   0.12247
     Eigenvalues ---    0.13197   0.15224   0.17561   0.19528   0.20437
     Eigenvalues ---    0.20663   0.22941   0.23636   0.24862   0.29284
     Eigenvalues ---    0.36205   0.37622   0.38513   0.39480   0.40373
     Eigenvalues ---    0.47176   0.48230   0.52573   0.55677   0.62317
 Eigenvalue     1 is  -3.95D-04 should be greater than     0.000000 Eigenvector:
                          D18       D13       D12       D15       D11
   1                   -0.40052   0.39167   0.37201   0.36894   0.36537
                          D14       D10       D16       D17       D3
   1                    0.34928   0.34571   0.09613   0.07817   0.06344
 RFO step:  Lambda=-7.70579475D-03 EMin=-3.94832070D-04
 Linear search not attempted -- first point.
 Iteration  1 RMS(Cart)=  0.14182286 RMS(Int)=  0.11957929
 Iteration  2 RMS(Cart)=  0.07989066 RMS(Int)=  0.08665008
 Iteration  3 RMS(Cart)=  0.04654936 RMS(Int)=  0.05717195
 Iteration  4 RMS(Cart)=  0.04713889 RMS(Int)=  0.02792204
 Iteration  5 RMS(Cart)=  0.04498613 RMS(Int)=  0.00431700
 Iteration  6 RMS(Cart)=  0.00382771 RMS(Int)=  0.00030363
 Iteration  7 RMS(Cart)=  0.00001356 RMS(Int)=  0.00030351
 Iteration  8 RMS(Cart)=  0.00000000 RMS(Int)=  0.00030351
 ITry= 1 IFail=0 DXMaxC= 1.25D+00 DCOld= 1.00D+10 DXMaxT= 3.00D-01 DXLimC= 3.00D+00 Rises=F
 Variable       Old X    -DE/DX   Delta X   Delta X   Delta X     New X
                                 (Linear)    (Quad)   (Total)
    R1        2.93153   0.00000   0.00000  -0.00304  -0.00304   2.92849
    R2        2.50010  -0.00031   0.00000  -0.00350  -0.00350   2.49660
    R3        2.52583   0.00097   0.00000   0.00116   0.00116   2.52699
    R4        2.50983   0.00111   0.00000   0.00304   0.00304   2.51287
    R5        2.51389  -0.00232   0.00000  -0.00709  -0.00709   2.50680
    R6        2.52746   0.00150   0.00000   0.01007   0.01007   2.53753
    R7        3.62052   0.00202   0.00000  -0.00149  -0.00149   3.61903
    R8        2.76069  -0.00150   0.00000   0.00350   0.00350   2.76418
    R9        3.20625   0.00607   0.00000   0.01447   0.01447   3.22071
   R10        2.68624   0.00418   0.00000  -0.02933  -0.02933   2.65692
   R11        1.82486  -0.00152   0.00000  -0.00042  -0.00042   1.82444
    A1        1.93794   0.00099   0.00000  -0.00136  -0.00136   1.93658
    A2        1.90506  -0.00008   0.00000   0.00061   0.00061   1.90567
    A3        1.91878   0.00104   0.00000   0.00051   0.00051   1.91928
    A4        1.90195  -0.00039   0.00000   0.00488   0.00488   1.90683
    A5        1.90227  -0.00092   0.00000  -0.00095  -0.00095   1.90132
    A6        1.89732  -0.00068   0.00000  -0.00371  -0.00371   1.89361
    A7        1.90649  -0.00163   0.00000   0.00351   0.00274   1.90923
    A8        1.89615   0.00108   0.00000   0.00836   0.00839   1.90454
    A9        1.93337   0.00138   0.00000   0.01442   0.01397   1.94734
   A10        1.92042  -0.00070   0.00000  -0.01487  -0.01450   1.90592
   A11        1.93842   0.00238   0.00000   0.03745   0.03712   1.97555
   A12        1.86831  -0.00252   0.00000  -0.05040  -0.05016   1.81815
   A13        1.81990   0.00530   0.00000   0.05073   0.05082   1.87071
   A14        1.62934   0.01025   0.00000   0.02799   0.02769   1.65703
   A15        1.92254   0.00076   0.00000  -0.01672  -0.01789   1.90464
   A16        1.76660  -0.00343   0.00000   0.01718   0.01718   1.78379
   A17        1.85450   0.02875   0.00000   0.10178   0.10178   1.95628
    D1        0.90170   0.00124   0.00000  -0.01897  -0.01896   0.88275
    D2        2.99677   0.00008   0.00000  -0.02993  -0.02992   2.96685
    D3       -1.23891  -0.00155   0.00000  -0.07783  -0.07785  -1.31676
    D4        2.99878   0.00132   0.00000  -0.01338  -0.01336   2.98542
    D5       -1.18933   0.00015   0.00000  -0.02434  -0.02433  -1.21366
    D6        0.85817  -0.00147   0.00000  -0.07223  -0.07226   0.78591
    D7       -1.20475   0.00106   0.00000  -0.01723  -0.01722  -1.22197
    D8        0.89032  -0.00010   0.00000  -0.02820  -0.02818   0.86213
    D9        2.93783  -0.00172   0.00000  -0.07609  -0.07612   2.86171
   D10        1.07349  -0.00173   0.00000  -0.25330  -0.25341   0.82009
   D11        3.02440   0.00298   0.00000  -0.25410  -0.25343   2.77097
   D12       -1.04845  -0.00222   0.00000  -0.29318  -0.29400  -1.34245
   D13        0.90246   0.00249   0.00000  -0.29398  -0.29403   0.60843
   D14        3.13800  -0.00117   0.00000  -0.26531  -0.26554   2.87246
   D15       -1.19428   0.00354   0.00000  -0.26610  -0.26556  -1.45984
   D16       -1.35363  -0.00423   0.00000   0.04011   0.04042  -1.31321
   D17        0.50572   0.00572   0.00000   0.10319   0.10288   0.60860
   D18       -2.28450   0.00520   0.00000   0.98275   0.98275  -1.30175
         Item               Value     Threshold  Converged?
 Maximum Force            0.028750     0.000015     NO 
 RMS     Force            0.005093     0.000010     NO 
 Maximum Displacement     1.246814     0.000060     NO 
 RMS     Displacement     0.303034     0.000040     NO 
 Predicted change in Energy=-6.612498D-03
 Lowest energy point so far.  Saving SCF results.
 GradGradGradGradGradGradGradGradGradGradGradGradGradGradGradGradGradGrad

 Leave Link  103 at Fri May 23 05:21:24 2025, MaxMem=  3758096384 cpu:               0.0 elap:               0.0
 (Enter /apps/easybuild-2022/easybuild/software/Compiler/NVHPC/22.11-CUDA-11.7.0/Gaussian/g16c01-CUDA-11.7.0/g16/l202.exe)
                          Input orientation:                          
 ---------------------------------------------------------------------
 Center     Atomic      Atomic             Coordinates (Angstroms)
 Number     Number       Type             X           Y           Z
 ---------------------------------------------------------------------
      1          6           0        5.046736    0.809193   -1.050401
      2          6           0        3.855753    1.066365   -0.092821
      3          9           0        3.584886   -0.043635    0.581158
      4          9           0        4.188626    2.038087    0.772089
      5         16           0        2.339659    1.769925   -1.027756
      6          8           0        0.945879   -0.076380    0.126388
      7          8           0        2.148503    0.947287   -2.222052
      8          8           0        1.207191    1.304742    0.157931
      9          9           0        4.844646   -0.277022   -1.774778
     10          9           0        5.191837    1.860793   -1.863574
     11          9           0        6.167603    0.659039   -0.350862
     12          1           0        0.391977   -0.161378   -0.659786
 ---------------------------------------------------------------------
                    Distance matrix (angstroms):
                    1          2          3          4          5
     1  C    0.000000
     2  C    1.549690   0.000000
     3  F    2.350810   1.326543   0.000000
     4  F    2.359662   1.342802   2.175895   0.000000
     5  S    2.872592   1.915109   2.725471   2.594231   0.000000
     6  O    4.357305   3.133893   2.678105   3.924705   2.585249
     7  O    3.129152   2.731759   3.301985   3.783758   1.462743
     8  O    4.055582   2.671064   2.765985   3.131124   1.704328
     9  F    1.321145   2.368877   2.681772   3.503801   3.320089
    10  F    1.337224   2.356226   3.490824   2.825701   2.973511
    11  F    1.329753   2.361599   2.834227   2.660666   4.042946
    12  H    4.770888   3.718407   3.427604   4.615458   2.767454
                    6          7          8          9         10
     6  O    0.000000
     7  O    2.830082   0.000000
     8  O    1.405979   2.584214   0.000000
     9  F    4.342243   2.994691   4.412303   0.000000
    10  F    5.073534   3.197637   4.502564   2.167644   0.000000
    11  F    5.294810   4.442703   5.028071   2.157305   2.164401
    12  H    0.965453   2.599076   1.866211   4.591605   5.345740
                   11         12
    11  F    0.000000
    12  H    5.841779   0.000000
 Symmetry turned off by external request.
 Stoichiometry    C2HF5O3S
 Rotational constants (GHZ):           1.6167659           0.7555179           0.6968144
 Leave Link  202 at Fri May 23 05:21:24 2025, MaxMem=  3758096384 cpu:               0.0 elap:               0.0
 (Enter /apps/easybuild-2022/easybuild/software/Compiler/NVHPC/22.11-CUDA-11.7.0/Gaussian/g16c01-CUDA-11.7.0/g16/l301.exe)
 Standard basis: 6-311++G(d,p) (5D, 7F)
 Ernie: Thresh=  0.10000D-02 Tol=  0.10000D-05 Strict=F.
   257 basis functions,   419 primitive gaussians,   268 cartesian basis functions
    49 alpha electrons       49 beta electrons
       nuclear repulsion energy       894.5873992312 Hartrees.
 IExCor= 4639 DFT=T Ex+Corr=wB97XD ExCW=0 ScaHFX=  1.000000
 ScaDFX=  1.000000  1.000000  1.000000  1.000000 ScalE2=  1.000000  1.000000
 IRadAn=      5 IRanWt=     -1 IRanGd=            0 ICorTp=0 IEmpDi=121
 HFx  wShort=  0.000000 wLong=  0.200000 cFull=  0.222036 cShort=  0.000000 cLong=  0.777964
 DFx  wShort=  0.000000 wLong=  0.200000 cFull=  0.000000 cShort=  0.000000 cLong=  1.000000
 NAtoms=   12 NActive=   12 NUniq=   12 SFac= 1.00D+00 NAtFMM=   60 NAOKFM=F Big=F
 Integral buffers will be    131072 words long.
 Raffenetti 2 integral format.
 Two-electron integral symmetry is turned off.
 R6Disp:  Grimme-D2 Dispersion energy=       -0.0052120192 Hartrees.
 Nuclear repulsion after empirical dispersion term =      894.5821872120 Hartrees.
 Leave Link  301 at Fri May 23 05:21:25 2025, MaxMem=  3758096384 cpu:               0.0 elap:               0.0
 (Enter /apps/easybuild-2022/easybuild/software/Compiler/NVHPC/22.11-CUDA-11.7.0/Gaussian/g16c01-CUDA-11.7.0/g16/l302.exe)
 NPDir=0 NMtPBC=     1 NCelOv=     1 NCel=       1 NClECP=     1 NCelD=      1
         NCelK=      1 NCelE2=     1 NClLst=     1 CellRange=     0.0.
 One-electron integrals computed using PRISM.
 NBasis=   257 RedAO= T EigKep=  6.96D-05  NBF=   257
 NBsUse=   257 1.00D-06 EigRej= -1.00D+00 NBFU=   257
 Precomputing XC quadrature grid using
 IXCGrd= 4 IRadAn=           5 IRanWt=          -1 IRanGd=           0 AccXCQ= 0.00D+00.
 Generated NRdTot=       0 NPtTot=           0 NUsed=           0 NTot=          32
 NSgBfM=   268   268   268   268   268 MxSgAt=    12 MxSgA2=    12.
 Leave Link  302 at Fri May 23 05:21:25 2025, MaxMem=  3758096384 cpu:               0.5 elap:               0.1
 (Enter /apps/easybuild-2022/easybuild/software/Compiler/NVHPC/22.11-CUDA-11.7.0/Gaussian/g16c01-CUDA-11.7.0/g16/l303.exe)
 DipDrv:  MaxL=1.
 Leave Link  303 at Fri May 23 05:21:25 2025, MaxMem=  3758096384 cpu:               0.1 elap:               0.0
 (Enter /apps/easybuild-2022/easybuild/software/Compiler/NVHPC/22.11-CUDA-11.7.0/Gaussian/g16c01-CUDA-11.7.0/g16/l401.exe)
 Initial guess from the checkpoint file:  "/tmp/Gau-201617.chk"
 B after Tr=    -0.021544    0.247087    0.512822
         Rot=    0.999475    0.015398   -0.025783    0.012134 Ang=   3.71 deg.
 Guess basis will be translated and rotated to current coordinates.
 JPrj=2 DoOrth=T DoCkMO=T.
 Generating alternative initial guess.
 ExpMin= 3.60D-02 ExpMax= 9.34D+04 ExpMxC= 3.17D+03 IAcc=3 IRadAn=         5 AccDes= 0.00D+00
 Harris functional with IExCor= 4639 and IRadAn=       5 diagonalized for initial guess.
 HarFok:  IExCor= 4639 AccDes= 0.00D+00 IRadAn=         5 IDoV= 1 UseB2=F ITyADJ=14
 ICtDFT=  3500011 ScaDFX=  1.000000  1.000000  1.000000  1.000000
 FoFCou: FMM=F IPFlag=           0 FMFlag=      100000 FMFlg1=           0
         NFxFlg=           0 DoJE=T BraDBF=F KetDBF=T FulRan=T
         wScrn=  0.000000 ICntrl=       500 IOpCl=  0 I1Cent=   200000004 NGrid=           0
         NMat0=    1 NMatS0=      1 NMatT0=    0 NMatD0=    1 NMtDS0=    0 NMtDT0=    0
 Symmetry not used in FoFCou.
 Harris En= -1167.05548083008    
 Leave Link  401 at Fri May 23 05:21:25 2025, MaxMem=  3758096384 cpu:               2.6 elap:               0.4
 (Enter /apps/easybuild-2022/easybuild/software/Compiler/NVHPC/22.11-CUDA-11.7.0/Gaussian/g16c01-CUDA-11.7.0/g16/l502.exe)
 Keep R1 ints in memory in canonical form, NReq=1117474609.
 FoFCou: FMM=F IPFlag=           0 FMFlag=           0 FMFlg1=           0
         NFxFlg=           0 DoJE=F BraDBF=F KetDBF=F FulRan=T
         wScrn=  0.000000 ICntrl=       600 IOpCl=  0 I1Cent=           0 NGrid=           0
         NMat0=    1 NMatS0=  33153 NMatT0=    0 NMatD0=    1 NMtDS0=    0 NMtDT0=    0
 Symmetry not used in FoFCou.
 Two-electron integral symmetry not used.
 Closed shell SCF:
 Using DIIS extrapolation, IDIIS=  1040.
 NGot=  3758096384 LenX=  2658793876 LenY=  2658721611
 Requested convergence on RMS density matrix=1.00D-08 within  32 cycles.
 Requested convergence on MAX density matrix=1.00D-06.
 Requested convergence on             energy=1.00D-06.
 No special actions if energy rises.

 Cycle   1  Pass 1  IDiag  1:
 E= -1199.49529040174    
 DIIS: error= 2.38D-02 at cycle   1 NSaved=   1.
 NSaved= 1 IEnMin= 1 EnMin= -1199.49529040174     IErMin= 1 ErrMin= 2.38D-02
 ErrMax= 2.38D-02  0.00D+00 EMaxC= 1.00D-01 BMatC= 1.70D-01 BMatP= 1.70D-01
 IDIUse=3 WtCom= 7.62D-01 WtEn= 2.38D-01
 Coeff-Com:  0.100D+01
 Coeff-En:   0.100D+01
 Coeff:      0.100D+01
 Recover alternate guess density for next cycle.
 RMSDP=6.16D-03 MaxDP=2.65D-01              OVMax= 0.00D+00

 Cycle   2  Pass 1  IDiag  1:
 E= -1199.03014780286     Delta-E=        0.465142598881 Rises=F Damp=F
 Switch densities from cycles 1 and 2 for lowest energy.
 DIIS: error= 1.34D-01 at cycle   2 NSaved=   2.
 NSaved= 2 IEnMin= 1 EnMin= -1199.49529040174     IErMin= 1 ErrMin= 2.38D-02
 ErrMax= 1.34D-01  0.00D+00 EMaxC= 1.00D+00 BMatC= 3.34D+00 BMatP= 1.70D-01
 IDIUse=1 WtCom= 1.00D+00 WtEn= 0.00D+00
 Coeff-Com:  0.947D+00 0.534D-01
 Coeff:      0.947D+00 0.534D-01
 Gap=     0.423 Goal=   None    Shift=    0.000
 RMSDP=3.48D-03 MaxDP=1.58D-01 DE= 4.65D-01 OVMax= 1.39D-01

 Cycle   3  Pass 1  IDiag  1:
 E= -1199.71597458293     Delta-E=       -0.685826780070 Rises=F Damp=F
 DIIS: error= 6.89D-03 at cycle   3 NSaved=   3.
 NSaved= 3 IEnMin= 3 EnMin= -1199.71597458293     IErMin= 3 ErrMin= 6.89D-03
 ErrMax= 6.89D-03  0.00D+00 EMaxC= 1.00D+00 BMatC= 1.91D-02 BMatP= 1.70D-01
 IDIUse=1 WtCom= 1.00D+00 WtEn= 0.00D+00
 Coeff-Com:  0.733D-01 0.161D-01 0.911D+00
 Coeff:      0.733D-01 0.161D-01 0.911D+00
 Gap=     0.384 Goal=   None    Shift=    0.000
 RMSDP=7.90D-04 MaxDP=3.61D-02 DE=-6.86D-01 OVMax= 3.94D-02

 Cycle   4  Pass 1  IDiag  1:
 E= -1199.72353678269     Delta-E=       -0.007562199764 Rises=F Damp=F
 DIIS: error= 6.63D-03 at cycle   4 NSaved=   4.
 NSaved= 4 IEnMin= 4 EnMin= -1199.72353678269     IErMin= 4 ErrMin= 6.63D-03
 ErrMax= 6.63D-03  0.00D+00 EMaxC= 1.00D+00 BMatC= 1.73D-02 BMatP= 1.91D-02
 IDIUse=1 WtCom= 1.00D+00 WtEn= 0.00D+00
 Coeff-Com: -0.695D-01 0.369D-02 0.506D+00 0.560D+00
 Coeff:     -0.695D-01 0.369D-02 0.506D+00 0.560D+00
 Gap=     0.379 Goal=   None    Shift=    0.000
 RMSDP=4.45D-04 MaxDP=1.72D-02 DE=-7.56D-03 OVMax= 2.29D-02

 Cycle   5  Pass 1  IDiag  1:
 E= -1199.73481820578     Delta-E=       -0.011281423091 Rises=F Damp=F
 DIIS: error= 1.96D-03 at cycle   5 NSaved=   5.
 NSaved= 5 IEnMin= 5 EnMin= -1199.73481820578     IErMin= 5 ErrMin= 1.96D-03
 ErrMax= 1.96D-03  0.00D+00 EMaxC= 1.00D+00 BMatC= 1.02D-03 BMatP= 1.73D-02
 IDIUse=1 WtCom= 1.00D+00 WtEn= 0.00D+00
 Coeff-Com: -0.342D-01 0.106D-02 0.136D+00 0.250D+00 0.647D+00
 Coeff:     -0.342D-01 0.106D-02 0.136D+00 0.250D+00 0.647D+00
 Gap=     0.381 Goal=   None    Shift=    0.000
 RMSDP=1.50D-04 MaxDP=4.75D-03 DE=-1.13D-02 OVMax= 9.51D-03

 Cycle   6  Pass 1  IDiag  1:
 E= -1199.73552687792     Delta-E=       -0.000708672138 Rises=F Damp=F
 DIIS: error= 5.00D-04 at cycle   6 NSaved=   6.
 NSaved= 6 IEnMin= 6 EnMin= -1199.73552687792     IErMin= 6 ErrMin= 5.00D-04
 ErrMax= 5.00D-04  0.00D+00 EMaxC= 1.00D+00 BMatC= 2.11D-04 BMatP= 1.02D-03
 IDIUse=1 WtCom= 1.00D+00 WtEn= 0.00D+00
 Coeff-Com: -0.186D-02-0.521D-03-0.341D-01 0.185D-01 0.341D+00 0.677D+00
 Coeff:     -0.186D-02-0.521D-03-0.341D-01 0.185D-01 0.341D+00 0.677D+00
 Gap=     0.379 Goal=   None    Shift=    0.000
 RMSDP=7.71D-05 MaxDP=2.59D-03 DE=-7.09D-04 OVMax= 5.73D-03

 Cycle   7  Pass 1  IDiag  1:
 E= -1199.73572079484     Delta-E=       -0.000193916920 Rises=F Damp=F
 DIIS: error= 1.30D-04 at cycle   7 NSaved=   7.
 NSaved= 7 IEnMin= 7 EnMin= -1199.73572079484     IErMin= 7 ErrMin= 1.30D-04
 ErrMax= 1.30D-04  0.00D+00 EMaxC= 1.00D+00 BMatC= 8.64D-06 BMatP= 2.11D-04
 IDIUse=1 WtCom= 1.00D+00 WtEn= 0.00D+00
 Coeff-Com:  0.301D-02-0.805D-04-0.241D-01-0.244D-01 0.701D-02 0.166D+00
 Coeff-Com:  0.872D+00
 Coeff:      0.301D-02-0.805D-04-0.241D-01-0.244D-01 0.701D-02 0.166D+00
 Coeff:      0.872D+00
 Gap=     0.379 Goal=   None    Shift=    0.000
 RMSDP=2.90D-05 MaxDP=1.18D-03 DE=-1.94D-04 OVMax= 2.03D-03

 Cycle   8  Pass 1  IDiag  1:
 E= -1199.73573403477     Delta-E=       -0.000013239931 Rises=F Damp=F
 DIIS: error= 5.88D-05 at cycle   8 NSaved=   8.
 NSaved= 8 IEnMin= 8 EnMin= -1199.73573403477     IErMin= 8 ErrMin= 5.88D-05
 ErrMax= 5.88D-05  0.00D+00 EMaxC= 1.00D+00 BMatC= 2.13D-06 BMatP= 8.64D-06
 IDIUse=1 WtCom= 1.00D+00 WtEn= 0.00D+00
 Coeff-Com:  0.170D-02-0.780D-05-0.926D-02-0.141D-01-0.262D-01 0.267D-01
 Coeff-Com:  0.420D+00 0.601D+00
 Coeff:      0.170D-02-0.780D-05-0.926D-02-0.141D-01-0.262D-01 0.267D-01
 Coeff:      0.420D+00 0.601D+00
 Gap=     0.379 Goal=   None    Shift=    0.000
 RMSDP=9.13D-06 MaxDP=3.06D-04 DE=-1.32D-05 OVMax= 5.73D-04

 Cycle   9  Pass 1  IDiag  1:
 E= -1199.73573609905     Delta-E=       -0.000002064281 Rises=F Damp=F
 DIIS: error= 1.79D-05 at cycle   9 NSaved=   9.
 NSaved= 9 IEnMin= 9 EnMin= -1199.73573609905     IErMin= 9 ErrMin= 1.79D-05
 ErrMax= 1.79D-05  0.00D+00 EMaxC= 1.00D+00 BMatC= 2.27D-07 BMatP= 2.13D-06
 IDIUse=1 WtCom= 1.00D+00 WtEn= 0.00D+00
 Coeff-Com: -0.896D-05 0.161D-04 0.134D-02-0.261D-03-0.101D-01-0.205D-01
 Coeff-Com: -0.310D-01 0.212D+00 0.848D+00
 Coeff:     -0.896D-05 0.161D-04 0.134D-02-0.261D-03-0.101D-01-0.205D-01
 Coeff:     -0.310D-01 0.212D+00 0.848D+00
 Gap=     0.379 Goal=   None    Shift=    0.000
 RMSDP=5.05D-06 MaxDP=1.63D-04 DE=-2.06D-06 OVMax= 3.27D-04

 Cycle  10  Pass 1  IDiag  1:
 E= -1199.73573646772     Delta-E=       -0.000000368667 Rises=F Damp=F
 DIIS: error= 8.29D-06 at cycle  10 NSaved=  10.
 NSaved=10 IEnMin=10 EnMin= -1199.73573646772     IErMin=10 ErrMin= 8.29D-06
 ErrMax= 8.29D-06  0.00D+00 EMaxC= 1.00D+00 BMatC= 3.03D-08 BMatP= 2.27D-07
 IDIUse=1 WtCom= 1.00D+00 WtEn= 0.00D+00
 Coeff-Com: -0.235D-03 0.630D-05 0.183D-02 0.187D-02-0.309D-03-0.115D-01
 Coeff-Com: -0.719D-01-0.622D-03 0.327D+00 0.754D+00
 Coeff:     -0.235D-03 0.630D-05 0.183D-02 0.187D-02-0.309D-03-0.115D-01
 Coeff:     -0.719D-01-0.622D-03 0.327D+00 0.754D+00
 Gap=     0.379 Goal=   None    Shift=    0.000
 RMSDP=1.87D-06 MaxDP=5.22D-05 DE=-3.69D-07 OVMax= 1.39D-04

 Cycle  11  Pass 1  IDiag  1:
 E= -1199.73573651460     Delta-E=       -0.000000046879 Rises=F Damp=F
 DIIS: error= 2.45D-06 at cycle  11 NSaved=  11.
 NSaved=11 IEnMin=11 EnMin= -1199.73573651460     IErMin=11 ErrMin= 2.45D-06
 ErrMax= 2.45D-06  0.00D+00 EMaxC= 1.00D+00 BMatC= 3.41D-09 BMatP= 3.03D-08
 IDIUse=1 WtCom= 1.00D+00 WtEn= 0.00D+00
 Coeff-Com: -0.760D-04-0.188D-05 0.522D-03 0.723D-03 0.966D-03-0.189D-02
 Coeff-Com: -0.229D-01-0.233D-01 0.331D-01 0.257D+00 0.756D+00
 Coeff:     -0.760D-04-0.188D-05 0.522D-03 0.723D-03 0.966D-03-0.189D-02
 Coeff:     -0.229D-01-0.233D-01 0.331D-01 0.257D+00 0.756D+00
 Gap=     0.379 Goal=   None    Shift=    0.000
 RMSDP=6.47D-07 MaxDP=1.37D-05 DE=-4.69D-08 OVMax= 5.25D-05

 Cycle  12  Pass 1  IDiag  1:
 E= -1199.73573652038     Delta-E=       -0.000000005784 Rises=F Damp=F
 DIIS: error= 8.72D-07 at cycle  12 NSaved=  12.
 NSaved=12 IEnMin=12 EnMin= -1199.73573652038     IErMin=12 ErrMin= 8.72D-07
 ErrMax= 8.72D-07  0.00D+00 EMaxC= 1.00D+00 BMatC= 6.23D-10 BMatP= 3.41D-09
 IDIUse=1 WtCom= 1.00D+00 WtEn= 0.00D+00
 Coeff-Com:  0.162D-04-0.615D-06-0.166D-03-0.869D-04 0.429D-03 0.166D-02
 Coeff-Com:  0.562D-02-0.873D-02-0.515D-01-0.597D-01 0.258D+00 0.854D+00
 Coeff:      0.162D-04-0.615D-06-0.166D-03-0.869D-04 0.429D-03 0.166D-02
 Coeff:      0.562D-02-0.873D-02-0.515D-01-0.597D-01 0.258D+00 0.854D+00
 Gap=     0.379 Goal=   None    Shift=    0.000
 RMSDP=4.19D-07 MaxDP=1.05D-05 DE=-5.78D-09 OVMax= 3.26D-05

 Cycle  13  Pass 1  IDiag  1:
 E= -1199.73573652181     Delta-E=       -0.000000001432 Rises=F Damp=F
 DIIS: error= 2.75D-07 at cycle  13 NSaved=  13.
 NSaved=13 IEnMin=13 EnMin= -1199.73573652181     IErMin=13 ErrMin= 2.75D-07
 ErrMax= 2.75D-07  0.00D+00 EMaxC= 1.00D+00 BMatC= 7.00D-11 BMatP= 6.23D-10
 IDIUse=1 WtCom= 1.00D+00 WtEn= 0.00D+00
 Coeff-Com:  0.110D-04 0.368D-06-0.945D-04-0.105D-03-0.449D-04 0.597D-03
 Coeff-Com:  0.378D-02 0.130D-02-0.139D-01-0.448D-01-0.478D-01 0.219D+00
 Coeff-Com:  0.882D+00
 Coeff:      0.110D-04 0.368D-06-0.945D-04-0.105D-03-0.449D-04 0.597D-03
 Coeff:      0.378D-02 0.130D-02-0.139D-01-0.448D-01-0.478D-01 0.219D+00
 Coeff:      0.882D+00
 Gap=     0.379 Goal=   None    Shift=    0.000
 RMSDP=1.56D-07 MaxDP=3.41D-06 DE=-1.43D-09 OVMax= 1.30D-05

 Cycle  14  Pass 1  IDiag  1:
 E= -1199.73573652204     Delta-E=       -0.000000000226 Rises=F Damp=F
 DIIS: error= 1.14D-07 at cycle  14 NSaved=  14.
 NSaved=14 IEnMin=14 EnMin= -1199.73573652204     IErMin=14 ErrMin= 1.14D-07
 ErrMax= 1.14D-07  0.00D+00 EMaxC= 1.00D+00 BMatC= 1.14D-11 BMatP= 7.00D-11
 IDIUse=1 WtCom= 1.00D+00 WtEn= 0.00D+00
 Coeff-Com:  0.989D-06 0.165D-07-0.565D-05-0.186D-04-0.564D-04-0.219D-04
 Coeff-Com:  0.303D-03 0.127D-02 0.260D-02-0.554D-02-0.481D-01-0.535D-01
 Coeff-Com:  0.263D+00 0.840D+00
 Coeff:      0.989D-06 0.165D-07-0.565D-05-0.186D-04-0.564D-04-0.219D-04
 Coeff:      0.303D-03 0.127D-02 0.260D-02-0.554D-02-0.481D-01-0.535D-01
 Coeff:      0.263D+00 0.840D+00
 Gap=     0.379 Goal=   None    Shift=    0.000
 RMSDP=5.52D-08 MaxDP=1.58D-06 DE=-2.26D-10 OVMax= 4.57D-06

 Cycle  15  Pass 1  IDiag  1:
 E= -1199.73573652208     Delta-E=       -0.000000000036 Rises=F Damp=F
 DIIS: error= 4.43D-08 at cycle  15 NSaved=  15.
 NSaved=15 IEnMin=15 EnMin= -1199.73573652208     IErMin=15 ErrMin= 4.43D-08
 ErrMax= 4.43D-08  0.00D+00 EMaxC= 1.00D+00 BMatC= 1.69D-12 BMatP= 1.14D-11
 IDIUse=1 WtCom= 1.00D+00 WtEn= 0.00D+00
 Coeff-Com: -0.124D-05-0.522D-07 0.119D-04 0.913D-05-0.107D-04-0.945D-04
 Coeff-Com: -0.476D-03 0.237D-03 0.325D-02 0.484D-02-0.123D-01-0.557D-01
 Coeff-Com: -0.314D-01 0.301D+00 0.791D+00
 Coeff:     -0.124D-05-0.522D-07 0.119D-04 0.913D-05-0.107D-04-0.945D-04
 Coeff:     -0.476D-03 0.237D-03 0.325D-02 0.484D-02-0.123D-01-0.557D-01
 Coeff:     -0.314D-01 0.301D+00 0.791D+00
 Gap=     0.379 Goal=   None    Shift=    0.000
 RMSDP=1.95D-08 MaxDP=5.12D-07 DE=-3.64D-11 OVMax= 1.59D-06

 Cycle  16  Pass 1  IDiag  1:
 E= -1199.73573652206     Delta-E=        0.000000000018 Rises=F Damp=F
 DIIS: error= 1.70D-08 at cycle  16 NSaved=  16.
 NSaved=16 IEnMin=15 EnMin= -1199.73573652208     IErMin=16 ErrMin= 1.70D-08
 ErrMax= 1.70D-08  0.00D+00 EMaxC= 1.00D+00 BMatC= 1.69D-13 BMatP= 1.69D-12
 IDIUse=1 WtCom= 1.00D+00 WtEn= 0.00D+00
 Coeff-Com: -0.435D-06-0.191D-07 0.411D-05 0.467D-05 0.196D-05-0.274D-04
 Coeff-Com: -0.183D-03-0.538D-04 0.825D-03 0.224D-02 0.531D-03-0.116D-01
 Coeff-Com: -0.338D-01 0.735D-02 0.253D+00 0.782D+00
 Coeff:     -0.435D-06-0.191D-07 0.411D-05 0.467D-05 0.196D-05-0.274D-04
 Coeff:     -0.183D-03-0.538D-04 0.825D-03 0.224D-02 0.531D-03-0.116D-01
 Coeff:     -0.338D-01 0.735D-02 0.253D+00 0.782D+00
 Gap=     0.379 Goal=   None    Shift=    0.000
 RMSDP=5.13D-09 MaxDP=1.82D-07 DE= 1.82D-11 OVMax= 3.32D-07

 SCF Done:  E(RwB97XD) =  -1199.73573652     A.U. after   16 cycles
            NFock= 16  Conv=0.51D-08     -V/T= 2.0019
 KE= 1.197410675556D+03 PE=-4.637488977321D+03 EE= 1.345760378031D+03
 Leave Link  502 at Fri May 23 05:21:39 2025, MaxMem=  3758096384 cpu:              67.1 elap:              13.6
 (Enter /apps/easybuild-2022/easybuild/software/Compiler/NVHPC/22.11-CUDA-11.7.0/Gaussian/g16c01-CUDA-11.7.0/g16/l508.exe)
 QCSCF skips out because SCF is already converged.
 Leave Link  508 at Fri May 23 05:21:39 2025, MaxMem=  3758096384 cpu:               0.0 elap:               0.0
 (Enter /apps/easybuild-2022/easybuild/software/Compiler/NVHPC/22.11-CUDA-11.7.0/Gaussian/g16c01-CUDA-11.7.0/g16/l701.exe)
 ... and contract with generalized density number  0.
 Compute integral first derivatives.
 R6Disp: Adding Grimme-D2 dispersion energy 1st derivatives to the gradient.
 Leave Link  701 at Fri May 23 05:21:39 2025, MaxMem=  3758096384 cpu:               0.3 elap:               0.1
 (Enter /apps/easybuild-2022/easybuild/software/Compiler/NVHPC/22.11-CUDA-11.7.0/Gaussian/g16c01-CUDA-11.7.0/g16/l702.exe)
 L702 exits ... SP integral derivatives will be done elsewhere.
 Leave Link  702 at Fri May 23 05:21:39 2025, MaxMem=  3758096384 cpu:               0.0 elap:               0.0
 (Enter /apps/easybuild-2022/easybuild/software/Compiler/NVHPC/22.11-CUDA-11.7.0/Gaussian/g16c01-CUDA-11.7.0/g16/l703.exe)
 Integral derivatives from FoFJK, PRISM(SPDF).
 Compute integral first derivatives, UseDBF=F ICtDFT=           0.
 Calling FoFJK, ICntrl=      2127 FMM=F ISym2X=0 I1Cent= 0 IOpClX= 0 NMat=1 NMatS=1 NMatT=0.
 FoFJK:  IHMeth= 1 ICntrl=    2127 DoSepK=T KAlg= 0 I1Cent=           0 FoldK=F
 IRaf=         1 NMat=       1 IRICut=       1 DoRegI=T DoRafI=F ISym2E= 0 IDoP0=0 IntGTp=1.
 FoFCou: FMM=F IPFlag=           0 FMFlag=      100000 FMFlg1=         800
         NFxFlg=           0 DoJE=F BraDBF=F KetDBF=F FulRan=T
         wScrn=  0.000000 ICntrl=      2527 IOpCl=  0 I1Cent=           0 NGrid=           0
         NMat0=    1 NMatS0=      1 NMatT0=    0 NMatD0=    1 NMtDS0=    0 NMtDT0=    0
 Symmetry not used in FoFCou.
 Leave Link  703 at Fri May 23 05:21:43 2025, MaxMem=  3758096384 cpu:              33.2 elap:               4.2
 (Enter /apps/easybuild-2022/easybuild/software/Compiler/NVHPC/22.11-CUDA-11.7.0/Gaussian/g16c01-CUDA-11.7.0/g16/l716.exe)
 Dipole        =-3.14937400D-01 2.95352156D-01-9.37628639D-02
 -------------------------------------------------------------------
 Center     Atomic                   Forces (Hartrees/Bohr)
 Number     Number              X              Y              Z
 -------------------------------------------------------------------
      1        6           0.001019432    0.001313129    0.000810904
      2        6           0.001761303   -0.001280824   -0.000219682
      3        9           0.000617587    0.000216435   -0.000079385
      4        9          -0.000143034   -0.000141388   -0.000064792
      5       16          -0.001392686    0.001703091    0.006071171
      6        8           0.000629820   -0.004378658   -0.000247040
      7        8          -0.001854852   -0.002216376   -0.000833421
      8        8           0.002179828    0.007345619   -0.004549009
      9        9          -0.000352389   -0.000360759   -0.000423250
     10        9           0.000138042   -0.000186068    0.000218751
     11        9          -0.000041784   -0.000104198   -0.000186471
     12        1          -0.002561267   -0.001910003   -0.000497777
 -------------------------------------------------------------------
 Cartesian Forces:  Max     0.007345619 RMS     0.002169932
 Leave Link  716 at Fri May 23 05:21:43 2025, MaxMem=  3758096384 cpu:               0.0 elap:               0.0
 (Enter /apps/easybuild-2022/easybuild/software/Compiler/NVHPC/22.11-CUDA-11.7.0/Gaussian/g16c01-CUDA-11.7.0/g16/l103.exe)

 GradGradGradGradGradGradGradGradGradGradGradGradGradGradGradGradGradGrad
 Berny optimization.
 Using GEDIIS/GDIIS optimizer.
 FormGI is forming the generalized inverse of G from B-inverse, IUseBI=4.
 Internal  Forces:  Max     0.006551367 RMS     0.001841507
 Search for a local minimum.
 Step number   2 out of a maximum of   56
 All quantities printed in internal units (Hartrees-Bohrs-Radians)
 RMS Force = .18415D-02 SwitMx=.10000D-02 MixMth= 1
 Mixed Optimization -- RFO/linear search
 Update second derivatives using D2CorX and points    1    2
 DE= -3.38D-03 DEPred=-6.61D-03 R= 5.12D-01
 TightC=F SS=  1.41D+00  RLast= 1.21D+00 DXNew= 5.0454D-01 3.6256D+00
 Trust test= 5.12D-01 RLast= 1.21D+00 DXMaxT set to 5.05D-01
 ITU=  1  0
 Use linear search instead of GDIIS.
     Eigenvalues ---   -0.00126   0.00225   0.00348   0.01268   0.05089
     Eigenvalues ---    0.07906   0.09051   0.09833   0.10190   0.12217
[...]
    D9       -3.10021  -0.00000   0.00000   0.00001   0.00001  -3.10020
   D10        1.70419  -0.00000   0.00000   0.00000   0.00000   1.70419
   D11       -2.62309   0.00000   0.00000   0.00000   0.00000  -2.62309
   D12       -0.38580  -0.00000   0.00000  -0.00000  -0.00000  -0.38580
   D13        1.57010   0.00000   0.00000   0.00000   0.00000   1.57010
   D14       -2.50160   0.00000   0.00000   0.00000   0.00000  -2.50160
   D15       -0.54569   0.00000   0.00000   0.00000   0.00000  -0.54569
   D16       -1.01048  -0.00000   0.00000  -0.00000  -0.00000  -1.01048
   D17        0.85758   0.00000   0.00000   0.00000   0.00000   0.85758
   D18       -1.50176   0.00000   0.00000   0.00001   0.00001  -1.50175
         Item               Value     Threshold  Converged?
 Maximum Force            0.000001     0.000015     YES
 RMS     Force            0.000000     0.000010     YES
 Maximum Displacement     0.000027     0.000060     YES
 RMS     Displacement     0.000009     0.000040     YES
 Predicted change in Energy=-2.649678D-11
 Optimization completed.
    -- Stationary point found.
                           ----------------------------
                           !   Optimized Parameters   !
                           ! (Angstroms and Degrees)  !
 --------------------------                            --------------------------
 ! Name  Definition              Value          Derivative Info.                !
 --------------------------------------------------------------------------------
 ! R1    R(1,2)                  1.5476         -DE/DX =    0.0                 !
 ! R2    R(1,9)                  1.331          -DE/DX =    0.0                 !
 ! R3    R(1,10)                 1.3338         -DE/DX =    0.0                 !
 ! R4    R(1,11)                 1.3259         -DE/DX =    0.0                 !
 ! R5    R(2,3)                  1.3268         -DE/DX =    0.0                 !
 ! R6    R(2,4)                  1.3334         -DE/DX =    0.0                 !
 ! R7    R(2,5)                  1.9338         -DE/DX =    0.0                 !
 ! R8    R(5,7)                  1.4637         -DE/DX =    0.0                 !
 ! R9    R(5,8)                  1.6741         -DE/DX =    0.0                 !
 ! R10   R(6,8)                  1.4206         -DE/DX =    0.0                 !
 ! R11   R(6,12)                 0.967          -DE/DX =    0.0                 !
 ! A1    A(2,1,9)              110.0558         -DE/DX =    0.0                 !
 ! A2    A(2,1,10)             109.4643         -DE/DX =    0.0                 !
 ! A3    A(2,1,11)             110.7807         -DE/DX =    0.0                 !
 ! A4    A(9,1,10)             108.5456         -DE/DX =    0.0                 !
 ! A5    A(9,1,11)             109.0295         -DE/DX =    0.0                 !
 ! A6    A(10,1,11)            108.9222         -DE/DX =    0.0                 !
 ! A7    A(1,2,3)              109.4426         -DE/DX =    0.0                 !
 ! A8    A(1,2,4)              108.5928         -DE/DX =    0.0                 !
 ! A9    A(1,2,5)              109.3777         -DE/DX =    0.0                 !
 ! A10   A(3,2,4)              110.4725         -DE/DX =    0.0                 !
 ! A11   A(3,2,5)              109.2072         -DE/DX =    0.0                 !
 ! A12   A(4,2,5)              109.7302         -DE/DX =    0.0                 !
 ! A13   A(2,5,7)              103.833          -DE/DX =    0.0                 !
 ! A14   A(2,5,8)               95.9588         -DE/DX =    0.0                 !
 ! A15   A(7,5,8)              109.7534         -DE/DX =    0.0                 !
 ! A16   A(8,6,12)             102.2901         -DE/DX =    0.0                 !
 ! A17   A(5,8,6)              112.1001         -DE/DX =    0.0                 !
 ! D1    D(9,1,2,3)             62.6238         -DE/DX =    0.0                 !
 ! D2    D(9,1,2,4)           -176.7072         -DE/DX =    0.0                 !
 ! D3    D(9,1,2,5)            -56.9789         -DE/DX =    0.0                 !
 ! D4    D(10,1,2,3)          -178.1578         -DE/DX =    0.0                 !
 ! D5    D(10,1,2,4)           -57.4888         -DE/DX =    0.0                 !
 ! D6    D(10,1,2,5)            62.2394         -DE/DX =    0.0                 !
 ! D7    D(11,1,2,3)           -58.0263         -DE/DX =    0.0                 !
 ! D8    D(11,1,2,4)            62.6427         -DE/DX =    0.0                 !
 ! D9    D(11,1,2,5)          -177.629          -DE/DX =    0.0                 !
 ! D10   D(1,2,5,7)             97.6428         -DE/DX =    0.0                 !
 ! D11   D(1,2,5,8)           -150.2921         -DE/DX =    0.0                 !
 ! D12   D(3,2,5,7)            -22.1048         -DE/DX =    0.0                 !
 ! D13   D(3,2,5,8)             89.9603         -DE/DX =    0.0                 !
 ! D14   D(4,2,5,7)           -143.3311         -DE/DX =    0.0                 !
 ! D15   D(4,2,5,8)            -31.2659         -DE/DX =    0.0                 !
 ! D16   D(2,5,8,6)            -57.8961         -DE/DX =    0.0                 !
 ! D17   D(7,5,8,6)             49.1358         -DE/DX =    0.0                 !
 ! D18   D(12,6,8,5)           -86.0444         -DE/DX =    0.0                 !
 --------------------------------------------------------------------------------
 GradGradGradGradGradGradGradGradGradGradGradGradGradGradGradGradGradGrad

 Leave Link  103 at Fri May 23 05:26:38 2025, MaxMem=  3758096384 cpu:               0.0 elap:               0.0
 (Enter /apps/easybuild-2022/easybuild/software/Compiler/NVHPC/22.11-CUDA-11.7.0/Gaussian/g16c01-CUDA-11.7.0/g16/l9999.exe)

 ----------------------------------------------------------------------

 Electric dipole moment (input orientation):
 (Debye = 10**-18 statcoulomb cm , SI units = C m)
                  (au)            (Debye)         (10**-30 SI)
   Tot        0.374986D+00      0.953119D+00      0.317926D+01
   x         -0.269288D+00     -0.684463D+00     -0.228312D+01
   y          0.256015D+00      0.650725D+00      0.217059D+01
   z         -0.505418D-01     -0.128464D+00     -0.428511D+00

 Dipole polarizability, Alpha (input orientation).
 (esu units = cm**3 , SI units = C**2 m**2 J**-1)
 Alpha(0;0):
               (au)            (10**-24 esu)      (10**-40 SI)
   iso        0.604310D+02      0.895496D+01      0.996373D+01
   aniso      0.123897D+02      0.183596D+01      0.204278D+01
   xx         0.673742D+02      0.998383D+01      0.111085D+02
   yx         0.130503D+01      0.193385D+00      0.215170D+00
   yy         0.539044D+02      0.798781D+01      0.888764D+01
   zx        -0.120134D+00     -0.178020D-01     -0.198074D-01
   zy         0.199041D+01      0.294949D+00      0.328175D+00
   zz         0.600145D+02      0.889323D+01      0.989505D+01

 ----------------------------------------------------------------------

 Dipole orientation:
     6          7.47010886         -4.08528983         -5.44743714
     6          4.94526790         -3.55389505         -4.07071897
     9          3.36999570         -2.39015332         -5.63608675
     9          3.96895945         -5.74790838         -3.30778947
    16          5.56929171         -1.40903819         -1.17852957
     8          0.80935461         -2.23121413         -0.65561062
     8          4.96001208          1.12900318         -2.09369504
     8          3.17905527         -2.51636668          0.57336918
     9          8.56062231         -1.91947308         -6.11578409
     9          9.02707536         -5.32234758         -3.89867582
     9          7.08957131         -5.47503611         -7.49728413
     1          0.32735375         -0.53348917         -0.18196280

 Electric dipole moment (dipole orientation):
 (Debye = 10**-18 statcoulomb cm , SI units = C m)
                  (au)            (Debye)         (10**-30 SI)
   Tot        0.374986D+00      0.953119D+00      0.317926D+01
   x          0.000000D+00      0.000000D+00      0.000000D+00
   y          0.000000D+00      0.000000D+00      0.000000D+00
   z          0.374986D+00      0.953119D+00      0.317926D+01

 Dipole polarizability, Alpha (dipole orientation).
 (esu units = cm**3 , SI units = C**2 m**2 J**-1)
 Alpha(0;0):
               (au)            (10**-24 esu)      (10**-40 SI)
   iso        0.604310D+02      0.895496D+01      0.996373D+01
   aniso      0.123897D+02      0.183596D+01      0.204278D+01
   xx         0.605385D+02      0.897088D+01      0.998145D+01
   yx        -0.579723D+00     -0.859062D-01     -0.955835D-01
   yy         0.614620D+02      0.910773D+01      0.101337D+02
   zx        -0.574941D+01     -0.851975D+00     -0.947950D+00
   zy         0.407323D+01      0.603590D+00      0.671584D+00
   zz         0.592927D+02      0.878627D+01      0.977604D+01

 ----------------------------------------------------------------------
 Unable to Open any file for archive entry.
 1\1\GINC-SPARTAN-BM144\Freq\RwB97XD\6-311++G(d,p)\C2H1F5O3S1\AKHALILOV
 \23-May-2025\0\\#P Geom=AllCheck Guess=TCheck SCRF=Check GenChk RwB97X
 D/6-311++G(d,p) Freq\\Gaussian input prepared by ASE\\0,1\C,5.16069911
 9,1.0136819579,-0.9742796052\C,3.787132703,0.768110757,-0.3049743881\F
 ,3.661164939,-0.5204658385,-0.0151386096\F,3.7169832462,1.5046495982,0
 .8042921271\S,2.3778103783,1.2869001693,-1.5233053577\O,0.9929277204,0
 .6439030881,0.5452993138\O,1.9694136015,0.0255684182,-2.1434548981\O,1
 .2751960178,1.7186259706,-0.339863139\F,5.2343219774,0.3462177408,-2.1
 235050241\F,5.3044555421,2.3149343906,-1.2294863625\F,6.147564004,0.61
 94360093,-0.1813683647\H,0.2856265,0.1754521178,0.0813205509\\Version=
 ES64L-G16RevC.01\HF=-1199.7390791\RMSD=2.899e-09\RMSF=2.257e-06\ZeroPo
 int=0.0497302\Thermal=0.0608759\ETot=-1199.6782032\HTot=-1199.677259\G
 Tot=-1199.7274122\Dipole=-0.2692883,0.256015,-0.0505418\DipoleDeriv=1.
 7326202,-0.0637294,0.2448015,0.0215841,1.6276599,0.0470828,-0.068088,0
 .0218148,1.4740787,0.6642895,0.0077553,0.0029091,-0.0862426,1.167477,0
 .0536415,0.2865199,0.0805282,1.0348595,-0.3453803,-0.0250059,-0.021362
 4,0.1846764,-0.8222677,0.2250655,-0.0821631,0.2281569,-0.320207,-0.357
 8017,-0.0024317,-0.0326671,-0.078087,-0.4034116,-0.2738229,-0.1956398,
 -0.313319,-0.8091086,1.12967,0.0421365,-0.0115257,0.0660567,0.9534535,
 0.6071742,-0.0311514,0.2440022,1.3203953,-0.3227525,0.0409179,0.254353
 6,-0.1009432,-0.2061621,0.133471,0.2494002,-0.1048401,-0.1851568,-0.56
 19725,-0.1534363,-0.2241322,-0.2269682,-0.7481427,-0.6183505,-0.125431
 6,-0.0716942,-0.6846242,-0.5504793,0.1049797,0.0916698,0.1578132,-0.23
 48766,-0.1660425,0.1595045,-0.0673768,-0.4937879,-0.4046342,0.0489906,
 0.1043731,0.0192056,-0.4199469,-0.2335387,0.0755858,-0.2804489,-0.7188
 668,-0.419818,-0.1450154,0.0306579,-0.0976771,-0.8733348,0.0929273,0.0
 535561,0.1480991,-0.2964382,-0.9370532,0.1531045,-0.3494486,0.1412624,
 -0.3272547,0.1160472,-0.2558348,0.1138892,-0.495165,0.3733122,-0.00826
 58,-0.0896291,-0.0006803,0.2868068,0.0163451,-0.0662578,0.0011886,0.17
 4021\Polar=67.3742028,1.3050283,53.9044191,-0.1201338,1.9904136,60.014
 503\PG=Unknown\NImag=0\\0.59450289,0.00315211,0.54580819,-0.01326166,-
 0.00206233,0.55749173,-0.16690882,-0.00944091,0.02840126,0.41746616,-0
 .02348089,-0.04200158,0.01381638,0.02643690,0.53673243,0.06403962,0.01
 375402,-0.07312458,-0.05646555,0.00496449,0.51001278,0.00332268,-0.033
 71187,0.00804260,-0.07361167,-0.02261681,0.01046511,0.06739585,0.00210
 022,-0.03798254,0.00757629,-0.03885071,-0.29267033,0.07809967,0.042991
 88,0.40482506,-0.00516070,0.02223674,-0.00282361,0.01695908,0.07047909
 ,-0.09270331,-0.01301108,-0.07082662,0.08665874,0.00403932,0.01717950,
 0.02868302,-0.07023458,0.00331027,0.01348982,0.00948428,0.00015853,-0.
 00432457,0.06615068,0.00078433,-0.00841307,-0.01242056,0.01230801,-0.1
 1742486,-0.09862603,-0.00138927,-0.06117945,-0.04442663,-0.01157154,0.
 17597592,-0.00677833,-0.02530796,-0.03634726,0.02666408,-0.09648482,-0
 .25944286,-0.00338861,-0.02508545,0.01164453,-0.02731275,0.15835012,0.
 30523429,-0.02622596,0.00317168,-0.00934006,-0.05401638,0.03391582,-0.
 03847093,-0.00102188,-0.00023734,-0.00273605,0.00107703,-0.00116826,0.
 00543612,0.26888012,0.00012264,0.01397649,0.00296115,-0.01448592,-0.03
 824480,0.01826881,0.02246788,-0.03923570,0.02412610,-0.00179644,0.0030
 1002,-0.01042543,0.11470618,0.59723543,-0.00629961,-0.00558149,0.02691
 243,0.01173746,0.03877758,-0.05639034,-0.01574686,0.01116903,-0.011040
 33,-0.01390282,-0.00782514,-0.02168973,0.02037873,0.13089250,0.3216336
 0,0.00094831,-0.00068985,0.00202835,0.00519034,0.00191238,-0.00293728,
 -0.00340984,-0.00054781,0.00130625,-0.00255882,-0.00177263,-0.00196268
 ,-0.00966020,-0.02173421,0.02869805,0.34146575,0.00059965,-0.00044405,
 0.00011815,0.00144962,-0.00158162,0.00252309,0.00055133,0.00329397,-0.
 00179797,-0.00084130,-0.00118369,-0.00187070,-0.01667705,-0.00517531,0
 .01508003,0.22161143,0.28959616,-0.00141343,0.00040470,-0.00095936,-0.
 00556593,-0.00369960,-0.00048697,0.00239272,-0.00187630,0.00139867,0.0
 0012760,0.00129284,0.00240176,0.03074729,0.02013989,-0.04336738,0.1616
 9642,-0.00713616,0.29996825,0.00323352,0.00274794,-0.00145884,-0.00145
 357,-0.02149513,-0.00177966,0.00153023,-0.00093673,0.00180796,-0.00343
 507,-0.00092872,-0.00783167,-0.09535919,-0.13617298,-0.06506340,0.0023
 4564,0.00440640,-0.00497159,0.08682802,0.00397822,-0.00299472,-0.00956
 578,0.00403684,-0.00979748,0.00253652,-0.00052474,0.01654541,-0.002347
 87,-0.00438336,-0.00176575,-0.00575700,-0.13321245,-0.45785123,-0.1924
 3701,0.00331020,0.00948811,-0.00079370,0.13403379,0.45267857,0.0034148
 1,0.00302288,-0.01078040,-0.01446242,-0.02233264,0.00070876,0.00361548
 ,-0.00303865,0.00360057,-0.00396559,-0.00182843,-0.00864053,-0.0530756
 4,-0.15520278,-0.13528227,-0.00441995,-0.00334457,0.00626008,0.0702592
 3,0.21317646,0.15103780,0.00395905,0.00307734,-0.00795186,-0.02304366,
 -0.00154068,0.02327672,0.00114609,0.00464247,-0.00304307,0.00030906,0.
 00179723,0.00094887,-0.08616373,0.04255198,0.02914771,-0.05305524,-0.0
 2649753,-0.00704359,0.01001269,-0.00368966,0.00476353,0.15123178,-0.00
 091259,-0.00359632,0.00537335,0.01728517,0.00184185,-0.01725589,-0.001
 60463,-0.00133499,0.00109716,-0.00282608,0.00212325,0.00280091,0.00050
 435,-0.06816728,0.00798778,-0.04430339,-0.17114339,0.07292084,0.020750
 72,-0.00844897,-0.03049121,0.00639433,0.27362295,-0.00099226,0.0000473
 1,-0.00278026,-0.00378289,-0.00106963,0.00029981,0.00054933,0.00003722
 ,0.00110960,-0.00231769,0.00308308,0.00423095,0.04138539,-0.03602491,-
 0.07105705,0.02827027,0.11598290,-0.10077349,0.01237052,-0.00652296,-0
 .01360642,-0.07524060,-0.06985275,0.17983180,-0.09146154,0.01466073,0.
 03543802,0.00757516,0.01721895,0.02459784,-0.00086573,-0.00158840,0.00
 038322,-0.00702650,0.00119711,0.00804719,0.00209157,-0.00131687,0.0000
 1228,-0.00027549,-0.00014251,0.00024850,-0.00225398,0.00015510,-0.0002
 8024,-0.00026986,0.00007695,0.00015482,0.07524563,0.01867455,-0.118469
 53,-0.08550824,-0.00284028,-0.00421370,-0.00911855,0.00140561,0.005509
 10,0.00028580,0.00189192,0.00146347,-0.00010919,-0.00080959,-0.0035393
 1,-0.00205050,0.00000760,0.00012212,-0.00005750,-0.00039828,0.00243284
 ,0.00102122,0.00003576,0.00040042,0.00047510,-0.01272413,0.16729312,0.
 04210743,-0.08009011,-0.23673027,-0.00367295,-0.02514787,-0.02724749,0
 .00125944,0.00297122,0.00159346,0.00893270,-0.00057307,-0.00525696,-0.
 00030968,-0.00326950,-0.00711061,-0.00039049,-0.00007499,0.00017536,0.
 00043381,0.00419820,0.00383755,0.00123996,-0.00042971,0.00090439,-0.01
 496588,0.14828704,0.32917166,-0.09520834,-0.04404389,0.01520711,0.0051
 4038,-0.03143698,0.00384434,-0.00748417,-0.00589089,0.00514268,-0.0007
 0418,0.00057965,0.00159930,0.00079287,0.00070307,-0.00003418,-0.000348
 31,-0.00010913,0.00049485,-0.00042187,-0.00101422,-0.00017291,-0.00077
 958,-0.00011018,0.00022036,0.01423746,0.00186437,-0.00282585,0.0786640
 6,-0.05191657,-0.25608301,0.04942206,0.00193665,-0.03399061,0.00079046
 ,-0.00750320,-0.00177636,0.00334269,-0.00072422,0.00588370,0.00302696,
 0.00071645,-0.00345027,0.00254553,0.00018181,0.00025829,0.00012255,-0.
 00073922,0.00075145,-0.00124897,-0.00140825,0.00141897,-0.00010852,-0.
 00469844,-0.06579844,-0.03261347,0.03701791,0.39605706,0.01591955,0.04
 358469,-0.08757231,0.00162877,0.01793972,0.00189303,0.00462769,0.00317
 870,-0.00169019,0.00026719,0.00181918,0.00201029,-0.00003282,0.0001439
 4,-0.00334633,-0.00027635,-0.00018463,0.00016392,0.00022263,0.00079381
 ,0.00134987,0.00088853,-0.00074513,0.00043037,-0.00622514,-0.04826432,
 0.00506937,-0.00372651,-0.05977588,0.09116830,-0.22920502,0.04413907,-
 0.08609479,-0.04561568,0.01871161,-0.03855609,0.00316161,-0.00201182,0
 .00249419,0.00283284,-0.00020985,0.00361016,0.00416189,-0.00149877,0.0
 0977082,0.00025256,-0.00054772,0.00030089,-0.00228725,-0.00344138,-0.0
 0374986,-0.00433968,0.00264555,-0.00008803,0.00278159,-0.00710889,-0.0
 3174578,0.00583475,0.02691590,-0.01322519,0.26186029,0.04724185,-0.089
 87601,0.02993026,0.00272578,0.00055736,0.00389908,-0.00035428,0.005153
 59,-0.00244815,-0.00077034,0.00158977,0.00139888,-0.00096617,-0.001134
 74,-0.00020983,0.00005212,0.00018017,-0.00008154,0.00016167,0.00077438
 ,-0.00005610,0.00030939,0.00007362,-0.00006803,-0.01291705,0.01489657,
 -0.01308966,0.04239064,-0.04323136,0.04154446,-0.07784082,0.11108163,-
 0.09177535,0.02977228,-0.13325315,-0.00180767,0.00263453,-0.00269173,0
 .00126359,-0.00206014,0.00212381,0.00067286,0.00119859,0.00562336,0.00
 200445,-0.00078263,-0.00167743,-0.00028433,-0.00026671,0.00023859,-0.0
 0045397,0.00052452,0.00086735,-0.00006851,0.00005609,0.00057428,-0.047
 32065,-0.00493490,-0.06444966,-0.01969480,0.03463213,-0.00953771,0.157
 35131,-0.06078645,0.20218101,-0.00099609,-0.00024185,0.00030686,-0.000
 48767,-0.00093544,-0.00150395,0.00035256,0.00017058,0.00018210,0.00006
 594,0.00037395,0.00096833,-0.00455615,-0.00354656,0.00130183,-0.280894
 71,-0.18380317,-0.17701373,0.00126083,0.00075167,-0.00192644,0.0009930
 7,0.00209981,-0.00052923,0.00022169,0.00000135,-0.00006272,0.00027693,
 0.00022118,-0.00006835,0.00056208,-0.00003279,0.00011308,0.28320151,-0
 .00034350,0.00007615,0.00035927,-0.00056115,0.00079334,0.00016432,0.00
 028811,-0.00114775,0.00027965,0.00037306,-0.00007931,-0.00053633,0.000
 05638,0.00257669,0.00165152,-0.15802764,-0.12341074,-0.08123601,-0.001
 42947,-0.00181262,0.00032282,-0.02567238,-0.02679012,-0.00597879,0.000
 07857,-0.00009665,-0.00016808,0.00004965,-0.00003940,-0.00003453,0.000
 24712,-0.00006498,0.00001270,0.18494127,0.14999539,0.00019994,0.000219
 26,-0.00003297,0.00036675,0.00012277,-0.00082710,-0.00006941,-0.000144
 97,0.00012805,-0.00034976,-0.00004395,0.00023215,0.00401320,0.00917287
 ,0.00241543,-0.21172827,-0.11902843,-0.16501945,-0.00353501,-0.0038052
 0,0.00064764,0.03308231,0.02853857,0.00083602,-0.00008997,-0.00002596,
 0.00004320,-0.00005439,-0.00013553,0.00006138,-0.00006761,-0.00003291,
 0.00000128,0.17823223,0.08516348,0.16151437\\-0.00000049,-0.00000145,-
 0.00000281,0.00000012,0.00000134,0.00000040,-0.00000011,0.00000034,0.0
 0000083,0.00000319,0.00000181,-0.00000199,-0.00000091,0.00000040,0.000
 00086,0.00000139,0.00000271,0.00000406,-0.00000292,-0.00000275,0.00000
 311,0.00000120,0.00000043,0.00000115,-0.00000218,-0.00000292,-0.000002
 09,-0.00000038,-0.00000162,-0.00000514,0.00000052,-0.00000044,-0.00000
 382,0.00000059,0.00000218,0.00000545\\\@
 The archive entry for this job was punched.


 SOME THINGS ARE EASY, THEY ARE ONLY HARD TO DO.
            -- A. EINSTEIN TO J. O. HIRSCHFELDER
 THE ONLY TROUBLE WITH A SURE THING IS THE UNCERTAINTY.
     -- FROM A TEABAG (BELONGING TO W.H.?)
 Job cpu time:       0 days  0 hours 10 minutes  1.9 seconds.
 Elapsed time:       0 days  0 hours  1 minutes 17.1 seconds.
 File lengths (MBytes):  RWF=     99 Int=      0 D2E=      0 Chk=      6 Scr=      1
 Normal termination of Gaussian 16 at Fri May 23 05:26:38 2025.
done
