 Entering Gaussian System, Link 0=g16
 Initial command:
 /apps/easybuild-2022/easybuild/software/Compiler/NVHPC/22.11-CUDA-11.7.0/Gaussian/g16c01-CUDA-11.7.0/g16/l1.exe "/tmp/Gau-3265.inp" -scrdir="/tmp/"
 Entering Link 1 = /apps/easybuild-2022/easybuild/software/Compiler/NVHPC/22.11-CUDA-11.7.0/Gaussian/g16c01-CUDA-11.7.0/g16/l1.exe PID=      3267.
  
 Copyright (c) 1988-2019, Gaussian, Inc.  All Rights Reserved.
  
 This is part of the Gaussian(R) 16 program.  It is based on
 the Gaussian(R) 09 system (copyright 2009, Gaussian, Inc.),
 the Gaussian(R) 03 system (copyright 2003, Gaussian, Inc.),
 the Gaussian(R) 98 system (copyright 1998, Gaussian, Inc.),
 the Gaussian(R) 94 system (copyright 1995, Gaussian, Inc.),
 the Gaussian 92(TM) system (copyright 1992, Gaussian, Inc.),
 the Gaussian 90(TM) system (copyright 1990, Gaussian, Inc.),
 the Gaussian 88(TM) system (copyright 1988, Gaussian, Inc.),
 the Gaussian 86(TM) system (copyright 1986, Carnegie Mellon
 University), and the Gaussian 82(TM) system (copyright 1983,
 Carnegie Mellon University). Gaussian is a federally registered
 trademark of Gaussian, Inc.
  
 This software contains proprietary and confidential information,
 including trade secrets, belonging to Gaussian, Inc.
  
 This software is provided under written license and may be
 used, copied, transmitted, or stored only in accord with that
 written license.
  
 The following legend is applicable only to US Government
 contracts under FAR:
  
                    RESTRICTED RIGHTS LEGEND
  
 Use, reproduction and disclosure by the US Government is
 subject to restrictions as set forth in subparagraphs (a)
 and (c) of the Commercial Computer Software - Restricted
 Rights clause in FAR 52.227-19.
  
 Gaussian, Inc.
 340 Quinnipiac St., Bldg. 40, Wallingford CT 06492
  
  
 ---------------------------------------------------------------
 Warning -- This program may not be used in any manner that
 competes with the business of Gaussian, Inc. or will provide
 assistance to any competitor of Gaussian, Inc.  The licensee
 of this program is prohibited from giving any competitor of
 Gaussian, Inc. access to this program.  By using this program,
 the user acknowledges that Gaussian, Inc. is engaged in the
 business of creating and licensing software in the field of
 computational chemistry and represents and warrants to the
 licensee that it is not a competitor of Gaussian, Inc. and that
 it will not use this program in any manner prohibited above.
 ---------------------------------------------------------------
  

 Cite this work as:
 Gaussian 16, Revision C.01,
 M. J. Frisch, G. W. Trucks, H. B. Schlegel, G. E. Scuseria, 
 M. A. Robb, J. R. Cheeseman, G. Scalmani, V. Barone, 
 G. A. Petersson, H. Nakatsuji, X. Li, M. Caricato, A. V. Marenich, 
 J. Bloino, B. G. Janesko, R. Gomperts, B. Mennucci, H. P. Hratchian, 
 J. V. Ortiz, A. F. Izmaylov, J. L. Sonnenberg, D. Williams-Young, 
 F. Ding, F. Lipparini, F. Egidi, J. Goings, B. Peng, A. Petrone, 
 T. Henderson, D. Ranasinghe, V. G. Zakrzewski, J. Gao, N. Rega, 
 G. Zheng, W. Liang, M. Hada, M. Ehara, K. Toyota, R. Fukuda, 
 J. Hasegawa, M. Ishida, T. Nakajima, Y. Honda, O. Kitao, H. Nakai, 
 T. Vreven, K. Throssell, J. A. Montgomery, Jr., J. E. Peralta, 
 F. Ogliaro, M. J. Bearpark, J. J. Heyd, E. N. Brothers, K. N. Kudin, 
 V. N. Staroverov, T. A. Keith, R. Kobayashi, J. Normand, 
 K. Raghavachari, A. P. Rendell, J. C. Burant, S. S. Iyengar, 
 J. Tomasi, M. Cossi, J. M. Millam, M. Klene, C. Adamo, R. Cammi, 
 J. W. Ochterski, R. L. Martin, K. Morokuma, O. Farkas, 
 J. B. Foresman, and D. J. Fox, Gaussian, Inc., Wallingford CT, 2019.
 
 ******************************************
 Gaussian 16:  ES64L-G16RevC.01  3-Jul-2019
                23-May-2025 
 ******************************************
 %mem=28GB
 %nprocshared=8
 Will use up to    8 processors via shared memory.
 ----------------------------------------------------------------------
 #P wb97xd/6-311++G(d,p) Symm(None) scf(xqc) pop(None) freq opt(CalcFC,
  Tight)
 ----------------------------------------------------------------------
 1/7=10,10=4,18=20,19=15,26=3,38=1/1,3;
 2/9=110,12=2,15=3,17=6,18=5,40=1/2;
 3/5=4,6=6,7=1111,11=2,25=1,30=1,71=2,74=-58,140=1/1,2,3;
 4//1;
 5/5=2,8=3,13=1,38=5/2,8;
 8/6=4,10=90,11=11/1;
 11/6=1,8=1,9=11,15=111,16=1,31=1/1,2,10;
 10/6=1,13=1,31=1/2;
 7/10=1,25=1,30=1/1,2,3,16;
 1/7=10,10=4,18=20,19=15,26=3/3(2);
 2/9=110,15=3/2;
 99//99;
 2/9=110,15=3/2;
 3/5=4,6=6,7=1111,11=2,25=1,30=1,71=1,74=-58/1,2,3;
 4/5=5,16=3,69=1/1;
 5/5=2,8=3,13=1,38=5/2,8;
 7/30=1/1,2,3,16;
 1/7=10,18=20,19=15,26=3/3(-5);
 2/9=110,15=3/2;
 99/9=1/99;
 Leave Link    1 at Fri May 23 05:15:24 2025, MaxMem=  3758096384 cpu:               0.0 elap:               0.0
 (Enter /apps/easybuild-2022/easybuild/software/Compiler/NVHPC/22.11-CUDA-11.7.0/Gaussian/g16c01-CUDA-11.7.0/g16/l101.exe)
 ------------------------------
 Gaussian input prepared by ASE
 ------------------------------
 Symbolic Z-matrix:
 Charge =  0 Multiplicity = 1
 C                     4.11847   1.93293   1.02405 
 C                     3.83776   0.99234  -0.1772 
 F                     4.9424    0.87454  -0.90904 
 F                     3.47033  -0.20439   0.29362 
 S                     2.38057   1.65272  -1.23132 
 O                     0.96567   0.        0. 
 O                     2.21717   0.6545   -2.28539 
 O                     1.24224   1.39434   0. 
 F                     4.65453   3.07281   0.61952 
 F                     2.96935   2.19296   1.65526 
 F                     4.94886   1.34331   1.87656 
 H                     0.        0.        0. 
 
 ITRead=  0  0  0  0  0  0  0  0  0  0  0  0
 MicOpt= -1 -1 -1 -1 -1 -1 -1 -1 -1 -1 -1 -1
 NAtoms=     12 NQM=       12 NQMF=       0 NMMI=      0 NMMIF=      0
                NMic=       0 NMicF=      0.
                    Isotopes and Nuclear Properties:
 (Nuclear quadrupole moments (NQMom) in fm**2, nuclear magnetic moments (NMagM)
  in nuclear magnetons)

  Atom         1           2           3           4           5           6           7           8           9          10
 IAtWgt=          12          12          19          19          32          16          16          16          19          19
 AtmWgt=  12.0000000  12.0000000  18.9984032  18.9984032  31.9720718  15.9949146  15.9949146  15.9949146  18.9984032  18.9984032
 NucSpn=           0           0           1           1           0           0           0           0           1           1
 AtZEff=  -0.0000000  -0.0000000  -0.0000000  -0.0000000  -0.0000000  -0.0000000  -0.0000000  -0.0000000  -0.0000000  -0.0000000
 NQMom=    0.0000000   0.0000000   0.0000000   0.0000000   0.0000000   0.0000000   0.0000000   0.0000000   0.0000000   0.0000000
 NMagM=    0.0000000   0.0000000   2.6288670   2.6288670   0.0000000   0.0000000   0.0000000   0.0000000   2.6288670   2.6288670
 AtZNuc=   6.0000000   6.0000000   9.0000000   9.0000000  16.0000000   8.0000000   8.0000000   8.0000000   9.0000000   9.0000000

  Atom        11          12
 IAtWgt=          19           1
 AtmWgt=  18.9984032   1.0078250
 NucSpn=           1           1
 AtZEff=  -0.0000000  -0.0000000
 NQMom=    0.0000000   0.0000000
 NMagM=    2.6288670   2.7928460
 AtZNuc=   9.0000000   1.0000000
 Leave Link  101 at Fri May 23 05:15:24 2025, MaxMem=  3758096384 cpu:               0.2 elap:               0.2
 (Enter /apps/easybuild-2022/easybuild/software/Compiler/NVHPC/22.11-CUDA-11.7.0/Gaussian/g16c01-CUDA-11.7.0/g16/l103.exe)

 GradGradGradGradGradGradGradGradGradGradGradGradGradGradGradGradGradGrad
 Berny optimization.
 Initialization pass.
                           ----------------------------
                           !    Initial Parameters    !
                           ! (Angstroms and Degrees)  !
 --------------------------                            --------------------------
 ! Name  Definition              Value          Derivative Info.                !
 --------------------------------------------------------------------------------
 ! R1    R(1,2)                  1.5513         calculate D2E/DX2 analytically  !
 ! R2    R(1,9)                  1.323          calculate D2E/DX2 analytically  !
 ! R3    R(1,10)                 1.3366         calculate D2E/DX2 analytically  !
 ! R4    R(1,11)                 1.3281         calculate D2E/DX2 analytically  !
 ! R5    R(2,3)                  1.3303         calculate D2E/DX2 analytically  !
 ! R6    R(2,4)                  1.3375         calculate D2E/DX2 analytically  !
 ! R7    R(2,5)                  1.9159         calculate D2E/DX2 analytically  !
 ! R8    R(5,7)                  1.4609         calculate D2E/DX2 analytically  !
 ! R9    R(5,8)                  1.6967         calculate D2E/DX2 analytically  !
 ! R10   R(6,8)                  1.4215         calculate D2E/DX2 analytically  !
 ! R11   R(6,12)                 0.9657         calculate D2E/DX2 analytically  !
 ! A1    A(2,1,9)              111.036          calculate D2E/DX2 analytically  !
 ! A2    A(2,1,10)             109.1519         calculate D2E/DX2 analytically  !
 ! A3    A(2,1,11)             109.9378         calculate D2E/DX2 analytically  !
 ! A4    A(9,1,10)             108.9736         calculate D2E/DX2 analytically  !
 ! A5    A(9,1,11)             108.9918         calculate D2E/DX2 analytically  !
 ! A6    A(10,1,11)            108.7087         calculate D2E/DX2 analytically  !
 ! A7    A(1,2,3)              109.2341         calculate D2E/DX2 analytically  !
 ! A8    A(1,2,4)              108.6414         calculate D2E/DX2 analytically  !
 ! A9    A(1,2,5)              110.7739         calculate D2E/DX2 analytically  !
 ! A10   A(3,2,4)              110.0321         calculate D2E/DX2 analytically  !
 ! A11   A(3,2,5)              111.0636         calculate D2E/DX2 analytically  !
 ! A12   A(4,2,5)              107.0466         calculate D2E/DX2 analytically  !
 ! A13   A(2,5,7)              104.2723         calculate D2E/DX2 analytically  !
 ! A14   A(2,5,8)               93.3541         calculate D2E/DX2 analytically  !
 ! A15   A(7,5,8)              110.1532         calculate D2E/DX2 analytically  !
 ! A16   A(8,6,12)             101.219          calculate D2E/DX2 analytically  !
 ! A17   A(5,8,6)              106.2548         calculate D2E/DX2 analytically  !
 ! D1    D(9,1,2,3)             51.6637         calculate D2E/DX2 analytically  !
 ! D2    D(9,1,2,4)            171.7024         calculate D2E/DX2 analytically  !
 ! D3    D(9,1,2,5)            -70.9841         calculate D2E/DX2 analytically  !
 ! D4    D(10,1,2,3)           171.8175         calculate D2E/DX2 analytically  !
 ! D5    D(10,1,2,4)           -68.1438         calculate D2E/DX2 analytically  !
 ! D6    D(10,1,2,5)            49.1698         calculate D2E/DX2 analytically  !
 ! D7    D(11,1,2,3)           -69.0272         calculate D2E/DX2 analytically  !
 ! D8    D(11,1,2,4)            51.0115         calculate D2E/DX2 analytically  !
 ! D9    D(11,1,2,5)           168.325          calculate D2E/DX2 analytically  !
 ! D10   D(1,2,5,7)           -178.4934         calculate D2E/DX2 analytically  !
 ! D11   D(1,2,5,8)            -66.7147         calculate D2E/DX2 analytically  !
 ! D12   D(3,2,5,7)             59.9284         calculate D2E/DX2 analytically  !
 ! D13   D(3,2,5,8)            171.7071         calculate D2E/DX2 analytically  !
 ! D14   D(4,2,5,7)            -60.2061         calculate D2E/DX2 analytically  !
 ! D15   D(4,2,5,8)             51.5726         calculate D2E/DX2 analytically  !
 ! D16   D(2,5,8,6)            -77.5573         calculate D2E/DX2 analytically  !
 ! D17   D(7,5,8,6)             28.9758         calculate D2E/DX2 analytically  !
 ! D18   D(12,6,8,5)          -130.8922         calculate D2E/DX2 analytically  !
 --------------------------------------------------------------------------------
 Trust Radius=3.00D-01 FncErr=1.00D-07 GrdErr=1.00D-06 EigMax=2.50D+02 EigMin=1.00D-04
 Number of steps in this run=     56 maximum allowed number of steps=    100.
 GradGradGradGradGradGradGradGradGradGradGradGradGradGradGradGradGradGrad

 Leave Link  103 at Fri May 23 05:15:24 2025, MaxMem=  3758096384 cpu:               0.0 elap:               0.0
 (Enter /apps/easybuild-2022/easybuild/software/Compiler/NVHPC/22.11-CUDA-11.7.0/Gaussian/g16c01-CUDA-11.7.0/g16/l202.exe)
                          Input orientation:                          
 ---------------------------------------------------------------------
 Center     Atomic      Atomic             Coordinates (Angstroms)
 Number     Number       Type             X           Y           Z
 ---------------------------------------------------------------------
      1          6           0        4.118474    1.932934    1.024046
      2          6           0        3.837761    0.992336   -0.177204
      3          9           0        4.942396    0.874539   -0.909043
      4          9           0        3.470333   -0.204390    0.293620
      5         16           0        2.380569    1.652715   -1.231318
      6          8           0        0.965673    0.000000    0.000000
      7          8           0        2.217166    0.654499   -2.285391
      8          8           0        1.242239    1.394335    0.000000
      9          9           0        4.654533    3.072811    0.619518
     10          9           0        2.969353    2.192960    1.655261
     11          9           0        4.948857    1.343311    1.876556
     12          1           0        0.000000    0.000000    0.000000
 ---------------------------------------------------------------------
                    Distance matrix (angstroms):
                    1          2          3          4          5
     1  C    0.000000
     2  C    1.551298   0.000000
     3  F    2.352845   1.330294   0.000000
     4  F    2.349843   1.337472   2.185738   0.000000
     5  S    2.861032   1.915899   2.696735   2.638534   0.000000
     6  O    3.837324   3.043850   4.171990   2.530081   2.499908
     7  O    4.025139   2.680470   3.060985   2.993229   1.460892
     8  O    3.100240   2.632440   3.845479   2.757995   1.696673
     9  F    1.322998   2.372817   2.692910   3.499798   3.257788
    10  F    1.336609   2.356599   3.493821   2.802202   2.995142
    11  F    1.328143   2.361281   2.824774   2.662160   4.043602
    12  H    4.663339   3.967939   5.100829   3.488725   3.148765
                    6          7          8          9         10
     6  O    0.000000
     7  O    2.686562   0.000000
     8  O    1.421499   2.592461   0.000000
     9  F    4.840832   4.497499   3.852899   0.000000
    10  F    3.400544   4.296672   2.522026   2.164886   0.000000
    11  F    4.603444   5.025774   4.154887   2.158227   2.165482
    12  H    0.965673   3.250724   1.867439   5.611653   4.045494
                   11         12
    11  F    0.000000
    12  H    5.460507   0.000000
 Symmetry turned off by external request.
 Stoichiometry    C2HF5O3S
 Rotational constants (GHZ):           1.5240836           0.8174187           0.7384691
 Leave Link  202 at Fri May 23 05:15:24 2025, MaxMem=  3758096384 cpu:               0.0 elap:               0.0
 (Enter /apps/easybuild-2022/easybuild/software/Compiler/NVHPC/22.11-CUDA-11.7.0/Gaussian/g16c01-CUDA-11.7.0/g16/l301.exe)
 Standard basis: 6-311++G(d,p) (5D, 7F)
 Ernie: Thresh=  0.10000D-02 Tol=  0.10000D-05 Strict=F.
   257 basis functions,   419 primitive gaussians,   268 cartesian basis functions
    49 alpha electrons       49 beta electrons
       nuclear repulsion energy       903.6691999735 Hartrees.
 IExCor= 4639 DFT=T Ex+Corr=wB97XD ExCW=0 ScaHFX=  1.000000
 ScaDFX=  1.000000  1.000000  1.000000  1.000000 ScalE2=  1.000000  1.000000
 IRadAn=      5 IRanWt=     -1 IRanGd=            0 ICorTp=0 IEmpDi=121
 HFx  wShort=  0.000000 wLong=  0.200000 cFull=  0.222036 cShort=  0.000000 cLong=  0.777964
 DFx  wShort=  0.000000 wLong=  0.200000 cFull=  0.000000 cShort=  0.000000 cLong=  1.000000
 NAtoms=   12 NActive=   12 NUniq=   12 SFac= 1.00D+00 NAtFMM=   60 NAOKFM=F Big=F
 Integral buffers will be    131072 words long.
 Raffenetti 2 integral format.
 Two-electron integral symmetry is turned off.
 R6Disp:  Grimme-D2 Dispersion energy=       -0.0051288228 Hartrees.
 Nuclear repulsion after empirical dispersion term =      903.6640711506 Hartrees.
 Leave Link  301 at Fri May 23 05:15:24 2025, MaxMem=  3758096384 cpu:               0.0 elap:               0.0
 (Enter /apps/easybuild-2022/easybuild/software/Compiler/NVHPC/22.11-CUDA-11.7.0/Gaussian/g16c01-CUDA-11.7.0/g16/l302.exe)
 NPDir=0 NMtPBC=     1 NCelOv=     1 NCel=       1 NClECP=     1 NCelD=      1
         NCelK=      1 NCelE2=     1 NClLst=     1 CellRange=     0.0.
 One-electron integrals computed using PRISM.
 NBasis=   257 RedAO= T EigKep=  6.25D-05  NBF=   257
 NBsUse=   257 1.00D-06 EigRej= -1.00D+00 NBFU=   257
 Precomputing XC quadrature grid using
 IXCGrd= 4 IRadAn=           5 IRanWt=          -1 IRanGd=           0 AccXCQ= 0.00D+00.
 Generated NRdTot=       0 NPtTot=           0 NUsed=           0 NTot=          32
 NSgBfM=   268   268   268   268   268 MxSgAt=    12 MxSgA2=    12.
 Leave Link  302 at Fri May 23 05:15:24 2025, MaxMem=  3758096384 cpu:               0.5 elap:               0.1
 (Enter /apps/easybuild-2022/easybuild/software/Compiler/NVHPC/22.11-CUDA-11.7.0/Gaussian/g16c01-CUDA-11.7.0/g16/l303.exe)
 DipDrv:  MaxL=1.
 Leave Link  303 at Fri May 23 05:15:24 2025, MaxMem=  3758096384 cpu:               0.1 elap:               0.0
 (Enter /apps/easybuild-2022/easybuild/software/Compiler/NVHPC/22.11-CUDA-11.7.0/Gaussian/g16c01-CUDA-11.7.0/g16/l401.exe)
 ExpMin= 3.60D-02 ExpMax= 9.34D+04 ExpMxC= 3.17D+03 IAcc=3 IRadAn=         5 AccDes= 0.00D+00
 Harris functional with IExCor= 4639 and IRadAn=       5 diagonalized for initial guess.
 HarFok:  IExCor= 4639 AccDes= 0.00D+00 IRadAn=         5 IDoV= 1 UseB2=F ITyADJ=14
 ICtDFT=  3500011 ScaDFX=  1.000000  1.000000  1.000000  1.000000
 FoFCou: FMM=F IPFlag=           0 FMFlag=      100000 FMFlg1=           0
         NFxFlg=           0 DoJE=T BraDBF=F KetDBF=T FulRan=T
         wScrn=  0.000000 ICntrl=       500 IOpCl=  0 I1Cent=   200000004 NGrid=           0
         NMat0=    1 NMatS0=      1 NMatT0=    0 NMatD0=    1 NMtDS0=    0 NMtDT0=    0
 Symmetry not used in FoFCou.
 Harris En= -1167.04325195486    
 JPrj=0 DoOrth=F DoCkMO=F.
 Leave Link  401 at Fri May 23 05:15:25 2025, MaxMem=  3758096384 cpu:               2.5 elap:               0.4
 (Enter /apps/easybuild-2022/easybuild/software/Compiler/NVHPC/22.11-CUDA-11.7.0/Gaussian/g16c01-CUDA-11.7.0/g16/l502.exe)
 Keep R1 ints in memory in canonical form, NReq=1117474609.
 FoFCou: FMM=F IPFlag=           0 FMFlag=           0 FMFlg1=           0
         NFxFlg=           0 DoJE=F BraDBF=F KetDBF=F FulRan=T
         wScrn=  0.000000 ICntrl=       600 IOpCl=  0 I1Cent=           0 NGrid=           0
         NMat0=    1 NMatS0=  33153 NMatT0=    0 NMatD0=    1 NMtDS0=    0 NMtDT0=    0
 Symmetry not used in FoFCou.
 Two-electron integral symmetry not used.
 Closed shell SCF:
 Using DIIS extrapolation, IDIIS=  1040.
 NGot=  3758096384 LenX=  2658793876 LenY=  2658721611
 Requested convergence on RMS density matrix=1.00D-08 within  32 cycles.
 Requested convergence on MAX density matrix=1.00D-06.
 Requested convergence on             energy=1.00D-06.
 No special actions if energy rises.

 Cycle   1  Pass 1  IDiag  1:
 E= -1199.02733019394    
 DIIS: error= 9.77D-02 at cycle   1 NSaved=   1.
 NSaved= 1 IEnMin= 1 EnMin= -1199.02733019394     IErMin= 1 ErrMin= 9.77D-02
 ErrMax= 9.77D-02  0.00D+00 EMaxC= 1.00D-01 BMatC= 3.33D+00 BMatP= 3.33D+00
 IDIUse=3 WtCom= 2.26D-02 WtEn= 9.77D-01
 Coeff-Com:  0.100D+01
 Coeff-En:   0.100D+01
 Coeff:      0.100D+01
 Gap=     0.565 Goal=   None    Shift=    0.000
 GapD=    0.565 DampG=2.000 DampE=0.500 DampFc=1.0000 IDamp=-1.
 RMSDP=7.78D-03 MaxDP=4.47D-01              OVMax= 2.39D-01

 Cycle   2  Pass 1  IDiag  1:
 E= -1199.26682294665     Delta-E=       -0.239492752708 Rises=F Damp=F
 DIIS: error= 4.56D-02 at cycle   2 NSaved=   2.
 NSaved= 2 IEnMin= 2 EnMin= -1199.26682294665     IErMin= 2 ErrMin= 4.56D-02
 ErrMax= 4.56D-02  0.00D+00 EMaxC= 1.00D-01 BMatC= 9.17D-01 BMatP= 3.33D+00
 IDIUse=3 WtCom= 5.44D-01 WtEn= 4.56D-01
 Coeff-Com:  0.314D+00 0.686D+00
 Coeff-En:   0.369D+00 0.631D+00
 Coeff:      0.339D+00 0.661D+00
 Gap=     0.511 Goal=   None    Shift=    0.000
 RMSDP=4.10D-03 MaxDP=1.40D-01 DE=-2.39D-01 OVMax= 1.44D-01

 Cycle   3  Pass 1  IDiag  1:
 E= -1199.58125061371     Delta-E=       -0.314427667061 Rises=F Damp=F
 DIIS: error= 1.82D-02 at cycle   3 NSaved=   3.
 NSaved= 3 IEnMin= 3 EnMin= -1199.58125061371     IErMin= 3 ErrMin= 1.82D-02
 ErrMax= 1.82D-02  0.00D+00 EMaxC= 1.00D-01 BMatC= 2.21D-01 BMatP= 9.17D-01
 IDIUse=3 WtCom= 8.18D-01 WtEn= 1.82D-01
 Coeff-Com:  0.922D-01 0.344D+00 0.563D+00
 Coeff-En:   0.000D+00 0.226D+00 0.774D+00
 Coeff:      0.754D-01 0.323D+00 0.602D+00
 Gap=     0.427 Goal=   None    Shift=    0.000
 RMSDP=2.57D-03 MaxDP=1.11D-01 DE=-3.14D-01 OVMax= 1.44D-01

 Cycle   4  Pass 1  IDiag  1:
 E= -1199.69958159005     Delta-E=       -0.118330976337 Rises=F Damp=F
 DIIS: error= 8.36D-03 at cycle   4 NSaved=   4.
 NSaved= 4 IEnMin= 4 EnMin= -1199.69958159005     IErMin= 4 ErrMin= 8.36D-03
 ErrMax= 8.36D-03  0.00D+00 EMaxC= 1.00D-01 BMatC= 4.04D-02 BMatP= 2.21D-01
 IDIUse=3 WtCom= 9.16D-01 WtEn= 8.36D-02
 Coeff-Com:  0.956D-02 0.970D-01 0.335D+00 0.558D+00
 Coeff-En:   0.000D+00 0.000D+00 0.159D+00 0.841D+00
 Coeff:      0.876D-02 0.889D-01 0.321D+00 0.582D+00
 Gap=     0.385 Goal=   None    Shift=    0.000
 RMSDP=9.39D-04 MaxDP=5.10D-02 DE=-1.18D-01 OVMax= 5.08D-02

 Cycle   5  Pass 1  IDiag  1:
 E= -1199.72464857562     Delta-E=       -0.025066985573 Rises=F Damp=F
 DIIS: error= 2.44D-03 at cycle   5 NSaved=   5.
 NSaved= 5 IEnMin= 5 EnMin= -1199.72464857562     IErMin= 5 ErrMin= 2.44D-03
 ErrMax= 2.44D-03  0.00D+00 EMaxC= 1.00D-01 BMatC= 3.11D-03 BMatP= 4.04D-02
 IDIUse=3 WtCom= 9.76D-01 WtEn= 2.44D-02
 Coeff-Com: -0.148D-02 0.198D-01 0.118D+00 0.312D+00 0.552D+00
 Coeff-En:   0.000D+00 0.000D+00 0.000D+00 0.000D+00 0.100D+01
 Coeff:     -0.144D-02 0.193D-01 0.115D+00 0.304D+00 0.563D+00
 Gap=     0.376 Goal=   None    Shift=    0.000
 RMSDP=2.30D-04 MaxDP=9.91D-03 DE=-2.51D-02 OVMax= 7.36D-03

 Cycle   6  Pass 1  IDiag  1:
 E= -1199.72655327976     Delta-E=       -0.001904704141 Rises=F Damp=F
 DIIS: error= 3.56D-04 at cycle   6 NSaved=   6.
 NSaved= 6 IEnMin= 6 EnMin= -1199.72655327976     IErMin= 6 ErrMin= 3.56D-04
 ErrMax= 3.56D-04  0.00D+00 EMaxC= 1.00D-01 BMatC= 7.04D-05 BMatP= 3.11D-03
 IDIUse=3 WtCom= 9.96D-01 WtEn= 3.56D-03
 Coeff-Com: -0.709D-03-0.447D-02-0.806D-02 0.137D-01 0.153D+00 0.846D+00
 Coeff-En:   0.000D+00 0.000D+00 0.000D+00 0.000D+00 0.000D+00 0.100D+01
 Coeff:     -0.706D-03-0.445D-02-0.803D-02 0.137D-01 0.153D+00 0.847D+00
 Gap=     0.376 Goal=   None    Shift=    0.000
 RMSDP=7.83D-05 MaxDP=3.18D-03 DE=-1.90D-03 OVMax= 2.02D-03

 Cycle   7  Pass 1  IDiag  1:
 E= -1199.72661285526     Delta-E=       -0.000059575504 Rises=F Damp=F
 DIIS: error= 8.77D-05 at cycle   7 NSaved=   7.
 NSaved= 7 IEnMin= 7 EnMin= -1199.72661285526     IErMin= 7 ErrMin= 8.77D-05
 ErrMax= 8.77D-05  0.00D+00 EMaxC= 1.00D-01 BMatC= 4.57D-06 BMatP= 7.04D-05
 IDIUse=1 WtCom= 1.00D+00 WtEn= 0.00D+00
 Coeff-Com: -0.134D-03-0.228D-02-0.757D-02-0.930D-02 0.221D-01 0.286D+00
 Coeff-Com:  0.711D+00
 Coeff:     -0.134D-03-0.228D-02-0.757D-02-0.930D-02 0.221D-01 0.286D+00
 Coeff:      0.711D+00
 Gap=     0.376 Goal=   None    Shift=    0.000
 RMSDP=1.97D-05 MaxDP=7.08D-04 DE=-5.96D-05 OVMax= 6.78D-04

 Cycle   8  Pass 1  IDiag  1:
 E= -1199.72661677698     Delta-E=       -0.000003921715 Rises=F Damp=F
 DIIS: error= 3.66D-05 at cycle   8 NSaved=   8.
 NSaved= 8 IEnMin= 8 EnMin= -1199.72661677698     IErMin= 8 ErrMin= 3.66D-05
 ErrMax= 3.66D-05  0.00D+00 EMaxC= 1.00D-01 BMatC= 1.17D-06 BMatP= 4.57D-06
 IDIUse=1 WtCom= 1.00D+00 WtEn= 0.00D+00
 Coeff-Com:  0.749D-05-0.764D-03-0.349D-02-0.832D-02-0.141D-01 0.253D-01
 Coeff-Com:  0.350D+00 0.651D+00
 Coeff:      0.749D-05-0.764D-03-0.349D-02-0.832D-02-0.141D-01 0.253D-01
 Coeff:      0.350D+00 0.651D+00
 Gap=     0.376 Goal=   None    Shift=    0.000
 RMSDP=1.07D-05 MaxDP=5.01D-04 DE=-3.92D-06 OVMax= 3.25D-04

 Cycle   9  Pass 1  IDiag  1:
 E= -1199.72661787730     Delta-E=       -0.000001100317 Rises=F Damp=F
 DIIS: error= 1.23D-05 at cycle   9 NSaved=   9.
 NSaved= 9 IEnMin= 9 EnMin= -1199.72661787730     IErMin= 9 ErrMin= 1.23D-05
 ErrMax= 1.23D-05  0.00D+00 EMaxC= 1.00D-01 BMatC= 8.46D-08 BMatP= 1.17D-06
 IDIUse=1 WtCom= 1.00D+00 WtEn= 0.00D+00
 Coeff-Com:  0.821D-05 0.673D-04-0.529D-04-0.125D-02-0.820D-02-0.333D-01
 Coeff-Com:  0.741D-02 0.205D+00 0.830D+00
 Coeff:      0.821D-05 0.673D-04-0.529D-04-0.125D-02-0.820D-02-0.333D-01
 Coeff:      0.741D-02 0.205D+00 0.830D+00
 Gap=     0.376 Goal=   None    Shift=    0.000
 RMSDP=4.68D-06 MaxDP=1.80D-04 DE=-1.10D-06 OVMax= 2.27D-04

 Cycle  10  Pass 1  IDiag  1:
 E= -1199.72661803418     Delta-E=       -0.000000156885 Rises=F Damp=F
 DIIS: error= 5.47D-06 at cycle  10 NSaved=  10.
 NSaved=10 IEnMin=10 EnMin= -1199.72661803418     IErMin=10 ErrMin= 5.47D-06
 ErrMax= 5.47D-06  0.00D+00 EMaxC= 1.00D-01 BMatC= 1.80D-08 BMatP= 8.46D-08
 IDIUse=1 WtCom= 1.00D+00 WtEn= 0.00D+00
 Coeff-Com:  0.594D-06 0.102D-03 0.328D-03 0.521D-03-0.138D-02-0.158D-01
 Coeff-Com: -0.427D-01-0.142D-01 0.345D+00 0.729D+00
 Coeff:      0.594D-06 0.102D-03 0.328D-03 0.521D-03-0.138D-02-0.158D-01
 Coeff:     -0.427D-01-0.142D-01 0.345D+00 0.729D+00
 Gap=     0.376 Goal=   None    Shift=    0.000
 RMSDP=1.57D-06 MaxDP=4.58D-05 DE=-1.57D-07 OVMax= 6.81D-05

 Cycle  11  Pass 1  IDiag  1:
 E= -1199.72661806065     Delta-E=       -0.000000026472 Rises=F Damp=F
 DIIS: error= 1.50D-06 at cycle  11 NSaved=  11.
 NSaved=11 IEnMin=11 EnMin= -1199.72661806065     IErMin=11 ErrMin= 1.50D-06
 ErrMax= 1.50D-06  0.00D+00 EMaxC= 1.00D-01 BMatC= 1.85D-09 BMatP= 1.80D-08
 IDIUse=1 WtCom= 1.00D+00 WtEn= 0.00D+00
 Coeff-Com:  0.340D-06 0.229D-04 0.922D-04 0.367D-03 0.109D-02 0.125D-02
 Coeff-Com: -0.120D-01-0.398D-01-0.415D-01 0.214D+00 0.876D+00
 Coeff:      0.340D-06 0.229D-04 0.922D-04 0.367D-03 0.109D-02 0.125D-02
 Coeff:     -0.120D-01-0.398D-01-0.415D-01 0.214D+00 0.876D+00
 Gap=     0.376 Goal=   None    Shift=    0.000
 RMSDP=8.32D-07 MaxDP=2.34D-05 DE=-2.65D-08 OVMax= 3.56D-05

 Cycle  12  Pass 1  IDiag  1:
 E= -1199.72661806431     Delta-E=       -0.000000003659 Rises=F Damp=F
 DIIS: error= 5.79D-07 at cycle  12 NSaved=  12.
 NSaved=12 IEnMin=12 EnMin= -1199.72661806431     IErMin=12 ErrMin= 5.79D-07
 ErrMax= 5.79D-07  0.00D+00 EMaxC= 1.00D-01 BMatC= 3.62D-10 BMatP= 1.85D-09
 IDIUse=1 WtCom= 1.00D+00 WtEn= 0.00D+00
 Coeff-Com:  0.521D-06-0.189D-07 0.335D-05 0.789D-04 0.590D-03 0.208D-02
 Coeff-Com:  0.270D-04-0.125D-01-0.588D-01 0.108D-01 0.355D+00 0.702D+00
 Coeff:      0.521D-06-0.189D-07 0.335D-05 0.789D-04 0.590D-03 0.208D-02
 Coeff:      0.270D-04-0.125D-01-0.588D-01 0.108D-01 0.355D+00 0.702D+00
 Gap=     0.376 Goal=   None    Shift=    0.000
 RMSDP=2.75D-07 MaxDP=9.63D-06 DE=-3.66D-09 OVMax= 1.18D-05

 Cycle  13  Pass 1  IDiag  1:
 E= -1199.72661806476     Delta-E=       -0.000000000443 Rises=F Damp=F
 DIIS: error= 2.28D-07 at cycle  13 NSaved=  13.
 NSaved=13 IEnMin=13 EnMin= -1199.72661806476     IErMin=13 ErrMin= 2.28D-07
 ErrMax= 2.28D-07  0.00D+00 EMaxC= 1.00D-01 BMatC= 3.39D-11 BMatP= 3.62D-10
 IDIUse=1 WtCom= 1.00D+00 WtEn= 0.00D+00
 Coeff-Com:  0.373D-07-0.360D-05-0.111D-04-0.433D-04-0.409D-04 0.211D-03
 Coeff-Com:  0.190D-02 0.499D-02-0.672D-02-0.283D-01-0.778D-01 0.119D+00
 Coeff-Com:  0.986D+00
 Coeff:      0.373D-07-0.360D-05-0.111D-04-0.433D-04-0.409D-04 0.211D-03
 Coeff:      0.190D-02 0.499D-02-0.672D-02-0.283D-01-0.778D-01 0.119D+00
 Coeff:      0.986D+00
 Gap=     0.376 Goal=   None    Shift=    0.000
 RMSDP=1.59D-07 MaxDP=1.01D-05 DE=-4.43D-10 OVMax= 7.75D-06

 Cycle  14  Pass 1  IDiag  1:
 E= -1199.72661806487     Delta-E=       -0.000000000117 Rises=F Damp=F
 DIIS: error= 8.02D-08 at cycle  14 NSaved=  14.
 NSaved=14 IEnMin=14 EnMin= -1199.72661806487     IErMin=14 ErrMin= 8.02D-08
 ErrMax= 8.02D-08  0.00D+00 EMaxC= 1.00D-01 BMatC= 5.61D-12 BMatP= 3.39D-11
 IDIUse=1 WtCom= 1.00D+00 WtEn= 0.00D+00
 Coeff-Com: -0.762D-07-0.168D-05-0.552D-05-0.232D-04-0.706D-04-0.916D-04
 Coeff-Com:  0.773D-03 0.272D-02 0.246D-02-0.107D-01-0.589D-01-0.328D-01
 Coeff-Com:  0.346D+00 0.751D+00
 Coeff:     -0.762D-07-0.168D-05-0.552D-05-0.232D-04-0.706D-04-0.916D-04
 Coeff:      0.773D-03 0.272D-02 0.246D-02-0.107D-01-0.589D-01-0.328D-01
 Coeff:      0.346D+00 0.751D+00
 Gap=     0.376 Goal=   None    Shift=    0.000
 RMSDP=3.60D-08 MaxDP=2.15D-06 DE=-1.17D-10 OVMax= 2.40D-06

 Cycle  15  Pass 1  IDiag  1:
 E= -1199.72661806489     Delta-E=       -0.000000000019 Rises=F Damp=F
 DIIS: error= 4.81D-08 at cycle  15 NSaved=  15.
 NSaved=15 IEnMin=15 EnMin= -1199.72661806489     IErMin=15 ErrMin= 4.81D-08
 ErrMax= 4.81D-08  0.00D+00 EMaxC= 1.00D-01 BMatC= 1.17D-12 BMatP= 5.61D-12
 IDIUse=1 WtCom= 1.00D+00 WtEn= 0.00D+00
 Coeff-Com: -0.538D-07 0.967D-07-0.513D-07 0.198D-06-0.252D-04-0.976D-04
 Coeff-Com: -0.488D-04-0.874D-04 0.246D-02 0.202D-02-0.631D-02-0.453D-01
 Coeff-Com: -0.770D-01 0.287D+00 0.837D+00
 Coeff:     -0.538D-07 0.967D-07-0.513D-07 0.198D-06-0.252D-04-0.976D-04
 Coeff:     -0.488D-04-0.874D-04 0.246D-02 0.202D-02-0.631D-02-0.453D-01
 Coeff:     -0.770D-01 0.287D+00 0.837D+00
 Gap=     0.376 Goal=   None    Shift=    0.000
 RMSDP=1.85D-08 MaxDP=1.08D-06 DE=-1.91D-11 OVMax= 1.30D-06

 Cycle  16  Pass 1  IDiag  1:
 E= -1199.72661806487     Delta-E=        0.000000000025 Rises=F Damp=F
 DIIS: error= 8.74D-09 at cycle  16 NSaved=  16.
 NSaved=16 IEnMin=15 EnMin= -1199.72661806489     IErMin=16 ErrMin= 8.74D-09
 ErrMax= 8.74D-09  0.00D+00 EMaxC= 1.00D-01 BMatC= 4.36D-14 BMatP= 1.17D-12
 IDIUse=1 WtCom= 1.00D+00 WtEn= 0.00D+00
 Coeff-Com:  0.282D-08 0.137D-06 0.439D-06 0.220D-05 0.474D-05-0.557D-06
 Coeff-Com: -0.666D-04-0.270D-03-0.103D-03 0.117D-02 0.507D-02-0.646D-03
 Coeff-Com: -0.299D-01-0.591D-01 0.396D-01 0.104D+01
 Coeff:      0.282D-08 0.137D-06 0.439D-06 0.220D-05 0.474D-05-0.557D-06
 Coeff:     -0.666D-04-0.270D-03-0.103D-03 0.117D-02 0.507D-02-0.646D-03
 Coeff:     -0.299D-01-0.591D-01 0.396D-01 0.104D+01
 Gap=     0.376 Goal=   None    Shift=    0.000
 RMSDP=4.72D-09 MaxDP=1.54D-07 DE= 2.55D-11 OVMax= 3.97D-07

 SCF Done:  E(RwB97XD) =  -1199.72661806     A.U. after   16 cycles
            NFock= 16  Conv=0.47D-08     -V/T= 2.0019
 KE= 1.197448742639D+03 PE=-4.656144694063D+03 EE= 1.355305262209D+03
 Leave Link  502 at Fri May 23 05:15:39 2025, MaxMem=  3758096384 cpu:              69.5 elap:              14.3
 (Enter /apps/easybuild-2022/easybuild/software/Compiler/NVHPC/22.11-CUDA-11.7.0/Gaussian/g16c01-CUDA-11.7.0/g16/l508.exe)
 QCSCF skips out because SCF is already converged.
 Leave Link  508 at Fri May 23 05:15:39 2025, MaxMem=  3758096384 cpu:               0.0 elap:               0.0
 (Enter /apps/easybuild-2022/easybuild/software/Compiler/NVHPC/22.11-CUDA-11.7.0/Gaussian/g16c01-CUDA-11.7.0/g16/l801.exe)
 DoSCS=F DFT=T ScalE2(SS,OS)=  1.000000  1.000000
 Range of M.O.s used for correlation:     1   257
 NBasis=   257 NAE=    49 NBE=    49 NFC=     0 NFV=     0
 NROrb=    257 NOA=    49 NOB=    49 NVA=   208 NVB=   208

 **** Warning!!: The largest alpha MO coefficient is  0.38448892D+02

 Leave Link  801 at Fri May 23 05:15:39 2025, MaxMem=  3758096384 cpu:               0.0 elap:               0.0
 (Enter /apps/easybuild-2022/easybuild/software/Compiler/NVHPC/22.11-CUDA-11.7.0/Gaussian/g16c01-CUDA-11.7.0/g16/l1101.exe)
 Using compressed storage, NAtomX=    12.
 Will process     13 centers per pass.
 R6Disp: Adding Grimme-D2 dispersion energy 1st derivatives to the gradient.
 Leave Link 1101 at Fri May 23 05:15:39 2025, MaxMem=  3758096384 cpu:               0.5 elap:               0.1
 (Enter /apps/easybuild-2022/easybuild/software/Compiler/NVHPC/22.11-CUDA-11.7.0/Gaussian/g16c01-CUDA-11.7.0/g16/l1102.exe)
 Symmetrizing basis deriv contribution to polar:
 IMax=3 JMax=2 DiffMx= 0.00D+00
 Leave Link 1102 at Fri May 23 05:15:39 2025, MaxMem=  3758096384 cpu:               0.0 elap:               0.0
 (Enter /apps/easybuild-2022/easybuild/software/Compiler/NVHPC/22.11-CUDA-11.7.0/Gaussian/g16c01-CUDA-11.7.0/g16/l1110.exe)
 Forming Gx(P) for the SCF density, NAtomX=    12.
 Integral derivatives from FoFJK, PRISM(SPDF).
 Do as many integral derivatives as possible in FoFJK.
 G2DrvN: MDV=    3758095012.
 G2DrvN: will do    13 centers at a time, making    1 passes.
 Calling FoFCou, ICntrl=  3107 FMM=F I1Cent=   0 AccDes= 0.00D+00.
 FoFJK:  IHMeth= 1 ICntrl=    3107 DoSepK=T KAlg= 0 I1Cent=           0 FoldK=F
 IRaf=         1 NMat=       1 IRICut=       1 DoRegI=T DoRafI=F ISym2E= 0 IDoP0=0 IntGTp=1.
 FoFCou: FMM=F IPFlag=           0 FMFlag=      100000 FMFlg1=           0
         NFxFlg=           0 DoJE=F BraDBF=F KetDBF=F FulRan=T
         wScrn=  0.000000 ICntrl=      3507 IOpCl=  0 I1Cent=           0 NGrid=           0
         NMat0=    1 NMatS0=      1 NMatT0=    0 NMatD0=    1 NMtDS0=    0 NMtDT0=    0
 Symmetry not used in FoFCou.
 End of G2Drv F.D. properties file   721 does not exist.
 End of G2Drv F.D. properties file   722 does not exist.
 End of G2Drv F.D. properties file   788 does not exist.
 Leave Link 1110 at Fri May 23 05:15:52 2025, MaxMem=  3758096384 cpu:             101.1 elap:              12.8
 (Enter /apps/easybuild-2022/easybuild/software/Compiler/NVHPC/22.11-CUDA-11.7.0/Gaussian/g16c01-CUDA-11.7.0/g16/l1002.exe)
 Minotr:  Closed shell wavefunction.
          IDoAtm=111111111111
          Direct CPHF calculation.
          Differentiating once with respect to nuclear coordinates.
          Requested convergence is 1.0D-08 RMS, and 1.0D-07 maximum.
          Secondary convergence is 1.0D-12 RMS, and 1.0D-12 maximum.
          NewPWx=T KeepS1=F KeepF1=F KeepIn=T MapXYZ=F SortEE=F KeepMc=T.
         3731 words used for storage of precomputed grid.
 Keep R1 ints in memory in canonical form, NReq=1117480323.
 FoFCou: FMM=F IPFlag=           0 FMFlag=           0 FMFlg1=           0
         NFxFlg=           0 DoJE=F BraDBF=F KetDBF=F FulRan=T
         wScrn=  0.000000 ICntrl=       600 IOpCl=  0 I1Cent=           0 NGrid=           0
         NMat0=    1 NMatS0=  33153 NMatT0=    0 NMatD0=    1 NMtDS0=    0 NMtDT0=    0
 Symmetry not used in FoFCou.
 Two-electron integral symmetry not used.
          MDV=    3758096384 using IRadAn=       1.
          Solving linear equations simultaneously, MaxMat=       0.
          There are    39 degrees of freedom in the 1st order CPHF.  IDoFFX=6 NUNeed=     0.
     33 vectors produced by pass  0 Test12= 2.61D-14 2.56D-09 XBig12= 1.41D-01 8.47D-02.
 AX will form    33 AO Fock derivatives at one time.
     33 vectors produced by pass  1 Test12= 2.61D-14 2.56D-09 XBig12= 1.68D-02 2.20D-02.
     33 vectors produced by pass  2 Test12= 2.61D-14 2.56D-09 XBig12= 1.85D-03 5.82D-03.
     33 vectors produced by pass  3 Test12= 2.61D-14 2.56D-09 XBig12= 3.74D-05 8.86D-04.
     33 vectors produced by pass  4 Test12= 2.61D-14 2.56D-09 XBig12= 6.02D-07 1.50D-04.
     33 vectors produced by pass  5 Test12= 2.61D-14 2.56D-09 XBig12= 7.80D-09 1.24D-05.
     33 vectors produced by pass  6 Test12= 2.61D-14 2.56D-09 XBig12= 7.33D-11 1.03D-06.
     24 vectors produced by pass  7 Test12= 2.61D-14 2.56D-09 XBig12= 5.96D-13 7.70D-08.
      5 vectors produced by pass  8 Test12= 2.61D-14 2.56D-09 XBig12= 3.72D-15 6.09D-09.
 InvSVY:  IOpt=1 It=  1 EMax= 7.77D-16
 Solved reduced A of dimension   260 with    33 vectors.
 End of Minotr F.D. properties file   721 does not exist.
 End of Minotr F.D. properties file   722 does not exist.
 End of Minotr F.D. properties file   788 does not exist.
 Leave Link 1002 at Fri May 23 05:16:16 2025, MaxMem=  3758096384 cpu:             185.5 elap:              23.8
 (Enter /apps/easybuild-2022/easybuild/software/Compiler/NVHPC/22.11-CUDA-11.7.0/Gaussian/g16c01-CUDA-11.7.0/g16/l701.exe)
 ... and contract with generalized density number  0.
 Compute integral second derivatives.
 R6Disp: Adding Grimme-D2 dispersion energy 2nd derivatives to the Hessian.
 Leave Link  701 at Fri May 23 05:16:16 2025, MaxMem=  3758096384 cpu:               0.5 elap:               0.1
 (Enter /apps/easybuild-2022/easybuild/software/Compiler/NVHPC/22.11-CUDA-11.7.0/Gaussian/g16c01-CUDA-11.7.0/g16/l702.exe)
 L702 exits ... SP integral derivatives will be done elsewhere.
 Leave Link  702 at Fri May 23 05:16:16 2025, MaxMem=  3758096384 cpu:               0.0 elap:               0.0
 (Enter /apps/easybuild-2022/easybuild/software/Compiler/NVHPC/22.11-CUDA-11.7.0/Gaussian/g16c01-CUDA-11.7.0/g16/l703.exe)
 Integral derivatives from FoFJK, PRISM(SPDF).
 Compute integral second derivatives, UseDBF=F ICtDFT=           0.
 Calling FoFJK, ICntrl=    100127 FMM=F ISym2X=0 I1Cent= 0 IOpClX= 0 NMat=1 NMatS=1 NMatT=0.
 FoFJK:  IHMeth= 1 ICntrl=  100127 DoSepK=T KAlg= 0 I1Cent=           0 FoldK=F
 IRaf=         1 NMat=       1 IRICut=       1 DoRegI=T DoRafI=F ISym2E= 0 IDoP0=0 IntGTp=1.
 FoFCou: FMM=F IPFlag=           0 FMFlag=      100000 FMFlg1=         800
         NFxFlg=           0 DoJE=F BraDBF=F KetDBF=F FulRan=T
         wScrn=  0.000000 ICntrl=    100527 IOpCl=  0 I1Cent=           0 NGrid=           0
         NMat0=    1 NMatS0=      1 NMatT0=    0 NMatD0=    1 NMtDS0=    0 NMtDT0=    0
 Symmetry not used in FoFCou.
 Leave Link  703 at Fri May 23 05:16:54 2025, MaxMem=  3758096384 cpu:             302.7 elap:              38.1
 (Enter /apps/easybuild-2022/easybuild/software/Compiler/NVHPC/22.11-CUDA-11.7.0/Gaussian/g16c01-CUDA-11.7.0/g16/l716.exe)
 Dipole        =-6.19179318D-01 5.02404309D-01 2.67038180D-01
 Polarizability= 0.00000000D+00 0.00000000D+00 0.00000000D+00
                 0.00000000D+00 0.00000000D+00 0.00000000D+00
 -------------------------------------------------------------------
 Center     Atomic                   Forces (Hartrees/Bohr)
 Number     Number              X              Y              Z
 -------------------------------------------------------------------
      1        6          -0.006653040   -0.008440225    0.005317008
      2        6          -0.008172915   -0.003052874    0.011730810
      3        9          -0.001796040    0.000351955   -0.005346871
      4        9           0.009821117    0.001343876   -0.001860626
      5       16           0.003889958    0.005900916   -0.006509712
      6        8          -0.010030492   -0.004837919    0.011379213
      7        8           0.001305931    0.003122864   -0.000722176
      8        8          -0.002612039   -0.005991214   -0.011954417
      9        9           0.001277513    0.004870587   -0.003362395
     10        9           0.010141142    0.003671140    0.003742941
     11        9           0.001366591    0.000956671    0.000604398
     12        1           0.001462273    0.002104223   -0.003018173
 -------------------------------------------------------------------
 Cartesian Forces:  Max     0.011954417 RMS     0.005822395
 Force constants in Cartesian coordinates: 
                1             2             3             4             5 
      1  0.542796D+00
      2  0.182313D-01  0.577850D+00
      3  0.128110D-01  0.105271D-01  0.575139D+00
      4 -0.558164D-01  0.232661D-02 -0.193822D-01  0.464607D+00
      5 -0.208382D-01 -0.928474D-01 -0.748524D-01 -0.361727D-02  0.526673D+00
      6 -0.392219D-01 -0.488866D-01 -0.131172D+00 -0.668844D-01  0.248332D-01
      7 -0.204736D-01 -0.146893D-02  0.848496D-02 -0.238484D+00  0.430071D-01
      8  0.227804D-01 -0.770985D-04 -0.709018D-02  0.386954D-01 -0.795942D-01
      9  0.433151D-01 -0.292476D-02 -0.179864D-01  0.102894D+00 -0.315586D-01
     10 -0.348062D-02 -0.150254D-01  0.454644D-02 -0.716569D-01 -0.377172D-01
     11 -0.103910D-01 -0.427177D-01  0.266138D-01 -0.435534D-01 -0.275271D+00
     12 -0.297170D-02 -0.122864D-01  0.807521D-02  0.160437D-01  0.670566D-01
     13  0.349686D-02 -0.103045D-01 -0.199627D-01 -0.454459D-01  0.545943D-01
     14 -0.926554D-02  0.170518D-01 -0.622884D-02 -0.952671D-02 -0.592178D-01
     15 -0.245285D-01 -0.245332D-02 -0.976995D-02 -0.287129D-01  0.327153D-01
     16  0.668610D-04 -0.617010D-03  0.117029D-02  0.185539D-02 -0.826572D-03
     17 -0.921749D-03  0.213983D-04  0.163974D-02  0.279173D-02  0.513152D-03
     18  0.175286D-02 -0.740566D-03 -0.202357D-02 -0.214178D-02 -0.802525D-03
     19 -0.392767D-02  0.678412D-02  0.298780D-02 -0.302526D-02 -0.238601D-01
     20  0.248394D-02  0.155861D-03  0.360692D-02  0.927684D-02  0.104811D-02
     21 -0.246149D-02  0.122655D-01  0.397314D-02 -0.587477D-03 -0.317175D-01
     22  0.125788D-03  0.343411D-02  0.289371D-02 -0.150353D-01 -0.123629D-01
     23  0.566826D-03 -0.232157D-02 -0.215296D-03  0.796353D-02  0.548743D-02
     24  0.612155D-02 -0.265776D-02 -0.495457D-02  0.332254D-02  0.367739D-02
     25 -0.113493D+00 -0.887036D-01  0.135761D-01 -0.356097D-02 -0.136354D-01
     26 -0.851291D-01 -0.261050D+00  0.283046D-01 -0.202331D-01 -0.295098D-01
     27  0.172612D-01  0.370782D-01 -0.886202D-01 -0.369205D-02 -0.115413D-01
     28 -0.192737D+00  0.433779D-01  0.893863D-01 -0.155679D-01 -0.397857D-03
     29  0.371477D-01 -0.936331D-01 -0.335466D-01  0.216470D-01  0.266687D-02
     30  0.831435D-01 -0.360402D-01 -0.145057D+00  0.376838D-01 -0.174507D-02
     31 -0.155920D+00  0.423413D-01 -0.959814D-01 -0.175268D-01  0.137817D-01
     32  0.455430D-01 -0.102134D+00  0.512852D-01 -0.510942D-02  0.192371D-02
     33 -0.949584D-01  0.458838D-01 -0.188120D+00 -0.384541D-01  0.236809D-01
     34 -0.638098D-03 -0.375875D-03 -0.530416D-03 -0.343748D-03  0.187254D-02
     35 -0.207550D-03 -0.297287D-03 -0.440968D-04 -0.661272D-03 -0.187201D-02
     36 -0.263324D-03  0.235124D-03  0.516573D-03 -0.891329D-04  0.253858D-03
                6             7             8             9            10 
      6  0.471073D+00
      7  0.117483D+00  0.295776D+00
      8 -0.280796D-01 -0.243197D-01  0.745481D-01
      9 -0.142910D+00 -0.173256D+00  0.211517D-01  0.175651D+00
     10  0.935589D-02 -0.244736D-01 -0.425851D-01  0.325229D-01  0.107440D+00
     11  0.524744D-01 -0.272235D-01  0.201809D-02  0.213767D-01  0.832481D-01
     12 -0.902881D-01  0.282016D-01  0.305336D-01 -0.151108D-01 -0.355239D-01
     13 -0.282164D-01 -0.206770D-01  0.177335D-02 -0.911078D-03 -0.294021D-02
     14 -0.116732D-02  0.104610D-01  0.299363D-02 -0.209726D-02  0.196462D-01
     15 -0.442037D-01  0.244078D-01 -0.104585D-01  0.179582D-03 -0.732534D-02
     16  0.542635D-03  0.421450D-03 -0.224906D-03 -0.395766D-04 -0.145581D-01
     17  0.254651D-03 -0.370385D-03 -0.223498D-03  0.930818D-04 -0.644210D-04
     18  0.212060D-03 -0.360556D-03  0.188977D-03  0.269135D-04 -0.685325D-03
     19 -0.163288D-01  0.446457D-02  0.429235D-03  0.251126D-04  0.229096D-02
     20 -0.137491D-02 -0.777793D-02  0.160242D-02  0.359350D-02 -0.226691D-02
     21 -0.267965D-01 -0.786874D-02  0.312059D-02  0.599794D-02  0.240547D-02
     22  0.222613D-01 -0.100865D-01  0.337476D-02 -0.221377D-02  0.359636D-02
     23 -0.349183D-02  0.374718D-02 -0.105481D-02  0.356194D-03 -0.203795D-02
     24 -0.169626D-02  0.148184D-02  0.361459D-03  0.763238D-03 -0.181541D-02
     25  0.125025D-01  0.469792D-02  0.111100D-02 -0.357618D-02 -0.556410D-03
     26  0.207315D-01  0.266246D-02  0.174672D-02 -0.225249D-02 -0.356992D-02
     27  0.974191D-02 -0.213593D-02 -0.176819D-02  0.130447D-02 -0.174888D-02
     28  0.852803D-02  0.226235D-02  0.197130D-02  0.340148D-02  0.320341D-02
     29 -0.103649D-01  0.162754D-02 -0.337655D-02 -0.733590D-02 -0.214176D-03
     30 -0.100020D-01  0.147493D-02 -0.650324D-02 -0.999067D-02 -0.309290D-02
     31 -0.190403D-01  0.585810D-02 -0.267267D-02 -0.223211D-02  0.205228D-02
     32 -0.587401D-02 -0.797246D-03  0.120095D-02 -0.435481D-04 -0.100299D-02
     33 -0.337084D-01  0.230923D-02 -0.137643D-02  0.202651D-02  0.192285D-02
     34 -0.981613D-03  0.714046D-03 -0.333062D-03  0.701452D-04 -0.917608D-03
     35  0.945381D-03  0.452478D-03  0.216205D-03 -0.358670D-03  0.158975D-02
     36 -0.250020D-03 -0.222175D-03 -0.801168D-04  0.481463D-04 -0.561778D-03
               11            12            13            14            15 
     11  0.340474D+00
     12 -0.992697D-01  0.996180D-01
     13 -0.416333D-03 -0.326051D-02  0.231542D+00
     14 -0.422503D-01  0.358663D-01  0.550127D-01  0.503740D+00
     15  0.142379D-01 -0.127326D-01  0.263424D-01  0.205315D+00  0.453451D+00
     16  0.113340D-02 -0.273527D-02 -0.134734D-01 -0.382928D-01  0.108292D-01
     17  0.324241D-02 -0.228583D-02 -0.257983D-01 -0.328084D-01  0.285225D-01
     18 -0.142988D-02  0.242068D-02  0.178636D-01  0.288968D-01 -0.159679D-01
     19 -0.549638D-03  0.263684D-02 -0.598038D-01 -0.480535D-01 -0.503640D-01
     20  0.136632D-01 -0.670874D-02 -0.444100D-01 -0.327081D+00 -0.283317D+00
     21  0.285311D-02  0.338850D-02 -0.435434D-01 -0.239831D+00 -0.308949D+00
     22  0.610930D-03 -0.267929D-03 -0.870178D-01  0.193180D-01  0.374233D-01
     23  0.175623D-02 -0.192526D-02 -0.312498D-01 -0.482420D-01  0.142109D-01
     24 -0.319096D-02  0.261107D-02  0.326461D-01 -0.238063D-01 -0.608120D-01
     25 -0.379410D-02 -0.318350D-02 -0.920190D-03  0.424885D-03  0.225955D-02
     26 -0.849929D-02 -0.689374D-02  0.142530D-02 -0.276621D-02  0.306035D-02
     27 -0.663896D-02 -0.180669D-02  0.149553D-02  0.164938D-02 -0.139009D-02
     28  0.227828D-02 -0.573230D-03 -0.600828D-02  0.116988D-02  0.458409D-02
     29  0.146089D-02 -0.480366D-03  0.890082D-03 -0.207393D-02  0.460511D-03
     30 -0.437924D-02  0.657849D-03  0.306684D-02  0.648180D-03 -0.530607D-03
     31 -0.100521D-03  0.118382D-02  0.307923D-02 -0.184501D-02  0.303545D-02
     32  0.510661D-02 -0.346915D-02  0.965425D-03 -0.233197D-02 -0.818220D-03
     33 -0.281890D-02  0.326563D-02  0.788902D-02 -0.404904D-02  0.164581D-02
     34 -0.124223D-02  0.450023D-03 -0.183156D-02  0.950969D-03  0.204907D-02
     35  0.101637D-02 -0.137332D-03 -0.248213D-02 -0.701370D-02 -0.147538D-02
     36  0.171782D-03 -0.986825D-04  0.659074D-02  0.480383D-02 -0.920519D-03
               16            17            18            19            20 
     16  0.627528D+00
     17  0.394663D-01  0.311593D+00
     18 -0.218085D-01 -0.183739D-01  0.231168D-01
     19  0.149349D-02  0.469198D-02  0.601605D-03  0.510551D-01
     20  0.266271D-02  0.829665D-02  0.473875D-02  0.484073D-01  0.297664D+00
     21 -0.236301D-02 -0.412076D-02  0.299878D-02  0.482349D-01  0.280656D+00
     22 -0.759895D-01 -0.154441D-01  0.729400D-02  0.683238D-02 -0.456466D-02
     23 -0.616862D-01 -0.249024D+00 -0.132541D-01  0.135845D-01  0.308821D-02
     24  0.189203D-01 -0.117664D-01 -0.127016D-01  0.183488D-01  0.342900D-02
     25 -0.309482D-04  0.797236D-04 -0.197595D-03  0.130689D-03 -0.790069D-03
     26  0.112707D-03  0.132485D-03 -0.791801D-04 -0.108276D-02 -0.506727D-03
     27 -0.381282D-03 -0.424472D-03  0.480151D-03 -0.191082D-03 -0.490253D-03
     28 -0.613196D-03  0.508196D-03 -0.164183D-02  0.150011D-02 -0.727024D-03
     29  0.103207D-03  0.111550D-03  0.513260D-03 -0.555872D-03  0.951552D-04
     30 -0.130568D-02 -0.364077D-03  0.467280D-04 -0.793052D-03 -0.758902D-03
     31 -0.234232D-03 -0.220218D-03 -0.113871D-03 -0.131858D-02 -0.116405D-02
     32  0.941710D-04  0.777988D-04  0.175732D-03 -0.687433D-03  0.525202D-03
     33 -0.393988D-03 -0.619863D-03  0.513580D-03 -0.322915D-02 -0.168652D-02
     34 -0.526465D+00 -0.471874D-02 -0.562616D-03  0.307994D-03 -0.113017D-02
     35  0.580749D-01 -0.419325D-01  0.166654D-03  0.892106D-03  0.144864D-02
     36 -0.243516D-02  0.744535D-02  0.877427D-03 -0.192904D-02 -0.168820D-02
               21            22            23            24            25 
     21  0.351702D+00
     22  0.110681D-01  0.181838D+00
     23 -0.163468D-01  0.679969D-01  0.310923D+00
     24 -0.259134D-01 -0.644723D-01  0.330899D-01  0.105172D+00
     25 -0.853469D-03 -0.159157D-04 -0.302242D-05 -0.924149D-03  0.139394D+00
     26 -0.335350D-02 -0.575168D-03  0.350169D-03 -0.484152D-03  0.124634D+00
     27  0.404938D-03 -0.329296D-03 -0.304756D-03  0.102472D-02 -0.461404D-01
     28  0.318910D-03 -0.644477D-02 -0.507806D-02 -0.127352D-01 -0.444563D-01
     29 -0.117887D-02 -0.546666D-02  0.285656D-03 -0.481599D-02 -0.406014D-01
     30 -0.682251D-03 -0.985124D-02 -0.437015D-02 -0.477358D-02  0.337241D-01
     31 -0.313908D-02 -0.832037D-03 -0.150095D-03 -0.199407D-03  0.186618D-01
     32 -0.111577D-02 -0.130096D-03  0.459891D-03  0.753289D-03  0.211647D-01
     33 -0.553117D-02 -0.184266D-02  0.295984D-03  0.166485D-02 -0.724360D-02
     34 -0.121070D-02  0.302935D-02  0.634611D-02 -0.694599D-03  0.149593D-03
     35 -0.123171D-02 -0.561911D-01 -0.217074D-01  0.541060D-02  0.113826D-03
     36 -0.593185D-03 -0.196315D-02 -0.804480D-02 -0.384248D-03  0.566793D-04
               26            27            28            29            30 
     26  0.341365D+00
     27 -0.984487D-01  0.105725D+00
     28 -0.268281D-01  0.363406D-01  0.326054D+00
     29  0.669119D-02  0.271003D-01 -0.504290D-01  0.900721D-01
     30  0.171108D-01 -0.842977D-02 -0.125578D+00  0.297744D-01  0.155788D+00
     31  0.844666D-02 -0.545872D-03 -0.675063D-01  0.357704D-01 -0.186349D-01
     32 -0.481597D-01  0.538110D-01  0.342625D-01 -0.236900D-02  0.694604D-02
     33  0.423302D-01 -0.183389D-01 -0.212886D-02 -0.507006D-04  0.233594D-01
     34  0.137400D-03  0.674962D-04  0.313039D-03  0.811780D-04  0.162499D-03
     35  0.206390D-03 -0.221119D-04 -0.108017D-03  0.691274D-04 -0.318532D-03
     36 -0.255549D-04 -0.958196D-04  0.976091D-04 -0.751952D-04 -0.386348D-03
               31            32            33            34            35 
     31  0.213358D+00
     32 -0.942406D-01  0.145669D+00
     33  0.135701D+00 -0.101625D+00  0.213407D+00
     34  0.327979D-03 -0.619482D-04  0.428547D-03  0.525354D+00
     35  0.531497D-04  0.324235D-04  0.358856D-04 -0.152617D-02  0.698337D-01
     36 -0.334368D-04 -0.253764D-04 -0.184377D-03  0.752163D-03 -0.297070D-02
               36 
     36  0.147105D-02
 FormGI is forming the generalized inverse of G from B-inverse, IUseBI=4.
 Leave Link  716 at Fri May 23 05:16:54 2025, MaxMem=  3758096384 cpu:               0.0 elap:               0.0
 (Enter /apps/easybuild-2022/easybuild/software/Compiler/NVHPC/22.11-CUDA-11.7.0/Gaussian/g16c01-CUDA-11.7.0/g16/l103.exe)

 GradGradGradGradGradGradGradGradGradGradGradGradGradGradGradGradGradGrad
 Berny optimization.
 Red2BG is reusing G-inverse.
 Internal  Forces:  Max     0.033405088 RMS     0.009515834
 Search for a local minimum.
 Step number   1 out of a maximum of   56
 All quantities printed in internal units (Hartrees-Bohrs-Radians)
 RMS Force = .95158D-02 SwitMx=.10000D-02 MixMth= 1
 Mixed Optimization -- RFO/linear search
 Second derivative matrix not updated -- analytic derivatives used.
 ITU=  0
     Eigenvalues ---   -0.00732   0.00117   0.00182   0.01672   0.05538
     Eigenvalues ---    0.08984   0.09683   0.10093   0.11142   0.12640
     Eigenvalues ---    0.12742   0.16110   0.17035   0.18997   0.19893
     Eigenvalues ---    0.22224   0.23866   0.24290   0.27995   0.33971
     Eigenvalues ---    0.36210   0.37317   0.39454   0.40870   0.47639
     Eigenvalues ---    0.48872   0.52566   0.56002   0.62063   0.72799
 Eigenvalue     1 is  -7.32D-03 should be greater than     0.000000 Eigenvector:
                          D15       D11       D14       D13       D10
   1                   -0.35558  -0.32700  -0.31484  -0.31454  -0.28626
                          D12       D16       D17       D6        D9
   1                   -0.27380  -0.23180  -0.21909  -0.20524  -0.18817
 RFO step:  Lambda=-1.41070332D-02 EMin=-7.31535813D-03
 Linear search not attempted -- first point.
 Iteration  1 RMS(Cart)=  0.20283339 RMS(Int)=  0.04677291
 Iteration  2 RMS(Cart)=  0.06938726 RMS(Int)=  0.00930649
 Iteration  3 RMS(Cart)=  0.00744714 RMS(Int)=  0.00147391
 Iteration  4 RMS(Cart)=  0.00019506 RMS(Int)=  0.00146760
 Iteration  5 RMS(Cart)=  0.00000007 RMS(Int)=  0.00146760
 ITry= 1 IFail=0 DXMaxC= 6.14D-01 DCOld= 1.00D+10 DXMaxT= 3.00D-01 DXLimC= 3.00D+00 Rises=F
 Variable       Old X    -DE/DX   Delta X   Delta X   Delta X     New X
                                 (Linear)    (Quad)   (Total)
    R1        2.93153   0.00663   0.00000  -0.00705  -0.00705   2.92448
    R2        2.50010   0.00574   0.00000   0.01862   0.01862   2.51873
    R3        2.52583  -0.00624   0.00000  -0.02414  -0.02414   2.50169
    R4        2.50983   0.00082   0.00000   0.00562   0.00562   2.51545
    R5        2.51389   0.00142   0.00000   0.01754   0.01754   2.53143
    R6        2.52746  -0.00456   0.00000  -0.01554  -0.01554   2.51192
    R7        3.62052   0.01061   0.00000   0.00164   0.00164   3.62217
    R8        2.76069  -0.00176   0.00000   0.00240   0.00240   2.76309
    R9        3.20625   0.00622   0.00000  -0.07487  -0.07487   3.13138
   R10        2.68624   0.00435   0.00000   0.00412   0.00412   2.69036
   R11        1.82486  -0.00146   0.00000  -0.00189  -0.00189   1.82296
    A1        1.93794  -0.00637   0.00000  -0.02065  -0.02075   1.91719
    A2        1.90506   0.01796   0.00000   0.03361   0.03368   1.93874
    A3        1.91878  -0.00027   0.00000  -0.01027  -0.01042   1.90835
    A4        1.90195  -0.00537   0.00000   0.00744   0.00755   1.90950
    A5        1.90227   0.00056   0.00000  -0.00326  -0.00359   1.89868
    A6        1.89732  -0.00666   0.00000  -0.00659  -0.00656   1.89077
    A7        1.90649  -0.00466   0.00000  -0.00041   0.00258   1.90907
    A8        1.89615  -0.00328   0.00000   0.00187  -0.00333   1.89282
    A9        1.93337   0.02013   0.00000   0.09651   0.09445   2.02782
   A10        1.92042  -0.00013   0.00000  -0.01139  -0.01075   1.90968
   A11        1.93842  -0.01477   0.00000  -0.13693  -0.13539   1.80303
   A12        1.86831   0.00308   0.00000   0.05352   0.04967   1.91798
   A13        1.81990  -0.00199   0.00000  -0.04744  -0.04895   1.77094
   A14        1.62934   0.03341   0.00000   0.11249   0.11220   1.74154
   A15        1.92254  -0.00555   0.00000   0.03047   0.03195   1.95449
   A16        1.76660  -0.00384   0.00000  -0.01431  -0.01431   1.75230
   A17        1.85450   0.03252   0.00000   0.12235   0.12235   1.97685
    D1        0.90170  -0.00194   0.00000   0.08648   0.08677   0.98847
    D2        2.99677  -0.00683   0.00000   0.07354   0.07329   3.07006
    D3       -1.23891   0.00652   0.00000   0.19522   0.19553  -1.04337
    D4        2.99878  -0.00097   0.00000   0.10453   0.10468   3.10346
    D5       -1.18933  -0.00586   0.00000   0.09159   0.09120  -1.09813
    D6        0.85817   0.00749   0.00000   0.21327   0.21344   1.07162
    D7       -1.20475   0.00168   0.00000   0.11079   0.11086  -1.09389
    D8        0.89032  -0.00321   0.00000   0.09785   0.09739   0.98770
    D9        2.93783   0.01013   0.00000   0.21953   0.21963  -3.12573
   D10       -3.11530  -0.00784   0.00000   0.14072   0.13842  -2.97687
   D11       -1.16439  -0.00403   0.00000   0.19819   0.19461  -0.96978
   D12        1.04595  -0.00563   0.00000   0.16850   0.17021   1.21616
   D13        2.99685  -0.00183   0.00000   0.22597   0.22640  -3.05993
   D14       -1.05079   0.00116   0.00000   0.22816   0.23068  -0.82012
   D15        0.90011   0.00496   0.00000   0.28563   0.28686   1.18697
   D16       -1.35363  -0.00673   0.00000   0.30733   0.30549  -1.04814
   D17        0.50572   0.00355   0.00000   0.30636   0.30820   0.81393
   D18       -2.28450   0.00540   0.00000   0.26760   0.26760  -2.01690
         Item               Value     Threshold  Converged?
 Maximum Force            0.033405     0.000015     NO 
 RMS     Force            0.009516     0.000010     NO 
 Maximum Displacement     0.613878     0.000060     NO 
 RMS     Displacement     0.248052     0.000040     NO 
 Predicted change in Energy=-1.234349D-02
 Lowest energy point so far.  Saving SCF results.
 GradGradGradGradGradGradGradGradGradGradGradGradGradGradGradGradGradGrad

 Leave Link  103 at Fri May 23 05:16:54 2025, MaxMem=  3758096384 cpu:               0.0 elap:               0.0
 (Enter /apps/easybuild-2022/easybuild/software/Compiler/NVHPC/22.11-CUDA-11.7.0/Gaussian/g16c01-CUDA-11.7.0/g16/l202.exe)
                          Input orientation:                          
 ---------------------------------------------------------------------
 Center     Atomic      Atomic             Coordinates (Angstroms)
 Number     Number       Type             X           Y           Z
 ---------------------------------------------------------------------
      1          6           0        4.064993    1.858856    1.072767
      2          6           0        3.835989    0.984344   -0.183317
      3          9           0        4.923219    1.034621   -0.964255
      4          9           0        3.630937   -0.269190    0.208486
      5         16           0        2.424898    1.540425   -1.355320
      6          8           0        0.906992    0.311889    0.324850
      7          8           0        2.337402    0.400172   -2.266413
      8          8           0        1.163630    1.574338   -0.281133
      9          9           0        4.361604    3.106014    0.707917
     10          9           0        2.991236    1.870642    1.847008
     11          9           0        5.082009    1.364247    1.774850
     12          1           0        0.024444    0.129693   -0.019394
 ---------------------------------------------------------------------
                    Distance matrix (angstroms):
                    1          2          3          4          5
     1  C    0.000000
     2  C    1.547566   0.000000
     3  F    2.359104   1.339575   0.000000
     4  F    2.337513   1.329249   2.178356   0.000000
     5  S    2.947358   1.916767   2.578833   2.678568   0.000000
     6  O    3.595200   3.047861   4.279511   2.787663   2.576104
     7  O    4.032674   2.631789   2.963881   2.871656   1.462164
     8  O    3.214328   2.738460   3.859075   3.118641   1.657053
     9  F    1.332852   2.360520   2.720706   3.489313   3.234014
    10  F    1.323836   2.370939   3.512077   2.769991   3.268744
    11  F    1.331120   2.351873   2.763433   2.688349   4.109652
    12  H    4.528671   3.909626   5.070469   3.635633   3.088210
                    6          7          8          9         10
     6  O    0.000000
     7  O    2.961168   0.000000
     8  O    1.423678   2.588000   0.000000
     9  F    4.459621   4.501735   3.681207   0.000000
    10  F    3.015087   4.417014   2.820802   2.168312   0.000000
    11  F    4.543206   4.979369   4.429999   2.165890   2.152434
    12  H    0.964671   3.236051   1.858293   5.310219   3.913594
                   11         12
    11  F    0.000000
    12  H    5.506578   0.000000
 Symmetry turned off by external request.
 Stoichiometry    C2HF5O3S
 Rotational constants (GHZ):           1.4527001           0.8382319           0.7246311
 Leave Link  202 at Fri May 23 05:16:54 2025, MaxMem=  3758096384 cpu:               0.0 elap:               0.0
 (Enter /apps/easybuild-2022/easybuild/software/Compiler/NVHPC/22.11-CUDA-11.7.0/Gaussian/g16c01-CUDA-11.7.0/g16/l301.exe)
 Standard basis: 6-311++G(d,p) (5D, 7F)
 Ernie: Thresh=  0.10000D-02 Tol=  0.10000D-05 Strict=F.
   257 basis functions,   419 primitive gaussians,   268 cartesian basis functions
    49 alpha electrons       49 beta electrons
       nuclear repulsion energy       899.0933652450 Hartrees.
 IExCor= 4639 DFT=T Ex+Corr=wB97XD ExCW=0 ScaHFX=  1.000000
 ScaDFX=  1.000000  1.000000  1.000000  1.000000 ScalE2=  1.000000  1.000000
 IRadAn=      5 IRanWt=     -1 IRanGd=            0 ICorTp=0 IEmpDi=121
 HFx  wShort=  0.000000 wLong=  0.200000 cFull=  0.222036 cShort=  0.000000 cLong=  0.777964
 DFx  wShort=  0.000000 wLong=  0.200000 cFull=  0.000000 cShort=  0.000000 cLong=  1.000000
 NAtoms=   12 NActive=   12 NUniq=   12 SFac= 1.00D+00 NAtFMM=   60 NAOKFM=F Big=F
 Integral buffers will be    131072 words long.
 Raffenetti 2 integral format.
 Two-electron integral symmetry is turned off.
 R6Disp:  Grimme-D2 Dispersion energy=       -0.0054151221 Hartrees.
 Nuclear repulsion after empirical dispersion term =      899.0879501229 Hartrees.
 Leave Link  301 at Fri May 23 05:16:54 2025, MaxMem=  3758096384 cpu:               0.0 elap:               0.0
 (Enter /apps/easybuild-2022/easybuild/software/Compiler/NVHPC/22.11-CUDA-11.7.0/Gaussian/g16c01-CUDA-11.7.0/g16/l302.exe)
 NPDir=0 NMtPBC=     1 NCelOv=     1 NCel=       1 NClECP=     1 NCelD=      1
         NCelK=      1 NCelE2=     1 NClLst=     1 CellRange=     0.0.
 One-electron integrals computed using PRISM.
 NBasis=   257 RedAO= T EigKep=  5.50D-05  NBF=   257
 NBsUse=   257 1.00D-06 EigRej= -1.00D+00 NBFU=   257
 Precomputing XC quadrature grid using
 IXCGrd= 4 IRadAn=           5 IRanWt=          -1 IRanGd=           0 AccXCQ= 0.00D+00.
 Generated NRdTot=       0 NPtTot=           0 NUsed=           0 NTot=          32
 NSgBfM=   268   268   268   268   268 MxSgAt=    12 MxSgA2=    12.
 Leave Link  302 at Fri May 23 05:16:54 2025, MaxMem=  3758096384 cpu:               0.5 elap:               0.1
 (Enter /apps/easybuild-2022/easybuild/software/Compiler/NVHPC/22.11-CUDA-11.7.0/Gaussian/g16c01-CUDA-11.7.0/g16/l303.exe)
 DipDrv:  MaxL=1.
 Leave Link  303 at Fri May 23 05:16:54 2025, MaxMem=  3758096384 cpu:               0.1 elap:               0.0
 (Enter /apps/easybuild-2022/easybuild/software/Compiler/NVHPC/22.11-CUDA-11.7.0/Gaussian/g16c01-CUDA-11.7.0/g16/l401.exe)
 Initial guess from the checkpoint file:  "/tmp/Gau-3267.chk"
 B after Tr=     0.051427   -0.144620   -0.016511
         Rot=    0.999957   -0.001251   -0.000598   -0.009197 Ang=  -1.07 deg.
 Guess basis will be translated and rotated to current coordinates.
 JPrj=2 DoOrth=T DoCkMO=T.
 Generating alternative initial guess.
 ExpMin= 3.60D-02 ExpMax= 9.34D+04 ExpMxC= 3.17D+03 IAcc=3 IRadAn=         5 AccDes= 0.00D+00
 Harris functional with IExCor= 4639 and IRadAn=       5 diagonalized for initial guess.
 HarFok:  IExCor= 4639 AccDes= 0.00D+00 IRadAn=         5 IDoV= 1 UseB2=F ITyADJ=14
 ICtDFT=  3500011 ScaDFX=  1.000000  1.000000  1.000000  1.000000
 FoFCou: FMM=F IPFlag=           0 FMFlag=      100000 FMFlg1=           0
         NFxFlg=           0 DoJE=T BraDBF=F KetDBF=T FulRan=T
         wScrn=  0.000000 ICntrl=       500 IOpCl=  0 I1Cent=   200000004 NGrid=           0
         NMat0=    1 NMatS0=      1 NMatT0=    0 NMatD0=    1 NMtDS0=    0 NMtDT0=    0
 Symmetry not used in FoFCou.
 Harris En= -1167.05354305174    
 Leave Link  401 at Fri May 23 05:16:55 2025, MaxMem=  3758096384 cpu:               2.7 elap:               0.4
 (Enter /apps/easybuild-2022/easybuild/software/Compiler/NVHPC/22.11-CUDA-11.7.0/Gaussian/g16c01-CUDA-11.7.0/g16/l502.exe)
 Keep R1 ints in memory in canonical form, NReq=1117474609.
 FoFCou: FMM=F IPFlag=           0 FMFlag=           0 FMFlg1=           0
         NFxFlg=           0 DoJE=F BraDBF=F KetDBF=F FulRan=T
         wScrn=  0.000000 ICntrl=       600 IOpCl=  0 I1Cent=           0 NGrid=           0
         NMat0=    1 NMatS0=  33153 NMatT0=    0 NMatD0=    1 NMtDS0=    0 NMtDT0=    0
 Symmetry not used in FoFCou.
 Two-electron integral symmetry not used.
 Closed shell SCF:
 Using DIIS extrapolation, IDIIS=  1040.
 NGot=  3758096384 LenX=  2658793876 LenY=  2658721611
 Requested convergence on RMS density matrix=1.00D-08 within  32 cycles.
 Requested convergence on MAX density matrix=1.00D-06.
 Requested convergence on             energy=1.00D-06.
 No special actions if energy rises.

 Cycle   1  Pass 1  IDiag  1:
 E= -1199.48387478314    
 DIIS: error= 1.52D-02 at cycle   1 NSaved=   1.
 NSaved= 1 IEnMin= 1 EnMin= -1199.48387478314     IErMin= 1 ErrMin= 1.52D-02
 ErrMax= 1.52D-02  0.00D+00 EMaxC= 1.00D-01 BMatC= 1.57D-01 BMatP= 1.57D-01
 IDIUse=3 WtCom= 8.48D-01 WtEn= 1.52D-01
 Coeff-Com:  0.100D+01
 Coeff-En:   0.100D+01
 Coeff:      0.100D+01
 Recover alternate guess density for next cycle.
 RMSDP=1.08D-02 MaxDP=9.43D-01              OVMax= 0.00D+00

 Cycle   2  Pass 1  IDiag  1:
 E= -1199.03303372282     Delta-E=        0.450841060317 Rises=F Damp=F
 Switch densities from cycles 1 and 2 for lowest energy.
 DIIS: error= 1.02D-01 at cycle   2 NSaved=   2.
 NSaved= 2 IEnMin= 1 EnMin= -1199.48387478314     IErMin= 1 ErrMin= 1.52D-02
 ErrMax= 1.02D-01  0.00D+00 EMaxC= 1.00D+00 BMatC= 3.34D+00 BMatP= 1.57D-01
 IDIUse=1 WtCom= 1.00D+00 WtEn= 0.00D+00
 Coeff-Com:  0.953D+00 0.470D-01
 Coeff:      0.953D+00 0.470D-01
 Gap=     0.426 Goal=   None    Shift=    0.000
 RMSDP=4.43D-03 MaxDP=1.35D-01 DE= 4.51D-01 OVMax= 1.56D-01

 Cycle   3  Pass 1  IDiag  1:
 E= -1199.71927113180     Delta-E=       -0.686237408984 Rises=F Damp=F
 DIIS: error= 3.60D-03 at cycle   3 NSaved=   3.
 NSaved= 3 IEnMin= 3 EnMin= -1199.71927113180     IErMin= 3 ErrMin= 3.60D-03
 ErrMax= 3.60D-03  0.00D+00 EMaxC= 1.00D+00 BMatC= 7.48D-03 BMatP= 1.57D-01
 IDIUse=1 WtCom= 1.00D+00 WtEn= 0.00D+00
 Coeff-Com: -0.124D+00 0.103D-01 0.111D+01
 Coeff:     -0.124D+00 0.103D-01 0.111D+01
 Gap=     0.376 Goal=   None    Shift=    0.000
 RMSDP=1.13D-03 MaxDP=6.05D-02 DE=-6.86D-01 OVMax= 5.00D-02

 Cycle   4  Pass 1  IDiag  1:
 E= -1199.73336729291     Delta-E=       -0.014096161109 Rises=F Damp=F
 DIIS: error= 4.80D-03 at cycle   4 NSaved=   4.
 NSaved= 4 IEnMin= 4 EnMin= -1199.73336729291     IErMin= 3 ErrMin= 3.60D-03
 ErrMax= 4.80D-03  0.00D+00 EMaxC= 1.00D+00 BMatC= 3.65D-03 BMatP= 7.48D-03
 IDIUse=1 WtCom= 1.00D+00 WtEn= 0.00D+00
 Coeff-Com: -0.824D-01 0.359D-02 0.501D+00 0.578D+00
 Coeff:     -0.824D-01 0.359D-02 0.501D+00 0.578D+00
 Gap=     0.381 Goal=   None    Shift=    0.000
 RMSDP=2.75D-04 MaxDP=9.70D-03 DE=-1.41D-02 OVMax= 1.17D-02

 Cycle   5  Pass 1  IDiag  1:
 E= -1199.73587756411     Delta-E=       -0.002510271200 Rises=F Damp=F
 DIIS: error= 1.31D-03 at cycle   5 NSaved=   5.
 NSaved= 5 IEnMin= 5 EnMin= -1199.73587756411     IErMin= 5 ErrMin= 1.31D-03
 ErrMax= 1.31D-03  0.00D+00 EMaxC= 1.00D+00 BMatC= 5.40D-04 BMatP= 3.65D-03
 IDIUse=1 WtCom= 1.00D+00 WtEn= 0.00D+00
 Coeff-Com: -0.469D-02-0.987D-03-0.502D-01 0.249D+00 0.807D+00
 Coeff:     -0.469D-02-0.987D-03-0.502D-01 0.249D+00 0.807D+00
 Gap=     0.381 Goal=   None    Shift=    0.000
 RMSDP=1.30D-04 MaxDP=7.64D-03 DE=-2.51D-03 OVMax= 1.02D-02

 Cycle   6  Pass 1  IDiag  1:
 E= -1199.73641583089     Delta-E=       -0.000538266773 Rises=F Damp=F
 DIIS: error= 5.62D-04 at cycle   6 NSaved=   6.
 NSaved= 6 IEnMin= 6 EnMin= -1199.73641583089     IErMin= 6 ErrMin= 5.62D-04
 ErrMax= 5.62D-04  0.00D+00 EMaxC= 1.00D+00 BMatC= 9.01D-05 BMatP= 5.40D-04
 IDIUse=1 WtCom= 1.00D+00 WtEn= 0.00D+00
 Coeff-Com:  0.618D-02-0.924D-03-0.788D-01 0.587D-01 0.396D+00 0.619D+00
 Coeff:      0.618D-02-0.924D-03-0.788D-01 0.587D-01 0.396D+00 0.619D+00
 Gap=     0.379 Goal=   None    Shift=    0.000
 RMSDP=5.76D-05 MaxDP=1.33D-03 DE=-5.38D-04 OVMax= 3.22D-03

 Cycle   7  Pass 1  IDiag  1:
 E= -1199.73649851616     Delta-E=       -0.000082685270 Rises=F Damp=F
 DIIS: error= 1.64D-04 at cycle   7 NSaved=   7.
 NSaved= 7 IEnMin= 7 EnMin= -1199.73649851616     IErMin= 7 ErrMin= 1.64D-04
 ErrMax= 1.64D-04  0.00D+00 EMaxC= 1.00D+00 BMatC= 1.29D-05 BMatP= 9.01D-05
 IDIUse=1 WtCom= 1.00D+00 WtEn= 0.00D+00
 Coeff-Com:  0.351D-02 0.940D-04-0.260D-01-0.217D-01 0.255D-01 0.282D+00
 Coeff-Com:  0.737D+00
 Coeff:      0.351D-02 0.940D-04-0.260D-01-0.217D-01 0.255D-01 0.282D+00
 Coeff:      0.737D+00
 Gap=     0.380 Goal=   None    Shift=    0.000
 RMSDP=2.62D-05 MaxDP=6.12D-04 DE=-8.27D-05 OVMax= 1.66D-03

 Cycle   8  Pass 1  IDiag  1:
 E= -1199.73651359573     Delta-E=       -0.000015079574 Rises=F Damp=F
 DIIS: error= 5.19D-05 at cycle   8 NSaved=   8.
 NSaved= 8 IEnMin= 8 EnMin= -1199.73651359573     IErMin= 8 ErrMin= 5.19D-05
 ErrMax= 5.19D-05  0.00D+00 EMaxC= 1.00D+00 BMatC= 1.78D-06 BMatP= 1.29D-05
 IDIUse=1 WtCom= 1.00D+00 WtEn= 0.00D+00
 Coeff-Com:  0.770D-03 0.115D-03-0.168D-02-0.168D-01-0.372D-01 0.465D-01
 Coeff-Com:  0.320D+00 0.688D+00
 Coeff:      0.770D-03 0.115D-03-0.168D-02-0.168D-01-0.372D-01 0.465D-01
 Coeff:      0.320D+00 0.688D+00
 Gap=     0.379 Goal=   None    Shift=    0.000
 RMSDP=1.08D-05 MaxDP=2.57D-04 DE=-1.51D-05 OVMax= 7.21D-04

 Cycle   9  Pass 1  IDiag  1:
 E= -1199.73651575838     Delta-E=       -0.000002162649 Rises=F Damp=F
 DIIS: error= 3.11D-05 at cycle   9 NSaved=   9.
 NSaved= 9 IEnMin= 9 EnMin= -1199.73651575838     IErMin= 9 ErrMin= 3.11D-05
 ErrMax= 3.11D-05  0.00D+00 EMaxC= 1.00D+00 BMatC= 4.17D-07 BMatP= 1.78D-06
 IDIUse=1 WtCom= 1.00D+00 WtEn= 0.00D+00
 Coeff-Com: -0.455D-03-0.107D-04 0.559D-02-0.221D-02-0.225D-01-0.524D-01
 Coeff-Com: -0.416D-01 0.341D+00 0.772D+00
 Coeff:     -0.455D-03-0.107D-04 0.559D-02-0.221D-02-0.225D-01-0.524D-01
 Coeff:     -0.416D-01 0.341D+00 0.772D+00
 Gap=     0.379 Goal=   None    Shift=    0.000
 RMSDP=5.51D-06 MaxDP=1.62D-04 DE=-2.16D-06 OVMax= 3.87D-04

 Cycle  10  Pass 1  IDiag  1:
 E= -1199.73651632926     Delta-E=       -0.000000570880 Rises=F Damp=F
 DIIS: error= 7.03D-06 at cycle  10 NSaved=  10.
 NSaved=10 IEnMin=10 EnMin= -1199.73651632926     IErMin=10 ErrMin= 7.03D-06
 ErrMax= 7.03D-06  0.00D+00 EMaxC= 1.00D+00 BMatC= 1.63D-08 BMatP= 4.17D-07
 IDIUse=1 WtCom= 1.00D+00 WtEn= 0.00D+00
 Coeff-Com: -0.135D-03-0.520D-05 0.961D-03 0.128D-02 0.662D-03-0.150D-01
 Coeff-Com: -0.359D-01-0.376D-02 0.110D+00 0.942D+00
 Coeff:     -0.135D-03-0.520D-05 0.961D-03 0.128D-02 0.662D-03-0.150D-01
 Coeff:     -0.359D-01-0.376D-02 0.110D+00 0.942D+00
 Gap=     0.379 Goal=   None    Shift=    0.000
 RMSDP=2.16D-06 MaxDP=1.30D-04 DE=-5.71D-07 OVMax= 1.46D-04

 Cycle  11  Pass 1  IDiag  1:
 E= -1199.73651637285     Delta-E=       -0.000000043596 Rises=F Damp=F
 DIIS: error= 2.74D-06 at cycle  11 NSaved=  11.
 NSaved=11 IEnMin=11 EnMin= -1199.73651637285     IErMin=11 ErrMin= 2.74D-06
 ErrMax= 2.74D-06  0.00D+00 EMaxC= 1.00D+00 BMatC= 4.18D-09 BMatP= 1.63D-08
 IDIUse=1 WtCom= 1.00D+00 WtEn= 0.00D+00
 Coeff-Com:  0.201D-04-0.740D-06-0.485D-03 0.798D-03 0.367D-02 0.173D-02
 Coeff-Com: -0.725D-02-0.517D-01-0.680D-01 0.348D+00 0.773D+00
 Coeff:      0.201D-04-0.740D-06-0.485D-03 0.798D-03 0.367D-02 0.173D-02
 Coeff:     -0.725D-02-0.517D-01-0.680D-01 0.348D+00 0.773D+00
 Gap=     0.379 Goal=   None    Shift=    0.000
 RMSDP=6.85D-07 MaxDP=2.12D-05 DE=-4.36D-08 OVMax= 5.35D-05

 Cycle  12  Pass 1  IDiag  1:
 E= -1199.73651637959     Delta-E=       -0.000000006739 Rises=F Damp=F
 DIIS: error= 9.36D-07 at cycle  12 NSaved=  12.
 NSaved=12 IEnMin=12 EnMin= -1199.73651637959     IErMin=12 ErrMin= 9.36D-07
 ErrMax= 9.36D-07  0.00D+00 EMaxC= 1.00D+00 BMatC= 5.51D-10 BMatP= 4.18D-09
 IDIUse=1 WtCom= 1.00D+00 WtEn= 0.00D+00
 Coeff-Com:  0.311D-04-0.267D-06-0.362D-03 0.126D-03 0.141D-02 0.306D-02
 Coeff-Com:  0.258D-02-0.196D-01-0.412D-01-0.174D-01 0.274D+00 0.797D+00
 Coeff:      0.311D-04-0.267D-06-0.362D-03 0.126D-03 0.141D-02 0.306D-02
 Coeff:      0.258D-02-0.196D-01-0.412D-01-0.174D-01 0.274D+00 0.797D+00
 Gap=     0.379 Goal=   None    Shift=    0.000
 RMSDP=2.56D-07 MaxDP=9.06D-06 DE=-6.74D-09 OVMax= 2.00D-05

 Cycle  13  Pass 1  IDiag  1:
 E= -1199.73651638056     Delta-E=       -0.000000000970 Rises=F Damp=F
 DIIS: error= 3.30D-07 at cycle  13 NSaved=  13.
 NSaved=13 IEnMin=13 EnMin= -1199.73651638056     IErMin=13 ErrMin= 3.30D-07
 ErrMax= 3.30D-07  0.00D+00 EMaxC= 1.00D+00 BMatC= 6.25D-11 BMatP= 5.51D-10
 IDIUse=1 WtCom= 1.00D+00 WtEn= 0.00D+00
 Coeff-Com:  0.723D-05 0.334D-07-0.553D-04-0.506D-04-0.376D-05 0.738D-03
 Coeff-Com:  0.165D-02 0.520D-03-0.397D-02-0.520D-01-0.124D-01 0.251D+00
 Coeff-Com:  0.815D+00
 Coeff:      0.723D-05 0.334D-07-0.553D-04-0.506D-04-0.376D-05 0.738D-03
 Coeff:      0.165D-02 0.520D-03-0.397D-02-0.520D-01-0.124D-01 0.251D+00
 Coeff:      0.815D+00
 Gap=     0.379 Goal=   None    Shift=    0.000
 RMSDP=8.80D-08 MaxDP=1.97D-06 DE=-9.70D-10 OVMax= 6.16D-06

 Cycle  14  Pass 1  IDiag  1:
 E= -1199.73651638068     Delta-E=       -0.000000000119 Rises=F Damp=F
 DIIS: error= 1.10D-07 at cycle  14 NSaved=  14.
 NSaved=14 IEnMin=14 EnMin= -1199.73651638068     IErMin=14 ErrMin= 1.10D-07
 ErrMax= 1.10D-07  0.00D+00 EMaxC= 1.00D+00 BMatC= 7.76D-12 BMatP= 6.25D-11
 IDIUse=1 WtCom= 1.00D+00 WtEn= 0.00D+00
 Coeff-Com: -0.215D-05 0.127D-07 0.354D-04-0.257D-04-0.202D-03-0.277D-03
 Coeff-Com:  0.619D-04 0.304D-02 0.510D-02-0.994D-02-0.432D-01-0.586D-01
 Coeff-Com:  0.240D+00 0.864D+00
 Coeff:     -0.215D-05 0.127D-07 0.354D-04-0.257D-04-0.202D-03-0.277D-03
 Coeff:      0.619D-04 0.304D-02 0.510D-02-0.994D-02-0.432D-01-0.586D-01
 Coeff:      0.240D+00 0.864D+00
 Gap=     0.379 Goal=   None    Shift=    0.000
 RMSDP=3.33D-08 MaxDP=1.44D-06 DE=-1.19D-10 OVMax= 2.34D-06

 Cycle  15  Pass 1  IDiag  1:
 E= -1199.73651638070     Delta-E=       -0.000000000013 Rises=F Damp=F
 DIIS: error= 3.07D-08 at cycle  15 NSaved=  15.
 NSaved=15 IEnMin=15 EnMin= -1199.73651638070     IErMin=15 ErrMin= 3.07D-08
 ErrMax= 3.07D-08  0.00D+00 EMaxC= 1.00D+00 BMatC= 5.93D-13 BMatP= 7.76D-12
 IDIUse=1 WtCom= 1.00D+00 WtEn= 0.00D+00
 Coeff-Com: -0.814D-06 0.507D-08 0.950D-05-0.494D-06-0.379D-04-0.101D-03
 Coeff-Com: -0.642D-04 0.478D-03 0.104D-02 0.120D-02-0.508D-02-0.255D-01
 Coeff-Com: -0.178D-01 0.163D+00 0.883D+00
 Coeff:     -0.814D-06 0.507D-08 0.950D-05-0.494D-06-0.379D-04-0.101D-03
 Coeff:     -0.642D-04 0.478D-03 0.104D-02 0.120D-02-0.508D-02-0.255D-01
 Coeff:     -0.178D-01 0.163D+00 0.883D+00
 Gap=     0.379 Goal=   None    Shift=    0.000
 RMSDP=1.11D-08 MaxDP=6.32D-07 DE=-1.32D-11 OVMax= 6.07D-07

 Cycle  16  Pass 1  IDiag  1:
 E= -1199.73651638068     Delta-E=        0.000000000019 Rises=F Damp=F
 DIIS: error= 1.77D-08 at cycle  16 NSaved=  16.
 NSaved=16 IEnMin=15 EnMin= -1199.73651638070     IErMin=16 ErrMin= 1.77D-08
 ErrMax= 1.77D-08  0.00D+00 EMaxC= 1.00D+00 BMatC= 2.28D-13 BMatP= 5.93D-13
 IDIUse=1 WtCom= 1.00D+00 WtEn= 0.00D+00
 Coeff-Com:  0.533D-07-0.229D-08-0.232D-05 0.450D-05 0.183D-04 0.804D-05
 Coeff-Com: -0.283D-04-0.330D-03-0.512D-03 0.210D-02 0.596D-02-0.162D-03
 Coeff-Com: -0.553D-01-0.896D-01 0.422D+00 0.716D+00
 Coeff:      0.533D-07-0.229D-08-0.232D-05 0.450D-05 0.183D-04 0.804D-05
 Coeff:     -0.283D-04-0.330D-03-0.512D-03 0.210D-02 0.596D-02-0.162D-03
 Coeff:     -0.553D-01-0.896D-01 0.422D+00 0.716D+00
 Gap=     0.379 Goal=   None    Shift=    0.000
 RMSDP=4.44D-09 MaxDP=1.07D-07 DE= 1.86D-11 OVMax= 2.56D-07

 SCF Done:  E(RwB97XD) =  -1199.73651638     A.U. after   16 cycles
            NFock= 16  Conv=0.44D-08     -V/T= 2.0019
 KE= 1.197419954067D+03 PE=-4.646727058160D+03 EE= 1.350482637589D+03
 Leave Link  502 at Fri May 23 05:17:09 2025, MaxMem=  3758096384 cpu:              69.5 elap:              14.2
 (Enter /apps/easybuild-2022/easybuild/software/Compiler/NVHPC/22.11-CUDA-11.7.0/Gaussian/g16c01-CUDA-11.7.0/g16/l508.exe)
 QCSCF skips out because SCF is already converged.
 Leave Link  508 at Fri May 23 05:17:09 2025, MaxMem=  3758096384 cpu:               0.0 elap:               0.0
 (Enter /apps/easybuild-2022/easybuild/software/Compiler/NVHPC/22.11-CUDA-11.7.0/Gaussian/g16c01-CUDA-11.7.0/g16/l701.exe)
 ... and contract with generalized density number  0.
 Compute integral first derivatives.
 R6Disp: Adding Grimme-D2 dispersion energy 1st derivatives to the gradient.
 Leave Link  701 at Fri May 23 05:17:09 2025, MaxMem=  3758096384 cpu:               0.4 elap:               0.1
 (Enter /apps/easybuild-2022/easybuild/software/Compiler/NVHPC/22.11-CUDA-11.7.0/Gaussian/g16c01-CUDA-11.7.0/g16/l702.exe)
 L702 exits ... SP integral derivatives will be done elsewhere.
 Leave Link  702 at Fri May 23 05:17:09 2025, MaxMem=  3758096384 cpu:               0.0 elap:               0.0
 (Enter /apps/easybuild-2022/easybuild/software/Compiler/NVHPC/22.11-CUDA-11.7.0/Gaussian/g16c01-CUDA-11.7.0/g16/l703.exe)
 Integral derivatives from FoFJK, PRISM(SPDF).
 Compute integral first derivatives, UseDBF=F ICtDFT=           0.
 Calling FoFJK, ICntrl=      2127 FMM=F ISym2X=0 I1Cent= 0 IOpClX= 0 NMat=1 NMatS=1 NMatT=0.
 FoFJK:  IHMeth= 1 ICntrl=    2127 DoSepK=T KAlg= 0 I1Cent=           0 FoldK=F
 IRaf=         1 NMat=       1 IRICut=       1 DoRegI=T DoRafI=F ISym2E= 0 IDoP0=0 IntGTp=1.
 FoFCou: FMM=F IPFlag=           0 FMFlag=      100000 FMFlg1=         800
         NFxFlg=           0 DoJE=F BraDBF=F KetDBF=F FulRan=T
         wScrn=  0.000000 ICntrl=      2527 IOpCl=  0 I1Cent=           0 NGrid=           0
         NMat0=    1 NMatS0=      1 NMatT0=    0 NMatD0=    1 NMtDS0=    0 NMtDT0=    0
 Symmetry not used in FoFCou.
 Leave Link  703 at Fri May 23 05:17:14 2025, MaxMem=  3758096384 cpu:              34.2 elap:               4.4
 (Enter /apps/easybuild-2022/easybuild/software/Compiler/NVHPC/22.11-CUDA-11.7.0/Gaussian/g16c01-CUDA-11.7.0/g16/l716.exe)
 Dipole        =-6.80420963D-01 4.02822009D-01 1.58228188D-01
 -------------------------------------------------------------------
 Center     Atomic                   Forces (Hartrees/Bohr)
 Number     Number              X              Y              Z
 -------------------------------------------------------------------
      1        6           0.002849544   -0.001703980   -0.000269197
      2        6          -0.005417224   -0.002921914    0.004905890
      3        9           0.001522287    0.000649614    0.000841922
      4        9           0.001432186   -0.000921636   -0.002319431
      5       16           0.005917393    0.001159419   -0.007525768
      6        8          -0.001924650    0.000013100    0.002114063
      7        8          -0.002284501    0.000582320    0.000095240
      8        8          -0.001442266    0.001320136    0.003605502
      9        9          -0.001571761    0.000742877    0.000008665
     10        9          -0.000683986    0.001327457    0.000281685
     11        9           0.001032663    0.001421772   -0.000606067
     12        1           0.000570315   -0.001669165   -0.001132504
 -------------------------------------------------------------------
 Cartesian Forces:  Max     0.007525768 RMS     0.002480576
 Leave Link  716 at Fri May 23 05:17:14 2025, MaxMem=  3758096384 cpu:               0.0 elap:               0.0
 (Enter /apps/easybuild-2022/easybuild/software/Compiler/NVHPC/22.11-CUDA-11.7.0/Gaussian/g16c01-CUDA-11.7.0/g16/l103.exe)

 GradGradGradGradGradGradGradGradGradGradGradGradGradGradGradGradGradGrad
 Berny optimization.
 Using GEDIIS/GDIIS optimizer.
 FormGI is forming the generalized inverse of G from B-inverse, IUseBI=4.
 Internal  Forces:  Max     0.005100368 RMS     0.001665457
 Search for a local minimum.
 Step number   2 out of a maximum of   56
 All quantities printed in internal units (Hartrees-Bohrs-Radians)
 RMS Force = .16655D-02 SwitMx=.10000D-02 MixMth= 1
 Mixed Optimization -- RFO/linear search
 Update second derivatives using D2CorX and points    1    2
 DE= -9.90D-03 DEPred=-1.23D-02 R= 8.02D-01
 TightC=F SS=  1.41D+00  RLast= 8.88D-01 DXNew= 5.0454D-01 2.6642D+00
 Trust test= 8.02D-01 RLast= 8.88D-01 DXMaxT set to 5.05D-01
 ITU=  1  0
 Use linear search instead of GDIIS.
     Eigenvalues ---   -0.05419   0.00121   0.00187   0.01891   0.03769
     Eigenvalues ---    0.08640   0.09039   0.09850   0.11049   0.12072
     Eigenvalues ---    0.12809   0.16107   0.16609   0.18989   0.19667
     Eigenvalues ---    0.20743   0.22500   0.23870   0.24864   0.33867
     Eigenvalues ---    0.35935   0.37280   0.38409   0.39464   0.46441
     Eigenvalues ---    0.47913   0.50957   0.52728   0.57131   0.62086
 Eigenvalue     1 is  -5.42D-02 should be greater than     0.000000 Eigenvector:
[...]
    D7       -0.84797   0.00000   0.00000   0.00001   0.00001  -0.84796
    D8        1.23446   0.00000   0.00000   0.00002   0.00002   1.23448
    D9       -2.84260  -0.00000   0.00000   0.00001   0.00001  -2.84259
   D10       -2.79353  -0.00000   0.00000  -0.00003  -0.00003  -2.79355
   D11       -0.83462   0.00000   0.00000  -0.00002  -0.00002  -0.83463
   D12        1.44285  -0.00000   0.00000  -0.00003  -0.00003   1.44283
   D13       -2.88142   0.00000   0.00000  -0.00002  -0.00002  -2.88144
   D14       -0.58671  -0.00000   0.00000  -0.00003  -0.00003  -0.58674
   D15        1.37220   0.00000   0.00000  -0.00002  -0.00002   1.37217
   D16       -1.06840  -0.00000   0.00000   0.00000   0.00000  -1.06840
   D17        0.80302   0.00000   0.00000   0.00001   0.00001   0.80303
   D18       -1.48615  -0.00000   0.00000  -0.00005  -0.00005  -1.48620
         Item               Value     Threshold  Converged?
 Maximum Force            0.000003     0.000015     YES
 RMS     Force            0.000001     0.000010     YES
 Maximum Displacement     0.000063     0.000060     NO 
 RMS     Displacement     0.000018     0.000040     YES
 Predicted change in Energy=-4.650146D-11
                           ----------------------------
                           ! Non-Optimized Parameters !
                           ! (Angstroms and Degrees)  !
 --------------------------                            --------------------------
 ! Name  Definition              Value          Derivative Info.                !
 --------------------------------------------------------------------------------
 ! R1    R(1,2)                  1.5498         -DE/DX =    0.0                 !
 ! R2    R(1,9)                  1.3367         -DE/DX =    0.0                 !
 ! R3    R(1,10)                 1.3214         -DE/DX =    0.0                 !
 ! R4    R(1,11)                 1.3298         -DE/DX =    0.0                 !
 ! R5    R(2,3)                  1.3465         -DE/DX =    0.0                 !
 ! R6    R(2,4)                  1.3242         -DE/DX =    0.0                 !
 ! R7    R(2,5)                  1.9188         -DE/DX =    0.0                 !
 ! R8    R(5,7)                  1.4631         -DE/DX =    0.0                 !
 ! R9    R(5,8)                  1.6792         -DE/DX =    0.0                 !
 ! R10   R(6,8)                  1.4195         -DE/DX =    0.0                 !
 ! R11   R(6,12)                 0.967          -DE/DX =    0.0                 !
 ! A1    A(2,1,9)              108.9048         -DE/DX =    0.0                 !
 ! A2    A(2,1,10)             111.5434         -DE/DX =    0.0                 !
 ! A3    A(2,1,11)             109.8707         -DE/DX =    0.0                 !
 ! A4    A(9,1,10)             109.1667         -DE/DX =    0.0                 !
 ! A5    A(9,1,11)             108.5414         -DE/DX =    0.0                 !
 ! A6    A(10,1,11)            108.7608         -DE/DX =    0.0                 !
 ! A7    A(1,2,3)              108.0851         -DE/DX =    0.0                 !
 ! A8    A(1,2,4)              110.7424         -DE/DX =    0.0                 !
 ! A9    A(1,2,5)              115.0398         -DE/DX =    0.0                 !
 ! A10   A(3,2,4)              108.9841         -DE/DX =    0.0                 !
 ! A11   A(3,2,5)              102.8742         -DE/DX =    0.0                 !
 ! A12   A(4,2,5)              110.6656         -DE/DX =    0.0                 !
 ! A13   A(2,5,7)              103.1896         -DE/DX =    0.0                 !
 ! A14   A(2,5,8)               98.3721         -DE/DX =    0.0                 !
 ! A15   A(7,5,8)              109.3488         -DE/DX =    0.0                 !
 ! A16   A(8,6,12)             102.336          -DE/DX =    0.0                 !
 ! A17   A(5,8,6)              112.1814         -DE/DX =    0.0                 !
 ! D1    D(9,1,2,3)             70.1777         -DE/DX =    0.0                 !
 ! D2    D(9,1,2,4)           -170.5076         -DE/DX =    0.0                 !
 ! D3    D(9,1,2,5)            -44.1063         -DE/DX =    0.0                 !
 ! D4    D(10,1,2,3)          -169.2713         -DE/DX =    0.0                 !
 ! D5    D(10,1,2,4)           -49.9567         -DE/DX =    0.0                 !
 ! D6    D(10,1,2,5)            76.4447         -DE/DX =    0.0                 !
 ! D7    D(11,1,2,3)           -48.5844         -DE/DX =    0.0                 !
 ! D8    D(11,1,2,4)            70.7303         -DE/DX =    0.0                 !
 ! D9    D(11,1,2,5)          -162.8684         -DE/DX =    0.0                 !
 ! D10   D(1,2,5,7)           -160.0587         -DE/DX =    0.0                 !
 ! D11   D(1,2,5,8)            -47.821          -DE/DX =    0.0                 !
 ! D12   D(3,2,5,7)             82.6678         -DE/DX =    0.0                 !
 ! D13   D(3,2,5,8)           -165.0945         -DE/DX =    0.0                 !
 ! D14   D(4,2,5,7)            -33.618          -DE/DX =    0.0                 !
 ! D15   D(4,2,5,8)             78.6197         -DE/DX =    0.0                 !
 ! D16   D(2,5,8,6)            -61.2146         -DE/DX =    0.0                 !
 ! D17   D(7,5,8,6)             46.01           -DE/DX =    0.0                 !
 ! D18   D(12,6,8,5)           -85.1528         -DE/DX =    0.0                 !
 --------------------------------------------------------------------------------
 GradGradGradGradGradGradGradGradGradGradGradGradGradGradGradGradGradGrad

 Leave Link  103 at Fri May 23 05:22:04 2025, MaxMem=  3758096384 cpu:               0.1 elap:               0.0
 (Enter /apps/easybuild-2022/easybuild/software/Compiler/NVHPC/22.11-CUDA-11.7.0/Gaussian/g16c01-CUDA-11.7.0/g16/l9999.exe)

 ----------------------------------------------------------------------

 Electric dipole moment (input orientation):
 (Debye = 10**-18 statcoulomb cm , SI units = C m)
                  (au)            (Debye)         (10**-30 SI)
   Tot        0.454525D+00      0.115529D+01      0.385362D+01
   x         -0.365206D+00     -0.928261D+00     -0.309634D+01
   y          0.262094D+00      0.666177D+00      0.222213D+01
   z         -0.672615D-01     -0.170962D+00     -0.570266D+00

 Dipole polarizability, Alpha (input orientation).
 (esu units = cm**3 , SI units = C**2 m**2 J**-1)
 Alpha(0;0):
               (au)            (10**-24 esu)      (10**-40 SI)
   iso        0.602660D+02      0.893050D+01      0.993652D+01
   aniso      0.127170D+02      0.188446D+01      0.209675D+01
   xx         0.651477D+02      0.965389D+01      0.107414D+02
   yx         0.288744D+01      0.427874D+00      0.476074D+00
   yy         0.534203D+02      0.791607D+01      0.880782D+01
   zx         0.214303D+01      0.317564D+00      0.353337D+00
   zy         0.192399D+01      0.285106D+00      0.317224D+00
   zz         0.622300D+02      0.922153D+01      0.102603D+02

 ----------------------------------------------------------------------

 Dipole orientation:
     6          3.05102575         -6.66605256         -4.43625517
     6          4.13039996         -3.96543225         -4.78168922
     9          6.24092856         -4.13287614         -6.19311822
     9          2.48060546         -2.49507148         -5.95556845
    16          5.31544777         -2.38572275         -1.74061613
     8          0.55972153         -1.89360663         -0.82729120
     8          5.32882470          0.30187688         -2.38970549
     8          2.81303583         -3.00819722          0.10879643
     9          4.58696353         -7.97291863         -2.91527751
     9          0.76044194         -6.61793176         -3.44328840
     9          2.94407473         -7.83390967         -6.65880674
     1          0.64229155         -0.20493214         -0.13409842

 Electric dipole moment (dipole orientation):
 (Debye = 10**-18 statcoulomb cm , SI units = C m)
                  (au)            (Debye)         (10**-30 SI)
   Tot        0.454525D+00      0.115529D+01      0.385362D+01
   x          0.000000D+00      0.000000D+00      0.000000D+00
   y          0.000000D+00      0.000000D+00      0.000000D+00
   z          0.454525D+00      0.115529D+01      0.385362D+01

 Dipole polarizability, Alpha (dipole orientation).
 (esu units = cm**3 , SI units = C**2 m**2 J**-1)
 Alpha(0;0):
               (au)            (10**-24 esu)      (10**-40 SI)
   iso        0.602660D+02      0.893050D+01      0.993652D+01
   aniso      0.127170D+02      0.188446D+01      0.209675D+01
   xx         0.596188D+02      0.883460D+01      0.982981D+01
   yx         0.144693D+01      0.214414D+00      0.238567D+00
   yy         0.624891D+02      0.925993D+01      0.103031D+02
   zx        -0.304548D+01     -0.451294D+00     -0.502132D+00
   zy         0.621420D+01      0.920850D+00      0.102458D+01
   zz         0.586900D+02      0.869696D+01      0.967668D+01

 ----------------------------------------------------------------------
 Unable to Open any file for archive entry.
 1\1\GINC-SPARTAN-BM203\Freq\RwB97XD\6-311++G(d,p)\C2H1F5O3S1\AKHALILOV
 \23-May-2025\0\\#P Geom=AllCheck Guess=TCheck SCRF=Check GenChk RwB97X
 D/6-311++G(d,p) Freq\\Gaussian input prepared by ASE\\0,1\C,4.01649363
 76,1.8037274277,1.0842256693\C,3.8365521981,0.9136721931,-0.1717321138
 \F,4.961196648,0.9966813369,-0.9074828004\F,3.6395801577,-0.3495929529
 ,0.1729979545\S,2.4805761822,1.500904445,-1.3957775314\O,0.8857988596,
 0.5789149491,0.4046148598\O,2.1856606832,0.2954177766,-2.1707338801\O,
 1.247658412,1.7647800578,-0.2866637795\F,4.0045983406,3.0871316445,0.7
 108363265\F,3.0535610518,1.5994272445,1.9657133284\F,5.1861510536,1.54
 16952831,1.6601065364\H,0.2495280587,0.1732919167,-0.2000604374\\Versi
 on=ES64L-G16RevC.01\HF=-1199.7392688\RMSD=3.303e-09\RMSF=1.609e-06\Zer
 oPoint=0.0496766\Thermal=0.0608164\ETot=-1199.6784524\HTot=-1199.67750
 82\GTot=-1199.7273202\Dipole=-0.3652059,0.2620944,-0.0672615\DipoleDer
 iv=1.6321898,-0.0044371,-0.0043317,0.2034448,1.5048491,0.0277606,0.259
 9573,-0.1483313,1.6070419,1.256914,0.050518,-0.1101938,-0.1635286,1.02
 89303,-0.2967938,-0.3422236,-0.1638657,0.5425398,-0.9017251,-0.0556925
 ,0.2197186,0.0331165,-0.2628236,-0.031123,0.3032674,0.0195997,-0.40561
 51,-0.3108071,-0.0011807,-0.0341456,0.1193865,-0.8300414,0.3120327,-0.
 0892359,0.1429727,-0.3494882,1.1064698,0.0632759,0.0398996,0.058793,0.
 8917632,0.5541867,-0.1136659,0.2394872,1.4851905,-0.3728695,0.0189162,
 0.222873,-0.138603,-0.2029874,0.109285,0.2000322,-0.1032494,-0.1265287
 ,-0.5018976,-0.1160004,-0.213368,-0.1473166,-0.7066926,-0.6754031,-0.1
 1792,-0.1062065,-0.8241183,-0.5623975,0.0652966,0.0778406,0.1163941,-0
 .2179637,-0.116734,0.1752609,-0.0261213,-0.4947871,-0.295453,-0.030708
 4,-0.0298244,-0.0516694,-0.8861541,0.1276594,-0.0601766,0.0603155,-0.3
 843262,-0.5530209,-0.0907557,0.2479575,-0.0618447,-0.2871137,-0.011106
 3,0.2669303,0.0487889,-0.6426614,-0.8841233,0.0951548,-0.3542035,0.026
 0227,-0.3170115,-0.0297481,-0.4358637,0.0233567,-0.5711288,0.3867205,0
 .0056134,-0.0622224,0.0058049,0.2852454,0.0299838,-0.0463625,0.0132536
 ,0.1638815\Polar=65.1476852,2.8874376,53.4203103,2.1430268,1.9239933,6
 2.2299546\PG=Unknown\NImag=0\\0.55370326,0.00895292,0.54632530,-0.0088
 6655,0.01941934,0.58816333,-0.05065142,0.00468095,-0.01154149,0.429433
 13,-0.01517760,-0.08831408,-0.07448497,0.00651574,0.55855116,-0.035506
 80,-0.05022961,-0.13933058,-0.04324077,0.01952745,0.46135493,-0.023813
 68,-0.00619049,0.00823053,-0.22519801,0.01528967,0.10646636,0.29105670
 ,0.01664944,0.00426536,-0.00488260,0.01083911,-0.06955067,-0.00968772,
 0.01448102,0.07338718,0.04184919,0.00472371,-0.02057922,0.08595333,-0.
 01292350,-0.12889791,-0.15211840,-0.00951295,0.16155743,-0.00026791,-0
 .00912922,0.00234504,-0.06663793,-0.01839339,0.00023446,-0.01543253,-0
 .04907587,0.02723351,0.07809741,-0.00207434,-0.04416066,0.02325614,-0.
 02123412,-0.31732343,0.04334080,-0.03358844,-0.01415198,0.02674344,0.0
 5898264,0.39741832,-0.00004663,-0.01671725,0.01013386,0.00620360,0.052
 51439,-0.08286770,0.02232902,0.03533118,-0.01065313,-0.02389772,-0.084
 78277,0.08725327,0.00630812,-0.00682826,-0.01678688,-0.04417314,0.0394
 7634,-0.03252308,-0.03130454,0.00313628,-0.00137113,0.00113587,-0.0032
 2182,-0.00338919,0.26181117,-0.00821746,0.01261905,-0.00601820,-0.0129
 5845,-0.04750194,0.01474598,0.00272087,0.00482308,-0.00339979,0.020636
 74,-0.03902313,0.02787387,0.08611874,0.57585182,-0.02041630,-0.0018840
 1,-0.01052789,-0.02309471,0.03871146,-0.06331586,0.02720185,-0.0074527
 5,0.00266820,-0.00981926,0.01069590,-0.01144217,0.02434605,0.16230215,
 0.36146366,-0.00157072,0.00030650,0.00117155,0.00347090,0.00162244,-0.
 00409070,0.00221735,-0.00043787,0.00008435,-0.00449808,-0.00021000,0.0
 0061815,-0.01423431,-0.02739029,0.02810886,0.29248273,-0.00171947,0.00
 000950,0.00127280,0.00154138,-0.00227949,0.00008264,-0.00032544,0.0001
 6782,-0.00032968,0.00029939,0.00389410,-0.00152207,-0.02106888,-0.0107
 6217,0.01699599,0.19816140,0.29622307,0.00142244,-0.00159827,-0.001300
 87,-0.00378540,-0.00239872,0.00139828,-0.00090792,0.00056423,-0.000261
 83,0.00137575,-0.00154777,0.00163510,0.03101277,0.02171342,-0.03399232
 ,0.19040653,0.01650618,0.34513564,-0.00381413,0.00512530,0.00399006,-0
 .00094862,-0.02270826,-0.01297843,0.00057411,0.00124186,0.00008660,0.0
 0135632,-0.00066243,0.00253600,-0.07544906,-0.09913428,-0.06096533,0.0
 0292332,0.00521617,-0.00466974,0.06541068,-0.00014497,0.00316550,0.005
 31888,0.01048277,-0.00969250,-0.01042494,-0.00554499,0.00066992,0.0041
 2610,-0.00136161,0.01630569,-0.00329969,-0.09333882,-0.42692816,-0.233
 40100,0.00321989,0.00998313,0.00039439,0.09138228,0.41373585,-0.003263
 84,0.01027536,0.00394132,-0.00382469,-0.03080035,-0.02140572,-0.008283
 37,0.00170079,0.00441035,0.00354198,-0.00162389,0.00484217,-0.05148211
 ,-0.19617499,-0.18658718,-0.00437708,-0.00306944,0.00509774,0.06274963
 ,0.25215617,0.21042471,-0.00023252,0.00160861,0.00309948,-0.00863370,-
 0.00553893,0.02446504,-0.01163960,0.00258298,-0.00256514,0.00081339,0.
 00400659,-0.00328392,-0.09646138,0.04157913,0.02701009,-0.05417625,-0.
 03754618,-0.00877168,0.00783430,-0.00339956,0.00911395,0.16618617,0.00
 292404,-0.00245618,-0.00179294,0.00760412,0.00599452,-0.01020659,0.007
 64646,-0.00065358,0.00076899,-0.00177799,-0.00102450,0.00085639,-0.006
 92195,-0.06398163,0.01141292,-0.05479265,-0.19834547,0.05364831,0.0224
 9688,-0.00497660,-0.02770589,0.02635297,0.29346471,0.00623227,-0.00126
 905,-0.00326454,-0.00194385,0.00105905,0.00730534,-0.00423426,0.001310
 68,0.00005498,0.00049574,-0.00117627,0.00075899,0.03568705,-0.02844818
 ,-0.06327995,0.02482080,0.10112034,-0.07486259,0.01740091,-0.00611749,
 -0.01560526,-0.07227751,-0.05370976,0.14160271,-0.07364163,-0.00428767
 ,-0.00067756,0.00458767,-0.00430431,0.00300740,0.00284600,0.00010336,-
 0.00252565,0.00075295,-0.00112416,-0.00076297,-0.00093834,0.00077816,0
 .00146663,0.00003602,0.00005519,-0.00041865,0.00018387,-0.00036663,0.0
 0015305,-0.00060126,-0.00077023,-0.00072949,0.08051939,-0.00466161,-0.
 27265958,0.01787877,-0.00158080,-0.04114079,0.02166436,0.00302331,0.00
 180196,-0.00509035,-0.00230718,-0.00863049,-0.00896320,0.00091229,-0.0
 0244072,0.00090787,-0.00017404,0.00027641,0.00059608,-0.00059322,-0.00
 044736,-0.00209353,-0.00079599,0.00052889,-0.00016173,-0.00192007,0.38
 016059,-0.00034488,0.02458355,-0.08425537,0.00027427,-0.01551071,0.009
 95721,-0.00074621,-0.00098582,0.00087378,-0.00072054,-0.00687802,-0.00
 266205,0.00158808,0.00113404,-0.00154738,-0.00038285,-0.00031675,0.000
 20208,-0.00044926,-0.00072013,0.00067178,-0.00082236,0.00009011,0.0008
 3513,0.00014644,-0.08821363,0.09786662,-0.17942083,-0.01116896,0.11540
 403,-0.00828619,-0.00675573,0.01196326,0.00176161,0.00122274,0.0023835
 5,0.00188222,0.00141257,-0.00164780,-0.00518493,0.00149965,0.00298891,
 -0.00044631,0.00035406,-0.00137413,0.00166153,0.00019670,0.00075438,-0
 .00023872,-0.00169063,-0.00454050,-0.00280716,-0.02743593,0.02148776,0
 .27555355,-0.01544277,-0.07944827,0.01085730,0.00781962,0.00538996,-0.
 00820310,0.00230712,-0.00118975,-0.00457666,0.00140292,0.00356315,-0.0
 0163330,0.00059571,-0.00155213,0.00041966,-0.00105148,-0.00026821,-0.0
 0034402,-0.00039016,0.00004102,-0.00082663,0.00003062,0.00031330,0.000
 76953,-0.03859614,-0.02647901,0.04908897,0.03995560,0.08587353,0.10900
 008,0.00425602,-0.20694974,0.03476925,0.01447971,-0.02032797,0.0028476
 9,-0.00569638,-0.01117942,-0.00217597,-0.00382215,0.00163090,0.0044037
 9,-0.00050027,0.00055552,-0.00079520,-0.00035283,0.00044631,-0.0016265
 7,-0.00118938,-0.00143579,-0.00375170,0.00103462,-0.00117476,0.0219565
 2,0.03602440,-0.01729772,-0.17191035,-0.04277656,0.23364376,-0.2268427
 8,0.01744474,-0.09515597,-0.03183135,0.01017193,-0.01776520,0.00834657
 ,-0.00082520,0.00110483,0.00264320,-0.00241085,0.00100317,0.00326952,-
 0.00067035,0.00370466,-0.00017677,-0.00023526,0.00007250,-0.00166628,-
 0.00269815,-0.00337818,-0.00043496,-0.00020390,-0.00036644,-0.01098127
 ,0.03533942,-0.02029965,-0.08418153,0.00340750,0.00685673,0.34155304,0
 .02000976,-0.07884432,0.00872265,-0.01300310,0.00559661,-0.01041277,-0
 .00025443,0.00052363,-0.00044430,0.00027071,0.00407739,0.00018178,0.00
 177946,-0.00242390,0.00005356,-0.00007029,-0.00004777,0.00033154,-0.00
 097484,-0.00039681,-0.00188697,-0.00036239,0.00061243,0.00047894,0.050
 39411,-0.03117880,0.03785588,0.00174132,0.01351236,-0.00129176,-0.0596
 6747,0.08859679,-0.09065312,0.00785325,-0.13530943,-0.03984997,0.00950
 171,-0.02301518,-0.00101597,-0.00056164,0.00182250,0.00132619,-0.00388
 011,0.00119437,0.00583187,-0.00182273,0.00145637,-0.00050752,-0.000584
 04,0.00049850,-0.00262994,-0.00291179,-0.00399043,-0.00088744,0.000630
 47,0.00105384,-0.02164972,0.02774679,-0.00479277,0.02513279,-0.0024939
 6,0.02183554,0.12444566,-0.03354735,0.13922725,0.00024422,-0.00051445,
 -0.00121224,-0.00113134,-0.00019788,-0.00003155,0.00058601,0.00008216,
 -0.00011504,0.00015510,0.00012437,0.00033828,-0.00477899,-0.00496246,-
 0.00053145,-0.22602787,-0.14473237,-0.20436246,0.00193397,0.00157309,-
 0.00170371,-0.00241547,-0.00086712,-0.00054472,0.00004377,0.00019382,0
 .00026920,-0.00029325,-0.00003854,0.00042573,0.00030260,0.00013716,0.0
 0045717,0.23138123,-0.00109795,-0.00050163,0.00045284,-0.00070721,0.00
 027063,-0.00019649,0.00043533,-0.00009295,-0.00008500,0.00045288,-0.00
 094446,0.00016065,-0.00063909,0.00131981,0.00123824,-0.11918360,-0.098
 85091,-0.08786537,-0.00099931,-0.00145968,0.00004938,-0.02851785,-0.02
 947589,-0.01385605,0.00003839,0.00020892,-0.00012748,0.00066860,0.0002
 4405,-0.00016543,0.00034759,-0.00002761,0.00006941,0.14920221,0.129309
 72,0.00059416,0.00058694,-0.00072088,0.00008043,0.00032449,-0.00085484
 ,0.00023069,-0.00012702,0.00018427,0.00006082,-0.00032530,0.00017639,0
 .00268278,0.00859469,0.00454901,-0.23505689,-0.12980312,-0.24399605,-0
 .00344394,-0.00393113,-0.00036368,0.02867117,0.02497339,0.00657612,0.0
 0003400,-0.00029583,0.00014870,-0.00064188,-0.00028123,0.00025337,-0.0
 0022211,-0.00004118,0.00001945,0.20701078,0.10032532,0.23402815\\0.000
 00015,0.00000214,-0.00000147,-0.00000054,0.00000025,0.00000056,-0.0000
 0050,0.00000048,-0.00000103,0.00000168,0.00000034,0.00000146,-0.000001
 55,-0.00000134,0.00000069,0.00000142,-0.00000162,0.00000153,-0.0000007
 5,-0.00000407,0.00000162,-0.00000041,-0.00000087,-0.00000035,-0.000001
 12,0.00000162,-0.00000296,0.00000053,0.00000217,-0.00000071,0.00000050
 ,0.00000354,-0.00000172,0.00000058,-0.00000264,0.00000238\\\@
 The archive entry for this job was punched.


 THERE IS NO SCIENCE WITHOUT FANCY, NOR ART WITHOUT FACTS.
     -- VLADIMIR NABAKOV
 Job cpu time:       0 days  0 hours 10 minutes 43.0 seconds.
 Elapsed time:       0 days  0 hours  1 minutes 22.5 seconds.
 File lengths (MBytes):  RWF=     99 Int=      0 D2E=      0 Chk=      6 Scr=      1
 Normal termination of Gaussian 16 at Fri May 23 05:22:04 2025.
done
