 Entering Gaussian System, Link 0=g16
 Initial command:
 /apps/easybuild-2022/easybuild/software/Compiler/NVHPC/22.11-CUDA-11.7.0/Gaussian/g16c01-CUDA-11.7.0/g16/l1.exe "/tmp/Gau-129536.inp" -scrdir="/tmp/"
 Entering Link 1 = /apps/easybuild-2022/easybuild/software/Compiler/NVHPC/22.11-CUDA-11.7.0/Gaussian/g16c01-CUDA-11.7.0/g16/l1.exe PID=    129538.
  
 Copyright (c) 1988-2019, Gaussian, Inc.  All Rights Reserved.
  
 This is part of the Gaussian(R) 16 program.  It is based on
 the Gaussian(R) 09 system (copyright 2009, Gaussian, Inc.),
 the Gaussian(R) 03 system (copyright 2003, Gaussian, Inc.),
 the Gaussian(R) 98 system (copyright 1998, Gaussian, Inc.),
 the Gaussian(R) 94 system (copyright 1995, Gaussian, Inc.),
 the Gaussian 92(TM) system (copyright 1992, Gaussian, Inc.),
 the Gaussian 90(TM) system (copyright 1990, Gaussian, Inc.),
 the Gaussian 88(TM) system (copyright 1988, Gaussian, Inc.),
 the Gaussian 86(TM) system (copyright 1986, Carnegie Mellon
 University), and the Gaussian 82(TM) system (copyright 1983,
 Carnegie Mellon University). Gaussian is a federally registered
 trademark of Gaussian, Inc.
  
 This software contains proprietary and confidential information,
 including trade secrets, belonging to Gaussian, Inc.
  
 This software is provided under written license and may be
 used, copied, transmitted, or stored only in accord with that
 written license.
  
 The following legend is applicable only to US Government
 contracts under FAR:
  
                    RESTRICTED RIGHTS LEGEND
  
 Use, reproduction and disclosure by the US Government is
 subject to restrictions as set forth in subparagraphs (a)
 and (c) of the Commercial Computer Software - Restricted
 Rights clause in FAR 52.227-19.
  
 Gaussian, Inc.
 340 Quinnipiac St., Bldg. 40, Wallingford CT 06492
  
  
 ---------------------------------------------------------------
 Warning -- This program may not be used in any manner that
 competes with the business of Gaussian, Inc. or will provide
 assistance to any competitor of Gaussian, Inc.  The licensee
 of this program is prohibited from giving any competitor of
 Gaussian, Inc. access to this program.  By using this program,
 the user acknowledges that Gaussian, Inc. is engaged in the
 business of creating and licensing software in the field of
 computational chemistry and represents and warrants to the
 licensee that it is not a competitor of Gaussian, Inc. and that
 it will not use this program in any manner prohibited above.
 ---------------------------------------------------------------
  

 Cite this work as:
 Gaussian 16, Revision C.01,
 M. J. Frisch, G. W. Trucks, H. B. Schlegel, G. E. Scuseria, 
 M. A. Robb, J. R. Cheeseman, G. Scalmani, V. Barone, 
 G. A. Petersson, H. Nakatsuji, X. Li, M. Caricato, A. V. Marenich, 
 J. Bloino, B. G. Janesko, R. Gomperts, B. Mennucci, H. P. Hratchian, 
 J. V. Ortiz, A. F. Izmaylov, J. L. Sonnenberg, D. Williams-Young, 
 F. Ding, F. Lipparini, F. Egidi, J. Goings, B. Peng, A. Petrone, 
 T. Henderson, D. Ranasinghe, V. G. Zakrzewski, J. Gao, N. Rega, 
 G. Zheng, W. Liang, M. Hada, M. Ehara, K. Toyota, R. Fukuda, 
 J. Hasegawa, M. Ishida, T. Nakajima, Y. Honda, O. Kitao, H. Nakai, 
 T. Vreven, K. Throssell, J. A. Montgomery, Jr., J. E. Peralta, 
 F. Ogliaro, M. J. Bearpark, J. J. Heyd, E. N. Brothers, K. N. Kudin, 
 V. N. Staroverov, T. A. Keith, R. Kobayashi, J. Normand, 
 K. Raghavachari, A. P. Rendell, J. C. Burant, S. S. Iyengar, 
 J. Tomasi, M. Cossi, J. M. Millam, M. Klene, C. Adamo, R. Cammi, 
 J. W. Ochterski, R. L. Martin, K. Morokuma, O. Farkas, 
 J. B. Foresman, and D. J. Fox, Gaussian, Inc., Wallingford CT, 2019.
 
 ******************************************
 Gaussian 16:  ES64L-G16RevC.01  3-Jul-2019
                23-May-2025 
 ******************************************
 %mem=28GB
 %nprocshared=8
 Will use up to    8 processors via shared memory.
 ----------------------------------------------------------------------
 #P wb97xd/6-311++G(d,p) Symm(None) scf(xqc) pop(None) opt(NoFreeze,TS,
 CalcAll,NoEigentest,MaxCycle=999)
 ----------------------------------------------------------------------
 1/5=1,6=999,10=4,11=1,18=20,26=3,29=2000,38=1/1,3;
 2/9=110,12=2,15=3,17=6,18=5,40=1/2;
 3/5=4,6=6,7=1111,11=2,25=1,30=1,71=2,74=-58,140=1/1,2,3;
 4//1;
 5/5=2,8=3,13=1,38=5/2,8;
 8/6=4,10=90,11=11/1;
 11/6=1,8=1,9=11,15=111,16=1,31=1/1,2,10;
 10/6=1,31=1/2;
 7/10=1,25=1,30=1/1,2,3,16;
 1/5=1,6=999,10=4,11=1,18=20,26=3/3(3);
 2/9=110,15=3/2;
 7/8=1,9=1,25=1,30=1,44=-1/16;
 99//99;
 2/9=110,15=3/2;
 3/5=4,6=6,7=1111,11=2,25=1,30=1,71=2,74=-58,140=1/1,2,3;
 4/5=5,16=3,69=1/1;
 5/5=2,8=3,13=1,38=5/2,8;
 8/6=4,10=90,11=11/1;
 11/6=1,8=1,9=11,15=111,16=1,31=1/1,2,10;
 10/6=1,31=1/2;
 7/10=1,25=1,30=1/1,2,3,16;
 1/5=1,6=999,10=4,11=1,18=20,26=3/3(-8);
 2/9=110,15=3/2;
 7/8=1,9=1,25=1,30=1,44=-1/16;
 99//99;
 Leave Link    1 at Fri May 23 04:34:35 2025, MaxMem=  3758096384 cpu:               0.2 elap:               0.1
 (Enter /apps/easybuild-2022/easybuild/software/Compiler/NVHPC/22.11-CUDA-11.7.0/Gaussian/g16c01-CUDA-11.7.0/g16/l101.exe)
 ------------------------------
 Gaussian input prepared by ASE
 ------------------------------
 Symbolic Z-matrix:
 Charge =  0 Multiplicity = 1
 C                    -0.81748   0.75512  -1.07255 
 C                     0.        0.        0. 
 F                    -0.32583   0.46453   1.21405 
 F                    -0.3123   -1.30207  -0.05726 
 S                     2.04185   0.        0. 
 O                     1.95218  -0.51449   1.45528 
 O                     3.53472  -0.2666    0.57737 
 O                     2.05397   1.62131   0. 
 F                    -0.64376   2.06628  -0.95648 
 F                    -0.4485    0.37666  -2.29253 
 F                    -2.11708   0.48903  -0.92385 
 H                     1.31058   1.94037   0.52744 
 
 ITRead=  0  0  0  0  0  0  0  0  0  0  0  0
 MicOpt= -1 -1 -1 -1 -1 -1 -1 -1 -1 -1 -1 -1
 NAtoms=     12 NQM=       12 NQMF=       0 NMMI=      0 NMMIF=      0
                NMic=       0 NMicF=      0.
                    Isotopes and Nuclear Properties:
 (Nuclear quadrupole moments (NQMom) in fm**2, nuclear magnetic moments (NMagM)
  in nuclear magnetons)

  Atom         1           2           3           4           5           6           7           8           9          10
 IAtWgt=          12          12          19          19          32          16          16          16          19          19
 AtmWgt=  12.0000000  12.0000000  18.9984032  18.9984032  31.9720718  15.9949146  15.9949146  15.9949146  18.9984032  18.9984032
 NucSpn=           0           0           1           1           0           0           0           0           1           1
 AtZEff=  -0.0000000  -0.0000000  -0.0000000  -0.0000000  -0.0000000  -0.0000000  -0.0000000  -0.0000000  -0.0000000  -0.0000000
 NQMom=    0.0000000   0.0000000   0.0000000   0.0000000   0.0000000   0.0000000   0.0000000   0.0000000   0.0000000   0.0000000
 NMagM=    0.0000000   0.0000000   2.6288670   2.6288670   0.0000000   0.0000000   0.0000000   0.0000000   2.6288670   2.6288670
 AtZNuc=   6.0000000   6.0000000   9.0000000   9.0000000  16.0000000   8.0000000   8.0000000   8.0000000   9.0000000   9.0000000

  Atom        11          12
 IAtWgt=          19           1
 AtmWgt=  18.9984032   1.0078250
 NucSpn=           1           1
 AtZEff=  -0.0000000  -0.0000000
 NQMom=    0.0000000   0.0000000
 NMagM=    2.6288670   2.7928460
 AtZNuc=   9.0000000   1.0000000
 Leave Link  101 at Fri May 23 04:34:35 2025, MaxMem=  3758096384 cpu:               0.2 elap:               0.2
 (Enter /apps/easybuild-2022/easybuild/software/Compiler/NVHPC/22.11-CUDA-11.7.0/Gaussian/g16c01-CUDA-11.7.0/g16/l103.exe)

 GradGradGradGradGradGradGradGradGradGradGradGradGradGradGradGradGradGrad
 Berny optimization.
 Initialization pass.
                           ----------------------------
                           !    Initial Parameters    !
                           ! (Angstroms and Degrees)  !
 --------------------------                            --------------------------
 ! Name  Definition              Value          Derivative Info.                !
 --------------------------------------------------------------------------------
 ! R1    R(1,2)                  1.5456         calculate D2E/DX2 analytically  !
 ! R2    R(1,9)                  1.3277         calculate D2E/DX2 analytically  !
 ! R3    R(1,10)                 1.3296         calculate D2E/DX2 analytically  !
 ! R4    R(1,11)                 1.3349         calculate D2E/DX2 analytically  !
 ! R5    R(2,3)                  1.3401         calculate D2E/DX2 analytically  !
 ! R6    R(2,4)                  1.3402         calculate D2E/DX2 analytically  !
 ! R7    R(2,5)                  2.0418         calculate D2E/DX2 analytically  !
 ! R8    R(5,6)                  1.5462         calculate D2E/DX2 analytically  !
 ! R9    R(5,7)                  1.6227         calculate D2E/DX2 analytically  !
 ! R10   R(5,8)                  1.6214         calculate D2E/DX2 analytically  !
 ! R11   R(8,12)                 0.9657         calculate D2E/DX2 analytically  !
 ! A1    A(2,1,9)              110.6468         calculate D2E/DX2 analytically  !
 ! A2    A(2,1,10)             110.5426         calculate D2E/DX2 analytically  !
 ! A3    A(2,1,11)             109.892          calculate D2E/DX2 analytically  !
 ! A4    A(9,1,10)             108.9661         calculate D2E/DX2 analytically  !
 ! A5    A(9,1,11)             108.3303         calculate D2E/DX2 analytically  !
 ! A6    A(10,1,11)            108.4006         calculate D2E/DX2 analytically  !
 ! A7    A(1,2,3)              109.3123         calculate D2E/DX2 analytically  !
 ! A8    A(1,2,4)              108.7693         calculate D2E/DX2 analytically  !
 ! A9    A(1,2,5)              121.9319         calculate D2E/DX2 analytically  !
 ! A10   A(3,2,4)              108.5916         calculate D2E/DX2 analytically  !
 ! A11   A(3,2,5)              104.0719         calculate D2E/DX2 analytically  !
 ! A12   A(4,2,5)              103.4751         calculate D2E/DX2 analytically  !
 ! A13   A(2,5,6)               86.6754         calculate D2E/DX2 analytically  !
 ! A14   A(2,5,7)              156.9263         calculate D2E/DX2 analytically  !
 ! A15   A(2,5,8)               90.4283         calculate D2E/DX2 analytically  !
 ! A16   A(6,5,7)               70.3532         calculate D2E/DX2 analytically  !
 ! A17   A(6,5,8)              109.4618         calculate D2E/DX2 analytically  !
 ! A18   A(7,5,8)               99.0569         calculate D2E/DX2 analytically  !
 ! A19   A(5,8,12)             108.943          calculate D2E/DX2 analytically  !
 ! D1    D(9,1,2,3)             55.0169         calculate D2E/DX2 analytically  !
 ! D2    D(9,1,2,4)            173.4344         calculate D2E/DX2 analytically  !
 ! D3    D(9,1,2,5)            -66.4478         calculate D2E/DX2 analytically  !
 ! D4    D(10,1,2,3)           175.8209         calculate D2E/DX2 analytically  !
 ! D5    D(10,1,2,4)           -65.7616         calculate D2E/DX2 analytically  !
 ! D6    D(10,1,2,5)            54.3563         calculate D2E/DX2 analytically  !
 ! D7    D(11,1,2,3)           -64.5703         calculate D2E/DX2 analytically  !
 ! D8    D(11,1,2,4)            53.8472         calculate D2E/DX2 analytically  !
 ! D9    D(11,1,2,5)           173.965          calculate D2E/DX2 analytically  !
 ! D10   D(1,2,5,6)            164.3231         calculate D2E/DX2 analytically  !
 ! D11   D(1,2,5,7)            169.6382         calculate D2E/DX2 analytically  !
 ! D12   D(1,2,5,8)             54.853          calculate D2E/DX2 analytically  !
 ! D13   D(3,2,5,6)             40.4084         calculate D2E/DX2 analytically  !
 ! D14   D(3,2,5,7)             45.7235         calculate D2E/DX2 analytically  !
 ! D15   D(3,2,5,8)            -69.0617         calculate D2E/DX2 analytically  !
 ! D16   D(4,2,5,6)            -73.0479         calculate D2E/DX2 analytically  !
 ! D17   D(4,2,5,7)            -67.7329         calculate D2E/DX2 analytically  !
 ! D18   D(4,2,5,8)            177.4819         calculate D2E/DX2 analytically  !
 ! D19   D(2,5,8,12)            35.2702         calculate D2E/DX2 analytically  !
 ! D20   D(6,5,8,12)           -51.355          calculate D2E/DX2 analytically  !
 ! D21   D(7,5,8,12)          -123.6108         calculate D2E/DX2 analytically  !
 --------------------------------------------------------------------------------
 Trust Radius=3.00D-01 FncErr=1.00D-07 GrdErr=1.00D-06 EigMax=2.50D+02 EigMin=1.00D-04
 Number of steps in this run=    100 maximum allowed number of steps=    100.
 Search for a saddle point of order  1.
 GradGradGradGradGradGradGradGradGradGradGradGradGradGradGradGradGradGrad

 Leave Link  103 at Fri May 23 04:34:35 2025, MaxMem=  3758096384 cpu:               0.1 elap:               0.0
 (Enter /apps/easybuild-2022/easybuild/software/Compiler/NVHPC/22.11-CUDA-11.7.0/Gaussian/g16c01-CUDA-11.7.0/g16/l202.exe)
                          Input orientation:                          
 ---------------------------------------------------------------------
 Center     Atomic      Atomic             Coordinates (Angstroms)
 Number     Number       Type             X           Y           Z
 ---------------------------------------------------------------------
      1          6           0       -0.817478    0.755116   -1.072550
      2          6           0        0.000000    0.000000    0.000000
      3          9           0       -0.325832    0.464532    1.214054
      4          9           0       -0.312302   -1.302070   -0.057261
      5         16           0        2.041845    0.000000    0.000000
      6          8           0        1.952181   -0.514489    1.455281
      7          8           0        3.534719   -0.266604    0.577375
      8          8           0        2.053966    1.621307    0.000000
      9          9           0       -0.643760    2.066279   -0.956476
     10          9           0       -0.448505    0.376663   -2.292530
     11          9           0       -2.117080    0.489031   -0.923851
     12          1           0        1.310580    1.940373    0.527439
 ---------------------------------------------------------------------
                    Distance matrix (angstroms):
                    1          2          3          4          5
     1  C    0.000000
     2  C    1.545585   0.000000
     3  F    2.356843   1.340105   0.000000
     4  F    2.349048   1.340223   2.176536   0.000000
     5  S    3.145837   2.041845   2.701039   2.690850   0.000000
     6  O    3.958893   2.488685   2.491187   2.834775   1.546151
     7  O    4.765268   3.591473   3.980424   4.034170   1.622687
     8  O    3.185253   2.616757   2.911270   3.761468   1.621353
     9  F    1.327705   2.366175   2.716224   3.502032   3.520914
    10  F    1.329556   2.366163   3.509829   2.798772   3.405791
    11  F    1.334871   2.361076   2.789230   2.686307   4.288276
    12  H    2.914349   2.400179   2.308114   3.672746   2.139624
                    6          7          8          9         10
     6  O    0.000000
     7  O    1.826635   0.000000
     8  O    2.586471   2.467833   0.000000
     9  F    4.383589   5.025409   2.896649   0.000000
    10  F    4.539112   4.951386   3.614858   2.162861   0.000000
    11  F    4.819358   5.896397   4.419636   2.158575   2.161031
    12  H    2.701646   3.133694   0.965721   2.457093   3.673119
                   11         12
    11  F    0.000000
    12  H    3.995184   0.000000
 Symmetry turned off by external request.
 Stoichiometry    C2HF5O3S
 Rotational constants (GHZ):           1.8001734           0.7072659           0.6479904
 Leave Link  202 at Fri May 23 04:34:35 2025, MaxMem=  3758096384 cpu:               0.0 elap:               0.0
 (Enter /apps/easybuild-2022/easybuild/software/Compiler/NVHPC/22.11-CUDA-11.7.0/Gaussian/g16c01-CUDA-11.7.0/g16/l301.exe)
 Standard basis: 6-311++G(d,p) (5D, 7F)
 Ernie: Thresh=  0.10000D-02 Tol=  0.10000D-05 Strict=F.
   257 basis functions,   419 primitive gaussians,   268 cartesian basis functions
    49 alpha electrons       49 beta electrons
       nuclear repulsion energy       896.2204715548 Hartrees.
 IExCor= 4639 DFT=T Ex+Corr=wB97XD ExCW=0 ScaHFX=  1.000000
 ScaDFX=  1.000000  1.000000  1.000000  1.000000 ScalE2=  1.000000  1.000000
 IRadAn=      5 IRanWt=     -1 IRanGd=            0 ICorTp=0 IEmpDi=121
 HFx  wShort=  0.000000 wLong=  0.200000 cFull=  0.222036 cShort=  0.000000 cLong=  0.777964
 DFx  wShort=  0.000000 wLong=  0.200000 cFull=  0.000000 cShort=  0.000000 cLong=  1.000000
 NAtoms=   12 NActive=   12 NUniq=   12 SFac= 1.00D+00 NAtFMM=   60 NAOKFM=F Big=F
 Integral buffers will be    131072 words long.
 Raffenetti 2 integral format.
 Two-electron integral symmetry is turned off.
 R6Disp:  Grimme-D2 Dispersion energy=       -0.0054100007 Hartrees.
 Nuclear repulsion after empirical dispersion term =      896.2150615541 Hartrees.
 Leave Link  301 at Fri May 23 04:34:35 2025, MaxMem=  3758096384 cpu:               0.1 elap:               0.0
 (Enter /apps/easybuild-2022/easybuild/software/Compiler/NVHPC/22.11-CUDA-11.7.0/Gaussian/g16c01-CUDA-11.7.0/g16/l302.exe)
 NPDir=0 NMtPBC=     1 NCelOv=     1 NCel=       1 NClECP=     1 NCelD=      1
         NCelK=      1 NCelE2=     1 NClLst=     1 CellRange=     0.0.
 One-electron integrals computed using PRISM.
 NBasis=   257 RedAO= T EigKep=  5.58D-05  NBF=   257
 NBsUse=   257 1.00D-06 EigRej= -1.00D+00 NBFU=   257
 Precomputing XC quadrature grid using
 IXCGrd= 4 IRadAn=           5 IRanWt=          -1 IRanGd=           0 AccXCQ= 0.00D+00.
 Generated NRdTot=       0 NPtTot=           0 NUsed=           0 NTot=          32
 NSgBfM=   268   268   268   268   268 MxSgAt=    12 MxSgA2=    12.
 Leave Link  302 at Fri May 23 04:34:35 2025, MaxMem=  3758096384 cpu:               0.5 elap:               0.1
 (Enter /apps/easybuild-2022/easybuild/software/Compiler/NVHPC/22.11-CUDA-11.7.0/Gaussian/g16c01-CUDA-11.7.0/g16/l303.exe)
 DipDrv:  MaxL=1.
 Leave Link  303 at Fri May 23 04:34:35 2025, MaxMem=  3758096384 cpu:               0.1 elap:               0.0
 (Enter /apps/easybuild-2022/easybuild/software/Compiler/NVHPC/22.11-CUDA-11.7.0/Gaussian/g16c01-CUDA-11.7.0/g16/l401.exe)
 ExpMin= 3.60D-02 ExpMax= 9.34D+04 ExpMxC= 3.17D+03 IAcc=3 IRadAn=         5 AccDes= 0.00D+00
 Harris functional with IExCor= 4639 and IRadAn=       5 diagonalized for initial guess.
 HarFok:  IExCor= 4639 AccDes= 0.00D+00 IRadAn=         5 IDoV= 1 UseB2=F ITyADJ=14
 ICtDFT=  3500011 ScaDFX=  1.000000  1.000000  1.000000  1.000000
 FoFCou: FMM=F IPFlag=           0 FMFlag=      100000 FMFlg1=           0
         NFxFlg=           0 DoJE=T BraDBF=F KetDBF=T FulRan=T
         wScrn=  0.000000 ICntrl=       500 IOpCl=  0 I1Cent=   200000004 NGrid=           0
         NMat0=    1 NMatS0=      1 NMatT0=    0 NMatD0=    1 NMtDS0=    0 NMtDT0=    0
 Symmetry not used in FoFCou.
 Harris En= -1166.97419664742    
 JPrj=0 DoOrth=F DoCkMO=F.
 Leave Link  401 at Fri May 23 04:34:36 2025, MaxMem=  3758096384 cpu:               2.4 elap:               0.4
 (Enter /apps/easybuild-2022/easybuild/software/Compiler/NVHPC/22.11-CUDA-11.7.0/Gaussian/g16c01-CUDA-11.7.0/g16/l502.exe)
 Keep R1 ints in memory in canonical form, NReq=1117474609.
 FoFCou: FMM=F IPFlag=           0 FMFlag=           0 FMFlg1=           0
         NFxFlg=           0 DoJE=F BraDBF=F KetDBF=F FulRan=T
         wScrn=  0.000000 ICntrl=       600 IOpCl=  0 I1Cent=           0 NGrid=           0
         NMat0=    1 NMatS0=  33153 NMatT0=    0 NMatD0=    1 NMtDS0=    0 NMtDT0=    0
 Symmetry not used in FoFCou.
 Two-electron integral symmetry not used.
 Closed shell SCF:
 Using DIIS extrapolation, IDIIS=  1040.
 NGot=  3758096384 LenX=  2658793876 LenY=  2658721611
 Requested convergence on RMS density matrix=1.00D-08 within  32 cycles.
 Requested convergence on MAX density matrix=1.00D-06.
 Requested convergence on             energy=1.00D-06.
 No special actions if energy rises.

 Cycle   1  Pass 1  IDiag  1:
 E= -1198.81507311149    
 DIIS: error= 1.27D-01 at cycle   1 NSaved=   1.
 NSaved= 1 IEnMin= 1 EnMin= -1198.81507311149     IErMin= 1 ErrMin= 1.27D-01
 ErrMax= 1.27D-01  0.00D+00 EMaxC= 1.00D-01 BMatC= 3.41D+00 BMatP= 3.41D+00
 IDIUse=3 WtCom= 0.00D+00 WtEn= 1.00D+00
 Coeff-Com:  0.100D+01
 Coeff-En:   0.100D+01
 Coeff:      0.100D+01
 Gap=     0.166 Goal=   None    Shift=    0.000
 GapD=    0.166 DampG=1.000 DampE=0.250 DampFc=0.2500 IDamp=-1.
 Damping current iteration by 2.50D-01
 RMSDP=1.05D-02 MaxDP=7.19D-01              OVMax= 4.26D-01

 Cycle   2  Pass 1  IDiag  1:
 E= -1199.08267175330     Delta-E=       -0.267598641803 Rises=F Damp=T
 DIIS: error= 9.11D-02 at cycle   2 NSaved=   2.
 NSaved= 2 IEnMin= 2 EnMin= -1199.08267175330     IErMin= 2 ErrMin= 9.11D-02
 ErrMax= 9.11D-02  0.00D+00 EMaxC= 1.00D-01 BMatC= 1.52D+00 BMatP= 3.41D+00
 IDIUse=3 WtCom= 8.91D-02 WtEn= 9.11D-01
 Coeff-Com: -0.167D+01 0.267D+01
 Coeff-En:   0.000D+00 0.100D+01
 Coeff:     -0.148D+00 0.115D+01
 Gap=     0.281 Goal=   None    Shift=    0.000
 RMSDP=6.92D-03 MaxDP=6.17D-01 DE=-2.68D-01 OVMax= 2.11D-01

 Cycle   3  Pass 1  IDiag  1:
 E= -1199.54189696205     Delta-E=       -0.459225208749 Rises=F Damp=F
 DIIS: error= 2.43D-02 at cycle   3 NSaved=   3.
 NSaved= 3 IEnMin= 3 EnMin= -1199.54189696205     IErMin= 3 ErrMin= 2.43D-02
 ErrMax= 2.43D-02  0.00D+00 EMaxC= 1.00D-01 BMatC= 1.84D-01 BMatP= 1.52D+00
 IDIUse=3 WtCom= 7.57D-01 WtEn= 2.43D-01
 Coeff-Com:  0.680D+00-0.740D+00 0.106D+01
 Coeff-En:   0.000D+00 0.000D+00 0.100D+01
 Coeff:      0.515D+00-0.560D+00 0.105D+01
 Gap=     0.229 Goal=   None    Shift=    0.000
 RMSDP=1.83D-03 MaxDP=8.22D-02 DE=-4.59D-01 OVMax= 5.95D-02

 Cycle   4  Pass 1  IDiag  1:
 E= -1199.59560533919     Delta-E=       -0.053708377140 Rises=F Damp=F
 DIIS: error= 9.35D-03 at cycle   4 NSaved=   4.
 NSaved= 4 IEnMin= 4 EnMin= -1199.59560533919     IErMin= 4 ErrMin= 9.35D-03
 ErrMax= 9.35D-03  0.00D+00 EMaxC= 1.00D-01 BMatC= 5.24D-02 BMatP= 1.84D-01
 IDIUse=3 WtCom= 9.07D-01 WtEn= 9.35D-02
 Coeff-Com:  0.462D+00-0.583D+00 0.584D+00 0.538D+00
 Coeff-En:   0.000D+00 0.000D+00 0.134D+00 0.866D+00
 Coeff:      0.419D+00-0.529D+00 0.542D+00 0.569D+00
 Gap=     0.231 Goal=   None    Shift=    0.000
 RMSDP=8.43D-04 MaxDP=2.65D-02 DE=-5.37D-02 OVMax= 7.43D-02

 Cycle   5  Pass 1  IDiag  1:
 E= -1199.61989538025     Delta-E=       -0.024290041060 Rises=F Damp=F
 DIIS: error= 5.71D-03 at cycle   5 NSaved=   5.
 NSaved= 5 IEnMin= 5 EnMin= -1199.61989538025     IErMin= 5 ErrMin= 5.71D-03
 ErrMax= 5.71D-03  0.00D+00 EMaxC= 1.00D-01 BMatC= 1.29D-02 BMatP= 5.24D-02
 IDIUse=3 WtCom= 9.43D-01 WtEn= 5.71D-02
 Coeff-Com:  0.208D+00-0.275D+00 0.247D+00 0.371D+00 0.449D+00
 Coeff-En:   0.000D+00 0.000D+00 0.000D+00 0.217D+00 0.783D+00
 Coeff:      0.196D+00-0.259D+00 0.233D+00 0.362D+00 0.468D+00
 Gap=     0.224 Goal=   None    Shift=    0.000
 RMSDP=4.66D-04 MaxDP=2.00D-02 DE=-2.43D-02 OVMax= 4.11D-02

 Cycle   6  Pass 1  IDiag  1:
 E= -1199.62841515239     Delta-E=       -0.008519772140 Rises=F Damp=F
 DIIS: error= 1.87D-03 at cycle   6 NSaved=   6.
 NSaved= 6 IEnMin= 6 EnMin= -1199.62841515239     IErMin= 6 ErrMin= 1.87D-03
 ErrMax= 1.87D-03  0.00D+00 EMaxC= 1.00D-01 BMatC= 1.44D-03 BMatP= 1.29D-02
 IDIUse=3 WtCom= 9.81D-01 WtEn= 1.87D-02
 Coeff-Com:  0.640D-01-0.877D-01 0.590D-01 0.127D+00 0.287D+00 0.551D+00
 Coeff-En:   0.000D+00 0.000D+00 0.000D+00 0.000D+00 0.629D-01 0.937D+00
 Coeff:      0.628D-01-0.860D-01 0.579D-01 0.125D+00 0.283D+00 0.558D+00
 Gap=     0.227 Goal=   None    Shift=    0.000
 RMSDP=2.08D-04 MaxDP=6.67D-03 DE=-8.52D-03 OVMax= 2.63D-02

 Cycle   7  Pass 1  IDiag  1:
 E= -1199.62992836962     Delta-E=       -0.001513217234 Rises=F Damp=F
 DIIS: error= 6.24D-04 at cycle   7 NSaved=   7.
 NSaved= 7 IEnMin= 7 EnMin= -1199.62992836962     IErMin= 7 ErrMin= 6.24D-04
 ErrMax= 6.24D-04  0.00D+00 EMaxC= 1.00D-01 BMatC= 2.44D-04 BMatP= 1.44D-03
 IDIUse=3 WtCom= 9.94D-01 WtEn= 6.24D-03
 Coeff-Com: -0.163D-01 0.207D-01-0.395D-01-0.776D-01-0.448D-01 0.266D+00
 Coeff-Com:  0.891D+00
 Coeff-En:   0.000D+00 0.000D+00 0.000D+00 0.000D+00 0.000D+00 0.000D+00
 Coeff-En:   0.100D+01
 Coeff:     -0.162D-01 0.206D-01-0.392D-01-0.771D-01-0.446D-01 0.264D+00
 Coeff:      0.892D+00
 Gap=     0.227 Goal=   None    Shift=    0.000
 RMSDP=2.16D-04 MaxDP=8.37D-03 DE=-1.51D-03 OVMax= 2.61D-02

 Cycle   8  Pass 1  IDiag  1:
 E= -1199.63065372861     Delta-E=       -0.000725358986 Rises=F Damp=F
 DIIS: error= 3.90D-04 at cycle   8 NSaved=   8.
 NSaved= 8 IEnMin= 8 EnMin= -1199.63065372861     IErMin= 8 ErrMin= 3.90D-04
 ErrMax= 3.90D-04  0.00D+00 EMaxC= 1.00D-01 BMatC= 6.46D-05 BMatP= 2.44D-04
 IDIUse=3 WtCom= 9.96D-01 WtEn= 3.90D-03
 Coeff-Com:  0.258D-02-0.333D-02-0.139D-01-0.628D-01-0.109D+00-0.864D-01
 Coeff-Com: -0.953D-01 0.137D+01
 Coeff-En:   0.000D+00 0.000D+00 0.000D+00 0.000D+00 0.000D+00 0.000D+00
 Coeff-En:   0.000D+00 0.100D+01
 Coeff:      0.257D-02-0.332D-02-0.138D-01-0.626D-01-0.108D+00-0.861D-01
 Coeff:     -0.949D-01 0.137D+01
 Gap=     0.226 Goal=   None    Shift=    0.000
 RMSDP=2.23D-04 MaxDP=7.25D-03 DE=-7.25D-04 OVMax= 3.09D-02

 Cycle   9  Pass 1  IDiag  1:
 E= -1199.63111197376     Delta-E=       -0.000458245153 Rises=F Damp=F
 DIIS: error= 2.06D-04 at cycle   9 NSaved=   9.
 NSaved= 9 IEnMin= 9 EnMin= -1199.63111197376     IErMin= 9 ErrMin= 2.06D-04
 ErrMax= 2.06D-04  0.00D+00 EMaxC= 1.00D-01 BMatC= 1.68D-05 BMatP= 6.46D-05
 IDIUse=3 WtCom= 9.98D-01 WtEn= 2.06D-03
 Coeff-Com:  0.135D-01-0.180D-01 0.120D-01 0.513D-02-0.126D-01-0.870D-01
 Coeff-Com: -0.364D+00 0.176D+00 0.127D+01
 Coeff-En:   0.000D+00 0.000D+00 0.000D+00 0.000D+00 0.000D+00 0.000D+00
 Coeff-En:   0.000D+00 0.000D+00 0.100D+01
 Coeff:      0.135D-01-0.179D-01 0.120D-01 0.512D-02-0.126D-01-0.868D-01
 Coeff:     -0.363D+00 0.176D+00 0.127D+01
 Gap=     0.225 Goal=   None    Shift=    0.000
 RMSDP=1.60D-04 MaxDP=4.15D-03 DE=-4.58D-04 OVMax= 2.34D-02

 Cycle  10  Pass 1  IDiag  1:
 E= -1199.63126297432     Delta-E=       -0.000151000567 Rises=F Damp=F
 DIIS: error= 9.10D-05 at cycle  10 NSaved=  10.
 NSaved=10 IEnMin=10 EnMin= -1199.63126297432     IErMin=10 ErrMin= 9.10D-05
 ErrMax= 9.10D-05  0.00D+00 EMaxC= 1.00D-01 BMatC= 2.52D-06 BMatP= 1.68D-05
 IDIUse=1 WtCom= 1.00D+00 WtEn= 0.00D+00
 Coeff-Com:  0.498D-02-0.662D-02 0.876D-02 0.196D-01 0.280D-01 0.600D-03
 Coeff-Com: -0.108D+00-0.335D+00 0.549D+00 0.838D+00
 Coeff:      0.498D-02-0.662D-02 0.876D-02 0.196D-01 0.280D-01 0.600D-03
 Coeff:     -0.108D+00-0.335D+00 0.549D+00 0.838D+00
 Gap=     0.224 Goal=   None    Shift=    0.000
 RMSDP=4.61D-05 MaxDP=1.14D-03 DE=-1.51D-04 OVMax= 6.98D-03

 Cycle  11  Pass 1  IDiag  1:
 E= -1199.63127826449     Delta-E=       -0.000015290162 Rises=F Damp=F
 DIIS: error= 3.17D-05 at cycle  11 NSaved=  11.
 NSaved=11 IEnMin=11 EnMin= -1199.63127826449     IErMin=11 ErrMin= 3.17D-05
 ErrMax= 3.17D-05  0.00D+00 EMaxC= 1.00D-01 BMatC= 3.51D-07 BMatP= 2.52D-06
 IDIUse=1 WtCom= 1.00D+00 WtEn= 0.00D+00
 Coeff-Com: -0.101D-03 0.180D-03 0.137D-02 0.543D-02 0.921D-02 0.139D-01
 Coeff-Com:  0.181D-01-0.943D-01-0.480D-01 0.186D+00 0.908D+00
 Coeff:     -0.101D-03 0.180D-03 0.137D-02 0.543D-02 0.921D-02 0.139D-01
 Coeff:      0.181D-01-0.943D-01-0.480D-01 0.186D+00 0.908D+00
 Gap=     0.223 Goal=   None    Shift=    0.000
 RMSDP=9.72D-06 MaxDP=2.50D-04 DE=-1.53D-05 OVMax= 1.03D-03

 Cycle  12  Pass 1  IDiag  1:
 E= -1199.63127997148     Delta-E=       -0.000001706989 Rises=F Damp=F
 DIIS: error= 1.85D-05 at cycle  12 NSaved=  12.
 NSaved=12 IEnMin=12 EnMin= -1199.63127997148     IErMin=12 ErrMin= 1.85D-05
 ErrMax= 1.85D-05  0.00D+00 EMaxC= 1.00D-01 BMatC= 1.41D-07 BMatP= 3.51D-07
 IDIUse=1 WtCom= 1.00D+00 WtEn= 0.00D+00
 Coeff-Com: -0.469D-03 0.637D-03-0.837D-03-0.197D-02-0.382D-02 0.364D-02
 Coeff-Com:  0.195D-01 0.447D-01-0.136D+00-0.144D+00 0.327D+00 0.892D+00
 Coeff:     -0.469D-03 0.637D-03-0.837D-03-0.197D-02-0.382D-02 0.364D-02
 Coeff:      0.195D-01 0.447D-01-0.136D+00-0.144D+00 0.327D+00 0.892D+00
 Gap=     0.223 Goal=   None    Shift=    0.000
 RMSDP=8.54D-06 MaxDP=2.74D-04 DE=-1.71D-06 OVMax= 9.88D-04

 Cycle  13  Pass 1  IDiag  1:
 E= -1199.63128057512     Delta-E=       -0.000000603647 Rises=F Damp=F
 DIIS: error= 6.33D-06 at cycle  13 NSaved=  13.
 NSaved=13 IEnMin=13 EnMin= -1199.63128057512     IErMin=13 ErrMin= 6.33D-06
 ErrMax= 6.33D-06  0.00D+00 EMaxC= 1.00D-01 BMatC= 1.98D-08 BMatP= 1.41D-07
 IDIUse=1 WtCom= 1.00D+00 WtEn= 0.00D+00
 Coeff-Com:  0.147D-03-0.210D-03-0.311D-03-0.130D-02-0.265D-02-0.132D-02
 Coeff-Com: -0.943D-03 0.243D-01-0.780D-02-0.662D-01-0.130D+00 0.233D+00
 Coeff-Com:  0.953D+00
 Coeff:      0.147D-03-0.210D-03-0.311D-03-0.130D-02-0.265D-02-0.132D-02
 Coeff:     -0.943D-03 0.243D-01-0.780D-02-0.662D-01-0.130D+00 0.233D+00
 Coeff:      0.953D+00
 Gap=     0.223 Goal=   None    Shift=    0.000
 RMSDP=2.72D-06 MaxDP=1.14D-04 DE=-6.04D-07 OVMax= 3.02D-04

 Cycle  14  Pass 1  IDiag  1:
 E= -1199.63128066332     Delta-E=       -0.000000088201 Rises=F Damp=F
 DIIS: error= 4.12D-06 at cycle  14 NSaved=  14.
 NSaved=14 IEnMin=14 EnMin= -1199.63128066332     IErMin=14 ErrMin= 4.12D-06
 ErrMax= 4.12D-06  0.00D+00 EMaxC= 1.00D-01 BMatC= 3.62D-09 BMatP= 1.98D-08
 IDIUse=1 WtCom= 1.00D+00 WtEn= 0.00D+00
 Coeff-Com:  0.105D-04-0.172D-04 0.154D-04 0.824D-04 0.121D-03-0.731D-03
 Coeff-Com: -0.193D-02-0.162D-02 0.184D-01 0.853D-02-0.737D-01-0.837D-01
 Coeff-Com:  0.109D+00 0.103D+01
 Coeff:      0.105D-04-0.172D-04 0.154D-04 0.824D-04 0.121D-03-0.731D-03
 Coeff:     -0.193D-02-0.162D-02 0.184D-01 0.853D-02-0.737D-01-0.837D-01
 Coeff:      0.109D+00 0.103D+01
 Gap=     0.223 Goal=   None    Shift=    0.000
 RMSDP=1.26D-06 MaxDP=4.13D-05 DE=-8.82D-08 OVMax= 1.18D-04

 Cycle  15  Pass 1  IDiag  1:
 E= -1199.63128068355     Delta-E=       -0.000000020224 Rises=F Damp=F
 DIIS: error= 2.45D-06 at cycle  15 NSaved=  15.
 NSaved=15 IEnMin=15 EnMin= -1199.63128068355     IErMin=15 ErrMin= 2.45D-06
 ErrMax= 2.45D-06  0.00D+00 EMaxC= 1.00D-01 BMatC= 1.22D-09 BMatP= 3.62D-09
 IDIUse=1 WtCom= 1.00D+00 WtEn= 0.00D+00
 Coeff-Com: -0.289D-04 0.410D-04 0.104D-03 0.405D-03 0.730D-03-0.143D-03
 Coeff-Com: -0.110D-02-0.665D-02 0.112D-01 0.204D-01-0.234D-02-0.977D-01
 Coeff-Com: -0.198D+00 0.497D+00 0.776D+00
 Coeff:     -0.289D-04 0.410D-04 0.104D-03 0.405D-03 0.730D-03-0.143D-03
 Coeff:     -0.110D-02-0.665D-02 0.112D-01 0.204D-01-0.234D-02-0.977D-01
 Coeff:     -0.198D+00 0.497D+00 0.776D+00
 Gap=     0.223 Goal=   None    Shift=    0.000
 RMSDP=4.40D-07 MaxDP=9.91D-06 DE=-2.02D-08 OVMax= 6.36D-05

 Cycle  16  Pass 1  IDiag  1:
 E= -1199.63128068872     Delta-E=       -0.000000005173 Rises=F Damp=F
 DIIS: error= 1.56D-06 at cycle  16 NSaved=  16.
 NSaved=16 IEnMin=16 EnMin= -1199.63128068872     IErMin=16 ErrMin= 1.56D-06
 ErrMax= 1.56D-06  0.00D+00 EMaxC= 1.00D-01 BMatC= 2.06D-10 BMatP= 1.22D-09
 IDIUse=1 WtCom= 1.00D+00 WtEn= 0.00D+00
 Coeff-Com:  0.372D-05-0.439D-05-0.360D-05-0.368D-04-0.632D-04 0.211D-03
 Coeff-Com:  0.278D-03 0.101D-03-0.452D-02-0.312D-02 0.168D-01 0.233D-01
 Coeff-Com: -0.618D-02-0.278D+00-0.484D-01 0.130D+01
 Coeff:      0.372D-05-0.439D-05-0.360D-05-0.368D-04-0.632D-04 0.211D-03
 Coeff:      0.278D-03 0.101D-03-0.452D-02-0.312D-02 0.168D-01 0.233D-01
 Coeff:     -0.618D-02-0.278D+00-0.484D-01 0.130D+01
 Gap=     0.223 Goal=   None    Shift=    0.000
 RMSDP=3.95D-07 MaxDP=9.46D-06 DE=-5.17D-09 OVMax= 6.22D-05

 Cycle  17  Pass 1  IDiag  1:
 E= -1199.63128069104     Delta-E=       -0.000000002318 Rises=F Damp=F
 DIIS: error= 8.14D-07 at cycle  17 NSaved=  17.
 NSaved=17 IEnMin=17 EnMin= -1199.63128069104     IErMin=17 ErrMin= 8.14D-07
 ErrMax= 8.14D-07  0.00D+00 EMaxC= 1.00D-01 BMatC= 5.28D-11 BMatP= 2.06D-10
 IDIUse=1 WtCom= 1.00D+00 WtEn= 0.00D+00
 Coeff-Com: -0.607D-06 0.620D-06-0.269D-04-0.914D-04-0.136D-03 0.937D-04
 Coeff-Com:  0.407D-03 0.123D-02-0.335D-02-0.422D-02 0.538D-02 0.228D-01
 Coeff-Com:  0.283D-01-0.151D+00-0.150D+00 0.280D+00 0.970D+00
 Coeff:     -0.607D-06 0.620D-06-0.269D-04-0.914D-04-0.136D-03 0.937D-04
 Coeff:      0.407D-03 0.123D-02-0.335D-02-0.422D-02 0.538D-02 0.228D-01
 Coeff:      0.283D-01-0.151D+00-0.150D+00 0.280D+00 0.970D+00
 Gap=     0.223 Goal=   None    Shift=    0.000
 RMSDP=1.34D-07 MaxDP=3.15D-06 DE=-2.32D-09 OVMax= 2.75D-05

 Cycle  18  Pass 1  IDiag  1:
 E= -1199.63128069154     Delta-E=       -0.000000000498 Rises=F Damp=F
 DIIS: error= 4.10D-07 at cycle  18 NSaved=  18.
 NSaved=18 IEnMin=18 EnMin= -1199.63128069154     IErMin=18 ErrMin= 4.10D-07
 ErrMax= 4.10D-07  0.00D+00 EMaxC= 1.00D-01 BMatC= 1.86D-11 BMatP= 5.28D-11
 IDIUse=1 WtCom= 1.00D+00 WtEn= 0.00D+00
 Coeff-Com: -0.118D-05 0.125D-05-0.992D-05-0.270D-04-0.353D-04-0.584D-04
 Coeff-Com:  0.607D-04 0.611D-03 0.146D-03-0.663D-03-0.377D-02 0.181D-02
 Coeff-Com:  0.129D-01 0.402D-01-0.485D-01-0.355D+00 0.383D+00 0.970D+00
 Coeff:     -0.118D-05 0.125D-05-0.992D-05-0.270D-04-0.353D-04-0.584D-04
 Coeff:      0.607D-04 0.611D-03 0.146D-03-0.663D-03-0.377D-02 0.181D-02
 Coeff:      0.129D-01 0.402D-01-0.485D-01-0.355D+00 0.383D+00 0.970D+00
 Gap=     0.223 Goal=   None    Shift=    0.000
 RMSDP=9.64D-08 MaxDP=2.57D-06 DE=-4.98D-10 OVMax= 1.81D-05

 Cycle  19  Pass 1  IDiag  1:
 E= -1199.63128069159     Delta-E=       -0.000000000057 Rises=F Damp=F
 DIIS: error= 1.45D-07 at cycle  19 NSaved=  19.
 NSaved=19 IEnMin=19 EnMin= -1199.63128069159     IErMin=19 ErrMin= 1.45D-07
 ErrMax= 1.45D-07  0.00D+00 EMaxC= 1.00D-01 BMatC= 3.27D-12 BMatP= 1.86D-11
 IDIUse=1 WtCom= 1.00D+00 WtEn= 0.00D+00
 Coeff-Com: -0.625D-06 0.772D-06 0.262D-05 0.120D-04 0.170D-04-0.406D-04
 Coeff-Com: -0.590D-04 0.270D-05 0.629D-03 0.692D-03-0.202D-02-0.431D-02
 Coeff-Com: -0.341D-02 0.440D-01 0.159D-01-0.153D+00-0.923D-01 0.255D+00
 Coeff-Com:  0.939D+00
 Coeff:     -0.625D-06 0.772D-06 0.262D-05 0.120D-04 0.170D-04-0.406D-04
 Coeff:     -0.590D-04 0.270D-05 0.629D-03 0.692D-03-0.202D-02-0.431D-02
 Coeff:     -0.341D-02 0.440D-01 0.159D-01-0.153D+00-0.923D-01 0.255D+00
 Coeff:      0.939D+00
 Gap=     0.223 Goal=   None    Shift=    0.000
 RMSDP=4.13D-08 MaxDP=1.21D-06 DE=-5.73D-11 OVMax= 6.26D-06

 Cycle  20  Pass 1  IDiag  1:
 E= -1199.63128069155     Delta-E=        0.000000000041 Rises=F Damp=F
 DIIS: error= 4.98D-08 at cycle  20 NSaved=  20.
 NSaved=20 IEnMin=19 EnMin= -1199.63128069159     IErMin=20 ErrMin= 4.98D-08
 ErrMax= 4.98D-08  0.00D+00 EMaxC= 1.00D-01 BMatC= 5.03D-13 BMatP= 3.27D-12
 IDIUse=1 WtCom= 1.00D+00 WtEn= 0.00D+00
 Coeff-Com:  0.304D-06-0.361D-06 0.185D-05 0.499D-05 0.316D-05 0.185D-05
 Coeff-Com: -0.257D-04-0.662D-04-0.626D-05 0.974D-04 0.427D-03-0.609D-03
 Coeff-Com: -0.189D-02-0.528D-02 0.106D-01 0.651D-01-0.104D+00-0.202D+00
 Coeff-Com:  0.131D+00 0.111D+01
 Coeff:      0.304D-06-0.361D-06 0.185D-05 0.499D-05 0.316D-05 0.185D-05
 Coeff:     -0.257D-04-0.662D-04-0.626D-05 0.974D-04 0.427D-03-0.609D-03
 Coeff:     -0.189D-02-0.528D-02 0.106D-01 0.651D-01-0.104D+00-0.202D+00
 Coeff:      0.131D+00 0.111D+01
 Gap=     0.223 Goal=   None    Shift=    0.000
 RMSDP=1.81D-08 MaxDP=7.55D-07 DE= 4.14D-11 OVMax= 2.85D-06

 Cycle  21  Pass 1  IDiag  1:
 E= -1199.63128069154     Delta-E=        0.000000000016 Rises=F Damp=F
 DIIS: error= 1.22D-08 at cycle  21 NSaved=  20.
 NSaved=20 IEnMin=18 EnMin= -1199.63128069159     IErMin=20 ErrMin= 1.22D-08
 ErrMax= 1.22D-08  0.00D+00 EMaxC= 1.00D-01 BMatC= 4.61D-14 BMatP= 5.03D-13
 IDIUse=1 WtCom= 1.00D+00 WtEn= 0.00D+00
 Coeff-Com:  0.143D-07-0.214D-06-0.119D-05-0.164D-05 0.287D-05 0.432D-05
 Coeff-Com:  0.680D-06-0.739D-04-0.995D-04 0.227D-03 0.578D-03 0.546D-03
 Coeff-Com: -0.514D-02-0.190D-02 0.179D-01 0.814D-02-0.328D-01-0.985D-01
 Coeff-Com:  0.740D-01 0.104D+01
 Coeff:      0.143D-07-0.214D-06-0.119D-05-0.164D-05 0.287D-05 0.432D-05
 Coeff:      0.680D-06-0.739D-04-0.995D-04 0.227D-03 0.578D-03 0.546D-03
 Coeff:     -0.514D-02-0.190D-02 0.179D-01 0.814D-02-0.328D-01-0.985D-01
 Coeff:      0.740D-01 0.104D+01
 Gap=     0.223 Goal=   None    Shift=    0.000
 RMSDP=4.56D-09 MaxDP=2.15D-07 DE= 1.59D-11 OVMax= 3.80D-07

 SCF Done:  E(RwB97XD) =  -1199.63128069     A.U. after   21 cycles
            NFock= 21  Conv=0.46D-08     -V/T= 2.0019
 KE= 1.197364753974D+03 PE=-4.639742081622D+03 EE= 1.346530985402D+03
 Leave Link  502 at Fri May 23 04:34:57 2025, MaxMem=  3758096384 cpu:              88.0 elap:              21.0
 (Enter /apps/easybuild-2022/easybuild/software/Compiler/NVHPC/22.11-CUDA-11.7.0/Gaussian/g16c01-CUDA-11.7.0/g16/l508.exe)
 QCSCF skips out because SCF is already converged.
 Leave Link  508 at Fri May 23 04:34:57 2025, MaxMem=  3758096384 cpu:               0.1 elap:               0.0
 (Enter /apps/easybuild-2022/easybuild/software/Compiler/NVHPC/22.11-CUDA-11.7.0/Gaussian/g16c01-CUDA-11.7.0/g16/l801.exe)
 DoSCS=F DFT=T ScalE2(SS,OS)=  1.000000  1.000000
 Range of M.O.s used for correlation:     1   257
 NBasis=   257 NAE=    49 NBE=    49 NFC=     0 NFV=     0
 NROrb=    257 NOA=    49 NOB=    49 NVA=   208 NVB=   208

 **** Warning!!: The largest alpha MO coefficient is  0.34282702D+02

 Leave Link  801 at Fri May 23 04:34:57 2025, MaxMem=  3758096384 cpu:               0.1 elap:               0.0
 (Enter /apps/easybuild-2022/easybuild/software/Compiler/NVHPC/22.11-CUDA-11.7.0/Gaussian/g16c01-CUDA-11.7.0/g16/l1101.exe)
 Using compressed storage, NAtomX=    12.
 Will process     13 centers per pass.
 R6Disp: Adding Grimme-D2 dispersion energy 1st derivatives to the gradient.
 Leave Link 1101 at Fri May 23 04:34:57 2025, MaxMem=  3758096384 cpu:               0.6 elap:               0.2
 (Enter /apps/easybuild-2022/easybuild/software/Compiler/NVHPC/22.11-CUDA-11.7.0/Gaussian/g16c01-CUDA-11.7.0/g16/l1102.exe)
 Symmetrizing basis deriv contribution to polar:
 IMax=3 JMax=2 DiffMx= 0.00D+00
 Leave Link 1102 at Fri May 23 04:34:57 2025, MaxMem=  3758096384 cpu:               0.1 elap:               0.1
 (Enter /apps/easybuild-2022/easybuild/software/Compiler/NVHPC/22.11-CUDA-11.7.0/Gaussian/g16c01-CUDA-11.7.0/g16/l1110.exe)
 Forming Gx(P) for the SCF density, NAtomX=    12.
 Integral derivatives from FoFJK, PRISM(SPDF).
 Do as many integral derivatives as possible in FoFJK.
 G2DrvN: MDV=    3758095012.
 G2DrvN: will do    13 centers at a time, making    1 passes.
 Calling FoFCou, ICntrl=  3107 FMM=F I1Cent=   0 AccDes= 0.00D+00.
 FoFJK:  IHMeth= 1 ICntrl=    3107 DoSepK=T KAlg= 0 I1Cent=           0 FoldK=F
 IRaf=         1 NMat=       1 IRICut=       1 DoRegI=T DoRafI=F ISym2E= 0 IDoP0=0 IntGTp=1.
 FoFCou: FMM=F IPFlag=           0 FMFlag=      100000 FMFlg1=           0
         NFxFlg=           0 DoJE=F BraDBF=F KetDBF=F FulRan=T
         wScrn=  0.000000 ICntrl=      3507 IOpCl=  0 I1Cent=           0 NGrid=           0
         NMat0=    1 NMatS0=      1 NMatT0=    0 NMatD0=    1 NMtDS0=    0 NMtDT0=    0
 Symmetry not used in FoFCou.
 End of G2Drv F.D. properties file   721 does not exist.
 End of G2Drv F.D. properties file   722 does not exist.
 End of G2Drv F.D. properties file   788 does not exist.
 Leave Link 1110 at Fri May 23 04:35:10 2025, MaxMem=  3758096384 cpu:              97.1 elap:              13.4
 (Enter /apps/easybuild-2022/easybuild/software/Compiler/NVHPC/22.11-CUDA-11.7.0/Gaussian/g16c01-CUDA-11.7.0/g16/l1002.exe)
 Minotr:  Closed shell wavefunction.
          IDoAtm=111111111111
          Direct CPHF calculation.
          Differentiating once with respect to electric field.
                with respect to dipole field.
          Differentiating once with respect to nuclear coordinates.
          Requested convergence is 1.0D-08 RMS, and 1.0D-07 maximum.
          Secondary convergence is 1.0D-12 RMS, and 1.0D-12 maximum.
          NewPWx=T KeepS1=F KeepF1=F KeepIn=T MapXYZ=F SortEE=F KeepMc=T.
         3710 words used for storage of precomputed grid.
 Keep R1 ints in memory in canonical form, NReq=1117480302.
 FoFCou: FMM=F IPFlag=           0 FMFlag=           0 FMFlg1=           0
         NFxFlg=           0 DoJE=F BraDBF=F KetDBF=F FulRan=T
         wScrn=  0.000000 ICntrl=       600 IOpCl=  0 I1Cent=           0 NGrid=           0
         NMat0=    1 NMatS0=  33153 NMatT0=    0 NMatD0=    1 NMtDS0=    0 NMtDT0=    0
 Symmetry not used in FoFCou.
 Two-electron integral symmetry not used.
          MDV=    3758096384 using IRadAn=       1.
          Solving linear equations simultaneously, MaxMat=       0.
          There are    39 degrees of freedom in the 1st order CPHF.  IDoFFX=6 NUNeed=     3.
     36 vectors produced by pass  0 Test12= 2.61D-14 2.56D-09 XBig12= 5.73D+01 4.00D+00.
 AX will form    36 AO Fock derivatives at one time.
     36 vectors produced by pass  1 Test12= 2.61D-14 2.56D-09 XBig12= 2.35D+01 8.85D-01.
     36 vectors produced by pass  2 Test12= 2.61D-14 2.56D-09 XBig12= 9.60D-01 1.81D-01.
     36 vectors produced by pass  3 Test12= 2.61D-14 2.56D-09 XBig12= 3.33D-02 3.28D-02.
     36 vectors produced by pass  4 Test12= 2.61D-14 2.56D-09 XBig12= 7.82D-04 3.91D-03.
     36 vectors produced by pass  5 Test12= 2.61D-14 2.56D-09 XBig12= 7.20D-06 3.89D-04.
     36 vectors produced by pass  6 Test12= 2.61D-14 2.56D-09 XBig12= 4.84D-08 1.99D-05.
     25 vectors produced by pass  7 Test12= 2.61D-14 2.56D-09 XBig12= 2.94D-10 1.79D-06.
      5 vectors produced by pass  8 Test12= 2.61D-14 2.56D-09 XBig12= 2.07D-12 1.43D-07.
      3 vectors produced by pass  9 Test12= 2.61D-14 2.56D-09 XBig12= 1.41D-14 1.24D-08.
 InvSVY:  IOpt=1 It=  1 EMax= 1.78D-15
 Solved reduced A of dimension   285 with    39 vectors.
 FullF1:  Do perturbations      1 to       3.
 Isotropic polarizability for W=    0.000000       67.63 Bohr**3.
 End of Minotr F.D. properties file   721 does not exist.
 End of Minotr F.D. properties file   722 does not exist.
 End of Minotr F.D. properties file   788 does not exist.
 Leave Link 1002 at Fri May 23 04:35:48 2025, MaxMem=  3758096384 cpu:             234.0 elap:              38.0
 (Enter /apps/easybuild-2022/easybuild/software/Compiler/NVHPC/22.11-CUDA-11.7.0/Gaussian/g16c01-CUDA-11.7.0/g16/l701.exe)
 ... and contract with generalized density number  0.
 Compute integral second derivatives.
 R6Disp: Adding Grimme-D2 dispersion energy 2nd derivatives to the Hessian.
 Leave Link  701 at Fri May 23 04:35:49 2025, MaxMem=  3758096384 cpu:               0.6 elap:               0.2
 (Enter /apps/easybuild-2022/easybuild/software/Compiler/NVHPC/22.11-CUDA-11.7.0/Gaussian/g16c01-CUDA-11.7.0/g16/l702.exe)
 L702 exits ... SP integral derivatives will be done elsewhere.
 Leave Link  702 at Fri May 23 04:35:49 2025, MaxMem=  3758096384 cpu:               0.1 elap:               0.0
 (Enter /apps/easybuild-2022/easybuild/software/Compiler/NVHPC/22.11-CUDA-11.7.0/Gaussian/g16c01-CUDA-11.7.0/g16/l703.exe)
 Integral derivatives from FoFJK, PRISM(SPDF).
 Compute integral second derivatives, UseDBF=F ICtDFT=           0.
 Calling FoFJK, ICntrl=    100127 FMM=F ISym2X=0 I1Cent= 0 IOpClX= 0 NMat=1 NMatS=1 NMatT=0.
 FoFJK:  IHMeth= 1 ICntrl=  100127 DoSepK=T KAlg= 0 I1Cent=           0 FoldK=F
 IRaf=         1 NMat=       1 IRICut=       1 DoRegI=T DoRafI=F ISym2E= 0 IDoP0=0 IntGTp=1.
 FoFCou: FMM=F IPFlag=           0 FMFlag=      100000 FMFlg1=         800
         NFxFlg=           0 DoJE=F BraDBF=F KetDBF=F FulRan=T
         wScrn=  0.000000 ICntrl=    100527 IOpCl=  0 I1Cent=           0 NGrid=           0
         NMat0=    1 NMatS0=      1 NMatT0=    0 NMatD0=    1 NMtDS0=    0 NMtDT0=    0
 Symmetry not used in FoFCou.
 Leave Link  703 at Fri May 23 04:36:19 2025, MaxMem=  3758096384 cpu:             244.5 elap:              31.0
 (Enter /apps/easybuild-2022/easybuild/software/Compiler/NVHPC/22.11-CUDA-11.7.0/Gaussian/g16c01-CUDA-11.7.0/g16/l716.exe)
 Dipole        =-2.53474526D-01 4.22273265D-01-2.31518680D-01
 Polarizability= 9.34483151D+01-3.68419509D+00 5.37817449D+01
                 9.67545829D+00-3.55458474D+00 5.56621032D+01
 -------------------------------------------------------------------
 Center     Atomic                   Forces (Hartrees/Bohr)
 Number     Number              X              Y              Z
 -------------------------------------------------------------------
      1        6          -0.001292208   -0.007188666    0.000437844
      2        6           0.015022686   -0.013743126    0.007879367
      3        9          -0.019622269    0.012981885    0.009064632
      4        9          -0.004528358   -0.002229554   -0.003929887
      5       16          -0.014243085    0.004258921   -0.042327171
      6        8           0.023281654   -0.004439891    0.000674257
      7        8          -0.008471453   -0.001688743    0.022140014
      8        8           0.001755364    0.000027729    0.004930616
      9        9           0.000949030    0.005003826    0.000953569
     10        9           0.001968288   -0.000097910    0.000268007
     11        9           0.002248205    0.001224596   -0.000179241
     12        1           0.002932146    0.005890933    0.000087994
 -------------------------------------------------------------------
 Cartesian Forces:  Max     0.042327171 RMS     0.011123690
 Force constants in Cartesian coordinates: 
                1             2             3             4             5 
      1  0.533136D+00
      2 -0.139310D-01  0.567447D+00
      3  0.187031D-01 -0.611579D-02  0.568654D+00
      4 -0.978027D-01  0.231922D-01 -0.315381D-01  0.353199D+00
      5  0.484905D-01 -0.664107D-01  0.401059D-01 -0.391217D-02  0.495905D+00
      6 -0.704728D-01  0.420297D-01 -0.989433D-01 -0.502314D-02  0.653002D-02
      7  0.350077D-02 -0.132892D-02 -0.117283D-01 -0.805241D-01  0.236121D-01
      8 -0.514399D-02  0.746893D-03  0.299058D-02  0.218084D-01 -0.745209D-01
      9  0.235298D-01 -0.196489D-01 -0.470313D-01  0.533242D-01 -0.565935D-01
     10  0.111089D-02  0.107269D-01 -0.306281D-02 -0.812301D-01 -0.747449D-01
     11 -0.180133D-01 -0.487017D-01 -0.487364D-02 -0.534508D-01 -0.277650D+00
     12  0.110124D-01  0.203141D-01  0.395249D-02 -0.173953D-02  0.884748D-02
     13 -0.864332D-02 -0.755293D-02  0.878603D-02 -0.350640D-02  0.635947D-01
     14  0.981474D-02  0.221520D-01 -0.759196D-02 -0.317802D-02 -0.297297D-01
     15 -0.119952D-01 -0.188970D-01  0.298890D-01  0.303008D-01  0.509300D-01
     16 -0.216233D-02  0.145651D-01 -0.183172D-01 -0.501680D-01 -0.424452D-01
     17 -0.261457D-03 -0.884942D-03 -0.749144D-03  0.324585D-02 -0.138404D-02
     18  0.295492D-02  0.105578D-02 -0.128871D-02  0.201915D-02 -0.340581D-02
     19  0.196333D-02 -0.671644D-02  0.860494D-02 -0.713006D-03  0.167435D-01
     20 -0.108460D-03 -0.493431D-02  0.349991D-02  0.772255D-02  0.945207D-02
     21  0.948363D-03  0.150147D-01 -0.198696D-01 -0.427401D-01 -0.410469D-01
     22  0.408566D-02  0.722444D-02 -0.698377D-03 -0.232868D-03 -0.268698D-01
     23 -0.193956D-02 -0.151388D-01  0.527833D-02  0.638327D-02 -0.183505D-01
     24  0.298435D-02  0.261855D-02 -0.300676D-02  0.229651D-02 -0.568593D-02
     25 -0.766068D-01 -0.848990D-02 -0.481071D-02  0.869473D-02  0.121273D-01
     26 -0.443633D-02 -0.293808D+00  0.835983D-02 -0.883188D-02 -0.416265D-01
     27 -0.431746D-02  0.356249D-02 -0.780760D-01  0.262527D-02  0.171417D-01
     28 -0.848157D-01  0.109529D-01  0.356528D-01  0.862675D-02 -0.329654D-02
     29  0.111457D-01 -0.855172D-01 -0.410702D-01 -0.144759D-02  0.487539D-02
     30  0.306772D-01 -0.356418D-01 -0.276999D+00  0.172668D-01 -0.205598D-01
     31 -0.271759D+00 -0.218716D-01 -0.756755D-04 -0.574083D-01 -0.509928D-02
     32 -0.235971D-01 -0.783694D-01  0.174463D-02  0.117786D-01  0.153942D-02
     33 -0.661130D-04  0.165709D-02 -0.765630D-01 -0.245946D-01  0.390931D-03
     34 -0.200725D-02 -0.677082D-02 -0.151572D-02  0.106513D-02 -0.820027D-02
     35 -0.201979D-02  0.341958D-02 -0.157843D-02 -0.331045D-02 -0.210010D-02
     36 -0.395852D-02 -0.594897D-02 -0.717448D-03 -0.219728D-02  0.334592D-02
                6             7             8             9            10 
      6  0.493801D+00
      7  0.819623D-01  0.830708D-01
      8 -0.575895D-01 -0.363521D-01  0.107965D+00
      9 -0.262016D+00 -0.767136D-01  0.107876D+00  0.334171D+00
     10  0.373024D-02  0.124010D-01  0.107188D-01 -0.189271D-02  0.713588D-01
     11  0.158792D-01 -0.872562D-03 -0.430196D-01 -0.381410D-01  0.736058D-01
     12 -0.668039D-01 -0.101558D-01 -0.551745D-01 -0.105464D-01  0.597897D-02
     13 -0.548586D-02 -0.155955D-01 -0.436398D-02  0.283333D-01  0.102437D-02
     14  0.172477D-01  0.112345D-01 -0.407574D-02 -0.167771D-01 -0.232442D-01
     15 -0.761757D-01  0.289244D-01 -0.106195D-01  0.713828D-02 -0.416114D-02
     16  0.159950D-01 -0.281318D-02  0.721088D-02 -0.307157D-01  0.244888D-02
     17  0.299913D-02  0.753494D-02 -0.126044D-02  0.574490D-04 -0.423431D-03
     18 -0.379898D-02 -0.276609D-02  0.126067D-02  0.324632D-02 -0.513459D-02
     19 -0.120545D-01 -0.686159D-02  0.259728D-02  0.130191D-01 -0.190058D-02
     20 -0.572393D-02 -0.274347D-02  0.332131D-03  0.664638D-02  0.718832D-03
     21  0.414582D-01 -0.210759D-02  0.393487D-02 -0.211487D-01  0.493856D-02
     22  0.187709D-02  0.101417D-02 -0.714746D-03 -0.328238D-02 -0.104939D-01
     23 -0.138371D-01 -0.104632D-02  0.679776D-02  0.572391D-02 -0.835536D-02
     24  0.759645D-03  0.994731D-04  0.239525D-02  0.122744D-02  0.271156D-03
     25  0.326965D-02  0.337396D-03  0.471101D-04 -0.183637D-02 -0.233566D-03
     26 -0.110141D-01 -0.120133D-03  0.450423D-02  0.350901D-02  0.545162D-02
     27  0.539931D-02 -0.682569D-03  0.248511D-02  0.282102D-02 -0.165134D-02
     28 -0.651717D-02  0.402628D-04  0.919449D-03 -0.504133D-02  0.359630D-03
     29  0.471732D-02  0.604465D-03  0.574330D-03  0.395068D-02  0.236157D-03
     30 -0.388367D-01 -0.591007D-02  0.410253D-02 -0.100899D-01 -0.706647D-03
     31  0.802520D-04  0.614316D-02 -0.407019D-03 -0.169260D-02  0.607117D-02
     32  0.205777D-02 -0.362740D-03  0.116546D-02  0.104514D-02  0.281053D-02
     33  0.502855D-03 -0.224573D-03  0.200583D-03  0.463352D-02  0.256780D-03
     34 -0.736106D-02 -0.713174D-03  0.367987D-02  0.296835D-02 -0.916512D-03
     35 -0.329626D-02 -0.159785D-03  0.791307D-03  0.235158D-02  0.249911D-02
     36  0.465272D-02 -0.697575D-03 -0.186247D-02 -0.240604D-02  0.143353D-02
               11            12            13            14            15 
     11  0.382701D+00
     12  0.181252D-01  0.717283D-01
     13 -0.140146D-01  0.181228D-02  0.212606D-01
     14 -0.157910D-01  0.562648D-03 -0.523243D-02  0.389016D+00
     15 -0.198902D-01  0.698791D-02 -0.173724D+00 -0.192356D-01  0.268963D+00
     16  0.178165D-01 -0.495088D-02  0.185672D+00 -0.355765D-01  0.245915D+00
     17  0.226458D-02 -0.155117D-02 -0.248105D-02 -0.619891D-01  0.731938D-01
     18 -0.297913D-02 -0.972791D-03 -0.123079D-01  0.104558D+00 -0.330015D+00
     19 -0.783443D-02  0.722799D-03 -0.140172D+00  0.313343D-01 -0.127260D+00
     20 -0.128061D-02  0.611576D-03 -0.291475D-01 -0.266063D-01 -0.351476D-01
     21  0.175149D-01 -0.400501D-02  0.150001D+00 -0.246547D-01  0.150566D+00
     22 -0.574145D-02  0.519243D-03 -0.419865D-01  0.201678D-01  0.249866D-01
     23 -0.357794D-02  0.622347D-03 -0.269178D-01 -0.224550D+00 -0.821598D-02
     24  0.280523D-02  0.957561D-03  0.742640D-02 -0.524200D-01 -0.432903D-01
     25  0.495116D-02 -0.305126D-02  0.676353D-03 -0.412088D-02  0.141086D-02
     26 -0.631740D-02  0.682323D-02  0.185733D-02 -0.916671D-02  0.666489D-02
     27  0.600910D-02 -0.259893D-02 -0.565382D-03 -0.787043D-03 -0.236412D-02
     28  0.129716D-02 -0.791542D-03  0.125316D-02 -0.312578D-03  0.228083D-02
     29  0.404092D-02  0.852139D-03  0.332276D-03 -0.255886D-02  0.290378D-03
     30  0.496686D-02  0.159150D-02 -0.227175D-02  0.752885D-03 -0.703828D-02
     31  0.120118D-02  0.170384D-03 -0.878084D-03  0.393835D-02 -0.116226D-01
     32  0.493354D-02 -0.279685D-03  0.111717D-02 -0.356403D-02  0.357361D-02
     33 -0.137357D-03  0.753787D-03 -0.148434D-02  0.289051D-02 -0.705106D-02
     34  0.105534D-02  0.472912D-03  0.896076D-03 -0.482511D-02 -0.505567D-02
     35  0.239756D-02  0.246607D-03  0.228088D-01 -0.331365D-01 -0.226469D-01
     36  0.720732D-03 -0.104442D-02 -0.520509D-03 -0.454487D-02  0.239011D-02
               16            17            18            19            20 
     16 -0.859560D-01
     17  0.182522D-01  0.738229D-01
     18 -0.511881D-01 -0.112925D+00  0.341842D+00
     19 -0.479169D-01 -0.208224D-01  0.666728D-01  0.212409D+00
     20  0.211297D-01 -0.776142D-02 -0.105262D-02 -0.274881D-01  0.408139D-01
     21 -0.158116D+00  0.104530D-01 -0.158765D-01  0.532917D-01  0.179425D-01
     22 -0.945326D-02 -0.491510D-02 -0.435120D-03 -0.969107D-02  0.294253D-01
     23  0.622442D-02 -0.730042D-02  0.126360D-01  0.702236D-02 -0.119558D-01
     24 -0.100445D-01  0.271885D-01  0.654075D-02  0.634342D-02  0.987660D-02
     25 -0.386988D-04  0.353985D-03 -0.579122D-03 -0.481655D-03  0.597609D-03
     26 -0.520889D-02  0.768483D-03 -0.250690D-03  0.216487D-02  0.191445D-02
     27  0.126228D-02  0.124617D-03  0.518358D-05 -0.678411D-03  0.000000D+00
     28 -0.129129D-03 -0.160305D-03 -0.741354D-03 -0.214378D-03 -0.845402D-04
     29 -0.682588D-03  0.266767D-03  0.951436D-04  0.255921D-03  0.413331D-03
     30  0.448093D-02  0.489535D-03  0.815046D-03 -0.221977D-02 -0.778259D-03
     31  0.875451D-02  0.496775D-03 -0.342184D-03 -0.524076D-02 -0.176362D-02
     32 -0.228452D-02  0.117788D-03 -0.370552D-03  0.107349D-02  0.790843D-03
     33  0.407915D-02  0.100752D-03  0.464603D-03 -0.205756D-02 -0.910427D-03
     34  0.176238D-02 -0.819986D-03  0.184749D-02 -0.117970D-02  0.174167D-02
     35  0.998905D-03  0.333980D-02  0.137864D-02  0.166968D-02 -0.117824D-02
     36  0.160078D-02  0.618436D-03 -0.961922D-03 -0.438459D-02  0.503524D-02
               21            22            23            24            25 
     21 -0.136666D+00
     22 -0.155102D-01  0.386752D+00
     23  0.758350D-02 -0.115788D+00  0.339094D+00
     24 -0.428030D-02 -0.228164D+00  0.848055D-01  0.196101D+00
     25 -0.565412D-03 -0.435691D-02  0.338964D-02 -0.217159D-02  0.879341D-01
     26 -0.547234D-02 -0.230907D-02  0.819220D-02 -0.757325D-03  0.456266D-01
     27  0.132315D-02 -0.172818D-02  0.622153D-03  0.328324D-03  0.179907D-02
     28 -0.606584D-03 -0.153210D-03 -0.336017D-03 -0.617092D-03  0.123859D-01
     29 -0.560193D-03 -0.760826D-03  0.190478D-02 -0.103480D-03  0.898657D-02
     30  0.446223D-02 -0.459649D-03 -0.325140D-03  0.109399D-02  0.386793D-02
     31  0.885472D-02  0.207833D-03 -0.214807D-02  0.664023D-04 -0.266918D-01
     32 -0.241280D-02 -0.112105D-02  0.239985D-02 -0.510537D-03 -0.639296D-01
     33  0.448776D-02  0.607006D-03 -0.185282D-02  0.706465D-03  0.176120D-02
     34  0.161171D-02 -0.315692D+00  0.133511D+00  0.221509D+00 -0.161905D-02
     35  0.170341D-02  0.101402D+00 -0.775152D-01 -0.702123D-01  0.460350D-03
     36 -0.451384D-03  0.222288D+00 -0.930406D-01 -0.157138D+00  0.905750D-03
               26            27            28            29            30 
     26  0.415260D+00
     27  0.313142D-01  0.776917D-01
     28  0.687967D-02  0.395107D-02  0.103832D+00
     29 -0.421233D-01 -0.612751D-01 -0.235877D-01  0.105340D+00
     30 -0.439529D-01 -0.176688D-01 -0.899531D-01  0.928246D-01  0.363180D+00
     31 -0.450502D-01 -0.687790D-04 -0.408880D-01  0.396839D-02  0.438662D-01
     32 -0.351582D-01  0.485184D-03  0.732140D-02  0.133488D-01 -0.221542D-02
     33  0.172720D-02  0.129834D-01  0.622828D-01 -0.471853D-03 -0.206510D-01
     34  0.397640D-02  0.544286D-04 -0.297662D-03  0.949178D-03  0.136189D-02
     35 -0.243925D-02  0.316986D-03  0.407056D-03 -0.565418D-03  0.336867D-03
     36  0.304895D-02  0.155796D-03  0.100707D-03  0.750547D-03  0.141145D-03
               31            32            33            34            35 
     31  0.381738D+00
     32  0.662547D-01  0.933612D-01
     33 -0.403259D-01 -0.400768D-02  0.799841D-01
     34 -0.492244D-04  0.939021D-03 -0.233803D-03  0.318751D+00
     35  0.480375D-03 -0.565246D-03  0.413069D-03 -0.125237D+00  0.107552D+00
     36  0.108976D-02  0.890350D-03 -0.251338D-03 -0.215660D+00  0.909867D-01
               36 
     36  0.155630D+00
 FormGI is forming the generalized inverse of G from B-inverse, IUseBI=4.
 Leave Link  716 at Fri May 23 04:36:20 2025, MaxMem=  3758096384 cpu:               0.1 elap:               0.1
 (Enter /apps/easybuild-2022/easybuild/software/Compiler/NVHPC/22.11-CUDA-11.7.0/Gaussian/g16c01-CUDA-11.7.0/g16/l103.exe)

 GradGradGradGradGradGradGradGradGradGradGradGradGradGradGradGradGradGrad
 Berny optimization.
 Red2BG is reusing G-inverse.
 Internal  Forces:  Max     0.034002647 RMS     0.009649031
 Search for a saddle point.
 Step number   1 out of a maximum of  100
 All quantities printed in internal units (Hartrees-Bohrs-Radians)
 Swapping is turned off.
 Second derivative matrix not updated -- analytic derivatives used.
 ITU=  0
     Eigenvalues ---   -0.59088   0.00057   0.00247   0.00338   0.01681
     Eigenvalues ---    0.03578   0.06670   0.08067   0.09527   0.10132
     Eigenvalues ---    0.10768   0.13248   0.13932   0.15227   0.16824
     Eigenvalues ---    0.19718   0.22846   0.23622   0.24263   0.24419
     Eigenvalues ---    0.30848   0.35784   0.36226   0.37140   0.38500
     Eigenvalues ---    0.39770   0.42449   0.47700   0.52670   0.55499
 Eigenvectors required to have negative eigenvalues:
                          A16       A14       D21       D20       A13
   1                    0.66237   0.38812  -0.34688   0.33494  -0.27413
                          R9        R7        D14       A18       A15
   1                   -0.23508   0.10440   0.06983  -0.06807  -0.06455
 RFO step:  Lambda0=3.403374323D-03 Lambda=-1.39156918D-02.
 Linear search not attempted -- option 19 set.
 Iteration  1 RMS(Cart)=  0.11537299 RMS(Int)=  0.00578726
 Iteration  2 RMS(Cart)=  0.00773861 RMS(Int)=  0.00230725
 Iteration  3 RMS(Cart)=  0.00003005 RMS(Int)=  0.00230715
 Iteration  4 RMS(Cart)=  0.00000018 RMS(Int)=  0.00230715
 ITry= 1 IFail=0 DXMaxC= 3.65D-01 DCOld= 1.00D+10 DXMaxT= 3.00D-01 DXLimC= 3.00D+00 Rises=F
 Variable       Old X    -DE/DX   Delta X   Delta X   Delta X     New X
                                 (Linear)    (Quad)   (Total)
    R1        2.92073  -0.00360   0.00000   0.00141   0.00141   2.92214
    R2        2.50900   0.00515   0.00000   0.01120   0.01120   2.52020
    R3        2.51250   0.00032   0.00000   0.00284   0.00284   2.51533
    R4        2.52254  -0.00245   0.00000  -0.00975  -0.00975   2.51279
    R5        2.53243   0.01748   0.00000   0.01150   0.01150   2.54393
    R6        2.53265   0.00339   0.00000  -0.00858  -0.00858   2.52407
    R7        3.85853   0.00526   0.00000   0.02021   0.02021   3.87873
    R8        2.92180   0.00076   0.00000  -0.00379  -0.00379   2.91801
    R9        3.06643   0.00036   0.00000  -0.04404  -0.04404   3.02239
   R10        3.06391   0.00595   0.00000   0.00628   0.00628   3.07019
   R11        1.82495  -0.00026   0.00000  -0.00093  -0.00093   1.82402
    A1        1.93115  -0.00102   0.00000   0.00303   0.00301   1.93416
    A2        1.92933  -0.00254   0.00000  -0.01183  -0.01183   1.91751
    A3        1.91798   0.00156   0.00000   0.00789   0.00790   1.92587
    A4        1.90182   0.00097   0.00000  -0.00216  -0.00218   1.89964
    A5        1.89072  -0.00019   0.00000  -0.00377  -0.00379   1.88693
    A6        1.89195   0.00131   0.00000   0.00702   0.00705   1.89899
    A7        1.90786  -0.01021   0.00000  -0.02050  -0.01352   1.89434
    A8        1.89838   0.00141   0.00000  -0.00546  -0.00627   1.89211
    A9        2.12811  -0.02042   0.00000  -0.16883  -0.16832   1.95979
   A10        1.89528  -0.00004   0.00000   0.02459   0.01867   1.91395
   A11        1.81640   0.02363   0.00000   0.14251   0.13889   1.95528
   A12        1.80598   0.00821   0.00000   0.04896   0.04088   1.84686
   A13        1.51277   0.01476   0.00000  -0.03503  -0.03504   1.47773
   A14        2.73888  -0.01920   0.00000  -0.00734  -0.00732   2.73156
   A15        1.57827   0.01329   0.00000   0.02727   0.02724   1.60552
   A16        1.22790  -0.03400   0.00000   0.02764   0.02768   1.25558
   A17        1.91047   0.00185   0.00000   0.00556   0.00595   1.91642
   A18        1.72887  -0.00590   0.00000  -0.02152  -0.02148   1.70739
   A19        1.90141   0.01157   0.00000   0.06782   0.06782   1.96923
    D1        0.96023   0.00450   0.00000  -0.01183  -0.00996   0.95027
    D2        3.02700  -0.00060   0.00000   0.00283   0.00114   3.02814
    D3       -1.15973  -0.00322   0.00000  -0.06105  -0.06122  -1.22096
    D4        3.06865   0.00336   0.00000  -0.02038  -0.01850   3.05016
    D5       -1.14776  -0.00174   0.00000  -0.00572  -0.00740  -1.15516
    D6        0.94870  -0.00435   0.00000  -0.06960  -0.06976   0.87893
    D7       -1.12696   0.00438   0.00000  -0.01410  -0.01224  -1.13921
    D8        0.93981  -0.00072   0.00000   0.00056  -0.00115   0.93866
    D9        3.03626  -0.00333   0.00000  -0.06332  -0.06351   2.97275
   D10        2.86798   0.00208   0.00000   0.09736   0.09507   2.96305
   D11        2.96075  -0.00175   0.00000   0.09583   0.09366   3.05441
   D12        0.95737   0.00119   0.00000   0.09297   0.09093   1.04830
   D13        0.70526   0.00918   0.00000   0.11639   0.12070   0.82596
   D14        0.79803   0.00536   0.00000   0.11485   0.11929   0.91732
   D15       -1.20535   0.00830   0.00000   0.11199   0.11656  -1.08879
   D16       -1.27493  -0.00262   0.00000   0.01827   0.01586  -1.25907
   D17       -1.18216  -0.00644   0.00000   0.01673   0.01445  -1.16771
   D18        3.09764  -0.00350   0.00000   0.01387   0.01172   3.10936
   D19        0.61558   0.00192   0.00000   0.00970   0.00970   0.62528
   D20       -0.89631  -0.01841   0.00000   0.03729   0.03723  -0.85908
   D21       -2.15741   0.01949   0.00000   0.01452   0.01458  -2.14283
         Item               Value     Threshold  Converged?
 Maximum Force            0.034003     0.000450     NO 
 RMS     Force            0.009649     0.000300     NO 
 Maximum Displacement     0.365496     0.001800     NO 
 RMS     Displacement     0.116472     0.001200     NO 
 Predicted change in Energy=-6.212882D-03
 Lowest energy point so far.  Saving SCF results.
 GradGradGradGradGradGradGradGradGradGradGradGradGradGradGradGradGradGrad

 Leave Link  103 at Fri May 23 04:36:20 2025, MaxMem=  3758096384 cpu:               0.1 elap:               0.0
 (Enter /apps/easybuild-2022/easybuild/software/Compiler/NVHPC/22.11-CUDA-11.7.0/Gaussian/g16c01-CUDA-11.7.0/g16/l202.exe)
                          Input orientation:                          
 ---------------------------------------------------------------------
 Center     Atomic      Atomic             Coordinates (Angstroms)
 Number     Number       Type             X           Y           Z
 ---------------------------------------------------------------------
      1          6           0       -0.756659    0.727687   -1.050680
      2          6           0       -0.055306   -0.026198    0.102966
      3          9           0       -0.481796    0.487781    1.271795
      4          9           0       -0.392187   -1.316632    0.029907
      5         16           0        1.989915    0.028266   -0.061407
      6          8           0        1.976306   -0.559114    1.366590
      7          8           0        3.504575   -0.227596    0.383962
      8          8           0        2.009129    1.651206    0.011169
      9          9           0       -0.566609    2.043219   -0.941884
     10          9           0       -0.270273    0.318358   -2.220121
     11          9           0       -2.065743    0.495680   -1.026090
     12          1           0        1.336983    2.007482    0.605272
 ---------------------------------------------------------------------
                    Distance matrix (angstroms):
                    1          2          3          4          5
     1  C    0.000000
     2  C    1.546331   0.000000
     3  F    2.350957   1.346191   0.000000
     4  F    2.340886   1.335682   2.192310   0.000000
     5  S    3.001919   2.052538   2.845688   2.737060   0.000000
     6  O    3.868870   2.451161   2.673433   2.823174   1.544143
     7  O    4.596616   3.576629   4.146223   4.061540   1.599380
     8  O    3.103223   2.661578   3.024474   3.817686   1.624675
     9  F    1.333633   2.373948   2.706835   3.501913   3.372105
    10  F    1.331057   2.358318   3.502417   2.784004   3.138892
    11  F    1.329711   2.364102   2.790918   2.683355   4.194931
    12  H    2.960302   2.515280   2.462052   3.790884   2.188167
                    6          7          8          9         10
     6  O    0.000000
     7  O    1.846908   0.000000
     8  O    2.593022   2.430068   0.000000
     9  F    4.309015   4.846546   2.774240   0.000000
    10  F    4.322218   4.618311   3.456994   2.167222   0.000000
    11  F    4.814111   5.791357   4.360702   2.156239   2.163531
    12  H    2.752409   3.121379   0.965231   2.453290   3.663231
                   11         12
    11  F    0.000000
    12  H    4.065148   0.000000
 Symmetry turned off by external request.
 Stoichiometry    C2HF5O3S
 Rotational constants (GHZ):           1.7130639           0.7413953           0.6728629
 Leave Link  202 at Fri May 23 04:36:20 2025, MaxMem=  3758096384 cpu:               0.0 elap:               0.0
 (Enter /apps/easybuild-2022/easybuild/software/Compiler/NVHPC/22.11-CUDA-11.7.0/Gaussian/g16c01-CUDA-11.7.0/g16/l301.exe)
 Standard basis: 6-311++G(d,p) (5D, 7F)
 Ernie: Thresh=  0.10000D-02 Tol=  0.10000D-05 Strict=F.
   257 basis functions,   419 primitive gaussians,   268 cartesian basis functions
    49 alpha electrons       49 beta electrons
       nuclear repulsion energy       899.5864770159 Hartrees.
 IExCor= 4639 DFT=T Ex+Corr=wB97XD ExCW=0 ScaHFX=  1.000000
 ScaDFX=  1.000000  1.000000  1.000000  1.000000 ScalE2=  1.000000  1.000000
 IRadAn=      5 IRanWt=     -1 IRanGd=            0 ICorTp=0 IEmpDi=121
 HFx  wShort=  0.000000 wLong=  0.200000 cFull=  0.222036 cShort=  0.000000 cLong=  0.777964
 DFx  wShort=  0.000000 wLong=  0.200000 cFull=  0.000000 cShort=  0.000000 cLong=  1.000000
 NAtoms=   12 NActive=   12 NUniq=   12 SFac= 1.00D+00 NAtFMM=   60 NAOKFM=F Big=F
 Integral buffers will be    131072 words long.
 Raffenetti 2 integral format.
 Two-electron integral symmetry is turned off.
 R6Disp:  Grimme-D2 Dispersion energy=       -0.0055163769 Hartrees.
 Nuclear repulsion after empirical dispersion term =      899.5809606390 Hartrees.
 Leave Link  301 at Fri May 23 04:36:20 2025, MaxMem=  3758096384 cpu:               0.1 elap:               0.0
 (Enter /apps/easybuild-2022/easybuild/software/Compiler/NVHPC/22.11-CUDA-11.7.0/Gaussian/g16c01-CUDA-11.7.0/g16/l302.exe)
 NPDir=0 NMtPBC=     1 NCelOv=     1 NCel=       1 NClECP=     1 NCelD=      1
         NCelK=      1 NCelE2=     1 NClLst=     1 CellRange=     0.0.
 One-electron integrals computed using PRISM.
 NBasis=   257 RedAO= T EigKep=  5.69D-05  NBF=   257
 NBsUse=   257 1.00D-06 EigRej= -1.00D+00 NBFU=   257
 Precomputing XC quadrature grid using
 IXCGrd= 4 IRadAn=           5 IRanWt=          -1 IRanGd=           0 AccXCQ= 0.00D+00.
 Generated NRdTot=       0 NPtTot=           0 NUsed=           0 NTot=          32
 NSgBfM=   268   268   268   268   268 MxSgAt=    12 MxSgA2=    12.
 Leave Link  302 at Fri May 23 04:36:20 2025, MaxMem=  3758096384 cpu:               0.6 elap:               0.3
 (Enter /apps/easybuild-2022/easybuild/software/Compiler/NVHPC/22.11-CUDA-11.7.0/Gaussian/g16c01-CUDA-11.7.0/g16/l303.exe)
 DipDrv:  MaxL=1.
 Leave Link  303 at Fri May 23 04:36:20 2025, MaxMem=  3758096384 cpu:               0.1 elap:               0.0
 (Enter /apps/easybuild-2022/easybuild/software/Compiler/NVHPC/22.11-CUDA-11.7.0/Gaussian/g16c01-CUDA-11.7.0/g16/l401.exe)
 Initial guess from the checkpoint file:  "/tmp/Gau-129538.chk"
 B after Tr=    -0.010919   -0.001315   -0.019007
         Rot=    0.999998    0.002025   -0.000373    0.000601 Ang=   0.25 deg.
 Guess basis will be translated and rotated to current coordinates.
 JPrj=2 DoOrth=T DoCkMO=T.
 Generating alternative initial guess.
 ExpMin= 3.60D-02 ExpMax= 9.34D+04 ExpMxC= 3.17D+03 IAcc=3 IRadAn=         5 AccDes= 0.00D+00
 Harris functional with IExCor= 4639 and IRadAn=       5 diagonalized for initial guess.
 HarFok:  IExCor= 4639 AccDes= 0.00D+00 IRadAn=         5 IDoV= 1 UseB2=F ITyADJ=14
 ICtDFT=  3500011 ScaDFX=  1.000000  1.000000  1.000000  1.000000
 FoFCou: FMM=F IPFlag=           0 FMFlag=      100000 FMFlg1=           0
         NFxFlg=           0 DoJE=T BraDBF=F KetDBF=T FulRan=T
         wScrn=  0.000000 ICntrl=       500 IOpCl=  0 I1Cent=   200000004 NGrid=           0
         NMat0=    1 NMatS0=      1 NMatT0=    0 NMatD0=    1 NMtDS0=    0 NMtDT0=    0
 Symmetry not used in FoFCou.
 Harris En= -1166.98921893130    
 Leave Link  401 at Fri May 23 04:36:21 2025, MaxMem=  3758096384 cpu:               2.4 elap:               0.5
 (Enter /apps/easybuild-2022/easybuild/software/Compiler/NVHPC/22.11-CUDA-11.7.0/Gaussian/g16c01-CUDA-11.7.0/g16/l502.exe)
 Keep R1 ints in memory in canonical form, NReq=1117474609.
 FoFCou: FMM=F IPFlag=           0 FMFlag=           0 FMFlg1=           0
         NFxFlg=           0 DoJE=F BraDBF=F KetDBF=F FulRan=T
         wScrn=  0.000000 ICntrl=       600 IOpCl=  0 I1Cent=           0 NGrid=           0
         NMat0=    1 NMatS0=  33153 NMatT0=    0 NMatD0=    1 NMtDS0=    0 NMtDT0=    0
 Symmetry not used in FoFCou.
 Two-electron integral symmetry not used.
 Closed shell SCF:
 Using DIIS extrapolation, IDIIS=  1040.
 NGot=  3758096384 LenX=  2658793876 LenY=  2658721611
 Requested convergence on RMS density matrix=1.00D-08 within  32 cycles.
 Requested convergence on MAX density matrix=1.00D-06.
 Requested convergence on             energy=1.00D-06.
 No special actions if energy rises.

 Cycle   1  Pass 1  IDiag  1:
 E= -1199.60251054665    
 DIIS: error= 6.13D-03 at cycle   1 NSaved=   1.
 NSaved= 1 IEnMin= 1 EnMin= -1199.60251054665     IErMin= 1 ErrMin= 6.13D-03
 ErrMax= 6.13D-03  0.00D+00 EMaxC= 1.00D-01 BMatC= 2.13D-02 BMatP= 2.13D-02
 IDIUse=3 WtCom= 9.39D-01 WtEn= 6.13D-02
 Coeff-Com:  0.100D+01
 Coeff-En:   0.100D+01
 Coeff:      0.100D+01
 Gap=     0.650 Goal=   None    Shift=    0.000
 GapD=    0.650 DampG=2.000 DampE=1.000 DampFc=2.0000 IDamp=-1.
 RMSDP=1.79D-03 MaxDP=9.79D-02              OVMax= 4.63D-02

 Cycle   2  Pass 1  IDiag  1:
 E= -1199.63441861917     Delta-E=       -0.031908072523 Rises=F Damp=F
 DIIS: error= 1.19D-03 at cycle   2 NSaved=   2.
 NSaved= 2 IEnMin= 2 EnMin= -1199.63441861917     IErMin= 2 ErrMin= 1.19D-03
 ErrMax= 1.19D-03  0.00D+00 EMaxC= 1.00D-01 BMatC= 9.65D-04 BMatP= 2.13D-02
 IDIUse=3 WtCom= 9.88D-01 WtEn= 1.19D-02
 Coeff-Com: -0.125D+00 0.112D+01
 Coeff-En:   0.000D+00 0.100D+01
 Coeff:     -0.124D+00 0.112D+01
 Gap=     0.224 Goal=   None    Shift=    0.000
 RMSDP=3.96D-04 MaxDP=1.46D-02 DE=-3.19D-02 OVMax= 2.90D-02

 Cycle   3  Pass 1  IDiag  1:
 E= -1199.63663091098     Delta-E=       -0.002212291806 Rises=F Damp=F
 DIIS: error= 9.38D-04 at cycle   3 NSaved=   3.
 NSaved= 3 IEnMin= 3 EnMin= -1199.63663091098     IErMin= 3 ErrMin= 9.38D-04
 ErrMax= 9.38D-04  0.00D+00 EMaxC= 1.00D-01 BMatC= 4.39D-04 BMatP= 9.65D-04
 IDIUse=3 WtCom= 9.91D-01 WtEn= 9.38D-03
 Coeff-Com: -0.762D-01 0.476D+00 0.601D+00
 Coeff-En:   0.000D+00 0.000D+00 0.100D+01
 Coeff:     -0.755D-01 0.471D+00 0.604D+00
 Gap=     0.225 Goal=   None    Shift=    0.000
 RMSDP=1.39D-04 MaxDP=3.68D-03 DE=-2.21D-03 OVMax= 1.28D-02

 Cycle   4  Pass 1  IDiag  1:
 E= -1199.63699972209     Delta-E=       -0.000368811111 Rises=F Damp=F
 DIIS: error= 7.98D-04 at cycle   4 NSaved=   4.
 NSaved= 4 IEnMin= 4 EnMin= -1199.63699972209     IErMin= 4 ErrMin= 7.98D-04
 ErrMax= 7.98D-04  0.00D+00 EMaxC= 1.00D-01 BMatC= 2.35D-04 BMatP= 4.39D-04
 IDIUse=3 WtCom= 9.92D-01 WtEn= 7.98D-03
 Coeff-Com: -0.245D-01 0.829D-01 0.413D+00 0.529D+00
 Coeff-En:   0.000D+00 0.000D+00 0.408D-01 0.959D+00
 Coeff:     -0.243D-01 0.822D-01 0.410D+00 0.532D+00
 Gap=     0.226 Goal=   None    Shift=    0.000
 RMSDP=8.46D-05 MaxDP=2.55D-03 DE=-3.69D-04 OVMax= 8.93D-03

 Cycle   5  Pass 1  IDiag  1:
 E= -1199.63727578668     Delta-E=       -0.000276064593 Rises=F Damp=F
 DIIS: error= 4.57D-04 at cycle   5 NSaved=   5.
 NSaved= 5 IEnMin= 5 EnMin= -1199.63727578668     IErMin= 5 ErrMin= 4.57D-04
 ErrMax= 4.57D-04  0.00D+00 EMaxC= 1.00D-01 BMatC= 5.85D-05 BMatP= 2.35D-04
 IDIUse=3 WtCom= 9.95D-01 WtEn= 4.57D-03
 Coeff-Com:  0.600D-02-0.872D-01 0.118D+00 0.351D+00 0.612D+00
 Coeff-En:   0.000D+00 0.000D+00 0.000D+00 0.000D+00 0.100D+01
 Coeff:      0.597D-02-0.868D-01 0.117D+00 0.350D+00 0.614D+00
 Gap=     0.226 Goal=   None    Shift=    0.000
 RMSDP=7.81D-05 MaxDP=2.24D-03 DE=-2.76D-04 OVMax= 9.26D-03

 Cycle   6  Pass 1  IDiag  1:
 E= -1199.63742193857     Delta-E=       -0.000146151885 Rises=F Damp=F
 DIIS: error= 2.78D-04 at cycle   6 NSaved=   6.
 NSaved= 6 IEnMin= 6 EnMin= -1199.63742193857     IErMin= 6 ErrMin= 2.78D-04
 ErrMax= 2.78D-04  0.00D+00 EMaxC= 1.00D-01 BMatC= 1.15D-05 BMatP= 5.85D-05
 IDIUse=3 WtCom= 9.97D-01 WtEn= 2.78D-03
 Coeff-Com:  0.892D-02-0.375D-01-0.131D+00-0.215D+00 0.929D-01 0.128D+01
 Coeff-En:   0.000D+00 0.000D+00 0.000D+00 0.000D+00 0.000D+00 0.100D+01
 Coeff:      0.890D-02-0.374D-01-0.131D+00-0.215D+00 0.926D-01 0.128D+01
 Gap=     0.227 Goal=   None    Shift=    0.000
 RMSDP=1.04D-04 MaxDP=2.79D-03 DE=-1.46D-04 OVMax= 1.44D-02

 Cycle   7  Pass 1  IDiag  1:
 E= -1199.63753747254     Delta-E=       -0.000115533978 Rises=F Damp=F
 DIIS: error= 1.16D-04 at cycle   7 NSaved=   7.
 NSaved= 7 IEnMin= 7 EnMin= -1199.63753747254     IErMin= 7 ErrMin= 1.16D-04
 ErrMax= 1.16D-04  0.00D+00 EMaxC= 1.00D-01 BMatC= 4.87D-06 BMatP= 1.15D-05
 IDIUse=3 WtCom= 9.99D-01 WtEn= 1.16D-03
 Coeff-Com:  0.346D-03 0.248D-01-0.800D-01-0.217D+00-0.226D+00 0.460D+00
 Coeff-Com:  0.104D+01
 Coeff-En:   0.000D+00 0.000D+00 0.000D+00 0.000D+00 0.000D+00 0.000D+00
 Coeff-En:   0.100D+01
 Coeff:      0.346D-03 0.248D-01-0.799D-01-0.217D+00-0.225D+00 0.460D+00
 Coeff:      0.104D+01
 Gap=     0.228 Goal=   None    Shift=    0.000
 RMSDP=7.33D-05 MaxDP=2.42D-03 DE=-1.16D-04 OVMax= 8.85D-03

 Cycle   8  Pass 1  IDiag  1:
 E= -1199.63757324240     Delta-E=       -0.000035769858 Rises=F Damp=F
 DIIS: error= 7.50D-05 at cycle   8 NSaved=   8.
 NSaved= 8 IEnMin= 8 EnMin= -1199.63757324240     IErMin= 8 ErrMin= 7.50D-05
 ErrMax= 7.50D-05  0.00D+00 EMaxC= 1.00D-01 BMatC= 1.42D-06 BMatP= 4.87D-06
 IDIUse=1 WtCom= 1.00D+00 WtEn= 0.00D+00
 Coeff-Com: -0.289D-02 0.299D-01-0.525D-02-0.638D-01-0.168D+00-0.659D-01
 Coeff-Com:  0.587D+00 0.689D+00
 Coeff:     -0.289D-02 0.299D-01-0.525D-02-0.638D-01-0.168D+00-0.659D-01
 Coeff:      0.587D+00 0.689D+00
 Gap=     0.228 Goal=   None    Shift=    0.000
 RMSDP=2.67D-05 MaxDP=7.68D-04 DE=-3.58D-05 OVMax= 3.62D-03

 Cycle   9  Pass 1  IDiag  1:
 E= -1199.63757892399     Delta-E=       -0.000005681587 Rises=F Damp=F
 DIIS: error= 2.51D-05 at cycle   9 NSaved=   9.
 NSaved= 9 IEnMin= 9 EnMin= -1199.63757892399     IErMin= 9 ErrMin= 2.51D-05
 ErrMax= 2.51D-05  0.00D+00 EMaxC= 1.00D-01 BMatC= 3.38D-07 BMatP= 1.42D-06
 IDIUse=1 WtCom= 1.00D+00 WtEn= 0.00D+00
 Coeff-Com: -0.978D-03 0.518D-02 0.123D-01 0.215D-01-0.204D-01-0.107D+00
 Coeff-Com: -0.661D-01 0.267D+00 0.889D+00
 Coeff:     -0.978D-03 0.518D-02 0.123D-01 0.215D-01-0.204D-01-0.107D+00
 Coeff:     -0.661D-01 0.267D+00 0.889D+00
 Gap=     0.228 Goal=   None    Shift=    0.000
 RMSDP=1.48D-05 MaxDP=7.56D-04 DE=-5.68D-06 OVMax= 1.59D-03

 Cycle  10  Pass 1  IDiag  1:
 E= -1199.63758023921     Delta-E=       -0.000001315223 Rises=F Damp=F
 DIIS: error= 1.34D-05 at cycle  10 NSaved=  10.
 NSaved=10 IEnMin=10 EnMin= -1199.63758023921     IErMin=10 ErrMin= 1.34D-05
 ErrMax= 1.34D-05  0.00D+00 EMaxC= 1.00D-01 BMatC= 5.29D-08 BMatP= 3.38D-07
 IDIUse=1 WtCom= 1.00D+00 WtEn= 0.00D+00
 Coeff-Com:  0.264D-03-0.466D-02 0.461D-02 0.221D-01 0.291D-01-0.670D-02
 Coeff-Com: -0.157D+00-0.386D-01 0.335D+00 0.816D+00
 Coeff:      0.264D-03-0.466D-02 0.461D-02 0.221D-01 0.291D-01-0.670D-02
 Coeff:     -0.157D+00-0.386D-01 0.335D+00 0.816D+00
 Gap=     0.228 Goal=   None    Shift=    0.000
 RMSDP=3.35D-06 MaxDP=1.13D-04 DE=-1.32D-06 OVMax= 2.92D-04

 Cycle  11  Pass 1  IDiag  1:
 E= -1199.63758044557     Delta-E=       -0.000000206352 Rises=F Damp=F
 DIIS: error= 7.36D-06 at cycle  11 NSaved=  11.
 NSaved=11 IEnMin=11 EnMin= -1199.63758044557     IErMin=11 ErrMin= 7.36D-06
 ErrMax= 7.36D-06  0.00D+00 EMaxC= 1.00D-01 BMatC= 1.41D-08 BMatP= 5.29D-08
 IDIUse=1 WtCom= 1.00D+00 WtEn= 0.00D+00
 Coeff-Com:  0.356D-03-0.320D-02-0.115D-02 0.409D-02 0.145D-01 0.205D-01
 Coeff-Com: -0.471D-01-0.733D-01-0.122D+00 0.264D+00 0.943D+00
 Coeff:      0.356D-03-0.320D-02-0.115D-02 0.409D-02 0.145D-01 0.205D-01
 Coeff:     -0.471D-01-0.733D-01-0.122D+00 0.264D+00 0.943D+00
 Gap=     0.228 Goal=   None    Shift=    0.000
 RMSDP=2.78D-06 MaxDP=1.39D-04 DE=-2.06D-07 OVMax= 2.54D-04

 Cycle  12  Pass 1  IDiag  1:
 E= -1199.63758053467     Delta-E=       -0.000000089107 Rises=F Damp=F
 DIIS: error= 4.32D-06 at cycle  12 NSaved=  12.
 NSaved=12 IEnMin=12 EnMin= -1199.63758053467     IErMin=12 ErrMin= 4.32D-06
 ErrMax= 4.32D-06  0.00D+00 EMaxC= 1.00D-01 BMatC= 2.57D-09 BMatP= 1.41D-08
 IDIUse=1 WtCom= 1.00D+00 WtEn= 0.00D+00
 Coeff-Com: -0.389D-07 0.598D-03-0.142D-02-0.455D-02-0.498D-02 0.674D-02
 Coeff-Com:  0.272D-01-0.844D-03-0.118D+00-0.145D+00 0.179D+00 0.106D+01
 Coeff:     -0.389D-07 0.598D-03-0.142D-02-0.455D-02-0.498D-02 0.674D-02
 Coeff:      0.272D-01-0.844D-03-0.118D+00-0.145D+00 0.179D+00 0.106D+01
 Gap=     0.228 Goal=   None    Shift=    0.000
 RMSDP=1.23D-06 MaxDP=3.40D-05 DE=-8.91D-08 OVMax= 1.17D-04

 Cycle  13  Pass 1  IDiag  1:
 E= -1199.63758055681     Delta-E=       -0.000000022139 Rises=F Damp=F
 DIIS: error= 2.15D-06 at cycle  13 NSaved=  13.
 NSaved=13 IEnMin=13 EnMin= -1199.63758055681     IErMin=13 ErrMin= 2.15D-06
 ErrMax= 2.15D-06  0.00D+00 EMaxC= 1.00D-01 BMatC= 6.40D-10 BMatP= 2.57D-09
 IDIUse=1 WtCom= 1.00D+00 WtEn= 0.00D+00
 Coeff-Com: -0.711D-04 0.844D-03-0.266D-03-0.236D-02-0.480D-02-0.139D-02
 Coeff-Com:  0.194D-01 0.162D-01-0.189D-01-0.978D-01-0.123D+00 0.346D+00
 Coeff-Com:  0.867D+00
 Coeff:     -0.711D-04 0.844D-03-0.266D-03-0.236D-02-0.480D-02-0.139D-02
 Coeff:      0.194D-01 0.162D-01-0.189D-01-0.978D-01-0.123D+00 0.346D+00
 Coeff:      0.867D+00
 Gap=     0.228 Goal=   None    Shift=    0.000
 RMSDP=3.68D-07 MaxDP=1.16D-05 DE=-2.21D-08 OVMax= 6.51D-05

 Cycle  14  Pass 1  IDiag  1:
 E= -1199.63758056070     Delta-E=       -0.000000003886 Rises=F Damp=F
 DIIS: error= 1.21D-06 at cycle  14 NSaved=  14.
 NSaved=14 IEnMin=14 EnMin= -1199.63758056070     IErMin=14 ErrMin= 1.21D-06
 ErrMax= 1.21D-06  0.00D+00 EMaxC= 1.00D-01 BMatC= 1.73D-10 BMatP= 6.40D-10
 IDIUse=1 WtCom= 1.00D+00 WtEn= 0.00D+00
 Coeff-Com: -0.163D-04 0.379D-04 0.302D-03 0.588D-03 0.298D-03-0.162D-02
 Coeff-Com: -0.329D-02 0.480D-02 0.258D-01 0.208D-01-0.803D-01-0.209D+00
 Coeff-Com:  0.212D+00 0.103D+01
 Coeff:     -0.163D-04 0.379D-04 0.302D-03 0.588D-03 0.298D-03-0.162D-02
 Coeff:     -0.329D-02 0.480D-02 0.258D-01 0.208D-01-0.803D-01-0.209D+00
 Coeff:      0.212D+00 0.103D+01
 Gap=     0.228 Goal=   None    Shift=    0.000
 RMSDP=2.40D-07 MaxDP=6.13D-06 DE=-3.89D-09 OVMax= 4.71D-05

 Cycle  15  Pass 1  IDiag  1:
 E= -1199.63758056220     Delta-E=       -0.000000001504 Rises=F Damp=F
 DIIS: error= 7.74D-07 at cycle  15 NSaved=  15.
 NSaved=15 IEnMin=15 EnMin= -1199.63758056220     IErMin=15 ErrMin= 7.74D-07
 ErrMax= 7.74D-07  0.00D+00 EMaxC= 1.00D-01 BMatC= 5.11D-11 BMatP= 1.73D-10
 IDIUse=1 WtCom= 1.00D+00 WtEn= 0.00D+00
[...]
     18 -0.540517D-02  0.189132D-02 -0.593229D-01  0.180524D+00 -0.252139D+00
     19 -0.946707D-02  0.366586D-03 -0.189565D+00  0.637075D-01 -0.744144D-01
     20 -0.924093D-02  0.312172D-02 -0.770768D-01  0.216140D-02 -0.729859D-01
     21  0.181173D-01 -0.654081D-02  0.132510D+00 -0.677184D-01  0.819433D-01
     22 -0.189960D-02  0.356068D-03 -0.435351D-01  0.654578D-02  0.228679D-01
     23 -0.350622D-02  0.103988D-02 -0.235400D-01 -0.179493D+00 -0.682022D-01
     24  0.960549D-03  0.741219D-03 -0.428988D-02 -0.102788D+00 -0.866375D-01
     25  0.337597D-02 -0.263248D-02  0.300644D-02 -0.407677D-02  0.179005D-02
     26 -0.460114D-02  0.793038D-02  0.327818D-02 -0.964433D-02  0.295671D-02
     27  0.708100D-02 -0.594882D-02 -0.102568D-02  0.865749D-03 -0.324494D-02
     28  0.127787D-02 -0.987289D-03  0.129953D-02 -0.544875D-03  0.225599D-02
     29  0.541252D-02  0.132229D-02 -0.432667D-03 -0.207040D-02 -0.189328D-02
     30  0.325521D-02  0.853018D-03 -0.375947D-02  0.192787D-02 -0.708252D-02
     31  0.164432D-02 -0.173380D-03 -0.325150D-02  0.711659D-02 -0.809659D-02
     32  0.472288D-02 -0.117518D-02  0.225590D-02 -0.417135D-02  0.275459D-02
     33 -0.850143D-03  0.104787D-02 -0.376948D-02  0.538940D-02 -0.686371D-02
     34  0.106587D-02  0.107653D-02 -0.923340D-03  0.125468D-02 -0.796051D-02
     35  0.132330D-02  0.226536D-03  0.178759D-01 -0.138474D-01 -0.247014D-01
     36  0.910338D-03 -0.106777D-02  0.874420D-02 -0.134270D-01 -0.928805D-02
               16            17            18            19            20 
     16 -0.983101D-01
     17  0.280821D-01  0.192386D+00
     18 -0.723663D-02 -0.181861D+00  0.234368D+00
     19 -0.650625D-01 -0.432256D-01  0.627618D-01  0.284534D+00
     20  0.650460D-01 -0.122695D-01  0.531052D-03 -0.320400D-01  0.147712D-01
     21 -0.121532D+00  0.179870D-01 -0.272011D-03 -0.355168D-02  0.667957D-01
     22 -0.882463D-02 -0.224091D-02  0.216375D-02 -0.137928D-01  0.367623D-01
     23  0.108854D-01 -0.212269D-01  0.206059D-02  0.543862D-02 -0.168798D-01
     24 -0.291716D-02  0.173399D-01  0.189762D-01  0.116522D-01 -0.250453D-02
     25 -0.105207D-02  0.646871D-03 -0.655368D-03 -0.242934D-03  0.800662D-03
     26 -0.499618D-02  0.989230D-03  0.514419D-04  0.152121D-02  0.304351D-02
     27  0.236377D-02  0.787037D-04 -0.947486D-04 -0.105462D-02 -0.112486D-02
     28 -0.768825D-03  0.299970D-03 -0.105006D-02 -0.184451D-03  0.340487D-03
     29  0.886974D-03  0.320809D-03  0.493863D-04 -0.446082D-03 -0.250953D-03
     30  0.594793D-02  0.214305D-03 -0.139550D-03 -0.224716D-02 -0.287318D-02
     31  0.857096D-02  0.207394D-03 -0.169487D-02 -0.372424D-02 -0.459293D-02
     32 -0.280653D-02  0.279926D-03  0.675522D-04  0.828940D-03  0.161133D-02
     33  0.541856D-02 -0.179650D-03 -0.267977D-03 -0.198886D-02 -0.300882D-02
     34  0.352007D-02 -0.186580D-02  0.149071D-02 -0.535397D-03 -0.609789D-03
     35  0.337858D-02  0.126038D-02  0.160267D-02  0.393591D-02 -0.577647D-02
     36 -0.921708D-03  0.224716D-02 -0.752472D-03 -0.309274D-02  0.524720D-02
               21            22            23            24            25 
     21 -0.889636D-01
     22  0.219566D-02  0.418204D+00
     23  0.333159D-02 -0.643017D-01  0.269065D+00
     24  0.116210D-02 -0.245200D+00  0.130021D+00  0.227584D+00
     25 -0.990632D-03 -0.334333D-02  0.242543D-02 -0.251496D-02  0.103506D+00
     26 -0.392483D-02 -0.181567D-02  0.656796D-02  0.525598D-03  0.829165D-01
     27  0.214105D-02 -0.215910D-02 -0.311844D-03 -0.109667D-02 -0.114779D-01
     28 -0.113588D-02 -0.194268D-03 -0.798164D-03 -0.109019D-02  0.137787D-01
     29  0.824835D-03 -0.742923D-03  0.188846D-02  0.563355D-03  0.380163D-02
     30  0.496930D-02 -0.606247D-03  0.309625D-04  0.742713D-03 -0.179501D-02
     31  0.745113D-02 -0.203738D-04 -0.286754D-02 -0.163523D-02 -0.414576D-01
     32 -0.241640D-02 -0.712812D-03  0.209756D-02  0.203970D-03 -0.610846D-01
     33  0.494503D-02  0.441423D-03 -0.206605D-02 -0.288710D-04  0.128576D-01
     34  0.353397D-02 -0.342064D+00  0.747311D-01  0.235808D+00  0.178646D-03
     35  0.146999D-02  0.450466D-01 -0.424741D-01 -0.443011D-01 -0.188183D-03
     36  0.515677D-03  0.227016D+00 -0.618450D-01 -0.158624D+00  0.151169D-02
               26            27            28            29            30 
     26  0.381780D+00
     27 -0.326509D-01  0.786222D-01
     28  0.534111D-03 -0.315799D-02  0.106171D+00
     29 -0.635089D-01 -0.505095D-01 -0.448815D-01  0.164538D+00
     30 -0.334807D-01  0.296016D-02 -0.778657D-01  0.141981D+00  0.299912D+00
     31 -0.430466D-01  0.721678D-02 -0.428310D-01  0.203012D-01  0.383825D-01
     32 -0.185322D-01  0.483617D-02  0.273901D-01  0.628259D-02 -0.119270D-01
     33  0.645123D-02  0.118114D-01  0.556672D-01 -0.130050D-01 -0.113012D-01
     34  0.145133D-02  0.447650D-03 -0.238316D-03  0.722948D-03  0.111433D-02
     35 -0.161678D-02  0.190354D-03  0.190560D-03 -0.427362D-03  0.496194D-03
     36  0.206816D-02  0.623458D-03  0.817643D-04  0.776164D-03  0.314085D-03
               31            32            33            34            35 
     31  0.409520D+00
     32  0.184407D-01  0.800876D-01
     33 -0.319409D-01  0.225055D-02  0.749239D-01
     34 -0.813450D-03  0.544062D-03 -0.264926D-03  0.342545D+00
     35  0.348060D-03 -0.412828D-03  0.403099D-03 -0.703566D-01  0.607030D-01
     36  0.119013D-02  0.477675D-03 -0.370483D-05 -0.230299D+00  0.673802D-01
               36 
     36  0.167638D+00
 Red2BG is reusing G-inverse.
 Leave Link  716 at Fri May 23 04:45:50 2025, MaxMem=  3758096384 cpu:               0.1 elap:               0.0
 (Enter /apps/easybuild-2022/easybuild/software/Compiler/NVHPC/22.11-CUDA-11.7.0/Gaussian/g16c01-CUDA-11.7.0/g16/l9999.exe)

 ----------------------------------------------------------------------

 Electric dipole moment (input orientation):
 (Debye = 10**-18 statcoulomb cm , SI units = C m)
                  (au)            (Debye)         (10**-30 SI)
   Tot        0.653734D+00      0.166163D+01      0.554259D+01
   x         -0.453767D+00     -0.115336D+01     -0.384719D+01
   y          0.460199D+00      0.116971D+01      0.390173D+01
   z         -0.983885D-01     -0.250079D+00     -0.834173D+00

 Dipole polarizability, Alpha (input orientation).
 (esu units = cm**3 , SI units = C**2 m**2 J**-1)
 Alpha(0;0):
               (au)            (10**-24 esu)      (10**-40 SI)
   iso        0.689736D+02      0.102208D+02      0.113722D+02
   aniso      0.451902D+02      0.669650D+01      0.745086D+01
   xx         0.981904D+02      0.145503D+02      0.161894D+02
   yx        -0.347373D+01     -0.514754D+00     -0.572741D+00
   yy         0.565474D+02      0.837946D+01      0.932340D+01
   zx         0.433836D+01      0.642879D+00      0.715299D+00
   zy        -0.220236D+01     -0.326356D+00     -0.363120D+00
   zz         0.521829D+02      0.773271D+01      0.860380D+01

 ----------------------------------------------------------------------

 Dipole orientation:
     6          1.16279612          1.41545379          2.17244124
     6         -0.19622586         -0.14351710          0.11485875
     9         -1.49607268         -2.02863983          1.26701009
     9         -1.80694146          1.37455342         -1.08315414
    16          2.57556538         -1.68308859         -2.29294669
     8          0.29253267         -2.18977895         -4.04484005
     8          3.58887922         -2.87595245         -4.86536234
     8          2.95543991         -4.11919686         -0.48442916
     9          2.76972293         -0.05066580          3.45039135
     9          2.46097816          3.28283670          1.09663933
     9         -0.47684560          2.40474448          3.79861538
     1          1.53473104         -4.40884666          0.62554708

 Electric dipole moment (dipole orientation):
 (Debye = 10**-18 statcoulomb cm , SI units = C m)
                  (au)            (Debye)         (10**-30 SI)
   Tot        0.653734D+00      0.166163D+01      0.554259D+01
   x          0.000000D+00      0.000000D+00      0.000000D+00
   y          0.000000D+00      0.000000D+00      0.000000D+00
   z          0.653734D+00      0.166163D+01      0.554259D+01

 Dipole polarizability, Alpha (dipole orientation).
 (esu units = cm**3 , SI units = C**2 m**2 J**-1)
 Alpha(0;0):
               (au)            (10**-24 esu)      (10**-40 SI)
   iso        0.689736D+02      0.102208D+02      0.113722D+02
   aniso      0.451902D+02      0.669650D+01      0.745086D+01
   xx         0.645957D+02      0.957210D+01      0.106504D+02
   yx        -0.113443D+02     -0.168105D+01     -0.187042D+01
   yy         0.610452D+02      0.904596D+01      0.100650D+02
   zx        -0.147261D+02     -0.218218D+01     -0.242801D+01
   zy         0.147796D+02      0.219010D+01      0.243682D+01
   zz         0.812798D+02      0.120444D+02      0.134012D+02

 ----------------------------------------------------------------------
 Unable to Open any file for archive entry.
 1\1\GINC-SPARTAN-BM171\Freq\RwB97XD\6-311++G(d,p)\C2H1F5O3S1\AKHALILOV
 \23-May-2025\0\\#P wb97xd/6-311++G(d,p) Symm(None) scf(xqc) pop(None) 
 opt(NoFreeze,TS,CalcAll,NoEigentest,MaxCycle=999)\\Gaussian input prep
 ared by ASE\\0,1\C,-0.7584301664,0.644204388,-1.1274059393\C,-0.070287
 903,0.0419200018,0.1163906511\F,-0.469611109,0.7468676209,1.2043175984
 \F,-0.466838419,-1.2236734415,0.2379280319\S,2.0126641296,0.2317076207
 ,-0.1364355996\O,2.0678274836,-0.7813645557,1.03042101\O,3.5372969739,
 -0.139478355,0.1405998671\O,2.0127204093,1.7246542178,0.4874898619\F,-
 0.4040824354,1.9230742892,-1.273270669\F,-0.3836759757,-0.0273318665,-
 2.2141936649\F,-2.082388958,0.5834607132,-1.0231894262\H,1.2331398331,
 1.9060978456,1.0288286297\\Version=ES64L-G16RevC.01\HF=-1199.6397737\R
 MSD=7.510e-09\RMSF=2.888e-06\ZeroPoint=0.0466734\Thermal=0.0576815\ETo
 t=-1199.5820922\HTot=-1199.581148\GTot=-1199.630909\Dipole=-0.4537665,
 0.4601993,-0.0983885\DipoleDeriv=1.6966588,0.0532506,-0.0793952,-0.299
 161,1.5725031,0.0632738,0.6506793,0.0865075,1.5348032,1.4109737,0.0214
 133,0.0014774,0.7690638,1.0940396,0.3124494,-0.8251006,0.1979366,0.795
 3362,-0.764293,0.142791,0.1445532,0.2894789,-0.4529033,-0.2068924,0.56
 01841,-0.3401725,-0.6659905,-0.5933714,-0.2559993,-0.0200228,-0.66687,
 -0.8138728,-0.0468818,0.1082439,0.101784,-0.2415539,-0.2116934,-0.0296
 223,-0.2957602,0.5208962,1.4329209,0.3645471,-1.0184515,0.4326513,0.48
 45584,1.4536906,-0.2936517,0.4865733,0.1236411,-0.4208323,0.0452459,-0
 .3334339,0.2928361,-0.4265881,-0.9482697,0.2933307,-0.2040842,-0.75437
 74,-0.1124173,-0.2628528,1.2000142,-0.2507839,0.1691484,-0.3327509,0.1
 296564,-0.0340915,-0.0819582,-1.0503392,-0.2168537,-0.020196,-0.458415
 2,-0.5141292,-0.3482012,-0.0947948,-0.0381678,-0.0295488,-0.8628932,0.
 0709739,-0.0881905,0.1399224,-0.3420968,-0.3450579,0.0837431,0.0634693
 ,0.0743212,-0.424732,-0.2097101,-0.0402754,-0.2761282,-0.7886624,-1.28
 57802,0.0022009,-0.0463,0.0995574,-0.2869988,0.0382552,-0.2238964,0.03
 04948,-0.3604233,0.2680946,-0.0523179,0.0217486,-0.0450433,0.3255254,0
 .0484455,0.0304229,0.043367,0.3555979\Polar=98.1904061,-3.4737316,56.5
 473659,4.3383604,-2.2023624,52.1829061\PG=Unknown\NImag=1\\0.55161221,
 -0.01061806,0.54993343,0.01977898,-0.00897660,0.57162262,-0.08246850,0
 .01910692,-0.03964882,0.33838838,0.03380705,-0.05530122,0.03846476,0.0
 0993449,0.49301029,-0.07486138,0.04138102,-0.12454317,-0.00139398,-0.0
 0563436,0.47323758,0.00061822,-0.00248030,-0.00512068,-0.07951249,0.03
 686242,0.07070237,0.07572955,0.00057404,-0.00265229,-0.00639120,0.0236
 1935,-0.09556335,-0.06934879,-0.03509028,0.14391144,0.02687427,-0.0311
 4832,-0.04018360,0.04186689,-0.06528386,-0.20988886,-0.06621275,0.1173
 9664,0.25915312,0.00102688,0.00546471,-0.00346115,-0.09094717,-0.09167
 288,0.02018026,0.01132326,0.01014900,-0.00372927,0.07532304,-0.0194075
 1,-0.04783141,0.00459695,-0.06610834,-0.27715900,0.04807612,-0.0051306
 8,-0.05358781,-0.02852086,0.08773541,0.38190750,0.01579104,0.02954463,
 0.00023931,0.00909197,0.03710692,-0.07608248,-0.01051687,-0.04414140,0
 .00384841,-0.00724442,-0.03272391,0.07383718,-0.01976021,-0.01106899,0
 .01410092,0.01416542,0.06629070,-0.02003889,-0.02302938,0.00825672,0.0
 2284081,0.00782696,-0.01567940,0.00554577,0.04842744,0.00995655,0.0237
 1648,-0.01639275,-0.01774355,-0.03728171,0.03098838,0.01481258,-0.0155
 1682,-0.02128770,-0.01196821,-0.00013983,-0.00166866,0.01468378,0.3991
 3265,-0.01734179,-0.00767746,0.02569194,0.01425858,0.03719787,-0.05555
 862,0.00850572,-0.00308335,0.00198849,-0.00179463,-0.01549740,0.007181
 56,-0.09153532,0.00358766,0.30400870,0.00033485,0.01236734,-0.02260318
 ,-0.06168603,-0.04235594,0.02338357,0.01865416,-0.00933681,-0.02269425
 ,-0.00071437,0.02259316,-0.01067352,0.20533848,-0.08374405,0.15146502,
 -0.09831010,-0.00154719,-0.00162696,0.00052774,0.00150927,0.00051296,-
 0.00330363,0.00383561,-0.00048081,-0.00001145,-0.00085837,0.00270014,-
 0.00058321,0.01515671,-0.16284536,0.14754413,0.02808207,0.19238613,0.0
 0312973,-0.00051256,0.00114940,0.00947147,0.00238095,-0.00686322,-0.00
 166818,0.00051150,0.00414337,-0.00738942,-0.00540517,0.00189132,-0.059
 32291,0.18052355,-0.25213863,-0.00723663,-0.18186097,0.23436831,0.0017
 9468,-0.00344783,0.00803912,0.00102288,0.00857104,-0.00379004,-0.00792
 776,0.00462338,0.00731979,-0.00631723,-0.00946707,0.00036659,-0.189564
 73,0.06370750,-0.07441438,-0.06506250,-0.04322564,0.06276177,0.2845344
 8,-0.00127803,-0.00745909,0.01183384,0.02332347,0.02370681,-0.01654799
 ,-0.00979394,0.00658256,0.01151578,-0.00088140,-0.00924093,0.00312172,
 -0.07707682,0.00216140,-0.07298590,0.06504597,-0.01226955,0.00053105,-
 0.03203996,0.01477124,0.00355985,0.00982775,-0.01979754,-0.03691759,-0
 .03793816,0.03477989,0.01025066,-0.00635638,-0.01488235,0.00462699,0.0
 1811732,-0.00654081,0.13250993,-0.06771838,0.08194326,-0.12153242,0.01
 798697,-0.00027201,-0.00355168,0.06679571,-0.08896360,0.00233719,0.005
 31220,-0.00060571,-0.00453638,-0.01441500,-0.00156022,0.00024134,-0.00
 753825,-0.00490948,-0.00447182,-0.00189960,0.00035607,-0.04353510,0.00
 654578,0.02286786,-0.00882463,-0.00224091,0.00216375,-0.01379279,0.036
 76228,0.00219566,0.41820379,-0.00175082,-0.01198111,0.00618821,0.00720
 117,-0.01140138,-0.01643538,-0.00173625,0.00734426,0.00618832,-0.00568
 724,-0.00350622,0.00103988,-0.02354003,-0.17949329,-0.06820217,0.01088
 540,-0.02122690,0.00206059,0.00543862,-0.01687985,0.00333159,-0.064301
 66,0.26906462,0.00245054,-0.00097875,-0.00014699,0.00646668,-0.0053493
 8,-0.00817452,0.00174506,0.00630758,0.00550239,-0.00047491,0.00096055,
 0.00074122,-0.00428988,-0.10278810,-0.08663748,-0.00291716,0.01733991,
 0.01897621,0.01165220,-0.00250453,0.00116210,-0.24520038,0.13002087,0.
 22758370,-0.08267107,-0.03418947,0.00512294,0.00635770,0.00579343,0.00
 036368,0.00082225,-0.00022150,-0.00157956,0.00111767,0.00337597,-0.002
 63248,0.00300644,-0.00407677,0.00179005,-0.00105207,0.00064687,-0.0006
 5537,-0.00024293,0.00080066,-0.00099063,-0.00334333,0.00242543,-0.0025
 1496,0.10350560,-0.02966612,-0.26122477,0.04895094,-0.01516727,-0.0381
 8813,-0.00282054,0.00066658,0.00493597,0.00394250,0.00432389,-0.004601
 14,0.00793038,0.00327818,-0.00964433,0.00295671,-0.00499618,0.00098923
 ,0.00005144,0.00152121,0.00304351,-0.00392483,-0.00181567,0.00656796,0
 .00052560,0.08291654,0.38177960,0.00253460,0.04317981,-0.09053714,0.00
 950891,0.02682267,0.00351366,-0.00101606,0.00154268,0.00125039,-0.0021
 8035,0.00708100,-0.00594882,-0.00102568,0.00086575,-0.00324494,0.00236
 377,0.00007870,-0.00009475,-0.00105462,-0.00112486,0.00214105,-0.00215
 910,-0.00031184,-0.00109667,-0.01147791,-0.03265090,0.07862222,-0.0849
 3851,0.01952772,0.03478388,0.00613269,-0.00312855,-0.00334193,0.001043
 08,-0.00020770,-0.00415979,0.00073078,0.00127787,-0.00098729,0.0012995
 3,-0.00054488,0.00225599,-0.00076882,0.00029997,-0.00105006,-0.0001844
 5,0.00034049,-0.00113588,-0.00019427,-0.00079816,-0.00109019,0.0137787
 3,0.00053411,-0.00315799,0.10617051,0.01900111,-0.11316542,-0.07897140
 ,0.00221481,-0.00081552,-0.00293369,-0.00087259,0.00179659,0.00179578,
 0.00044712,0.00541252,0.00132229,-0.00043267,-0.00207040,-0.00189328,0
 .00088697,0.00032081,0.00004939,-0.00044608,-0.00025095,0.00082484,-0.
 00074292,0.00188846,0.00056336,0.00380163,-0.06350889,-0.05050954,-0.0
 4488153,0.16453757,0.02891354,-0.07186423,-0.24443548,0.01780302,-0.03
 009672,-0.03462011,-0.00544418,0.00233625,-0.01217246,-0.00044361,0.00
 325521,0.00085302,-0.00375947,0.00192787,-0.00708252,0.00594793,0.0002
 1431,-0.00013955,-0.00224716,-0.00287318,0.00496930,-0.00060625,0.0000
 3096,0.00074271,-0.00179501,-0.03348069,0.00296016,-0.07786568,0.14198
 107,0.29991207,-0.28711359,0.00329545,-0.01030320,-0.05039497,-0.00021
 780,0.00132631,0.00539737,-0.00062884,-0.00172270,0.00611873,0.0016443
 2,-0.00017338,-0.00325150,0.00711659,-0.00809659,0.00857096,0.00020739
 ,-0.00169487,-0.00372424,-0.00459293,0.00745113,-0.00002037,-0.0028675
 4,-0.00163523,-0.04145762,-0.04304659,0.00721678,-0.04283095,0.0203012
 0,0.03838252,0.40951963,0.00143547,-0.07490549,0.00154396,0.01309858,0
 .00153494,0.00168339,-0.00098158,0.00140506,0.00170077,0.00159182,0.00
 472288,-0.00117518,0.00225590,-0.00417135,0.00275459,-0.00280653,0.000
 27993,0.00006755,0.00082894,0.00161133,-0.00241640,-0.00071281,0.00209
 756,0.00020397,-0.06108462,-0.01853224,0.00483617,0.02739010,0.0062825
 9,-0.01192704,0.01844068,0.08008762,-0.00797888,0.00159872,-0.07782341
 ,-0.02781110,0.00170125,-0.00035207,-0.00111394,0.00131539,0.00391275,
 0.00048339,-0.00085014,0.00104787,-0.00376948,0.00538940,-0.00686371,0
 .00541856,-0.00017965,-0.00026798,-0.00198886,-0.00300882,0.00494503,0
 .00044142,-0.00206605,-0.00002887,0.01285757,0.00645123,0.01181138,0.0
 5566717,-0.01300497,-0.01130122,-0.03194090,0.00225055,0.07492393,-0.0
 0077216,-0.00326968,-0.00008311,0.00347846,-0.00946897,-0.01096974,-0.
 00335961,0.00580088,0.00610605,-0.00101674,0.00106587,0.00107653,-0.00
 092334,0.00125468,-0.00796051,0.00352007,-0.00186580,0.00149071,-0.000
 53540,-0.00060979,0.00353397,-0.34206363,0.07473107,0.23580823,0.00017
 865,0.00145133,0.00044765,-0.00023832,0.00072295,0.00111433,-0.0008134
 5,0.00054406,-0.00026493,0.34254546,-0.00050651,0.00249785,-0.00137444
 ,-0.00098889,-0.00305470,-0.00510452,-0.00009156,0.00182519,0.00371240
 ,0.00135614,0.00132330,0.00022654,0.01787593,-0.01384745,-0.02470141,0
 .00337858,0.00126038,0.00160267,0.00393591,-0.00577647,0.00146999,0.04
 504657,-0.04247413,-0.04430109,-0.00018818,-0.00161678,0.00019035,0.00
 019056,-0.00042736,0.00049619,0.00034806,-0.00041283,0.00040310,-0.070
 35661,0.06070300,-0.00285050,-0.00437402,-0.00123594,-0.00269604,0.000
 62807,0.00455192,-0.00011114,-0.00008894,-0.00267164,0.00142713,0.0009
 1034,-0.00106777,0.00874420,-0.01342702,-0.00928805,-0.00092171,0.0022
 4716,-0.00075247,-0.00309274,0.00524720,0.00051568,0.22701638,-0.06184
 500,-0.15862380,0.00151169,0.00206816,0.00062346,0.00008176,0.00077616
 ,0.00031408,0.00119013,0.00047767,-0.00000370,-0.23029918,0.06738021,0
 .16763824\\-0.00000042,-0.00000448,-0.00000027,0.00000047,-0.00000047,
 0.00000139,-0.00000075,0.00000131,-0.00000074,0.00000235,-0.00000050,0
 .00000416,0.00000038,0.00000201,-0.00000025,0.00000185,0.00000479,0.00
 000243,0.00000096,0.00000514,0.00000061,-0.00000348,0.00000351,-0.0000
 0304,-0.00000296,-0.00000416,-0.00000395,0.00000031,-0.00000632,0.0000
 0154,-0.00000032,-0.00000596,0.00000032,0.00000161,0.00000514,-0.00000
 219\\\@
 The archive entry for this job was punched.


 THE ATTENTION SPAN OF A COMPUTER IS AS LONG
 AS ITS EXTENSION CORD.
 Job cpu time:       0 days  1 hours 15 minutes 31.7 seconds.
 Elapsed time:       0 days  0 hours 11 minutes 14.6 seconds.
 File lengths (MBytes):  RWF=    104 Int=      0 D2E=      0 Chk=      6 Scr=      1
 Normal termination of Gaussian 16 at Fri May 23 04:45:50 2025.
done
